<event>
 7    0  0.4725730E-002  0.4580566E+03  0.7546771E-02  0.1025346E+00
         21   -1    0    0  502  501  0.00000000000E+00  0.00000000000E+00  0.16519980547E+03  0.16519980547E+03  0.00000000000E+00 0. -1.
         21   -1    0    0  501  502 -0.00000000000E+00 -0.00000000000E+00 -0.31751837122E+03  0.31751837122E+03  0.00000000000E+00 0. -1.
      99926    2    1    2    0    0  0.14210854715E-13  0.00000000000E+00 -0.15231856575E+03  0.48271817669E+03  0.45805664785E+03 0.  0.
      99925    2    3    3    0    0  0.68508375211E+02  0.65196092918E+02 -0.16691414451E+03  0.32522383703E+03  0.26261432659E+03 0.  0.
         25    1    3    3    0    0 -0.68508375211E+02 -0.65196092918E+02  0.14595578769E+02  0.15749433966E+03  0.12509000000E+03 0.  0.
         25    1    4    4    0    0  0.25341802842E+02 -0.43102046423E+01 -0.57875537828E+02  0.14020652914E+03  0.12509000000E+03 0.  0.
         25    1    4    4    0    0  0.43166572368E+02  0.69506297560E+02 -0.10903860669E+03  0.18501730789E+03  0.12509000000E+03 0.  0.
<mgrwt>
<rscale>  2 0.45805665E+03</rscale>
<asrwt>0</asrwt>
<pdfrwt beam="1">  1       21 0.24294089E-01 0.45805665E+03</pdfrwt>
<pdfrwt beam="2">  1       21 0.46693878E-01 0.45805665E+03</pdfrwt>
<totfact> 0.64913437E+04</totfact>
</mgrwt>
</event>
<event>
 7    0  0.4725730E-002  0.4616756E+03  0.7546771E-02  0.1024296E+00
         21   -1    0    0  502  501  0.00000000000E+00  0.00000000000E+00  0.69911566029E+02  0.69911566029E+02  0.00000000000E+00 0. -1.
         21   -1    0    0  501  502 -0.00000000000E+00 -0.00000000000E+00 -0.76219279224E+03  0.76219279224E+03  0.00000000000E+00 0. -1.
      99926    2    1    2    0    0  0.00000000000E+00  0.00000000000E+00 -0.69228122621E+03  0.83210435827E+03  0.46167560785E+03 0.  0.
      99925    2    3    3    0    0  0.62833357846E+02 -0.97929557909E+02 -0.48093351027E+03  0.56034418035E+03  0.26296450327E+03 0.  0.
         25    1    4    4    0    0 -0.41470670362E+01 -0.60576882645E+02 -0.20296549948E+03  0.24602694762E+03  0.12509000000E+03 0.  0.
         25    1    4    4    0    0  0.66980424883E+02 -0.37352675264E+02 -0.27796801079E+03  0.31431723273E+03  0.12509000000E+03 0.  0.
         25    1    3    3    0    0 -0.62833357846E+02  0.97929557909E+02 -0.21134771594E+03  0.27176017792E+03  0.12509000000E+03 0.  0.
<mgrwt>
<rscale>  2 0.46167561E+03</rscale>
<asrwt>0</asrwt>
<pdfrwt beam="1">  1       21 0.10281113E-01 0.46167561E+03</pdfrwt>
<pdfrwt beam="2">  1       21 0.11208717E+00 0.46167561E+03</pdfrwt>
<totfact> 0.43905626E+04</totfact>
</mgrwt>
</event>
<event>
 7    0  0.4725730E-002  0.4482649E+03  0.7546771E-02  0.1028241E+00
         21   -1    0    0  502  501  0.00000000000E+00  0.00000000000E+00  0.32618075538E+03  0.32618075538E+03  0.00000000000E+00 0.  1.
         21   -1    0    0  501  502 -0.00000000000E+00 -0.00000000000E+00 -0.15401078877E+03  0.15401078877E+03  0.00000000000E+00 0.  1.
      99926    2    1    2    0    0  0.00000000000E+00  0.00000000000E+00  0.17216996661E+03  0.48019154415E+03  0.44826490123E+03 0.  0.
      99925    2    3    3    0    0 -0.59517754805E+02 -0.76772520290E+02  0.15645822211E+03  0.32103517443E+03  0.26296012044E+03 0.  0.
         25    1    3    3    0    0  0.59517754805E+02  0.76772520290E+02  0.15711744497E+02  0.15915636972E+03  0.12509000000E+03 0.  0.
         25    1    4    4    0    0 -0.46193417702E+02 -0.49948195651E+02  0.12291640738E+03  0.18810796206E+03  0.12509000000E+03 0.  0.
         25    1    4    4    0    0 -0.13324337104E+02 -0.26824324639E+02  0.33541814731E+02  0.13292721236E+03  0.12509000000E+03 0.  0.
<mgrwt>
<rscale>  2 0.44826490E+03</rscale>
<asrwt>0</asrwt>
<pdfrwt beam="1">  1       21 0.47967758E-01 0.44826490E+03</pdfrwt>
<pdfrwt beam="2">  1       21 0.22648645E-01 0.44826490E+03</pdfrwt>
<totfact> 0.70374091E+04</totfact>
</mgrwt>
</event>
<event>
 7    0  0.4725730E-002  0.4616155E+03  0.7546771E-02  0.1024314E+00
         21   -1    0    0  502  501  0.00000000000E+00  0.00000000000E+00  0.84877570333E+02  0.84877570333E+02  0.00000000000E+00 0.  1.
         21   -1    0    0  501  502 -0.00000000000E+00 -0.00000000000E+00 -0.62763589285E+03  0.62763589285E+03  0.00000000000E+00 0.  1.
      99926    2    1    2    0    0  0.00000000000E+00  0.00000000000E+00 -0.54275832252E+03  0.71251346318E+03  0.46161546611E+03 0.  0.
      99925    2    3    3    0    0  0.24848610464E+02  0.10928496282E+03 -0.27663950461E+03  0.39782728636E+03  0.26301421581E+03 0.  0.
         25    1    4    4    0    0 -0.58444616856E+01  0.22059242821E+02 -0.15419730538E+03  0.19986266538E+03  0.12509000000E+03 0.  0.
         25    1    4    4    0    0  0.30693072149E+02  0.87225719999E+02 -0.12244219924E+03  0.19796462098E+03  0.12509000000E+03 0.  0.
         25    1    3    3    0    0 -0.24848610464E+02 -0.10928496282E+03 -0.26611881791E+03  0.31468617682E+03  0.12509000000E+03 0.  0.
<mgrwt>
<rscale>  2 0.46161547E+03</rscale>
<asrwt>0</asrwt>
<pdfrwt beam="1">  1       21 0.12481996E-01 0.46161547E+03</pdfrwt>
<pdfrwt beam="2">  1       21 0.92299395E-01 0.46161547E+03</pdfrwt>
<totfact> 0.49596691E+04</totfact>
</mgrwt>
</event>
<event>
 7    0  0.4725730E-002  0.4592080E+03  0.7546771E-02  0.1025011E+00
         21   -1    0    0  502  501  0.00000000000E+00  0.00000000000E+00  0.18760518546E+03  0.18760518546E+03  0.00000000000E+00 0. -1.
         21   -1    0    0  501  502 -0.00000000000E+00 -0.00000000000E+00 -0.28100501004E+03  0.28100501004E+03  0.00000000000E+00 0. -1.
      99926    2    1    2    0    0  0.00000000000E+00  0.00000000000E+00 -0.93399824583E+02  0.46861019551E+03  0.45920800091E+03 0.  0.
      99925    2    3    3    0    0  0.40453321929E+02 -0.21712256972E+02 -0.16854340720E+03  0.31563320552E+03  0.26288694711E+03 0.  0.
         25    1    3    3    0    0 -0.40453321929E+02  0.21712256972E+02  0.75143582613E+02  0.15297698999E+03  0.12509000000E+03 0.  0.
         25    1    4    4    0    0  0.53527607108E+02  0.11925668767E+02 -0.82171666517E+02  0.15939610151E+03  0.12509000000E+03 0.  0.
         25    1    4    4    0    0 -0.13074285179E+02 -0.33637925739E+02 -0.86371740678E+02  0.15623710401E+03  0.12509000000E+03 0.  0.
<mgrwt>
<rscale>  2 0.45920800E+03</rscale>
<asrwt>0</asrwt>
<pdfrwt beam="1">  1       21 0.27588998E-01 0.45920800E+03</pdfrwt>
<pdfrwt beam="2">  1       21 0.41324266E-01 0.45920800E+03</pdfrwt>
<totfact> 0.65330304E+04</totfact>
</mgrwt>
</event>
<event>
 7    0  0.4725730E-002  0.4543354E+03  0.7546771E-02  0.1026437E+00
         21   -1    0    0  502  501  0.00000000000E+00  0.00000000000E+00  0.14594717145E+03  0.14594717145E+03  0.00000000000E+00 0.  1.
         21   -1    0    0  501  502 -0.00000000000E+00 -0.00000000000E+00 -0.35358799469E+03  0.35358799469E+03  0.00000000000E+00 0.  1.
      99926    2    1    2    0    0  0.00000000000E+00 -0.35527136788E-14 -0.20764082323E+03  0.49953516614E+03  0.45433541656E+03 0.  0.
      99925    2    3    3    0    0  0.10285223448E+03  0.11439833469E+02 -0.17952033454E+03  0.33476950858E+03  0.26293273176E+03 0.  0.
         25    1    4    4    0    0  0.76237576186E+02 -0.21569609529E+02 -0.73001774947E+02  0.16508841063E+03  0.12509000000E+03 0.  0.
         25    1    3    3    0    0 -0.10285223448E+03 -0.11439833469E+02 -0.28120488694E+02  0.16476565756E+03  0.12509000000E+03 0.  0.
         25    1    4    4    0    0  0.26614658298E+02  0.33009442998E+02 -0.10651855959E+03  0.16968109795E+03  0.12509000000E+03 0.  0.
<mgrwt>
<rscale>  2 0.45433542E+03</rscale>
<asrwt>0</asrwt>
<pdfrwt beam="1">  1       21 0.21462820E-01 0.45433542E+03</pdfrwt>
<pdfrwt beam="2">  1       21 0.51998234E-01 0.45433542E+03</pdfrwt>
<totfact> 0.65648978E+04</totfact>
</mgrwt>
</event>
<event>
 7    0  0.4725730E-002  0.4540741E+03  0.7546771E-02  0.1026514E+00
         21   -1    0    0  502  501  0.00000000000E+00  0.00000000000E+00  0.26461360681E+03  0.26461360681E+03  0.00000000000E+00 0.  1.
         21   -1    0    0  501  502 -0.00000000000E+00 -0.00000000000E+00 -0.19479652407E+03  0.19479652407E+03  0.00000000000E+00 0.  1.
      99926    2    1    2    0    0  0.00000000000E+00 -0.71054273576E-14  0.69817082743E+02  0.45941013087E+03  0.45407405047E+03 0.  0.
      99925    2    3    3    0    0  0.27376274279E+02 -0.41990721351E+02 -0.57237677037E+02  0.27419916695E+03  0.26343187053E+03 0.  0.
         25    1    4    4    0    0 -0.16236452768E+02 -0.28098946120E+02 -0.56382366627E+02  0.14099522169E+03  0.12509000000E+03 0.  0.
         25    1    3    3    0    0 -0.27376274279E+02  0.41990721351E+02  0.12705475978E+03  0.18521096392E+03  0.12509000000E+03 0.  0.
         25    1    4    4    0    0  0.43612727047E+02 -0.13891775232E+02 -0.85531041004E+00  0.13320394527E+03  0.12509000000E+03 0.  0.
<mgrwt>
<rscale>  2 0.45407405E+03</rscale>
<asrwt>0</asrwt>
<pdfrwt beam="1">  1       21 0.38913766E-01 0.45407405E+03</pdfrwt>
<pdfrwt beam="2">  1       21 0.28646547E-01 0.45407405E+03</pdfrwt>
<totfact> 0.68729673E+04</totfact>
</mgrwt>
</event>
<event>
 7    0  0.4725730E-002  0.4548010E+03  0.7546771E-02  0.1026300E+00
         21   -1    0    0  502  501  0.00000000000E+00  0.00000000000E+00  0.56497295512E+03  0.56497295512E+03  0.00000000000E+00 0.  1.
         21   -1    0    0  501  502 -0.00000000000E+00 -0.00000000000E+00 -0.91528243638E+02  0.91528243638E+02  0.00000000000E+00 0.  1.
      99926    2    1    2    0    0  0.00000000000E+00  0.00000000000E+00  0.47344471148E+03  0.65650119876E+03  0.45480097751E+03 0.  0.
      99925    2    3    3    0    0 -0.11002709107E+03 -0.50166503458E+01  0.26152389043E+03  0.38689209275E+03  0.26298216406E+03 0.  0.
         25    1    3    3    0    0  0.11002709107E+03  0.50166503458E+01  0.21192082105E+03  0.26960910601E+03  0.12509000000E+03 0.  0.
         25    1    4    4    0    0 -0.26736029940E+02 -0.21852976837E+01  0.16283247033E+03  0.20707851727E+03  0.12509000000E+03 0.  0.
         25    1    4    4    0    0 -0.83291061130E+02 -0.28313526621E+01  0.98691420103E+02  0.17981357547E+03  0.12509000000E+03 0.  0.
<mgrwt>
<rscale>  2 0.45480098E+03</rscale>
<asrwt>0</asrwt>
<pdfrwt beam="1">  1       21 0.83084256E-01 0.45480098E+03</pdfrwt>
<pdfrwt beam="2">  1       21 0.13460036E-01 0.45480098E+03</pdfrwt>
<totfact> 0.55415404E+04</totfact>
</mgrwt>
</event>
<event>
 7    0  0.4725730E-002  0.4451478E+03  0.7546771E-02  0.1029179E+00
         21   -1    0    0  502  501  0.00000000000E+00  0.00000000000E+00  0.32371785136E+02  0.32371785136E+02  0.00000000000E+00 0.  1.
         21   -1    0    0  501  502 -0.00000000000E+00 -0.00000000000E+00 -0.15303184528E+04  0.15303184528E+04  0.00000000000E+00 0.  1.
      99926    2    1    2    0    0  0.00000000000E+00 -0.14210854715E-13 -0.14979466677E+04  0.15626902380E+04  0.44514779633E+03 0.  0.
      99925    2    3    3    0    0 -0.91761521005E+01 -0.85315782520E+02 -0.74753104749E+03  0.79709628837E+03  0.26305292520E+03 0.  0.
         25    1    4    4    0    0 -0.84334954755E+01 -0.65552399605E+02 -0.29487967119E+03  0.32706233277E+03  0.12509000000E+03 0.  0.
         25    1    3    3    0    0  0.91761521005E+01  0.85315782520E+02 -0.75041562022E+03  0.76559394962E+03  0.12509000000E+03 0.  0.
         25    1    4    4    0    0 -0.74265662510E+00 -0.19763382915E+02 -0.45265137630E+03  0.47003395560E+03  0.12509000000E+03 0.  0.
<mgrwt>
<rscale>  2 0.44514780E+03</rscale>
<asrwt>0</asrwt>
<pdfrwt beam="1">  1       21 0.47605556E-02 0.44514780E+03</pdfrwt>
<pdfrwt beam="2">  1       21 0.22504688E+00 0.44514780E+03</pdfrwt>
<totfact> 0.24073672E+04</totfact>
</mgrwt>
</event>
<event>
 7    0  0.4725730E-002  0.4618557E+03  0.7546771E-02  0.1024244E+00
         21   -1    0    0  502  501  0.00000000000E+00  0.00000000000E+00  0.84338959479E+02  0.84338959479E+02  0.00000000000E+00 0. -1.
         21   -1    0    0  501  502 -0.00000000000E+00 -0.00000000000E+00 -0.63230167582E+03  0.63230167582E+03  0.00000000000E+00 0. -1.
      99926    2    1    2    0    0  0.00000000000E+00 -0.14210854715E-13 -0.54796271634E+03  0.71664063530E+03  0.46185567190E+03 0.  0.
      99925    2    3    3    0    0  0.57852979679E+01  0.10363153528E+03 -0.25060247936E+03  0.37775483830E+03  0.26291472080E+03 0.  0.
         25    1    4    4    0    0  0.32142062334E+01  0.69054649705E+02 -0.18048946522E+03  0.23022343696E+03  0.12509000000E+03 0.  0.
         25    1    4    4    0    0  0.25710917345E+01  0.34576885576E+02 -0.70113014141E+02  0.14753140134E+03  0.12509000000E+03 0.  0.
         25    1    3    3    0    0 -0.57852979679E+01 -0.10363153528E+03 -0.29736023698E+03  0.33888579701E+03  0.12509000000E+03 0.  0.
<mgrwt>
<rscale>  2 0.46185567E+03</rscale>
<asrwt>0</asrwt>
<pdfrwt beam="1">  1       21 0.12402788E-01 0.46185567E+03</pdfrwt>
<pdfrwt beam="2">  1       21 0.92985544E-01 0.46185567E+03</pdfrwt>
<totfact> 0.49296009E+04</totfact>
</mgrwt>
</event>
<event>
 7    0  0.4725730E-002  0.4446906E+03  0.7546771E-02  0.1029317E+00
         21   -1    0    0  502  501  0.00000000000E+00  0.00000000000E+00  0.25101838164E+03  0.25101838164E+03  0.00000000000E+00 0. -1.
         21   -1    0    0  501  502 -0.00000000000E+00 -0.00000000000E+00 -0.19694741683E+03  0.19694741683E+03  0.00000000000E+00 0. -1.
      99926    2    1    2    0    0  0.00000000000E+00  0.00000000000E+00  0.54070964817E+02  0.44796579847E+03  0.44469055236E+03 0.  0.
      99925    2    3    3    0    0 -0.53963996400E+02  0.32730817598E+02 -0.47853376124E+02  0.27470443894E+03  0.26303833150E+03 0.  0.
         25    1    3    3    0    0  0.53963996400E+02 -0.32730817598E+02  0.10192434094E+03  0.17326135953E+03  0.12509000000E+03 0.  0.
         25    1    4    4    0    0 -0.31828306314E+02 -0.24008897656E+02 -0.19779840060E+02  0.13277130120E+03  0.12509000000E+03 0.  0.
         25    1    4    4    0    0 -0.22135690086E+02  0.56739715254E+02 -0.28073536065E+02  0.14193313774E+03  0.12509000000E+03 0.  0.
<mgrwt>
<rscale>  2 0.44469055E+03</rscale>
<asrwt>0</asrwt>
<pdfrwt beam="1">  1       21 0.36914468E-01 0.44469055E+03</pdfrwt>
<pdfrwt beam="2">  1       21 0.28962855E-01 0.44469055E+03</pdfrwt>
<totfact> 0.75049731E+04</totfact>
</mgrwt>
</event>
<event>
 7    0  0.4725730E-002  0.4457149E+03  0.7546771E-02  0.1029008E+00
         21   -1    0    0  502  501  0.00000000000E+00  0.00000000000E+00  0.37709778376E+03  0.37709778376E+03  0.00000000000E+00 0.  1.
         21   -1    0    0  501  502 -0.00000000000E+00 -0.00000000000E+00 -0.13170443451E+03  0.13170443451E+03  0.00000000000E+00 0.  1.
      99926    2    1    2    0    0  0.00000000000E+00  0.00000000000E+00  0.24539334925E+03  0.50880221827E+03  0.44571493296E+03 0.  0.
      99925    2    3    3    0    0  0.89149205777E+02  0.49130089346E+02  0.13033868788E+03  0.31069510135E+03  0.26302457276E+03 0.  0.
         25    1    4    4    0    0  0.60708650620E+02  0.62433731567E+02  0.81051069674E+02  0.17262761973E+03  0.12509000000E+03 0.  0.
         25    1    3    3    0    0 -0.89149205777E+02 -0.49130089346E+02  0.11505466137E+03  0.19810711692E+03  0.12509000000E+03 0.  0.
         25    1    4    4    0    0  0.28440555157E+02 -0.13303642220E+02  0.49287618206E+02  0.13806748163E+03  0.12509000000E+03 0.  0.
<mgrwt>
<rscale>  2 0.44571493E+03</rscale>
<asrwt>0</asrwt>
<pdfrwt beam="1">  1       21 0.55455556E-01 0.44571493E+03</pdfrwt>
<pdfrwt beam="2">  1       21 0.19368299E-01 0.44571493E+03</pdfrwt>
<totfact> 0.69648526E+04</totfact>
</mgrwt>
</event>
<event>
 7    0  0.4725730E-002  0.4533753E+03  0.7546771E-02  0.1026720E+00
         21   -1    0    0  502  501  0.00000000000E+00  0.00000000000E+00  0.11514282990E+03  0.11514282990E+03  0.00000000000E+00 0.  1.
         21   -1    0    0  501  502 -0.00000000000E+00 -0.00000000000E+00 -0.44629162669E+03  0.44629162669E+03  0.00000000000E+00 0.  1.
      99926    2    1    2    0    0  0.44408920985E-15  0.00000000000E+00 -0.33114879678E+03  0.56143445659E+03  0.45337525675E+03 0.  0.
      99925    2    3    3    0    0  0.18544221129E+01  0.11306451153E+02 -0.34613145683E+03  0.43493045301E+03  0.26310879657E+03 0.  0.
         25    1    3    3    0    0 -0.18544221129E+01 -0.11306451153E+02  0.14982660044E+02  0.12650400358E+03  0.12509000000E+03 0.  0.
         25    1    4    4    0    0 -0.60611460846E+01 -0.15163472940E+02 -0.11514996260E+03  0.17080307489E+03  0.12509000000E+03 0.  0.
         25    1    4    4    0    0  0.79155681975E+01  0.26469924092E+02 -0.23098149422E+03  0.26412737813E+03  0.12509000000E+03 0.  0.
<mgrwt>
<rscale>  2 0.45337526E+03</rscale>
<asrwt>0</asrwt>
<pdfrwt beam="1">  1       21 0.16932769E-01 0.45337526E+03</pdfrwt>
<pdfrwt beam="2">  1       21 0.65631123E-01 0.45337526E+03</pdfrwt>
<totfact> 0.61908943E+04</totfact>
</mgrwt>
</event>
<event>
 7    0  0.4725730E-002  0.4527420E+03  0.7546771E-02  0.1026908E+00
         21   -1    0    0  502  501  0.00000000000E+00  0.00000000000E+00  0.40679486833E+03  0.40679486833E+03  0.00000000000E+00 0. -1.
         21   -1    0    0  501  502 -0.00000000000E+00 -0.00000000000E+00 -0.12596968228E+03  0.12596968228E+03  0.00000000000E+00 0. -1.
      99926    2    1    2    0    0  0.00000000000E+00 -0.71054273576E-14  0.28082518605E+03  0.53276455061E+03  0.45274195881E+03 0.  0.
      99925    2    3    3    0    0  0.23413174261E+02 -0.44122049530E+02  0.29384893434E+03  0.39744249733E+03  0.26290380462E+03 0.  0.
         25    1    4    4    0    0  0.28769736132E+02 -0.11653673123E+02  0.19882332274E+03  0.23694245626E+03  0.12509000000E+03 0.  0.
         25    1    4    4    0    0 -0.53565618711E+01 -0.32468376407E+02  0.95025611604E+02  0.16050004107E+03  0.12509000000E+03 0.  0.
         25    1    3    3    0    0 -0.23413174261E+02  0.44122049530E+02 -0.13023748296E+02  0.13532205328E+03  0.12509000000E+03 0.  0.
<mgrwt>
<rscale>  2 0.45274196E+03</rscale>
<asrwt>0</asrwt>
<pdfrwt beam="1">  1       21 0.59822774E-01 0.45274196E+03</pdfrwt>
<pdfrwt beam="2">  1       21 0.18524953E-01 0.45274196E+03</pdfrwt>
<totfact> 0.64159073E+04</totfact>
</mgrwt>
</event>
<event>
 7    0  0.4725730E-002  0.3928656E+03  0.7546771E-02  0.1046278E+00
         21   -1    0    0  502  501  0.00000000000E+00  0.00000000000E+00  0.14346556607E+03  0.14346556607E+03  0.00000000000E+00 0.  1.
         21   -1    0    0  501  502 -0.00000000000E+00 -0.00000000000E+00 -0.26895544612E+03  0.26895544612E+03  0.00000000000E+00 0.  1.
      99926    2    1    2    0    0  0.00000000000E+00  0.13322676296E-14 -0.12548988005E+03  0.41242101219E+03  0.39286560209E+03 0.  0.
      99925    2    3    3    0    0 -0.26126595913E+02 -0.16055343461E+01 -0.72589453789E+02  0.27410564807E+03  0.26301996264E+03 0.  0.
         25    1    3    3    0    0  0.26126595913E+02  0.16055343461E+01 -0.52900426257E+02  0.13831536412E+03  0.12509000000E+03 0.  0.
         25    1    4    4    0    0 -0.14452343622E+02 -0.28602843313E+02 -0.57437686090E+01  0.12925746346E+03  0.12509000000E+03 0.  0.
         25    1    4    4    0    0 -0.11674252290E+02  0.26997308967E+02 -0.66845685180E+02  0.14484818461E+03  0.12509000000E+03 0.  0.
<mgrwt>
<rscale>  2 0.39286560E+03</rscale>
<asrwt>0</asrwt>
<pdfrwt beam="1">  1       21 0.21097877E-01 0.39286560E+03</pdfrwt>
<pdfrwt beam="2">  1       21 0.39552272E-01 0.39286560E+03</pdfrwt>
<totfact> 0.12182856E+05</totfact>
</mgrwt>
</event>
<event>
 7    0  0.4725730E-002  0.4465208E+03  0.7546771E-02  0.1028765E+00
         21   -1    0    0  502  501  0.00000000000E+00  0.00000000000E+00  0.14047571925E+03  0.14047571925E+03  0.00000000000E+00 0.  1.
         21   -1    0    0  501  502 -0.00000000000E+00 -0.00000000000E+00 -0.35483145654E+03  0.35483145654E+03  0.00000000000E+00 0.  1.
      99926    2    1    2    0    0  0.00000000000E+00  0.35527136788E-14 -0.21435573730E+03  0.49530717579E+03  0.44652079042E+03 0.  0.
      99925    2    3    3    0    0  0.34216325726E+02 -0.30666189547E+02 -0.24078025468E+03  0.35945087175E+03  0.26290421456E+03 0.  0.
         25    1    4    4    0    0  0.10015282971E+02 -0.30904456119E+02 -0.71879604162E+02  0.14788366000E+03  0.12509000000E+03 0.  0.
         25    1    3    3    0    0 -0.34216325726E+02  0.30666189547E+02  0.26424517389E+02  0.13585630404E+03  0.12509000000E+03 0.  0.
         25    1    4    4    0    0  0.24201042755E+02  0.23826657194E+00 -0.16890065052E+03  0.21156721175E+03  0.12509000000E+03 0.  0.
<mgrwt>
<rscale>  2 0.44652079E+03</rscale>
<asrwt>0</asrwt>
<pdfrwt beam="1">  1       21 0.20658194E-01 0.44652079E+03</pdfrwt>
<pdfrwt beam="2">  1       21 0.52181096E-01 0.44652079E+03</pdfrwt>
<totfact> 0.70209611E+04</totfact>
</mgrwt>
</event>
<event>
 7    0  0.4725730E-002  0.4629679E+03  0.7546771E-02  0.1023924E+00
         21   -1    0    0  502  501  0.00000000000E+00  0.00000000000E+00  0.14013829675E+03  0.14013829675E+03  0.00000000000E+00 0.  1.
         21   -1    0    0  501  502 -0.00000000000E+00 -0.00000000000E+00 -0.38237092332E+03  0.38237092332E+03  0.00000000000E+00 0.  1.
      99926    2    1    2    0    0 -0.71054273576E-14 -0.35527136788E-14 -0.24223262656E+03  0.52250922007E+03  0.46296786031E+03 0.  0.
      99925    2    3    3    0    0  0.39045093599E+02 -0.76916667694E+01 -0.22961895168E+02  0.26694935855E+03  0.26296583491E+03 0.  0.
         25    1    3    3    0    0 -0.39045093599E+02  0.76916667694E+01 -0.21927073140E+03  0.25555986152E+03  0.12509000000E+03 0.  0.
         25    1    4    4    0    0  0.36998885134E+02 -0.36011026970E+02 -0.29524743959E+02  0.13850967537E+03  0.12509000000E+03 0.  0.
         25    1    4    4    0    0  0.20462084648E+01  0.28319360201E+02  0.65628487916E+01  0.12843968318E+03  0.12509000000E+03 0.  0.
<mgrwt>
<rscale>  2 0.46296786E+03</rscale>
<asrwt>0</asrwt>
<pdfrwt beam="1">  1       21 0.20608573E-01 0.46296786E+03</pdfrwt>
<pdfrwt beam="2">  1       21 0.56231019E-01 0.46296786E+03</pdfrwt>
<totfact> 0.59842922E+04</totfact>
</mgrwt>
</event>
<event>
 7    0  0.4725730E-002  0.4386398E+03  0.7546771E-02  0.1031165E+00
         21   -1    0    0  502  501  0.00000000000E+00  0.00000000000E+00  0.58312469957E+03  0.58312469957E+03  0.00000000000E+00 0. -1.
         21   -1    0    0  501  502 -0.00000000000E+00 -0.00000000000E+00 -0.82488740108E+02  0.82488740108E+02  0.00000000000E+00 0. -1.
      99926    2    1    2    0    0  0.00000000000E+00  0.00000000000E+00  0.50063595946E+03  0.66561343968E+03  0.43863981485E+03 0.  0.
      99925    2    3    3    0    0 -0.35708646926E+02  0.72083204706E+02  0.40295651628E+03  0.48768121217E+03  0.26265550598E+03 0.  0.
         25    1    4    4    0    0 -0.24061283335E+02  0.21164045499E+02  0.26214557519E+03  0.29222366925E+03  0.12509000000E+03 0.  0.
         25    1    4    4    0    0 -0.11647363592E+02  0.50919159207E+02  0.14081094109E+03  0.19545754292E+03  0.12509000000E+03 0.  0.
         25    1    3    3    0    0  0.35708646926E+02 -0.72083204706E+02  0.97679443175E+02  0.17793222751E+03  0.12509000000E+03 0.  0.
<mgrwt>
<rscale>  2 0.43863981E+03</rscale>
<asrwt>0</asrwt>
<pdfrwt beam="1">  1       21 0.85753630E-01 0.43863981E+03</pdfrwt>
<pdfrwt beam="2">  1       21 0.12130697E-01 0.43863981E+03</pdfrwt>
<totfact> 0.62482567E+04</totfact>
</mgrwt>
</event>
<event>
 7    0  0.4725730E-002  0.4555362E+03  0.7546771E-02  0.1026084E+00
         21   -1    0    0  502  501  0.00000000000E+00  0.00000000000E+00  0.85331006060E+02  0.85331006060E+02  0.00000000000E+00 0.  1.
         21   -1    0    0  501  502 -0.00000000000E+00 -0.00000000000E+00 -0.60796538817E+03  0.60796538817E+03  0.00000000000E+00 0.  1.
      99926    2    1    2    0    0  0.35527136788E-14  0.00000000000E+00 -0.52263438211E+03  0.69329639423E+03  0.45553615980E+03 0.  0.
      99925    2    3    3    0    0  0.23070820281E+02 -0.90384021410E+02 -0.42765020890E+03  0.51061898639E+03  0.26295534605E+03 0.  0.
         25    1    4    4    0    0 -0.59034610131E+01 -0.66726893354E+02 -0.27726033479E+03  0.31146128250E+03  0.12509000000E+03 0.  0.
         25    1    3    3    0    0 -0.23070820281E+02  0.90384021410E+02 -0.94984173212E+02  0.18267740784E+03  0.12509000000E+03 0.  0.
         25    1    4    4    0    0  0.28974281294E+02 -0.23657128056E+02 -0.15038987411E+03  0.19915770389E+03  0.12509000000E+03 0.  0.
<mgrwt>
<rscale>  2 0.45553616E+03</rscale>
<asrwt>0</asrwt>
<pdfrwt beam="1">  1       21 0.12548678E-01 0.45553616E+03</pdfrwt>
<pdfrwt beam="2">  1       21 0.89406674E-01 0.45553616E+03</pdfrwt>
<totfact> 0.53044269E+04</totfact>
</mgrwt>
</event>
<event>
 7    0  0.4725730E-002  0.4584947E+03  0.7546771E-02  0.1025219E+00
         21   -1    0    0  502  501  0.00000000000E+00  0.00000000000E+00  0.58187790503E+02  0.58187790503E+02  0.00000000000E+00 0.  1.
         21   -1    0    0  501  502 -0.00000000000E+00 -0.00000000000E+00 -0.90318515054E+03  0.90318515054E+03  0.00000000000E+00 0.  1.
      99926    2    1    2    0    0 -0.14210854715E-13  0.17763568394E-14 -0.84499736004E+03  0.96137294105E+03  0.45849470368E+03 0.  0.
      99925    2    3    3    0    0 -0.84575785303E+02 -0.13357455106E+02 -0.36533190260E+03  0.45832429108E+03  0.26317726284E+03 0.  0.
         25    1    4    4    0    0 -0.66989821895E+02  0.15322349417E+02 -0.15012982029E+03  0.20714459122E+03  0.12509000000E+03 0.  0.
         25    1    4    4    0    0 -0.17585963408E+02 -0.28679804524E+02 -0.21520208230E+03  0.25117969987E+03  0.12509000000E+03 0.  0.
         25    1    3    3    0    0  0.84575785303E+02  0.13357455106E+02 -0.47966545744E+03  0.50304864996E+03  0.12509000000E+03 0.  0.
<mgrwt>
<rscale>  2 0.45849470E+03</rscale>
<asrwt>0</asrwt>
<pdfrwt beam="1">  1       21 0.85570286E-02 0.45849470E+03</pdfrwt>
<pdfrwt beam="2">  1       21 0.13282134E+00 0.45849470E+03</pdfrwt>
<totfact> 0.39590794E+04</totfact>
</mgrwt>
</event>
<event>
 7    0  0.4725730E-002  0.4618400E+03  0.7546771E-02  0.1024249E+00
         21   -1    0    0  502  501  0.00000000000E+00  0.00000000000E+00  0.94166720264E+03  0.94166720264E+03  0.00000000000E+00 0. -1.
         21   -1    0    0  501  502 -0.00000000000E+00 -0.00000000000E+00 -0.56627277334E+02  0.56627277334E+02  0.00000000000E+00 0. -1.
      99926    2    1    2    0    0  0.14210854715E-13  0.00000000000E+00  0.88503992531E+03  0.99829447998E+03  0.46184001490E+03 0.  0.
      99925    2    3    3    0    0  0.79239079646E+02  0.87162159248E+02  0.51151709254E+03  0.58714622393E+03  0.26308720716E+03 0.  0.
         25    1    4    4    0    0  0.37665515012E+02  0.10789732054E+02  0.18384590652E+03  0.22579179521E+03  0.12509000000E+03 0.  0.
         25    1    4    4    0    0  0.41573564635E+02  0.76372427194E+02  0.32767118602E+03  0.36135442872E+03  0.12509000000E+03 0.  0.
         25    1    3    3    0    0 -0.79239079646E+02 -0.87162159248E+02  0.37352283277E+03  0.41114825604E+03  0.12509000000E+03 0.  0.
<mgrwt>
<rscale>  2 0.46184001E+03</rscale>
<asrwt>0</asrwt>
<pdfrwt beam="1">  1       21 0.13848046E+00 0.46184001E+03</pdfrwt>
<pdfrwt beam="2">  1       21 0.83275414E-02 0.46184001E+03</pdfrwt>
<totfact> 0.37205549E+04</totfact>
</mgrwt>
</event>
<event>
 7    0  0.4725730E-002  0.4536120E+03  0.7546771E-02  0.1026650E+00
         21   -1    0    0  502  501  0.00000000000E+00  0.00000000000E+00  0.62807284444E+02  0.62807284444E+02  0.00000000000E+00 0.  1.
         21   -1    0    0  501  502 -0.00000000000E+00 -0.00000000000E+00 -0.81902865732E+03  0.81902865732E+03  0.00000000000E+00 0.  1.
      99926    2    1    2    0    0  0.00000000000E+00  0.00000000000E+00 -0.75622137287E+03  0.88183594176E+03  0.45361201857E+03 0.  0.
      99925    2    3    3    0    0  0.34786025421E+02  0.10603432357E+03 -0.49162395476E+03  0.56860655759E+03  0.26299421875E+03 0.  0.
         25    1    4    4    0    0 -0.18990965203E+02  0.58541226683E+02 -0.27592036663E+03  0.30913959436E+03  0.12509000000E+03 0.  0.
         25    1    3    3    0    0 -0.34786025421E+02 -0.10603432357E+03 -0.26459741811E+03  0.31322938417E+03  0.12509000000E+03 0.  0.
         25    1    4    4    0    0  0.53776990624E+02  0.47493096887E+02 -0.21570358813E+03  0.25946696323E+03  0.12509000000E+03 0.  0.
<mgrwt>
<rscale>  2 0.45361202E+03</rscale>
<asrwt>0</asrwt>
<pdfrwt beam="1">  1       21 0.92363654E-02 0.45361202E+03</pdfrwt>
<pdfrwt beam="2">  1       21 0.12044539E+00 0.45361202E+03</pdfrwt>
<totfact> 0.44510248E+04</totfact>
</mgrwt>
</event>
<event>
 7    0  0.4725730E-002  0.4569823E+03  0.7546771E-02  0.1025660E+00
         21   -1    0    0  502  501  0.00000000000E+00  0.00000000000E+00  0.28083902432E+03  0.28083902432E+03  0.00000000000E+00 0. -1.
         21   -1    0    0  501  502 -0.00000000000E+00 -0.00000000000E+00 -0.18590085484E+03  0.18590085484E+03  0.00000000000E+00 0. -1.
      99926    2    1    2    0    0  0.00000000000E+00  0.00000000000E+00  0.94938169480E+02  0.46673987915E+03  0.45698233967E+03 0.  0.
      99925    2    3    3    0    0  0.64616149062E+02  0.76579111931E+02  0.16685449506E+01  0.28130434301E+03  0.26284927668E+03 0.  0.
         25    1    4    4    0    0  0.44809790812E+02  0.54212698849E+02  0.36472899492E+02  0.14806996511E+03  0.12509000000E+03 0.  0.
         25    1    4    4    0    0  0.19806358249E+02  0.22366413082E+02 -0.34804354542E+02  0.13323437791E+03  0.12509000000E+03 0.  0.
         25    1    3    3    0    0 -0.64616149062E+02 -0.76579111931E+02  0.93269624529E+02  0.18543553614E+03  0.12509000000E+03 0.  0.
<mgrwt>
<rscale>  2 0.45698234E+03</rscale>
<asrwt>0</asrwt>
<pdfrwt beam="1">  1       21 0.41299857E-01 0.45698234E+03</pdfrwt>
<pdfrwt beam="2">  1       21 0.27338361E-01 0.45698234E+03</pdfrwt>
<totfact> 0.66625254E+04</totfact>
</mgrwt>
</event>
<event>
 7    0  0.4725730E-002  0.4524974E+03  0.7546771E-02  0.1026980E+00
         21   -1    0    0  502  501  0.00000000000E+00  0.00000000000E+00  0.40855682147E+03  0.40855682147E+03  0.00000000000E+00 0. -1.
         21   -1    0    0  501  502 -0.00000000000E+00 -0.00000000000E+00 -0.12529096803E+03  0.12529096803E+03  0.00000000000E+00 0. -1.
      99926    2    1    2    0    0  0.00000000000E+00 -0.14210854715E-13  0.28326585344E+03  0.53384778949E+03  0.45249742389E+03 0.  0.
      99925    2    3    3    0    0 -0.39790043658E+02 -0.10006947649E+03  0.20893177651E+03  0.35282234710E+03  0.26312349511E+03 0.  0.
         25    1    4    4    0    0 -0.45865309706E+02 -0.54342634396E+02  0.69115770000E+02  0.15962846335E+03  0.12509000000E+03 0.  0.
         25    1    3    3    0    0  0.39790043658E+02  0.10006947649E+03  0.74334076930E+02  0.18102544239E+03  0.12509000000E+03 0.  0.
         25    1    4    4    0    0  0.60752660481E+01 -0.45726842094E+02  0.13981600651E+03  0.19319388376E+03  0.12509000000E+03 0.  0.
<mgrwt>
<rscale>  2 0.45249742E+03</rscale>
<asrwt>0</asrwt>
<pdfrwt beam="1">  1       21 0.60081885E-01 0.45249742E+03</pdfrwt>
<pdfrwt beam="2">  1       21 0.18425142E-01 0.45249742E+03</pdfrwt>
<totfact> 0.64209094E+04</totfact>
</mgrwt>
</event>
<event>
 7    0  0.4725730E-002  0.4476273E+03  0.7546771E-02  0.1028432E+00
         21   -1    0    0  502  501  0.00000000000E+00  0.00000000000E+00  0.49387958294E+03  0.49387958294E+03  0.00000000000E+00 0. -1.
         21   -1    0    0  501  502 -0.00000000000E+00 -0.00000000000E+00 -0.10142665677E+03  0.10142665677E+03  0.00000000000E+00 0. -1.
      99926    2    1    2    0    0  0.00000000000E+00 -0.71054273576E-14  0.39245292617E+03  0.59530623972E+03  0.44762732243E+03 0.  0.
      99925    2    3    3    0    0 -0.36346177949E+02  0.55425775857E+02  0.35888534384E+03  0.44981619894E+03  0.26295030239E+03 0.  0.
         25    1    4    4    0    0 -0.36359110196E+02  0.52788746919E+02  0.14445428249E+03  0.20155194002E+03  0.12509000000E+03 0.  0.
         25    1    3    3    0    0  0.36346177949E+02 -0.55425775857E+02  0.33567582330E+02  0.14549004077E+03  0.12509000000E+03 0.  0.
         25    1    4    4    0    0  0.12932247066E-01  0.26370289377E+01  0.21443106135E+03  0.24826425892E+03  0.12509000000E+03 0.  0.
<mgrwt>
<rscale>  2 0.44762732E+03</rscale>
<asrwt>0</asrwt>
<pdfrwt beam="1">  1       21 0.72629349E-01 0.44762732E+03</pdfrwt>
<pdfrwt beam="2">  1       21 0.14915685E-01 0.44762732E+03</pdfrwt>
<totfact> 0.62532357E+04</totfact>
</mgrwt>
</event>
<event>
 7    0  0.4725730E-002  0.4605618E+03  0.7546771E-02  0.1024618E+00
         21   -1    0    0  502  501  0.00000000000E+00  0.00000000000E+00  0.12888321286E+03  0.12888321286E+03  0.00000000000E+00 0.  1.
         21   -1    0    0  501  502 -0.00000000000E+00 -0.00000000000E+00 -0.41145226298E+03  0.41145226298E+03  0.00000000000E+00 0.  1.
      99926    2    1    2    0    0  0.00000000000E+00  0.14210854715E-13 -0.28256905012E+03  0.54033547583E+03  0.46056178561E+03 0.  0.
      99925    2    3    3    0    0 -0.30386868448E+02 -0.71524332767E+02 -0.28160821530E+03  0.39306863213E+03  0.26298416433E+03 0.  0.
         25    1    4    4    0    0  0.70602171326E+01 -0.69558522021E+02 -0.15699792646E+03  0.21256549971E+03  0.12509000000E+03 0.  0.
         25    1    4    4    0    0 -0.37447085581E+02 -0.19658107459E+01 -0.12461028883E+03  0.18050313242E+03  0.12509000000E+03 0.  0.
         25    1    3    3    0    0  0.30386868448E+02  0.71524332767E+02 -0.96083482143E+00  0.14726684371E+03  0.12509000000E+03 0.  0.
<mgrwt>
<rscale>  2 0.46056179E+03</rscale>
<asrwt>0</asrwt>
<pdfrwt beam="1">  1       21 0.18953414E-01 0.46056179E+03</pdfrwt>
<pdfrwt beam="2">  1       21 0.60507685E-01 0.46056179E+03</pdfrwt>
<totfact> 0.59831283E+04</totfact>
</mgrwt>
</event>
<event>
 7    0  0.4725730E-002  0.4623239E+03  0.7546771E-02  0.1024109E+00
         21   -1    0    0  502  501  0.00000000000E+00  0.00000000000E+00  0.14519179896E+04  0.14519179896E+04  0.00000000000E+00 0.  1.
         21   -1    0    0  501  502 -0.00000000000E+00 -0.00000000000E+00 -0.36803631955E+02  0.36803631955E+02  0.00000000000E+00 0.  1.
      99926    2    1    2    0    0  0.00000000000E+00  0.00000000000E+00  0.14151143576E+04  0.14887216215E+04  0.46232393543E+03 0.  0.
      99925    2    3    3    0    0 -0.57272480357E+02 -0.39242977156E+02  0.11979473157E+04  0.12286655113E+04  0.26404738069E+03 0.  0.
         25    1    4    4    0    0 -0.61138554588E+02 -0.32026257303E+02  0.75113287317E+03  0.76459904870E+03  0.12509000000E+03 0.  0.
         25    1    3    3    0    0  0.57272480357E+02  0.39242977156E+02  0.21716704193E+03  0.26005611022E+03  0.12509000000E+03 0.  0.
         25    1    4    4    0    0  0.38660742314E+01 -0.72167198535E+01  0.44681444251E+03  0.46406646260E+03  0.12509000000E+03 0.  0.
<mgrwt>
<rscale>  2 0.46232394E+03</rscale>
<asrwt>0</asrwt>
<pdfrwt beam="1">  1       21 0.21351731E+00 0.46232394E+03</pdfrwt>
<pdfrwt beam="2">  1       21 0.54122998E-02 0.46232394E+03</pdfrwt>
<totfact> 0.22735733E+04</totfact>
</mgrwt>
</event>
<event>
 7    0  0.4725730E-002  0.4666685E+03  0.7546771E-02  0.1022865E+00
         21   -1    0    0  502  501  0.00000000000E+00  0.00000000000E+00  0.16026636345E+03  0.16026636345E+03  0.00000000000E+00 0. -1.
         21   -1    0    0  501  502 -0.00000000000E+00 -0.00000000000E+00 -0.33971486298E+03  0.33971486298E+03  0.00000000000E+00 0. -1.
      99926    2    1    2    0    0  0.00000000000E+00  0.14210854715E-13 -0.17944849953E+03  0.49998122643E+03  0.46666847205E+03 0.  0.
      99925    2    3    3    0    0 -0.13235460812E+02 -0.11972984101E+03 -0.81355021950E+02  0.30053135631E+03  0.26304000509E+03 0.  0.
         25    1    4    4    0    0 -0.26269586915E+02 -0.23606433220E+02 -0.24068273731E+02  0.13218980591E+03  0.12509000000E+03 0.  0.
         25    1    4    4    0    0  0.13034126103E+02 -0.96123407788E+02 -0.57286748219E+02  0.16834155040E+03  0.12509000000E+03 0.  0.
         25    1    3    3    0    0  0.13235460812E+02  0.11972984101E+03 -0.98093477581E+02  0.19944987013E+03  0.12509000000E+03 0.  0.
<mgrwt>
<rscale>  2 0.46666847E+03</rscale>
<asrwt>0</asrwt>
<pdfrwt beam="1">  1       21 0.23568583E-01 0.46666847E+03</pdfrwt>
<pdfrwt beam="2">  1       21 0.49958068E-01 0.46666847E+03</pdfrwt>
<totfact> 0.59560670E+04</totfact>
</mgrwt>
</event>
<event>
 7    0  0.4725730E-002  0.4592344E+03  0.7546771E-02  0.1025003E+00
         21   -1    0    0  502  501  0.00000000000E+00  0.00000000000E+00  0.31411543027E+03  0.31411543027E+03  0.00000000000E+00 0.  1.
         21   -1    0    0  501  502 -0.00000000000E+00 -0.00000000000E+00 -0.16784932609E+03  0.16784932609E+03  0.00000000000E+00 0.  1.
      99926    2    1    2    0    0  0.00000000000E+00  0.00000000000E+00  0.14626610418E+03  0.48196475636E+03  0.45923442068E+03 0.  0.
      99925    2    3    3    0    0 -0.47891257020E+02 -0.66401512528E+02  0.17954257568E+03  0.32880612937E+03  0.26301178846E+03 0.  0.
         25    1    4    4    0    0 -0.63404670731E+02 -0.42569231814E+02  0.10669764441E+03  0.18128482338E+03  0.12509000000E+03 0.  0.
         25    1    3    3    0    0  0.47891257020E+02  0.66401512528E+02 -0.33276471494E+02  0.15315862699E+03  0.12509000000E+03 0.  0.
         25    1    4    4    0    0  0.15513413711E+02 -0.23832280714E+02  0.72844931270E+02  0.14752130599E+03  0.12509000000E+03 0.  0.
<mgrwt>
<rscale>  2 0.45923442E+03</rscale>
<asrwt>0</asrwt>
<pdfrwt beam="1">  1       21 0.46193446E-01 0.45923442E+03</pdfrwt>
<pdfrwt beam="2">  1       21 0.24683724E-01 0.45923442E+03</pdfrwt>
<totfact> 0.64366642E+04</totfact>
</mgrwt>
</event>
<event>
 7    0  0.4725730E-002  0.4548206E+03  0.7546771E-02  0.1026294E+00
         21   -1    0    0  502  501  0.00000000000E+00  0.00000000000E+00  0.13241346143E+03  0.13241346143E+03  0.00000000000E+00 0.  1.
         21   -1    0    0  501  502 -0.00000000000E+00 -0.00000000000E+00 -0.39056033991E+03  0.39056033991E+03  0.00000000000E+00 0.  1.
      99926    2    1    2    0    0  0.00000000000E+00  0.00000000000E+00 -0.25814687849E+03  0.52297380134E+03  0.45482060861E+03 0.  0.
      99925    2    3    3    0    0 -0.10235955167E+03 -0.47736433075E+02 -0.16245591279E+03  0.32916845086E+03  0.26306596242E+03 0.  0.
         25    1    4    4    0    0 -0.51628183378E+02 -0.56131735039E+02 -0.55216653967E+02  0.15656509181E+03  0.12509000000E+03 0.  0.
         25    1    3    3    0    0  0.10235955167E+03  0.47736433075E+02 -0.95690965696E+02  0.19380535048E+03  0.12509000000E+03 0.  0.
         25    1    4    4    0    0 -0.50731368289E+02  0.83953019635E+01 -0.10723925882E+03  0.17260335905E+03  0.12509000000E+03 0.  0.
<mgrwt>
<rscale>  2 0.45482061E+03</rscale>
<asrwt>0</asrwt>
<pdfrwt beam="1">  1       21 0.19472568E-01 0.45482061E+03</pdfrwt>
<pdfrwt beam="2">  1       21 0.57435344E-01 0.45482061E+03</pdfrwt>
<totfact> 0.63775269E+04</totfact>
</mgrwt>
</event>
<event>
 7    0  0.4725730E-002  0.4490323E+03  0.7546771E-02  0.1028011E+00
         21   -1    0    0  502  501  0.00000000000E+00  0.00000000000E+00  0.41863584321E+03  0.41863584321E+03  0.00000000000E+00 0. -1.
         21   -1    0    0  501  502 -0.00000000000E+00 -0.00000000000E+00 -0.12040892643E+03  0.12040892643E+03  0.00000000000E+00 0. -1.
      99926    2    1    2    0    0  0.00000000000E+00 -0.71054273576E-14  0.29822691679E+03  0.53904476964E+03  0.44903225917E+03 0.  0.
      99925    2    3    3    0    0  0.19046535182E+02  0.50379875521E+02  0.30025664345E+03  0.40283709639E+03  0.26310220815E+03 0.  0.
         25    1    4    4    0    0  0.11518891405E+02  0.10066686113E+02  0.90337139966E+02  0.15505589310E+03  0.12509000000E+03 0.  0.
         25    1    4    4    0    0  0.75276437771E+01  0.40313189408E+02  0.20991950348E+03  0.24778120329E+03  0.12509000000E+03 0.  0.
         25    1    3    3    0    0 -0.19046535182E+02 -0.50379875521E+02 -0.20297266642E+01  0.13620767324E+03  0.12509000000E+03 0.  0.
<mgrwt>
<rscale>  2 0.44903226E+03</rscale>
<asrwt>0</asrwt>
<pdfrwt beam="1">  1       21 0.61564094E-01 0.44903226E+03</pdfrwt>
<pdfrwt beam="2">  1       21 0.17707195E-01 0.44903226E+03</pdfrwt>
<totfact> 0.65641997E+04</totfact>
</mgrwt>
</event>
<event>
 7    0  0.4725730E-002  0.4500667E+03  0.7546771E-02  0.1027702E+00
         21   -1    0    0  502  501  0.00000000000E+00  0.00000000000E+00  0.21460682064E+02  0.21460682064E+02  0.00000000000E+00 0.  1.
         21   -1    0    0  501  502 -0.00000000000E+00 -0.00000000000E+00 -0.23596645117E+04  0.23596645117E+04  0.00000000000E+00 0.  1.
      99926    2    1    2    0    0 -0.26645352591E-14  0.00000000000E+00 -0.23382038297E+04  0.23811251938E+04  0.45006670556E+03 0.  0.
      99925    2    3    3    0    0  0.40354484091E+01  0.98938173992E+02 -0.16986055092E+04  0.17219298004E+04  0.26453074352E+03 0.  0.
         25    1    4    4    0    0 -0.24152508577E+02  0.69202024534E+02 -0.10626689513E+04  0.10725134367E+04  0.12509000000E+03 0.  0.
         25    1    4    4    0    0  0.28187956987E+02  0.29736149458E+02 -0.63593655794E+03  0.64941636361E+03  0.12509000000E+03 0.  0.
         25    1    3    3    0    0 -0.40354484091E+01 -0.98938173992E+02 -0.63959832043E+03  0.65919539343E+03  0.12509000000E+03 0.  0.
<mgrwt>
<rscale>  2 0.45006671E+03</rscale>
<asrwt>0</asrwt>
<pdfrwt beam="1">  1       21 0.31559809E-02 0.45006671E+03</pdfrwt>
<pdfrwt beam="2">  1       21 0.34700968E+00 0.45006671E+03</pdfrwt>
<totfact> 0.87566756E+03</totfact>
</mgrwt>
</event>
<event>
 7    0  0.4725730E-002  0.4474306E+03  0.7546771E-02  0.1028491E+00
         21   -1    0    0  502  501  0.00000000000E+00  0.00000000000E+00  0.44233094299E+03  0.44233094299E+03  0.00000000000E+00 0. -1.
         21   -1    0    0  501  502 -0.00000000000E+00 -0.00000000000E+00 -0.11314727622E+03  0.11314727622E+03  0.00000000000E+00 0. -1.
      99926    2    1    2    0    0  0.35527136788E-14 -0.14210854715E-13  0.32918366677E+03  0.55547821921E+03  0.44743062652E+03 0.  0.
      99925    2    3    3    0    0 -0.17440587046E+02  0.10073321129E+03  0.24275676852E+03  0.37226121461E+03  0.26305172363E+03 0.  0.
         25    1    4    4    0    0 -0.30228859525E+02  0.82094206773E+02  0.10785490009E+03  0.18690486967E+03  0.12509000000E+03 0.  0.
         25    1    4    4    0    0  0.12788272479E+02  0.18639004514E+02  0.13490186843E+03  0.18535634494E+03  0.12509000000E+03 0.  0.
         25    1    3    3    0    0  0.17440587046E+02 -0.10073321129E+03  0.86426898256E+02  0.18321700460E+03  0.12509000000E+03 0.  0.
<mgrwt>
<rscale>  2 0.44743063E+03</rscale>
<asrwt>0</asrwt>
<pdfrwt beam="1">  1       21 0.65048668E-01 0.44743063E+03</pdfrwt>
<pdfrwt beam="2">  1       21 0.16639305E-01 0.44743063E+03</pdfrwt>
<totfact> 0.65330898E+04</totfact>
</mgrwt>
</event>
<event>
 7    0  0.4725730E-002  0.4609095E+03  0.7546771E-02  0.1024518E+00
         21   -1    0    0  502  501  0.00000000000E+00  0.00000000000E+00  0.44199254218E+03  0.44199254218E+03  0.00000000000E+00 0. -1.
         21   -1    0    0  501  502 -0.00000000000E+00 -0.00000000000E+00 -0.12015904731E+03  0.12015904731E+03  0.00000000000E+00 0. -1.
      99926    2    1    2    0    0 -0.14210854715E-13  0.00000000000E+00  0.32183349487E+03  0.56215158949E+03  0.46090954768E+03 0.  0.
      99925    2    3    3    0    0  0.85318919279E+02 -0.78743887882E+02  0.17167865079E+03  0.33483264359E+03  0.26298179064E+03 0.  0.
         25    1    3    3    0    0 -0.85318919279E+02  0.78743887882E+02  0.15015484408E+03  0.22731894590E+03  0.12509000000E+03 0.  0.
         25    1    4    4    0    0  0.76528660679E+02 -0.44717476122E+02  0.12123026530E+03  0.19544967101E+03  0.12509000000E+03 0.  0.
         25    1    4    4    0    0  0.87902586003E+01 -0.34026411760E+02  0.50448385496E+02  0.13938297257E+03  0.12509000000E+03 0.  0.
<mgrwt>
<rscale>  2 0.46090955E+03</rscale>
<asrwt>0</asrwt>
<pdfrwt beam="1">  1       21 0.64998903E-01 0.46090955E+03</pdfrwt>
<pdfrwt beam="2">  1       21 0.17670448E-01 0.46090955E+03</pdfrwt>
<totfact> 0.58297495E+04</totfact>
</mgrwt>
</event>
<event>
 7    0  0.4725730E-002  0.4527845E+03  0.7546771E-02  0.1026895E+00
         21   -1    0    0  502  501  0.00000000000E+00  0.00000000000E+00  0.28889786339E+03  0.28889786339E+03  0.00000000000E+00 0. -1.
         21   -1    0    0  501  502 -0.00000000000E+00 -0.00000000000E+00 -0.17741029273E+03  0.17741029273E+03  0.00000000000E+00 0. -1.
      99926    2    1    2    0    0  0.88817841970E-15  0.00000000000E+00  0.11148757067E+03  0.46630815612E+03  0.45278451614E+03 0.  0.
      99925    2    3    3    0    0 -0.58524498951E+01 -0.68299441778E+02 -0.19722927505E+02  0.27249699069E+03  0.26299534435E+03 0.  0.
         25    1    3    3    0    0  0.58524498951E+01  0.68299441778E+02  0.13121049817E+03  0.19381116543E+03  0.12509000000E+03 0.  0.
         25    1    4    4    0    0  0.30465367099E+02 -0.39080785683E+02  0.12634016990E+02  0.13513908719E+03  0.12509000000E+03 0.  0.
         25    1    4    4    0    0 -0.36317816994E+02 -0.29218656095E+02 -0.32356944495E+02  0.13735790349E+03  0.12509000000E+03 0.  0.
<mgrwt>
<rscale>  2 0.45278452E+03</rscale>
<asrwt>0</asrwt>
<pdfrwt beam="1">  1       21 0.42484980E-01 0.45278452E+03</pdfrwt>
<pdfrwt beam="2">  1       21 0.26089749E-01 0.45278452E+03</pdfrwt>
<totfact> 0.68914560E+04</totfact>
</mgrwt>
</event>
<event>
 7    0  0.4725730E-002  0.4574713E+03  0.7546771E-02  0.1025517E+00
         21   -1    0    0  502  501  0.00000000000E+00  0.00000000000E+00  0.13615764608E+03  0.13615764608E+03  0.00000000000E+00 0. -1.
         21   -1    0    0  501  502 -0.00000000000E+00 -0.00000000000E+00 -0.38426038168E+03  0.38426038168E+03  0.00000000000E+00 0. -1.
      99926    2    1    2    0    0 -0.71054273576E-14  0.14210854715E-13 -0.24810273560E+03  0.52041802776E+03  0.45747126271E+03 0.  0.
      99925    2    3    3    0    0 -0.48159856767E+02  0.65541886537E+02 -0.62463168752E+02  0.28224861836E+03  0.26295916873E+03 0.  0.
         25    1    3    3    0    0  0.48159856767E+02 -0.65541886537E+02 -0.18563956685E+03  0.23816940940E+03  0.12509000000E+03 0.  0.
         25    1    4    4    0    0 -0.63603677156E+02  0.41209876733E+02 -0.23765032360E+02  0.14817545867E+03  0.12509000000E+03 0.  0.
         25    1    4    4    0    0  0.15443820388E+02  0.24332009805E+02 -0.38698136392E+02  0.13407315969E+03  0.12509000000E+03 0.  0.
<mgrwt>
<rscale>  2 0.45747126E+03</rscale>
<asrwt>0</asrwt>
<pdfrwt beam="1">  1       21 0.20023184E-01 0.45747126E+03</pdfrwt>
<pdfrwt beam="2">  1       21 0.56508879E-01 0.45747126E+03</pdfrwt>
<totfact> 0.62621922E+04</totfact>
</mgrwt>
</event>
<event>
 7    0  0.4725730E-002  0.4548908E+03  0.7546771E-02  0.1026274E+00
         21   -1    0    0  502  501  0.00000000000E+00  0.00000000000E+00  0.91331315427E+03  0.91331315427E+03  0.00000000000E+00 0. -1.
         21   -1    0    0  501  502 -0.00000000000E+00 -0.00000000000E+00 -0.56641486735E+02  0.56641486735E+02  0.00000000000E+00 0. -1.
      99926    2    1    2    0    0  0.00000000000E+00  0.00000000000E+00  0.85667166754E+03  0.96995464101E+03  0.45489082168E+03 0.  0.
      99925    2    3    3    0    0  0.81442752656E+02 -0.60588047488E+02  0.43259291635E+03  0.51630926324E+03  0.26293495503E+03 0.  0.
         25    1    3    3    0    0 -0.81442752656E+02  0.60588047488E+02  0.42407875118E+03  0.45364537776E+03  0.12509000000E+03 0.  0.
         25    1    4    4    0    0  0.32824448306E+02 -0.23775684045E+02  0.13864140194E+03  0.19108028153E+03  0.12509000000E+03 0.  0.
         25    1    4    4    0    0  0.48618304350E+02 -0.36812363443E+02  0.29395151442E+03  0.32522898171E+03  0.12509000000E+03 0.  0.
<mgrwt>
<rscale>  2 0.45489082E+03</rscale>
<asrwt>0</asrwt>
<pdfrwt beam="1">  1       21 0.13431075E+00 0.45489082E+03</pdfrwt>
<pdfrwt beam="2">  1       21 0.83296310E-02 0.45489082E+03</pdfrwt>
<totfact> 0.40377644E+04</totfact>
</mgrwt>
</event>
<event>
 7    0  0.4725730E-002  0.4651607E+03  0.7546771E-02  0.1023295E+00
         21   -1    0    0  502  501  0.00000000000E+00  0.00000000000E+00  0.41087658805E+03  0.41087658805E+03  0.00000000000E+00 0. -1.
         21   -1    0    0  501  502 -0.00000000000E+00 -0.00000000000E+00 -0.13165417699E+03  0.13165417699E+03  0.00000000000E+00 0. -1.
      99926    2    1    2    0    0  0.17763568394E-14  0.14210854715E-13  0.27922241106E+03  0.54253076505E+03  0.46516069931E+03 0.  0.
      99925    2    3    3    0    0 -0.95149100406E+01 -0.11728614924E+03  0.13467347439E+03  0.31805698594E+03  0.26301469024E+03 0.  0.
         25    1    4    4    0    0 -0.14247114302E+02 -0.15765601065E+02  0.63136298118E+02  0.14172238596E+03  0.12509000000E+03 0.  0.
         25    1    4    4    0    0  0.47322042618E+01 -0.10152054817E+03  0.71537176276E+02  0.17633459997E+03  0.12509000000E+03 0.  0.
         25    1    3    3    0    0  0.95149100406E+01  0.11728614924E+03  0.14454893667E+03  0.22447377911E+03  0.12509000000E+03 0.  0.
<mgrwt>
<rscale>  2 0.46516070E+03</rscale>
<asrwt>0</asrwt>
<pdfrwt beam="1">  1       21 0.60423027E-01 0.46516070E+03</pdfrwt>
<pdfrwt beam="2">  1       21 0.19360909E-01 0.46516070E+03</pdfrwt>
<totfact> 0.57587543E+04</totfact>
</mgrwt>
</event>
<event>
 7    0  0.4725730E-002  0.4618198E+03  0.7546771E-02  0.1024255E+00
         21   -1    0    0  502  501  0.00000000000E+00  0.00000000000E+00  0.55480077498E+03  0.55480077498E+03  0.00000000000E+00 0.  1.
         21   -1    0    0  501  502 -0.00000000000E+00 -0.00000000000E+00 -0.96105461746E+02  0.96105461746E+02  0.00000000000E+00 0.  1.
      99926    2    1    2    0    0  0.00000000000E+00  0.00000000000E+00  0.45869531324E+03  0.65090623673E+03  0.46181981186E+03 0.  0.
      99925    2    3    3    0    0 -0.12375091878E+02  0.87670231331E+01  0.45389281957E+03  0.52480875206E+03  0.26301241604E+03 0.  0.
         25    1    4    4    0    0  0.19993948675E+01 -0.19648529340E+01  0.14776068075E+03  0.19361969193E+03  0.12509000000E+03 0.  0.
         25    1    3    3    0    0  0.12375091878E+02 -0.87670231331E+01  0.48024936659E+01  0.12609748467E+03  0.12509000000E+03 0.  0.
         25    1    4    4    0    0 -0.14374486746E+02  0.10731876067E+02  0.30613213882E+03  0.33118906014E+03  0.12509000000E+03 0.  0.
<mgrwt>
<rscale>  2 0.46181981E+03</rscale>
<asrwt>0</asrwt>
<pdfrwt beam="1">  1       21 0.81588348E-01 0.46181981E+03</pdfrwt>
<pdfrwt beam="2">  1       21 0.14133156E-01 0.46181981E+03</pdfrwt>
<totfact> 0.52753231E+04</totfact>
</mgrwt>
</event>
<event>
 7    0  0.4725730E-002  0.4052078E+03  0.7546771E-02  0.1041991E+00
         21   -1    0    0  502  501  0.00000000000E+00  0.00000000000E+00  0.21847860190E+04  0.21847860190E+04  0.00000000000E+00 0. -1.
         21   -1    0    0  501  502 -0.00000000000E+00 -0.00000000000E+00 -0.18788268529E+02  0.18788268529E+02  0.00000000000E+00 0. -1.
      99926    2    1    2    0    0  0.00000000000E+00  0.00000000000E+00  0.21659977505E+04  0.22035742876E+04  0.40520783016E+03 0.  0.
      99925    2    3    3    0    0  0.30865704188E+02  0.27948706380E+02  0.12440849064E+04  0.12722823773E+04  0.26309954654E+03 0.  0.
         25    1    4    4    0    0  0.35748305566E+02 -0.15411197379E+02  0.52526803884E+03  0.54135890782E+03  0.12509000000E+03 0.  0.
         25    1    3    3    0    0 -0.30865704188E+02 -0.27948706380E+02  0.92191284413E+03  0.93129191029E+03  0.12509000000E+03 0.  0.
         25    1    4    4    0    0 -0.48826013774E+01  0.43359903758E+02  0.71881686753E+03  0.73092346945E+03  0.12509000000E+03 0.  0.
<mgrwt>
<rscale>  2 0.40520783E+03</rscale>
<asrwt>0</asrwt>
<pdfrwt beam="1">  1       21 0.32129189E+00 0.40520783E+03</pdfrwt>
<pdfrwt beam="2">  1       21 0.27629822E-02 0.40520783E+03</pdfrwt>
<totfact> 0.16020873E+04</totfact>
</mgrwt>
</event>
<event>
 7    0  0.4725730E-002  0.4445016E+03  0.7546771E-02  0.1029375E+00
         21   -1    0    0  502  501  0.00000000000E+00  0.00000000000E+00  0.82048481081E+02  0.82048481081E+02  0.00000000000E+00 0.  1.
         21   -1    0    0  501  502 -0.00000000000E+00 -0.00000000000E+00 -0.60202709309E+03  0.60202709309E+03  0.00000000000E+00 0.  1.
      99926    2    1    2    0    0  0.14210854715E-13  0.00000000000E+00 -0.51997861201E+03  0.68407557417E+03  0.44450155706E+03 0.  0.
      99925    2    3    3    0    0 -0.65087572837E+02 -0.78229650800E+02 -0.30495334550E+03  0.41530123808E+03  0.26291121128E+03 0.  0.
         25    1    4    4    0    0 -0.66868489837E+02 -0.62132989550E+02 -0.15116963941E+03  0.21640626447E+03  0.12509000000E+03 0.  0.
         25    1    3    3    0    0  0.65087572837E+02  0.78229650800E+02 -0.21502526651E+03  0.26877433609E+03  0.12509000000E+03 0.  0.
         25    1    4    4    0    0  0.17809170001E+01 -0.16096661251E+02 -0.15378370608E+03  0.19889497361E+03  0.12509000000E+03 0.  0.
<mgrwt>
<rscale>  2 0.44450156E+03</rscale>
<asrwt>0</asrwt>
<pdfrwt beam="1">  1       21 0.12065953E-01 0.44450156E+03</pdfrwt>
<pdfrwt beam="2">  1       21 0.88533396E-01 0.44450156E+03</pdfrwt>
<totfact> 0.58460630E+04</totfact>
</mgrwt>
</event>
<event>
 7    0  0.4725730E-002  0.4518876E+03  0.7546771E-02  0.1027161E+00
         21   -1    0    0  502  501  0.00000000000E+00  0.00000000000E+00  0.86960553395E+02  0.86960553395E+02  0.00000000000E+00 0.  1.
         21   -1    0    0  501  502 -0.00000000000E+00 -0.00000000000E+00 -0.58705471340E+03  0.58705471340E+03  0.00000000000E+00 0.  1.
      99926    2    1    2    0    0 -0.14210854715E-13  0.00000000000E+00 -0.50009416000E+03  0.67401526679E+03  0.45188760882E+03 0.  0.
      99925    2    3    3    0    0  0.74225825421E+02  0.71990498292E+02 -0.37279110266E+03  0.46774922132E+03  0.26291447816E+03 0.  0.
         25    1    4    4    0    0  0.27920834582E+02 -0.20223154343E+01 -0.19661123305E+03  0.23470651424E+03  0.12509000000E+03 0.  0.
         25    1    3    3    0    0 -0.74225825421E+02 -0.71990498292E+02 -0.12730305735E+03  0.20626604547E+03  0.12509000000E+03 0.  0.
         25    1    4    4    0    0  0.46304990839E+02  0.74012813726E+02 -0.17617986960E+03  0.23304270709E+03  0.12509000000E+03 0.  0.
<mgrwt>
<rscale>  2 0.45188761E+03</rscale>
<asrwt>0</asrwt>
<pdfrwt beam="1">  1       21 0.12788316E-01 0.45188761E+03</pdfrwt>
<pdfrwt beam="2">  1       21 0.86331579E-01 0.45188761E+03</pdfrwt>
<totfact> 0.55689885E+04</totfact>
</mgrwt>
</event>
<event>
 7    0  0.4725730E-002  0.4618852E+03  0.7546771E-02  0.1024236E+00
         21   -1    0    0  502  501  0.00000000000E+00  0.00000000000E+00  0.15829076925E+03  0.15829076925E+03  0.00000000000E+00 0. -1.
         21   -1    0    0  501  502 -0.00000000000E+00 -0.00000000000E+00 -0.33693994204E+03  0.33693994204E+03  0.00000000000E+00 0. -1.
      99926    2    1    2    0    0  0.35527136788E-14  0.00000000000E+00 -0.17864917279E+03  0.49523071129E+03  0.46188519187E+03 0.  0.
      99925    2    3    3    0    0  0.21564508748E+02  0.10542778918E+03 -0.16749044938E+03  0.32984609297E+03  0.26299305627E+03 0.  0.
         25    1    4    4    0    0 -0.28376391097E+02  0.39766805019E+02 -0.77066978500E+02  0.15483360626E+03  0.12509000000E+03 0.  0.
         25    1    3    3    0    0 -0.21564508748E+02 -0.10542778918E+03 -0.11158723410E+02  0.16538461832E+03  0.12509000000E+03 0.  0.
         25    1    4    4    0    0  0.49940899845E+02  0.65660984160E+02 -0.90423470879E+02  0.17501248671E+03  0.12509000000E+03 0.  0.
<mgrwt>
<rscale>  2 0.46188519E+03</rscale>
<asrwt>0</asrwt>
<pdfrwt beam="1">  1       21 0.23278055E-01 0.46188519E+03</pdfrwt>
<pdfrwt beam="2">  1       21 0.49549991E-01 0.46188519E+03</pdfrwt>
<totfact> 0.62140403E+04</totfact>
</mgrwt>
</event>
<event>
 6    0  0.4725730E-002  0.4951730E+03  0.7546771E-02  0.1015047E+00
         21   -1    0    0  502  501  0.00000000000E+00  0.00000000000E+00  0.20077124208E+03  0.20077124208E+03  0.00000000000E+00 0.  1.
         21   -1    0    0  501  502 -0.00000000000E+00 -0.00000000000E+00 -0.30531800907E+03  0.30531800907E+03  0.00000000000E+00 0.  1.
      99926    2    1    2    0    0  0.00000000000E+00  0.00000000000E+00 -0.10454676699E+03  0.50608925115E+03  0.49517300375E+03 0.  0.
         25    1    3    3    0    0 -0.33187246397E+02 -0.29296232232E+02  0.24969587875E+02  0.13502092788E+03  0.12509000000E+03 0.  0.
         25    1    3    3    0    0  0.13228070128E+03  0.36003057012E+02 -0.91337390645E+02  0.20684397761E+03  0.12509000000E+03 0.  0.
         25    1    3    3    0    0 -0.99093454884E+02 -0.67068247808E+01 -0.38178964217E+02  0.16422434566E+03  0.12509000000E+03 0.  0.
<mgrwt>
<rscale>  2 0.49517300E+03</rscale>
<asrwt>0</asrwt>
<pdfrwt beam="1">  1       21 0.29525183E-01 0.49517300E+03</pdfrwt>
<pdfrwt beam="2">  1       21 0.44899707E-01 0.49517300E+03</pdfrwt>
<totfact> 0.47709592E+04</totfact>
</mgrwt>
</event>
<event>
 7    0  0.4725730E-002  0.4506103E+03  0.7546771E-02  0.1027540E+00
         21   -1    0    0  502  501  0.00000000000E+00  0.00000000000E+00  0.55480033520E+03  0.55480033520E+03  0.00000000000E+00 0. -1.
         21   -1    0    0  501  502 -0.00000000000E+00 -0.00000000000E+00 -0.91496701066E+02  0.91496701066E+02  0.00000000000E+00 0. -1.
      99926    2    1    2    0    0  0.00000000000E+00  0.00000000000E+00  0.46330363413E+03  0.64629703626E+03  0.45061025475E+03 0.  0.
      99925    2    3    3    0    0  0.64622968785E+02 -0.80299184177E+02  0.34385954398E+03  0.44495532214E+03  0.26291018550E+03 0.  0.
         25    1    4    4    0    0  0.65184473022E+02 -0.20914247783E+02  0.19594864106E+03  0.24234231846E+03  0.12509000000E+03 0.  0.
         25    1    4    4    0    0 -0.56150423706E+00 -0.59384936394E+02  0.14791090292E+03  0.20261300368E+03  0.12509000000E+03 0.  0.
         25    1    3    3    0    0 -0.64622968785E+02  0.80299184177E+02  0.11944409015E+03  0.20134171412E+03  0.12509000000E+03 0.  0.
<mgrwt>
<rscale>  2 0.45061025E+03</rscale>
<asrwt>0</asrwt>
<pdfrwt beam="1">  1       21 0.81588283E-01 0.45061025E+03</pdfrwt>
<pdfrwt beam="2">  1       21 0.13455398E-01 0.45061025E+03</pdfrwt>
<totfact> 0.57894505E+04</totfact>
</mgrwt>
</event>
<event>
 7    0  0.4725730E-002  0.4583026E+03  0.7546771E-02  0.1025275E+00
         21   -1    0    0  502  501  0.00000000000E+00  0.00000000000E+00  0.99278366519E+02  0.99278366519E+02  0.00000000000E+00 0.  1.
         21   -1    0    0  501  502 -0.00000000000E+00 -0.00000000000E+00 -0.52892016217E+03  0.52892016217E+03  0.00000000000E+00 0.  1.
      99926    2    1    2    0    0  0.00000000000E+00  0.00000000000E+00 -0.42964179565E+03  0.62819852869E+03  0.45830264987E+03 0.  0.
      99925    2    3    3    0    0  0.78818512259E+02  0.85258571093E+02 -0.26745429358E+03  0.39275495636E+03  0.26314116891E+03 0.  0.
         25    1    4    4    0    0  0.35989594343E+01  0.62534658066E+02 -0.13028081415E+03  0.19116520239E+03  0.12509000000E+03 0.  0.
         25    1    4    4    0    0  0.75219552825E+02  0.22723913028E+02 -0.13717347943E+03  0.20158975398E+03  0.12509000000E+03 0.  0.
         25    1    3    3    0    0 -0.78818512259E+02 -0.85258571093E+02 -0.16218750207E+03  0.23544357232E+03  0.12509000000E+03 0.  0.
<mgrwt>
<rscale>  2 0.45830265E+03</rscale>
<asrwt>0</asrwt>
<pdfrwt beam="1">  1       21 0.14599760E-01 0.45830265E+03</pdfrwt>
<pdfrwt beam="2">  1       21 0.77782378E-01 0.45830265E+03</pdfrwt>
<totfact> 0.55513643E+04</totfact>
</mgrwt>
</event>
<event>
 7    0  0.4725730E-002  0.4565818E+03  0.7546771E-02  0.1025777E+00
         21   -1    0    0  502  501  0.00000000000E+00  0.00000000000E+00  0.40074820188E+02  0.40074820188E+02  0.00000000000E+00 0.  1.
         21   -1    0    0  501  502 -0.00000000000E+00 -0.00000000000E+00 -0.13004857830E+04  0.13004857830E+04  0.00000000000E+00 0.  1.
      99926    2    1    2    0    0  0.00000000000E+00  0.71054273576E-14 -0.12604109628E+04  0.13405606032E+04  0.45658179514E+03 0.  0.
      99925    2    3    3    0    0 -0.10386005692E+03 -0.42774051406E+02 -0.72502397313E+03  0.77939817776E+03  0.26303084796E+03 0.  0.
         25    1    4    4    0    0 -0.92861069016E+02 -0.10595289591E+02 -0.38055492280E+03  0.41134534842E+03  0.12509000000E+03 0.  0.
         25    1    4    4    0    0 -0.10998987904E+02 -0.32178761815E+02 -0.34446905033E+03  0.36805282934E+03  0.12509000000E+03 0.  0.
         25    1    3    3    0    0  0.10386005692E+03  0.42774051406E+02 -0.53538698971E+03  0.56116242546E+03  0.12509000000E+03 0.  0.
<mgrwt>
<rscale>  2 0.45658180E+03</rscale>
<asrwt>0</asrwt>
<pdfrwt beam="1">  1       21 0.58933571E-02 0.45658180E+03</pdfrwt>
<pdfrwt beam="2">  1       21 0.19124787E+00 0.45658180E+03</pdfrwt>
<totfact> 0.27617945E+04</totfact>
</mgrwt>
</event>
<event>
 7    0  0.4725730E-002  0.4542520E+03  0.7546771E-02  0.1026462E+00
         21   -1    0    0  502  501  0.00000000000E+00  0.00000000000E+00  0.35114216434E+02  0.35114216434E+02  0.00000000000E+00 0.  1.
         21   -1    0    0  501  502 -0.00000000000E+00 -0.00000000000E+00 -0.14690978657E+04  0.14690978657E+04  0.00000000000E+00 0.  1.
      99926    2    1    2    0    0  0.00000000000E+00  0.00000000000E+00 -0.14339836493E+04  0.15042120822E+04  0.45425200239E+03 0.  0.
      99925    2    3    3    0    0 -0.92588824892E+02  0.10174407606E+02 -0.11111063103E+04  0.11456406204E+04  0.26317102656E+03 0.  0.
         25    1    4    4    0    0 -0.17155977838E+02 -0.12909197946E+02 -0.61506921072E+03  0.62802756074E+03  0.12509000000E+03 0.  0.
         25    1    4    4    0    0 -0.75432847053E+02  0.23083605552E+02 -0.49603709958E+03  0.51761305965E+03  0.12509000000E+03 0.  0.
         25    1    3    3    0    0  0.92588824892E+02 -0.10174407606E+02 -0.32287733898E+03  0.35857146177E+03  0.12509000000E+03 0.  0.
<mgrwt>
<rscale>  2 0.45425200E+03</rscale>
<asrwt>0</asrwt>
<pdfrwt beam="1">  1       21 0.51638553E-02 0.45425200E+03</pdfrwt>
<pdfrwt beam="2">  1       21 0.21604381E+00 0.45425200E+03</pdfrwt>
<totfact> 0.23814131E+04</totfact>
</mgrwt>
</event>
<event>
 7    0  0.4725730E-002  0.4523400E+03  0.7546771E-02  0.1027027E+00
         21   -1    0    0  502  501  0.00000000000E+00  0.00000000000E+00  0.47440326046E+03  0.47440326046E+03  0.00000000000E+00 0.  1.
         21   -1    0    0  501  502 -0.00000000000E+00 -0.00000000000E+00 -0.10782571500E+03  0.10782571500E+03  0.00000000000E+00 0.  1.
      99926    2    1    2    0    0  0.00000000000E+00  0.14210854715E-13  0.36657754546E+03  0.58222897546E+03  0.45234000821E+03 0.  0.
      99925    2    3    3    0    0 -0.59091844228E+02  0.93377942675E+02  0.23879630789E+03  0.37202231760E+03  0.26299361570E+03 0.  0.
         25    1    4    4    0    0 -0.48455417253E+02  0.84545517701E+02  0.11881241689E+03  0.19814078463E+03  0.12509000000E+03 0.  0.
         25    1    3    3    0    0  0.59091844228E+02 -0.93377942675E+02  0.12778123757E+03  0.21020665786E+03  0.12509000000E+03 0.  0.
         25    1    4    4    0    0 -0.10636426975E+02  0.88324249746E+01  0.11998389100E+03  0.17388153298E+03  0.12509000000E+03 0.  0.
<mgrwt>
<rscale>  2 0.45234001E+03</rscale>
<asrwt>0</asrwt>
<pdfrwt beam="1">  1       21 0.69765185E-01 0.45234001E+03</pdfrwt>
<pdfrwt beam="2">  1       21 0.15856723E-01 0.45234001E+03</pdfrwt>
<totfact> 0.61059517E+04</totfact>
</mgrwt>
</event>
<event>
 7    0  0.4725730E-002  0.4569164E+03  0.7546771E-02  0.1025679E+00
         21   -1    0    0  502  501  0.00000000000E+00  0.00000000000E+00  0.47229103229E+02  0.47229103229E+02  0.00000000000E+00 0.  1.
         21   -1    0    0  501  502 -0.00000000000E+00 -0.00000000000E+00 -0.11051056179E+04  0.11051056179E+04  0.00000000000E+00 0.  1.
      99926    2    1    2    0    0  0.71054273576E-14  0.00000000000E+00 -0.10578765147E+04  0.11523347211E+04  0.45691639195E+03 0.  0.
      99925    2    3    3    0    0 -0.63816621980E+02 -0.63854958495E+02 -0.48528241294E+03  0.55932415596E+03  0.26304842552E+03 0.  0.
         25    1    4    4    0    0  0.96282020472E+01 -0.32535023828E+02 -0.21881889568E+03  0.25432350906E+03  0.12509000000E+03 0.  0.
         25    1    4    4    0    0 -0.73444824027E+02 -0.31319934667E+02 -0.26646351726E+03  0.30500064691E+03  0.12509000000E+03 0.  0.
         25    1    3    3    0    0  0.63816621980E+02  0.63854958495E+02 -0.57259410173E+03  0.59301056517E+03  0.12509000000E+03 0.  0.
<mgrwt>
<rscale>  2 0.45691639E+03</rscale>
<asrwt>0</asrwt>
<pdfrwt beam="1">  1       21 0.69454575E-02 0.45691639E+03</pdfrwt>
<pdfrwt beam="2">  1       21 0.16251550E+00 0.45691639E+03</pdfrwt>
<totfact> 0.33205794E+04</totfact>
</mgrwt>
</event>
<event>
 7    0  0.4725730E-002  0.4248382E+03  0.7546771E-02  0.1035503E+00
         21   -1    0    0  502  501  0.00000000000E+00  0.00000000000E+00  0.23399862789E+03  0.23399862789E+03  0.00000000000E+00 0. -1.
         21   -1    0    0  501  502 -0.00000000000E+00 -0.00000000000E+00 -0.19282967193E+03  0.19282967193E+03  0.00000000000E+00 0. -1.
      99926    2    1    2    0    0  0.00000000000E+00  0.71054273576E-14  0.41168955961E+02  0.42682829982E+03  0.42483822168E+03 0.  0.
      99925    2    3    3    0    0 -0.17326388352E+02 -0.33877578312E+02  0.99762668241E+02  0.28355016030E+03  0.26267890929E+03 0.  0.
         25    1    3    3    0    0  0.17326388352E+02  0.33877578312E+02 -0.58593712280E+02  0.14327813952E+03  0.12509000000E+03 0.  0.
         25    1    4    4    0    0  0.17094601805E+02  0.10635078878E+02  0.32600454374E+02  0.13082670996E+03  0.12509000000E+03 0.  0.
         25    1    4    4    0    0 -0.34420990157E+02 -0.44512657189E+02  0.67162213867E+02  0.15272345034E+03  0.12509000000E+03 0.  0.
<mgrwt>
<rscale>  2 0.42483822E+03</rscale>
<asrwt>0</asrwt>
<pdfrwt beam="1">  1       21 0.34411563E-01 0.42483822E+03</pdfrwt>
<pdfrwt beam="2">  1       21 0.28357305E-01 0.42483822E+03</pdfrwt>
<totfact> 0.90572053E+04</totfact>
</mgrwt>
</event>
<event>
 7    0  0.4725730E-002  0.4509171E+03  0.7546771E-02  0.1027449E+00
         21   -1    0    0  502  501  0.00000000000E+00  0.00000000000E+00  0.15468162680E+04  0.15468162680E+04  0.00000000000E+00 0.  1.
         21   -1    0    0  501  502 -0.00000000000E+00 -0.00000000000E+00 -0.32862052372E+02  0.32862052372E+02  0.00000000000E+00 0.  1.
      99926    2    1    2    0    0  0.00000000000E+00  0.00000000000E+00  0.15139542156E+04  0.15796783204E+04  0.45091709752E+03 0.  0.
      99925    2    3    3    0    0  0.43936320976E+02 -0.94285410565E+02  0.83942935875E+03  0.88581130891E+03  0.26305871535E+03 0.  0.
         25    1    4    4    0    0  0.62761184120E+02 -0.54447846155E+02  0.45656869692E+03  0.48063085346E+03  0.12509000000E+03 0.  0.
         25    1    4    4    0    0 -0.18824863144E+02 -0.39837564410E+02  0.38286066182E+03  0.40518045546E+03  0.12509000000E+03 0.  0.
         25    1    3    3    0    0 -0.43936320976E+02  0.94285410565E+02  0.67452485690E+03  0.69386701148E+03  0.12509000000E+03 0.  0.
<mgrwt>
<rscale>  2 0.45091710E+03</rscale>
<asrwt>0</asrwt>
<pdfrwt beam="1">  1       21 0.22747293E+00 0.45091710E+03</pdfrwt>
<pdfrwt beam="2">  1       21 0.48326558E-02 0.45091710E+03</pdfrwt>
<totfact> 0.22600275E+04</totfact>
</mgrwt>
</event>
<event>
 7    0  0.4725730E-002  0.4524185E+03  0.7546771E-02  0.1027003E+00
         21   -1    0    0  502  501  0.00000000000E+00  0.00000000000E+00  0.26475834166E+03  0.26475834166E+03  0.00000000000E+00 0. -1.
         21   -1    0    0  501  502 -0.00000000000E+00 -0.00000000000E+00 -0.19327293010E+03  0.19327293010E+03  0.00000000000E+00 0. -1.
      99926    2    1    2    0    0  0.00000000000E+00  0.00000000000E+00  0.71485411564E+02  0.45803127176E+03  0.45241848088E+03 0.  0.
      99925    2    3    3    0    0 -0.60809384089E+02  0.46483970690E+02  0.12711701000E+03  0.30118445614E+03  0.26209693181E+03 0.  0.
         25    1    4    4    0    0  0.51938739961E+01  0.22599628684E+02  0.79644802958E+02  0.15009504416E+03  0.12509000000E+03 0.  0.
         25    1    3    3    0    0  0.60809384089E+02 -0.46483970690E+02 -0.55631598439E+02  0.15684681562E+03  0.12509000000E+03 0.  0.
         25    1    4    4    0    0 -0.66003258085E+02  0.23884342006E+02  0.47472207044E+02  0.15108941198E+03  0.12509000000E+03 0.  0.
<mgrwt>
<rscale>  2 0.45241848E+03</rscale>
<asrwt>0</asrwt>
<pdfrwt beam="1">  1       21 0.38935050E-01 0.45241848E+03</pdfrwt>
<pdfrwt beam="2">  1       21 0.28422490E-01 0.45241848E+03</pdfrwt>
<totfact> 0.69749123E+04</totfact>
</mgrwt>
</event>
<event>
 7    0  0.4725730E-002  0.4490381E+03  0.7546771E-02  0.1028009E+00
         21   -1    0    0  502  501  0.00000000000E+00  0.00000000000E+00  0.58946883145E+03  0.58946883145E+03  0.00000000000E+00 0. -1.
         21   -1    0    0  501  502 -0.00000000000E+00 -0.00000000000E+00 -0.85515654695E+02  0.85515654695E+02  0.00000000000E+00 0. -1.
      99926    2    1    2    0    0  0.00000000000E+00  0.00000000000E+00  0.50395317675E+03  0.67498448614E+03  0.44903814111E+03 0.  0.
      99925    2    3    3    0    0 -0.74775173014E+02 -0.58180826432E+02  0.24263083664E+03  0.37016780582E+03  0.26301738823E+03 0.  0.
         25    1    4    4    0    0 -0.10744789545E+01 -0.47616619878E+02  0.12207503212E+03  0.18115826937E+03  0.12509000000E+03 0.  0.
         25    1    4    4    0    0 -0.73700694060E+02 -0.10564206554E+02  0.12055580453E+03  0.18900953645E+03  0.12509000000E+03 0.  0.
         25    1    3    3    0    0  0.74775173014E+02  0.58180826432E+02  0.26132234011E+03  0.30481668032E+03  0.12509000000E+03 0.  0.
<mgrwt>
<rscale>  2 0.44903814E+03</rscale>
<asrwt>0</asrwt>
<pdfrwt beam="1">  1       21 0.86686591E-01 0.44903814E+03</pdfrwt>
<pdfrwt beam="2">  1       21 0.12575832E-01 0.44903814E+03</pdfrwt>
<totfact> 0.56908157E+04</totfact>
</mgrwt>
</event>
<event>
 7    0  0.4725730E-002  0.4556101E+03  0.7546771E-02  0.1026062E+00
         21   -1    0    0  502  501  0.00000000000E+00  0.00000000000E+00  0.11470092258E+03  0.11470092258E+03  0.00000000000E+00 0.  1.
         21   -1    0    0  501  502 -0.00000000000E+00 -0.00000000000E+00 -0.45243876532E+03  0.45243876532E+03  0.00000000000E+00 0.  1.
      99926    2    1    2    0    0  0.00000000000E+00  0.00000000000E+00 -0.33773784274E+03  0.56713968790E+03  0.45561011312E+03 0.  0.
      99925    2    3    3    0    0 -0.66836327767E+02  0.43194903247E+02 -0.11096609911E+03  0.29620459202E+03  0.26285127126E+03 0.  0.
         25    1    3    3    0    0  0.66836327767E+02 -0.43194903247E+02 -0.22677174363E+03  0.27093509589E+03  0.12509000000E+03 0.  0.
         25    1    4    4    0    0 -0.60120747768E+02  0.42567932783E+02 -0.85154644921E+02  0.16830138106E+03  0.12509000000E+03 0.  0.
         25    1    4    4    0    0 -0.67155799988E+01  0.62697046385E+00 -0.25811454191E+02  0.12790321096E+03  0.12509000000E+03 0.  0.
<mgrwt>
<rscale>  2 0.45561011E+03</rscale>
<asrwt>0</asrwt>
<pdfrwt beam="1">  1       21 0.16867782E-01 0.45561011E+03</pdfrwt>
<pdfrwt beam="2">  1       21 0.66535114E-01 0.45561011E+03</pdfrwt>
<totfact> 0.60455685E+04</totfact>
</mgrwt>
</event>
<event>
 7    0  0.4725730E-002  0.4516171E+03  0.7546771E-02  0.1027241E+00
         21   -1    0    0  502  501  0.00000000000E+00  0.00000000000E+00  0.26595649416E+03  0.26595649416E+03  0.00000000000E+00 0. -1.
         21   -1    0    0  501  502 -0.00000000000E+00 -0.00000000000E+00 -0.19172123249E+03  0.19172123249E+03  0.00000000000E+00 0. -1.
      99926    2    1    2    0    0 -0.71054273576E-14  0.14210854715E-13  0.74235261673E+02  0.45767772665E+03  0.45161712478E+03 0.  0.
      99925    2    3    3    0    0  0.59734555170E+02 -0.65279421110E+02 -0.19174774571E+02  0.27822700118E+03  0.26308358425E+03 0.  0.
         25    1    4    4    0    0 -0.72130173570E+01 -0.48649500443E+02 -0.27817106000E+01  0.13443975426E+03  0.12509000000E+03 0.  0.
         25    1    4    4    0    0  0.66947572528E+02 -0.16629920667E+02 -0.16393063971E+02  0.14378724691E+03  0.12509000000E+03 0.  0.
         25    1    3    3    0    0 -0.59734555170E+02  0.65279421110E+02  0.93410036243E+02  0.17945072547E+03  0.12509000000E+03 0.  0.
<mgrwt>
<rscale>  2 0.45161712E+03</rscale>
<asrwt>0</asrwt>
<pdfrwt beam="1">  1       21 0.39111249E-01 0.45161712E+03</pdfrwt>
<pdfrwt beam="2">  1       21 0.28194299E-01 0.45161712E+03</pdfrwt>
<totfact> 0.70225493E+04</totfact>
</mgrwt>
</event>
<event>
 7    0  0.4725730E-002  0.4522170E+03  0.7546771E-02  0.1027063E+00
         21   -1    0    0  502  501  0.00000000000E+00  0.00000000000E+00  0.12706630354E+03  0.12706630354E+03  0.00000000000E+00 0. -1.
         21   -1    0    0  501  502 -0.00000000000E+00 -0.00000000000E+00 -0.40234934145E+03  0.40234934145E+03  0.00000000000E+00 0. -1.
      99926    2    1    2    0    0  0.00000000000E+00 -0.35527136788E-14 -0.27528303791E+03  0.52941564499E+03  0.45221695479E+03 0.  0.
      99925    2    3    3    0    0  0.10613539642E+03 -0.18684288594E+02 -0.20245857323E+03  0.34895862581E+03  0.26299966471E+03 0.  0.
         25    1    4    4    0    0  0.85771637788E+02 -0.30620232227E+02 -0.13246004385E+03  0.20368491301E+03  0.12509000000E+03 0.  0.
         25    1    4    4    0    0  0.20363758635E+02  0.11935943633E+02 -0.69998529381E+02  0.14527371280E+03  0.12509000000E+03 0.  0.
         25    1    3    3    0    0 -0.10613539642E+03  0.18684288594E+02 -0.72824464677E+02  0.18045701918E+03  0.12509000000E+03 0.  0.
<mgrwt>
<rscale>  2 0.45221695E+03</rscale>
<asrwt>0</asrwt>
<pdfrwt beam="1">  1       21 0.18686221E-01 0.45221695E+03</pdfrwt>
<pdfrwt beam="2">  1       21 0.59169021E-01 0.45221695E+03</pdfrwt>
<totfact> 0.64660354E+04</totfact>
</mgrwt>
</event>
<event>
 7    0  0.4725730E-002  0.4542903E+03  0.7546771E-02  0.1026450E+00
         21   -1    0    0  502  501  0.00000000000E+00  0.00000000000E+00  0.41129592999E+03  0.41129592999E+03  0.00000000000E+00 0. -1.
         21   -1    0    0  501  502 -0.00000000000E+00 -0.00000000000E+00 -0.12544473399E+03  0.12544473399E+03  0.00000000000E+00 0. -1.
      99926    2    1    2    0    0  0.00000000000E+00 -0.88817841970E-15  0.28585119600E+03  0.53674066398E+03  0.45429025315E+03 0.  0.
      99925    2    3    3    0    0  0.10152846815E+03  0.41306853271E+01  0.23664684131E+03  0.36823645327E+03  0.26319434950E+03 0.  0.
         25    1    4    4    0    0  0.91474255303E+01  0.14597757941E+02  0.10546123836E+03  0.16451854250E+03  0.12509000000E+03 0.  0.
         25    1    4    4    0    0  0.92381042621E+02 -0.10467072614E+02  0.13118560296E+03  0.20371791077E+03  0.12509000000E+03 0.  0.
         25    1    3    3    0    0 -0.10152846815E+03 -0.41306853271E+01  0.49204354690E+02  0.16850421071E+03  0.12509000000E+03 0.  0.
<mgrwt>
<rscale>  2 0.45429025E+03</rscale>
<asrwt>0</asrwt>
<pdfrwt beam="1">  1       21 0.60484695E-01 0.45429025E+03</pdfrwt>
<pdfrwt beam="2">  1       21 0.18447755E-01 0.45429025E+03</pdfrwt>
<totfact> 0.63105031E+04</totfact>
</mgrwt>
</event>
<event>
 7    0  0.4725730E-002  0.4562788E+03  0.7546771E-02  0.1025866E+00
         21   -1    0    0  502  501  0.00000000000E+00  0.00000000000E+00  0.90847280513E+02  0.90847280513E+02  0.00000000000E+00 0. -1.
         21   -1    0    0  501  502 -0.00000000000E+00 -0.00000000000E+00 -0.57291290818E+03  0.57291290818E+03  0.00000000000E+00 0. -1.
      99926    2    1    2    0    0  0.00000000000E+00  0.00000000000E+00 -0.48206562767E+03  0.66376018870E+03  0.45627877303E+03 0.  0.
      99925    2    3    3    0    0 -0.66844346217E+02 -0.62681491495E+02 -0.40240437495E+03  0.48943130617E+03  0.26309045305E+03 0.  0.
         25    1    4    4    0    0 -0.26205057849E+02 -0.68587888640E+02 -0.18240159487E+03  0.23304260005E+03  0.12509000000E+03 0.  0.
         25    1    4    4    0    0 -0.40639288368E+02  0.59063971455E+01 -0.22000278008E+03  0.25638870613E+03  0.12509000000E+03 0.  0.
         25    1    3    3    0    0  0.66844346217E+02  0.62681491495E+02 -0.79661252720E+02  0.17432888252E+03  0.12509000000E+03 0.  0.
<mgrwt>
<rscale>  2 0.45627877E+03</rscale>
<asrwt>0</asrwt>
<pdfrwt beam="1">  1       21 0.13359895E-01 0.45627877E+03</pdfrwt>
<pdfrwt beam="2">  1       21 0.84251896E-01 0.45627877E+03</pdfrwt>
<totfact> 0.54364602E+04</totfact>
</mgrwt>
</event>
<event>
 7    0  0.4725730E-002  0.4610652E+03  0.7546771E-02  0.1024473E+00
         21   -1    0    0  502  501  0.00000000000E+00  0.00000000000E+00  0.39556081035E+03  0.39556081035E+03  0.00000000000E+00 0. -1.
         21   -1    0    0  501  502 -0.00000000000E+00 -0.00000000000E+00 -0.13435423177E+03  0.13435423177E+03  0.00000000000E+00 0. -1.
      99926    2    1    2    0    0 -0.71054273576E-14  0.00000000000E+00  0.26120657858E+03  0.52991504211E+03  0.46106515284E+03 0.  0.
      99925    2    3    3    0    0  0.54082303495E+02 -0.85050566905E+02  0.91445672902E+02  0.29619562127E+03  0.26307991273E+03 0.  0.
         25    1    4    4    0    0  0.64010803573E+02 -0.39956319013E+02  0.28912889507E+02  0.14892062880E+03  0.12509000000E+03 0.  0.
         25    1    4    4    0    0 -0.99285000780E+01 -0.45094247893E+02  0.62532783395E+02  0.14727499247E+03  0.12509000000E+03 0.  0.
         25    1    3    3    0    0 -0.54082303495E+02  0.85050566905E+02  0.16976090568E+03  0.23371942084E+03  0.12509000000E+03 0.  0.
<mgrwt>
<rscale>  2 0.46106515E+03</rscale>
<asrwt>0</asrwt>
<pdfrwt beam="1">  1       21 0.58170707E-01 0.46106515E+03</pdfrwt>
<pdfrwt beam="2">  1       21 0.19757975E-01 0.46106515E+03</pdfrwt>
<totfact> 0.60262455E+04</totfact>
</mgrwt>
</event>
<event>
 7    0  0.4725730E-002  0.4504302E+03  0.7546771E-02  0.1027594E+00
         21   -1    0    0  502  501  0.00000000000E+00  0.00000000000E+00  0.68181840975E+02  0.68181840975E+02  0.00000000000E+00 0. -1.
         21   -1    0    0  501  502 -0.00000000000E+00 -0.00000000000E+00 -0.74392020509E+03  0.74392020509E+03  0.00000000000E+00 0. -1.
      99926    2    1    2    0    0 -0.71054273576E-14  0.00000000000E+00 -0.67573836412E+03  0.81210204607E+03  0.45043023487E+03 0.  0.
      99925    2    3    3    0    0 -0.58810873753E+02  0.57550005715E+02 -0.29448165124E+03  0.40249868763E+03  0.26175375565E+03 0.  0.
         25    1    3    3    0    0  0.58810873753E+02 -0.57550005715E+02 -0.38125671288E+03  0.40960335844E+03  0.12509000000E+03 0.  0.
         25    1    4    4    0    0 -0.55160587842E+02  0.12024887721E+02 -0.11526304815E+03  0.17922155770E+03  0.12509000000E+03 0.  0.
         25    1    4    4    0    0 -0.36502859108E+01  0.45525117994E+02 -0.17921860309E+03  0.22327712993E+03  0.12509000000E+03 0.  0.
<mgrwt>
<rscale>  2 0.45043023E+03</rscale>
<asrwt>0</asrwt>
<pdfrwt beam="1">  1       21 0.10026742E-01 0.45043023E+03</pdfrwt>
<pdfrwt beam="2">  1       21 0.10940003E+00 0.45043023E+03</pdfrwt>
<totfact> 0.48915659E+04</totfact>
</mgrwt>
</event>
<event>
 7    0  0.4725730E-002  0.4562633E+03  0.7546771E-02  0.1025871E+00
         21   -1    0    0  502  501  0.00000000000E+00  0.00000000000E+00  0.14708395857E+03  0.14708395857E+03  0.00000000000E+00 0. -1.
         21   -1    0    0  501  502 -0.00000000000E+00 -0.00000000000E+00 -0.35383904289E+03  0.35383904289E+03  0.00000000000E+00 0. -1.
      99926    2    1    2    0    0 -0.35527136788E-14  0.00000000000E+00 -0.20675508432E+03  0.50092300146E+03  0.45626328858E+03 0.  0.
      99925    2    3    3    0    0 -0.13575622132E+02  0.44623946237E+02 -0.24372391063E+03  0.36239576113E+03  0.26410935042E+03 0.  0.
         25    1    4    4    0    0 -0.47405908042E+02  0.24694738915E+02 -0.14016044914E+03  0.19531925110E+03  0.12509000000E+03 0.  0.
         25    1    3    3    0    0  0.13575622132E+02 -0.44623946237E+02  0.36968826314E+02  0.13852724033E+03  0.12509000000E+03 0.  0.
         25    1    4    4    0    0  0.33830285910E+02  0.19929207321E+02 -0.10356346149E+03  0.16707651003E+03  0.12509000000E+03 0.  0.
<mgrwt>
<rscale>  2 0.45626329E+03</rscale>
<asrwt>0</asrwt>
<pdfrwt beam="1">  1       21 0.21629994E-01 0.45626329E+03</pdfrwt>
<pdfrwt beam="2">  1       21 0.52035153E-01 0.45626329E+03</pdfrwt>
<totfact> 0.64556065E+04</totfact>
</mgrwt>
</event>
<event>
 7    0  0.4725730E-002  0.4524137E+03  0.7546771E-02  0.1027005E+00
         21   -1    0    0  502  501  0.00000000000E+00  0.00000000000E+00  0.29115221514E+03  0.29115221514E+03  0.00000000000E+00 0.  1.
         21   -1    0    0  501  502 -0.00000000000E+00 -0.00000000000E+00 -0.17574841964E+03  0.17574841964E+03  0.00000000000E+00 0.  1.
      99926    2    1    2    0    0  0.71054273576E-14  0.00000000000E+00  0.11540379550E+03  0.46690063478E+03  0.45241371193E+03 0.  0.
      99925    2    3    3    0    0  0.41304359114E+02 -0.70870038981E+02  0.14959038545E+03  0.31345734382E+03  0.26296313520E+03 0.  0.
         25    1    4    4    0    0  0.46159598799E+01 -0.73337007109E+02  0.78345706291E+02  0.16487929370E+03  0.12509000000E+03 0.  0.
         25    1    3    3    0    0 -0.41304359114E+02  0.70870038981E+02 -0.34186589949E+02  0.15344329096E+03  0.12509000000E+03 0.  0.
         25    1    4    4    0    0  0.36688399234E+02  0.24669681278E+01  0.71244679156E+02  0.14857805012E+03  0.12509000000E+03 0.  0.
<mgrwt>
<rscale>  2 0.45241371E+03</rscale>
<asrwt>0</asrwt>
<pdfrwt beam="1">  1       21 0.42816502E-01 0.45241371E+03</pdfrwt>
<pdfrwt beam="2">  1       21 0.25845356E-01 0.45241371E+03</pdfrwt>
<totfact> 0.69073241E+04</totfact>
</mgrwt>
</event>
<event>
 7    0  0.4725730E-002  0.4509223E+03  0.7546771E-02  0.1027447E+00
         21   -1    0    0  502  501  0.00000000000E+00  0.00000000000E+00  0.17537255895E+03  0.17537255895E+03  0.00000000000E+00 0.  1.
         21   -1    0    0  501  502 -0.00000000000E+00 -0.00000000000E+00 -0.28985567602E+03  0.28985567602E+03  0.00000000000E+00 0.  1.
      99926    2    1    2    0    0  0.14210854715E-13  0.00000000000E+00 -0.11448311707E+03  0.46522823497E+03  0.45092230652E+03 0.  0.
      99925    2    3    3    0    0 -0.90279139461E+02  0.48496522038E+02 -0.33445006526E+02  0.28435004631E+03  0.26312382010E+03 0.  0.
         25    1    4    4    0    0 -0.63214802308E+02  0.22084734307E+02 -0.54483494383E+02  0.15198620326E+03  0.12509000000E+03 0.  0.
         25    1    4    4    0    0 -0.27064337154E+02  0.26411787731E+02  0.21038487858E+02  0.13236384305E+03  0.12509000000E+03 0.  0.
         25    1    3    3    0    0  0.90279139461E+02 -0.48496522038E+02 -0.81038110544E+02  0.18087818866E+03  0.12509000000E+03 0.  0.
<mgrwt>
<rscale>  2 0.45092231E+03</rscale>
<asrwt>0</asrwt>
<pdfrwt beam="1">  1       21 0.25790083E-01 0.45092231E+03</pdfrwt>
<pdfrwt beam="2">  1       21 0.42625834E-01 0.45092231E+03</pdfrwt>
<totfact> 0.70030291E+04</totfact>
</mgrwt>
</event>
<event>
 7    0  0.4725730E-002  0.4613475E+03  0.7546771E-02  0.1024391E+00
         21   -1    0    0  502  501  0.00000000000E+00  0.00000000000E+00  0.15237023427E+03  0.15237023427E+03  0.00000000000E+00 0.  1.
         21   -1    0    0  501  502 -0.00000000000E+00 -0.00000000000E+00 -0.34921766800E+03  0.34921766800E+03  0.00000000000E+00 0.  1.
      99926    2    1    2    0    0  0.00000000000E+00 -0.71054273576E-14 -0.19684743373E+03  0.50158790226E+03  0.46134749542E+03 0.  0.
      99925    2    3    3    0    0  0.45118367546E+02 -0.49204638966E+02 -0.23030637375E+03  0.35590409276E+03  0.26300177541E+03 0.  0.
         25    1    4    4    0    0  0.13883879484E+02 -0.62790480636E+02 -0.10420755413E+03  0.17504893317E+03  0.12509000000E+03 0.  0.
         25    1    4    4    0    0  0.31234488062E+02  0.13585841670E+02 -0.12609881962E+03  0.18085515958E+03  0.12509000000E+03 0.  0.
         25    1    3    3    0    0 -0.45118367546E+02  0.49204638966E+02  0.33458940017E+02  0.14568380951E+03  0.12509000000E+03 0.  0.
<mgrwt>
<rscale>  2 0.46134750E+03</rscale>
<asrwt>0</asrwt>
<pdfrwt beam="1">  1       21 0.22407388E-01 0.46134750E+03</pdfrwt>
<pdfrwt beam="2">  1       21 0.51355539E-01 0.46134750E+03</pdfrwt>
<totfact> 0.61976980E+04</totfact>
</mgrwt>
</event>
<event>
 7    0  0.4725730E-002  0.4384647E+03  0.7546771E-02  0.1031219E+00
         21   -1    0    0  502  501  0.00000000000E+00  0.00000000000E+00  0.25690275881E+03  0.25690275881E+03  0.00000000000E+00 0. -1.
         21   -1    0    0  501  502 -0.00000000000E+00 -0.00000000000E+00 -0.18708569674E+03  0.18708569674E+03  0.00000000000E+00 0. -1.
      99926    2    1    2    0    0  0.00000000000E+00  0.00000000000E+00  0.69817062073E+02  0.44398845555E+03  0.43846473804E+03 0.  0.
      99925    2    3    3    0    0 -0.77479785905E+02 -0.43219848416E+02  0.83996558699E+02  0.28997664189E+03  0.26298281017E+03 0.  0.
         25    1    4    4    0    0 -0.29656228886E+02  0.32758224863E+01  0.73213116357E+01  0.12880734695E+03  0.12509000000E+03 0.  0.
         25    1    3    3    0    0  0.77479785905E+02  0.43219848416E+02 -0.14179496626E+02  0.15401181366E+03  0.12509000000E+03 0.  0.
         25    1    4    4    0    0 -0.47823557019E+02 -0.46495670902E+02  0.76675247063E+02  0.16116929494E+03  0.12509000000E+03 0.  0.
<mgrwt>
<rscale>  2 0.43846474E+03</rscale>
<asrwt>0</asrwt>
<pdfrwt beam="1">  1       21 0.37779818E-01 0.43846474E+03</pdfrwt>
<pdfrwt beam="2">  1       21 0.27512602E-01 0.43846474E+03</pdfrwt>
<totfact> 0.79317659E+04</totfact>
</mgrwt>
</event>
<event>
 7    0  0.4725730E-002  0.4532723E+03  0.7546771E-02  0.1026751E+00
         21   -1    0    0  502  501  0.00000000000E+00  0.00000000000E+00  0.12826396603E+03  0.12826396603E+03  0.00000000000E+00 0.  1.
         21   -1    0    0  501  502 -0.00000000000E+00 -0.00000000000E+00 -0.40045503506E+03  0.40045503506E+03  0.00000000000E+00 0.  1.
      99926    2    1    2    0    0 -0.28421709430E-13  0.88817841970E-15 -0.27219106903E+03  0.52871900110E+03  0.45327232880E+03 0.  0.
      99925    2    3    3    0    0  0.87106637996E+02 -0.79587801324E+01 -0.90711744993E+02  0.29158367745E+03  0.26294773571E+03 0.  0.
         25    1    4    4    0    0  0.50556500666E+01 -0.16382162726E+02 -0.29065097124E+02  0.12956165646E+03  0.12509000000E+03 0.  0.
         25    1    4    4    0    0  0.82050987929E+02  0.84233825939E+01 -0.61646647870E+02  0.16202202100E+03  0.12509000000E+03 0.  0.
         25    1    3    3    0    0 -0.87106637996E+02  0.79587801324E+01 -0.18147932404E+03  0.23713532364E+03  0.12509000000E+03 0.  0.
<mgrwt>
<rscale>  2 0.45327233E+03</rscale>
<asrwt>0</asrwt>
<pdfrwt beam="1">  1       21 0.18862348E-01 0.45327233E+03</pdfrwt>
<pdfrwt beam="2">  1       21 0.58890445E-01 0.45327233E+03</pdfrwt>
<totfact> 0.64167525E+04</totfact>
</mgrwt>
</event>
<event>
 7    0  0.4725730E-002  0.4544464E+03  0.7546771E-02  0.1026404E+00
         21   -1    0    0  502  501  0.00000000000E+00  0.00000000000E+00  0.34179288540E+03  0.34179288540E+03  0.00000000000E+00 0. -1.
         21   -1    0    0  501  502 -0.00000000000E+00 -0.00000000000E+00 -0.15105753320E+03  0.15105753320E+03  0.00000000000E+00 0. -1.
      99926    2    1    2    0    0 -0.35527136788E-14  0.00000000000E+00  0.19073535220E+03  0.49285041861E+03  0.45444643308E+03 0.  0.
      99925    2    3    3    0    0 -0.28819392873E+02  0.31594943326E+02  0.23314175159E+03  0.35401739423E+03  0.26295330618E+03 0.  0.
         25    1    4    4    0    0  0.66127203687E+01  0.36064427839E+02  0.15393776299E+03  0.20171443677E+03  0.12509000000E+03 0.  0.
         25    1    4    4    0    0 -0.35432113242E+02 -0.44694845130E+01  0.79203988598E+02  0.15230295746E+03  0.12509000000E+03 0.  0.
         25    1    3    3    0    0  0.28819392873E+02 -0.31594943326E+02 -0.42406399389E+02  0.13883302438E+03  0.12509000000E+03 0.  0.
<mgrwt>
<rscale>  2 0.45444643E+03</rscale>
<asrwt>0</asrwt>
<pdfrwt beam="1">  1       21 0.50263660E-01 0.45444643E+03</pdfrwt>
<pdfrwt beam="2">  1       21 0.22214343E-01 0.45444643E+03</pdfrwt>
<totfact> 0.66065765E+04</totfact>
</mgrwt>
</event>
<event>
 7    0  0.4725730E-002  0.4565165E+03  0.7546771E-02  0.1025796E+00
         21   -1    0    0  502  501  0.00000000000E+00  0.00000000000E+00  0.32622070036E+03  0.32622070036E+03  0.00000000000E+00 0.  1.
         21   -1    0    0  501  502 -0.00000000000E+00 -0.00000000000E+00 -0.15971341355E+03  0.15971341355E+03  0.00000000000E+00 0.  1.
      99926    2    1    2    0    0  0.00000000000E+00  0.26645352591E-14  0.16650728681E+03  0.48593411390E+03  0.45651646903E+03 0.  0.
      99925    2    3    3    0    0  0.85602656266E+02 -0.51335566821E+01  0.23796307490E+02  0.27768402415E+03  0.26303609040E+03 0.  0.
         25    1    4    4    0    0  0.53976805676E+02 -0.35690655979E+02 -0.89004449807E+01  0.14111713041E+03  0.12509000000E+03 0.  0.
         25    1    4    4    0    0  0.31625850591E+02  0.30557099297E+02  0.32696752471E+02  0.13656689374E+03  0.12509000000E+03 0.  0.
         25    1    3    3    0    0 -0.85602656266E+02  0.51335566821E+01  0.14271097932E+03  0.20825008975E+03  0.12509000000E+03 0.  0.
<mgrwt>
<rscale>  2 0.45651647E+03</rscale>
<asrwt>0</asrwt>
<pdfrwt beam="1">  1       21 0.47973632E-01 0.45651647E+03</pdfrwt>
<pdfrwt beam="2">  1       21 0.23487267E-01 0.45651647E+03</pdfrwt>
<totfact> 0.65478806E+04</totfact>
</mgrwt>
</event>
<event>
 7    0  0.4725730E-002  0.4546269E+03  0.7546771E-02  0.1026351E+00
         21   -1    0    0  502  501  0.00000000000E+00  0.00000000000E+00  0.22400353678E+03  0.22400353678E+03  0.00000000000E+00 0.  1.
         21   -1    0    0  501  502 -0.00000000000E+00 -0.00000000000E+00 -0.23067228203E+03  0.23067228203E+03  0.00000000000E+00 0.  1.
      99926    2    1    2    0    0  0.00000000000E+00  0.00000000000E+00 -0.66687452547E+01  0.45467581881E+03  0.45462691083E+03 0.  0.
      99925    2    3    3    0    0  0.44387479174E+02 -0.10007916967E+03  0.23092445957E+02  0.28579916231E+03  0.26298633350E+03 0.  0.
         25    1    3    3    0    0 -0.44387479174E+02  0.10007916967E+03 -0.29761191212E+02  0.16887665650E+03  0.12509000000E+03 0.  0.
         25    1    4    4    0    0  0.32856047350E+02 -0.23162784791E+02 -0.18633519230E+02  0.13270550322E+03  0.12509000000E+03 0.  0.
         25    1    4    4    0    0  0.11531431824E+02 -0.76916384876E+02  0.41725965187E+02  0.15309365909E+03  0.12509000000E+03 0.  0.
<mgrwt>
<rscale>  2 0.45462691E+03</rscale>
<asrwt>0</asrwt>
<pdfrwt beam="1">  1       21 0.32941697E-01 0.45462691E+03</pdfrwt>
<pdfrwt beam="2">  1       21 0.33922394E-01 0.45462691E+03</pdfrwt>
<totfact> 0.68774051E+04</totfact>
</mgrwt>
</event>
<event>
 7    0  0.4725730E-002  0.4491305E+03  0.7546771E-02  0.1027982E+00
         21   -1    0    0  502  501  0.00000000000E+00  0.00000000000E+00  0.17388056365E+04  0.17388056365E+04  0.00000000000E+00 0. -1.
         21   -1    0    0  501  502 -0.00000000000E+00 -0.00000000000E+00 -0.29002406342E+02  0.29002406342E+02  0.00000000000E+00 0. -1.
      99926    2    1    2    0    0 -0.71054273576E-14 -0.17763568394E-14  0.17098032301E+04  0.17678080428E+04  0.44913048268E+03 0.  0.
      99925    2    3    3    0    0 -0.60287540515E+02 -0.95176232524E+01  0.14305351378E+04  0.14557770377E+04  0.26292742373E+03 0.  0.
         25    1    4    4    0    0  0.36774286026E+01 -0.24890661930E+02  0.74116507991E+03  0.75206798383E+03  0.12509000000E+03 0.  0.
         25    1    3    3    0    0  0.60287540515E+02  0.95176232524E+01  0.27926809230E+03  0.31203100514E+03  0.12509000000E+03 0.  0.
         25    1    4    4    0    0 -0.63964969117E+02  0.15373038677E+02  0.68937005792E+03  0.70370905383E+03  0.12509000000E+03 0.  0.
<mgrwt>
<rscale>  2 0.44913048E+03</rscale>
<asrwt>0</asrwt>
<pdfrwt beam="1">  1       21 0.25570664E+00 0.44913048E+03</pdfrwt>
<pdfrwt beam="2">  1       21 0.42650609E-02 0.44913048E+03</pdfrwt>
<totfact> 0.18725148E+04</totfact>
</mgrwt>
</event>
<event>
 7    0  0.4725730E-002  0.4603009E+03  0.7546771E-02  0.1024694E+00
         21   -1    0    0  502  501  0.00000000000E+00  0.00000000000E+00  0.29459464989E+03  0.29459464989E+03  0.00000000000E+00 0. -1.
         21   -1    0    0  501  502 -0.00000000000E+00 -0.00000000000E+00 -0.17980374628E+03  0.17980374628E+03  0.00000000000E+00 0. -1.
      99926    2    1    2    0    0  0.14210854715E-13  0.44408920985E-15  0.11479090361E+03  0.47439839616E+03  0.46030086545E+03 0.  0.
      99925    2    3    3    0    0  0.11799617913E+03  0.38951414669E+01  0.74646355468E+02  0.29777064279E+03  0.26297719845E+03 0.  0.
         25    1    4    4    0    0  0.77035431568E+02 -0.27209054532E+02  0.15687755833E+02  0.15022784079E+03  0.12509000000E+03 0.  0.
         25    1    3    3    0    0 -0.11799617913E+03 -0.38951414669E+01  0.40144548144E+02  0.17662775338E+03  0.12509000000E+03 0.  0.
         25    1    4    4    0    0  0.40960747567E+02  0.31104195999E+02  0.58958599635E+02  0.14754280200E+03  0.12509000000E+03 0.  0.
<mgrwt>
<rscale>  2 0.46030087E+03</rscale>
<asrwt>0</asrwt>
<pdfrwt beam="1">  1       21 0.43322743E-01 0.46030087E+03</pdfrwt>
<pdfrwt beam="2">  1       21 0.26441727E-01 0.46030087E+03</pdfrwt>
<totfact> 0.64360565E+04</totfact>
</mgrwt>
</event>
<event>
 7    0  0.4725730E-002  0.4516714E+03  0.7546771E-02  0.1027225E+00
         21   -1    0    0  502  501  0.00000000000E+00  0.00000000000E+00  0.91919371480E+02  0.91919371480E+02  0.00000000000E+00 0. -1.
         21   -1    0    0  501  502 -0.00000000000E+00 -0.00000000000E+00 -0.55485329274E+03  0.55485329274E+03  0.00000000000E+00 0. -1.
      99926    2    1    2    0    0  0.00000000000E+00  0.00000000000E+00 -0.46293392126E+03  0.64677266422E+03  0.45167141124E+03 0.  0.
      99925    2    3    3    0    0  0.47085743918E+02 -0.32470204319E+02 -0.15784229264E+03  0.31210896526E+03  0.26310917012E+03 0.  0.
         25    1    4    4    0    0  0.54308588016E+02 -0.17765239717E+02 -0.50625214401E+02  0.14654503372E+03  0.12509000000E+03 0.  0.
         25    1    3    3    0    0 -0.47085743918E+02  0.32470204319E+02 -0.30509162862E+03  0.33466369896E+03  0.12509000000E+03 0.  0.
         25    1    4    4    0    0 -0.72228440982E+01 -0.14704964602E+02 -0.10721707824E+03  0.16556393154E+03  0.12509000000E+03 0.  0.
<mgrwt>
<rscale>  2 0.45167141E+03</rscale>
<asrwt>0</asrwt>
<pdfrwt beam="1">  1       21 0.13517555E-01 0.45167141E+03</pdfrwt>
<pdfrwt beam="2">  1       21 0.81596070E-01 0.45167141E+03</pdfrwt>
<totfact> 0.57379880E+04</totfact>
</mgrwt>
</event>
<event>
 7    0  0.4725730E-002  0.4544927E+03  0.7546771E-02  0.1026391E+00
         21   -1    0    0  502  501  0.00000000000E+00  0.00000000000E+00  0.27836908330E+03  0.27836908330E+03  0.00000000000E+00 0. -1.
         21   -1    0    0  501  502 -0.00000000000E+00 -0.00000000000E+00 -0.18551238533E+03  0.18551238533E+03  0.00000000000E+00 0. -1.
      99926    2    1    2    0    0  0.00000000000E+00  0.00000000000E+00  0.92856697962E+02  0.46388146863E+03  0.45449273985E+03 0.  0.
      99925    2    3    3    0    0 -0.84546432588E+02  0.53756027043E+02  0.57313499900E+01  0.28146396929E+03  0.26296636273E+03 0.  0.
         25    1    4    4    0    0 -0.17470623842E+02  0.58917447489E+02  0.22079242203E+01  0.13938748633E+03  0.12509000000E+03 0.  0.
         25    1    4    4    0    0 -0.67075808747E+02 -0.51614204469E+01  0.35234257697E+01  0.14207648296E+03  0.12509000000E+03 0.  0.
         25    1    3    3    0    0  0.84546432588E+02 -0.53756027043E+02  0.87125347972E+02  0.18241749934E+03  0.12509000000E+03 0.  0.
<mgrwt>
<rscale>  2 0.45449274E+03</rscale>
<asrwt>0</asrwt>
<pdfrwt beam="1">  1       21 0.40936630E-01 0.45449274E+03</pdfrwt>
<pdfrwt beam="2">  1       21 0.27281233E-01 0.45449274E+03</pdfrwt>
<totfact> 0.68167835E+04</totfact>
</mgrwt>
</event>
<event>
 6    0  0.4725730E-002  0.4581726E+03  0.7546771E-02  0.1025313E+00
         21   -1    0    0  502  501  0.00000000000E+00  0.00000000000E+00  0.61362934203E+02  0.61362934203E+02  0.00000000000E+00 0. -1.
         21   -1    0    0  501  502 -0.00000000000E+00 -0.00000000000E+00 -0.85524803955E+03  0.85524803955E+03  0.00000000000E+00 0. -1.
      99926    2    1    2    0    0  0.00000000000E+00  0.00000000000E+00 -0.79388510535E+03  0.91661097375E+03  0.45817258398E+03 0.  0.
         25    1    3    3    0    0 -0.45781694839E+02 -0.48779242380E+01 -0.11757559694E+03  0.17773937893E+03  0.12509000000E+03 0.  0.
         25    1    3    3    0    0 -0.40786429971E+02  0.40794515077E+02 -0.26097135618E+03  0.29509537810E+03  0.12509000000E+03 0.  0.
         25    1    3    3    0    0  0.86568124810E+02 -0.35916590839E+02 -0.41533815223E+03  0.44377621672E+03  0.12509000000E+03 0.  0.
<mgrwt>
<rscale>  2 0.45817258E+03</rscale>
<asrwt>0</asrwt>
<pdfrwt beam="1">  1       21 0.90239620E-02 0.45817258E+03</pdfrwt>
<pdfrwt beam="2">  1       21 0.12577176E+00 0.45817258E+03</pdfrwt>
<totfact> 0.41483555E+04</totfact>
</mgrwt>
</event>
<event>
 7    0  0.4725730E-002  0.4817882E+03  0.7546771E-02  0.1018645E+00
         21   -1    0    0  502  501  0.00000000000E+00  0.00000000000E+00  0.58076537809E+03  0.58076537809E+03  0.00000000000E+00 0. -1.
         21   -1    0    0  501  502 -0.00000000000E+00 -0.00000000000E+00 -0.99919798932E+02  0.99919798932E+02  0.00000000000E+00 0. -1.
      99926    2    1    2    0    0 -0.71054273576E-14  0.00000000000E+00  0.48084557916E+03  0.68068517703E+03  0.48178816841E+03 0.  0.
      99925    2    3    3    0    0 -0.45932689537E+02 -0.12800229791E+03  0.31640718981E+03  0.43333544036E+03  0.26300512137E+03 0.  0.
         25    1    3    3    0    0  0.45932689537E+02  0.12800229791E+03  0.16443838935E+03  0.24734973667E+03  0.12509000000E+03 0.  0.
         25    1    4    4    0    0 -0.10096091216E+01 -0.96814194027E+02  0.19056585880E+03  0.24766279922E+03  0.12509000000E+03 0.  0.
         25    1    4    4    0    0 -0.44923080416E+02 -0.31188103879E+02  0.12584133101E+03  0.18567264114E+03  0.12509000000E+03 0.  0.
<mgrwt>
<rscale>  2 0.48178817E+03</rscale>
<asrwt>0</asrwt>
<pdfrwt beam="1">  1       21 0.85406672E-01 0.48178817E+03</pdfrwt>
<pdfrwt beam="2">  1       21 0.14694088E-01 0.48178817E+03</pdfrwt>
<totfact> 0.43928304E+04</totfact>
</mgrwt>
</event>
<event>
 7    0  0.4725730E-002  0.4549928E+03  0.7546771E-02  0.1026244E+00
         21   -1    0    0  502  501  0.00000000000E+00  0.00000000000E+00  0.25798351455E+03  0.25798351455E+03  0.00000000000E+00 0.  1.
         21   -1    0    0  501  502 -0.00000000000E+00 -0.00000000000E+00 -0.20061210221E+03  0.20061210221E+03  0.00000000000E+00 0.  1.
      99926    2    1    2    0    0  0.00000000000E+00 -0.35527136788E-14  0.57371412336E+02  0.45859561675E+03  0.45499281396E+03 0.  0.
      99925    2    3    3    0    0  0.98106603509E+02  0.19358917280E+02 -0.17191398294E+02  0.28194116830E+03  0.26305057475E+03 0.  0.
         25    1    3    3    0    0 -0.98106603509E+02 -0.19358917280E+02  0.74562810630E+02  0.17665444846E+03  0.12509000000E+03 0.  0.
         25    1    4    4    0    0  0.81447987308E+02  0.22389144123E+02  0.14965093080E+02  0.15167897192E+03  0.12509000000E+03 0.  0.
         25    1    4    4    0    0  0.16658616201E+02 -0.30302268435E+01 -0.32156491374E+02  0.13026219638E+03  0.12509000000E+03 0.  0.
<mgrwt>
<rscale>  2 0.45499281E+03</rscale>
<asrwt>0</asrwt>
<pdfrwt beam="1">  1       21 0.37938752E-01 0.45499281E+03</pdfrwt>
<pdfrwt beam="2">  1       21 0.29501780E-01 0.45499281E+03</pdfrwt>
<totfact> 0.68286923E+04</totfact>
</mgrwt>
</event>
<event>
 7    0  0.4725730E-002  0.4659770E+03  0.7546771E-02  0.1023062E+00
         21   -1    0    0  502  501  0.00000000000E+00  0.00000000000E+00  0.59308848313E+03  0.59308848313E+03  0.00000000000E+00 0.  1.
         21   -1    0    0  501  502 -0.00000000000E+00 -0.00000000000E+00 -0.91527033590E+02  0.91527033590E+02  0.00000000000E+00 0.  1.
      99926    2    1    2    0    0  0.00000000000E+00  0.00000000000E+00  0.50156144954E+03  0.68461551672E+03  0.46597695015E+03 0.  0.
      99925    2    3    3    0    0  0.55512489463E+02  0.71918474562E+02  0.43498629800E+03  0.51628945702E+03  0.26284562107E+03 0.  0.
         25    1    4    4    0    0 -0.11195360736E+02  0.29007123820E+02  0.17974283212E+03  0.22118260133E+03  0.12509000000E+03 0.  0.
         25    1    3    3    0    0 -0.55512489463E+02 -0.71918474562E+02  0.66575151536E+02  0.16832605969E+03  0.12509000000E+03 0.  0.
         25    1    4    4    0    0  0.66707850198E+02  0.42911350742E+02  0.25524346588E+03  0.29510685569E+03  0.12509000000E+03 0.  0.
<mgrwt>
<rscale>  2 0.46597695E+03</rscale>
<asrwt>0</asrwt>
<pdfrwt beam="1">  1       21 0.87218893E-01 0.46597695E+03</pdfrwt>
<pdfrwt beam="2">  1       21 0.13459858E-01 0.46597695E+03</pdfrwt>
<totfact> 0.49339072E+04</totfact>
</mgrwt>
</event>
<event>
 7    0  0.4725730E-002  0.4575772E+03  0.7546771E-02  0.1025486E+00
         21   -1    0    0  502  501  0.00000000000E+00  0.00000000000E+00  0.62017362521E+02  0.62017362521E+02  0.00000000000E+00 0.  1.
         21   -1    0    0  501  502 -0.00000000000E+00 -0.00000000000E+00 -0.84402524494E+03  0.84402524494E+03  0.00000000000E+00 0.  1.
      99926    2    1    2    0    0  0.00000000000E+00  0.14210854715E-13 -0.78200788242E+03  0.90604260746E+03  0.45757718296E+03 0.  0.
      99925    2    3    3    0    0 -0.25509703362E+02 -0.10812341851E+03 -0.55312604563E+03  0.62253630787E+03  0.26317601271E+03 0.  0.
         25    1    3    3    0    0  0.25509703362E+02  0.10812341851E+03 -0.22888183679E+03  0.28350629959E+03  0.12509000000E+03 0.  0.
         25    1    4    4    0    0 -0.45636260805E+02 -0.42889271274E+02 -0.32098091001E+03  0.35014055832E+03  0.12509000000E+03 0.  0.
         25    1    4    4    0    0  0.20126557443E+02 -0.65234147236E+02 -0.23214513562E+03  0.27239574955E+03  0.12509000000E+03 0.  0.
<mgrwt>
<rscale>  2 0.45757718E+03</rscale>
<asrwt>0</asrwt>
<pdfrwt beam="1">  1       21 0.91202009E-02 0.45757718E+03</pdfrwt>
<pdfrwt beam="2">  1       21 0.12412135E+00 0.45757718E+03</pdfrwt>
<totfact> 0.42117259E+04</totfact>
</mgrwt>
</event>
<event>
 7    0  0.4725730E-002  0.4129116E+03  0.7546771E-02  0.1039398E+00
         21   -1    0    0  502  501  0.00000000000E+00  0.00000000000E+00  0.48901342159E+03  0.48901342159E+03  0.00000000000E+00 0. -1.
         21   -1    0    0  501  502 -0.00000000000E+00 -0.00000000000E+00 -0.87163237521E+02  0.87163237521E+02  0.00000000000E+00 0. -1.
      99926    2    1    2    0    0  0.35527136788E-14 -0.71054273576E-14  0.40185018407E+03  0.57617665911E+03  0.41291157900E+03 0.  0.
      99925    2    3    3    0    0 -0.28726753981E+02 -0.56033272219E+02  0.23404509205E+03  0.35761085438E+03  0.26295144812E+03 0.  0.
         25    1    3    3    0    0  0.28726753981E+02  0.56033272219E+02  0.16780509202E+03  0.21856580473E+03  0.12509000000E+03 0.  0.
         25    1    4    4    0    0  0.17949435136E+02 -0.44753909050E+02  0.93612915613E+02  0.16351140837E+03  0.12509000000E+03 0.  0.
         25    1    4    4    0    0 -0.46676189117E+02 -0.11279363169E+02  0.14043217644E+03  0.19409944601E+03  0.12509000000E+03 0.  0.
<mgrwt>
<rscale>  2 0.41291158E+03</rscale>
<asrwt>0</asrwt>
<pdfrwt beam="1">  1       21 0.71913737E-01 0.41291158E+03</pdfrwt>
<pdfrwt beam="2">  1       21 0.12818123E-01 0.41291158E+03</pdfrwt>
<totfact> 0.85159909E+04</totfact>
</mgrwt>
</event>
<event>
 7    0  0.4725730E-002  0.4444925E+03  0.7546771E-02  0.1029377E+00
         21   -1    0    0  502  501  0.00000000000E+00  0.00000000000E+00  0.30974262758E+03  0.30974262758E+03  0.00000000000E+00 0.  1.
         21   -1    0    0  501  502 -0.00000000000E+00 -0.00000000000E+00 -0.15946589612E+03  0.15946589612E+03  0.00000000000E+00 0.  1.
      99926    2    1    2    0    0  0.14210854715E-13  0.00000000000E+00  0.15027673147E+03  0.46920852370E+03  0.44449245516E+03 0.  0.
      99925    2    3    3    0    0 -0.76740946539E+02  0.64730680490E+02  0.70417239308E+02  0.29003184983E+03  0.26283198521E+03 0.  0.
         25    1    4    4    0    0 -0.63026899111E+01  0.19610648559E+02  0.77154922181E+01  0.12700920580E+03  0.12509000000E+03 0.  0.
         25    1    3    3    0    0  0.76740946539E+02 -0.64730680490E+02  0.79859492161E+02  0.17917667387E+03  0.12509000000E+03 0.  0.
         25    1    4    4    0    0 -0.70438256628E+02  0.45120031931E+02  0.62701747089E+02  0.16302264403E+03  0.12509000000E+03 0.  0.
<mgrwt>
<rscale>  2 0.44449246E+03</rscale>
<asrwt>0</asrwt>
<pdfrwt beam="1">  1       21 0.45550387E-01 0.44449246E+03</pdfrwt>
<pdfrwt beam="2">  1       21 0.23450867E-01 0.44449246E+03</pdfrwt>
<totfact> 0.73429067E+04</totfact>
</mgrwt>
</event>
<event>
 7    0  0.4725730E-002  0.4543963E+03  0.7546771E-02  0.1026419E+00
         21   -1    0    0  502  501  0.00000000000E+00  0.00000000000E+00  0.94815440281E+02  0.94815440281E+02  0.00000000000E+00 0. -1.
         21   -1    0    0  501  502 -0.00000000000E+00 -0.00000000000E+00 -0.54441546194E+03  0.54441546194E+03  0.00000000000E+00 0. -1.
      99926    2    1    2    0    0  0.00000000000E+00  0.14210854715E-13 -0.44960002165E+03  0.63923090222E+03  0.45439626635E+03 0.  0.
      99925    2    3    3    0    0  0.13638078592E+02  0.73570271986E+02 -0.40143728786E+03  0.48571953738E+03  0.26300758696E+03 0.  0.
         25    1    4    4    0    0  0.30735263577E+01  0.11501897549E+02 -0.24777821644E+03  0.27781881300E+03  0.12509000000E+03 0.  0.
         25    1    4    4    0    0  0.10564552234E+02  0.62068374437E+02 -0.15365907142E+03  0.20790072438E+03  0.12509000000E+03 0.  0.
         25    1    3    3    0    0 -0.13638078592E+02 -0.73570271986E+02 -0.48162733792E+02  0.15351136484E+03  0.12509000000E+03 0.  0.
<mgrwt>
<rscale>  2 0.45439627E+03</rscale>
<asrwt>0</asrwt>
<pdfrwt beam="1">  1       21 0.13943447E-01 0.45439627E+03</pdfrwt>
<pdfrwt beam="2">  1       21 0.80061098E-01 0.45439627E+03</pdfrwt>
<totfact> 0.56595364E+04</totfact>
</mgrwt>
</event>
<event>
 7    0  0.4725730E-002  0.4544889E+03  0.7546771E-02  0.1026392E+00
         21   -1    0    0  502  501  0.00000000000E+00  0.00000000000E+00  0.55758666911E+02  0.55758666911E+02  0.00000000000E+00 0. -1.
         21   -1    0    0  501  502 -0.00000000000E+00 -0.00000000000E+00 -0.92613483925E+03  0.92613483925E+03  0.00000000000E+00 0. -1.
      99926    2    1    2    0    0  0.00000000000E+00 -0.35527136788E-14 -0.87037617233E+03  0.98189350616E+03  0.45448891743E+03 0.  0.
      99925    2    3    3    0    0  0.76182682834E+02 -0.17777441603E+02 -0.72329292814E+03  0.77356485374E+03  0.26292600566E+03 0.  0.
         25    1    3    3    0    0 -0.76182682834E+02  0.17777441603E+02 -0.14708324419E+03  0.20832865241E+03  0.12509000000E+03 0.  0.
         25    1    4    4    0    0  0.30722776081E+02 -0.27473163531E+02 -0.45856908848E+03  0.47710772441E+03  0.12509000000E+03 0.  0.
         25    1    4    4    0    0  0.45459906752E+02  0.96957219276E+01 -0.26472383966E+03  0.29645712933E+03  0.12509000000E+03 0.  0.
<mgrwt>
<rscale>  2 0.45448892E+03</rscale>
<asrwt>0</asrwt>
<pdfrwt beam="1">  1       21 0.81998049E-02 0.45448892E+03</pdfrwt>
<pdfrwt beam="2">  1       21 0.13619628E+00 0.45448892E+03</pdfrwt>
<totfact> 0.40035139E+04</totfact>
</mgrwt>
</event>
<event>
 7    0  0.4725730E-002  0.4471160E+03  0.7546771E-02  0.1028586E+00
         21   -1    0    0  502  501  0.00000000000E+00  0.00000000000E+00  0.83439545307E+02  0.83439545307E+02  0.00000000000E+00 0.  1.
         21   -1    0    0  501  502 -0.00000000000E+00 -0.00000000000E+00 -0.59897463380E+03  0.59897463380E+03  0.00000000000E+00 0.  1.
      99926    2    1    2    0    0  0.88817841970E-15  0.00000000000E+00 -0.51553508849E+03  0.68241417910E+03  0.44711596301E+03 0.  0.
      99925    2    3    3    0    0 -0.48651168048E+01 -0.10232198208E+03 -0.28757630245E+03  0.40293936162E+03  0.26299532701E+03 0.  0.
         25    1    4    4    0    0 -0.14697901389E+02 -0.58038961095E+02 -0.92111893369E+02  0.16648320729E+03  0.12509000000E+03 0.  0.
         25    1    3    3    0    0  0.48651168048E+01  0.10232198208E+03 -0.22795878604E+03  0.27947481749E+03  0.12509000000E+03 0.  0.
         25    1    4    4    0    0  0.98327845847E+01 -0.44283020980E+02 -0.19546440908E+03  0.23645615433E+03  0.12509000000E+03 0.  0.
<mgrwt>
<rscale>  2 0.44711596E+03</rscale>
<asrwt>0</asrwt>
<pdfrwt beam="1">  1       21 0.12270521E-01 0.44711596E+03</pdfrwt>
<pdfrwt beam="2">  1       21 0.88084508E-01 0.44711596E+03</pdfrwt>
<totfact> 0.57346207E+04</totfact>
</mgrwt>
</event>
<event>
 7    0  0.4725730E-002  0.4547024E+03  0.7546771E-02  0.1026329E+00
         21   -1    0    0  502  501  0.00000000000E+00  0.00000000000E+00  0.14721300491E+04  0.14721300491E+04  0.00000000000E+00 0. -1.
         21   -1    0    0  501  502 -0.00000000000E+00 -0.00000000000E+00 -0.35111408522E+02  0.35111408522E+02  0.00000000000E+00 0. -1.
      99926    2    1    2    0    0  0.00000000000E+00  0.00000000000E+00  0.14370186406E+04  0.15072414576E+04  0.45470236221E+03 0.  0.
      99925    2    3    3    0    0 -0.33056664789E+02  0.96176085780E+02  0.74365578145E+03  0.79538322379E+03  0.26318808642E+03 0.  0.
         25    1    4    4    0    0 -0.87142206474E+01  0.77197645638E+01  0.37243215548E+03  0.39305057046E+03  0.12509000000E+03 0.  0.
         25    1    3    3    0    0  0.33056664789E+02 -0.96176085780E+02  0.69336285912E+03  0.71185823383E+03  0.12509000000E+03 0.  0.
         25    1    4    4    0    0 -0.24342444141E+02  0.88456321216E+02  0.37122362597E+03  0.40233265332E+03  0.12509000000E+03 0.  0.
<mgrwt>
<rscale>  2 0.45470236E+03</rscale>
<asrwt>0</asrwt>
<pdfrwt beam="1">  1       21 0.21648967E+00 0.45470236E+03</pdfrwt>
<pdfrwt beam="2">  1       21 0.51634434E-02 0.45470236E+03</pdfrwt>
<totfact> 0.23656846E+04</totfact>
</mgrwt>
</event>
<event>
 7    0  0.4725730E-002  0.4558502E+03  0.7546771E-02  0.1025992E+00
         21   -1    0    0  502  501  0.00000000000E+00  0.00000000000E+00  0.30984450173E+03  0.30984450173E+03  0.00000000000E+00 0.  1.
         21   -1    0    0  501  502 -0.00000000000E+00 -0.00000000000E+00 -0.16766428655E+03  0.16766428655E+03  0.00000000000E+00 0.  1.
      99926    2    1    2    0    0 -0.14210854715E-13  0.00000000000E+00  0.14218021518E+03  0.47750878827E+03  0.45585022682E+03 0.  0.
      99925    2    3    3    0    0  0.11051394842E+03 -0.27958964245E+02  0.92305798934E+02  0.30107182510E+03  0.26292365218E+03 0.  0.
         25    1    3    3    0    0 -0.11051394842E+03  0.27958964245E+02  0.49874416249E+02  0.17643696317E+03  0.12509000000E+03 0.  0.
         25    1    4    4    0    0  0.82540770112E+02 -0.44118557113E+02  0.63908995546E+02  0.16879364213E+03  0.12509000000E+03 0.  0.
         25    1    4    4    0    0  0.27973178312E+02  0.16159592868E+02  0.28396803388E+02  0.13227818297E+03  0.12509000000E+03 0.  0.
<mgrwt>
<rscale>  2 0.45585023E+03</rscale>
<asrwt>0</asrwt>
<pdfrwt beam="1">  1       21 0.45565368E-01 0.45585023E+03</pdfrwt>
<pdfrwt beam="2">  1       21 0.24656513E-01 0.45585023E+03</pdfrwt>
<totfact> 0.66432477E+04</totfact>
</mgrwt>
</event>
<event>
 7    0  0.4725730E-002  0.4550739E+03  0.7546771E-02  0.1026220E+00
         21   -1    0    0  502  501  0.00000000000E+00  0.00000000000E+00  0.15311891095E+03  0.15311891095E+03  0.00000000000E+00 0. -1.
         21   -1    0    0  501  502 -0.00000000000E+00 -0.00000000000E+00 -0.33812323186E+03  0.33812323186E+03  0.00000000000E+00 0. -1.
      99926    2    1    2    0    0  0.00000000000E+00  0.00000000000E+00 -0.18500432091E+03  0.49124214281E+03  0.45507388864E+03 0.  0.
      99925    2    3    3    0    0 -0.31192724148E+02  0.52487163567E+02 -0.13481471508E+02  0.27034514341E+03  0.26301493895E+03 0.  0.
         25    1    4    4    0    0 -0.26131033358E+02  0.43447244896E+01 -0.39270206641E+02  0.13375860632E+03  0.12509000000E+03 0.  0.
         25    1    4    4    0    0 -0.50616907903E+01  0.48142439078E+02  0.25788735133E+02  0.13658653709E+03  0.12509000000E+03 0.  0.
         25    1    3    3    0    0  0.31192724148E+02 -0.52487163567E+02 -0.17152284940E+03  0.22089699940E+03  0.12509000000E+03 0.  0.
<mgrwt>
<rscale>  2 0.45507389E+03</rscale>
<asrwt>0</asrwt>
<pdfrwt beam="1">  1       21 0.22517487E-01 0.45507389E+03</pdfrwt>
<pdfrwt beam="2">  1       21 0.49724004E-01 0.45507389E+03</pdfrwt>
<totfact> 0.65851774E+04</totfact>
</mgrwt>
</event>
<event>
 7    0  0.4725730E-002  0.4577354E+03  0.7546771E-02  0.1025440E+00
         21   -1    0    0  502  501  0.00000000000E+00  0.00000000000E+00  0.20272660107E+03  0.20272660107E+03  0.00000000000E+00 0. -1.
         21   -1    0    0  501  502 -0.00000000000E+00 -0.00000000000E+00 -0.25837967301E+03  0.25837967301E+03  0.00000000000E+00 0. -1.
      99926    2    1    2    0    0 -0.14210854715E-13  0.35527136788E-14 -0.55653071938E+02  0.46110627408E+03  0.45773543841E+03 0.  0.
      99925    2    3    3    0    0  0.10217339217E+03 -0.24275339335E+02  0.14243940718E+02  0.28344987919E+03  0.26289208812E+03 0.  0.
         25    1    3    3    0    0 -0.10217339217E+03  0.24275339335E+02 -0.69897012656E+02  0.17765639489E+03  0.12509000000E+03 0.  0.
         25    1    4    4    0    0  0.30377757692E+02  0.12981107810E+02  0.32427508769E+02  0.13338054111E+03  0.12509000000E+03 0.  0.
         25    1    4    4    0    0  0.71795634478E+02 -0.37256447145E+02 -0.18183568051E+02  0.15006933808E+03  0.12509000000E+03 0.  0.
<mgrwt>
<rscale>  2 0.45773544E+03</rscale>
<asrwt>0</asrwt>
<pdfrwt beam="1">  1       21 0.29812736E-01 0.45773544E+03</pdfrwt>
<pdfrwt beam="2">  1       21 0.37997011E-01 0.45773544E+03</pdfrwt>
<totfact> 0.66634442E+04</totfact>
</mgrwt>
</event>
<event>
 7    0  0.4725730E-002  0.4456797E+03  0.7546771E-02  0.1029018E+00
         21   -1    0    0  502  501  0.00000000000E+00  0.00000000000E+00  0.48569796420E+02  0.48569796420E+02  0.00000000000E+00 0.  1.
         21   -1    0    0  501  502 -0.00000000000E+00 -0.00000000000E+00 -0.10223965580E+04  0.10223965580E+04  0.00000000000E+00 0.  1.
      99926    2    1    2    0    0  0.14210854715E-13  0.00000000000E+00 -0.97382676153E+03  0.10709663544E+04  0.44567967277E+03 0.  0.
      99925    2    3    3    0    0 -0.10326428462E+03  0.62156080990E+01 -0.59950417892E+03  0.66296261638E+03  0.26346161753E+03 0.  0.
         25    1    4    4    0    0 -0.52824062962E+02 -0.28353035641E+02 -0.36181242938E+03  0.38749195916E+03  0.12509000000E+03 0.  0.
         25    1    3    3    0    0  0.10326428462E+03 -0.62156080990E+01 -0.37432258261E+03  0.40800373799E+03  0.12509000000E+03 0.  0.
         25    1    4    4    0    0 -0.50440221660E+02  0.34568643740E+02 -0.23769174954E+03  0.27547065722E+03  0.12509000000E+03 0.  0.
<mgrwt>
<rscale>  2 0.44567967E+03</rscale>
<asrwt>0</asrwt>
<pdfrwt beam="1">  1       21 0.71426168E-02 0.44567967E+03</pdfrwt>
<pdfrwt beam="2">  1       21 0.15035244E+00 0.44567967E+03</pdfrwt>
<totfact> 0.39298718E+04</totfact>
</mgrwt>
</event>
<event>
 7    0  0.4725730E-002  0.4574834E+03  0.7546771E-02  0.1025514E+00
         21   -1    0    0  502  501  0.00000000000E+00  0.00000000000E+00  0.15881928083E+04  0.15881928083E+04  0.00000000000E+00 0.  1.
         21   -1    0    0  501  502 -0.00000000000E+00 -0.00000000000E+00 -0.32944851485E+02  0.32944851485E+02  0.00000000000E+00 0.  1.
      99926    2    1    2    0    0  0.00000000000E+00  0.00000000000E+00  0.15552479568E+04  0.16211376597E+04  0.45748344756E+03 0.  0.
      99925    2    3    3    0    0  0.24173699978E+02 -0.46396041070E+01  0.57700136808E+03  0.63461863302E+03  0.26306717187E+03 0.  0.
         25    1    3    3    0    0 -0.24173699978E+02  0.46396041070E+01  0.97824658868E+03  0.98651902671E+03  0.12509000000E+03 0.  0.
         25    1    4    4    0    0  0.52507209200E+02  0.11028181999E+01  0.30752855564E+03  0.33612429823E+03  0.12509000000E+03 0.  0.
         25    1    4    4    0    0 -0.28333509221E+02 -0.57424223069E+01  0.26947281245E+03  0.29849433480E+03  0.12509000000E+03 0.  0.
<mgrwt>
<rscale>  2 0.45748345E+03</rscale>
<asrwt>0</asrwt>
<pdfrwt beam="1">  1       21 0.23355771E+00 0.45748345E+03</pdfrwt>
<pdfrwt beam="2">  1       21 0.48448322E-02 0.45748345E+03</pdfrwt>
<totfact> 0.20557046E+04</totfact>
</mgrwt>
</event>
<event>
 7    0  0.4725730E-002  0.4613889E+03  0.7546771E-02  0.1024379E+00
         21   -1    0    0  502  501  0.00000000000E+00  0.00000000000E+00  0.17822938004E+03  0.17822938004E+03  0.00000000000E+00 0.  1.
         21   -1    0    0  501  502 -0.00000000000E+00 -0.00000000000E+00 -0.29860361223E+03  0.29860361223E+03  0.00000000000E+00 0.  1.
      99926    2    1    2    0    0  0.35527136788E-14  0.14210854715E-13 -0.12037423219E+03  0.47683299227E+03  0.46138893218E+03 0.  0.
      99925    2    3    3    0    0  0.26172081522E+02  0.11608705336E+03 -0.73377497351E+02  0.29789897371E+03  0.26305581083E+03 0.  0.
         25    1    4    4    0    0  0.22245794311E+02  0.43692700197E+02 -0.73854663640E+02  0.15331649245E+03  0.12509000000E+03 0.  0.
         25    1    4    4    0    0  0.39262872111E+01  0.72394353164E+02  0.47716628904E+00  0.14458248127E+03  0.12509000000E+03 0.  0.
         25    1    3    3    0    0 -0.26172081522E+02 -0.11608705336E+03 -0.46996734842E+02  0.17893401855E+03  0.12509000000E+03 0.  0.
<mgrwt>
<rscale>  2 0.46138893E+03</rscale>
<asrwt>0</asrwt>
<pdfrwt beam="1">  1       21 0.26210203E-01 0.46138893E+03</pdfrwt>
<pdfrwt beam="2">  1       21 0.43912295E-01 0.46138893E+03</pdfrwt>
<totfact> 0.63643257E+04</totfact>
</mgrwt>
</event>
<event>
 7    0  0.4725730E-002  0.4598999E+03  0.7546771E-02  0.1024810E+00
         21   -1    0    0  502  501  0.00000000000E+00  0.00000000000E+00  0.61717282705E+02  0.61717282705E+02  0.00000000000E+00 0.  1.
         21   -1    0    0  501  502 -0.00000000000E+00 -0.00000000000E+00 -0.85676131811E+03  0.85676131811E+03  0.00000000000E+00 0.  1.
      99926    2    1    2    0    0  0.00000000000E+00  0.00000000000E+00 -0.79504403541E+03  0.91847860082E+03  0.45989990424E+03 0.  0.
      99925    2    3    3    0    0  0.91821197618E+02  0.23352423655E+02 -0.63773185873E+03  0.69628252287E+03  0.26292767066E+03 0.  0.
         25    1    4    4    0    0  0.23521497043E+02  0.45307468299E+01 -0.38506354580E+03  0.40558011649E+03  0.12509000000E+03 0.  0.
         25    1    4    4    0    0  0.68299700575E+02  0.18821676825E+02 -0.25266831293E+03  0.29070240638E+03  0.12509000000E+03 0.  0.
         25    1    3    3    0    0 -0.91821197618E+02 -0.23352423655E+02 -0.15731217668E+03  0.22219607795E+03  0.12509000000E+03 0.  0.
<mgrwt>
<rscale>  2 0.45989990E+03</rscale>
<asrwt>0</asrwt>
<pdfrwt beam="1">  1       21 0.90760716E-02 0.45989990E+03</pdfrwt>
<pdfrwt beam="2">  1       21 0.12599430E+00 0.45989990E+03</pdfrwt>
<totfact> 0.40854871E+04</totfact>
</mgrwt>
</event>
<event>
 7    0  0.4725730E-002  0.4440643E+03  0.7546771E-02  0.1029507E+00
         21   -1    0    0  502  501  0.00000000000E+00  0.00000000000E+00  0.71670603562E+02  0.71670603562E+02  0.00000000000E+00 0. -1.
         21   -1    0    0  501  502 -0.00000000000E+00 -0.00000000000E+00 -0.68784510995E+03  0.68784510995E+03  0.00000000000E+00 0. -1.
      99926    2    1    2    0    0  0.00000000000E+00 -0.14210854715E-13 -0.61617450639E+03  0.75951571352E+03  0.44406429349E+03 0.  0.
      99925    2    3    3    0    0  0.31374227887E+02  0.85447811872E+02 -0.31117321883E+03  0.41752307581E+03  0.26307998021E+03 0.  0.
         25    1    3    3    0    0 -0.31374227887E+02 -0.85447811872E+02 -0.30500128756E+03  0.34199263771E+03  0.12509000000E+03 0.  0.
         25    1    4    4    0    0  0.21936521972E+02  0.63941228150E+02 -0.21599944268E+03  0.25859806455E+03  0.12509000000E+03 0.  0.
         25    1    4    4    0    0  0.94377059148E+01  0.21506583722E+02 -0.95173776152E+02  0.15892501126E+03  0.12509000000E+03 0.  0.
<mgrwt>
<rscale>  2 0.44406429E+03</rscale>
<asrwt>0</asrwt>
<pdfrwt beam="1">  1       21 0.10539795E-01 0.44406429E+03</pdfrwt>
<pdfrwt beam="2">  1       21 0.10115369E+00 0.44406429E+03</pdfrwt>
<totfact> 0.54299104E+04</totfact>
</mgrwt>
</event>
<event>
 7    0  0.4725730E-002  0.4645129E+03  0.7546771E-02  0.1023480E+00
         21   -1    0    0  502  501  0.00000000000E+00  0.00000000000E+00  0.52842948325E+03  0.52842948325E+03  0.00000000000E+00 0.  1.
         21   -1    0    0  501  502 -0.00000000000E+00 -0.00000000000E+00 -0.10208182934E+03  0.10208182934E+03  0.00000000000E+00 0.  1.
      99926    2    1    2    0    0 -0.35527136788E-14  0.35527136788E-14  0.42634765390E+03  0.63051131259E+03  0.46451285591E+03 0.  0.
      99925    2    3    3    0    0 -0.20771576414E+02 -0.28632366415E+02  0.42435427235E+03  0.50050072662E+03  0.26300790500E+03 0.  0.
         25    1    3    3    0    0  0.20771576414E+02  0.28632366415E+02  0.19933815520E+01  0.13001058597E+03  0.12509000000E+03 0.  0.
         25    1    4    4    0    0  0.27797713201E+02 -0.21092488488E+02  0.23143215207E+03  0.26537888959E+03  0.12509000000E+03 0.  0.
         25    1    4    4    0    0 -0.48569289615E+02 -0.75398779272E+01  0.19292212028E+03  0.23512183703E+03  0.12509000000E+03 0.  0.
<mgrwt>
<rscale>  2 0.46451286E+03</rscale>
<asrwt>0</asrwt>
<pdfrwt beam="1">  1       21 0.77710217E-01 0.46451286E+03</pdfrwt>
<pdfrwt beam="2">  1       21 0.15012034E-01 0.46451286E+03</pdfrwt>
<totfact> 0.52762941E+04</totfact>
</mgrwt>
</event>
<event>
 7    0  0.4725730E-002  0.4510426E+03  0.7546771E-02  0.1027412E+00
         21   -1    0    0  502  501  0.00000000000E+00  0.00000000000E+00  0.30274430145E+03  0.30274430145E+03  0.00000000000E+00 0. -1.
         21   -1    0    0  501  502 -0.00000000000E+00 -0.00000000000E+00 -0.16799610245E+03  0.16799610245E+03  0.00000000000E+00 0. -1.
      99926    2    1    2    0    0  0.00000000000E+00 -0.14210854715E-13  0.13474819900E+03  0.47074040390E+03  0.45104262629E+03 0.  0.
      99925    2    3    3    0    0 -0.39960868045E+02 -0.72779513019E+02  0.10592534610E+02  0.27591775227E+03  0.26291571984E+03 0.  0.
         25    1    4    4    0    0 -0.37654294265E+02 -0.37573297732E+00  0.13551475452E+02  0.13133597237E+03  0.12509000000E+03 0.  0.
         25    1    4    4    0    0 -0.23065737794E+01 -0.72403780042E+02 -0.29589408417E+01  0.14458177990E+03  0.12509000000E+03 0.  0.
         25    1    3    3    0    0  0.39960868045E+02  0.72779513019E+02  0.12415566439E+03  0.19482265163E+03  0.12509000000E+03 0.  0.
<mgrwt>
<rscale>  2 0.45104263E+03</rscale>
<asrwt>0</asrwt>
<pdfrwt beam="1">  1       21 0.44521221E-01 0.45104263E+03</pdfrwt>
<pdfrwt beam="2">  1       21 0.24705309E-01 0.45104263E+03</pdfrwt>
<totfact> 0.69538713E+04</totfact>
</mgrwt>
</event>
<event>
 7    0  0.4725730E-002  0.4505985E+03  0.7546771E-02  0.1027544E+00
         21   -1    0    0  502  501  0.00000000000E+00  0.00000000000E+00  0.64050202072E+03  0.64050202072E+03  0.00000000000E+00 0.  1.
         21   -1    0    0  501  502 -0.00000000000E+00 -0.00000000000E+00 -0.79249930915E+02  0.79249930915E+02  0.00000000000E+00 0.  1.
      99926    2    1    2    0    0  0.00000000000E+00  0.00000000000E+00  0.56125208981E+03  0.71975195164E+03  0.45059845048E+03 0.  0.
      99925    2    3    3    0    0  0.10310208945E+03 -0.31654648180E+02  0.37909873097E+03  0.47386699513E+03  0.26306277512E+03 0.  0.
         25    1    3    3    0    0 -0.10310208945E+03  0.31654648180E+02  0.18215335884E+03  0.24588495651E+03  0.12509000000E+03 0.  0.
         25    1    4    4    0    0  0.42621019307E+02 -0.23283928576E+02  0.12128447285E+03  0.18087599087E+03  0.12509000000E+03 0.  0.
         25    1    4    4    0    0  0.60481070142E+02 -0.83707196041E+01  0.25781425811E+03  0.29299100426E+03  0.12509000000E+03 0.  0.
<mgrwt>
<rscale>  2 0.45059845E+03</rscale>
<asrwt>0</asrwt>
<pdfrwt beam="1">  1       21 0.94191471E-01 0.45059845E+03</pdfrwt>
<pdfrwt beam="2">  1       21 0.11654402E-01 0.45059845E+03</pdfrwt>
<totfact> 0.53678053E+04</totfact>
</mgrwt>
</event>
<event>
 7    0  0.4725730E-002  0.4526574E+03  0.7546771E-02  0.1026933E+00
         21   -1    0    0  502  501  0.00000000000E+00  0.00000000000E+00  0.86667659965E+02  0.86667659965E+02  0.00000000000E+00 0.  1.
         21   -1    0    0  501  502 -0.00000000000E+00 -0.00000000000E+00 -0.59104716567E+03  0.59104716567E+03  0.00000000000E+00 0.  1.
      99926    2    1    2    0    0  0.00000000000E+00  0.71054273576E-14 -0.50437950571E+03  0.67771482564E+03  0.45265737497E+03 0.  0.
      99925    2    3    3    0    0 -0.58449143031E+02  0.59020546891E+02 -0.42809670682E+03  0.50929184389E+03  0.26308109887E+03 0.  0.
         25    1    4    4    0    0 -0.33902581919E+02  0.64877980274E+02 -0.18791172092E+03  0.23731173663E+03  0.12509000000E+03 0.  0.
         25    1    4    4    0    0 -0.24546561112E+02 -0.58574333827E+01 -0.24018498590E+03  0.27198010725E+03  0.12509000000E+03 0.  0.
         25    1    3    3    0    0  0.58449143031E+02 -0.59020546891E+02 -0.76282798886E+02  0.16842298175E+03  0.12509000000E+03 0.  0.
<mgrwt>
<rscale>  2 0.45265737E+03</rscale>
<asrwt>0</asrwt>
<pdfrwt beam="1">  1       21 0.12745244E-01 0.45265737E+03</pdfrwt>
<pdfrwt beam="2">  1       21 0.86918701E-01 0.45265737E+03</pdfrwt>
<totfact> 0.55140388E+04</totfact>
</mgrwt>
</event>
<event>
 7    0  0.4725730E-002  0.4442479E+03  0.7546771E-02  0.1029451E+00
         21   -1    0    0  502  501  0.00000000000E+00  0.00000000000E+00  0.10906514475E+03  0.10906514475E+03  0.00000000000E+00 0.  1.
         21   -1    0    0  501  502 -0.00000000000E+00 -0.00000000000E+00 -0.45238153463E+03  0.45238153463E+03  0.00000000000E+00 0.  1.
      99926    2    1    2    0    0  0.00000000000E+00  0.00000000000E+00 -0.34331638989E+03  0.56144667938E+03  0.44424793778E+03 0.  0.
      99925    2    3    3    0    0 -0.88999079377E+02 -0.49047392563E+02 -0.23697939051E+03  0.36836237555E+03  0.26306867041E+03 0.  0.
         25    1    4    4    0    0 -0.53608628010E+02 -0.65178457574E+02 -0.12147761111E+03  0.19371740869E+03  0.12509000000E+03 0.  0.
         25    1    3    3    0    0  0.88999079377E+02  0.49047392563E+02 -0.10633699938E+03  0.19308430383E+03  0.12509000000E+03 0.  0.
         25    1    4    4    0    0 -0.35390451366E+02  0.16131065012E+02 -0.11550177939E+03  0.17464496686E+03  0.12509000000E+03 0.  0.
<mgrwt>
<rscale>  2 0.44424794E+03</rscale>
<asrwt>0</asrwt>
<pdfrwt beam="1">  1       21 0.16038992E-01 0.44424794E+03</pdfrwt>
<pdfrwt beam="2">  1       21 0.66526696E-01 0.44424794E+03</pdfrwt>
<totfact> 0.66602264E+04</totfact>
</mgrwt>
</event>
<event>
 7    0  0.4725730E-002  0.4507364E+03  0.7546771E-02  0.1027503E+00
         21   -1    0    0  502  501  0.00000000000E+00  0.00000000000E+00  0.35213431808E+02  0.35213431808E+02  0.00000000000E+00 0.  1.
         21   -1    0    0  501  502 -0.00000000000E+00 -0.00000000000E+00 -0.14423709216E+04  0.14423709216E+04  0.00000000000E+00 0.  1.
      99926    2    1    2    0    0  0.00000000000E+00  0.00000000000E+00 -0.14071574898E+04  0.14775843534E+04  0.45073642005E+03 0.  0.
      99925    2    3    3    0    0 -0.40831742781E+02 -0.55356463784E+02 -0.61159220237E+03  0.66931261448E+03  0.26306422144E+03 0.  0.
         25    1    3    3    0    0  0.40831742781E+02  0.55356463784E+02 -0.79556528744E+03  0.80827173895E+03  0.12509000000E+03 0.  0.
         25    1    4    4    0    0  0.40916818065E+01 -0.56841671927E+02 -0.27544405020E+03  0.30783867596E+03  0.12509000000E+03 0.  0.
         25    1    4    4    0    0 -0.44923424588E+02  0.14852081435E+01 -0.33614815217E+03  0.36147393852E+03  0.12509000000E+03 0.  0.
<mgrwt>
<rscale>  2 0.45073642E+03</rscale>
<asrwt>0</asrwt>
<pdfrwt beam="1">  1       21 0.51784465E-02 0.45073642E+03</pdfrwt>
<pdfrwt beam="2">  1       21 0.21211334E+00 0.45073642E+03</pdfrwt>
<totfact> 0.25156800E+04</totfact>
</mgrwt>
</event>
<event>
 7    0  0.4725730E-002  0.4747784E+03  0.7546771E-02  0.1020580E+00
         21   -1    0    0  502  501  0.00000000000E+00  0.00000000000E+00  0.45121876385E+03  0.45121876385E+03  0.00000000000E+00 0. -1.
         21   -1    0    0  501  502 -0.00000000000E+00 -0.00000000000E+00 -0.12489206515E+03  0.12489206515E+03  0.00000000000E+00 0. -1.
      99926    2    1    2    0    0  0.00000000000E+00  0.17763568394E-14  0.32632669870E+03  0.57611082901E+03  0.47477844624E+03 0.  0.
      99925    2    3    3    0    0  0.11341063789E+03  0.88381052964E+01  0.12335813605E+03  0.31194453589E+03  0.26296782855E+03 0.  0.
         25    1    3    3    0    0 -0.11341063789E+03 -0.88381052964E+01  0.20296856265E+03  0.26416629312E+03  0.12509000000E+03 0.  0.
         25    1    4    4    0    0  0.54071535953E+02 -0.10265673774E+02  0.20005647754E+02  0.13811896720E+03  0.12509000000E+03 0.  0.
         25    1    4    4    0    0  0.59339101942E+02  0.19103779070E+02  0.10335248830E+03  0.17382556869E+03  0.12509000000E+03 0.  0.
<mgrwt>
<rscale>  2 0.47477845E+03</rscale>
<asrwt>0</asrwt>
<pdfrwt beam="1">  1       21 0.66355700E-01 0.47477845E+03</pdfrwt>
<pdfrwt beam="2">  1       21 0.18366480E-01 0.47477845E+03</pdfrwt>
<totfact> 0.51615042E+04</totfact>
</mgrwt>
</event>
<event>
 7    0  0.4725730E-002  0.4486667E+03  0.7546771E-02  0.1028120E+00
         21   -1    0    0  502  501  0.00000000000E+00  0.00000000000E+00  0.21536268594E+03  0.21536268594E+03  0.00000000000E+00 0.  1.
         21   -1    0    0  501  502 -0.00000000000E+00 -0.00000000000E+00 -0.23367769096E+03  0.23367769096E+03  0.00000000000E+00 0.  1.
      99926    2    1    2    0    0  0.00000000000E+00  0.00000000000E+00 -0.18315005015E+02  0.44904037690E+03  0.44866671447E+03 0.  0.
      99925    2    3    3    0    0  0.79345513461E+01 -0.74895715551E+02  0.64655046739E+02  0.28110031943E+03  0.26299199456E+03 0.  0.
         25    1    3    3    0    0 -0.79345513461E+01  0.74895715551E+02 -0.82970051754E+02  0.16794005746E+03  0.12509000000E+03 0.  0.
         25    1    4    4    0    0  0.28358686048E+02 -0.56197663336E+02  0.61495657606E+02  0.15294318044E+03  0.12509000000E+03 0.  0.
         25    1    4    4    0    0 -0.20424134702E+02 -0.18698052215E+02  0.31593891327E+01  0.12815713899E+03  0.12509000000E+03 0.  0.
<mgrwt>
<rscale>  2 0.44866671E+03</rscale>
<asrwt>0</asrwt>
<pdfrwt beam="1">  1       21 0.31670983E-01 0.44866671E+03</pdfrwt>
<pdfrwt beam="2">  1       21 0.34364366E-01 0.44866671E+03</pdfrwt>
<totfact> 0.72583716E+04</totfact>
</mgrwt>
</event>
<event>
 7    0  0.4725730E-002  0.4584415E+03  0.7546771E-02  0.1025234E+00
         21   -1    0    0  502  501  0.00000000000E+00  0.00000000000E+00  0.48059554994E+02  0.48059554994E+02  0.00000000000E+00 0. -1.
         21   -1    0    0  501  502 -0.00000000000E+00 -0.00000000000E+00 -0.10932716358E+04  0.10932716358E+04  0.00000000000E+00 0. -1.
      99926    2    1    2    0    0  0.00000000000E+00  0.00000000000E+00 -0.10452120808E+04  0.11413311908E+04  0.45844148288E+03 0.  0.
      99925    2    3    3    0    0 -0.11208332945E+03 -0.14062148778E+02 -0.58530005891E+03  0.65150776062E+03  0.26291783205E+03 0.  0.
         25    1    4    4    0    0 -0.21667284992E+02 -0.15535598230E+02 -0.31937073619E+03  0.34402907041E+03  0.12509000000E+03 0.  0.
         25    1    4    4    0    0 -0.90416044460E+02  0.14734494515E+01 -0.26592932272E+03  0.30747869021E+03  0.12509000000E+03 0.  0.
         25    1    3    3    0    0  0.11208332945E+03  0.14062148778E+02 -0.45991202191E+03  0.48982343020E+03  0.12509000000E+03 0.  0.
<mgrwt>
<rscale>  2 0.45844148E+03</rscale>
<asrwt>0</asrwt>
<pdfrwt beam="1">  1       21 0.70675819E-02 0.45844148E+03</pdfrwt>
<pdfrwt beam="2">  1       21 0.16077523E+00 0.45844148E+03</pdfrwt>
<totfact> 0.33174276E+04</totfact>
</mgrwt>
</event>
<event>
 7    0  0.4725730E-002  0.4540093E+03  0.7546771E-02  0.1026533E+00
         21   -1    0    0  502  501  0.00000000000E+00  0.00000000000E+00  0.23956588934E+03  0.23956588934E+03  0.00000000000E+00 0.  1.
         21   -1    0    0  501  502 -0.00000000000E+00 -0.00000000000E+00 -0.21510206346E+03  0.21510206346E+03  0.00000000000E+00 0.  1.
      99926    2    1    2    0    0  0.00000000000E+00  0.35527136788E-14  0.24463825882E+02  0.45466795281E+03  0.45400932648E+03 0.  0.
      99925    2    3    3    0    0 -0.10649901180E+03 -0.24674874167E+02  0.40736277597E+02  0.28774524700E+03  0.26303420676E+03 0.  0.
         25    1    4    4    0    0 -0.59740184765E+02 -0.52571502201E+02  0.26088007637E+02  0.15053486228E+03  0.12509000000E+03 0.  0.
         25    1    4    4    0    0 -0.46758827034E+02  0.27896628034E+02  0.14648269960E+02  0.13721038472E+03  0.12509000000E+03 0.  0.
         25    1    3    3    0    0  0.10649901180E+03  0.24674874167E+02 -0.16272451715E+02  0.16692270581E+03  0.12509000000E+03 0.  0.
<mgrwt>
<rscale>  2 0.45400933E+03</rscale>
<asrwt>0</asrwt>
<pdfrwt beam="1">  1       21 0.35230278E-01 0.45400933E+03</pdfrwt>
<pdfrwt beam="2">  1       21 0.31632656E-01 0.45400933E+03</pdfrwt>
<totfact> 0.69114855E+04</totfact>
</mgrwt>
</event>
<event>
 7    0  0.4725730E-002  0.4301792E+03  0.7546771E-02  0.1033803E+00
         21   -1    0    0  502  501  0.00000000000E+00  0.00000000000E+00  0.18475653821E+03  0.18475653821E+03  0.00000000000E+00 0. -1.
         21   -1    0    0  501  502 -0.00000000000E+00 -0.00000000000E+00 -0.25040268614E+03  0.25040268614E+03  0.00000000000E+00 0. -1.
      99926    2    1    2    0    0 -0.71054273576E-14  0.00000000000E+00 -0.65646147933E+02  0.43515922435E+03  0.43017918801E+03 0.  0.
      99925    2    3    3    0    0  0.48347187022E+02 -0.72794759689E+02 -0.32438856238E+02  0.27899661726E+03  0.26296445676E+03 0.  0.
         25    1    3    3    0    0 -0.48347187022E+02  0.72794759689E+02 -0.33207291695E+02  0.15616260709E+03  0.12509000000E+03 0.  0.
         25    1    4    4    0    0  0.17453547088E+02 -0.70513061889E+02 -0.39457230256E+02  0.14993698450E+03  0.12509000000E+03 0.  0.
         25    1    4    4    0    0  0.30893639934E+02 -0.22816977994E+01  0.70183740179E+01  0.12905963276E+03  0.12509000000E+03 0.  0.
<mgrwt>
<rscale>  2 0.43017919E+03</rscale>
<asrwt>0</asrwt>
<pdfrwt beam="1">  1       21 0.27170079E-01 0.43017919E+03</pdfrwt>
<pdfrwt beam="2">  1       21 0.36823924E-01 0.43017919E+03</pdfrwt>
<totfact> 0.85795414E+04</totfact>
</mgrwt>
</event>
<event>
 7    0  0.4725730E-002  0.4477671E+03  0.7546771E-02  0.1028390E+00
         21   -1    0    0  502  501  0.00000000000E+00  0.00000000000E+00  0.16778978668E+03  0.16778978668E+03  0.00000000000E+00 0.  1.
         21   -1    0    0  501  502 -0.00000000000E+00 -0.00000000000E+00 -0.29873003088E+03  0.29873003088E+03  0.00000000000E+00 0.  1.
      99926    2    1    2    0    0 -0.14210854715E-13  0.00000000000E+00 -0.13094024421E+03  0.46651981756E+03  0.44776711874E+03 0.  0.
      99925    2    3    3    0    0  0.77458783025E+02 -0.71668053667E+02 -0.69697219076E+02  0.29177889731E+03  0.26294685696E+03 0.  0.
         25    1    4    4    0    0 -0.23520215884E+01 -0.41289910550E+02 -0.28136206000E+02  0.13472023941E+03  0.12509000000E+03 0.  0.
         25    1    3    3    0    0 -0.77458783025E+02  0.71668053667E+02 -0.61243025129E+02  0.17474092025E+03  0.12509000000E+03 0.  0.
         25    1    4    4    0    0  0.79810804613E+02 -0.30378143117E+02 -0.41561013076E+02  0.15705865790E+03  0.12509000000E+03 0.  0.
<mgrwt>
<rscale>  2 0.44776712E+03</rscale>
<asrwt>0</asrwt>
<pdfrwt beam="1">  1       21 0.24674969E-01 0.44776712E+03</pdfrwt>
<pdfrwt beam="2">  1       21 0.43930886E-01 0.44776712E+03</pdfrwt>
<totfact> 0.71723661E+04</totfact>
</mgrwt>
</event>
<event>
 7    0  0.4725730E-002  0.4717697E+03  0.7546771E-02  0.1021422E+00
         21   -1    0    0  502  501  0.00000000000E+00  0.00000000000E+00  0.64381494420E+02  0.64381494420E+02  0.00000000000E+00 0.  1.
         21   -1    0    0  501  502 -0.00000000000E+00 -0.00000000000E+00 -0.86424948517E+03  0.86424948517E+03  0.00000000000E+00 0.  1.
      99926    2    1    2    0    0 -0.17763568394E-14  0.00000000000E+00 -0.79986799075E+03  0.92863097959E+03  0.47176974641E+03 0.  0.
      99925    2    3    3    0    0  0.15243833058E+02 -0.12163991156E+03 -0.42169367415E+03  0.51186730031E+03  0.26297135923E+03 0.  0.
         25    1    4    4    0    0 -0.18230480767E+02 -0.25808771090E+02 -0.19107373880E+03  0.23055395216E+03  0.12509000000E+03 0.  0.
         25    1    4    4    0    0  0.33474313824E+02 -0.95831140475E+02 -0.23061993535E+03  0.28131334816E+03  0.12509000000E+03 0.  0.
         25    1    3    3    0    0 -0.15243833058E+02  0.12163991156E+03 -0.37817431660E+03  0.41676367928E+03  0.12509000000E+03 0.  0.
<mgrwt>
<rscale>  2 0.47176975E+03</rscale>
<asrwt>0</asrwt>
<pdfrwt beam="1">  1       21 0.94678680E-02 0.47176975E+03</pdfrwt>
<pdfrwt beam="2">  1       21 0.12709550E+00 0.47176975E+03</pdfrwt>
<totfact> 0.36928317E+04</totfact>
</mgrwt>
</event>
<event>
 7    0  0.4725730E-002  0.4516502E+03  0.7546771E-02  0.1027231E+00
         21   -1    0    0  502  501  0.00000000000E+00  0.00000000000E+00  0.28957140382E+03  0.28957140382E+03  0.00000000000E+00 0. -1.
         21   -1    0    0  501  502 -0.00000000000E+00 -0.00000000000E+00 -0.17611190840E+03  0.17611190840E+03  0.00000000000E+00 0. -1.
      99926    2    1    2    0    0  0.14210854715E-13 -0.14210854715E-13  0.11345949542E+03  0.46568331222E+03  0.45165018563E+03 0.  0.
      99925    2    3    3    0    0  0.87498421240E+02 -0.64012099147E+02  0.52903497934E+02  0.28942197361E+03  0.26308321147E+03 0.  0.
         25    1    4    4    0    0  0.81278380948E+02 -0.22963010953E+02  0.11950211699E+02  0.15140604592E+03  0.12509000000E+03 0.  0.
         25    1    4    4    0    0  0.62200402914E+01 -0.41049088194E+02  0.40953286235E+02  0.13801592769E+03  0.12509000000E+03 0.  0.
         25    1    3    3    0    0 -0.87498421240E+02  0.64012099147E+02  0.60555997481E+02  0.17626133861E+03  0.12509000000E+03 0.  0.
<mgrwt>
<rscale>  2 0.45165019E+03</rscale>
<asrwt>0</asrwt>
<pdfrwt beam="1">  1       21 0.42584030E-01 0.45165019E+03</pdfrwt>
<pdfrwt beam="2">  1       21 0.25898810E-01 0.45165019E+03</pdfrwt>
<totfact> 0.69589037E+04</totfact>
</mgrwt>
</event>
<event>
 7    0  0.4725730E-002  0.4445221E+03  0.7546771E-02  0.1029368E+00
         21   -1    0    0  502  501  0.00000000000E+00  0.00000000000E+00  0.12809776393E+03  0.12809776393E+03  0.00000000000E+00 0. -1.
         21   -1    0    0  501  502 -0.00000000000E+00 -0.00000000000E+00 -0.38564275075E+03  0.38564275075E+03  0.00000000000E+00 0. -1.
      99926    2    1    2    0    0  0.00000000000E+00  0.71054273576E-14 -0.25754498682E+03  0.51374051469E+03  0.44452209866E+03 0.  0.
      99925    2    3    3    0    0 -0.43396137710E+02 -0.55326983835E+02 -0.25086419482E+03  0.37008662163E+03  0.26284399053E+03 0.  0.
         25    1    3    3    0    0  0.43396137710E+02  0.55326983835E+02 -0.66807920004E+01  0.14365389306E+03  0.12509000000E+03 0.  0.
         25    1    4    4    0    0 -0.14841736876E+02 -0.45948764838E+02 -0.79767055257E+02  0.15601877242E+03  0.12509000000E+03 0.  0.
         25    1    4    4    0    0 -0.28554400834E+02 -0.93782189966E+01 -0.17109713956E+03  0.21406784921E+03  0.12509000000E+03 0.  0.
<mgrwt>
<rscale>  2 0.44452210E+03</rscale>
<asrwt>0</asrwt>
<pdfrwt beam="1">  1       21 0.18837906E-01 0.44452210E+03</pdfrwt>
<pdfrwt beam="2">  1       21 0.56712169E-01 0.44452210E+03</pdfrwt>
<totfact> 0.69952425E+04</totfact>
</mgrwt>
</event>
<event>
 7    0  0.4725730E-002  0.4486133E+03  0.7546771E-02  0.1028136E+00
         21   -1    0    0  502  501  0.00000000000E+00  0.00000000000E+00  0.63621445902E+03  0.63621445902E+03  0.00000000000E+00 0. -1.
         21   -1    0    0  501  502 -0.00000000000E+00 -0.00000000000E+00 -0.79082562189E+02  0.79082562189E+02  0.00000000000E+00 0. -1.
      99926    2    1    2    0    0  0.00000000000E+00  0.00000000000E+00  0.55713189683E+03  0.71529702121E+03  0.44861328345E+03 0.  0.
      99925    2    3    3    0    0  0.53443055568E+02 -0.92712233875E+02  0.35852927838E+03  0.45733922107E+03  0.26299087659E+03 0.  0.
         25    1    4    4    0    0 -0.53071805790E-01 -0.39795449304E+02  0.12093725025E+03  0.17848531368E+03  0.12509000000E+03 0.  0.
         25    1    3    3    0    0 -0.53443055568E+02  0.92712233875E+02  0.19860261845E+03  0.25795780014E+03  0.12509000000E+03 0.  0.
         25    1    4    4    0    0  0.53496127373E+02 -0.52916784570E+02  0.23759202813E+03  0.27885390739E+03  0.12509000000E+03 0.  0.
<mgrwt>
<rscale>  2 0.44861328E+03</rscale>
<asrwt>0</asrwt>
<pdfrwt beam="1">  1       21 0.93560947E-01 0.44861328E+03</pdfrwt>
<pdfrwt beam="2">  1       21 0.11629789E-01 0.44861328E+03</pdfrwt>
<totfact> 0.54781124E+04</totfact>
</mgrwt>
</event>
<event>
 7    0  0.4725730E-002  0.4553924E+03  0.7546771E-02  0.1026126E+00
         21   -1    0    0  502  501  0.00000000000E+00  0.00000000000E+00  0.74024827338E+03  0.74024827338E+03  0.00000000000E+00 0. -1.
         21   -1    0    0  501  502 -0.00000000000E+00 -0.00000000000E+00 -0.70038072100E+02  0.70038072100E+02  0.00000000000E+00 0. -1.
      99926    2    1    2    0    0  0.00000000000E+00 -0.17763568394E-14  0.67021020128E+03  0.81028634548E+03  0.45539241076E+03 0.  0.
      99925    2    3    3    0    0  0.86081529870E+02 -0.12688317539E+02  0.29193179932E+03  0.40247133757E+03  0.26303607913E+03 0.  0.
         25    1    4    4    0    0  0.78892725787E+02  0.66394976058E+01  0.13163463905E+03  0.19809929684E+03  0.12509000000E+03 0.  0.
         25    1    4    4    0    0  0.71888040824E+01 -0.19327815145E+02  0.16029716026E+03  0.20437204073E+03  0.12509000000E+03 0.  0.
         25    1    3    3    0    0 -0.86081529870E+02  0.12688317539E+02  0.37827840196E+03  0.40781500791E+03  0.12509000000E+03 0.  0.
<mgrwt>
<rscale>  2 0.45539241E+03</rscale>
<asrwt>0</asrwt>
<pdfrwt beam="1">  1       21 0.10886004E+00 0.45539241E+03</pdfrwt>
<pdfrwt beam="2">  1       21 0.10299717E-01 0.45539241E+03</pdfrwt>
<totfact> 0.47126009E+04</totfact>
</mgrwt>
</event>
<event>
 7    0  0.4725730E-002  0.4575791E+03  0.7546771E-02  0.1025486E+00
         21   -1    0    0  502  501  0.00000000000E+00  0.00000000000E+00  0.10907945731E+03  0.10907945731E+03  0.00000000000E+00 0. -1.
         21   -1    0    0  501  502 -0.00000000000E+00 -0.00000000000E+00 -0.47987643400E+03  0.47987643400E+03  0.00000000000E+00 0. -1.
      99926    2    1    2    0    0  0.00000000000E+00  0.35527136788E-14 -0.37079697669E+03  0.58895589130E+03  0.45757911226E+03 0.  0.
      99925    2    3    3    0    0 -0.17832730643E+02  0.23871740904E+02 -0.89482997395E+02  0.27964548193E+03  0.26326131969E+03 0.  0.
         25    1    4    4    0    0 -0.45649072331E+02  0.10817882415E+02 -0.26246687309E+02  0.13615161064E+03  0.12509000000E+03 0.  0.
         25    1    4    4    0    0  0.27816341688E+02  0.13053858488E+02 -0.63236310086E+02  0.14349387130E+03  0.12509000000E+03 0.  0.
         25    1    3    3    0    0  0.17832730643E+02 -0.23871740904E+02 -0.28131397930E+03  0.30931040937E+03  0.12509000000E+03 0.  0.
<mgrwt>
<rscale>  2 0.45757911E+03</rscale>
<asrwt>0</asrwt>
<pdfrwt beam="1">  1       21 0.16041097E-01 0.45757911E+03</pdfrwt>
<pdfrwt beam="2">  1       21 0.70570064E-01 0.45757911E+03</pdfrwt>
<totfact> 0.58168406E+04</totfact>
</mgrwt>
</event>
<event>
 7    0  0.4725730E-002  0.4539046E+03  0.7546771E-02  0.1026564E+00
         21   -1    0    0  502  501  0.00000000000E+00  0.00000000000E+00  0.30760254206E+03  0.30760254206E+03  0.00000000000E+00 0.  1.
         21   -1    0    0  501  502 -0.00000000000E+00 -0.00000000000E+00 -0.16744774635E+03  0.16744774635E+03  0.00000000000E+00 0.  1.
      99926    2    1    2    0    0  0.88817841970E-15  0.00000000000E+00  0.14015479571E+03  0.47505028841E+03  0.45390462628E+03 0.  0.
      99925    2    3    3    0    0 -0.49485453754E+01  0.64067199740E+02  0.18441799708E+03  0.32761951388E+03  0.26305028805E+03 0.  0.
         25    1    4    4    0    0 -0.17987977224E+02  0.19526180421E+02  0.47416021480E+02  0.13638411286E+03  0.12509000000E+03 0.  0.
         25    1    4    4    0    0  0.13039431849E+02  0.44541019319E+02  0.13700197560E+03  0.19123540102E+03  0.12509000000E+03 0.  0.
         25    1    3    3    0    0  0.49485453754E+01 -0.64067199740E+02 -0.44263201375E+02  0.14743077453E+03  0.12509000000E+03 0.  0.
<mgrwt>
<rscale>  2 0.45390463E+03</rscale>
<asrwt>0</asrwt>
<pdfrwt beam="1">  1       21 0.45235668E-01 0.45390463E+03</pdfrwt>
<pdfrwt beam="2">  1       21 0.24624669E-01 0.45390463E+03</pdfrwt>
<totfact> 0.67648363E+04</totfact>
</mgrwt>
</event>
<event>
 7    0  0.4725730E-002  0.4561513E+03  0.7546771E-02  0.1025903E+00
         21   -1    0    0  502  501  0.00000000000E+00  0.00000000000E+00  0.99041566495E+02  0.99041566495E+02  0.00000000000E+00 0.  1.
         21   -1    0    0  501  502 -0.00000000000E+00 -0.00000000000E+00 -0.52521888072E+03  0.52521888072E+03  0.00000000000E+00 0.  1.
      99926    2    1    2    0    0  0.00000000000E+00  0.00000000000E+00 -0.42617731422E+03  0.62426044721E+03  0.45615129376E+03 0.  0.
      99925    2    3    3    0    0 -0.40949369498E+02  0.70590115406E+02 -0.37734362751E+03  0.46712339775E+03  0.26297574079E+03 0.  0.
         25    1    3    3    0    0  0.40949369498E+02 -0.70590115406E+02 -0.48833686708E+02  0.15713704946E+03  0.12509000000E+03 0.  0.
         25    1    4    4    0    0 -0.57412433789E+02  0.48678159195E+02 -0.22351632739E+03  0.26696967514E+03  0.12509000000E+03 0.  0.
         25    1    4    4    0    0  0.16463064291E+02  0.21911956211E+02 -0.15382730013E+03  0.20015372261E+03  0.12509000000E+03 0.  0.
<mgrwt>
<rscale>  2 0.45615129E+03</rscale>
<asrwt>0</asrwt>
<pdfrwt beam="1">  1       21 0.14564936E-01 0.45615129E+03</pdfrwt>
<pdfrwt beam="2">  1       21 0.77238071E-01 0.45615129E+03</pdfrwt>
<totfact> 0.56692184E+04</totfact>
</mgrwt>
</event>
<event>
 7    0  0.4725730E-002  0.4393285E+03  0.7546771E-02  0.1030953E+00
         21   -1    0    0  502  501  0.00000000000E+00  0.00000000000E+00  0.39273395124E+03  0.39273395124E+03  0.00000000000E+00 0. -1.
         21   -1    0    0  501  502 -0.00000000000E+00 -0.00000000000E+00 -0.12286275251E+03  0.12286275251E+03  0.00000000000E+00 0. -1.
      99926    2    1    2    0    0 -0.17763568394E-14 -0.88817841970E-15  0.26987119873E+03  0.51559670375E+03  0.43932846142E+03 0.  0.
      99925    2    3    3    0    0 -0.13515665087E+02 -0.12497918567E+01  0.58905993181E+02  0.26995863415E+03  0.26310361635E+03 0.  0.
         25    1    3    3    0    0  0.13515665087E+02  0.12497918567E+01  0.21096520555E+03  0.24563806960E+03  0.12509000000E+03 0.  0.
         25    1    4    4    0    0 -0.32857168038E+02  0.29958253867E+02  0.36461991674E+02  0.13767380071E+03  0.12509000000E+03 0.  0.
         25    1    4    4    0    0  0.19341502951E+02 -0.31208045723E+02  0.22444001508E+02  0.13228483344E+03  0.12509000000E+03 0.  0.
<mgrwt>
<rscale>  2 0.43932846E+03</rscale>
<asrwt>0</asrwt>
<pdfrwt beam="1">  1       21 0.57754993E-01 0.43932846E+03</pdfrwt>
<pdfrwt beam="2">  1       21 0.18068052E-01 0.43932846E+03</pdfrwt>
<totfact> 0.72824003E+04</totfact>
</mgrwt>
</event>
<event>
 7    0  0.4725730E-002  0.4545146E+03  0.7546771E-02  0.1026384E+00
         21   -1    0    0  502  501  0.00000000000E+00  0.00000000000E+00  0.71917998552E+03  0.71917998552E+03  0.00000000000E+00 0.  1.
         21   -1    0    0  501  502 -0.00000000000E+00 -0.00000000000E+00 -0.71812189349E+02  0.71812189349E+02  0.00000000000E+00 0.  1.
      99926    2    1    2    0    0 -0.71054273576E-14  0.14210854715E-13  0.64736779617E+03  0.79099217487E+03  0.45451463913E+03 0.  0.
      99925    2    3    3    0    0  0.44050509756E+02 -0.88529590637E+02  0.31343771967E+03  0.42094523201E+03  0.26300902724E+03 0.  0.
         25    1    4    4    0    0  0.39432093244E+02 -0.27208761183E+02  0.10501595311E+03  0.17020888687E+03  0.12509000000E+03 0.  0.
         25    1    4    4    0    0  0.46184165124E+01 -0.61320829454E+02  0.20842176656E+03  0.25073634514E+03  0.12509000000E+03 0.  0.
         25    1    3    3    0    0 -0.44050509756E+02  0.88529590637E+02  0.33393007650E+03  0.37004694286E+03  0.12509000000E+03 0.  0.
<mgrwt>
<rscale>  2 0.45451464E+03</rscale>
<asrwt>0</asrwt>
<pdfrwt beam="1">  1       21 0.10576176E+00 0.45451464E+03</pdfrwt>
<pdfrwt beam="2">  1       21 0.10560616E-01 0.45451464E+03</pdfrwt>
<totfact> 0.48387671E+04</totfact>
</mgrwt>
</event>
<event>
 7    0  0.4725730E-002  0.4586415E+03  0.7546771E-02  0.1025176E+00
         21   -1    0    0  502  501  0.00000000000E+00  0.00000000000E+00  0.52067519209E+03  0.52067519209E+03  0.00000000000E+00 0. -1.
         21   -1    0    0  501  502 -0.00000000000E+00 -0.00000000000E+00 -0.10099964759E+03  0.10099964759E+03  0.00000000000E+00 0. -1.
      99926    2    1    2    0    0  0.14210854715E-13 -0.14210854715E-13  0.41967554450E+03  0.62167483968E+03  0.45864151976E+03 0.  0.
      99925    2    3    3    0    0 -0.90777582751E+02  0.68419291158E+02  0.22834992356E+03  0.36638134141E+03  0.26300157949E+03 0.  0.
         25    1    4    4    0    0 -0.38608533361E+02 -0.70742349047E+01  0.96642661978E+02  0.16287411047E+03  0.12509000000E+03 0.  0.
         25    1    4    4    0    0 -0.52169049390E+02  0.75493526062E+02  0.13170726158E+03  0.20350723094E+03  0.12509000000E+03 0.  0.
         25    1    3    3    0    0  0.90777582751E+02 -0.68419291158E+02  0.19132562094E+03  0.25529349827E+03  0.12509000000E+03 0.  0.
<mgrwt>
<rscale>  2 0.45864152E+03</rscale>
<asrwt>0</asrwt>
<pdfrwt beam="1">  1       21 0.76569880E-01 0.45864152E+03</pdfrwt>
<pdfrwt beam="2">  1       21 0.14852890E-01 0.45864152E+03</pdfrwt>
<totfact> 0.55743324E+04</totfact>
</mgrwt>
</event>
<event>
 7    0  0.4725730E-002  0.4554802E+03  0.7546771E-02  0.1026100E+00
         21   -1    0    0  502  501  0.00000000000E+00  0.00000000000E+00  0.54463869056E+03  0.54463869056E+03  0.00000000000E+00 0.  1.
         21   -1    0    0  501  502 -0.00000000000E+00 -0.00000000000E+00 -0.95229266470E+02  0.95229266470E+02  0.00000000000E+00 0.  1.
      99926    2    1    2    0    0  0.00000000000E+00  0.00000000000E+00  0.44940942409E+03  0.63986795703E+03  0.45548015541E+03 0.  0.
      99925    2    3    3    0    0 -0.93398865347E+02  0.28348622473E+02  0.36439270816E+03  0.45986145011E+03  0.26298957222E+03 0.  0.
         25    1    3    3    0    0  0.93398865347E+02 -0.28348622473E+02  0.85016715934E+02  0.18000650692E+03  0.12509000000E+03 0.  0.
         25    1    4    4    0    0 -0.43641413209E+02  0.39053614219E+02  0.13185374000E+03  0.19095202168E+03  0.12509000000E+03 0.  0.
         25    1    4    4    0    0 -0.49757452138E+02 -0.10704991746E+02  0.23253896815E+03  0.26890942843E+03  0.12509000000E+03 0.  0.
<mgrwt>
<rscale>  2 0.45548016E+03</rscale>
<asrwt>0</asrwt>
<pdfrwt beam="1">  1       21 0.80093923E-01 0.45548016E+03</pdfrwt>
<pdfrwt beam="2">  1       21 0.14004304E-01 0.45548016E+03</pdfrwt>
<totfact> 0.56076216E+04</totfact>
</mgrwt>
</event>
<event>
 7    0  0.4725730E-002  0.4025287E+03  0.7546771E-02  0.1042908E+00
         21   -1    0    0  502  501  0.00000000000E+00  0.00000000000E+00  0.96470379964E+02  0.96470379964E+02  0.00000000000E+00 0. -1.
         21   -1    0    0  501  502 -0.00000000000E+00 -0.00000000000E+00 -0.41989400689E+03  0.41989400689E+03  0.00000000000E+00 0. -1.
      99926    2    1    2    0    0  0.00000000000E+00  0.35527136788E-14 -0.32342362693E+03  0.51636438686E+03  0.40252867917E+03 0.  0.
      99925    2    3    3    0    0 -0.42640171508E+02  0.23725293853E+02 -0.19857753624E+03  0.33302009800E+03  0.26284648368E+03 0.  0.
         25    1    4    4    0    0 -0.19264928936E+02 -0.59561524880E+01 -0.14289636562E+03  0.19098034623E+03  0.12509000000E+03 0.  0.
         25    1    4    4    0    0 -0.23375242572E+02  0.29681446341E+02 -0.55681170623E+02  0.14203975177E+03  0.12509000000E+03 0.  0.
         25    1    3    3    0    0  0.42640171508E+02 -0.23725293853E+02 -0.12484609069E+03  0.18334428885E+03  0.12509000000E+03 0.  0.
<mgrwt>
<rscale>  2 0.40252868E+03</rscale>
<asrwt>0</asrwt>
<pdfrwt beam="1">  1       21 0.14186821E-01 0.40252868E+03</pdfrwt>
<pdfrwt beam="2">  1       21 0.61749118E-01 0.40252868E+03</pdfrwt>
<totfact> 0.99473124E+04</totfact>
</mgrwt>
</event>
<event>
 7    0  0.4725730E-002  0.4518820E+03  0.7546771E-02  0.1027162E+00
         21   -1    0    0  502  501  0.00000000000E+00  0.00000000000E+00  0.66845162389E+02  0.66845162389E+02  0.00000000000E+00 0.  1.
         21   -1    0    0  501  502 -0.00000000000E+00 -0.00000000000E+00 -0.76369534320E+03  0.76369534320E+03  0.00000000000E+00 0.  1.
      99926    2    1    2    0    0  0.00000000000E+00  0.00000000000E+00 -0.69685018081E+03  0.83054050559E+03  0.45188201660E+03 0.  0.
      99925    2    3    3    0    0 -0.75472109524E+02  0.51591588895E+02 -0.32684881842E+03  0.42940929560E+03  0.26306740900E+03 0.  0.
         25    1    4    4    0    0 -0.28829246621E+02 -0.37517214128E+01 -0.19676991613E+03  0.23497044254E+03  0.12509000000E+03 0.  0.
         25    1    3    3    0    0  0.75472109524E+02 -0.51591588895E+02 -0.37000136239E+03  0.40113120999E+03  0.12509000000E+03 0.  0.
         25    1    4    4    0    0 -0.46642862903E+02  0.55343310308E+02 -0.13007890229E+03  0.19443885305E+03  0.12509000000E+03 0.  0.
<mgrwt>
<rscale>  2 0.45188202E+03</rscale>
<asrwt>0</asrwt>
<pdfrwt beam="1">  1       21 0.98301710E-02 0.45188202E+03</pdfrwt>
<pdfrwt beam="2">  1       21 0.11230814E+00 0.45188202E+03</pdfrwt>
<totfact> 0.47473578E+04</totfact>
</mgrwt>
</event>
<event>
 7    0  0.4725730E-002  0.4504521E+03  0.7546771E-02  0.1027587E+00
         21   -1    0    0  502  501  0.00000000000E+00  0.00000000000E+00  0.11580266902E+03  0.11580266902E+03  0.00000000000E+00 0.  1.
         21   -1    0    0  501  502 -0.00000000000E+00 -0.00000000000E+00 -0.43804495241E+03  0.43804495241E+03  0.00000000000E+00 0.  1.
      99926    2    1    2    0    0  0.00000000000E+00  0.00000000000E+00 -0.32224228339E+03  0.55384762143E+03  0.45045210462E+03 0.  0.
      99925    2    3    3    0    0  0.54703723584E+02 -0.92816846394E+02 -0.18719520476E+03  0.34055747657E+03  0.26330568890E+03 0.  0.
         25    1    3    3    0    0 -0.54703723584E+02  0.92816846394E+02 -0.13504707863E+03  0.21329014486E+03  0.12509000000E+03 0.  0.
         25    1    4    4    0    0 -0.54048204917E+01 -0.17354968510E+02 -0.88120304855E+02  0.15408797242E+03  0.12509000000E+03 0.  0.
         25    1    4    4    0    0  0.60108544076E+02 -0.75461877884E+02 -0.99074899909E+02  0.18646950415E+03  0.12509000000E+03 0.  0.
<mgrwt>
<rscale>  2 0.45045210E+03</rscale>
<asrwt>0</asrwt>
<pdfrwt beam="1">  1       21 0.17029804E-01 0.45045210E+03</pdfrwt>
<pdfrwt beam="2">  1       21 0.64418376E-01 0.45045210E+03</pdfrwt>
<totfact> 0.63880469E+04</totfact>
</mgrwt>
</event>
<event>
 7    0  0.4725730E-002  0.4513068E+03  0.7546771E-02  0.1027333E+00
         21   -1    0    0  502  501  0.00000000000E+00  0.00000000000E+00  0.29619248537E+03  0.29619248537E+03  0.00000000000E+00 0. -1.
         21   -1    0    0  501  502 -0.00000000000E+00 -0.00000000000E+00 -0.17191339916E+03  0.17191339916E+03  0.00000000000E+00 0. -1.
      99926    2    1    2    0    0  0.00000000000E+00 -0.35527136788E-14  0.12427908622E+03  0.46810588453E+03  0.45130680015E+03 0.  0.
      99925    2    3    3    0    0 -0.60221767696E+02  0.21046178729E+02 -0.13182393023E+02  0.27160456312E+03  0.26367718952E+03 0.  0.
         25    1    4    4    0    0 -0.16101390008E+01  0.21839943649E+02  0.22399473604E+02  0.12895278285E+03  0.12509000000E+03 0.  0.
         25    1    3    3    0    0  0.60221767696E+02 -0.21046178729E+02  0.13746147924E+03  0.19650132142E+03  0.12509000000E+03 0.  0.
         25    1    4    4    0    0 -0.58611628695E+02 -0.79376492001E+00 -0.35581866627E+02  0.14265178027E+03  0.12509000000E+03 0.  0.
<mgrwt>
<rscale>  2 0.45130680E+03</rscale>
<asrwt>0</asrwt>
<pdfrwt beam="1">  1       21 0.43557719E-01 0.45130680E+03</pdfrwt>
<pdfrwt beam="2">  1       21 0.25281382E-01 0.45130680E+03</pdfrwt>
<totfact> 0.69593645E+04</totfact>
</mgrwt>
</event>
<event>
 7    0  0.4725730E-002  0.4580445E+03  0.7546771E-02  0.1025350E+00
         21   -1    0    0  502  501  0.00000000000E+00  0.00000000000E+00  0.92134472126E+03  0.92134472126E+03  0.00000000000E+00 0. -1.
         21   -1    0    0  501  502 -0.00000000000E+00 -0.00000000000E+00 -0.56928951307E+02  0.56928951307E+02  0.00000000000E+00 0. -1.
      99926    2    1    2    0    0  0.17763568394E-14  0.71054273576E-14  0.86441576996E+03  0.97827367257E+03  0.45804449030E+03 0.  0.
      99925    2    3    3    0    0  0.10463916933E+02 -0.44634650441E+02  0.31498108675E+03  0.41291739129E+03  0.26303220609E+03 0.  0.
         25    1    4    4    0    0  0.21855040455E+02 -0.59595114665E+02  0.17413733024E+03  0.22360800157E+03  0.12509000000E+03 0.  0.
         25    1    4    4    0    0 -0.11391123522E+02  0.14960464224E+02  0.14084375651E+03  0.18930938971E+03  0.12509000000E+03 0.  0.
         25    1    3    3    0    0 -0.10463916933E+02  0.44634650441E+02  0.54943468320E+03  0.56535628128E+03  0.12509000000E+03 0.  0.
<mgrwt>
<rscale>  2 0.45804449E+03</rscale>
<asrwt>0</asrwt>
<pdfrwt beam="1">  1       21 0.13549186E+00 0.45804449E+03</pdfrwt>
<pdfrwt beam="2">  1       21 0.83719052E-02 0.45804449E+03</pdfrwt>
<totfact> 0.39078189E+04</totfact>
</mgrwt>
</event>
<event>
 7    0  0.4725730E-002  0.4566016E+03  0.7546771E-02  0.1025771E+00
         21   -1    0    0  502  501  0.00000000000E+00  0.00000000000E+00  0.50034840294E+03  0.50034840294E+03  0.00000000000E+00 0. -1.
         21   -1    0    0  501  502 -0.00000000000E+00 -0.00000000000E+00 -0.10416990396E+03  0.10416990396E+03  0.00000000000E+00 0. -1.
      99926    2    1    2    0    0  0.00000000000E+00  0.00000000000E+00  0.39617849897E+03  0.60451830690E+03  0.45660155533E+03 0.  0.
      99925    2    3    3    0    0  0.14721889830E+02  0.11185086439E+03  0.22157874300E+03  0.36190764598E+03  0.26296892395E+03 0.  0.
         25    1    4    4    0    0  0.10747460839E+02  0.55048765699E+02  0.16169716976E+03  0.21198905002E+03  0.12509000000E+03 0.  0.
         25    1    3    3    0    0 -0.14721889830E+02 -0.11185086439E+03  0.17459975597E+03  0.24261066092E+03  0.12509000000E+03 0.  0.
         25    1    4    4    0    0  0.39744289910E+01  0.56802098693E+02  0.59881573241E+02  0.14991859596E+03  0.12509000000E+03 0.  0.
<mgrwt>
<rscale>  2 0.45660156E+03</rscale>
<asrwt>0</asrwt>
<pdfrwt beam="1">  1       21 0.73580646E-01 0.45660156E+03</pdfrwt>
<pdfrwt beam="2">  1       21 0.15319104E-01 0.45660156E+03</pdfrwt>
<totfact> 0.57667886E+04</totfact>
</mgrwt>
</event>
<event>
 7    0  0.4725730E-002  0.4579813E+03  0.7546771E-02  0.1025368E+00
         21   -1    0    0  502  501  0.00000000000E+00  0.00000000000E+00  0.25668527010E+03  0.25668527010E+03  0.00000000000E+00 0.  1.
         21   -1    0    0  501  502 -0.00000000000E+00 -0.00000000000E+00 -0.20428409558E+03  0.20428409558E+03  0.00000000000E+00 0.  1.
      99926    2    1    2    0    0  0.00000000000E+00  0.71054273576E-14  0.52401174518E+02  0.46096936568E+03  0.45798130202E+03 0.  0.
      99925    2    3    3    0    0  0.41003115698E+02  0.54450392967E+02  0.12731668034E+03  0.30001613675E+03  0.26297156581E+03 0.  0.
         25    1    4    4    0    0  0.12608982482E+02 -0.98824578027E+01  0.77967883919E+02  0.14826715224E+03  0.12509000000E+03 0.  0.
         25    1    3    3    0    0 -0.41003115698E+02 -0.54450392967E+02 -0.74915505823E+02  0.16095322893E+03  0.12509000000E+03 0.  0.
         25    1    4    4    0    0  0.28394133216E+02  0.64332850769E+02  0.49348796422E+02  0.15174898450E+03  0.12509000000E+03 0.  0.
<mgrwt>
<rscale>  2 0.45798130E+03</rscale>
<asrwt>0</asrwt>
<pdfrwt beam="1">  1       21 0.37747834E-01 0.45798130E+03</pdfrwt>
<pdfrwt beam="2">  1       21 0.30041779E-01 0.45798130E+03</pdfrwt>
<totfact> 0.66514339E+04</totfact>
</mgrwt>
</event>
<event>
 7    0  0.4725730E-002  0.4543508E+03  0.7546771E-02  0.1026432E+00
         21   -1    0    0  502  501  0.00000000000E+00  0.00000000000E+00  0.22664781081E+03  0.22664781081E+03  0.00000000000E+00 0. -1.
         21   -1    0    0  501  502 -0.00000000000E+00 -0.00000000000E+00 -0.22770423113E+03  0.22770423113E+03  0.00000000000E+00 0. -1.
      99926    2    1    2    0    0  0.00000000000E+00  0.00000000000E+00 -0.10564203109E+01  0.45435204194E+03  0.45435081379E+03 0.  0.
      99925    2    3    3    0    0 -0.67436184730E+01  0.96984514929E+02 -0.57282255513E+02  0.28624396608E+03  0.26306440047E+03 0.  0.
         25    1    4    4    0    0  0.34818328463E+02  0.63036963186E+02 -0.29770513829E+02  0.14737627461E+03  0.12509000000E+03 0.  0.
         25    1    4    4    0    0 -0.41561946936E+02  0.33947551743E+02 -0.27511741684E+02  0.13886769147E+03  0.12509000000E+03 0.  0.
         25    1    3    3    0    0  0.67436184730E+01 -0.96984514929E+02  0.56225835202E+02  0.16810807586E+03  0.12509000000E+03 0.  0.
<mgrwt>
<rscale>  2 0.45435081E+03</rscale>
<asrwt>0</asrwt>
<pdfrwt beam="1">  1       21 0.33330561E-01 0.45435081E+03</pdfrwt>
<pdfrwt beam="2">  1       21 0.33485916E-01 0.45435081E+03</pdfrwt>
<totfact> 0.68949741E+04</totfact>
</mgrwt>
</event>
<event>
 7    0  0.4725730E-002  0.4518265E+03  0.7546771E-02  0.1027179E+00
         21   -1    0    0  502  501  0.00000000000E+00  0.00000000000E+00  0.70094021209E+03  0.70094021209E+03  0.00000000000E+00 0.  1.
         21   -1    0    0  501  502 -0.00000000000E+00 -0.00000000000E+00 -0.72811906391E+02  0.72811906391E+02  0.00000000000E+00 0.  1.
      99926    2    1    2    0    0  0.00000000000E+00  0.00000000000E+00  0.62812830570E+03  0.77375211848E+03  0.45182648488E+03 0.  0.
      99925    2    3    3    0    0  0.41833580983E+02  0.75963866256E+02  0.51285983201E+03  0.58282049040E+03  0.26293337420E+03 0.  0.
         25    1    4    4    0    0  0.53319682213E+02  0.23196002143E+02  0.21759586173E+03  0.25763639139E+03  0.12509000000E+03 0.  0.
         25    1    4    4    0    0 -0.11486101229E+02  0.52767864114E+02  0.29526397029E+03  0.32518409902E+03  0.12509000000E+03 0.  0.
         25    1    3    3    0    0 -0.41833580983E+02 -0.75963866256E+02  0.11526847369E+03  0.19093162808E+03  0.12509000000E+03 0.  0.
<mgrwt>
<rscale>  2 0.45182648E+03</rscale>
<asrwt>0</asrwt>
<pdfrwt beam="1">  1       21 0.10307944E+00 0.45182648E+03</pdfrwt>
<pdfrwt beam="2">  1       21 0.10707634E-01 0.45182648E+03</pdfrwt>
<totfact> 0.50302037E+04</totfact>
</mgrwt>
</event>
<event>
 7    0  0.4725730E-002  0.4498902E+03  0.7546771E-02  0.1027755E+00
         21   -1    0    0  502  501  0.00000000000E+00  0.00000000000E+00  0.91757925636E+03  0.91757925636E+03  0.00000000000E+00 0. -1.
         21   -1    0    0  501  502 -0.00000000000E+00 -0.00000000000E+00 -0.55145432259E+02  0.55145432259E+02  0.00000000000E+00 0. -1.
      99926    2    1    2    0    0  0.00000000000E+00  0.00000000000E+00  0.86243382410E+03  0.97272468862E+03  0.44989022983E+03 0.  0.
      99925    2    3    3    0    0  0.32110397572E+02 -0.46821976129E+02  0.74497329980E+03  0.79198217024E+03  0.26273021426E+03 0.  0.
         25    1    3    3    0    0 -0.32110397572E+02  0.46821976129E+02  0.11746052430E+03  0.18074251838E+03  0.12509000000E+03 0.  0.
         25    1    4    4    0    0  0.25863867688E+02  0.15899120474E+02  0.35659383930E+03  0.37911528064E+03  0.12509000000E+03 0.  0.
         25    1    4    4    0    0  0.62465298847E+01 -0.62721096603E+02  0.38837946050E+03  0.41286688960E+03  0.12509000000E+03 0.  0.
<mgrwt>
<rscale>  2 0.44989023E+03</rscale>
<asrwt>0</asrwt>
<pdfrwt beam="1">  1       21 0.13493812E+00 0.44989023E+03</pdfrwt>
<pdfrwt beam="2">  1       21 0.81096229E-02 0.44989023E+03</pdfrwt>
<totfact> 0.41882226E+04</totfact>
</mgrwt>
</event>
<event>
 7    0  0.4725730E-002  0.4534350E+03  0.7546771E-02  0.1026703E+00
         21   -1    0    0  502  501  0.00000000000E+00  0.00000000000E+00  0.65774620032E+03  0.65774620032E+03  0.00000000000E+00 0.  1.
         21   -1    0    0  501  502 -0.00000000000E+00 -0.00000000000E+00 -0.78146910571E+02  0.78146910571E+02  0.00000000000E+00 0.  1.
      99926    2    1    2    0    0  0.00000000000E+00 -0.71054273576E-14  0.57959928975E+03  0.73589311089E+03  0.45343503832E+03 0.  0.
      99925    2    3    3    0    0 -0.63029882185E+02 -0.59439112662E+02  0.25080399619E+03  0.37359540550E+03  0.26299260132E+03 0.  0.
         25    1    4    4    0    0 -0.57267273528E+02  0.16053523259E+01  0.12500252115E+03  0.18589044130E+03  0.12509000000E+03 0.  0.
         25    1    3    3    0    0  0.63029882185E+02  0.59439112662E+02  0.32879529356E+03  0.36229770539E+03  0.12509000000E+03 0.  0.
         25    1    4    4    0    0 -0.57626086570E+01 -0.61044464988E+02  0.12580147504E+03  0.18770496421E+03  0.12509000000E+03 0.  0.
<mgrwt>
<rscale>  2 0.45343504E+03</rscale>
<asrwt>0</asrwt>
<pdfrwt beam="1">  1       21 0.96727379E-01 0.45343504E+03</pdfrwt>
<pdfrwt beam="2">  1       21 0.11492193E-01 0.45343504E+03</pdfrwt>
<totfact> 0.51629492E+04</totfact>
</mgrwt>
</event>
<event>
 7    0  0.4725730E-002  0.4627415E+03  0.7546771E-02  0.1023989E+00
         21   -1    0    0  502  501  0.00000000000E+00  0.00000000000E+00  0.14579096238E+03  0.14579096238E+03  0.00000000000E+00 0.  1.
         21   -1    0    0  501  502 -0.00000000000E+00 -0.00000000000E+00 -0.36718616048E+03  0.36718616048E+03  0.00000000000E+00 0.  1.
      99926    2    1    2    0    0  0.00000000000E+00  0.00000000000E+00 -0.22139519811E+03  0.51297712286E+03  0.46274149893E+03 0.  0.
      99925    2    3    3    0    0 -0.34554185409E+02 -0.91360684952E+02 -0.60459508751E+02  0.28694931330E+03  0.26295206735E+03 0.  0.
         25    1    3    3    0    0  0.34554185409E+02  0.91360684952E+02 -0.16093568936E+03  0.22602780956E+03  0.12509000000E+03 0.  0.
         25    1    4    4    0    0 -0.90586423841E+01 -0.60020030511E+02 -0.69001042018E+02  0.15521957017E+03  0.12509000000E+03 0.  0.
         25    1    4    4    0    0 -0.25495543025E+02 -0.31340654441E+02  0.85415332671E+01  0.13172974313E+03  0.12509000000E+03 0.  0.
<mgrwt>
<rscale>  2 0.46274150E+03</rscale>
<asrwt>0</asrwt>
<pdfrwt beam="1">  1       21 0.21439848E-01 0.46274150E+03</pdfrwt>
<pdfrwt beam="2">  1       21 0.53997964E-01 0.46274150E+03</pdfrwt>
<totfact> 0.60560915E+04</totfact>
</mgrwt>
</event>
<event>
 7    0  0.4725730E-002  0.4544599E+03  0.7546771E-02  0.1026400E+00
         21   -1    0    0  502  501  0.00000000000E+00  0.00000000000E+00  0.95036757289E+03  0.95036757289E+03  0.00000000000E+00 0. -1.
         21   -1    0    0  501  502 -0.00000000000E+00 -0.00000000000E+00 -0.54329967708E+02  0.54329967708E+02  0.00000000000E+00 0. -1.
      99926    2    1    2    0    0  0.83266726847E-15  0.00000000000E+00  0.89603760518E+03  0.10046975406E+04  0.45445985321E+03 0.  0.
      99925    2    3    3    0    0  0.79912639503E-01 -0.91312902022E+02  0.70904870517E+03  0.76190048689E+03  0.26344683174E+03 0.  0.
         25    1    4    4    0    0  0.20489034433E+02 -0.11095957299E+02  0.28532485605E+03  0.31241111116E+03  0.12509000000E+03 0.  0.
         25    1    3    3    0    0 -0.79912639503E-01  0.91312902022E+02  0.18698890000E+03  0.24279705370E+03  0.12509000000E+03 0.  0.
         25    1    4    4    0    0 -0.20409121794E+02 -0.80216944723E+02  0.42372384913E+03  0.44948937573E+03  0.12509000000E+03 0.  0.
<mgrwt>
<rscale>  2 0.45445985E+03</rscale>
<asrwt>0</asrwt>
<pdfrwt beam="1">  1       21 0.13975993E+00 0.45445985E+03</pdfrwt>
<pdfrwt beam="2">  1       21 0.79897017E-02 0.45445985E+03</pdfrwt>
<totfact> 0.39149457E+04</totfact>
</mgrwt>
</event>
<event>
 7    0  0.4725730E-002  0.4537974E+03  0.7546771E-02  0.1026596E+00
         21   -1    0    0  502  501  0.00000000000E+00  0.00000000000E+00  0.76313414104E+02  0.76313414104E+02  0.00000000000E+00 0. -1.
         21   -1    0    0  501  502 -0.00000000000E+00 -0.00000000000E+00 -0.67462620638E+03  0.67462620638E+03  0.00000000000E+00 0. -1.
      99926    2    1    2    0    0  0.14210854715E-13  0.00000000000E+00 -0.59831279228E+03  0.75093962049E+03  0.45379743963E+03 0.  0.
      99925    2    3    3    0    0 -0.11045330741E+03  0.11777398381E+02 -0.40157611731E+03  0.49269270839E+03  0.26295263200E+03 0.  0.
         25    1    4    4    0    0 -0.98257442018E+02  0.10975632747E+02 -0.21289574220E+03  0.26598325995E+03  0.12509000000E+03 0.  0.
         25    1    3    3    0    0  0.11045330741E+03 -0.11777398381E+02 -0.19673667497E+03  0.25824691209E+03  0.12509000000E+03 0.  0.
         25    1    4    4    0    0 -0.12195865391E+02  0.80176563384E+00 -0.18868037511E+03  0.22670944844E+03  0.12509000000E+03 0.  0.
<mgrwt>
<rscale>  2 0.45379744E+03</rscale>
<asrwt>0</asrwt>
<pdfrwt beam="1">  1       21 0.11222561E-01 0.45379744E+03</pdfrwt>
<pdfrwt beam="2">  1       21 0.99209735E-01 0.45379744E+03</pdfrwt>
<totfact> 0.50700484E+04</totfact>
</mgrwt>
</event>
<event>
 7    0  0.4725730E-002  0.4632491E+03  0.7546771E-02  0.1023843E+00
         21   -1    0    0  502  501  0.00000000000E+00  0.00000000000E+00  0.15016543904E+03  0.15016543904E+03  0.00000000000E+00 0. -1.
         21   -1    0    0  501  502 -0.00000000000E+00 -0.00000000000E+00 -0.35727224495E+03  0.35727224495E+03  0.00000000000E+00 0. -1.
      99926    2    1    2    0    0  0.71054273576E-14  0.14210854715E-13 -0.20710680591E+03  0.50743768399E+03  0.46324914903E+03 0.  0.
      99925    2    3    3    0    0  0.42743728699E+02  0.11211432112E+03 -0.13356328682E+03  0.31914853230E+03  0.26385599622E+03 0.  0.
         25    1    4    4    0    0  0.32431087910E+02  0.15483663768E+02 -0.45255699329E+02  0.13779370714E+03  0.12509000000E+03 0.  0.
         25    1    4    4    0    0  0.10312640790E+02  0.96630657350E+02 -0.88307587493E+02  0.18135482516E+03  0.12509000000E+03 0.  0.
         25    1    3    3    0    0 -0.42743728699E+02 -0.11211432112E+03 -0.73543519086E+02  0.18828915169E+03  0.12509000000E+03 0.  0.
<mgrwt>
<rscale>  2 0.46324915E+03</rscale>
<asrwt>0</asrwt>
<pdfrwt beam="1">  1       21 0.22083153E-01 0.46324915E+03</pdfrwt>
<pdfrwt beam="2">  1       21 0.52540037E-01 0.46324915E+03</pdfrwt>
<totfact> 0.60679606E+04</totfact>
</mgrwt>
</event>
<event>
 7    0  0.4725730E-002  0.4499205E+03  0.7546771E-02  0.1027746E+00
         21   -1    0    0  502  501  0.00000000000E+00  0.00000000000E+00  0.59029852838E+03  0.59029852838E+03  0.00000000000E+00 0. -1.
         21   -1    0    0  501  502 -0.00000000000E+00 -0.00000000000E+00 -0.85731401827E+02  0.85731401827E+02  0.00000000000E+00 0. -1.
      99926    2    1    2    0    0  0.00000000000E+00 -0.71054273576E-14  0.50456712656E+03  0.67602993021E+03  0.44992052780E+03 0.  0.
      99925    2    3    3    0    0  0.82000569092E+02  0.61057789618E+02  0.26516185679E+03  0.38721417874E+03  0.26300544275E+03 0.  0.
         25    1    4    4    0    0  0.63023814009E+02  0.63494397125E+02  0.12330608476E+03  0.19711782831E+03  0.12509000000E+03 0.  0.
         25    1    3    3    0    0 -0.82000569092E+02 -0.61057789618E+02  0.23940526977E+03  0.28881575147E+03  0.12509000000E+03 0.  0.
         25    1    4    4    0    0  0.18976755084E+02 -0.24366075072E+01  0.14185577202E+03  0.19009635043E+03  0.12509000000E+03 0.  0.
<mgrwt>
<rscale>  2 0.44992053E+03</rscale>
<asrwt>0</asrwt>
<pdfrwt beam="1">  1       21 0.86808605E-01 0.44992053E+03</pdfrwt>
<pdfrwt beam="2">  1       21 0.12607559E-01 0.44992053E+03</pdfrwt>
<totfact> 0.56448745E+04</totfact>
</mgrwt>
</event>
<event>
 7    0  0.4725730E-002  0.4490548E+03  0.7546771E-02  0.1028004E+00
         21   -1    0    0  502  501  0.00000000000E+00  0.00000000000E+00  0.18258990059E+03  0.18258990059E+03  0.00000000000E+00 0.  1.
         21   -1    0    0  501  502 -0.00000000000E+00 -0.00000000000E+00 -0.27609711480E+03  0.27609711480E+03  0.00000000000E+00 0.  1.
      99926    2    1    2    0    0  0.00000000000E+00  0.00000000000E+00 -0.93507214208E+02  0.45868701539E+03  0.44905476167E+03 0.  0.
      99925    2    3    3    0    0  0.40586807305E+02  0.99568297692E+02 -0.57964858401E+02  0.28995082488E+03  0.26296467672E+03 0.  0.
         25    1    4    4    0    0  0.24580520265E+02  0.92876983770E+02 -0.35679227514E+02  0.16171224897E+03  0.12509000000E+03 0.  0.
         25    1    4    4    0    0  0.16006287039E+02  0.66913139216E+01 -0.22285630887E+02  0.12823857591E+03  0.12509000000E+03 0.  0.
         25    1    3    3    0    0 -0.40586807305E+02 -0.99568297692E+02 -0.35542355807E+02  0.16873619051E+03  0.12509000000E+03 0.  0.
<mgrwt>
<rscale>  2 0.44905476E+03</rscale>
<asrwt>0</asrwt>
<pdfrwt beam="1">  1       21 0.26851456E-01 0.44905476E+03</pdfrwt>
<pdfrwt beam="2">  1       21 0.40602517E-01 0.44905476E+03</pdfrwt>
<totfact> 0.71604694E+04</totfact>
</mgrwt>
</event>
<event>
 7    0  0.4725730E-002  0.4838219E+03  0.7546771E-02  0.1018090E+00
         21   -1    0    0  502  501  0.00000000000E+00  0.00000000000E+00  0.27475437160E+03  0.27475437160E+03  0.00000000000E+00 0.  1.
         21   -1    0    0  501  502 -0.00000000000E+00 -0.00000000000E+00 -0.21299354059E+03  0.21299354059E+03  0.00000000000E+00 0.  1.
      99926    2    1    2    0    0 -0.88817841970E-15 -0.71054273576E-14  0.61760831012E+02  0.48774791219E+03  0.48382189450E+03 0.  0.
      99925    2    3    3    0    0  0.70021506749E+01  0.21996716904E+02 -0.99662742956E+02  0.28222914419E+03  0.26303562844E+03 0.  0.
         25    1    3    3    0    0 -0.70021506749E+01 -0.21996716904E+02  0.16142357397E+03  0.20551876800E+03  0.12509000000E+03 0.  0.
         25    1    4    4    0    0  0.11508298368E+02 -0.27851786088E+02 -0.38828382492E+02  0.13439983001E+03  0.12509000000E+03 0.  0.
         25    1    4    4    0    0 -0.45061476935E+01  0.49848502992E+02 -0.60834360465E+02  0.14782931418E+03  0.12509000000E+03 0.  0.
<mgrwt>
<rscale>  2 0.48382189E+03</rscale>
<asrwt>0</asrwt>
<pdfrwt beam="1">  1       21 0.40405055E-01 0.48382189E+03</pdfrwt>
<pdfrwt beam="2">  1       21 0.31322579E-01 0.48382189E+03</pdfrwt>
<totfact> 0.52943912E+04</totfact>
</mgrwt>
</event>
<event>
 7    0  0.4725730E-002  0.4624086E+03  0.7546771E-02  0.1024085E+00
         21   -1    0    0  502  501  0.00000000000E+00  0.00000000000E+00  0.96493859366E+02  0.96493859366E+02  0.00000000000E+00 0.  1.
         21   -1    0    0  501  502 -0.00000000000E+00 -0.00000000000E+00 -0.55397739960E+03  0.55397739960E+03  0.00000000000E+00 0.  1.
      99926    2    1    2    0    0  0.00000000000E+00  0.00000000000E+00 -0.45748354023E+03  0.65047125897E+03  0.46240855221E+03 0.  0.
      99925    2    3    3    0    0 -0.97525741125E+02 -0.66251126305E+02 -0.31425835228E+03  0.42672710936E+03  0.26350945328E+03 0.  0.
         25    1    4    4    0    0 -0.66461214909E+02 -0.13488122838E+02 -0.20582811647E+03  0.25022338855E+03  0.12509000000E+03 0.  0.
         25    1    4    4    0    0 -0.31064526217E+02 -0.52763003467E+02 -0.10843023581E+03  0.17650372081E+03  0.12509000000E+03 0.  0.
         25    1    3    3    0    0  0.97525741125E+02  0.66251126305E+02 -0.14322518796E+03  0.22374414961E+03  0.12509000000E+03 0.  0.
<mgrwt>
<rscale>  2 0.46240855E+03</rscale>
<asrwt>0</asrwt>
<pdfrwt beam="1">  1       21 0.14190274E-01 0.46240855E+03</pdfrwt>
<pdfrwt beam="2">  1       21 0.81467264E-01 0.46240855E+03</pdfrwt>
<totfact> 0.52535713E+04</totfact>
</mgrwt>
</event>
<event>
 7    0  0.4725730E-002  0.4536434E+03  0.7546771E-02  0.1026641E+00
         21   -1    0    0  502  501  0.00000000000E+00  0.00000000000E+00  0.23280993786E+03  0.23280993786E+03  0.00000000000E+00 0. -1.
         21   -1    0    0  501  502 -0.00000000000E+00 -0.00000000000E+00 -0.22098744530E+03  0.22098744530E+03  0.00000000000E+00 0. -1.
      99926    2    1    2    0    0  0.00000000000E+00  0.00000000000E+00  0.11822492560E+02  0.45379738315E+03  0.45364335510E+03 0.  0.
      99925    2    3    3    0    0 -0.57742517462E+02 -0.64451556707E+02  0.78409949634E+02  0.28775642729E+03  0.26299703375E+03 0.  0.
         25    1    3    3    0    0  0.57742517462E+02  0.64451556707E+02 -0.66587457074E+02  0.16604095586E+03  0.12509000000E+03 0.  0.
         25    1    4    4    0    0 -0.56887250253E+02 -0.74572240613E+01  0.22926208410E+02  0.13951662469E+03  0.12509000000E+03 0.  0.
         25    1    4    4    0    0 -0.85526720876E+00 -0.56994332645E+02  0.55483741224E+02  0.14823980260E+03  0.12509000000E+03 0.  0.
<mgrwt>
<rscale>  2 0.45364336E+03</rscale>
<asrwt>0</asrwt>
<pdfrwt beam="1">  1       21 0.34236756E-01 0.45364336E+03</pdfrwt>
<pdfrwt beam="2">  1       21 0.32498154E-01 0.45364336E+03</pdfrwt>
<totfact> 0.69381987E+04</totfact>
</mgrwt>
</event>
<event>
 7    0  0.4725730E-002  0.4595632E+03  0.7546771E-02  0.1024908E+00
         21   -1    0    0  502  501  0.00000000000E+00  0.00000000000E+00  0.37353342014E+02  0.37353342014E+02  0.00000000000E+00 0.  1.
         21   -1    0    0  501  502 -0.00000000000E+00 -0.00000000000E+00 -0.14135169766E+04  0.14135169766E+04  0.00000000000E+00 0.  1.
      99926    2    1    2    0    0 -0.71054273576E-14  0.00000000000E+00 -0.13761636346E+04  0.14508703186E+04  0.45956319727E+03 0.  0.
      99925    2    3    3    0    0  0.43733178334E+02 -0.92684515828E+02 -0.10427920660E+04  0.10803475511E+04  0.26312074801E+03 0.  0.
         25    1    4    4    0    0  0.53952157612E+02 -0.43375486261E+02 -0.43949028274E+03  0.46215958806E+03  0.12509000000E+03 0.  0.
         25    1    3    3    0    0 -0.43733178334E+02  0.92684515828E+02 -0.33337156865E+03  0.37052276751E+03  0.12509000000E+03 0.  0.
         25    1    4    4    0    0 -0.10218979278E+02 -0.49309029567E+02 -0.60330178323E+03  0.61818796307E+03  0.12509000000E+03 0.  0.
<mgrwt>
<rscale>  2 0.45956320E+03</rscale>
<asrwt>0</asrwt>
<pdfrwt beam="1">  1       21 0.54931368E-02 0.45956320E+03</pdfrwt>
<pdfrwt beam="2">  1       21 0.20787021E+00 0.45956320E+03</pdfrwt>
<totfact> 0.24140065E+04</totfact>
</mgrwt>
</event>
<event>
 7    0  0.4725730E-002  0.4535354E+03  0.7546771E-02  0.1026673E+00
         21   -1    0    0  502  501  0.00000000000E+00  0.00000000000E+00  0.27310223785E+03  0.27310223785E+03  0.00000000000E+00 0. -1.
         21   -1    0    0  501  502 -0.00000000000E+00 -0.00000000000E+00 -0.18829427599E+03  0.18829427599E+03  0.00000000000E+00 0. -1.
      99926    2    1    2    0    0 -0.35527136788E-14  0.00000000000E+00  0.84807961861E+02  0.46139651385E+03  0.45353539288E+03 0.  0.
      99925    2    3    3    0    0 -0.17148370258E+02 -0.10958167329E+03  0.42924955507E+02  0.28904830804E+03  0.26344669831E+03 0.  0.
         25    1    4    4    0    0 -0.37898940998E+02 -0.81016765115E+02  0.40614807720E+02  0.15905067326E+03  0.12509000000E+03 0.  0.
         25    1    4    4    0    0  0.20750570740E+02 -0.28564908177E+02  0.23101477869E+01  0.12999763478E+03  0.12509000000E+03 0.  0.
         25    1    3    3    0    0  0.17148370258E+02  0.10958167329E+03  0.41883006354E+02  0.17234820581E+03  0.12509000000E+03 0.  0.
<mgrwt>
<rscale>  2 0.45353539E+03</rscale>
<asrwt>0</asrwt>
<pdfrwt beam="1">  1       21 0.40162094E-01 0.45353539E+03</pdfrwt>
<pdfrwt beam="2">  1       21 0.27690335E-01 0.45353539E+03</pdfrwt>
<totfact> 0.68876907E+04</totfact>
</mgrwt>
</event>
<event>
 7    0  0.4725730E-002  0.4699320E+03  0.7546771E-02  0.1021939E+00
         21   -1    0    0  502  501  0.00000000000E+00  0.00000000000E+00  0.47196258791E+03  0.47196258791E+03  0.00000000000E+00 0.  1.
         21   -1    0    0  501  502 -0.00000000000E+00 -0.00000000000E+00 -0.11697755967E+03  0.11697755967E+03  0.00000000000E+00 0.  1.
      99926    2    1    2    0    0  0.00000000000E+00  0.35527136788E-14  0.35498502824E+03  0.58894014757E+03  0.46993204525E+03 0.  0.
      99925    2    3    3    0    0  0.19280271329E+02  0.23691197077E+02  0.66575003282E+02  0.27309073365E+03  0.26308423758E+03 0.  0.
         25    1    3    3    0    0 -0.19280271329E+02 -0.23691197077E+02  0.28841002496E+03  0.31584941392E+03  0.12509000000E+03 0.  0.
         25    1    4    4    0    0 -0.13173933178E+01  0.51120465979E+02  0.33163312506E+02  0.13914866497E+03  0.12509000000E+03 0.  0.
         25    1    4    4    0    0  0.20597664647E+02 -0.27429268902E+02  0.33411690775E+02  0.13394206868E+03  0.12509000000E+03 0.  0.
<mgrwt>
<rscale>  2 0.46993205E+03</rscale>
<asrwt>0</asrwt>
<pdfrwt beam="1">  1       21 0.69406262E-01 0.46993205E+03</pdfrwt>
<pdfrwt beam="2">  1       21 0.17202582E-01 0.46993205E+03</pdfrwt>
<totfact> 0.52845383E+04</totfact>
</mgrwt>
</event>
<event>
 7    0  0.4725730E-002  0.4602109E+03  0.7546771E-02  0.1024720E+00
         21   -1    0    0  502  501  0.00000000000E+00  0.00000000000E+00  0.22247829500E+04  0.22247829500E+04  0.00000000000E+00 0.  1.
         21   -1    0    0  501  502 -0.00000000000E+00 -0.00000000000E+00 -0.23799411112E+02  0.23799411112E+02  0.00000000000E+00 0.  1.
      99926    2    1    2    0    0  0.71054273576E-14  0.14210854715E-13  0.22009835389E+04  0.22485823611E+04  0.46021092582E+03 0.  0.
      99925    2    3    3    0    0 -0.38449910500E+02 -0.10658458521E+03  0.15389692424E+04  0.15653919731E+04  0.26303427715E+03 0.  0.
         25    1    4    4    0    0 -0.50561765335E+02 -0.28591658185E+02  0.69320585928E+03  0.70679264743E+03  0.12509000000E+03 0.  0.
         25    1    3    3    0    0  0.38449910500E+02  0.10658458521E+03  0.66201429644E+03  0.68319038797E+03  0.12509000000E+03 0.  0.
         25    1    4    4    0    0  0.12111854835E+02 -0.77992927025E+02  0.84576338316E+03  0.85859932570E+03  0.12509000000E+03 0.  0.
<mgrwt>
<rscale>  2 0.46021093E+03</rscale>
<asrwt>0</asrwt>
<pdfrwt beam="1">  1       21 0.32717382E+00 0.46021093E+03</pdfrwt>
<pdfrwt beam="2">  1       21 0.34999149E-02 0.46021093E+03</pdfrwt>
<totfact> 0.96621428E+03</totfact>
</mgrwt>
</event>
<event>
 7    0  0.4725730E-002  0.4567278E+03  0.7546771E-02  0.1025735E+00
         21   -1    0    0  502  501  0.00000000000E+00  0.00000000000E+00  0.40667041723E+02  0.40667041723E+02  0.00000000000E+00 0.  1.
         21   -1    0    0  501  502 -0.00000000000E+00 -0.00000000000E+00 -0.12823670069E+04  0.12823670069E+04  0.00000000000E+00 0.  1.
      99926    2    1    2    0    0  0.00000000000E+00  0.00000000000E+00 -0.12416999652E+04  0.13230340486E+04  0.45672780767E+03 0.  0.
      99925    2    3    3    0    0 -0.57381113206E+02 -0.67771420411E+02 -0.99107133792E+03  0.10291841303E+04  0.26289165014E+03 0.  0.
         25    1    4    4    0    0 -0.15588186708E+02  0.10291006232E+01 -0.52636336306E+03  0.54124850918E+03  0.12509000000E+03 0.  0.
         25    1    4    4    0    0 -0.41792926498E+02 -0.68800521034E+02 -0.46470797486E+03  0.48793562116E+03  0.12509000000E+03 0.  0.
         25    1    3    3    0    0  0.57381113206E+02  0.67771420411E+02 -0.25062862727E+03  0.29384991830E+03  0.12509000000E+03 0.  0.
<mgrwt>
<rscale>  2 0.45672781E+03</rscale>
<asrwt>0</asrwt>
<pdfrwt beam="1">  1       21 0.59804474E-02 0.45672781E+03</pdfrwt>
<pdfrwt beam="2">  1       21 0.18858338E+00 0.45672781E+03</pdfrwt>
<totfact> 0.28073953E+04</totfact>
</mgrwt>
</event>
<event>
 7    0  0.4725730E-002  0.4509917E+03  0.7546771E-02  0.1027427E+00
         21   -1    0    0  502  501  0.00000000000E+00  0.00000000000E+00  0.85096711904E+02  0.85096711904E+02  0.00000000000E+00 0.  1.
         21   -1    0    0  501  502 -0.00000000000E+00 -0.00000000000E+00 -0.59753629287E+03  0.59753629287E+03  0.00000000000E+00 0.  1.
      99926    2    1    2    0    0  0.00000000000E+00  0.00000000000E+00 -0.51243958097E+03  0.68263300478E+03  0.45099167960E+03 0.  0.
      99925    2    3    3    0    0 -0.85627822941E+02  0.66051540876E+02 -0.29920947095E+03  0.41280061600E+03  0.26302682554E+03 0.  0.
         25    1    4    4    0    0 -0.34603916686E+02  0.23787985712E+02 -0.88214365540E+02  0.15872171150E+03  0.12509000000E+03 0.  0.
         25    1    4    4    0    0 -0.51023906254E+02  0.42263555164E+02 -0.21099510541E+03  0.25407890450E+03  0.12509000000E+03 0.  0.
         25    1    3    3    0    0  0.85627822941E+02 -0.66051540876E+02 -0.21323011002E+03  0.26983238877E+03  0.12509000000E+03 0.  0.
<mgrwt>
<rscale>  2 0.45099168E+03</rscale>
<asrwt>0</asrwt>
<pdfrwt beam="1">  1       21 0.12514222E-01 0.45099168E+03</pdfrwt>
<pdfrwt beam="2">  1       21 0.87872986E-01 0.45099168E+03</pdfrwt>
<totfact> 0.55590095E+04</totfact>
</mgrwt>
</event>
<event>
 7    0  0.4725730E-002  0.4570336E+03  0.7546771E-02  0.1025645E+00
         21   -1    0    0  502  501  0.00000000000E+00  0.00000000000E+00  0.49659523311E+02  0.49659523311E+02  0.00000000000E+00 0.  1.
         21   -1    0    0  501  502 -0.00000000000E+00 -0.00000000000E+00 -0.10515589753E+04  0.10515589753E+04  0.00000000000E+00 0.  1.
      99926    2    1    2    0    0  0.14210854715E-13  0.00000000000E+00 -0.10018994520E+04  0.11012184986E+04  0.45703355434E+03 0.  0.
      99925    2    3    3    0    0  0.11480926448E+03 -0.15714707579E+02 -0.62051670856E+03  0.68345250630E+03  0.26198897596E+03 0.  0.
         25    1    4    4    0    0  0.21743806446E+02 -0.20510821543E+02 -0.31965246569E+03  0.34455579206E+03  0.12509000000E+03 0.  0.
         25    1    3    3    0    0 -0.11480926448E+03  0.15714707579E+02 -0.38138274343E+03  0.41776599231E+03  0.12509000000E+03 0.  0.
         25    1    4    4    0    0  0.93065458033E+02  0.47961139639E+01 -0.30086424287E+03  0.33889671424E+03  0.12509000000E+03 0.  0.
<mgrwt>
<rscale>  2 0.45703355E+03</rscale>
<asrwt>0</asrwt>
<pdfrwt beam="1">  1       21 0.73028718E-02 0.45703355E+03</pdfrwt>
<pdfrwt beam="2">  1       21 0.15464101E+00 0.45703355E+03</pdfrwt>
<totfact> 0.34895144E+04</totfact>
</mgrwt>
</event>
<event>
 7    0  0.4725730E-002  0.4574005E+03  0.7546771E-02  0.1025538E+00
         21   -1    0    0  502  501  0.00000000000E+00  0.00000000000E+00  0.58844629195E+02  0.58844629195E+02  0.00000000000E+00 0. -1.
         21   -1    0    0  501  502 -0.00000000000E+00 -0.00000000000E+00 -0.88884577103E+03  0.88884577103E+03  0.00000000000E+00 0. -1.
      99926    2    1    2    0    0  0.14210854715E-13  0.00000000000E+00 -0.83000114184E+03  0.94769040023E+03  0.45740048014E+03 0.  0.
      99925    2    3    3    0    0  0.91270333036E+02 -0.34867554558E+02 -0.64836621760E+03  0.70647519785E+03  0.26302553679E+03 0.  0.
         25    1    4    4    0    0  0.83313251644E+02 -0.26051284694E+01 -0.37548214684E+03  0.40445300752E+03  0.12509000000E+03 0.  0.
         25    1    3    3    0    0 -0.91270333036E+02  0.34867554558E+02 -0.18163492424E+03  0.24121520238E+03  0.12509000000E+03 0.  0.
         25    1    4    4    0    0  0.79570813914E+01 -0.32262426089E+02 -0.27288407076E+03  0.30202219033E+03  0.12509000000E+03 0.  0.
<mgrwt>
<rscale>  2 0.45740048E+03</rscale>
<asrwt>0</asrwt>
<pdfrwt beam="1">  1       21 0.86536235E-02 0.45740048E+03</pdfrwt>
<pdfrwt beam="2">  1       21 0.13071259E+00 0.45740048E+03</pdfrwt>
<totfact> 0.40469430E+04</totfact>
</mgrwt>
</event>
<event>
 7    0  0.4725730E-002  0.4546267E+03  0.7546771E-02  0.1026351E+00
         21   -1    0    0  502  501  0.00000000000E+00  0.00000000000E+00  0.37171093798E+03  0.37171093798E+03  0.00000000000E+00 0.  1.
         21   -1    0    0  501  502 -0.00000000000E+00 -0.00000000000E+00 -0.13900954625E+03  0.13900954625E+03  0.00000000000E+00 0.  1.
      99926    2    1    2    0    0  0.00000000000E+00  0.00000000000E+00  0.23270139173E+03  0.51072048423E+03  0.45462674283E+03 0.  0.
      99925    2    3    3    0    0  0.32186758543E+02  0.77180970841E+02  0.61421112906E+02  0.28273510816E+03  0.26300893253E+03 0.  0.
         25    1    4    4    0    0  0.19937219350E+02  0.28497086120E+02  0.70318473062E+02  0.14765423254E+03  0.12509000000E+03 0.  0.
         25    1    3    3    0    0 -0.32186758543E+02 -0.77180970841E+02  0.17128027882E+03  0.22798537606E+03  0.12509000000E+03 0.  0.
         25    1    4    4    0    0  0.12249539193E+02  0.48683884721E+02 -0.88973601557E+01  0.13508087563E+03  0.12509000000E+03 0.  0.
<mgrwt>
<rscale>  2 0.45462674E+03</rscale>
<asrwt>0</asrwt>
<pdfrwt beam="1">  1       21 0.54663373E-01 0.45462674E+03</pdfrwt>
<pdfrwt beam="2">  1       21 0.20442580E-01 0.45462674E+03</pdfrwt>
<totfact> 0.64715374E+04</totfact>
</mgrwt>
</event>
<event>
 7    0  0.4725730E-002  0.4629136E+03  0.7546771E-02  0.1023940E+00
         21   -1    0    0  502  501  0.00000000000E+00  0.00000000000E+00  0.75519448634E+03  0.75519448634E+03  0.00000000000E+00 0.  1.
         21   -1    0    0  501  502 -0.00000000000E+00 -0.00000000000E+00 -0.70938358011E+02  0.70938358011E+02  0.00000000000E+00 0.  1.
      99926    2    1    2    0    0  0.35527136788E-14  0.00000000000E+00  0.68425612833E+03  0.82613284435E+03  0.46291362840E+03 0.  0.
      99925    2    3    3    0    0 -0.13695248869E+02  0.93089548543E+02  0.56170390481E+03  0.62733702076E+03  0.26303466889E+03 0.  0.
         25    1    3    3    0    0  0.13695248869E+02 -0.93089548543E+02  0.12255222352E+03  0.19879582359E+03  0.12509000000E+03 0.  0.
         25    1    4    4    0    0 -0.34290238791E+02  0.30804320240E+02  0.21515962652E+03  0.25311242483E+03  0.12509000000E+03 0.  0.
         25    1    4    4    0    0  0.20594989922E+02  0.62285228303E+02  0.34654427830E+03  0.37422459593E+03  0.12509000000E+03 0.  0.
<mgrwt>
<rscale>  2 0.46291363E+03</rscale>
<asrwt>0</asrwt>
<pdfrwt beam="1">  1       21 0.11105801E+00 0.46291363E+03</pdfrwt>
<pdfrwt beam="2">  1       21 0.10432112E-01 0.46291363E+03</pdfrwt>
<totfact> 0.43746368E+04</totfact>
</mgrwt>
</event>
<event>
 7    0  0.4725730E-002  0.4662214E+03  0.7546771E-02  0.1022992E+00
         21   -1    0    0  502  501  0.00000000000E+00  0.00000000000E+00  0.20609036610E+03  0.20609036610E+03  0.00000000000E+00 0.  1.
         21   -1    0    0  501  502 -0.00000000000E+00 -0.00000000000E+00 -0.26367367981E+03  0.26367367981E+03  0.00000000000E+00 0.  1.
      99926    2    1    2    0    0  0.17763568394E-14  0.00000000000E+00 -0.57583313705E+02  0.46976404591E+03  0.46622142895E+03 0.  0.
      99925    2    3    3    0    0 -0.13397751486E+02  0.12126789108E+03 -0.16505301133E+02  0.29026387218E+03  0.26285982838E+03 0.  0.
         25    1    4    4    0    0 -0.14396891941E+02  0.27074396388E+02 -0.32576798451E+02  0.13284972463E+03  0.12509000000E+03 0.  0.
         25    1    3    3    0    0  0.13397751486E+02 -0.12126789108E+03 -0.41078012573E+02  0.17950017373E+03  0.12509000000E+03 0.  0.
         25    1    4    4    0    0  0.99914045510E+00  0.94193494688E+02  0.16071497318E+02  0.15741414755E+03  0.12509000000E+03 0.  0.
<mgrwt>
<rscale>  2 0.46622143E+03</rscale>
<asrwt>0</asrwt>
<pdfrwt beam="1">  1       21 0.30307407E-01 0.46622143E+03</pdfrwt>
<pdfrwt beam="2">  1       21 0.38775541E-01 0.46622143E+03</pdfrwt>
<totfact> 0.61759996E+04</totfact>
</mgrwt>
</event>
<event>
 7    0  0.4725730E-002  0.4521998E+03  0.7546771E-02  0.1027068E+00
         21   -1    0    0  502  501  0.00000000000E+00  0.00000000000E+00  0.37403420539E+02  0.37403420539E+02  0.00000000000E+00 0.  1.
         21   -1    0    0  501  502 -0.00000000000E+00 -0.00000000000E+00 -0.13667508559E+04  0.13667508559E+04  0.00000000000E+00 0.  1.
      99926    2    1    2    0    0  0.35527136788E-14  0.53290705182E-14 -0.13293474354E+04  0.14041542765E+04  0.45219976575E+03 0.  0.
      99925    2    3    3    0    0  0.31255337486E+02  0.15549185821E+02 -0.51252417956E+03  0.57707120164E+03  0.26289059289E+03 0.  0.
         25    1    4    4    0    0  0.90563528550E+01  0.38664632682E+02 -0.31305825268E+03  0.33945537118E+03  0.12509000000E+03 0.  0.
         25    1    4    4    0    0  0.22198984631E+02 -0.23115446861E+02 -0.19946592688E+03  0.23761583047E+03  0.12509000000E+03 0.  0.
         25    1    3    3    0    0 -0.31255337486E+02 -0.15549185821E+02 -0.81682325583E+03  0.82708307483E+03  0.12509000000E+03 0.  0.
<mgrwt>
<rscale>  2 0.45219977E+03</rscale>
<asrwt>0</asrwt>
<pdfrwt beam="1">  1       21 0.55005049E-02 0.45219977E+03</pdfrwt>
<pdfrwt beam="2">  1       21 0.20099270E+00 0.45219977E+03</pdfrwt>
<totfact> 0.26799981E+04</totfact>
</mgrwt>
</event>
<event>
 7    0  0.4725730E-002  0.4837354E+03  0.7546771E-02  0.1018114E+00
         21   -1    0    0  502  501  0.00000000000E+00  0.00000000000E+00  0.43696413809E+03  0.43696413809E+03  0.00000000000E+00 0. -1.
         21   -1    0    0  501  502 -0.00000000000E+00 -0.00000000000E+00 -0.13387824149E+03  0.13387824149E+03  0.00000000000E+00 0. -1.
      99926    2    1    2    0    0  0.35527136788E-14  0.00000000000E+00  0.30308589660E+03  0.57084237959E+03  0.48373542522E+03 0.  0.
      99925    2    3    3    0    0  0.30306314516E+02 -0.92813187148E+02  0.30177690679E+03  0.41215406255E+03  0.26318987329E+03 0.  0.
         25    1    4    4    0    0  0.49297427130E+02 -0.25600120470E+02  0.13422770760E+03  0.19170338567E+03  0.12509000000E+03 0.  0.
         25    1    3    3    0    0 -0.30306314516E+02  0.92813187148E+02  0.13089898090E+01  0.15868831703E+03  0.12509000000E+03 0.  0.
         25    1    4    4    0    0 -0.18991112614E+02 -0.67213066679E+02  0.16754919918E+03  0.22045067688E+03  0.12509000000E+03 0.  0.
<mgrwt>
<rscale>  2 0.48373543E+03</rscale>
<asrwt>0</asrwt>
<pdfrwt beam="1">  1       21 0.64259432E-01 0.48373543E+03</pdfrwt>
<pdfrwt beam="2">  1       21 0.19687977E-01 0.48373543E+03</pdfrwt>
<totfact> 0.48505646E+04</totfact>
</mgrwt>
</event>
<event>
 7    0  0.4725730E-002  0.4535885E+03  0.7546771E-02  0.1026657E+00
         21   -1    0    0  502  501  0.00000000000E+00  0.00000000000E+00  0.23119783926E+03  0.23119783926E+03  0.00000000000E+00 0. -1.
         21   -1    0    0  501  502 -0.00000000000E+00 -0.00000000000E+00 -0.22247451639E+03  0.22247451639E+03  0.00000000000E+00 0. -1.
      99926    2    1    2    0    0  0.00000000000E+00  0.00000000000E+00  0.87233228679E+01  0.45367235566E+03  0.45358848081E+03 0.  0.
      99925    2    3    3    0    0  0.55426939623E+02 -0.96386716037E+02 -0.62037973076E+01  0.28564595392E+03  0.26304482360E+03 0.  0.
         25    1    4    4    0    0  0.68149007469E+02 -0.60222272688E+02 -0.69262050231E+01  0.15481114224E+03  0.12509000000E+03 0.  0.
         25    1    4    4    0    0 -0.12722067846E+02 -0.36164443349E+02  0.72240771546E+00  0.13083481167E+03  0.12509000000E+03 0.  0.
         25    1    3    3    0    0 -0.55426939623E+02  0.96386716037E+02  0.14927120176E+02  0.16802640174E+03  0.12509000000E+03 0.  0.
<mgrwt>
<rscale>  2 0.45358848E+03</rscale>
<asrwt>0</asrwt>
<pdfrwt beam="1">  1       21 0.33999682E-01 0.45358848E+03</pdfrwt>
<pdfrwt beam="2">  1       21 0.32716841E-01 0.45358848E+03</pdfrwt>
<totfact> 0.69421736E+04</totfact>
</mgrwt>
</event>
<event>
 7    0  0.4725730E-002  0.4514483E+03  0.7546771E-02  0.1027291E+00
         21   -1    0    0  502  501  0.00000000000E+00  0.00000000000E+00  0.21666089998E+03  0.21666089998E+03  0.00000000000E+00 0. -1.
         21   -1    0    0  501  502 -0.00000000000E+00 -0.00000000000E+00 -0.23516657704E+03  0.23516657704E+03  0.00000000000E+00 0. -1.
      99926    2    1    2    0    0  0.35527136788E-14  0.00000000000E+00 -0.18505677064E+02  0.45182747702E+03  0.45144834578E+03 0.  0.
      99925    2    3    3    0    0  0.29514629135E+02  0.88630209106E+02  0.46085315494E+02  0.28287206361E+03  0.26299490636E+03 0.  0.
         25    1    4    4    0    0  0.54058343229E+02  0.38346409360E+02  0.14997659853E+02  0.14235585511E+03  0.12509000000E+03 0.  0.
         25    1    3    3    0    0 -0.29514629135E+02 -0.88630209106E+02 -0.64590992557E+02  0.16895541340E+03  0.12509000000E+03 0.  0.
         25    1    4    4    0    0 -0.24543714094E+02  0.50283799746E+02  0.31087655641E+02  0.14051620850E+03  0.12509000000E+03 0.  0.
<mgrwt>
<rscale>  2 0.45144835E+03</rscale>
<asrwt>0</asrwt>
<pdfrwt beam="1">  1       21 0.31861897E-01 0.45144835E+03</pdfrwt>
<pdfrwt beam="2">  1       21 0.34583320E-01 0.45144835E+03</pdfrwt>
<totfact> 0.70762996E+04</totfact>
</mgrwt>
</event>
<event>
 7    0  0.4725730E-002  0.4551887E+03  0.7546771E-02  0.1026186E+00
         21   -1    0    0  502  501  0.00000000000E+00  0.00000000000E+00  0.18481100626E+04  0.18481100626E+04  0.00000000000E+00 0. -1.
         21   -1    0    0  501  502 -0.00000000000E+00 -0.00000000000E+00 -0.28028194462E+02  0.28028194462E+02  0.00000000000E+00 0. -1.
      99926    2    1    2    0    0 -0.71054273576E-14  0.00000000000E+00  0.18200818682E+04  0.18761382571E+04  0.45518870031E+03 0.  0.
      99925    2    3    3    0    0 -0.52992864853E+02 -0.34771437679E+02  0.75778183887E+03  0.80462243502E+03  0.26299553421E+03 0.  0.
         25    1    3    3    0    0  0.52992864853E+02  0.34771437679E+02  0.10623000293E+04  0.10715158221E+04  0.12509000000E+03 0.  0.
         25    1    4    4    0    0 -0.25135906676E+02 -0.46320705729E+02  0.30354769231E+03  0.33251485860E+03  0.12509000000E+03 0.  0.
         25    1    4    4    0    0 -0.27856958177E+02  0.11549268050E+02  0.45423414656E+03  0.47210757642E+03  0.12509000000E+03 0.  0.
<mgrwt>
<rscale>  2 0.45518870E+03</rscale>
<asrwt>0</asrwt>
<pdfrwt beam="1">  1       21 0.27178081E+00 0.45518870E+03</pdfrwt>
<pdfrwt beam="2">  1       21 0.41217946E-02 0.45518870E+03</pdfrwt>
<totfact> 0.15816144E+04</totfact>
</mgrwt>
</event>
<event>
 7    0  0.4725730E-002  0.4444124E+03  0.7546771E-02  0.1029402E+00
         21   -1    0    0  502  501  0.00000000000E+00  0.00000000000E+00  0.16596252879E+03  0.16596252879E+03  0.00000000000E+00 0. -1.
         21   -1    0    0  501  502 -0.00000000000E+00 -0.00000000000E+00 -0.29751044163E+03  0.29751044163E+03  0.00000000000E+00 0. -1.
      99926    2    1    2    0    0  0.00000000000E+00  0.00000000000E+00 -0.13154791284E+03  0.46347297042E+03  0.44441235462E+03 0.  0.
      99925    2    3    3    0    0 -0.91569804072E+02  0.21469327582E+02 -0.39721000928E+02  0.28201870374E+03  0.26288938796E+03 0.  0.
         25    1    4    4    0    0 -0.62158391657E+01  0.22660298269E+02 -0.26456621570E+02  0.12999841037E+03  0.12509000000E+03 0.  0.
         25    1    4    4    0    0 -0.85353964907E+02 -0.11909706862E+01 -0.13264379359E+02  0.15202029337E+03  0.12509000000E+03 0.  0.
         25    1    3    3    0    0  0.91569804072E+02 -0.21469327582E+02 -0.91826911911E+02  0.18145426668E+03  0.12509000000E+03 0.  0.
<mgrwt>
<rscale>  2 0.44441235E+03</rscale>
<asrwt>0</asrwt>
<pdfrwt beam="1">  1       21 0.24406255E-01 0.44441235E+03</pdfrwt>
<pdfrwt beam="2">  1       21 0.43751535E-01 0.44441235E+03</pdfrwt>
<totfact> 0.73942776E+04</totfact>
</mgrwt>
</event>
<event>
 7    0  0.4725730E-002  0.4380558E+03  0.7546771E-02  0.1031345E+00
         21   -1    0    0  502  501  0.00000000000E+00  0.00000000000E+00  0.97911679072E+03  0.97911679072E+03  0.00000000000E+00 0. -1.
         21   -1    0    0  501  502 -0.00000000000E+00 -0.00000000000E+00 -0.48996429211E+02  0.48996429211E+02  0.00000000000E+00 0. -1.
      99926    2    1    2    0    0  0.17763568394E-14  0.00000000000E+00  0.93012036151E+03  0.10281132199E+04  0.43805582533E+03 0.  0.
      99925    2    3    3    0    0  0.11155836563E+02 -0.86382691062E+02  0.49694982007E+03  0.56890667808E+03  0.26288640645E+03 0.  0.
         25    1    4    4    0    0  0.43111155400E+02 -0.29346386371E+02  0.25597772044E+03  0.28964095631E+03  0.12509000000E+03 0.  0.
         25    1    4    4    0    0 -0.31955318837E+02 -0.57036304691E+02  0.24097209963E+03  0.27926572177E+03  0.12509000000E+03 0.  0.
         25    1    3    3    0    0 -0.11155836563E+02  0.86382691062E+02  0.43317054144E+03  0.45920654185E+03  0.12509000000E+03 0.  0.
<mgrwt>
<rscale>  2 0.43805583E+03</rscale>
<asrwt>0</asrwt>
<pdfrwt beam="1">  1       21 0.14398775E+00 0.43805583E+03</pdfrwt>
<pdfrwt beam="2">  1       21 0.72053578E-02 0.43805583E+03</pdfrwt>
<totfact> 0.43576155E+04</totfact>
</mgrwt>
</event>
<event>
 7    0  0.4725730E-002  0.4624584E+03  0.7546771E-02  0.1024071E+00
         21   -1    0    0  502  501  0.00000000000E+00  0.00000000000E+00  0.49164430527E+03  0.49164430527E+03  0.00000000000E+00 0.  1.
         21   -1    0    0  501  502 -0.00000000000E+00 -0.00000000000E+00 -0.10875129345E+03  0.10875129345E+03  0.00000000000E+00 0.  1.
      99926    2    1    2    0    0  0.00000000000E+00 -0.71054273576E-14  0.38289301182E+03  0.60039559871E+03  0.46245844835E+03 0.  0.
      99925    2    3    3    0    0 -0.38818656321E+02 -0.43999750458E+02  0.10344692562E+03  0.28865774520E+03  0.26301931740E+03 0.  0.
         25    1    3    3    0    0  0.38818656321E+02  0.43999750458E+02  0.27944608620E+03  0.31173785351E+03  0.12509000000E+03 0.  0.
         25    1    4    4    0    0  0.14042855727E+02 -0.15137301025E+02  0.73785098139E+02  0.14669045125E+03  0.12509000000E+03 0.  0.
         25    1    4    4    0    0 -0.52861512049E+02 -0.28862449433E+02  0.29661827477E+02  0.14196729395E+03  0.12509000000E+03 0.  0.
<mgrwt>
<rscale>  2 0.46245845E+03</rscale>
<asrwt>0</asrwt>
<pdfrwt beam="1">  1       21 0.72300632E-01 0.46245845E+03</pdfrwt>
<pdfrwt beam="2">  1       21 0.15992837E-01 0.46245845E+03</pdfrwt>
<totfact> 0.55320919E+04</totfact>
</mgrwt>
</event>
<event>
 7    0  0.4725730E-002  0.4537184E+03  0.7546771E-02  0.1026619E+00
         21   -1    0    0  502  501  0.00000000000E+00  0.00000000000E+00  0.20986906484E+03  0.20986906484E+03  0.00000000000E+00 0. -1.
         21   -1    0    0  501  502 -0.00000000000E+00 -0.00000000000E+00 -0.24522473304E+03  0.24522473304E+03  0.00000000000E+00 0. -1.
      99926    2    1    2    0    0  0.00000000000E+00  0.00000000000E+00 -0.35355668199E+02  0.45509379789E+03  0.45371835052E+03 0.  0.
      99925    2    3    3    0    0 -0.88830960288E+02 -0.66200813005E+02 -0.38760984733E+02  0.28796333558E+03  0.26295813651E+03 0.  0.
         25    1    4    4    0    0 -0.66479293392E+02 -0.14154259359E+02 -0.48253087906E+02  0.15031868846E+03  0.12509000000E+03 0.  0.
         25    1    4    4    0    0 -0.22351666896E+02 -0.52046553646E+02  0.94921031728E+01  0.13764464712E+03  0.12509000000E+03 0.  0.
         25    1    3    3    0    0  0.88830960288E+02  0.66200813005E+02  0.34053165338E+01  0.16713046230E+03  0.12509000000E+03 0.  0.
<mgrwt>
<rscale>  2 0.45371835E+03</rscale>
<asrwt>0</asrwt>
<pdfrwt beam="1">  1       21 0.30863098E-01 0.45371835E+03</pdfrwt>
<pdfrwt beam="2">  1       21 0.36062461E-01 0.45371835E+03</pdfrwt>
<totfact> 0.69244338E+04</totfact>
</mgrwt>
</event>
<event>
 7    0  0.4725730E-002  0.4489493E+03  0.7546771E-02  0.1028036E+00
         21   -1    0    0  502  501  0.00000000000E+00  0.00000000000E+00  0.15499121755E+04  0.15499121755E+04  0.00000000000E+00 0.  1.
         21   -1    0    0  501  502 -0.00000000000E+00 -0.00000000000E+00 -0.32510786930E+02  0.32510786930E+02  0.00000000000E+00 0.  1.
      99926    2    1    2    0    0  0.00000000000E+00  0.00000000000E+00  0.15174013886E+04  0.15824229625E+04  0.44894928221E+03 0.  0.
      99925    2    3    3    0    0  0.85831145340E+02  0.17631545509E+02  0.11790142966E+04  0.12111667315E+04  0.26300624130E+03 0.  0.
         25    1    4    4    0    0  0.80081873411E+02  0.91308739008E+01  0.55148040339E+03  0.57120453669E+03  0.12509000000E+03 0.  0.
         25    1    3    3    0    0 -0.85831145340E+02 -0.17631545509E+02  0.33838709203E+03  0.37125623100E+03  0.12509000000E+03 0.  0.
         25    1    4    4    0    0  0.57492719298E+01  0.85006716086E+01  0.62753389320E+03  0.63996219479E+03  0.12509000000E+03 0.  0.
<mgrwt>
<rscale>  2 0.44894928E+03</rscale>
<asrwt>0</asrwt>
<pdfrwt beam="1">  1       21 0.22792821E+00 0.44894928E+03</pdfrwt>
<pdfrwt beam="2">  1       21 0.47809991E-02 0.44894928E+03</pdfrwt>
<totfact> 0.22886045E+04</totfact>
</mgrwt>
</event>
<event>
 7    0  0.4725730E-002  0.4565436E+03  0.7546771E-02  0.1025788E+00
         21   -1    0    0  502  501  0.00000000000E+00  0.00000000000E+00  0.16685450595E+04  0.16685450595E+04  0.00000000000E+00 0. -1.
         21   -1    0    0  501  502 -0.00000000000E+00 -0.00000000000E+00 -0.31229618738E+02  0.31229618738E+02  0.00000000000E+00 0. -1.
      99926    2    1    2    0    0  0.00000000000E+00  0.00000000000E+00  0.16373154407E+04  0.16997746782E+04  0.45654364985E+03 0.  0.
      99925    2    3    3    0    0  0.79849948945E+02  0.64748119788E+02  0.12179136209E+04  0.12502040742E+04  0.26292262349E+03 0.  0.
         25    1    4    4    0    0  0.64114154091E+02  0.32773057143E+02  0.78557073786E+03  0.79871996989E+03  0.12509000000E+03 0.  0.
         25    1    3    3    0    0 -0.79849948945E+02 -0.64748119788E+02  0.41940181985E+03  0.44957060397E+03  0.12509000000E+03 0.  0.
         25    1    4    4    0    0  0.15735794854E+02  0.31975062645E+02  0.43234288304E+03  0.45148410436E+03  0.12509000000E+03 0.  0.
<mgrwt>
<rscale>  2 0.45654365E+03</rscale>
<asrwt>0</asrwt>
<pdfrwt beam="1">  1       21 0.24537421E+00 0.45654365E+03</pdfrwt>
<pdfrwt beam="2">  1       21 0.45925921E-02 0.45654365E+03</pdfrwt>
<totfact> 0.19037155E+04</totfact>
</mgrwt>
</event>
<event>
 7    0  0.4725730E-002  0.4458193E+03  0.7546771E-02  0.1028976E+00
         21   -1    0    0  502  501  0.00000000000E+00  0.00000000000E+00  0.78079740128E+03  0.78079740128E+03  0.00000000000E+00 0. -1.
         21   -1    0    0  501  502 -0.00000000000E+00 -0.00000000000E+00 -0.63638427705E+02  0.63638427705E+02  0.00000000000E+00 0. -1.
      99926    2    1    2    0    0  0.00000000000E+00  0.14210854715E-13  0.71715897358E+03  0.84443582899E+03  0.44581933100E+03 0.  0.
      99925    2    3    3    0    0 -0.12100305926E+02 -0.99461696942E+02  0.39958021885E+03  0.48870725252E+03  0.26292847089E+03 0.  0.
         25    1    3    3    0    0  0.12100305926E+02  0.99461696942E+02  0.31757875472E+03  0.35572857647E+03  0.12509000000E+03 0.  0.
         25    1    4    4    0    0  0.54125345783E+01 -0.83711580924E+02  0.25427774287E+03  0.29553612796E+03  0.12509000000E+03 0.  0.
         25    1    4    4    0    0 -0.17512840504E+02 -0.15750116018E+02  0.14530247598E+03  0.19317112456E+03  0.12509000000E+03 0.  0.
<mgrwt>
<rscale>  2 0.44581933E+03</rscale>
<asrwt>0</asrwt>
<pdfrwt beam="1">  1       21 0.11482314E+00 0.44581933E+03</pdfrwt>
<pdfrwt beam="2">  1       21 0.93585928E-02 0.44581933E+03</pdfrwt>
<totfact> 0.49133536E+04</totfact>
</mgrwt>
</event>
<event>
 7    0  0.4725730E-002  0.4305392E+03  0.7546771E-02  0.1033690E+00
         21   -1    0    0  502  501  0.00000000000E+00  0.00000000000E+00  0.60767575116E+02  0.60767575116E+02  0.00000000000E+00 0.  1.
         21   -1    0    0  501  502 -0.00000000000E+00 -0.00000000000E+00 -0.76259433397E+03  0.76259433397E+03  0.00000000000E+00 0.  1.
      99926    2    1    2    0    0  0.00000000000E+00  0.00000000000E+00 -0.70182675886E+03  0.82336190909E+03  0.43053923618E+03 0.  0.
      99925    2    3    3    0    0 -0.42257979700E+02  0.77150496852E+02 -0.43630909171E+03  0.51695519298E+03  0.26294317261E+03 0.  0.
         25    1    3    3    0    0  0.42257979700E+02 -0.77150496852E+02 -0.26551766714E+03  0.30640671611E+03  0.12509000000E+03 0.  0.
         25    1    4    4    0    0  0.85158576573E-01  0.15843071367E+02 -0.15165110024E+03  0.19722214497E+03  0.12509000000E+03 0.  0.
         25    1    4    4    0    0 -0.42343138276E+02  0.61307425485E+02 -0.28465799148E+03  0.31973304801E+03  0.12509000000E+03 0.  0.
<mgrwt>
<rscale>  2 0.43053924E+03</rscale>
<asrwt>0</asrwt>
<pdfrwt beam="1">  1       21 0.89364092E-02 0.43053924E+03</pdfrwt>
<pdfrwt beam="2">  1       21 0.11214621E+00 0.43053924E+03</pdfrwt>
<totfact> 0.56796755E+04</totfact>
</mgrwt>
</event>
<event>
 7    0  0.4725730E-002  0.4552341E+03  0.7546771E-02  0.1026173E+00
         21   -1    0    0  502  501  0.00000000000E+00  0.00000000000E+00  0.45763738799E+03  0.45763738799E+03  0.00000000000E+00 0.  1.
         21   -1    0    0  501  502 -0.00000000000E+00 -0.00000000000E+00 -0.11321087633E+03  0.11321087633E+03  0.00000000000E+00 0.  1.
      99926    2    1    2    0    0  0.00000000000E+00  0.00000000000E+00  0.34442651166E+03  0.57084826433E+03  0.45523413640E+03 0.  0.
      99925    2    3    3    0    0  0.56756380316E+02 -0.96658598573E+02  0.23803831028E+03  0.37202641221E+03  0.26301567032E+03 0.  0.
         25    1    4    4    0    0  0.30029664336E+02 -0.29470394730E+02  0.16134898214E+03  0.20844972306E+03  0.12509000000E+03 0.  0.
         25    1    4    4    0    0  0.26726715980E+02 -0.67188203843E+02  0.76689328135E+02  0.16357668915E+03  0.12509000000E+03 0.  0.
         25    1    3    3    0    0 -0.56756380316E+02  0.96658598573E+02  0.10638820139E+03  0.19882185212E+03  0.12509000000E+03 0.  0.
<mgrwt>
<rscale>  2 0.45523414E+03</rscale>
<asrwt>0</asrwt>
<pdfrwt beam="1">  1       21 0.67299615E-01 0.45523414E+03</pdfrwt>
<pdfrwt beam="2">  1       21 0.16648659E-01 0.45523414E+03</pdfrwt>
<totfact> 0.60397598E+04</totfact>
</mgrwt>
</event>
<event>
 7    0  0.4725730E-002  0.4599705E+03  0.7546771E-02  0.1024790E+00
         21   -1    0    0  502  501  0.00000000000E+00  0.00000000000E+00  0.83821920754E+03  0.83821920754E+03  0.00000000000E+00 0.  1.
         21   -1    0    0  501  502 -0.00000000000E+00 -0.00000000000E+00 -0.63101883419E+02  0.63101883419E+02  0.00000000000E+00 0.  1.
      99926    2    1    2    0    0 -0.14210854715E-13  0.14210854715E-13  0.77511732412E+03  0.90132109095E+03  0.45997048042E+03 0.  0.
      99925    2    3    3    0    0 -0.74601743500E+02  0.87688765245E+02  0.53365450417E+03  0.60601355431E+03  0.26307899670E+03 0.  0.
         25    1    4    4    0    0 -0.23358419692E+02  0.75571452997E+02  0.23134199157E+03  0.27463300137E+03  0.12509000000E+03 0.  0.
         25    1    3    3    0    0  0.74601743500E+02 -0.87688765245E+02  0.24146281995E+03  0.29530753665E+03  0.12509000000E+03 0.  0.
         25    1    4    4    0    0 -0.51243323808E+02  0.12117312248E+02  0.30231251260E+03  0.33138055294E+03  0.12509000000E+03 0.  0.
<mgrwt>
<rscale>  2 0.45997048E+03</rscale>
<asrwt>0</asrwt>
<pdfrwt beam="1">  1       21 0.12326752E+00 0.45997048E+03</pdfrwt>
<pdfrwt beam="2">  1       21 0.92796893E-02 0.45997048E+03</pdfrwt>
<totfact> 0.41536451E+04</totfact>
</mgrwt>
</event>
<event>
 7    0  0.4725730E-002  0.4536850E+03  0.7546771E-02  0.1026629E+00
         21   -1    0    0  502  501  0.00000000000E+00  0.00000000000E+00  0.10636926656E+04  0.10636926656E+04  0.00000000000E+00 0. -1.
         21   -1    0    0  501  502 -0.00000000000E+00 -0.00000000000E+00 -0.48376307200E+02  0.48376307200E+02  0.00000000000E+00 0. -1.
      99926    2    1    2    0    0  0.00000000000E+00  0.00000000000E+00  0.10153163584E+04  0.11120689728E+04  0.45368501477E+03 0.  0.
      99925    2    3    3    0    0 -0.85603958133E+02 -0.71519229003E+02  0.66126042052E+03  0.72034693740E+03  0.26304244661E+03 0.  0.
         25    1    4    4    0    0 -0.33384921399E+02 -0.11832927418E+02  0.39258514101E+03  0.41355189782E+03  0.12509000000E+03 0.  0.
         25    1    4    4    0    0 -0.52219036734E+02 -0.59686301585E+02  0.26867527950E+03  0.30679503958E+03  0.12509000000E+03 0.  0.
         25    1    3    3    0    0  0.85603958133E+02  0.71519229003E+02  0.35405593788E+03  0.39172203539E+03  0.12509000000E+03 0.  0.
<mgrwt>
<rscale>  2 0.45368501E+03</rscale>
<asrwt>0</asrwt>
<pdfrwt beam="1">  1       21 0.15642538E+00 0.45368501E+03</pdfrwt>
<pdfrwt beam="2">  1       21 0.71141635E-02 0.45368501E+03</pdfrwt>
<totfact> 0.35436196E+04</totfact>
</mgrwt>
</event>
<event>
 7    0  0.4725730E-002  0.4186527E+03  0.7546771E-02  0.1037506E+00
         21   -1    0    0  502  501  0.00000000000E+00  0.00000000000E+00  0.21612328210E+02  0.21612328210E+02  0.00000000000E+00 0.  1.
         21   -1    0    0  501  502 -0.00000000000E+00 -0.00000000000E+00 -0.20274318361E+04  0.20274318361E+04  0.00000000000E+00 0.  1.
      99926    2    1    2    0    0 -0.17763568394E-14  0.71054273576E-14 -0.20058195079E+04  0.20490441643E+04  0.41865270698E+03 0.  0.
      99925    2    3    3    0    0  0.10902904431E+02 -0.50228786010E+02 -0.15705202254E+04  0.15932209774E+04  0.26301615966E+03 0.  0.
         25    1    3    3    0    0 -0.10902904431E+02  0.50228786010E+02 -0.43529928256E+03  0.45582318695E+03  0.12509000000E+03 0.  0.
         25    1    4    4    0    0  0.41698451294E+02 -0.77296037131E+01 -0.74015555033E+03  0.75184855815E+03  0.12509000000E+03 0.  0.
         25    1    4    4    0    0 -0.30795546863E+02 -0.42499182297E+02 -0.83036467503E+03  0.84137241923E+03  0.12509000000E+03 0.  0.
<mgrwt>
<rscale>  2 0.41865271E+03</rscale>
<asrwt>0</asrwt>
<pdfrwt beam="1">  1       21 0.31782837E-02 0.41865271E+03</pdfrwt>
<pdfrwt beam="2">  1       21 0.29815173E+00 0.41865271E+03</pdfrwt>
<totfact> 0.17322467E+04</totfact>
</mgrwt>
</event>
<event>
 7    0  0.4725730E-002  0.4487826E+03  0.7546771E-02  0.1028086E+00
         21   -1    0    0  502  501  0.00000000000E+00  0.00000000000E+00  0.77946975249E+02  0.77946975249E+02  0.00000000000E+00 0. -1.
         21   -1    0    0  501  502 -0.00000000000E+00 -0.00000000000E+00 -0.64597057987E+03  0.64597057987E+03  0.00000000000E+00 0. -1.
      99926    2    1    2    0    0  0.00000000000E+00 -0.71054273576E-14 -0.56802360463E+03  0.72391755512E+03  0.44878258790E+03 0.  0.
      99925    2    3    3    0    0  0.32953834443E+02  0.63144312338E+02 -0.48877134872E+03  0.55959595718E+03  0.26301529342E+03 0.  0.
         25    1    4    4    0    0  0.14854665289E+02  0.68614841443E+02 -0.29742717554E+03  0.33021067578E+03  0.12509000000E+03 0.  0.
         25    1    3    3    0    0 -0.32953834443E+02 -0.63144312338E+02 -0.79252255901E+02  0.16432159794E+03  0.12509000000E+03 0.  0.
         25    1    4    4    0    0  0.18099169154E+02 -0.54705291042E+01 -0.19134417318E+03  0.22938528140E+03  0.12509000000E+03 0.  0.
<mgrwt>
<rscale>  2 0.44878259E+03</rscale>
<asrwt>0</asrwt>
<pdfrwt beam="1">  1       21 0.11462790E-01 0.44878259E+03</pdfrwt>
<pdfrwt beam="2">  1       21 0.94995677E-01 0.44878259E+03</pdfrwt>
<totfact> 0.54226938E+04</totfact>
</mgrwt>
</event>
<event>
 7    0  0.4725730E-002  0.4557843E+03  0.7546771E-02  0.1026011E+00
         21   -1    0    0  502  501  0.00000000000E+00  0.00000000000E+00  0.10413242011E+04  0.10413242011E+04  0.00000000000E+00 0. -1.
         21   -1    0    0  501  502 -0.00000000000E+00 -0.00000000000E+00 -0.49873838167E+02  0.49873838167E+02  0.00000000000E+00 0. -1.
      99926    2    1    2    0    0  0.14210854715E-13  0.00000000000E+00  0.99145036289E+03  0.10911980392E+04  0.45578431163E+03 0.  0.
      99925    2    3    3    0    0 -0.66207717039E+02 -0.92484954795E+02  0.60943485029E+03  0.67344178419E+03  0.26301344315E+03 0.  0.
         25    1    4    4    0    0 -0.11219104632E+02 -0.69875998665E+02  0.25187420289E+03  0.28999421663E+03  0.12509000000E+03 0.  0.
         25    1    4    4    0    0 -0.54988612408E+02 -0.22608956130E+02  0.35756064740E+03  0.38344756756E+03  0.12509000000E+03 0.  0.
         25    1    3    3    0    0  0.66207717039E+02  0.92484954795E+02  0.38201551260E+03  0.41775625504E+03  0.12509000000E+03 0.  0.
<mgrwt>
<rscale>  2 0.45578431E+03</rscale>
<asrwt>0</asrwt>
<pdfrwt beam="1">  1       21 0.15313590E+00 0.45578431E+03</pdfrwt>
<pdfrwt beam="2">  1       21 0.73343886E-02 0.45578431E+03</pdfrwt>
<totfact> 0.35582741E+04</totfact>
</mgrwt>
</event>
<event>
 7    0  0.4725730E-002  0.4523569E+03  0.7546771E-02  0.1027022E+00
         21   -1    0    0  502  501  0.00000000000E+00  0.00000000000E+00  0.46975703633E+03  0.46975703633E+03  0.00000000000E+00 0.  1.
         21   -1    0    0  501  502 -0.00000000000E+00 -0.00000000000E+00 -0.10890032528E+03  0.10890032528E+03  0.00000000000E+00 0.  1.
      99926    2    1    2    0    0  0.00000000000E+00 -0.14210854715E-13  0.36085671105E+03  0.57865736161E+03  0.45235691244E+03 0.  0.
      99925    2    3    3    0    0 -0.48297282217E+02 -0.73577495193E+02  0.14246461941E+03  0.31203236454E+03  0.26329024568E+03 0.  0.
         25    1    3    3    0    0  0.48297282217E+02  0.73577495193E+02  0.21839209164E+03  0.26662499706E+03  0.12509000000E+03 0.  0.
         25    1    4    4    0    0 -0.61119827249E+02 -0.24603980048E+02  0.87865404355E+02  0.16645968431E+03  0.12509000000E+03 0.  0.
         25    1    4    4    0    0  0.12822545032E+02 -0.48973515145E+02  0.54599215057E+02  0.14557268024E+03  0.12509000000E+03 0.  0.
<mgrwt>
<rscale>  2 0.45235691E+03</rscale>
<asrwt>0</asrwt>
<pdfrwt beam="1">  1       21 0.69081916E-01 0.45235691E+03</pdfrwt>
<pdfrwt beam="2">  1       21 0.16014754E-01 0.45235691E+03</pdfrwt>
<totfact> 0.61282128E+04</totfact>
</mgrwt>
</event>
<event>
 7    0  0.4725730E-002  0.4562974E+03  0.7546771E-02  0.1025861E+00
         21   -1    0    0  502  501  0.00000000000E+00  0.00000000000E+00  0.10657179489E+04  0.10657179489E+04  0.00000000000E+00 0.  1.
         21   -1    0    0  501  502 -0.00000000000E+00 -0.00000000000E+00 -0.48842035462E+02  0.48842035462E+02  0.00000000000E+00 0.  1.
      99926    2    1    2    0    0  0.00000000000E+00 -0.14210854715E-13  0.10168759134E+04  0.11145599844E+04  0.45629741990E+03 0.  0.
      99925    2    3    3    0    0 -0.12079333866E+02  0.89833751809E+02  0.80835286319E+03  0.85505009273E+03  0.26355321356E+03 0.  0.
         25    1    3    3    0    0  0.12079333866E+02 -0.89833751809E+02  0.20852305024E+03  0.25950989163E+03  0.12509000000E+03 0.  0.
         25    1    4    4    0    0 -0.40613007879E+02  0.69520930140E+02  0.43891018380E+03  0.46343525295E+03  0.12509000000E+03 0.  0.
         25    1    4    4    0    0  0.28533674012E+02  0.20312821668E+02  0.36944267940E+03  0.39161483978E+03  0.12509000000E+03 0.  0.
<mgrwt>
<rscale>  2 0.45629742E+03</rscale>
<asrwt>0</asrwt>
<pdfrwt beam="1">  1       21 0.15672321E+00 0.45629742E+03</pdfrwt>
<pdfrwt beam="2">  1       21 0.71826530E-02 0.45629742E+03</pdfrwt>
<totfact> 0.34636165E+04</totfact>
</mgrwt>
</event>
<event>
 7    0  0.4725730E-002  0.4598107E+03  0.7546771E-02  0.1024836E+00
         21   -1    0    0  502  501  0.00000000000E+00  0.00000000000E+00  0.18024532658E+03  0.18024532658E+03  0.00000000000E+00 0.  1.
         21   -1    0    0  501  502 -0.00000000000E+00 -0.00000000000E+00 -0.29324737824E+03  0.29324737824E+03  0.00000000000E+00 0.  1.
      99926    2    1    2    0    0  0.00000000000E+00  0.71054273576E-14 -0.11300205165E+03  0.47349270482E+03  0.45981069783E+03 0.  0.
      99925    2    3    3    0    0 -0.30235664797E+02  0.60432777568E+02 -0.16944177209E+03  0.32052451802E+03  0.26355101307E+03 0.  0.
         25    1    4    4    0    0 -0.18172103386E+02  0.65505597743E+02 -0.11692203168E+03  0.18422670347E+03  0.12509000000E+03 0.  0.
         25    1    4    4    0    0 -0.12063561411E+02 -0.50728201753E+01 -0.52519740406E+02  0.13629781455E+03  0.12509000000E+03 0.  0.
         25    1    3    3    0    0  0.30235664797E+02 -0.60432777568E+02  0.56439720436E+02  0.15296818680E+03  0.12509000000E+03 0.  0.
<mgrwt>
<rscale>  2 0.45981070E+03</rscale>
<asrwt>0</asrwt>
<pdfrwt beam="1">  1       21 0.26506666E-01 0.45981070E+03</pdfrwt>
<pdfrwt beam="2">  1       21 0.43124614E-01 0.45981070E+03</pdfrwt>
<totfact> 0.64673235E+04</totfact>
</mgrwt>
</event>
<event>
 7    0  0.4725730E-002  0.4559371E+03  0.7546771E-02  0.1025966E+00
         21   -1    0    0  502  501  0.00000000000E+00  0.00000000000E+00  0.58394825984E+03  0.58394825984E+03  0.00000000000E+00 0. -1.
         21   -1    0    0  501  502 -0.00000000000E+00 -0.00000000000E+00 -0.88997029526E+02  0.88997029526E+02  0.00000000000E+00 0. -1.
      99926    2    1    2    0    0  0.71054273576E-14  0.00000000000E+00  0.49495123031E+03  0.67294528937E+03  0.45593710322E+03 0.  0.
      99925    2    3    3    0    0  0.29992870227E+02  0.98952917778E+02  0.24030910908E+03  0.37098275823E+03  0.26303704454E+03 0.  0.
         25    1    3    3    0    0 -0.29992870227E+02 -0.98952917778E+02  0.25464212123E+03  0.30196253113E+03  0.12509000000E+03 0.  0.
         25    1    4    4    0    0  0.33722183255E+02  0.52494850645E+02  0.75432040020E+02  0.15884078742E+03  0.12509000000E+03 0.  0.
         25    1    4    4    0    0 -0.37293130276E+01  0.46458067133E+02  0.16487706906E+03  0.21214197081E+03  0.12509000000E+03 0.  0.
<mgrwt>
<rscale>  2 0.45593710E+03</rscale>
<asrwt>0</asrwt>
<pdfrwt beam="1">  1       21 0.85874742E-01 0.45593710E+03</pdfrwt>
<pdfrwt beam="2">  1       21 0.13087799E-01 0.45593710E+03</pdfrwt>
<totfact> 0.53996915E+04</totfact>
</mgrwt>
</event>
<event>
 7    0  0.4725730E-002  0.4624757E+03  0.7546771E-02  0.1024066E+00
         21   -1    0    0  502  501  0.00000000000E+00  0.00000000000E+00  0.10648309457E+03  0.10648309457E+03  0.00000000000E+00 0.  1.
         21   -1    0    0  501  502 -0.00000000000E+00 -0.00000000000E+00 -0.50215435439E+03  0.50215435439E+03  0.00000000000E+00 0.  1.
      99926    2    1    2    0    0  0.88817841970E-15  0.00000000000E+00 -0.39567125982E+03  0.60863744897E+03  0.46247572740E+03 0.  0.
      99925    2    3    3    0    0  0.59995418919E+01  0.65391817782E+02 -0.11516137331E+03  0.29455881412E+03  0.26304119210E+03 0.  0.
         25    1    4    4    0    0  0.95812927258E+01  0.17668852962E+02 -0.96655366446E+02  0.15935418883E+03  0.12509000000E+03 0.  0.
         25    1    4    4    0    0 -0.35817508339E+01  0.47722964820E+02 -0.18506006867E+02  0.13520462529E+03  0.12509000000E+03 0.  0.
         25    1    3    3    0    0 -0.59995418919E+01 -0.65391817782E+02 -0.28050988651E+03  0.31407863484E+03  0.12509000000E+03 0.  0.
<mgrwt>
<rscale>  2 0.46247573E+03</rscale>
<asrwt>0</asrwt>
<pdfrwt beam="1">  1       21 0.15659279E-01 0.46247573E+03</pdfrwt>
<pdfrwt beam="2">  1       21 0.73846227E-01 0.46247573E+03</pdfrwt>
<totfact> 0.54838764E+04</totfact>
</mgrwt>
</event>
<event>
 7    0  0.4725730E-002  0.4625251E+03  0.7546771E-02  0.1024051E+00
         21   -1    0    0  502  501  0.00000000000E+00  0.00000000000E+00  0.61390463791E+03  0.61390463791E+03  0.00000000000E+00 0. -1.
         21   -1    0    0  501  502 -0.00000000000E+00 -0.00000000000E+00 -0.87118347430E+02  0.87118347430E+02  0.00000000000E+00 0. -1.
      99926    2    1    2    0    0  0.14210854715E-13  0.00000000000E+00  0.52678629047E+03  0.70102298534E+03  0.46252505893E+03 0.  0.
      99925    2    3    3    0    0 -0.10949134769E+03 -0.49634231677E+02  0.32750846256E+03  0.43680513398E+03  0.26284029343E+03 0.  0.
         25    1    4    4    0    0 -0.50529878947E+02  0.32588137682E+01  0.11218941407E+03  0.17549319435E+03  0.12509000000E+03 0.  0.
         25    1    4    4    0    0 -0.58961468748E+02 -0.52893045445E+02  0.21531904849E+03  0.26131193963E+03  0.12509000000E+03 0.  0.
         25    1    3    3    0    0  0.10949134769E+03  0.49634231677E+02  0.19927782792E+03  0.26421785135E+03  0.12509000000E+03 0.  0.
<mgrwt>
<rscale>  2 0.46252506E+03</rscale>
<asrwt>0</asrwt>
<pdfrwt beam="1">  1       21 0.90280091E-01 0.46252506E+03</pdfrwt>
<pdfrwt beam="2">  1       21 0.12811522E-01 0.46252506E+03</pdfrwt>
<totfact> 0.49830248E+04</totfact>
</mgrwt>
</event>
<event>
 7    0  0.4725730E-002  0.4659203E+03  0.7546771E-02  0.1023078E+00
         21   -1    0    0  502  501  0.00000000000E+00  0.00000000000E+00  0.58963389583E+03  0.58963389583E+03  0.00000000000E+00 0.  1.
         21   -1    0    0  501  502 -0.00000000000E+00 -0.00000000000E+00 -0.92040878777E+02  0.92040878777E+02  0.00000000000E+00 0.  1.
      99926    2    1    2    0    0  0.00000000000E+00  0.00000000000E+00  0.49759301705E+03  0.68167477461E+03  0.46592025897E+03 0.  0.
      99925    2    3    3    0    0  0.61180388995E+02 -0.97563444067E+02  0.37393692391E+03  0.47143680685E+03  0.26298702282E+03 0.  0.
         25    1    3    3    0    0 -0.61180388995E+02  0.97563444067E+02  0.12365609315E+03  0.21023796776E+03  0.12509000000E+03 0.  0.
         25    1    4    4    0    0  0.17579056953E+02 -0.70711399172E+02  0.24537224664E+03  0.28489326552E+03  0.12509000000E+03 0.  0.
         25    1    4    4    0    0  0.43601332042E+02 -0.26852044895E+02  0.12856467726E+03  0.18654354133E+03  0.12509000000E+03 0.  0.
<mgrwt>
<rscale>  2 0.46592026E+03</rscale>
<asrwt>0</asrwt>
<pdfrwt beam="1">  1       21 0.86710866E-01 0.46592026E+03</pdfrwt>
<pdfrwt beam="2">  1       21 0.13535424E-01 0.46592026E+03</pdfrwt>
<totfact> 0.49509734E+04</totfact>
</mgrwt>
</event>
<event>
 7    0  0.4725730E-002  0.4576497E+03  0.7546771E-02  0.1025465E+00
         21   -1    0    0  502  501  0.00000000000E+00  0.00000000000E+00  0.38276696307E+03  0.38276696307E+03  0.00000000000E+00 0.  1.
         21   -1    0    0  501  502 -0.00000000000E+00 -0.00000000000E+00 -0.13679556433E+03  0.13679556433E+03  0.00000000000E+00 0.  1.
      99926    2    1    2    0    0  0.00000000000E+00  0.00000000000E+00  0.24597139873E+03  0.51956252740E+03  0.45764974695E+03 0.  0.
      99925    2    3    3    0    0 -0.40239769203E+02 -0.76184120388E+02  0.24183600400E+03  0.36761559978E+03  0.26312224753E+03 0.  0.
         25    1    4    4    0    0 -0.77180003243E+01  0.24441949028E+01  0.10212543125E+03  0.16168689937E+03  0.12509000000E+03 0.  0.
         25    1    3    3    0    0  0.40239769203E+02  0.76184120388E+02  0.41353947381E+01  0.15194692762E+03  0.12509000000E+03 0.  0.
         25    1    4    4    0    0 -0.32521768879E+02 -0.78628315291E+02  0.13971057274E+03  0.20592870041E+03  0.12509000000E+03 0.  0.
<mgrwt>
<rscale>  2 0.45764975E+03</rscale>
<asrwt>0</asrwt>
<pdfrwt beam="1">  1       21 0.56289259E-01 0.45764975E+03</pdfrwt>
<pdfrwt beam="2">  1       21 0.20116995E-01 0.45764975E+03</pdfrwt>
<totfact> 0.62590796E+04</totfact>
</mgrwt>
</event>
<event>
 7    0  0.4725730E-002  0.4370877E+03  0.7546771E-02  0.1031644E+00
         21   -1    0    0  502  501  0.00000000000E+00  0.00000000000E+00  0.68228457362E+03  0.68228457362E+03  0.00000000000E+00 0.  1.
         21   -1    0    0  501  502 -0.00000000000E+00 -0.00000000000E+00 -0.70002193488E+02  0.70002193488E+02  0.00000000000E+00 0.  1.
      99926    2    1    2    0    0  0.35527136788E-14 -0.28421709430E-13  0.61228238013E+03  0.75228676711E+03  0.43708771082E+03 0.  0.
      99925    2    3    3    0    0 -0.23170283076E+02  0.92205101136E+02  0.40831313481E+03  0.49481909179E+03  0.26284534398E+03 0.  0.
         25    1    3    3    0    0  0.23170283076E+02 -0.92205101136E+02  0.20396924533E+03  0.25746767532E+03  0.12509000000E+03 0.  0.
         25    1    4    4    0    0 -0.21822834778E+02  0.81689031794E+02  0.25846355065E+03  0.29933300711E+03  0.12509000000E+03 0.  0.
         25    1    4    4    0    0 -0.13474482989E+01  0.10516069342E+02  0.14984958416E+03  0.19548608468E+03  0.12509000000E+03 0.  0.
<mgrwt>
<rscale>  2 0.43708771E+03</rscale>
<asrwt>0</asrwt>
<pdfrwt beam="1">  1       21 0.10033596E+00 0.43708771E+03</pdfrwt>
<pdfrwt beam="2">  1       21 0.10294441E-01 0.43708771E+03</pdfrwt>
<totfact> 0.57880065E+04</totfact>
</mgrwt>
</event>
<event>
 7    0  0.4725730E-002  0.4576129E+03  0.7546771E-02  0.1025476E+00
         21   -1    0    0  502  501  0.00000000000E+00  0.00000000000E+00  0.48722512158E+02  0.48722512158E+02  0.00000000000E+00 0. -1.
         21   -1    0    0  501  502 -0.00000000000E+00 -0.00000000000E+00 -0.10745012712E+04  0.10745012712E+04  0.00000000000E+00 0. -1.
      99926    2    1    2    0    0  0.00000000000E+00  0.17763568394E-14 -0.10257787590E+04  0.11232237834E+04  0.45761294235E+03 0.  0.
      99925    2    3    3    0    0 -0.11502673101E+03  0.84894786756E+01 -0.65907870719E+03  0.71897181215E+03  0.26312070292E+03 0.  0.
         25    1    4    4    0    0 -0.88620980418E+02 -0.95108969520E+01 -0.42092931855E+03  0.44807715256E+03  0.12509000000E+03 0.  0.
         25    1    4    4    0    0 -0.26405750592E+02  0.18000375628E+02 -0.23814938864E+03  0.27089465959E+03  0.12509000000E+03 0.  0.
         25    1    3    3    0    0  0.11502673101E+03 -0.84894786756E+01 -0.36670005186E+03  0.40425197121E+03  0.12509000000E+03 0.  0.
<mgrwt>
<rscale>  2 0.45761294E+03</rscale>
<asrwt>0</asrwt>
<pdfrwt beam="1">  1       21 0.71650754E-02 0.45761294E+03</pdfrwt>
<pdfrwt beam="2">  1       21 0.15801489E+00 0.45761294E+03</pdfrwt>
<totfact> 0.33991332E+04</totfact>
</mgrwt>
</event>
<event>
 7    0  0.4725730E-002  0.4474911E+03  0.7546771E-02  0.1028473E+00
         21   -1    0    0  502  501  0.00000000000E+00  0.00000000000E+00  0.43316462921E+02  0.43316462921E+02  0.00000000000E+00 0.  1.
         21   -1    0    0  501  502 -0.00000000000E+00 -0.00000000000E+00 -0.11557284584E+04  0.11557284584E+04  0.00000000000E+00 0.  1.
      99926    2    1    2    0    0 -0.35527136788E-14  0.55511151231E-15 -0.11124119955E+04  0.11990449213E+04  0.44749109004E+03 0.  0.
      99925    2    3    3    0    0 -0.21200002790E+02  0.84588158019E+00 -0.98303056865E+03  0.10178344985E+04  0.26303576144E+03 0.  0.
         25    1    3    3    0    0  0.21200002790E+02 -0.84588158019E+00 -0.12938142685E+03  0.18121042285E+03  0.12509000000E+03 0.  0.
         25    1    4    4    0    0  0.17943401698E+02 -0.27700124810E+02 -0.45550294784E+03  0.47351843276E+03  0.12509000000E+03 0.  0.
         25    1    4    4    0    0 -0.39143404488E+02  0.28546006390E+02 -0.52752762082E+03  0.54431606574E+03  0.12509000000E+03 0.  0.
<mgrwt>
<rscale>  2 0.44749109E+03</rscale>
<asrwt>0</asrwt>
<pdfrwt beam="1">  1       21 0.63700682E-02 0.44749109E+03</pdfrwt>
<pdfrwt beam="2">  1       21 0.16996006E+00 0.44749109E+03</pdfrwt>
<totfact> 0.34139923E+04</totfact>
</mgrwt>
</event>
<event>
 7    0  0.4725730E-002  0.4385889E+03  0.7546771E-02  0.1031181E+00
         21   -1    0    0  502  501  0.00000000000E+00  0.00000000000E+00  0.87321731485E+02  0.87321731485E+02  0.00000000000E+00 0. -1.
         21   -1    0    0  501  502 -0.00000000000E+00 -0.00000000000E+00 -0.55072274493E+03  0.55072274493E+03  0.00000000000E+00 0. -1.
      99926    2    1    2    0    0  0.00000000000E+00  0.71054273576E-14 -0.46340101344E+03  0.63804447641E+03  0.43858893582E+03 0.  0.
      99925    2    3    3    0    0  0.76517522872E+02 -0.43303890817E+02 -0.35567224893E+03  0.45100663781E+03  0.26300965842E+03 0.  0.
         25    1    3    3    0    0 -0.76517522872E+02  0.43303890817E+02 -0.10772876452E+03  0.18703783861E+03  0.12509000000E+03 0.  0.
         25    1    4    4    0    0  0.79476041235E+01 -0.36527496697E+01 -0.12612975029E+03  0.17785592203E+03  0.12509000000E+03 0.  0.
         25    1    4    4    0    0  0.68569918749E+02 -0.39651141147E+02 -0.22954249864E+03  0.27315071578E+03  0.12509000000E+03 0.  0.
<mgrwt>
<rscale>  2 0.43858894E+03</rscale>
<asrwt>0</asrwt>
<pdfrwt beam="1">  1       21 0.12841431E-01 0.43858894E+03</pdfrwt>
<pdfrwt beam="2">  1       21 0.80988637E-01 0.43858894E+03</pdfrwt>
<totfact> 0.64329814E+04</totfact>
</mgrwt>
</event>
<event>
 7    0  0.4725730E-002  0.4606624E+03  0.7546771E-02  0.1024589E+00
         21   -1    0    0  502  501  0.00000000000E+00  0.00000000000E+00  0.47603895886E+03  0.47603895886E+03  0.00000000000E+00 0.  1.
         21   -1    0    0  501  502 -0.00000000000E+00 -0.00000000000E+00 -0.11144562409E+03  0.11144562409E+03  0.00000000000E+00 0.  1.
      99926    2    1    2    0    0 -0.71054273576E-14  0.00000000000E+00  0.36459333477E+03  0.58748458296E+03  0.46066238771E+03 0.  0.
      99925    2    3    3    0    0 -0.49365405482E+02 -0.57082303695E+02  0.34464379622E+03  0.44003688090E+03  0.26297866383E+03 0.  0.
         25    1    3    3    0    0  0.49365405482E+02  0.57082303695E+02  0.19949538553E+02  0.14744770206E+03  0.12509000000E+03 0.  0.
         25    1    4    4    0    0 -0.33368190608E+02  0.99461123156E+01  0.18230584744E+03  0.22381977439E+03  0.12509000000E+03 0.  0.
         25    1    4    4    0    0 -0.15997214875E+02 -0.67028416011E+02  0.16233794877E+03  0.21621710651E+03  0.12509000000E+03 0.  0.
<mgrwt>
<rscale>  2 0.46066239E+03</rscale>
<asrwt>0</asrwt>
<pdfrwt beam="1">  1       21 0.70005729E-01 0.46066239E+03</pdfrwt>
<pdfrwt beam="2">  1       21 0.16389062E-01 0.46066239E+03</pdfrwt>
<totfact> 0.56867056E+04</totfact>
</mgrwt>
</event>
<event>
 7    0  0.4725730E-002  0.4572081E+03  0.7546771E-02  0.1025594E+00
         21   -1    0    0  502  501  0.00000000000E+00  0.00000000000E+00  0.17394119476E+03  0.17394119476E+03  0.00000000000E+00 0.  1.
         21   -1    0    0  501  502 -0.00000000000E+00 -0.00000000000E+00 -0.30044533866E+03  0.30044533866E+03  0.00000000000E+00 0.  1.
      99926    2    1    2    0    0  0.14210854715E-13  0.26645352591E-14 -0.12650414390E+03  0.47438653342E+03  0.45720814151E+03 0.  0.
      99925    2    3    3    0    0 -0.10810195826E+03 -0.44855806268E+01 -0.12048390779E+03  0.30888757525E+03  0.26303803583E+03 0.  0.
         25    1    4    4    0    0 -0.17345924857E+02  0.20262089183E+02 -0.53295477635E+02  0.13856171695E+03  0.12509000000E+03 0.  0.
         25    1    3    3    0    0  0.10810195826E+03  0.44855806268E+01 -0.60202361120E+01  0.16549895817E+03  0.12509000000E+03 0.  0.
         25    1    4    4    0    0 -0.90756033401E+02 -0.24747669809E+02 -0.67188430155E+02  0.17032585830E+03  0.12509000000E+03 0.  0.
<mgrwt>
<rscale>  2 0.45720814E+03</rscale>
<asrwt>0</asrwt>
<pdfrwt beam="1">  1       21 0.25579588E-01 0.45720814E+03</pdfrwt>
<pdfrwt beam="2">  1       21 0.44183138E-01 0.45720814E+03</pdfrwt>
<totfact> 0.65947974E+04</totfact>
</mgrwt>
</event>
<event>
 7    0  0.4725730E-002  0.4515130E+03  0.7546771E-02  0.1027272E+00
         21   -1    0    0  502  501  0.00000000000E+00  0.00000000000E+00  0.52074422786E+03  0.52074422786E+03  0.00000000000E+00 0. -1.
         21   -1    0    0  501  502 -0.00000000000E+00 -0.00000000000E+00 -0.97871440236E+02  0.97871440236E+02  0.00000000000E+00 0. -1.
      99926    2    1    2    0    0  0.00000000000E+00  0.00000000000E+00  0.42287278762E+03  0.61861566809E+03  0.45151295696E+03 0.  0.
      99925    2    3    3    0    0  0.21775000201E+02  0.16130246266E+02  0.12149336740E+03  0.29118415081E+03  0.26323608393E+03 0.  0.
         25    1    3    3    0    0 -0.21775000201E+02 -0.16130246266E+02  0.30137942022E+03  0.32743151728E+03  0.12509000000E+03 0.  0.
         25    1    4    4    0    0  0.46393106606E+02  0.22500267442E+02  0.46125486881E+02  0.14294632215E+03  0.12509000000E+03 0.  0.
         25    1    4    4    0    0 -0.24618106405E+02 -0.63700211763E+01  0.75367880522E+02  0.14823782866E+03  0.12509000000E+03 0.  0.
<mgrwt>
<rscale>  2 0.45151296E+03</rscale>
<asrwt>0</asrwt>
<pdfrwt beam="1">  1       21 0.76580032E-01 0.45151296E+03</pdfrwt>
<pdfrwt beam="2">  1       21 0.14392859E-01 0.45151296E+03</pdfrwt>
<totfact> 0.59159070E+04</totfact>
</mgrwt>
</event>
<event>
 7    0  0.4725730E-002  0.4550231E+03  0.7546771E-02  0.1026235E+00
         21   -1    0    0  502  501  0.00000000000E+00  0.00000000000E+00  0.13393681836E+03  0.13393681836E+03  0.00000000000E+00 0.  1.
         21   -1    0    0  501  502 -0.00000000000E+00 -0.00000000000E+00 -0.38646209496E+03  0.38646209496E+03  0.00000000000E+00 0.  1.
      99926    2    1    2    0    0  0.00000000000E+00  0.00000000000E+00 -0.25252527660E+03  0.52039891331E+03  0.45502309135E+03 0.  0.
      99925    2    3    3    0    0 -0.86221489961E+02 -0.50894058593E+02 -0.98368563482E+02  0.29805649534E+03  0.26293906063E+03 0.  0.
         25    1    4    4    0    0 -0.25940773050E+02 -0.60678303427E+02 -0.60267217123E+02  0.15373492047E+03  0.12509000000E+03 0.  0.
         25    1    3    3    0    0  0.86221489961E+02  0.50894058593E+02 -0.15415671312E+03  0.22234241797E+03  0.12509000000E+03 0.  0.
         25    1    4    4    0    0 -0.60280716911E+02  0.97842448336E+01 -0.38101346359E+02  0.14432157487E+03  0.12509000000E+03 0.  0.
<mgrwt>
<rscale>  2 0.45502309E+03</rscale>
<asrwt>0</asrwt>
<pdfrwt beam="1">  1       21 0.19696591E-01 0.45502309E+03</pdfrwt>
<pdfrwt beam="2">  1       21 0.56832661E-01 0.45502309E+03</pdfrwt>
<totfact> 0.63848395E+04</totfact>
</mgrwt>
</event>
<event>
 7    0  0.4725730E-002  0.4560665E+03  0.7546771E-02  0.1025928E+00
         21   -1    0    0  502  501  0.00000000000E+00  0.00000000000E+00  0.18162122872E+03  0.18162122872E+03  0.00000000000E+00 0. -1.
         21   -1    0    0  501  502 -0.00000000000E+00 -0.00000000000E+00 -0.28630551797E+03  0.28630551797E+03  0.00000000000E+00 0. -1.
      99926    2    1    2    0    0  0.35527136788E-14  0.00000000000E+00 -0.10468428925E+03  0.46792674669E+03  0.45606648622E+03 0.  0.
      99925    2    3    3    0    0 -0.30744588662E+02 -0.10948683693E+03 -0.74616083540E+02  0.29621710139E+03  0.26314333364E+03 0.  0.
         25    1    4    4    0    0  0.12137319988E+02 -0.49815196446E+02 -0.49493886970E+01  0.13528071881E+03  0.12509000000E+03 0.  0.
         25    1    4    4    0    0 -0.42881908650E+02 -0.59671640485E+02 -0.69666694843E+02  0.16093638258E+03  0.12509000000E+03 0.  0.
         25    1    3    3    0    0  0.30744588662E+02  0.10948683693E+03 -0.30068205705E+02  0.17170964530E+03  0.12509000000E+03 0.  0.
<mgrwt>
<rscale>  2 0.45606649E+03</rscale>
<asrwt>0</asrwt>
<pdfrwt beam="1">  1       21 0.26709004E-01 0.45606649E+03</pdfrwt>
<pdfrwt beam="2">  1       21 0.42103752E-01 0.45606649E+03</pdfrwt>
<totfact> 0.67021708E+04</totfact>
</mgrwt>
</event>
<event>
 7    0  0.4725730E-002  0.4577646E+03  0.7546771E-02  0.1025432E+00
         21   -1    0    0  502  501  0.00000000000E+00  0.00000000000E+00  0.22181431781E+03  0.22181431781E+03  0.00000000000E+00 0.  1.
         21   -1    0    0  501  502 -0.00000000000E+00 -0.00000000000E+00 -0.23617554164E+03  0.23617554164E+03  0.00000000000E+00 0.  1.
      99926    2    1    2    0    0  0.35527136788E-14  0.00000000000E+00 -0.14361223835E+02  0.45798985945E+03  0.45776464107E+03 0.  0.
      99925    2    3    3    0    0 -0.30528657902E+02  0.39864279311E+02 -0.11336061250E+03  0.29074887532E+03  0.26298882165E+03 0.  0.
         25    1    4    4    0    0 -0.42095653468E+02  0.25485426398E+02 -0.91041512870E+02  0.16235028847E+03  0.12509000000E+03 0.  0.
         25    1    3    3    0    0  0.30528657902E+02 -0.39864279311E+02  0.98999388663E+02  0.16724098413E+03  0.12509000000E+03 0.  0.
         25    1    4    4    0    0  0.11566995567E+02  0.14378852913E+02 -0.22319099628E+02  0.12839858685E+03  0.12509000000E+03 0.  0.
<mgrwt>
<rscale>  2 0.45776464E+03</rscale>
<asrwt>0</asrwt>
<pdfrwt beam="1">  1       21 0.32619753E-01 0.45776464E+03</pdfrwt>
<pdfrwt beam="2">  1       21 0.34731697E-01 0.45776464E+03</pdfrwt>
<totfact> 0.66840680E+04</totfact>
</mgrwt>
</event>
<event>
 7    0  0.4725730E-002  0.4537162E+03  0.7546771E-02  0.1026620E+00
         21   -1    0    0  502  501  0.00000000000E+00  0.00000000000E+00  0.52049388851E+02  0.52049388851E+02  0.00000000000E+00 0.  1.
         21   -1    0    0  501  502 -0.00000000000E+00 -0.00000000000E+00 -0.98876481741E+03  0.98876481741E+03  0.00000000000E+00 0.  1.
      99926    2    1    2    0    0  0.00000000000E+00  0.71054273576E-14 -0.93671542855E+03  0.10408142063E+04  0.45371623054E+03 0.  0.
      99925    2    3    3    0    0  0.35494696556E+02  0.36603076548E+02 -0.81922519579E+03  0.86178593589E+03  0.26257459736E+03 0.  0.
         25    1    3    3    0    0 -0.35494696556E+02 -0.36603076548E+02 -0.11749023276E+03  0.17902827037E+03  0.12509000000E+03 0.  0.
         25    1    4    4    0    0  0.20119099279E+02 -0.13707173211E+02 -0.31989007677E+03  0.34433970737E+03  0.12509000000E+03 0.  0.
         25    1    4    4    0    0  0.15375597278E+02  0.50310249760E+02 -0.49933511902E+03  0.51744622852E+03  0.12509000000E+03 0.  0.
<mgrwt>
<rscale>  2 0.45371623E+03</rscale>
<asrwt>0</asrwt>
<pdfrwt beam="1">  1       21 0.76543225E-02 0.45371623E+03</pdfrwt>
<pdfrwt beam="2">  1       21 0.14540658E+00 0.45371623E+03</pdfrwt>
<totfact> 0.37995596E+04</totfact>
</mgrwt>
</event>
<event>
 7    0  0.4725730E-002  0.4680887E+03  0.7546771E-02  0.1022461E+00
         21   -1    0    0  502  501  0.00000000000E+00  0.00000000000E+00  0.76409428135E+02  0.76409428135E+02  0.00000000000E+00 0.  1.
         21   -1    0    0  501  502 -0.00000000000E+00 -0.00000000000E+00 -0.71688465296E+03  0.71688465296E+03  0.00000000000E+00 0.  1.
      99926    2    1    2    0    0  0.00000000000E+00 -0.14210854715E-13 -0.64047522482E+03  0.79329408109E+03  0.46808865131E+03 0.  0.
      99925    2    3    3    0    0  0.65538064827E+01 -0.10851828000E+03 -0.29358776027E+03  0.40884955890E+03  0.26295440548E+03 0.  0.
         25    1    4    4    0    0 -0.11745515593E+02 -0.94491809090E+02 -0.15594922220E+03  0.22143695971E+03  0.12509000000E+03 0.  0.
         25    1    4    4    0    0  0.18299322076E+02 -0.14026470914E+02 -0.13763853807E+03  0.18741259919E+03  0.12509000000E+03 0.  0.
         25    1    3    3    0    0 -0.65538064827E+01  0.10851828000E+03 -0.34688746455E+03  0.38444452219E+03  0.12509000000E+03 0.  0.
<mgrwt>
<rscale>  2 0.46808865E+03</rscale>
<asrwt>0</asrwt>
<pdfrwt beam="1">  1       21 0.11236681E-01 0.46808865E+03</pdfrwt>
<pdfrwt beam="2">  1       21 0.10542421E+00 0.46808865E+03</pdfrwt>
<totfact> 0.43452467E+04</totfact>
</mgrwt>
</event>
<event>
 7    0  0.4725730E-002  0.4514168E+03  0.7546771E-02  0.1027300E+00
         21   -1    0    0  502  501  0.00000000000E+00  0.00000000000E+00  0.32798014788E+03  0.32798014788E+03  0.00000000000E+00 0.  1.
         21   -1    0    0  501  502 -0.00000000000E+00 -0.00000000000E+00 -0.15532730399E+03  0.15532730399E+03  0.00000000000E+00 0.  1.
      99926    2    1    2    0    0  0.00000000000E+00  0.00000000000E+00  0.17265284390E+03  0.48330745187E+03  0.45141675703E+03 0.  0.
      99925    2    3    3    0    0 -0.79224826391E+02  0.63669814564E+02  0.15341870056E+03  0.32098715501E+03  0.26299246681E+03 0.  0.
         25    1    4    4    0    0 -0.54979625965E+02  0.25733122858E+02  0.12058582992E+03  0.18404728567E+03  0.12509000000E+03 0.  0.
         25    1    4    4    0    0 -0.24245200426E+02  0.37936691706E+02  0.32832870636E+02  0.13693986934E+03  0.12509000000E+03 0.  0.
         25    1    3    3    0    0  0.79224826391E+02 -0.63669814564E+02  0.19234143342E+02  0.16232029686E+03  0.12509000000E+03 0.  0.
<mgrwt>
<rscale>  2 0.45141676E+03</rscale>
<asrwt>0</asrwt>
<pdfrwt beam="1">  1       21 0.48232375E-01 0.45141676E+03</pdfrwt>
<pdfrwt beam="2">  1       21 0.22842251E-01 0.45141676E+03</pdfrwt>
<totfact> 0.68384736E+04</totfact>
</mgrwt>
</event>
<event>
 7    0  0.4725730E-002  0.4672660E+03  0.7546771E-02  0.1022695E+00
         21   -1    0    0  502  501  0.00000000000E+00  0.00000000000E+00  0.82112518883E+03  0.82112518883E+03  0.00000000000E+00 0. -1.
         21   -1    0    0  501  502 -0.00000000000E+00 -0.00000000000E+00 -0.66475108639E+02  0.66475108639E+02  0.00000000000E+00 0. -1.
      99926    2    1    2    0    0  0.00000000000E+00  0.35527136788E-14  0.75465008019E+03  0.88760029747E+03  0.46726603187E+03 0.  0.
      99925    2    3    3    0    0 -0.11113959256E+03  0.10450567010E+02  0.36555557597E+03  0.46392204136E+03  0.26292880776E+03 0.  0.
         25    1    3    3    0    0  0.11113959256E+03 -0.10450567010E+02  0.38909450422E+03  0.42367825611E+03  0.12509000000E+03 0.  0.
         25    1    4    4    0    0 -0.43927940820E+02  0.44075388064E+02  0.17811198560E+03  0.22637069451E+03  0.12509000000E+03 0.  0.
         25    1    4    4    0    0 -0.67211651738E+02 -0.33624821054E+02  0.18744359036E+03  0.23755134685E+03  0.12509000000E+03 0.  0.
<mgrwt>
<rscale>  2 0.46726603E+03</rscale>
<asrwt>0</asrwt>
<pdfrwt beam="1">  1       21 0.12075370E+00 0.46726603E+03</pdfrwt>
<pdfrwt beam="2">  1       21 0.97757518E-02 0.46726603E+03</pdfrwt>
<totfact> 0.39810167E+04</totfact>
</mgrwt>
</event>
<event>
 7    0  0.4725730E-002  0.4494197E+03  0.7546771E-02  0.1027895E+00
         21   -1    0    0  502  501  0.00000000000E+00  0.00000000000E+00  0.19149792822E+03  0.19149792822E+03  0.00000000000E+00 0.  1.
         21   -1    0    0  501  502 -0.00000000000E+00 -0.00000000000E+00 -0.26368176721E+03  0.26368176721E+03  0.00000000000E+00 0.  1.
      99926    2    1    2    0    0 -0.35527136788E-14  0.35527136788E-14 -0.72183838984E+02  0.45517969543E+03  0.44941967972E+03 0.  0.
      99925    2    3    3    0    0  0.18042431655E+02 -0.27943358077E+02 -0.14955242614E+03  0.30438259009E+03  0.26301420567E+03 0.  0.
         25    1    4    4    0    0 -0.15236381829E+02 -0.40212954845E+02 -0.53295896806E+02  0.14260851933E+03  0.12509000000E+03 0.  0.
         25    1    3    3    0    0 -0.18042431655E+02  0.27943358077E+02  0.77368587153E+02  0.15079710534E+03  0.12509000000E+03 0.  0.
         25    1    4    4    0    0  0.33278813484E+02  0.12269596768E+02 -0.96256529331E+02  0.16177407076E+03  0.12509000000E+03 0.  0.
<mgrwt>
<rscale>  2 0.44941968E+03</rscale>
<asrwt>0</asrwt>
<pdfrwt beam="1">  1       21 0.28161460E-01 0.44941968E+03</pdfrwt>
<pdfrwt beam="2">  1       21 0.38776730E-01 0.44941968E+03</pdfrwt>
<totfact> 0.71669884E+04</totfact>
</mgrwt>
</event>
<event>
 7    0  0.4725730E-002  0.4077342E+03  0.7546771E-02  0.1041134E+00
         21   -1    0    0  502  501  0.00000000000E+00  0.00000000000E+00  0.63118022206E+02  0.63118022206E+02  0.00000000000E+00 0. -1.
         21   -1    0    0  501  502 -0.00000000000E+00 -0.00000000000E+00 -0.65847746940E+03  0.65847746940E+03  0.00000000000E+00 0. -1.
      99926    2    1    2    0    0  0.00000000000E+00 -0.35527136788E-14 -0.59535944720E+03  0.72159549161E+03  0.40773420526E+03 0.  0.
      99925    2    3    3    0    0  0.41453353723E+02  0.23961701880E+02 -0.45385271317E+03  0.52675143199E+03  0.26304418291E+03 0.  0.
         25    1    3    3    0    0 -0.41453353723E+02 -0.23961701880E+02 -0.14150673403E+03  0.19484405961E+03  0.12509000000E+03 0.  0.
         25    1    4    4    0    0  0.36852183534E+02  0.10436683483E+02 -0.30448594828E+03  0.33140037506E+03  0.12509000000E+03 0.  0.
         25    1    4    4    0    0  0.46011701891E+01  0.13525018397E+02 -0.14936676489E+03  0.19535105693E+03  0.12509000000E+03 0.  0.
<mgrwt>
<rscale>  2 0.40773421E+03</rscale>
<asrwt>0</asrwt>
<pdfrwt beam="1">  1       21 0.92820627E-02 0.40773421E+03</pdfrwt>
<pdfrwt beam="2">  1       21 0.96834916E-01 0.40773421E+03</pdfrwt>
<totfact> 0.76442962E+04</totfact>
</mgrwt>
</event>
<event>
 7    0  0.4725730E-002  0.4366792E+03  0.7546771E-02  0.1031771E+00
         21   -1    0    0  502  501  0.00000000000E+00  0.00000000000E+00  0.18592387195E+03  0.18592387195E+03  0.00000000000E+00 0. -1.
         21   -1    0    0  501  502 -0.00000000000E+00 -0.00000000000E+00 -0.25640694627E+03  0.25640694627E+03  0.00000000000E+00 0. -1.
      99926    2    1    2    0    0  0.00000000000E+00  0.00000000000E+00 -0.70483074316E+02  0.44233081822E+03  0.43667916023E+03 0.  0.
      99925    2    3    3    0    0 -0.16990228780E+02  0.88916013529E+02 -0.17462581671E+02  0.27907210918E+03  0.26340382500E+03 0.  0.
         25    1    3    3    0    0  0.16990228780E+02 -0.88916013529E+02 -0.53020492645E+02  0.16325870904E+03  0.12509000000E+03 0.  0.
         25    1    4    4    0    0  0.39845387099E+01  0.74227714422E+02 -0.36394278962E+02  0.14999227240E+03  0.12509000000E+03 0.  0.
         25    1    4    4    0    0 -0.20974767489E+02  0.14688299107E+02  0.18931697291E+02  0.12907983678E+03  0.12509000000E+03 0.  0.
<mgrwt>
<rscale>  2 0.43667916E+03</rscale>
<asrwt>0</asrwt>
<pdfrwt beam="1">  1       21 0.27341746E-01 0.43667916E+03</pdfrwt>
<pdfrwt beam="2">  1       21 0.37706904E-01 0.43667916E+03</pdfrwt>
<totfact> 0.80640987E+04</totfact>
</mgrwt>
</event>
<event>
 7    0  0.4725730E-002  0.4557076E+03  0.7546771E-02  0.1026034E+00
         21   -1    0    0  502  501  0.00000000000E+00  0.00000000000E+00  0.30257909073E+03  0.30257909073E+03  0.00000000000E+00 0.  1.
         21   -1    0    0  501  502 -0.00000000000E+00 -0.00000000000E+00 -0.17158277939E+03  0.17158277939E+03  0.00000000000E+00 0.  1.
      99926    2    1    2    0    0  0.14210854715E-13  0.71054273576E-14  0.13099631134E+03  0.47416187012E+03  0.45570763159E+03 0.  0.
      99925    2    3    3    0    0  0.92509598881E+02  0.53310428892E+02  0.12361961153E+03  0.30953516659E+03  0.26292619362E+03 0.  0.
         25    1    4    4    0    0  0.68855682423E+02  0.62342904089E+02  0.60332033788E+02  0.16707843994E+03  0.12509000000E+03 0.  0.
         25    1    4    4    0    0  0.23653916458E+02 -0.90324751967E+01  0.63287577740E+02  0.14245672665E+03  0.12509000000E+03 0.  0.
         25    1    3    3    0    0 -0.92509598881E+02 -0.53310428892E+02  0.73766998167E+01  0.16462670353E+03  0.12509000000E+03 0.  0.
<mgrwt>
<rscale>  2 0.45570763E+03</rscale>
<asrwt>0</asrwt>
<pdfrwt beam="1">  1       21 0.44496925E-01 0.45570763E+03</pdfrwt>
<pdfrwt beam="2">  1       21 0.25232762E-01 0.45570763E+03</pdfrwt>
<totfact> 0.66751996E+04</totfact>
</mgrwt>
</event>
<event>
 7    0  0.4725730E-002  0.4623496E+03  0.7546771E-02  0.1024102E+00
         21   -1    0    0  502  501  0.00000000000E+00  0.00000000000E+00  0.65971827493E+03  0.65971827493E+03  0.00000000000E+00 0.  1.
         21   -1    0    0  501  502 -0.00000000000E+00 -0.00000000000E+00 -0.81006989010E+02  0.81006989010E+02  0.00000000000E+00 0.  1.
      99926    2    1    2    0    0  0.35527136788E-14  0.00000000000E+00  0.57871128592E+03  0.74072526394E+03  0.46234961251E+03 0.  0.
      99925    2    3    3    0    0  0.25400244190E+02 -0.10676249542E+03  0.28422927969E+03  0.40247895882E+03  0.26298217816E+03 0.  0.
         25    1    3    3    0    0 -0.25400244190E+02  0.10676249542E+03  0.29448200622E+03  0.33824630511E+03  0.12509000000E+03 0.  0.
         25    1    4    4    0    0  0.41375139329E+02 -0.42379378390E+02  0.17796267798E+03  0.22544652741E+03  0.12509000000E+03 0.  0.
         25    1    4    4    0    0 -0.15974895139E+02 -0.64383117029E+02  0.10626660171E+03  0.17703243142E+03  0.12509000000E+03 0.  0.
<mgrwt>
<rscale>  2 0.46234961E+03</rscale>
<asrwt>0</asrwt>
<pdfrwt beam="1">  1       21 0.97017390E-01 0.46234961E+03</pdfrwt>
<pdfrwt beam="2">  1       21 0.11912793E-01 0.46234961E+03</pdfrwt>
<totfact> 0.47917764E+04</totfact>
</mgrwt>
</event>
<event>
 7    0  0.4725730E-002  0.4620818E+03  0.7546771E-02  0.1024179E+00
         21   -1    0    0  502  501  0.00000000000E+00  0.00000000000E+00  0.35405388534E+03  0.35405388534E+03  0.00000000000E+00 0.  1.
         21   -1    0    0  501  502 -0.00000000000E+00 -0.00000000000E+00 -0.15076773305E+03  0.15076773305E+03  0.00000000000E+00 0.  1.
      99926    2    1    2    0    0  0.00000000000E+00  0.53290705182E-14  0.20328615229E+03  0.50482161838E+03  0.46208181816E+03 0.  0.
      99925    2    3    3    0    0 -0.32531706848E+02  0.12614929232E+02  0.20595471581E+01  0.26532818819E+03  0.26301588797E+03 0.  0.
         25    1    4    4    0    0 -0.17791575125E+02  0.39239921316E+02 -0.22685572908E+02  0.13423283834E+03  0.12509000000E+03 0.  0.
         25    1    4    4    0    0 -0.14740131723E+02 -0.26624992084E+02  0.24745120066E+02  0.13109534986E+03  0.12509000000E+03 0.  0.
         25    1    3    3    0    0  0.32531706848E+02 -0.12614929232E+02  0.20122660513E+03  0.23949343019E+03  0.12509000000E+03 0.  0.
<mgrwt>
<rscale>  2 0.46208182E+03</rscale>
<asrwt>0</asrwt>
<pdfrwt beam="1">  1       21 0.52066748E-01 0.46208182E+03</pdfrwt>
<pdfrwt beam="2">  1       21 0.22171725E-01 0.46208182E+03</pdfrwt>
<totfact> 0.61407910E+04</totfact>
</mgrwt>
</event>
<event>
 7    0  0.4725730E-002  0.4063244E+03  0.7546771E-02  0.1041611E+00
         21   -1    0    0  502  501  0.00000000000E+00  0.00000000000E+00  0.14619502579E+04  0.14619502579E+04  0.00000000000E+00 0. -1.
         21   -1    0    0  501  502 -0.00000000000E+00 -0.00000000000E+00 -0.28232754627E+02  0.28232754627E+02  0.00000000000E+00 0. -1.
      99926    2    1    2    0    0  0.00000000000E+00  0.00000000000E+00  0.14337175032E+04  0.14901830125E+04  0.40632441672E+03 0.  0.
      99925    2    3    3    0    0 -0.24837594495E+02  0.34401320366E+02  0.81187991839E+03  0.85447093381E+03  0.26300421652E+03 0.  0.
         25    1    3    3    0    0  0.24837594495E+02 -0.34401320366E+02  0.62183758484E+03  0.63571207867E+03  0.12509000000E+03 0.  0.
         25    1    4    4    0    0 -0.51486829860E+02  0.29229351416E+02  0.42541845362E+03  0.44736295936E+03  0.12509000000E+03 0.  0.
         25    1    4    4    0    0  0.26649235365E+02  0.51719689503E+01  0.38646146477E+03  0.40710797445E+03  0.12509000000E+03 0.  0.
<mgrwt>
<rscale>  2 0.40632442E+03</rscale>
<asrwt>0</asrwt>
<pdfrwt beam="1">  1       21 0.21499263E+00 0.40632442E+03</pdfrwt>
<pdfrwt beam="2">  1       21 0.41518766E-02 0.40632442E+03</pdfrwt>
<totfact> 0.35745993E+04</totfact>
</mgrwt>
</event>
<event>
 7    0  0.4725730E-002  0.4528720E+03  0.7546771E-02  0.1026869E+00
         21   -1    0    0  502  501  0.00000000000E+00  0.00000000000E+00  0.99302970174E+02  0.99302970174E+02  0.00000000000E+00 0.  1.
         21   -1    0    0  501  502 -0.00000000000E+00 -0.00000000000E+00 -0.51633152551E+03  0.51633152551E+03  0.00000000000E+00 0.  1.
      99926    2    1    2    0    0  0.71054273576E-14  0.00000000000E+00 -0.41702855533E+03  0.61563449568E+03  0.45287196459E+03 0.  0.
      99925    2    3    3    0    0 -0.54132459875E+02  0.74272849215E+02 -0.17972397243E+03  0.33207188794E+03  0.26367452124E+03 0.  0.
         25    1    4    4    0    0 -0.25961775817E+02  0.60803449759E+02 -0.13512944786E+03  0.19564904571E+03  0.12509000000E+03 0.  0.
         25    1    3    3    0    0  0.54132459875E+02 -0.74272849215E+02 -0.23730458290E+03  0.28356260774E+03  0.12509000000E+03 0.  0.
         25    1    4    4    0    0 -0.28170684058E+02  0.13469399456E+02 -0.44594524569E+02  0.13642284224E+03  0.12509000000E+03 0.  0.
<mgrwt>
<rscale>  2 0.45287196E+03</rscale>
<asrwt>0</asrwt>
<pdfrwt beam="1">  1       21 0.14603378E-01 0.45287196E+03</pdfrwt>
<pdfrwt beam="2">  1       21 0.75931106E-01 0.45287196E+03</pdfrwt>
<totfact> 0.58706526E+04</totfact>
</mgrwt>
</event>
<event>
 7    0  0.4725730E-002  0.4487228E+03  0.7546771E-02  0.1028104E+00
         21   -1    0    0  502  501  0.00000000000E+00  0.00000000000E+00  0.28909061389E+04  0.28909061389E+04  0.00000000000E+00 0. -1.
         21   -1    0    0  501  502 -0.00000000000E+00 -0.00000000000E+00 -0.17412546263E+02  0.17412546263E+02  0.00000000000E+00 0. -1.
      99926    2    1    2    0    0  0.00000000000E+00  0.00000000000E+00  0.28734935927E+04  0.29083186852E+04  0.44872279587E+03 0.  0.
      99925    2    3    3    0    0  0.86070587201E+02 -0.33327787623E+02  0.14651539704E+04  0.14914252922E+04  0.26297216159E+03 0.  0.
         25    1    4    4    0    0  0.40129151708E+02 -0.24068534211E+02  0.94507921520E+03  0.95446942029E+03  0.12509000000E+03 0.  0.
         25    1    4    4    0    0  0.45941435493E+02 -0.92592534117E+01  0.52007475523E+03  0.53695587193E+03  0.12509000000E+03 0.  0.
         25    1    3    3    0    0 -0.86070587201E+02  0.33327787623E+02  0.14083396222E+04  0.14168933930E+04  0.12509000000E+03 0.  0.
<mgrwt>
<rscale>  2 0.44872280E+03</rscale>
<asrwt>0</asrwt>
<pdfrwt beam="1">  1       21 0.42513293E+00 0.44872280E+03</pdfrwt>
<pdfrwt beam="2">  1       21 0.25606706E-02 0.44872280E+03</pdfrwt>
<totfact> 0.39817643E+03</totfact>
</mgrwt>
</event>
<event>
 7    0  0.4725730E-002  0.4556173E+03  0.7546771E-02  0.1026060E+00
         21   -1    0    0  502  501  0.00000000000E+00  0.00000000000E+00  0.29610035402E+02  0.29610035402E+02  0.00000000000E+00 0. -1.
         21   -1    0    0  501  502 -0.00000000000E+00 -0.00000000000E+00 -0.17526750295E+04  0.17526750295E+04  0.00000000000E+00 0. -1.
      99926    2    1    2    0    0  0.00000000000E+00  0.00000000000E+00 -0.17230649941E+04  0.17822850649E+04  0.45561725021E+03 0.  0.
      99925    2    3    3    0    0  0.10505585778E+03 -0.35911868821E+02 -0.98602709618E+03  0.10265081357E+04  0.26295079915E+03 0.  0.
         25    1    4    4    0    0  0.48610130018E+02  0.27290865332E+01 -0.60421452193E+03  0.61894514237E+03  0.12509000000E+03 0.  0.
         25    1    4    4    0    0  0.56445727766E+02 -0.38640955354E+02 -0.38181257425E+03  0.40756299337E+03  0.12509000000E+03 0.  0.
         25    1    3    3    0    0 -0.10505585778E+03  0.35911868821E+02 -0.73703789792E+03  0.75577692916E+03  0.12509000000E+03 0.  0.
<mgrwt>
<rscale>  2 0.45561725E+03</rscale>
<asrwt>0</asrwt>
<pdfrwt beam="1">  1       21 0.43544164E-02 0.45561725E+03</pdfrwt>
<pdfrwt beam="2">  1       21 0.25774636E+00 0.45561725E+03</pdfrwt>
<totfact> 0.17518221E+04</totfact>
</mgrwt>
</event>
<event>
 7    0  0.4725730E-002  0.4531631E+03  0.7546771E-02  0.1026783E+00
         21   -1    0    0  502  501  0.00000000000E+00  0.00000000000E+00  0.54073991403E+03  0.54073991403E+03  0.00000000000E+00 0. -1.
         21   -1    0    0  501  502 -0.00000000000E+00 -0.00000000000E+00 -0.94942480616E+02  0.94942480616E+02  0.00000000000E+00 0. -1.
      99926    2    1    2    0    0  0.00000000000E+00  0.14210854715E-13  0.44579743341E+03  0.63568239464E+03  0.45316305589E+03 0.  0.
      99925    2    3    3    0    0  0.20958336966E+02  0.71701079772E+02  0.16507804855E+03  0.31940533593E+03  0.26303746840E+03 0.  0.
         25    1    3    3    0    0 -0.20958336966E+02 -0.71701079772E+02  0.28071938486E+03  0.31627705871E+03  0.12509000000E+03 0.  0.
         25    1    4    4    0    0 -0.29012464977E+01 -0.35622090112E+01  0.83631218590E+02  0.15054167326E+03  0.12509000000E+03 0.  0.
         25    1    4    4    0    0  0.23859583464E+02  0.75263288783E+02  0.81446829956E+02  0.16886366267E+03  0.12509000000E+03 0.  0.
<mgrwt>
<rscale>  2 0.45316306E+03</rscale>
<asrwt>0</asrwt>
<pdfrwt beam="1">  1       21 0.79520574E-01 0.45316306E+03</pdfrwt>
<pdfrwt beam="2">  1       21 0.13962130E-01 0.45316306E+03</pdfrwt>
<totfact> 0.57361073E+04</totfact>
</mgrwt>
</event>
<event>
 7    0  0.4725730E-002  0.4409999E+03  0.7546771E-02  0.1030440E+00
         21   -1    0    0  502  501  0.00000000000E+00  0.00000000000E+00  0.12594889488E+03  0.12594889488E+03  0.00000000000E+00 0. -1.
         21   -1    0    0  501  502 -0.00000000000E+00 -0.00000000000E+00 -0.38603144625E+03  0.38603144625E+03  0.00000000000E+00 0. -1.
      99926    2    1    2    0    0  0.00000000000E+00  0.00000000000E+00 -0.26008255137E+03  0.51198034113E+03  0.44099992764E+03 0.  0.
      99925    2    3    3    0    0  0.77158615197E+02  0.23674607107E+02 -0.97976611170E+02  0.29188994409E+03  0.26284288882E+03 0.  0.
         25    1    4    4    0    0  0.54409544748E+02  0.32989242883E+02 -0.18237045523E+02  0.14152309577E+03  0.12509000000E+03 0.  0.
         25    1    4    4    0    0  0.22749070448E+02 -0.93146357758E+01 -0.79739565647E+02  0.15036684833E+03  0.12509000000E+03 0.  0.
         25    1    3    3    0    0 -0.77158615197E+02 -0.23674607107E+02 -0.16210594020E+03  0.22009039704E+03  0.12509000000E+03 0.  0.
<mgrwt>
<rscale>  2 0.44099993E+03</rscale>
<asrwt>0</asrwt>
<pdfrwt beam="1">  1       21 0.18521896E-01 0.44099993E+03</pdfrwt>
<pdfrwt beam="2">  1       21 0.56769331E-01 0.44099993E+03</pdfrwt>
<totfact> 0.72119458E+04</totfact>
</mgrwt>
</event>
<event>
 7    0  0.4725730E-002  0.4534319E+03  0.7546771E-02  0.1026704E+00
         21   -1    0    0  502  501  0.00000000000E+00  0.00000000000E+00  0.18855595360E+03  0.18855595360E+03  0.00000000000E+00 0. -1.
         21   -1    0    0  501  502 -0.00000000000E+00 -0.00000000000E+00 -0.27259882537E+03  0.27259882537E+03  0.00000000000E+00 0. -1.
      99926    2    1    2    0    0 -0.14210854715E-13  0.00000000000E+00 -0.84042871771E+02  0.46115477897E+03  0.45343194183E+03 0.  0.
      99925    2    3    3    0    0 -0.91321202622E+02  0.59307662046E+02 -0.78006542289E+02  0.29520024845E+03  0.26306121953E+03 0.  0.
         25    1    4    4    0    0 -0.10440415839E+02  0.25908506390E+02 -0.11507176703E+02  0.12868634816E+03  0.12509000000E+03 0.  0.
         25    1    4    4    0    0 -0.80880786783E+02  0.33399155656E+02 -0.66499365586E+02  0.16651390030E+03  0.12509000000E+03 0.  0.
         25    1    3    3    0    0  0.91321202622E+02 -0.59307662046E+02 -0.60363294816E+01  0.16595453052E+03  0.12509000000E+03 0.  0.
<mgrwt>
<rscale>  2 0.45343194E+03</rscale>
<asrwt>0</asrwt>
<pdfrwt beam="1">  1       21 0.27728817E-01 0.45343194E+03</pdfrwt>
<pdfrwt beam="2">  1       21 0.40088062E-01 0.45343194E+03</pdfrwt>
<totfact> 0.68952025E+04</totfact>
</mgrwt>
</event>
<event>
 7    0  0.4725730E-002  0.4323308E+03  0.7546771E-02  0.1033126E+00
         21   -1    0    0  502  501  0.00000000000E+00  0.00000000000E+00  0.17177897377E+03  0.17177897377E+03  0.00000000000E+00 0.  1.
         21   -1    0    0  501  502 -0.00000000000E+00 -0.00000000000E+00 -0.27202096773E+03  0.27202096773E+03  0.00000000000E+00 0.  1.
      99926    2    1    2    0    0  0.00000000000E+00  0.00000000000E+00 -0.10024199396E+03  0.44379994150E+03  0.43233081167E+03 0.  0.
      99925    2    3    3    0    0 -0.50072320143E+02  0.32305429414E+02  0.51709605505E+01  0.26970147197E+03  0.26298529832E+03 0.  0.
         25    1    4    4    0    0 -0.19272893590E+02  0.10525455920E+02  0.42320755837E+02  0.13386853299E+03  0.12509000000E+03 0.  0.
         25    1    3    3    0    0  0.50072320143E+02 -0.32305429414E+02 -0.10541295451E+03  0.17409846953E+03  0.12509000000E+03 0.  0.
         25    1    4    4    0    0 -0.30799426553E+02  0.21779973494E+02 -0.37149795287E+02  0.13583293898E+03  0.12509000000E+03 0.  0.
<mgrwt>
<rscale>  2 0.43233081E+03</rscale>
<asrwt>0</asrwt>
<pdfrwt beam="1">  1       21 0.25261614E-01 0.43233081E+03</pdfrwt>
<pdfrwt beam="2">  1       21 0.40003083E-01 0.43233081E+03</pdfrwt>
<totfact> 0.83462019E+04</totfact>
</mgrwt>
</event>
<event>
 7    0  0.4725730E-002  0.4556664E+03  0.7546771E-02  0.1026046E+00
         21   -1    0    0  502  501  0.00000000000E+00  0.00000000000E+00  0.52509975829E+03  0.52509975829E+03  0.00000000000E+00 0. -1.
         21   -1    0    0  501  502 -0.00000000000E+00 -0.00000000000E+00 -0.98853534220E+02  0.98853534220E+02  0.00000000000E+00 0. -1.
      99926    2    1    2    0    0  0.00000000000E+00  0.00000000000E+00  0.42624622407E+03  0.62395329251E+03  0.45566639958E+03 0.  0.
      99925    2    3    3    0    0  0.10616184560E+03 -0.39166125992E+02  0.28415119982E+03  0.40340210366E+03  0.26303427532E+03 0.  0.
         25    1    3    3    0    0 -0.10616184560E+03  0.39166125992E+02  0.14209502426E+03  0.22055118886E+03  0.12509000000E+03 0.  0.
         25    1    4    4    0    0  0.74589618537E+02  0.14230186154E+02  0.13499815228E+03  0.19909324100E+03  0.12509000000E+03 0.  0.
         25    1    4    4    0    0  0.31572227066E+02 -0.53396312146E+02  0.14915304753E+03  0.20430886266E+03  0.12509000000E+03 0.  0.
<mgrwt>
<rscale>  2 0.45566640E+03</rscale>
<asrwt>0</asrwt>
<pdfrwt beam="1">  1       21 0.77220552E-01 0.45566640E+03</pdfrwt>
<pdfrwt beam="2">  1       21 0.14537285E-01 0.45566640E+03</pdfrwt>
<totfact> 0.56927460E+04</totfact>
</mgrwt>
</event>
<event>
 7    0  0.4725730E-002  0.4567101E+03  0.7546771E-02  0.1025740E+00
         21   -1    0    0  502  501  0.00000000000E+00  0.00000000000E+00  0.63998006618E+03  0.63998006618E+03  0.00000000000E+00 0. -1.
         21   -1    0    0  501  502 -0.00000000000E+00 -0.00000000000E+00 -0.81480700880E+02  0.81480700880E+02  0.00000000000E+00 0. -1.
      99926    2    1    2    0    0  0.00000000000E+00  0.00000000000E+00  0.55849936530E+03  0.72146076706E+03  0.45671008021E+03 0.  0.
      99925    2    3    3    0    0  0.70480457521E+02 -0.85341216441E+02  0.29805008258E+03  0.41205495734E+03  0.26211603925E+03 0.  0.
         25    1    4    4    0    0  0.53999909073E+02 -0.88094285940E+01  0.15452239912E+03  0.20619960267E+03  0.12509000000E+03 0.  0.
         25    1    3    3    0    0 -0.70480457521E+02  0.85341216441E+02  0.26044928272E+03  0.30940580972E+03  0.12509000000E+03 0.  0.
         25    1    4    4    0    0  0.16480548449E+02 -0.76531787847E+02  0.14352768346E+03  0.20585535467E+03  0.12509000000E+03 0.  0.
<mgrwt>
<rscale>  2 0.45671008E+03</rscale>
<asrwt>0</asrwt>
<pdfrwt beam="1">  1       21 0.94114713E-01 0.45671008E+03</pdfrwt>
<pdfrwt beam="2">  1       21 0.11982456E-01 0.45671008E+03</pdfrwt>
<totfact> 0.51062974E+04</totfact>
</mgrwt>
</event>
<event>
 7    0  0.4725730E-002  0.4599932E+03  0.7546771E-02  0.1024783E+00
         21   -1    0    0  502  501  0.00000000000E+00  0.00000000000E+00  0.23276466992E+03  0.23276466992E+03  0.00000000000E+00 0.  1.
         21   -1    0    0  501  502 -0.00000000000E+00 -0.00000000000E+00 -0.22726148108E+03  0.22726148108E+03  0.00000000000E+00 0.  1.
      99926    2    1    2    0    0  0.00000000000E+00 -0.14210854715E-13  0.55031888380E+01  0.46002615100E+03  0.45999323312E+03 0.  0.
      99925    2    3    3    0    0  0.85239123890E+02 -0.81176682337E+02  0.84676889836E+01  0.28823657518E+03  0.26297007343E+03 0.  0.
         25    1    4    4    0    0  0.72283301432E+02 -0.36274262925E+02  0.32742298584E+02  0.15251316020E+03  0.12509000000E+03 0.  0.
         25    1    3    3    0    0 -0.85239123890E+02  0.81176682337E+02 -0.29645001456E+01  0.17178957581E+03  0.12509000000E+03 0.  0.
         25    1    4    4    0    0  0.12955822458E+02 -0.44902419412E+02 -0.24274609600E+02  0.13572341499E+03  0.12509000000E+03 0.  0.
<mgrwt>
<rscale>  2 0.45999323E+03</rscale>
<asrwt>0</asrwt>
<pdfrwt beam="1">  1       21 0.34230099E-01 0.45999323E+03</pdfrwt>
<pdfrwt beam="2">  1       21 0.33420806E-01 0.45999323E+03</pdfrwt>
<totfact> 0.65529228E+04</totfact>
</mgrwt>
</event>
<event>
 7    0  0.4725730E-002  0.4596178E+03  0.7546771E-02  0.1024892E+00
         21   -1    0    0  502  501  0.00000000000E+00  0.00000000000E+00  0.42527941445E+02  0.42527941445E+02  0.00000000000E+00 0.  1.
         21   -1    0    0  501  502 -0.00000000000E+00 -0.00000000000E+00 -0.12418217719E+04  0.12418217719E+04  0.00000000000E+00 0.  1.
      99926    2    1    2    0    0 -0.71054273576E-14  0.14210854715E-13 -0.11992938305E+04  0.12843497133E+04  0.45961776989E+03 0.  0.
      99925    2    3    3    0    0 -0.37822634503E+02  0.65257318763E+02 -0.10029523106E+04  0.10396323869E+04  0.26312182212E+03 0.  0.
         25    1    4    4    0    0 -0.53901225503E+02  0.46951193549E+02 -0.59742342991E+03  0.61455025783E+03  0.12509000000E+03 0.  0.
         25    1    3    3    0    0  0.37822634503E+02 -0.65257318763E+02 -0.19634151989E+03  0.24471732646E+03  0.12509000000E+03 0.  0.
         25    1    4    4    0    0  0.16078591001E+02  0.18306125214E+02 -0.40552888064E+03  0.42508212906E+03  0.12509000000E+03 0.  0.
<mgrwt>
<rscale>  2 0.45961777E+03</rscale>
<asrwt>0</asrwt>
<pdfrwt beam="1">  1       21 0.62541085E-02 0.45961777E+03</pdfrwt>
<pdfrwt beam="2">  1       21 0.18262086E+00 0.45961777E+03</pdfrwt>
<totfact> 0.28533505E+04</totfact>
</mgrwt>
</event>
<event>
 7    0  0.4725730E-002  0.4410605E+03  0.7546771E-02  0.1030422E+00
         21   -1    0    0  502  501  0.00000000000E+00  0.00000000000E+00  0.55991460499E+03  0.55991460499E+03  0.00000000000E+00 0.  1.
         21   -1    0    0  501  502 -0.00000000000E+00 -0.00000000000E+00 -0.86858951195E+02  0.86858951195E+02  0.00000000000E+00 0.  1.
      99926    2    1    2    0    0  0.00000000000E+00  0.00000000000E+00  0.47305565379E+03  0.64677355618E+03  0.44106051897E+03 0.  0.
      99925    2    3    3    0    0  0.74329920212E+02 -0.28157348877E+01  0.39867167272E+03  0.48333136413E+03  0.26293961193E+03 0.  0.
         25    1    3    3    0    0 -0.74329920212E+02  0.28157348877E+01  0.74383981068E+02  0.16344219205E+03  0.12509000000E+03 0.  0.
         25    1    4    4    0    0  0.71273286699E+01 -0.26767604800E+02  0.16584778471E+03  0.20957170437E+03  0.12509000000E+03 0.  0.
         25    1    4    4    0    0  0.67202591543E+02  0.23951869912E+02  0.23282388801E+03  0.27375965976E+03  0.12509000000E+03 0.  0.
<mgrwt>
<rscale>  2 0.44106052E+03</rscale>
<asrwt>0</asrwt>
<pdfrwt beam="1">  1       21 0.82340382E-01 0.44106052E+03</pdfrwt>
<pdfrwt beam="2">  1       21 0.12773375E-01 0.44106052E+03</pdfrwt>
<totfact> 0.62479360E+04</totfact>
</mgrwt>
</event>
<event>
 7    0  0.4725730E-002  0.4538734E+03  0.7546771E-02  0.1026573E+00
         21   -1    0    0  502  501  0.00000000000E+00  0.00000000000E+00  0.15241227759E+03  0.15241227759E+03  0.00000000000E+00 0. -1.
         21   -1    0    0  501  502 -0.00000000000E+00 -0.00000000000E+00 -0.33790110139E+03  0.33790110139E+03  0.00000000000E+00 0. -1.
      99926    2    1    2    0    0  0.00000000000E+00  0.00000000000E+00 -0.18548882381E+03  0.49031337898E+03  0.45387344696E+03 0.  0.
      99925    2    3    3    0    0  0.43411171366E+02 -0.67025031743E+02 -0.31826456388E+02  0.27668633028E+03  0.26299337892E+03 0.  0.
         25    1    4    4    0    0  0.17424951542E+02 -0.42450958388E+02 -0.55693755849E+02  0.14441265646E+03  0.12509000000E+03 0.  0.
         25    1    4    4    0    0  0.25986219824E+02 -0.24574073355E+02  0.23867299461E+02  0.13227367382E+03  0.12509000000E+03 0.  0.
         25    1    3    3    0    0 -0.43411171366E+02  0.67025031743E+02 -0.15366236742E+03  0.21362704871E+03  0.12509000000E+03 0.  0.
<mgrwt>
<rscale>  2 0.45387345E+03</rscale>
<asrwt>0</asrwt>
<pdfrwt beam="1">  1       21 0.22413570E-01 0.45387345E+03</pdfrwt>
<pdfrwt beam="2">  1       21 0.49691338E-01 0.45387345E+03</pdfrwt>
<totfact> 0.66549867E+04</totfact>
</mgrwt>
</event>
<event>
 7    0  0.4725730E-002  0.4461033E+03  0.7546771E-02  0.1028890E+00
         21   -1    0    0  502  501  0.00000000000E+00  0.00000000000E+00  0.34468433436E+02  0.34468433436E+02  0.00000000000E+00 0. -1.
         21   -1    0    0  501  502 -0.00000000000E+00 -0.00000000000E+00 -0.14434086812E+04  0.14434086812E+04  0.00000000000E+00 0. -1.
      99926    2    1    2    0    0  0.00000000000E+00 -0.35527136788E-14 -0.14089402477E+04  0.14778771146E+04  0.44610328870E+03 0.  0.
      99925    2    3    3    0    0 -0.10208665741E+03 -0.21651800738E+02 -0.87210802519E+03  0.91687191912E+03  0.26304224448E+03 0.  0.
         25    1    4    4    0    0 -0.29653182830E+02  0.15007895471E+02 -0.48681325085E+03  0.50372531947E+03  0.12509000000E+03 0.  0.
         25    1    3    3    0    0  0.10208665741E+03  0.21651800738E+02 -0.53683222254E+03  0.56100519548E+03  0.12509000000E+03 0.  0.
         25    1    4    4    0    0 -0.72433474582E+02 -0.36659696209E+02 -0.38529477434E+03  0.41314659965E+03  0.12509000000E+03 0.  0.
<mgrwt>
<rscale>  2 0.44610329E+03</rscale>
<asrwt>0</asrwt>
<pdfrwt beam="1">  1       21 0.50688876E-02 0.44610329E+03</pdfrwt>
<pdfrwt beam="2">  1       21 0.21226597E+00 0.44610329E+03</pdfrwt>
<totfact> 0.26083139E+04</totfact>
</mgrwt>
</event>
<event>
 7    0  0.4725730E-002  0.4567357E+03  0.7546771E-02  0.1025732E+00
         21   -1    0    0  502  501  0.00000000000E+00  0.00000000000E+00  0.72050076096E+03  0.72050076096E+03  0.00000000000E+00 0.  1.
         21   -1    0    0  501  502 -0.00000000000E+00 -0.00000000000E+00 -0.72382819426E+02  0.72382819426E+02  0.00000000000E+00 0.  1.
      99926    2    1    2    0    0 -0.35527136788E-14  0.00000000000E+00  0.64811794153E+03  0.79288358038E+03  0.45673570684E+03 0.  0.
      99925    2    3    3    0    0  0.19388384709E+02 -0.11299721661E+03  0.41515424653E+03  0.50467554491E+03  0.26305907472E+03 0.  0.
         25    1    4    4    0    0  0.52211475111E+01 -0.13294770039E+02  0.19678626881E+03  0.23361582777E+03  0.12509000000E+03 0.  0.
         25    1    3    3    0    0 -0.19388384709E+02  0.11299721661E+03  0.23296369500E+03  0.28820803547E+03  0.12509000000E+03 0.  0.
         25    1    4    4    0    0  0.14167237198E+02 -0.99702446573E+02  0.21836797772E+03  0.27105971714E+03  0.12509000000E+03 0.  0.
<mgrwt>
<rscale>  2 0.45673571E+03</rscale>
<asrwt>0</asrwt>
<pdfrwt beam="1">  1       21 0.10595599E+00 0.45673571E+03</pdfrwt>
<pdfrwt beam="2">  1       21 0.10644533E-01 0.45673571E+03</pdfrwt>
<totfact> 0.47461124E+04</totfact>
</mgrwt>
</event>
<event>
 7    0  0.4725730E-002  0.4564225E+03  0.7546771E-02  0.1025824E+00
         21   -1    0    0  502  501  0.00000000000E+00  0.00000000000E+00  0.21544098594E+03  0.21544098594E+03  0.00000000000E+00 0. -1.
         21   -1    0    0  501  502 -0.00000000000E+00 -0.00000000000E+00 -0.24173846113E+03  0.24173846113E+03  0.00000000000E+00 0. -1.
      99926    2    1    2    0    0  0.00000000000E+00 -0.14210854715E-13 -0.26297475185E+02  0.45717944707E+03  0.45642249027E+03 0.  0.
      99925    2    3    3    0    0 -0.58269671890E+01  0.89896334705E+02 -0.87340350398E+02  0.29138124064E+03  0.26298172189E+03 0.  0.
         25    1    4    4    0    0 -0.15735978418E+02  0.33860076019E+02 -0.38875357743E+01  0.13060148085E+03  0.12509000000E+03 0.  0.
         25    1    4    4    0    0  0.99090112289E+01  0.56036258686E+02 -0.83452814624E+02  0.16077975980E+03  0.12509000000E+03 0.  0.
         25    1    3    3    0    0  0.58269671890E+01 -0.89896334705E+02  0.61042875214E+02  0.16579820643E+03  0.12509000000E+03 0.  0.
<mgrwt>
<rscale>  2 0.45642249E+03</rscale>
<asrwt>0</asrwt>
<pdfrwt beam="1">  1       21 0.31682498E-01 0.45642249E+03</pdfrwt>
<pdfrwt beam="2">  1       21 0.35549774E-01 0.45642249E+03</pdfrwt>
<totfact> 0.67615764E+04</totfact>
</mgrwt>
</event>
<event>
 7    0  0.4725730E-002  0.4645179E+03  0.7546771E-02  0.1023479E+00
         21   -1    0    0  502  501  0.00000000000E+00  0.00000000000E+00  0.93334305420E+02  0.93334305420E+02  0.00000000000E+00 0. -1.
         21   -1    0    0  501  502 -0.00000000000E+00 -0.00000000000E+00 -0.57796786071E+03  0.57796786071E+03  0.00000000000E+00 0. -1.
      99926    2    1    2    0    0  0.00000000000E+00  0.00000000000E+00 -0.48463355529E+03  0.67130216613E+03  0.46451793866E+03 0.  0.
      99925    2    3    3    0    0 -0.18050333537E+02 -0.32357722298E+02 -0.47025324050E+03  0.54004997267E+03  0.26295061524E+03 0.  0.
         25    1    4    4    0    0  0.65700979010E+00 -0.52774267943E+02 -0.27200419452E+03  0.30400550152E+03  0.12509000000E+03 0.  0.
         25    1    3    3    0    0  0.18050333537E+02  0.32357722298E+02 -0.14380314791E+02  0.13125219345E+03  0.12509000000E+03 0.  0.
         25    1    4    4    0    0 -0.18707343327E+02  0.20416545645E+02 -0.19824904598E+03  0.23604447115E+03  0.12509000000E+03 0.  0.
<mgrwt>
<rscale>  2 0.46451794E+03</rscale>
<asrwt>0</asrwt>
<pdfrwt beam="1">  1       21 0.13725634E-01 0.46451794E+03</pdfrwt>
<pdfrwt beam="2">  1       21 0.84995271E-01 0.46451794E+03</pdfrwt>
<totfact> 0.50585297E+04</totfact>
</mgrwt>
</event>
<event>
 7    0  0.4725730E-002  0.4810167E+03  0.7546771E-02  0.1018856E+00
         21   -1    0    0  502  501  0.00000000000E+00  0.00000000000E+00  0.10471477996E+04  0.10471477996E+04  0.00000000000E+00 0.  1.
         21   -1    0    0  501  502 -0.00000000000E+00 -0.00000000000E+00 -0.55239836478E+02  0.55239836478E+02  0.00000000000E+00 0.  1.
      99926    2    1    2    0    0  0.00000000000E+00  0.00000000000E+00  0.99190796310E+03  0.11023876361E+04  0.48101672826E+03 0.  0.
      99925    2    3    3    0    0  0.50220731189E+02  0.10483158373E+03  0.44669234302E+03  0.53105641577E+03  0.26263108086E+03 0.  0.
         25    1    3    3    0    0 -0.50220731189E+02 -0.10483158373E+03  0.54521562008E+03  0.57133122028E+03  0.12509000000E+03 0.  0.
         25    1    4    4    0    0  0.60253889806E+02  0.47542101224E+02  0.26504968656E+03  0.30296802979E+03  0.12509000000E+03 0.  0.
         25    1    4    4    0    0 -0.10033158617E+02  0.57289482507E+02  0.18164265645E+03  0.22808838599E+03  0.12509000000E+03 0.  0.
<mgrwt>
<rscale>  2 0.48101673E+03</rscale>
<asrwt>0</asrwt>
<pdfrwt beam="1">  1       21 0.15399231E+00 0.48101673E+03</pdfrwt>
<pdfrwt beam="2">  1       21 0.81235060E-02 0.48101673E+03</pdfrwt>
<totfact> 0.29051778E+04</totfact>
</mgrwt>
</event>
<event>
 7    0  0.4725730E-002  0.4563359E+03  0.7546771E-02  0.1025849E+00
         21   -1    0    0  502  501  0.00000000000E+00  0.00000000000E+00  0.24945678908E+03  0.24945678908E+03  0.00000000000E+00 0.  1.
         21   -1    0    0  501  502 -0.00000000000E+00 -0.00000000000E+00 -0.20869592659E+03  0.20869592659E+03  0.00000000000E+00 0.  1.
      99926    2    1    2    0    0  0.00000000000E+00  0.00000000000E+00  0.40760862495E+02  0.45815271567E+03  0.45633591023E+03 0.  0.
      99925    2    3    3    0    0  0.59943317191E+02  0.91275002993E+02 -0.84457459972E+01  0.28496747996E+03  0.26307946815E+03 0.  0.
         25    1    4    4    0    0  0.84092390958E+01  0.77406828007E+02  0.10204013571E+02  0.14769618247E+03  0.12509000000E+03 0.  0.
         25    1    3    3    0    0 -0.59943317191E+02 -0.91275002993E+02  0.49206608492E+02  0.17318523571E+03  0.12509000000E+03 0.  0.
         25    1    4    4    0    0  0.51534078095E+02  0.13868174986E+02 -0.18649759569E+02  0.13727129749E+03  0.12509000000E+03 0.  0.
<mgrwt>
<rscale>  2 0.45633591E+03</rscale>
<asrwt>0</asrwt>
<pdfrwt beam="1">  1       21 0.36684822E-01 0.45633591E+03</pdfrwt>
<pdfrwt beam="2">  1       21 0.30690577E-01 0.45633591E+03</pdfrwt>
<totfact> 0.67592135E+04</totfact>
</mgrwt>
</event>
<event>
 7    0  0.4725730E-002  0.4534899E+03  0.7546771E-02  0.1026686E+00
         21   -1    0    0  502  501  0.00000000000E+00  0.00000000000E+00  0.23413737232E+02  0.23413737232E+02  0.00000000000E+00 0.  1.
         21   -1    0    0  501  502 -0.00000000000E+00 -0.00000000000E+00 -0.21958594646E+04  0.21958594646E+04  0.00000000000E+00 0.  1.
      99926    2    1    2    0    0  0.00000000000E+00  0.00000000000E+00 -0.21724457273E+04  0.22192732018E+04  0.45348991831E+03 0.  0.
      99925    2    3    3    0    0  0.93024968939E+02 -0.35810649577E+02 -0.16162665940E+04  0.16405515209E+04  0.26297441401E+03 0.  0.
         25    1    4    4    0    0  0.12337275214E+02  0.78015988716E+01 -0.75357750378E+03  0.76402855680E+03  0.12509000000E+03 0.  0.
         25    1    4    4    0    0  0.80687693725E+02 -0.43612248449E+02 -0.86268909020E+03  0.87652296410E+03  0.12509000000E+03 0.  0.
         25    1    3    3    0    0 -0.93024968939E+02  0.35810649577E+02 -0.55617913336E+03  0.57872168090E+03  0.12509000000E+03 0.  0.
<mgrwt>
<rscale>  2 0.45348992E+03</rscale>
<asrwt>0</asrwt>
<pdfrwt beam="1">  1       21 0.34431937E-02 0.45348992E+03</pdfrwt>
<pdfrwt beam="2">  1       21 0.32292079E+00 0.45348992E+03</pdfrwt>
<totfact> 0.10572318E+04</totfact>
</mgrwt>
</event>
<event>
 7    0  0.4725730E-002  0.4479866E+03  0.7546771E-02  0.1028324E+00
         21   -1    0    0  502  501  0.00000000000E+00  0.00000000000E+00  0.42010700661E+03  0.42010700661E+03  0.00000000000E+00 0.  1.
         21   -1    0    0  501  502 -0.00000000000E+00 -0.00000000000E+00 -0.11942908170E+03  0.11942908170E+03  0.00000000000E+00 0.  1.
      99926    2    1    2    0    0  0.00000000000E+00  0.00000000000E+00  0.30067792491E+03  0.53953608831E+03  0.44798658023E+03 0.  0.
      99925    2    3    3    0    0 -0.52301778099E+02  0.92388002178E+02  0.19018329694E+03  0.34172913735E+03  0.26332128274E+03 0.  0.
         25    1    3    3    0    0  0.52301778099E+02 -0.92388002178E+02  0.11049462797E+03  0.19780695096E+03  0.12509000000E+03 0.  0.
         25    1    4    4    0    0 -0.26092136955E+02  0.81211811034E+02  0.73472466131E+02  0.16829102543E+03  0.12509000000E+03 0.  0.
         25    1    4    4    0    0 -0.26209641143E+02  0.11176191144E+02  0.11671083081E+03  0.17343811192E+03  0.12509000000E+03 0.  0.
<mgrwt>
<rscale>  2 0.44798658E+03</rscale>
<asrwt>0</asrwt>
<pdfrwt beam="1">  1       21 0.61780442E-01 0.44798658E+03</pdfrwt>
<pdfrwt beam="2">  1       21 0.17563100E-01 0.44798658E+03</pdfrwt>
<totfact> 0.66159660E+04</totfact>
</mgrwt>
</event>
<event>
 7    0  0.4725730E-002  0.4500909E+03  0.7546771E-02  0.1027695E+00
         21   -1    0    0  502  501  0.00000000000E+00  0.00000000000E+00  0.72139086458E+03  0.72139086458E+03  0.00000000000E+00 0. -1.
         21   -1    0    0  501  502 -0.00000000000E+00 -0.00000000000E+00 -0.70205282431E+02  0.70205282431E+02  0.00000000000E+00 0. -1.
      99926    2    1    2    0    0  0.00000000000E+00  0.00000000000E+00  0.65118558215E+03  0.79159614701E+03  0.45009087701E+03 0.  0.
      99925    2    3    3    0    0  0.54328083450E+02  0.87950182137E+02  0.46952254129E+03  0.54800685393E+03  0.26300821277E+03 0.  0.
         25    1    4    4    0    0  0.34485783852E+02  0.71106894622E+02  0.31099786566E+03  0.34440185873E+03  0.12509000000E+03 0.  0.
         25    1    3    3    0    0 -0.54328083450E+02 -0.87950182137E+02  0.18166304085E+03  0.24358929308E+03  0.12509000000E+03 0.  0.
         25    1    4    4    0    0  0.19842299597E+02  0.16843287515E+02  0.15852467563E+03  0.20360499520E+03  0.12509000000E+03 0.  0.
<mgrwt>
<rscale>  2 0.45009088E+03</rscale>
<asrwt>0</asrwt>
<pdfrwt beam="1">  1       21 0.10608689E+00 0.45009088E+03</pdfrwt>
<pdfrwt beam="2">  1       21 0.10324307E-01 0.45009088E+03</pdfrwt>
<totfact> 0.50075648E+04</totfact>
</mgrwt>
</event>
<event>
 7    0  0.4725730E-002  0.4570408E+03  0.7546771E-02  0.1025643E+00
         21   -1    0    0  502  501  0.00000000000E+00  0.00000000000E+00  0.95883906316E+03  0.95883906316E+03  0.00000000000E+00 0. -1.
         21   -1    0    0  501  502 -0.00000000000E+00 -0.00000000000E+00 -0.54463324424E+02  0.54463324424E+02  0.00000000000E+00 0. -1.
      99926    2    1    2    0    0  0.00000000000E+00  0.71054273576E-14  0.90437573874E+03  0.10133023876E+04  0.45704075515E+03 0.  0.
      99925    2    3    3    0    0  0.10321306564E+03 -0.42107956108E+02  0.50460596141E+03  0.57984027868E+03  0.26298584679E+03 0.  0.
         25    1    4    4    0    0  0.27137756714E+02 -0.36118064183E+02  0.30017470142E+03  0.32831894839E+03  0.12509000000E+03 0.  0.
         25    1    3    3    0    0 -0.10321306564E+03  0.42107956108E+02  0.39976977733E+03  0.43346210890E+03  0.12509000000E+03 0.  0.
         25    1    4    4    0    0  0.76075308924E+02 -0.59898919253E+01  0.20443125999E+03  0.25152133030E+03  0.12509000000E+03 0.  0.
<mgrwt>
<rscale>  2 0.45704076E+03</rscale>
<asrwt>0</asrwt>
<pdfrwt beam="1">  1       21 0.14100573E+00 0.45704076E+03</pdfrwt>
<pdfrwt beam="2">  1       21 0.80093130E-02 0.45704076E+03</pdfrwt>
<totfact> 0.38043476E+04</totfact>
</mgrwt>
</event>
<event>
 7    0  0.4725730E-002  0.4547245E+03  0.7546771E-02  0.1026322E+00
         21   -1    0    0  502  501  0.00000000000E+00  0.00000000000E+00  0.77896208789E+02  0.77896208789E+02  0.00000000000E+00 0.  1.
         21   -1    0    0  501  502 -0.00000000000E+00 -0.00000000000E+00 -0.66362137221E+03  0.66362137221E+03  0.00000000000E+00 0.  1.
      99926    2    1    2    0    0  0.00000000000E+00  0.00000000000E+00 -0.58572516343E+03  0.74151758100E+03  0.45472448347E+03 0.  0.
      99925    2    3    3    0    0  0.79736765181E+02 -0.56143251554E+02 -0.27569691360E+03  0.39327192029E+03  0.26295246472E+03 0.  0.
         25    1    4    4    0    0  0.61786037437E+02  0.54278394925E+01 -0.14580937155E+03  0.20187832176E+03  0.12509000000E+03 0.  0.
         25    1    3    3    0    0 -0.79736765181E+02  0.56143251554E+02 -0.31002824982E+03  0.34824566071E+03  0.12509000000E+03 0.  0.
         25    1    4    4    0    0  0.17950727744E+02 -0.61571091046E+02 -0.12988754206E+03  0.19139359854E+03  0.12509000000E+03 0.  0.
<mgrwt>
<rscale>  2 0.45472448E+03</rscale>
<asrwt>0</asrwt>
<pdfrwt beam="1">  1       21 0.11455326E-01 0.45472448E+03</pdfrwt>
<pdfrwt beam="2">  1       21 0.97591371E-01 0.45472448E+03</pdfrwt>
<totfact> 0.50816084E+04</totfact>
</mgrwt>
</event>
<event>
 7    0  0.4725730E-002  0.4486936E+03  0.7546771E-02  0.1028112E+00
         21   -1    0    0  502  501  0.00000000000E+00  0.00000000000E+00  0.56184585815E+02  0.56184585815E+02  0.00000000000E+00 0. -1.
         21   -1    0    0  501  502 -0.00000000000E+00 -0.00000000000E+00 -0.89582394109E+03  0.89582394109E+03  0.00000000000E+00 0. -1.
      99926    2    1    2    0    0  0.00000000000E+00 -0.14210854715E-13 -0.83963935528E+03  0.95200852691E+03  0.44869364646E+03 0.  0.
      99925    2    3    3    0    0 -0.61916901536E+02 -0.82026202677E+02 -0.46739547013E+03  0.54608363391E+03  0.26303385544E+03 0.  0.
         25    1    4    4    0    0 -0.90435890947E+01 -0.12396920438E+02 -0.25617298630E+03  0.28549531896E+03  0.12509000000E+03 0.  0.
         25    1    4    4    0    0 -0.52873312441E+02 -0.69629282239E+02 -0.21122248383E+03  0.26058831495E+03  0.12509000000E+03 0.  0.
         25    1    3    3    0    0  0.61916901536E+02  0.82026202677E+02 -0.37224388515E+03  0.40592489299E+03  0.12509000000E+03 0.  0.
<mgrwt>
<rscale>  2 0.44869365E+03</rscale>
<asrwt>0</asrwt>
<pdfrwt beam="1">  1       21 0.82624401E-02 0.44869365E+03</pdfrwt>
<pdfrwt beam="2">  1       21 0.13173880E+00 0.44869365E+03</pdfrwt>
<totfact> 0.43148382E+04</totfact>
</mgrwt>
</event>
<event>
 7    0  0.4725730E-002  0.4497212E+03  0.7546771E-02  0.1027805E+00
         21   -1    0    0  502  501  0.00000000000E+00  0.00000000000E+00  0.72955340621E+03  0.72955340621E+03  0.00000000000E+00 0. -1.
         21   -1    0    0  501  502 -0.00000000000E+00 -0.00000000000E+00 -0.69305800185E+02  0.69305800185E+02  0.00000000000E+00 0. -1.
      99926    2    1    2    0    0  0.00000000000E+00  0.00000000000E+00  0.66024760602E+03  0.79885920639E+03  0.44972116959E+03 0.  0.
      99925    2    3    3    0    0  0.74170936814E+02  0.23500643653E+02  0.28393748462E+03  0.39474236229E+03  0.26295898785E+03 0.  0.
         25    1    3    3    0    0 -0.74170936814E+02 -0.23500643653E+02  0.37631012141E+03  0.40411684411E+03  0.12509000000E+03 0.  0.
         25    1    4    4    0    0  0.44465083448E+02 -0.20781541571E+02  0.17420001637E+03  0.22000493158E+03  0.12509000000E+03 0.  0.
         25    1    4    4    0    0  0.29705853366E+02  0.44282185223E+02  0.10973746825E+03  0.17473743071E+03  0.12509000000E+03 0.  0.
<mgrwt>
<rscale>  2 0.44972117E+03</rscale>
<asrwt>0</asrwt>
<pdfrwt beam="1">  1       21 0.10728726E+00 0.44972117E+03</pdfrwt>
<pdfrwt beam="2">  1       21 0.10192030E-01 0.44972117E+03</pdfrwt>
<totfact> 0.49853495E+04</totfact>
</mgrwt>
</event>
<event>
 7    0  0.4725730E-002  0.4541025E+03  0.7546771E-02  0.1026506E+00
         21   -1    0    0  502  501  0.00000000000E+00  0.00000000000E+00  0.18347750563E+03  0.18347750563E+03  0.00000000000E+00 0.  1.
         21   -1    0    0  501  502 -0.00000000000E+00 -0.00000000000E+00 -0.28097325112E+03  0.28097325112E+03  0.00000000000E+00 0.  1.
      99926    2    1    2    0    0 -0.71054273576E-14  0.88817841970E-15 -0.97495745485E+02  0.46445075675E+03  0.45410250501E+03 0.  0.
      99925    2    3    3    0    0  0.59229000253E+02 -0.58977516746E+01 -0.15920291853E+03  0.31279937611E+03  0.26259288352E+03 0.  0.
         25    1    4    4    0    0  0.30254460964E+02  0.33899918514E+02 -0.96957468728E+02  0.16465963599E+03  0.12509000000E+03 0.  0.
         25    1    4    4    0    0  0.28974539289E+02 -0.39797670188E+02 -0.62245449804E+02  0.14813974011E+03  0.12509000000E+03 0.  0.
         25    1    3    3    0    0 -0.59229000253E+02  0.58977516746E+01  0.61707173047E+02  0.15165138064E+03  0.12509000000E+03 0.  0.
<mgrwt>
<rscale>  2 0.45410251E+03</rscale>
<asrwt>0</asrwt>
<pdfrwt beam="1">  1       21 0.26981987E-01 0.45410251E+03</pdfrwt>
<pdfrwt beam="2">  1       21 0.41319595E-01 0.45410251E+03</pdfrwt>
<totfact> 0.68336469E+04</totfact>
</mgrwt>
</event>
<event>
 7    0  0.4725730E-002  0.4480922E+03  0.7546771E-02  0.1028292E+00
         21   -1    0    0  502  501  0.00000000000E+00  0.00000000000E+00  0.52030021723E+02  0.52030021723E+02  0.00000000000E+00 0. -1.
         21   -1    0    0  501  502 -0.00000000000E+00 -0.00000000000E+00 -0.96476327497E+03  0.96476327497E+03  0.00000000000E+00 0. -1.
      99926    2    1    2    0    0  0.00000000000E+00 -0.71054273576E-14 -0.91273325325E+03  0.10167932967E+04  0.44809219656E+03 0.  0.
      99925    2    3    3    0    0  0.69724071372E+02 -0.53535344174E+02 -0.44118830958E+03  0.52108206906E+03  0.26296752457E+03 0.  0.
         25    1    4    4    0    0  0.38575278479E+02 -0.53812548672E+02 -0.17298018724E+03  0.22350278696E+03  0.12509000000E+03 0.  0.
         25    1    3    3    0    0 -0.69724071372E+02  0.53535344174E+02 -0.47154494367E+03  0.49571122763E+03  0.12509000000E+03 0.  0.
         25    1    4    4    0    0  0.31148792893E+02  0.27720449783E+00 -0.26820812234E+03  0.29757928209E+03  0.12509000000E+03 0.  0.
<mgrwt>
<rscale>  2 0.44809220E+03</rscale>
<asrwt>0</asrwt>
<pdfrwt beam="1">  1       21 0.76514748E-02 0.44809220E+03</pdfrwt>
<pdfrwt beam="2">  1       21 0.14187693E+00 0.44809220E+03</pdfrwt>
<totfact> 0.40669580E+04</totfact>
</mgrwt>
</event>
<event>
 7    0  0.4725730E-002  0.4561848E+03  0.7546771E-02  0.1025894E+00
         21   -1    0    0  502  501  0.00000000000E+00  0.00000000000E+00  0.76796796418E+02  0.76796796418E+02  0.00000000000E+00 0. -1.
         21   -1    0    0  501  502 -0.00000000000E+00 -0.00000000000E+00 -0.67745193830E+03  0.67745193830E+03  0.00000000000E+00 0. -1.
      99926    2    1    2    0    0  0.00000000000E+00  0.00000000000E+00 -0.60065514188E+03  0.75424873472E+03  0.45618478093E+03 0.  0.
      99925    2    3    3    0    0  0.51377909248E+02 -0.89714547944E+02 -0.29645331263E+03  0.40946670112E+03  0.26284981089E+03 0.  0.
         25    1    4    4    0    0  0.46777355044E+02 -0.23249449073E+02 -0.10608131778E+03  0.17213196074E+03  0.12509000000E+03 0.  0.
         25    1    4    4    0    0  0.46005542046E+01 -0.66465098872E+02 -0.19037199485E+03  0.23733474038E+03  0.12509000000E+03 0.  0.
         25    1    3    3    0    0 -0.51377909248E+02  0.89714547944E+02 -0.30420182925E+03  0.34478203360E+03  0.12509000000E+03 0.  0.
<mgrwt>
<rscale>  2 0.45618478E+03</rscale>
<asrwt>0</asrwt>
<pdfrwt beam="1">  1       21 0.11293647E-01 0.45618478E+03</pdfrwt>
<pdfrwt beam="2">  1       21 0.99625283E-01 0.45618478E+03</pdfrwt>
<totfact> 0.49591282E+04</totfact>
</mgrwt>
</event>
<event>
 7    0  0.4725730E-002  0.4588138E+03  0.7546771E-02  0.1025126E+00
         21   -1    0    0  502  501  0.00000000000E+00  0.00000000000E+00  0.10426918354E+03  0.10426918354E+03  0.00000000000E+00 0.  1.
         21   -1    0    0  501  502 -0.00000000000E+00 -0.00000000000E+00 -0.50472744944E+03  0.50472744944E+03  0.00000000000E+00 0.  1.
      99926    2    1    2    0    0  0.00000000000E+00  0.35527136788E-14 -0.40045826590E+03  0.60899663298E+03  0.45881377078E+03 0.  0.
      99925    2    3    3    0    0  0.38304337227E+02  0.72792444838E+01 -0.10532936483E+03  0.28608985696E+03  0.26312149572E+03 0.  0.
         25    1    4    4    0    0  0.27239608408E+02 -0.20683701294E+02 -0.18783526841E+02  0.13103488370E+03  0.12509000000E+03 0.  0.
         25    1    3    3    0    0 -0.38304337227E+02 -0.72792444838E+01 -0.29512890108E+03  0.32290677602E+03  0.12509000000E+03 0.  0.
         25    1    4    4    0    0  0.11064728818E+02  0.27962945778E+02 -0.86545837988E+02  0.15505497326E+03  0.12509000000E+03 0.  0.
<mgrwt>
<rscale>  2 0.45881377E+03</rscale>
<asrwt>0</asrwt>
<pdfrwt beam="1">  1       21 0.15333703E-01 0.45881377E+03</pdfrwt>
<pdfrwt beam="2">  1       21 0.74224625E-01 0.45881377E+03</pdfrwt>
<totfact> 0.56409191E+04</totfact>
</mgrwt>
</event>
<event>
 7    0  0.4725730E-002  0.4471576E+03  0.7546771E-02  0.1028573E+00
         21   -1    0    0  502  501  0.00000000000E+00  0.00000000000E+00  0.57567962895E+03  0.57567962895E+03  0.00000000000E+00 0.  1.
         21   -1    0    0  501  502 -0.00000000000E+00 -0.00000000000E+00 -0.86832111659E+02  0.86832111659E+02  0.00000000000E+00 0.  1.
      99926    2    1    2    0    0  0.00000000000E+00  0.00000000000E+00  0.48884751729E+03  0.66251174061E+03  0.44715759111E+03 0.  0.
      99925    2    3    3    0    0 -0.71756251951E+02 -0.63837198101E+02  0.37535032662E+03  0.46820973870E+03  0.26288465943E+03 0.  0.
         25    1    3    3    0    0  0.71756251951E+02  0.63837198101E+02  0.11349719067E+03  0.19430200191E+03  0.12509000000E+03 0.  0.
         25    1    4    4    0    0 -0.44197989139E+02 -0.58031346461E+02  0.24992033656E+03  0.28884040947E+03  0.12509000000E+03 0.  0.
         25    1    4    4    0    0 -0.27558262812E+02 -0.58058516396E+01  0.12542999006E+03  0.17936932923E+03  0.12509000000E+03 0.  0.
<mgrwt>
<rscale>  2 0.44715759E+03</rscale>
<asrwt>0</asrwt>
<pdfrwt beam="1">  1       21 0.84658768E-01 0.44715759E+03</pdfrwt>
<pdfrwt beam="2">  1       21 0.12769428E-01 0.44715759E+03</pdfrwt>
<totfact> 0.58520303E+04</totfact>
</mgrwt>
</event>
<event>
 7    0  0.4725730E-002  0.4505276E+03  0.7546771E-02  0.1027565E+00
         21   -1    0    0  502  501  0.00000000000E+00  0.00000000000E+00  0.37379722863E+04  0.37379722863E+04  0.00000000000E+00 0.  1.
         21   -1    0    0  501  502 -0.00000000000E+00 -0.00000000000E+00 -0.13575215004E+02  0.13575215004E+02  0.00000000000E+00 0.  1.
      99926    2    1    2    0    0  0.00000000000E+00  0.00000000000E+00  0.37243970713E+04  0.37515475013E+04  0.45052759056E+03 0.  0.
      99925    2    3    3    0    0  0.87554469446E+02  0.64713464211E+02  0.23698637876E+04  0.23869004619E+04  0.26303198549E+03 0.  0.
         25    1    4    4    0    0  0.35679455793E+02 -0.62059007192E+01  0.96600761244E+03  0.97474599366E+03  0.12509000000E+03 0.  0.
         25    1    3    3    0    0 -0.87554469446E+02 -0.64713464211E+02  0.13545332836E+04  0.13646470394E+04  0.12509000000E+03 0.  0.
         25    1    4    4    0    0  0.51875013653E+02  0.70919364930E+02  0.14038561752E+04  0.14121544682E+04  0.12509000000E+03 0.  0.
<mgrwt>
<rscale>  2 0.45052759E+03</rscale>
<asrwt>0</asrwt>
<pdfrwt beam="1">  1       21 0.54970109E+00 0.45052759E+03</pdfrwt>
<pdfrwt beam="2">  1       21 0.19963577E-02 0.45052759E+03</pdfrwt>
<totfact> 0.79830378E+02</totfact>
</mgrwt>
</event>
<event>
 7    0  0.4725730E-002  0.4539344E+03  0.7546771E-02  0.1026555E+00
         21   -1    0    0  502  501  0.00000000000E+00  0.00000000000E+00  0.43555610298E+03  0.43555610298E+03  0.00000000000E+00 0.  1.
         21   -1    0    0  501  502 -0.00000000000E+00 -0.00000000000E+00 -0.11827206098E+03  0.11827206098E+03  0.00000000000E+00 0.  1.
      99926    2    1    2    0    0  0.14210854715E-13  0.00000000000E+00  0.31728404200E+03  0.55382816396E+03  0.45393443568E+03 0.  0.
      99925    2    3    3    0    0 -0.66892343209E+02 -0.88527070943E+02  0.22030601561E+03  0.36053079313E+03  0.26293741539E+03 0.  0.
         25    1    3    3    0    0  0.66892343209E+02  0.88527070943E+02  0.96978026388E+02  0.19329737084E+03  0.12509000000E+03 0.  0.
         25    1    4    4    0    0 -0.50742497956E+02 -0.81554924951E+02  0.10476498753E+03  0.18933889615E+03  0.12509000000E+03 0.  0.
         25    1    4    4    0    0 -0.16149845253E+02 -0.69721459922E+01  0.11554102808E+03  0.17119189698E+03  0.12509000000E+03 0.  0.
<mgrwt>
<rscale>  2 0.45393444E+03</rscale>
<asrwt>0</asrwt>
<pdfrwt beam="1">  1       21 0.64052368E-01 0.45393444E+03</pdfrwt>
<pdfrwt beam="2">  1       21 0.17392950E-01 0.45393444E+03</pdfrwt>
<totfact> 0.62136394E+04</totfact>
</mgrwt>
</event>
<event>
 7    0  0.4725730E-002  0.4509558E+03  0.7546771E-02  0.1027437E+00
         21   -1    0    0  502  501  0.00000000000E+00  0.00000000000E+00  0.71827070863E+03  0.71827070863E+03  0.00000000000E+00 0. -1.
         21   -1    0    0  501  502 -0.00000000000E+00 -0.00000000000E+00 -0.70781518028E+02  0.70781518028E+02  0.00000000000E+00 0. -1.
      99926    2    1    2    0    0 -0.17763568394E-14  0.00000000000E+00  0.64748919060E+03  0.78905222666E+03  0.45095583425E+03 0.  0.
      99925    2    3    3    0    0  0.11726784032E+02 -0.10039852625E+03  0.48196465197E+03  0.55826387660E+03  0.26296624997E+03 0.  0.
         25    1    3    3    0    0 -0.11726784032E+02  0.10039852625E+03  0.16552453863E+03  0.23078835006E+03  0.12509000000E+03 0.  0.
         25    1    4    4    0    0 -0.72840444538E+01 -0.62862890077E+02  0.17569520533E+03  0.22476902261E+03  0.12509000000E+03 0.  0.
         25    1    4    4    0    0  0.19010828486E+02 -0.37535636171E+02  0.30626944665E+03  0.33349485398E+03  0.12509000000E+03 0.  0.
<mgrwt>
<rscale>  2 0.45095583E+03</rscale>
<asrwt>0</asrwt>
<pdfrwt beam="1">  1       21 0.10562804E+00 0.45095583E+03</pdfrwt>
<pdfrwt beam="2">  1       21 0.10409047E-01 0.45095583E+03</pdfrwt>
<totfact> 0.49862873E+04</totfact>
</mgrwt>
</event>
<event>
 7    0  0.4725730E-002  0.4537466E+03  0.7546771E-02  0.1026611E+00
         21   -1    0    0  502  501  0.00000000000E+00  0.00000000000E+00  0.33806406361E+03  0.33806406361E+03  0.00000000000E+00 0. -1.
         21   -1    0    0  501  502 -0.00000000000E+00 -0.00000000000E+00 -0.15225365972E+03  0.15225365972E+03  0.00000000000E+00 0. -1.
      99926    2    1    2    0    0 -0.17763568394E-14  0.00000000000E+00  0.18581040389E+03  0.49031772334E+03  0.45374658525E+03 0.  0.
      99925    2    3    3    0    0 -0.10879416104E+02 -0.10082968559E+03  0.16823557347E+03  0.32832584096E+03  0.26307729372E+03 0.  0.
         25    1    3    3    0    0  0.10879416104E+02  0.10082968559E+03  0.17574830415E+02  0.16199188238E+03  0.12509000000E+03 0.  0.
         25    1    4    4    0    0 -0.40136276244E+02 -0.70043224958E+02  0.75542736306E+02  0.16694665957E+03  0.12509000000E+03 0.  0.
         25    1    4    4    0    0  0.29256860140E+02 -0.30786460635E+02  0.92692837168E+02  0.16137918139E+03  0.12509000000E+03 0.  0.
<mgrwt>
<rscale>  2 0.45374659E+03</rscale>
<asrwt>0</asrwt>
<pdfrwt beam="1">  1       21 0.49715304E-01 0.45374659E+03</pdfrwt>
<pdfrwt beam="2">  1       21 0.22390244E-01 0.45374659E+03</pdfrwt>
<totfact> 0.66616770E+04</totfact>
</mgrwt>
</event>
<event>
 7    0  0.4725730E-002  0.4624189E+03  0.7546771E-02  0.1024082E+00
         21   -1    0    0  502  501  0.00000000000E+00  0.00000000000E+00  0.20273507577E+03  0.20273507577E+03  0.00000000000E+00 0.  1.
         21   -1    0    0  501  502 -0.00000000000E+00 -0.00000000000E+00 -0.26368311483E+03  0.26368311483E+03  0.00000000000E+00 0.  1.
      99926    2    1    2    0    0 -0.26645352591E-14 -0.13322676296E-14 -0.60948039058E+02  0.46641819061E+03  0.46241892810E+03 0.  0.
      99925    2    3    3    0    0 -0.11741365031E+01  0.37387127966E+01 -0.15875196602E+03  0.30758345637E+03  0.26341989171E+03 0.  0.
         25    1    4    4    0    0 -0.18931463590E+02  0.37342698821E+02 -0.67738321486E+02  0.14828643150E+03  0.12509000000E+03 0.  0.
         25    1    4    4    0    0  0.17757327087E+02 -0.33603986024E+02 -0.91013644536E+02  0.15929702487E+03  0.12509000000E+03 0.  0.
         25    1    3    3    0    0  0.11741365031E+01 -0.37387127966E+01  0.97803926964E+02  0.15883473423E+03  0.12509000000E+03 0.  0.
<mgrwt>
<rscale>  2 0.46241893E+03</rscale>
<asrwt>0</asrwt>
<pdfrwt beam="1">  1       21 0.29813982E-01 0.46241893E+03</pdfrwt>
<pdfrwt beam="2">  1       21 0.38776929E-01 0.46241893E+03</pdfrwt>
<totfact> 0.63853021E+04</totfact>
</mgrwt>
</event>
<event>
 7    0  0.4725730E-002  0.4457014E+03  0.7546771E-02  0.1029012E+00
         21   -1    0    0  502  501  0.00000000000E+00  0.00000000000E+00  0.10093927449E+03  0.10093927449E+03  0.00000000000E+00 0. -1.
         21   -1    0    0  501  502 -0.00000000000E+00 -0.00000000000E+00 -0.49200300912E+03  0.49200300912E+03  0.00000000000E+00 0. -1.
      99926    2    1    2    0    0 -0.35527136788E-14  0.00000000000E+00 -0.39106373462E+03  0.59294228361E+03  0.44570136543E+03 0.  0.
      99925    2    3    3    0    0  0.16153191933E+02 -0.89469861837E+02 -0.31549936671E+03  0.42082818312E+03  0.26323131943E+03 0.  0.
         25    1    4    4    0    0  0.33001429238E+02 -0.25551429360E+02 -0.19261833802E+03  0.23343372103E+03  0.12509000000E+03 0.  0.
         25    1    3    3    0    0 -0.16153191933E+02  0.89469861837E+02 -0.75564367919E+02  0.17211410049E+03  0.12509000000E+03 0.  0.
         25    1    4    4    0    0 -0.16848237305E+02 -0.63918432477E+02 -0.12288102869E+03  0.18739446209E+03  0.12509000000E+03 0.  0.
<mgrwt>
<rscale>  2 0.44570137E+03</rscale>
<asrwt>0</asrwt>
<pdfrwt beam="1">  1       21 0.14844011E-01 0.44570137E+03</pdfrwt>
<pdfrwt beam="2">  1       21 0.72353382E-01 0.44570137E+03</pdfrwt>
<totfact> 0.63665752E+04</totfact>
</mgrwt>
</event>
<event>
 7    0  0.4725730E-002  0.4574157E+03  0.7546771E-02  0.1025533E+00
         21   -1    0    0  502  501  0.00000000000E+00  0.00000000000E+00  0.30231828392E+02  0.30231828392E+02  0.00000000000E+00 0. -1.
         21   -1    0    0  501  502 -0.00000000000E+00 -0.00000000000E+00 -0.17302053189E+04  0.17302053189E+04  0.00000000000E+00 0. -1.
      99926    2    1    2    0    0  0.00000000000E+00  0.00000000000E+00 -0.16999734905E+04  0.17604371472E+04  0.45741565466E+03 0.  0.
      99925    2    3    3    0    0 -0.11275849885E+03 -0.21857210975E+02 -0.11102515625E+04  0.11467501936E+04  0.26303090618E+03 0.  0.
         25    1    3    3    0    0  0.11275849885E+03  0.21857210975E+02 -0.58972192795E+03  0.61368695370E+03  0.12509000000E+03 0.  0.
         25    1    4    4    0    0 -0.40518742108E+02 -0.37138132072E+02 -0.43092202600E+03  0.45206449751E+03  0.12509000000E+03 0.  0.
         25    1    4    4    0    0 -0.72239756739E+02  0.15280921097E+02 -0.67932953651E+03  0.69468569604E+03  0.12509000000E+03 0.  0.
<mgrwt>
<rscale>  2 0.45741565E+03</rscale>
<asrwt>0</asrwt>
<pdfrwt beam="1">  1       21 0.44458554E-02 0.45741565E+03</pdfrwt>
<pdfrwt beam="2">  1       21 0.25444206E+00 0.45741565E+03</pdfrwt>
<totfact> 0.17697930E+04</totfact>
</mgrwt>
</event>
<event>
 7    0  0.4725730E-002  0.4635073E+03  0.7546771E-02  0.1023769E+00
         21   -1    0    0  502  501  0.00000000000E+00  0.00000000000E+00  0.85491748776E+02  0.85491748776E+02  0.00000000000E+00 0.  1.
         21   -1    0    0  501  502 -0.00000000000E+00 -0.00000000000E+00 -0.62824486632E+03  0.62824486632E+03  0.00000000000E+00 0.  1.
      99926    2    1    2    0    0  0.00000000000E+00  0.00000000000E+00 -0.54275311755E+03  0.71373661510E+03  0.46350729134E+03 0.  0.
      99925    2    3    3    0    0  0.65564441556E+02  0.10074202614E+03 -0.31790184291E+03  0.42974144677E+03  0.26299900669E+03 0.  0.
         25    1    3    3    0    0 -0.65564441556E+02 -0.10074202614E+03 -0.22485127463E+03  0.28399516832E+03  0.12509000000E+03 0.  0.
         25    1    4    4    0    0  0.27461265884E+02  0.96100254337E+01 -0.16261713737E+03  0.20721562485E+03  0.12509000000E+03 0.  0.
         25    1    4    4    0    0  0.38103175672E+02  0.91132000709E+02 -0.15528470554E+03  0.22252582193E+03  0.12509000000E+03 0.  0.
<mgrwt>
<rscale>  2 0.46350729E+03</rscale>
<asrwt>0</asrwt>
<pdfrwt beam="1">  1       21 0.12572316E-01 0.46350729E+03</pdfrwt>
<pdfrwt beam="2">  1       21 0.92388952E-01 0.46350729E+03</pdfrwt>
<totfact> 0.48813573E+04</totfact>
</mgrwt>
</event>
<event>
 7    0  0.4725730E-002  0.4616858E+03  0.7546771E-02  0.1024293E+00
         21   -1    0    0  502  501  0.00000000000E+00  0.00000000000E+00  0.96667303717E+02  0.96667303717E+02  0.00000000000E+00 0.  1.
         21   -1    0    0  501  502 -0.00000000000E+00 -0.00000000000E+00 -0.55125602553E+03  0.55125602553E+03  0.00000000000E+00 0.  1.
      99926    2    1    2    0    0  0.00000000000E+00  0.14210854715E-13 -0.45458872182E+03  0.64792332925E+03  0.46168575307E+03 0.  0.
      99925    2    3    3    0    0 -0.51405990565E+02  0.10063047125E+03 -0.33508481256E+03  0.44128896609E+03  0.26397926506E+03 0.  0.
         25    1    4    4    0    0  0.79626963921E+01  0.43129975154E+02 -0.19710474824E+03  0.23753186980E+03  0.12509000000E+03 0.  0.
         25    1    4    4    0    0 -0.59368686957E+02  0.57500496091E+02 -0.13798006432E+03  0.20375709629E+03  0.12509000000E+03 0.  0.
         25    1    3    3    0    0  0.51405990565E+02 -0.10063047125E+03 -0.11950390926E+03  0.20663436316E+03  0.12509000000E+03 0.  0.
<mgrwt>
<rscale>  2 0.46168575E+03</rscale>
<asrwt>0</asrwt>
<pdfrwt beam="1">  1       21 0.14215780E-01 0.46168575E+03</pdfrwt>
<pdfrwt beam="2">  1       21 0.81067063E-01 0.46168575E+03</pdfrwt>
<totfact> 0.52971248E+04</totfact>
</mgrwt>
</event>
<event>
 7    0  0.4725730E-002  0.4523197E+03  0.7546771E-02  0.1027033E+00
         21   -1    0    0  502  501  0.00000000000E+00  0.00000000000E+00  0.26505080193E+03  0.26505080193E+03  0.00000000000E+00 0.  1.
         21   -1    0    0  501  502 -0.00000000000E+00 -0.00000000000E+00 -0.19297540041E+03  0.19297540041E+03  0.00000000000E+00 0.  1.
      99926    2    1    2    0    0  0.17763568394E-14  0.00000000000E+00  0.72075401517E+02  0.45802620233E+03  0.45231973041E+03 0.  0.
      99925    2    3    3    0    0  0.11017647988E+02 -0.63104693125E+02 -0.45756002478E+02  0.27462680558E+03  0.26310203291E+03 0.  0.
         25    1    3    3    0    0 -0.11017647988E+02  0.63104693125E+02  0.11783140400E+03  0.18339939675E+03  0.12509000000E+03 0.  0.
         25    1    4    4    0    0 -0.27304073780E+02 -0.44651297270E+02 -0.43774779182E+02  0.14248856159E+03  0.12509000000E+03 0.  0.
         25    1    4    4    0    0  0.38321721768E+02 -0.18453395855E+02 -0.19812232961E+01  0.13213824399E+03  0.12509000000E+03 0.  0.
<mgrwt>
<rscale>  2 0.45231973E+03</rscale>
<asrwt>0</asrwt>
<pdfrwt beam="1">  1       21 0.38978059E-01 0.45231973E+03</pdfrwt>
<pdfrwt beam="2">  1       21 0.28378735E-01 0.45231973E+03</pdfrwt>
<totfact> 0.69804732E+04</totfact>
</mgrwt>
</event>
<event>
 7    0  0.4725730E-002  0.4520498E+03  0.7546771E-02  0.1027113E+00
         21   -1    0    0  502  501  0.00000000000E+00  0.00000000000E+00  0.91755295871E+02  0.91755295871E+02  0.00000000000E+00 0.  1.
         21   -1    0    0  501  502 -0.00000000000E+00 -0.00000000000E+00 -0.55677726279E+03  0.55677726279E+03  0.00000000000E+00 0.  1.
      99926    2    1    2    0    0 -0.17763568394E-14  0.00000000000E+00 -0.46502196692E+03  0.64853255867E+03  0.45204983124E+03 0.  0.
      99925    2    3    3    0    0 -0.96499091427E+01 -0.65328691153E+02 -0.16637897838E+03  0.31808422482E+03  0.26293468961E+03 0.  0.
         25    1    3    3    0    0  0.96499091427E+01  0.65328691153E+02 -0.29864298855E+03  0.33044833385E+03  0.12509000000E+03 0.  0.
         25    1    4    4    0    0 -0.18195164599E+02 -0.15471127353E+02 -0.40715928544E+02  0.13370009250E+03  0.12509000000E+03 0.  0.
         25    1    4    4    0    0  0.85452554559E+01 -0.49857563800E+02 -0.12566304983E+03  0.18438413232E+03  0.12509000000E+03 0.  0.
<mgrwt>
<rscale>  2 0.45204983E+03</rscale>
<asrwt>0</asrwt>
<pdfrwt beam="1">  1       21 0.13493426E-01 0.45204983E+03</pdfrwt>
<pdfrwt beam="2">  1       21 0.81879008E-01 0.45204983E+03</pdfrwt>
<totfact> 0.57103594E+04</totfact>
</mgrwt>
</event>
<event>
 7    0  0.4725730E-002  0.4561338E+03  0.7546771E-02  0.1025909E+00
         21   -1    0    0  502  501  0.00000000000E+00  0.00000000000E+00  0.14320895028E+03  0.14320895028E+03  0.00000000000E+00 0. -1.
         21   -1    0    0  501  502 -0.00000000000E+00 -0.00000000000E+00 -0.36320716181E+03  0.36320716181E+03  0.00000000000E+00 0. -1.
      99926    2    1    2    0    0  0.00000000000E+00  0.00000000000E+00 -0.21999821153E+03  0.50641611209E+03  0.45613382412E+03 0.  0.
      99925    2    3    3    0    0 -0.26703140213E+02 -0.11104031770E+03 -0.13528103849E+03  0.31702889668E+03  0.26298926233E+03 0.  0.
         25    1    4    4    0    0 -0.16234775274E+02 -0.72053625482E+02 -0.29324944711E+02  0.14819835814E+03  0.12509000000E+03 0.  0.
         25    1    4    4    0    0 -0.10468364938E+02 -0.38986692222E+02 -0.10595609378E+03  0.16883053854E+03  0.12509000000E+03 0.  0.
         25    1    3    3    0    0  0.26703140213E+02  0.11104031770E+03 -0.84717173048E+02  0.18938721541E+03  0.12509000000E+03 0.  0.
<mgrwt>
<rscale>  2 0.45613382E+03</rscale>
<asrwt>0</asrwt>
<pdfrwt beam="1">  1       21 0.21060140E-01 0.45613382E+03</pdfrwt>
<pdfrwt beam="2">  1       21 0.53412817E-01 0.45613382E+03</pdfrwt>
<totfact> 0.64242135E+04</totfact>
</mgrwt>
</event>
<event>
 7    0  0.4725730E-002  0.4552507E+03  0.7546771E-02  0.1026168E+00
         21   -1    0    0  502  501  0.00000000000E+00  0.00000000000E+00  0.10067712840E+04  0.10067712840E+04  0.00000000000E+00 0.  1.
         21   -1    0    0  501  502 -0.00000000000E+00 -0.00000000000E+00 -0.51464815566E+02  0.51464815566E+02  0.00000000000E+00 0.  1.
      99926    2    1    2    0    0  0.00000000000E+00 -0.71054273576E-14  0.95530646846E+03  0.10582360996E+04  0.45525069335E+03 0.  0.
      99925    2    3    3    0    0 -0.10802451248E+03 -0.37377579180E+02  0.60840115697E+03  0.67215685648E+03  0.26187113852E+03 0.  0.
         25    1    3    3    0    0  0.10802451248E+03  0.37377579180E+02  0.34690531149E+03  0.38607924311E+03  0.12509000000E+03 0.  0.
         25    1    4    4    0    0 -0.78471980103E+02 -0.36894822897E+02  0.39129399354E+03  0.41985423316E+03  0.12509000000E+03 0.  0.
         25    1    4    4    0    0 -0.29552532379E+02 -0.48275628299E+00  0.21710716343E+03  0.25230262332E+03  0.12509000000E+03 0.  0.
<mgrwt>
<rscale>  2 0.45525069E+03</rscale>
<asrwt>0</asrwt>
<pdfrwt beam="1">  1       21 0.14805459E+00 0.45525069E+03</pdfrwt>
<pdfrwt beam="2">  1       21 0.75683558E-02 0.45525069E+03</pdfrwt>
<totfact> 0.36904369E+04</totfact>
</mgrwt>
</event>
<event>
 7    0  0.4725730E-002  0.4570929E+03  0.7546771E-02  0.1025628E+00
         21   -1    0    0  502  501  0.00000000000E+00  0.00000000000E+00  0.14491186518E+03  0.14491186518E+03  0.00000000000E+00 0. -1.
         21   -1    0    0  501  502 -0.00000000000E+00 -0.00000000000E+00 -0.36044999718E+03  0.36044999718E+03  0.00000000000E+00 0. -1.
      99926    2    1    2    0    0  0.14210854715E-13  0.00000000000E+00 -0.21553813200E+03  0.50536186235E+03  0.45709290694E+03 0.  0.
      99925    2    3    3    0    0  0.10602164958E+03 -0.33147010771E+02 -0.10202193727E+03  0.30319176301E+03  0.26301607360E+03 0.  0.
         25    1    3    3    0    0 -0.10602164958E+03  0.33147010771E+02 -0.11351619473E+03  0.20217009934E+03  0.12509000000E+03 0.  0.
         25    1    4    4    0    0  0.58517032960E+02 -0.28972232534E+02 -0.93039245174E+02  0.16901906001E+03  0.12509000000E+03 0.  0.
         25    1    4    4    0    0  0.47504616616E+02 -0.41747782364E+01 -0.89826920961E+01  0.13417270300E+03  0.12509000000E+03 0.  0.
<mgrwt>
<rscale>  2 0.45709291E+03</rscale>
<asrwt>0</asrwt>
<pdfrwt beam="1">  1       21 0.21310568E-01 0.45709291E+03</pdfrwt>
<pdfrwt beam="2">  1       21 0.53007353E-01 0.45709291E+03</pdfrwt>
<totfact> 0.63828643E+04</totfact>
</mgrwt>
</event>
<event>
 7    0  0.4725730E-002  0.4559296E+03  0.7546771E-02  0.1025968E+00
         21   -1    0    0  502  501  0.00000000000E+00  0.00000000000E+00  0.22439001595E+02  0.22439001595E+02  0.00000000000E+00 0. -1.
         21   -1    0    0  501  502 -0.00000000000E+00 -0.00000000000E+00 -0.23159656334E+04  0.23159656334E+04  0.00000000000E+00 0. -1.
      99926    2    1    2    0    0  0.00000000000E+00 -0.71054273576E-14 -0.22935266318E+04  0.23384046350E+04  0.45592962853E+03 0.  0.
      99925    2    3    3    0    0 -0.44281244450E+02 -0.51157731357E+02 -0.96722174255E+03  0.10044968011E+04  0.26252234567E+03 0.  0.
         25    1    3    3    0    0  0.44281244450E+02  0.51157731357E+02 -0.13263048893E+04  0.13339078340E+04  0.12509000000E+03 0.  0.
         25    1    4    4    0    0 -0.37074960700E+01  0.80843737467E+01 -0.39824419282E+03  0.41752251178E+03  0.12509000000E+03 0.  0.
         25    1    4    4    0    0 -0.40573748380E+02 -0.59242105104E+02 -0.56897754973E+03  0.58697428928E+03  0.12509000000E+03 0.  0.
<mgrwt>
<rscale>  2 0.45592963E+03</rscale>
<asrwt>0</asrwt>
<pdfrwt beam="1">  1       21 0.32998544E-02 0.45592963E+03</pdfrwt>
<pdfrwt beam="2">  1       21 0.34058306E+00 0.45592963E+03</pdfrwt>
<totfact> 0.88656822E+03</totfact>
</mgrwt>
</event>
<event>
 7    0  0.4725730E-002  0.4567185E+03  0.7546771E-02  0.1025737E+00
         21   -1    0    0  502  501  0.00000000000E+00  0.00000000000E+00  0.26600997059E+03  0.26600997059E+03  0.00000000000E+00 0. -1.
         21   -1    0    0  501  502 -0.00000000000E+00 -0.00000000000E+00 -0.19603757237E+03  0.19603757237E+03  0.00000000000E+00 0. -1.
      99926    2    1    2    0    0  0.14210854715E-13  0.17763568394E-14  0.69972398222E+02  0.46204754296E+03  0.45671850789E+03 0.  0.
      99925    2    3    3    0    0  0.65212120974E+02  0.90106972322E+01  0.13891580120E+03  0.30477544022E+03  0.26316659316E+03 0.  0.
         25    1    4    4    0    0  0.68270268095E+02 -0.14111482138E+02  0.61672689071E+02  0.15591982591E+03  0.12509000000E+03 0.  0.
         25    1    3    3    0    0 -0.65212120974E+02 -0.90106972322E+01 -0.68943402975E+02  0.15727210274E+03  0.12509000000E+03 0.  0.
         25    1    4    4    0    0 -0.30581471210E+01  0.23122179370E+02  0.77243112127E+02  0.14885561432E+03  0.12509000000E+03 0.  0.
<mgrwt>
<rscale>  2 0.45671851E+03</rscale>
<asrwt>0</asrwt>
<pdfrwt beam="1">  1       21 0.39119113E-01 0.45671851E+03</pdfrwt>
<pdfrwt beam="2">  1       21 0.28829055E-01 0.45671851E+03</pdfrwt>
<totfact> 0.67107203E+04</totfact>
</mgrwt>
</event>
<event>
 7    0  0.4725730E-002  0.4477512E+03  0.7546771E-02  0.1028395E+00
         21   -1    0    0  502  501  0.00000000000E+00  0.00000000000E+00  0.24758332205E+02  0.24758332205E+02  0.00000000000E+00 0.  1.
         21   -1    0    0  501  502 -0.00000000000E+00 -0.00000000000E+00 -0.20243808510E+04  0.20243808510E+04  0.00000000000E+00 0.  1.
      99926    2    1    2    0    0  0.14210854715E-13 -0.17763568394E-14 -0.19996225188E+04  0.20491391832E+04  0.44775124173E+03 0.  0.
      99925    2    3    3    0    0  0.68165290897E+02 -0.10742151197E+02 -0.16366145545E+04  0.16590312610E+04  0.26289850590E+03 0.  0.
         25    1    3    3    0    0 -0.68165290897E+02  0.10742151197E+02 -0.36300796430E+03  0.39010792217E+03  0.12509000000E+03 0.  0.
         25    1    4    4    0    0  0.65858331658E+02  0.18990854560E+02 -0.91415320193E+03  0.92521433036E+03  0.12509000000E+03 0.  0.
         25    1    4    4    0    0  0.23069592389E+01 -0.29733005757E+02 -0.72246135257E+03  0.73381693068E+03  0.12509000000E+03 0.  0.
<mgrwt>
<rscale>  2 0.44775124E+03</rscale>
<asrwt>0</asrwt>
<pdfrwt beam="1">  1       21 0.36409313E-02 0.44775124E+03</pdfrwt>
<pdfrwt beam="2">  1       21 0.29770306E+00 0.44775124E+03</pdfrwt>
<totfact> 0.13677665E+04</totfact>
</mgrwt>
</event>
<event>
 7    0  0.4725730E-002  0.4441814E+03  0.7546771E-02  0.1029472E+00
         21   -1    0    0  502  501  0.00000000000E+00  0.00000000000E+00  0.17178873110E+02  0.17178873110E+02  0.00000000000E+00 0.  1.
         21   -1    0    0  501  502 -0.00000000000E+00 -0.00000000000E+00 -0.28712179337E+04  0.28712179337E+04  0.00000000000E+00 0.  1.
      99926    2    1    2    0    0 -0.44408920985E-15 -0.35527136788E-14 -0.28540390605E+04  0.28883968068E+04  0.44418144289E+03 0.  0.
      99925    2    3    3    0    0  0.32530894833E+01  0.11384126718E+02 -0.11504243805E+04  0.11801548253E+04  0.26296192803E+03 0.  0.
         25    1    3    3    0    0 -0.32530894833E+01 -0.11384126718E+02 -0.17036146801E+04  0.17082419814E+04  0.12509000000E+03 0.  0.
         25    1    4    4    0    0 -0.31294307678E+02  0.18477123505E+02 -0.66467568086E+03  0.67731972259E+03  0.12509000000E+03 0.  0.
         25    1    4    4    0    0  0.34547397161E+02 -0.70929967872E+01 -0.48574869963E+03  0.50283510274E+03  0.12509000000E+03 0.  0.
<mgrwt>
<rscale>  2 0.44418144E+03</rscale>
<asrwt>0</asrwt>
<pdfrwt beam="1">  1       21 0.25263037E-02 0.44418144E+03</pdfrwt>
<pdfrwt beam="2">  1       21 0.42223813E+00 0.44418144E+03</pdfrwt>
<totfact> 0.42658459E+03</totfact>
</mgrwt>
</event>
<event>
 7    0  0.4725730E-002  0.4544050E+03  0.7546771E-02  0.1026417E+00
         21   -1    0    0  502  501  0.00000000000E+00  0.00000000000E+00  0.13494775862E+03  0.13494775862E+03  0.00000000000E+00 0. -1.
         21   -1    0    0  501  502 -0.00000000000E+00 -0.00000000000E+00 -0.38252556431E+03  0.38252556431E+03  0.00000000000E+00 0. -1.
      99926    2    1    2    0    0  0.35527136788E-14 -0.14210854715E-13 -0.24757780569E+03  0.51747332294E+03  0.45440496265E+03 0.  0.
      99925    2    3    3    0    0  0.22533693956E+02 -0.11022504728E+03 -0.15942113951E+03  0.32753534805E+03  0.26307218798E+03 0.  0.
         25    1    3    3    0    0 -0.22533693956E+02  0.11022504728E+03 -0.88156666173E+02  0.18993797488E+03  0.12509000000E+03 0.  0.
         25    1    4    4    0    0  0.10884920677E+01 -0.48072706613E+02 -0.33218884002E+02  0.13806944735E+03  0.12509000000E+03 0.  0.
         25    1    4    4    0    0  0.21445201888E+02 -0.62152340671E+02 -0.12620225551E+03  0.18946590071E+03  0.12509000000E+03 0.  0.
<mgrwt>
<rscale>  2 0.45440496E+03</rscale>
<asrwt>0</asrwt>
<pdfrwt beam="1">  1       21 0.19845259E-01 0.45440496E+03</pdfrwt>
<pdfrwt beam="2">  1       21 0.56253759E-01 0.45440496E+03</pdfrwt>
<totfact> 0.64363082E+04</totfact>
</mgrwt>
</event>
<event>
 7    0  0.4725730E-002  0.4607303E+03  0.7546771E-02  0.1024570E+00
         21   -1    0    0  502  501  0.00000000000E+00  0.00000000000E+00  0.37972813808E+02  0.37972813808E+02  0.00000000000E+00 0.  1.
         21   -1    0    0  501  502 -0.00000000000E+00 -0.00000000000E+00 -0.13975286158E+04  0.13975286158E+04  0.00000000000E+00 0.  1.
      99926    2    1    2    0    0  0.14210854715E-13 -0.14210854715E-13 -0.13595558020E+04  0.14355014296E+04  0.46073026347E+03 0.  0.
      99925    2    3    3    0    0  0.98334144015E+02 -0.65522865740E+02 -0.83659701978E+03  0.88495965481E+03  0.26324165193E+03 0.  0.
         25    1    4    4    0    0  0.10325670384E+02 -0.35581698225E+02 -0.32703435550E+03  0.35209608702E+03  0.12509000000E+03 0.  0.
         25    1    4    4    0    0  0.88008473631E+02 -0.29941167515E+02 -0.50956266428E+03  0.53286356779E+03  0.12509000000E+03 0.  0.
         25    1    3    3    0    0 -0.98334144015E+02  0.65522865740E+02 -0.52295878224E+03  0.55054177484E+03  0.12509000000E+03 0.  0.
<mgrwt>
<rscale>  2 0.46073026E+03</rscale>
<asrwt>0</asrwt>
<pdfrwt beam="1">  1       21 0.55842357E-02 0.46073026E+03</pdfrwt>
<pdfrwt beam="2">  1       21 0.20551897E+00 0.46073026E+03</pdfrwt>
<totfact> 0.24301013E+04</totfact>
</mgrwt>
</event>
<event>
 7    0  0.4725730E-002  0.4577687E+03  0.7546771E-02  0.1025430E+00
         21   -1    0    0  502  501  0.00000000000E+00  0.00000000000E+00  0.90728509195E+02  0.90728509195E+02  0.00000000000E+00 0. -1.
         21   -1    0    0  501  502 -0.00000000000E+00 -0.00000000000E+00 -0.57741544299E+03  0.57741544299E+03  0.00000000000E+00 0. -1.
      99926    2    1    2    0    0 -0.71054273576E-14  0.14988010832E-14 -0.48668693379E+03  0.66814395218E+03  0.45776868538E+03 0.  0.
      99925    2    3    3    0    0 -0.35315692621E+02  0.39913756543E+00 -0.14462118090E+03  0.30221520932E+03  0.26300454239E+03 0.  0.
         25    1    4    4    0    0 -0.33162139106E+02 -0.36810489522E+02 -0.80539053784E+02  0.15680812126E+03  0.12509000000E+03 0.  0.
         25    1    4    4    0    0 -0.21535535155E+01  0.37209627087E+02 -0.64082127120E+02  0.14540708806E+03  0.12509000000E+03 0.  0.
         25    1    3    3    0    0  0.35315692621E+02 -0.39913756543E+00 -0.34206575289E+03  0.36592874286E+03  0.12509000000E+03 0.  0.
<mgrwt>
<rscale>  2 0.45776869E+03</rscale>
<asrwt>0</asrwt>
<pdfrwt beam="1">  1       21 0.13342428E-01 0.45776869E+03</pdfrwt>
<pdfrwt beam="2">  1       21 0.84914032E-01 0.45776869E+03</pdfrwt>
<totfact> 0.53489726E+04</totfact>
</mgrwt>
</event>
<event>
 6    0  0.4725730E-002  0.4548996E+03  0.7546771E-02  0.1026271E+00
         21   -1    0    0  502  501  0.00000000000E+00  0.00000000000E+00  0.64755420374E+03  0.64755420374E+03  0.00000000000E+00 0. -1.
         21   -1    0    0  501  502 -0.00000000000E+00 -0.00000000000E+00 -0.79890458649E+02  0.79890458649E+02  0.00000000000E+00 0. -1.
      99926    2    1    2    0    0  0.00000000000E+00 -0.71054273576E-14  0.56766374509E+03  0.72744466239E+03  0.45489955963E+03 0.  0.
         25    1    3    3    0    0  0.83040133585E+02 -0.51403329297E+02  0.25119366332E+03  0.29712578253E+03  0.12509000000E+03 0.  0.
         25    1    3    3    0    0 -0.96807531847E+02  0.43548812561E+02  0.15761266956E+03  0.22750265713E+03  0.12509000000E+03 0.  0.
         25    1    3    3    0    0  0.13767398262E+02  0.78545167359E+01  0.15885741221E+03  0.20281622273E+03  0.12509000000E+03 0.  0.
<mgrwt>
<rscale>  2 0.45489956E+03</rscale>
<asrwt>0</asrwt>
<pdfrwt beam="1">  1       21 0.95228557E-01 0.45489956E+03</pdfrwt>
<pdfrwt beam="2">  1       21 0.11748597E-01 0.45489956E+03</pdfrwt>
<totfact> 0.51478782E+04</totfact>
</mgrwt>
</event>
<event>
 7    0  0.4725730E-002  0.4723531E+03  0.7546771E-02  0.1021258E+00
         21   -1    0    0  502  501  0.00000000000E+00  0.00000000000E+00  0.47295435672E+02  0.47295435672E+02  0.00000000000E+00 0. -1.
         21   -1    0    0  501  502 -0.00000000000E+00 -0.00000000000E+00 -0.11793816965E+04  0.11793816965E+04  0.00000000000E+00 0. -1.
      99926    2    1    2    0    0  0.00000000000E+00  0.00000000000E+00 -0.11320862609E+04  0.12266771322E+04  0.47235313553E+03 0.  0.
      99925    2    3    3    0    0  0.13722296326E+02  0.89066450517E+02 -0.46284814126E+03  0.53991057590E+03  0.26297127996E+03 0.  0.
         25    1    4    4    0    0 -0.24701063223E+02  0.59292560123E+02 -0.27730564706E+03  0.31092069761E+03  0.12509000000E+03 0.  0.
         25    1    4    4    0    0  0.38423359549E+02  0.29773890393E+02 -0.18554249420E+03  0.22898987829E+03  0.12509000000E+03 0.  0.
         25    1    3    3    0    0 -0.13722296326E+02 -0.89066450517E+02 -0.66923811962E+03  0.68676655632E+03  0.12509000000E+03 0.  0.
<mgrwt>
<rscale>  2 0.47235314E+03</rscale>
<asrwt>0</asrwt>
<pdfrwt beam="1">  1       21 0.69552107E-02 0.47235314E+03</pdfrwt>
<pdfrwt beam="2">  1       21 0.17343850E+00 0.47235314E+03</pdfrwt>
<totfact> 0.27423637E+04</totfact>
</mgrwt>
</event>
<event>
 7    0  0.4725730E-002  0.4914936E+03  0.7546771E-02  0.1016023E+00
         21   -1    0    0  502  501  0.00000000000E+00  0.00000000000E+00  0.16756201637E+04  0.16756201637E+04  0.00000000000E+00 0. -1.
         21   -1    0    0  501  502 -0.00000000000E+00 -0.00000000000E+00 -0.36041281122E+02  0.36041281122E+02  0.00000000000E+00 0. -1.
      99926    2    1    2    0    0  0.00000000000E+00 -0.71054273576E-14  0.16395788826E+04  0.17116614448E+04  0.49149363118E+03 0.  0.
      99925    2    3    3    0    0 -0.85540440289E+02  0.62935067435E+02  0.65891576002E+03  0.71736488057E+03  0.26299126114E+03 0.  0.
         25    1    3    3    0    0  0.85540440289E+02 -0.62935067435E+02  0.98066312254E+03  0.99429656424E+03  0.12509000000E+03 0.  0.
         25    1    4    4    0    0 -0.38249402414E+02  0.71043947767E+02  0.37344719065E+03  0.40202061092E+03  0.12509000000E+03 0.  0.
         25    1    4    4    0    0 -0.47291037875E+02 -0.81088803313E+01  0.28546856937E+03  0.31534426965E+03  0.12509000000E+03 0.  0.
<mgrwt>
<rscale>  2 0.49149363E+03</rscale>
<asrwt>0</asrwt>
<pdfrwt beam="1">  1       21 0.24641468E+00 0.49149363E+03</pdfrwt>
<pdfrwt beam="2">  1       21 0.53001895E-02 0.49149363E+03</pdfrwt>
<totfact> 0.14466586E+04</totfact>
</mgrwt>
</event>
<event>
 7    0  0.4725730E-002  0.4539660E+03  0.7546771E-02  0.1026546E+00
         21   -1    0    0  502  501  0.00000000000E+00  0.00000000000E+00  0.14922008476E+03  0.14922008476E+03  0.00000000000E+00 0. -1.
         21   -1    0    0  501  502 -0.00000000000E+00 -0.00000000000E+00 -0.34527050025E+03  0.34527050025E+03  0.00000000000E+00 0. -1.
      99926    2    1    2    0    0  0.00000000000E+00  0.14210854715E-13 -0.19605041549E+03  0.49449058501E+03  0.45396604857E+03 0.  0.
      99925    2    3    3    0    0  0.33096016814E+02 -0.10094178099E+03 -0.16304429192E+03  0.32709434321E+03  0.26291192204E+03 0.  0.
         25    1    3    3    0    0 -0.33096016814E+02  0.10094178099E+03 -0.33006123566E+02  0.16739624180E+03  0.12509000000E+03 0.  0.
         25    1    4    4    0    0  0.25496205336E+02 -0.68470339787E+02 -0.44462482427E+02  0.15153436693E+03  0.12509000000E+03 0.  0.
         25    1    4    4    0    0  0.75998114782E+01 -0.32471441198E+02 -0.11858180950E+03  0.17555997628E+03  0.12509000000E+03 0.  0.
<mgrwt>
<rscale>  2 0.45396605E+03</rscale>
<asrwt>0</asrwt>
<pdfrwt beam="1">  1       21 0.21944130E-01 0.45396605E+03</pdfrwt>
<pdfrwt beam="2">  1       21 0.50775073E-01 0.45396605E+03</pdfrwt>
<totfact> 0.66201185E+04</totfact>
</mgrwt>
</event>
<event>
 7    0  0.4725730E-002  0.4603818E+03  0.7546771E-02  0.1024671E+00
         21   -1    0    0  502  501  0.00000000000E+00  0.00000000000E+00  0.56208869209E+02  0.56208869209E+02  0.00000000000E+00 0. -1.
         21   -1    0    0  501  502 -0.00000000000E+00 -0.00000000000E+00 -0.94269567991E+03  0.94269567991E+03  0.00000000000E+00 0. -1.
      99926    2    1    2    0    0  0.00000000000E+00  0.00000000000E+00 -0.88648681070E+03  0.99890454912E+03  0.46038183359E+03 0.  0.
      99925    2    3    3    0    0  0.16517734231E+02  0.10636003572E+03 -0.66107901356E+03  0.71954550442E+03  0.26293531147E+03 0.  0.
         25    1    4    4    0    0  0.11445898062E+02  0.96232974426E+02 -0.38414471600E+03  0.41545934203E+03  0.12509000000E+03 0.  0.
         25    1    4    4    0    0  0.50718361694E+01  0.10127061295E+02 -0.27693429756E+03  0.30408616239E+03  0.12509000000E+03 0.  0.
         25    1    3    3    0    0 -0.16517734231E+02 -0.10636003572E+03 -0.22540779714E+03  0.27935904470E+03  0.12509000000E+03 0.  0.
<mgrwt>
<rscale>  2 0.46038183E+03</rscale>
<asrwt>0</asrwt>
<pdfrwt beam="1">  1       21 0.82660111E-02 0.46038183E+03</pdfrwt>
<pdfrwt beam="2">  1       21 0.13863170E+00 0.46038183E+03</pdfrwt>
<totfact> 0.37603832E+04</totfact>
</mgrwt>
</event>
<event>
 7    0  0.4725730E-002  0.4555266E+03  0.7546771E-02  0.1026087E+00
         21   -1    0    0  502  501  0.00000000000E+00  0.00000000000E+00  0.56822178341E+03  0.56822178341E+03  0.00000000000E+00 0. -1.
         21   -1    0    0  501  502 -0.00000000000E+00 -0.00000000000E+00 -0.91295532807E+02  0.91295532807E+02  0.00000000000E+00 0. -1.
      99926    2    1    2    0    0  0.00000000000E+00  0.00000000000E+00  0.47692625060E+03  0.65951731622E+03  0.45552655452E+03 0.  0.
      99925    2    3    3    0    0  0.86088357881E+02 -0.39243669576E+02  0.20864723492E+03  0.34875629981E+03  0.26295630255E+03 0.  0.
         25    1    4    4    0    0  0.25687073671E+01 -0.11728049477E+02  0.10801385818E+03  0.16570650881E+03  0.12509000000E+03 0.  0.
         25    1    4    4    0    0  0.83519650514E+02 -0.27515620099E+02  0.10063337674E+03  0.18304979100E+03  0.12509000000E+03 0.  0.
         25    1    3    3    0    0 -0.86088357881E+02  0.39243669576E+02  0.26827901568E+03  0.31076101641E+03  0.12509000000E+03 0.  0.
<mgrwt>
<rscale>  2 0.45552655E+03</rscale>
<asrwt>0</asrwt>
<pdfrwt beam="1">  1       21 0.83562025E-01 0.45552655E+03</pdfrwt>
<pdfrwt beam="2">  1       21 0.13425814E-01 0.45552655E+03</pdfrwt>
<totfact> 0.54927706E+04</totfact>
</mgrwt>
</event>
<event>
 7    0  0.4725730E-002  0.4562708E+03  0.7546771E-02  0.1025868E+00
         21   -1    0    0  502  501  0.00000000000E+00  0.00000000000E+00  0.61161532833E+03  0.61161532833E+03  0.00000000000E+00 0.  1.
         21   -1    0    0  501  502 -0.00000000000E+00 -0.00000000000E+00 -0.85095575719E+02  0.85095575719E+02  0.00000000000E+00 0.  1.
      99926    2    1    2    0    0  0.00000000000E+00  0.00000000000E+00  0.52651975261E+03  0.69671090405E+03  0.45627079014E+03 0.  0.
      99925    2    3    3    0    0  0.66842081622E+02  0.75035486319E+02  0.24735200633E+03  0.37471660791E+03  0.26292838022E+03 0.  0.
         25    1    4    4    0    0  0.33104595138E+02  0.72796627670E+02  0.10277921234E+03  0.18057225094E+03  0.12509000000E+03 0.  0.
         25    1    4    4    0    0  0.33737486483E+02  0.22388586484E+01  0.14457279400E+03  0.19414435698E+03  0.12509000000E+03 0.  0.
         25    1    3    3    0    0 -0.66842081622E+02 -0.75035486319E+02  0.27916774628E+03  0.32199429614E+03  0.12509000000E+03 0.  0.
<mgrwt>
<rscale>  2 0.45627079E+03</rscale>
<asrwt>0</asrwt>
<pdfrwt beam="1">  1       21 0.89943429E-01 0.45627079E+03</pdfrwt>
<pdfrwt beam="2">  1       21 0.12514056E-01 0.45627079E+03</pdfrwt>
<totfact> 0.52554301E+04</totfact>
</mgrwt>
</event>
<event>
 7    0  0.4725730E-002  0.4596236E+03  0.7546771E-02  0.1024890E+00
         21   -1    0    0  502  501  0.00000000000E+00  0.00000000000E+00  0.11673097115E+04  0.11673097115E+04  0.00000000000E+00 0.  1.
         21   -1    0    0  501  502 -0.00000000000E+00 -0.00000000000E+00 -0.45243755101E+02  0.45243755101E+02  0.00000000000E+00 0.  1.
      99926    2    1    2    0    0  0.44408920985E-15 -0.71054273576E-14  0.11220659564E+04  0.12125534666E+04  0.45962364915E+03 0.  0.
      99925    2    3    3    0    0  0.29779197456E+01  0.39713193608E+02  0.41187116363E+03  0.49032763105E+03  0.26305384353E+03 0.  0.
         25    1    4    4    0    0  0.28776677616E+02  0.15229362511E+01  0.24644143426E+03  0.27786922307E+03  0.12509000000E+03 0.  0.
         25    1    4    4    0    0 -0.25798757871E+02  0.38190257357E+02  0.16542972937E+03  0.21245840799E+03  0.12509000000E+03 0.  0.
         25    1    3    3    0    0 -0.29779197456E+01 -0.39713193608E+02  0.71019479276E+03  0.72222583554E+03  0.12509000000E+03 0.  0.
<mgrwt>
<rscale>  2 0.45962365E+03</rscale>
<asrwt>0</asrwt>
<pdfrwt beam="1">  1       21 0.17166317E+00 0.45962365E+03</pdfrwt>
<pdfrwt beam="2">  1       21 0.66534941E-02 0.45962365E+03</pdfrwt>
<totfact> 0.30642093E+04</totfact>
</mgrwt>
</event>
<event>
 7    0  0.4725730E-002  0.4508338E+03  0.7546771E-02  0.1027474E+00
         21   -1    0    0  502  501  0.00000000000E+00  0.00000000000E+00  0.20040904561E+03  0.20040904561E+03  0.00000000000E+00 0. -1.
         21   -1    0    0  501  502 -0.00000000000E+00 -0.00000000000E+00 -0.25354530026E+03  0.25354530026E+03  0.00000000000E+00 0. -1.
      99926    2    1    2    0    0  0.00000000000E+00  0.00000000000E+00 -0.53136254651E+02  0.45395434587E+03  0.45083376823E+03 0.  0.
      99925    2    3    3    0    0  0.87420990357E+02  0.53526907025E+02  0.43466901906E+01  0.28231706444E+03  0.26301420461E+03 0.  0.
         25    1    4    4    0    0  0.36425281191E+01  0.34860953558E+02 -0.76816399736E+01  0.13013481389E+03  0.12509000000E+03 0.  0.
         25    1    3    3    0    0 -0.87420990357E+02 -0.53526907025E+02 -0.57482944841E+02  0.17163728143E+03  0.12509000000E+03 0.  0.
         25    1    4    4    0    0  0.83778462238E+02  0.18665953467E+02  0.12028330164E+02  0.15218225054E+03  0.12509000000E+03 0.  0.
<mgrwt>
<rscale>  2 0.45083377E+03</rscale>
<asrwt>0</asrwt>
<pdfrwt beam="1">  1       21 0.29471919E-01 0.45083377E+03</pdfrwt>
<pdfrwt beam="2">  1       21 0.37286073E-01 0.45083377E+03</pdfrwt>
<totfact> 0.70951616E+04</totfact>
</mgrwt>
</event>
<event>
 7    0  0.4725730E-002  0.4563116E+03  0.7546771E-02  0.1025856E+00
         21   -1    0    0  502  501  0.00000000000E+00  0.00000000000E+00  0.48938530163E+02  0.48938530163E+02  0.00000000000E+00 0.  1.
         21   -1    0    0  501  502 -0.00000000000E+00 -0.00000000000E+00 -0.10636825599E+04  0.10636825599E+04  0.00000000000E+00 0.  1.
      99926    2    1    2    0    0  0.00000000000E+00  0.00000000000E+00 -0.10147440297E+04  0.11126210900E+04  0.45631156479E+03 0.  0.
      99925    2    3    3    0    0 -0.61641864492E+02  0.56923379196E+02 -0.44887613210E+03  0.52704959466E+03  0.26315680250E+03 0.  0.
         25    1    4    4    0    0 -0.13234501853E+02  0.45347538625E+02 -0.16126427979E+03  0.20948801239E+03  0.12509000000E+03 0.  0.
         25    1    4    4    0    0 -0.48407362639E+02  0.11575840571E+02 -0.28761185232E+03  0.31756158227E+03  0.12509000000E+03 0.  0.
         25    1    3    3    0    0  0.61641864492E+02 -0.56923379196E+02 -0.56586789761E+03  0.58557149538E+03  0.12509000000E+03 0.  0.
<mgrwt>
<rscale>  2 0.45631156E+03</rscale>
<asrwt>0</asrwt>
<pdfrwt beam="1">  1       21 0.71968430E-02 0.45631156E+03</pdfrwt>
<pdfrwt beam="2">  1       21 0.15642390E+00 0.45631156E+03</pdfrwt>
<totfact> 0.34698900E+04</totfact>
</mgrwt>
</event>
<event>
 7    0  0.4725730E-002  0.4498648E+03  0.7546771E-02  0.1027762E+00
         21   -1    0    0  502  501  0.00000000000E+00  0.00000000000E+00  0.14962125350E+03  0.14962125350E+03  0.00000000000E+00 0. -1.
         21   -1    0    0  501  502 -0.00000000000E+00 -0.00000000000E+00 -0.33815111727E+03  0.33815111727E+03  0.00000000000E+00 0. -1.
      99926    2    1    2    0    0  0.88817841970E-15 -0.71054273576E-14 -0.18852986376E+03  0.48777237077E+03  0.44986484210E+03 0.  0.
      99925    2    3    3    0    0  0.78623492435E+01 -0.53124086157E+02 -0.22118302327E+03  0.34778050675E+03  0.26295506466E+03 0.  0.
         25    1    4    4    0    0 -0.16576530617E+02 -0.75208133163E+01 -0.68663313820E+02  0.14385236447E+03  0.12509000000E+03 0.  0.
         25    1    4    4    0    0  0.24438879861E+02 -0.45603272840E+02 -0.15251970945E+03  0.20392814228E+03  0.12509000000E+03 0.  0.
         25    1    3    3    0    0 -0.78623492435E+01  0.53124086157E+02  0.32653159503E+02  0.13999186402E+03  0.12509000000E+03 0.  0.
<mgrwt>
<rscale>  2 0.44986484E+03</rscale>
<asrwt>0</asrwt>
<pdfrwt beam="1">  1       21 0.22003126E-01 0.44986484E+03</pdfrwt>
<pdfrwt beam="2">  1       21 0.49728105E-01 0.44986484E+03</pdfrwt>
<totfact> 0.68904986E+04</totfact>
</mgrwt>
</event>
<event>
 7    0  0.4725730E-002  0.4603194E+03  0.7546771E-02  0.1024689E+00
         21   -1    0    0  502  501  0.00000000000E+00  0.00000000000E+00  0.53422272996E+03  0.53422272996E+03  0.00000000000E+00 0.  1.
         21   -1    0    0  501  502 -0.00000000000E+00 -0.00000000000E+00 -0.99159912646E+02  0.99159912646E+02  0.00000000000E+00 0.  1.
      99926    2    1    2    0    0  0.14210854715E-13  0.00000000000E+00  0.43506281732E+03  0.63338264261E+03  0.46031936408E+03 0.  0.
      99925    2    3    3    0    0  0.10014913694E+03  0.40238585403E+02  0.33878442483E+03  0.44216017963E+03  0.26283406279E+03 0.  0.
         25    1    4    4    0    0  0.82887297139E+02  0.79486853720E+01  0.14650471298E+03  0.20986811252E+03  0.12509000000E+03 0.  0.
         25    1    3    3    0    0 -0.10014913694E+03 -0.40238585403E+02  0.96278392491E+02  0.19122246297E+03  0.12509000000E+03 0.  0.
         25    1    4    4    0    0  0.17261839803E+02  0.32289900031E+02  0.19227971185E+03  0.23229206712E+03  0.12509000000E+03 0.  0.
<mgrwt>
<rscale>  2 0.46031936E+03</rscale>
<asrwt>0</asrwt>
<pdfrwt beam="1">  1       21 0.78562165E-01 0.46031936E+03</pdfrwt>
<pdfrwt beam="2">  1       21 0.14582340E-01 0.46031936E+03</pdfrwt>
<totfact> 0.54350803E+04</totfact>
</mgrwt>
</event>
<event>
 7    0  0.4725730E-002  0.4600522E+03  0.7546771E-02  0.1024766E+00
         21   -1    0    0  502  501  0.00000000000E+00  0.00000000000E+00  0.35627317995E+02  0.35627317995E+02  0.00000000000E+00 0. -1.
         21   -1    0    0  501  502 -0.00000000000E+00 -0.00000000000E+00 -0.14851528104E+04  0.14851528104E+04  0.00000000000E+00 0. -1.
      99926    2    1    2    0    0  0.00000000000E+00 -0.71054273576E-14 -0.14495254924E+04  0.15207801284E+04  0.46005222073E+03 0.  0.
      99925    2    3    3    0    0 -0.67619232444E+02 -0.30065968639E+02 -0.12117935102E+04  0.12421399903E+04  0.26266313258E+03 0.  0.
         25    1    3    3    0    0  0.67619232444E+02  0.30065968639E+02 -0.23773198226E+03  0.27864013809E+03  0.12509000000E+03 0.  0.
         25    1    4    4    0    0 -0.53853862652E+02 -0.27485683231E+02 -0.78389650330E+03  0.79611364597E+03  0.12509000000E+03 0.  0.
         25    1    4    4    0    0 -0.13765369792E+02 -0.25802854076E+01 -0.42789700688E+03  0.44602634437E+03  0.12509000000E+03 0.  0.
<mgrwt>
<rscale>  2 0.46005222E+03</rscale>
<asrwt>0</asrwt>
<pdfrwt beam="1">  1       21 0.52393123E-02 0.46005222E+03</pdfrwt>
<pdfrwt beam="2">  1       21 0.21840479E+00 0.46005222E+03</pdfrwt>
<totfact> 0.22383128E+04</totfact>
</mgrwt>
</event>
<event>
 7    0  0.4725730E-002  0.4512283E+03  0.7546771E-02  0.1027356E+00
         21   -1    0    0  502  501  0.00000000000E+00  0.00000000000E+00  0.60657154421E+03  0.60657154421E+03  0.00000000000E+00 0. -1.
         21   -1    0    0  501  502 -0.00000000000E+00 -0.00000000000E+00 -0.83917134970E+02  0.83917134970E+02  0.00000000000E+00 0. -1.
      99926    2    1    2    0    0  0.71054273576E-14  0.00000000000E+00  0.52265440924E+03  0.69048867918E+03  0.45122830649E+03 0.  0.
      99925    2    3    3    0    0 -0.62865810430E+02 -0.27090675455E+02  0.19930006693E+03  0.33708868823E+03  0.26310122051E+03 0.  0.
         25    1    4    4    0    0  0.86405725510E+01 -0.15450162896E+02  0.78807780191E+02  0.14890111264E+03  0.12509000000E+03 0.  0.
         25    1    3    3    0    0  0.62865810430E+02  0.27090675455E+02  0.32335434231E+03  0.35339999096E+03  0.12509000000E+03 0.  0.
         25    1    4    4    0    0 -0.71506382981E+02 -0.11640512559E+02  0.12049228674E+03  0.18818757558E+03  0.12509000000E+03 0.  0.
<mgrwt>
<rscale>  2 0.45122831E+03</rscale>
<asrwt>0</asrwt>
<pdfrwt beam="1">  1       21 0.89201696E-01 0.45122831E+03</pdfrwt>
<pdfrwt beam="2">  1       21 0.12340755E-01 0.45122831E+03</pdfrwt>
<totfact> 0.55038478E+04</totfact>
</mgrwt>
</event>
<event>
 7    0  0.4725730E-002  0.4505968E+03  0.7546771E-02  0.1027544E+00
         21   -1    0    0  502  501  0.00000000000E+00  0.00000000000E+00  0.40050735054E+03  0.40050735054E+03  0.00000000000E+00 0. -1.
         21   -1    0    0  501  502 -0.00000000000E+00 -0.00000000000E+00 -0.12673769187E+03  0.12673769187E+03  0.00000000000E+00 0. -1.
      99926    2    1    2    0    0  0.71054273576E-14  0.71054273576E-14  0.27376965866E+03  0.52724504241E+03  0.45059683614E+03 0.  0.
      99925    2    3    3    0    0  0.63182337863E+02  0.59574694138E+02  0.25006922478E+03  0.37313348974E+03  0.26296926053E+03 0.  0.
         25    1    3    3    0    0 -0.63182337863E+02 -0.59574694138E+02  0.23700433881E+02  0.15411155267E+03  0.12509000000E+03 0.  0.
         25    1    4    4    0    0  0.22562649363E+02  0.19906157358E+02  0.69437592106E+02  0.14619991636E+03  0.12509000000E+03 0.  0.
         25    1    4    4    0    0  0.40619688500E+02  0.39668536780E+02  0.18063163267E+03  0.22693357338E+03  0.12509000000E+03 0.  0.
<mgrwt>
<rscale>  2 0.45059684E+03</rscale>
<asrwt>0</asrwt>
<pdfrwt beam="1">  1       21 0.58898140E-01 0.45059684E+03</pdfrwt>
<pdfrwt beam="2">  1       21 0.18637896E-01 0.45059684E+03</pdfrwt>
<totfact> 0.65654468E+04</totfact>
</mgrwt>
</event>
<event>
 7    0  0.4725730E-002  0.4550718E+03  0.7546771E-02  0.1026220E+00
         21   -1    0    0  502  501  0.00000000000E+00  0.00000000000E+00  0.23569705546E+03  0.23569705546E+03  0.00000000000E+00 0.  1.
         21   -1    0    0  501  502 -0.00000000000E+00 -0.00000000000E+00 -0.21965728261E+03  0.21965728261E+03  0.00000000000E+00 0.  1.
      99926    2    1    2    0    0  0.00000000000E+00  0.00000000000E+00  0.16039772844E+02  0.45535433807E+03  0.45507175136E+03 0.  0.
      99925    2    3    3    0    0 -0.58186680773E+02 -0.56051007837E+02  0.89505933997E+02  0.28930557947E+03  0.26298098941E+03 0.  0.
         25    1    3    3    0    0  0.58186680773E+02  0.56051007837E+02 -0.73466161153E+02  0.16604875860E+03  0.12509000000E+03 0.  0.
         25    1    4    4    0    0 -0.38359093289E+02 -0.82626075269E+01  0.81091904365E+01  0.13135051500E+03  0.12509000000E+03 0.  0.
         25    1    4    4    0    0 -0.19827587484E+02 -0.47788400310E+02  0.81396743561E+02  0.15795506447E+03  0.12509000000E+03 0.  0.
<mgrwt>
<rscale>  2 0.45507175E+03</rscale>
<asrwt>0</asrwt>
<pdfrwt beam="1">  1       21 0.34661332E-01 0.45507175E+03</pdfrwt>
<pdfrwt beam="2">  1       21 0.32302541E-01 0.45507175E+03</pdfrwt>
<totfact> 0.68480643E+04</totfact>
</mgrwt>
</event>
<event>
 7    0  0.4725730E-002  0.4471003E+03  0.7546771E-02  0.1028590E+00
         21   -1    0    0  502  501  0.00000000000E+00  0.00000000000E+00  0.76081148439E+03  0.76081148439E+03  0.00000000000E+00 0.  1.
         21   -1    0    0  501  502 -0.00000000000E+00 -0.00000000000E+00 -0.65686010333E+02  0.65686010333E+02  0.00000000000E+00 0.  1.
      99926    2    1    2    0    0 -0.71054273576E-14  0.00000000000E+00  0.69512547406E+03  0.82649749472E+03  0.44710030653E+03 0.  0.
      99925    2    3    3    0    0 -0.45276733563E+02  0.42639734090E+02  0.28283151520E+03  0.39117928223E+03  0.26298181558E+03 0.  0.
         25    1    4    4    0    0 -0.13872812448E+01  0.35518419374E+02  0.94467702105E+02  0.16073312510E+03  0.12509000000E+03 0.  0.
         25    1    3    3    0    0  0.45276733563E+02 -0.42639734090E+02  0.41229395886E+03  0.43531821250E+03  0.12509000000E+03 0.  0.
         25    1    4    4    0    0 -0.43889452318E+02  0.71213147158E+01  0.18836381310E+03  0.23044615712E+03  0.12509000000E+03 0.  0.
<mgrwt>
<rscale>  2 0.44710031E+03</rscale>
<asrwt>0</asrwt>
<pdfrwt beam="1">  1       21 0.11188404E+00 0.44710031E+03</pdfrwt>
<pdfrwt beam="2">  1       21 0.96597079E-02 0.44710031E+03</pdfrwt>
<totfact> 0.49507759E+04</totfact>
</mgrwt>
</event>
<event>
 7    0  0.4725730E-002  0.4607664E+03  0.7546771E-02  0.1024559E+00
         21   -1    0    0  502  501  0.00000000000E+00  0.00000000000E+00  0.20840944052E+03  0.20840944052E+03  0.00000000000E+00 0.  1.
         21   -1    0    0  501  502 -0.00000000000E+00 -0.00000000000E+00 -0.25467372830E+03  0.25467372830E+03  0.00000000000E+00 0.  1.
      99926    2    1    2    0    0 -0.14210854715E-13 -0.71054273576E-14 -0.46264287781E+02  0.46308316883E+03  0.46076635828E+03 0.  0.
      99925    2    3    3    0    0  0.81555405844E+02  0.61158997901E+02 -0.89769473736E+02  0.29595472555E+03  0.26294283393E+03 0.  0.
         25    1    3    3    0    0 -0.81555405844E+02 -0.61158997901E+02  0.43505185954E+02  0.16712844327E+03  0.12509000000E+03 0.  0.
         25    1    4    4    0    0  0.18749122675E+02  0.19416304272E+02 -0.76965608742E+02  0.14933095962E+03  0.12509000000E+03 0.  0.
         25    1    4    4    0    0  0.62806283168E+02  0.41742693629E+02 -0.12803864994E+02  0.14662376593E+03  0.12509000000E+03 0.  0.
<mgrwt>
<rscale>  2 0.46076636E+03</rscale>
<asrwt>0</asrwt>
<pdfrwt beam="1">  1       21 0.30648447E-01 0.46076636E+03</pdfrwt>
<pdfrwt beam="2">  1       21 0.37452019E-01 0.46076636E+03</pdfrwt>
<totfact> 0.64919070E+04</totfact>
</mgrwt>
</event>
<event>
 7    0  0.4725730E-002  0.4477510E+03  0.7546771E-02  0.1028395E+00
         21   -1    0    0  502  501  0.00000000000E+00  0.00000000000E+00  0.26384938875E+03  0.26384938875E+03  0.00000000000E+00 0. -1.
         21   -1    0    0  501  502 -0.00000000000E+00 -0.00000000000E+00 -0.18995774017E+03  0.18995774017E+03  0.00000000000E+00 0. -1.
      99926    2    1    2    0    0  0.00000000000E+00  0.00000000000E+00  0.73891648576E+02  0.45380712892E+03  0.44775097379E+03 0.  0.
      99925    2    3    3    0    0  0.54983434490E+01  0.50596928904E+02 -0.47732265011E+02  0.27206509897E+03  0.26296533604E+03 0.  0.
         25    1    4    4    0    0  0.15714250622E+02  0.15750515729E+02 -0.61370730861E+02  0.14109887003E+03  0.12509000000E+03 0.  0.
         25    1    3    3    0    0 -0.54983434490E+01 -0.50596928904E+02  0.12162391359E+03  0.18174202995E+03  0.12509000000E+03 0.  0.
         25    1    4    4    0    0 -0.10215907173E+02  0.34846413176E+02  0.13638465850E+02  0.13096622893E+03  0.12509000000E+03 0.  0.
<mgrwt>
<rscale>  2 0.44775097E+03</rscale>
<asrwt>0</asrwt>
<pdfrwt beam="1">  1       21 0.38801381E-01 0.44775097E+03</pdfrwt>
<pdfrwt beam="2">  1       21 0.27934962E-01 0.44775097E+03</pdfrwt>
<totfact> 0.72749553E+04</totfact>
</mgrwt>
</event>
<event>
 7    0  0.4725730E-002  0.4611846E+03  0.7546771E-02  0.1024438E+00
         21   -1    0    0  502  501  0.00000000000E+00  0.00000000000E+00  0.25538574434E+03  0.25538574434E+03  0.00000000000E+00 0.  1.
         21   -1    0    0  501  502 -0.00000000000E+00 -0.00000000000E+00 -0.20820582524E+03  0.20820582524E+03  0.00000000000E+00 0.  1.
      99926    2    1    2    0    0  0.00000000000E+00  0.00000000000E+00  0.47179919098E+02  0.46359156957E+03  0.46118456025E+03 0.  0.
      99925    2    3    3    0    0 -0.64383712193E+02 -0.99549195355E+02  0.36073673073E+02  0.29088904645E+03  0.26317261021E+03 0.  0.
         25    1    4    4    0    0 -0.60417575353E+02 -0.79048730531E+02  0.37023496823E+02  0.16406472085E+03  0.12509000000E+03 0.  0.
         25    1    3    3    0    0  0.64383712193E+02  0.99549195355E+02  0.11106246025E+02  0.17270252312E+03  0.12509000000E+03 0.  0.
         25    1    4    4    0    0 -0.39661368393E+01 -0.20500464824E+02 -0.94982374989E+00  0.12682432560E+03  0.12509000000E+03 0.  0.
<mgrwt>
<rscale>  2 0.46118456E+03</rscale>
<asrwt>0</asrwt>
<pdfrwt beam="1">  1       21 0.37556727E-01 0.46118456E+03</pdfrwt>
<pdfrwt beam="2">  1       21 0.30618504E-01 0.46118456E+03</pdfrwt>
<totfact> 0.64670407E+04</totfact>
</mgrwt>
</event>
<event>
 7    0  0.4725730E-002  0.4422332E+03  0.7546771E-02  0.1030064E+00
         21   -1    0    0  502  501  0.00000000000E+00  0.00000000000E+00  0.10710332694E+04  0.10710332694E+04  0.00000000000E+00 0.  1.
         21   -1    0    0  501  502 -0.00000000000E+00 -0.00000000000E+00 -0.45649893619E+02  0.45649893619E+02  0.00000000000E+00 0.  1.
      99926    2    1    2    0    0  0.00000000000E+00  0.00000000000E+00  0.10253833758E+04  0.11166831630E+04  0.44223321816E+03 0.  0.
      99925    2    3    3    0    0  0.34193548693E+02 -0.66258448209E+02  0.48084943812E+03  0.55301295971E+03  0.26276942504E+03 0.  0.
         25    1    4    4    0    0 -0.98678819991E+01 -0.29319906618E+02  0.29330064365E+03  0.32035887327E+03  0.12509000000E+03 0.  0.
         25    1    4    4    0    0  0.44061430692E+02 -0.36938541590E+02  0.18754879447E+03  0.23265408644E+03  0.12509000000E+03 0.  0.
         25    1    3    3    0    0 -0.34193548693E+02  0.66258448209E+02  0.54453393766E+03  0.56367020330E+03  0.12509000000E+03 0.  0.
<mgrwt>
<rscale>  2 0.44223322E+03</rscale>
<asrwt>0</asrwt>
<pdfrwt beam="1">  1       21 0.15750488E+00 0.44223322E+03</pdfrwt>
<pdfrwt beam="2">  1       21 0.67132204E-02 0.44223322E+03</pdfrwt>
<totfact> 0.38617375E+04</totfact>
</mgrwt>
</event>
<event>
 7    0  0.4725730E-002  0.4601352E+03  0.7546771E-02  0.1024742E+00
         21   -1    0    0  502  501  0.00000000000E+00  0.00000000000E+00  0.99477509427E+03  0.99477509427E+03  0.00000000000E+00 0.  1.
         21   -1    0    0  501  502 -0.00000000000E+00 -0.00000000000E+00 -0.53209124712E+02  0.53209124712E+02  0.00000000000E+00 0.  1.
      99926    2    1    2    0    0  0.00000000000E+00  0.00000000000E+00  0.94156596956E+03  0.10479842190E+04  0.46013524990E+03 0.  0.
      99925    2    3    3    0    0 -0.64424985919E+02  0.22457817875E+02  0.80883634133E+03  0.85325467653E+03  0.26300643256E+03 0.  0.
         25    1    4    4    0    0 -0.11097579353E+02 -0.35932997223E+01  0.48610579866E+03  0.50207810514E+03  0.12509000000E+03 0.  0.
         25    1    3    3    0    0  0.64424985919E+02 -0.22457817875E+02  0.13272962822E+03  0.19472954245E+03  0.12509000000E+03 0.  0.
         25    1    4    4    0    0 -0.53327406566E+02  0.26051117597E+02  0.32273054267E+03  0.35117657139E+03  0.12509000000E+03 0.  0.
<mgrwt>
<rscale>  2 0.46013525E+03</rscale>
<asrwt>0</asrwt>
<pdfrwt beam="1">  1       21 0.14629044E+00 0.46013525E+03</pdfrwt>
<pdfrwt beam="2">  1       21 0.78248719E-02 0.46013525E+03</pdfrwt>
<totfact> 0.35891092E+04</totfact>
</mgrwt>
</event>
<event>
 7    0  0.4725730E-002  0.4652054E+03  0.7546771E-02  0.1023282E+00
         21   -1    0    0  502  501  0.00000000000E+00  0.00000000000E+00  0.77463797034E+03  0.77463797034E+03  0.00000000000E+00 0. -1.
         21   -1    0    0  501  502 -0.00000000000E+00 -0.00000000000E+00 -0.69844253146E+02  0.69844253146E+02  0.00000000000E+00 0. -1.
      99926    2    1    2    0    0  0.00000000000E+00  0.00000000000E+00  0.70479371720E+03  0.84448222349E+03  0.46520537614E+03 0.  0.
      99925    2    3    3    0    0  0.87654782887E+02  0.73014206027E+02  0.35840673200E+03  0.45893600465E+03  0.26296850682E+03 0.  0.
         25    1    4    4    0    0  0.11028472105E+02  0.17889426797E+02  0.12728640234E+03  0.17969695353E+03  0.12509000000E+03 0.  0.
         25    1    3    3    0    0 -0.87654782887E+02 -0.73014206027E+02  0.34638698520E+03  0.38554621884E+03  0.12509000000E+03 0.  0.
         25    1    4    4    0    0  0.76626310782E+02  0.55124779230E+02  0.23112032965E+03  0.27923905112E+03  0.12509000000E+03 0.  0.
<mgrwt>
<rscale>  2 0.46520538E+03</rscale>
<asrwt>0</asrwt>
<pdfrwt beam="1">  1       21 0.11391734E+00 0.46520538E+03</pdfrwt>
<pdfrwt beam="2">  1       21 0.10271214E-01 0.46520538E+03</pdfrwt>
<totfact> 0.42205294E+04</totfact>
</mgrwt>
</event>
<event>
 7    0  0.4725730E-002  0.4466107E+03  0.7546771E-02  0.1028738E+00
         21   -1    0    0  502  501  0.00000000000E+00  0.00000000000E+00  0.19605932941E+03  0.19605932941E+03  0.00000000000E+00 0.  1.
         21   -1    0    0  501  502 -0.00000000000E+00 -0.00000000000E+00 -0.25433766649E+03  0.25433766649E+03  0.00000000000E+00 0.  1.
      99926    2    1    2    0    0  0.71054273576E-14  0.00000000000E+00 -0.58278337086E+02  0.45039699590E+03  0.44661066864E+03 0.  0.
      99925    2    3    3    0    0  0.57404687669E+02  0.66294917802E+01 -0.12570614408E+03  0.29699143673E+03  0.26279769882E+03 0.  0.
         25    1    4    4    0    0  0.30291893561E+02  0.10085704557E+02 -0.10682385661E+03  0.16756540422E+03  0.12509000000E+03 0.  0.
         25    1    4    4    0    0  0.27112794108E+02 -0.34562127768E+01 -0.18882287467E+02  0.12942603251E+03  0.12509000000E+03 0.  0.
         25    1    3    3    0    0 -0.57404687669E+02 -0.66294917802E+01  0.67427806990E+02  0.15340555917E+03  0.12509000000E+03 0.  0.
<mgrwt>
<rscale>  2 0.44661067E+03</rscale>
<asrwt>0</asrwt>
<pdfrwt beam="1">  1       21 0.28832255E-01 0.44661067E+03</pdfrwt>
<pdfrwt beam="2">  1       21 0.37402598E-01 0.44661067E+03</pdfrwt>
<totfact> 0.73694513E+04</totfact>
</mgrwt>
</event>
<event>
 6    0  0.4725730E-002  0.4552391E+03  0.7546771E-02  0.1026171E+00
         21   -1    0    0  502  501  0.00000000000E+00  0.00000000000E+00  0.39317796559E+03  0.39317796559E+03  0.00000000000E+00 0. -1.
         21   -1    0    0  501  502 -0.00000000000E+00 -0.00000000000E+00 -0.13177407229E+03  0.13177407229E+03  0.00000000000E+00 0. -1.
      99926    2    1    2    0    0  0.00000000000E+00 -0.44408920985E-15  0.26140389329E+03  0.52495203788E+03  0.45523910931E+03 0.  0.
         25    1    3    3    0    0  0.32249428904E+02  0.81041861633E+01  0.92318695684E+02  0.15898412868E+03  0.12509000000E+03 0.  0.
         25    1    3    3    0    0 -0.87982953216E+02 -0.23790348069E+01  0.17029514126E+03  0.22889867431E+03  0.12509000000E+03 0.  0.
         25    1    3    3    0    0  0.55733524312E+02 -0.57251513564E+01 -0.12099436522E+01  0.13706923489E+03  0.12509000000E+03 0.  0.
<mgrwt>
<rscale>  2 0.45523911E+03</rscale>
<asrwt>0</asrwt>
<pdfrwt beam="1">  1       21 0.57820289E-01 0.45523911E+03</pdfrwt>
<pdfrwt beam="2">  1       21 0.19378540E-01 0.45523911E+03</pdfrwt>
<totfact> 0.63429210E+04</totfact>
</mgrwt>
</event>
<event>
 7    0  0.4725730E-002  0.4517606E+03  0.7546771E-02  0.1027198E+00
         21   -1    0    0  502  501  0.00000000000E+00  0.00000000000E+00  0.13819485645E+04  0.13819485645E+04  0.00000000000E+00 0. -1.
         21   -1    0    0  501  502 -0.00000000000E+00 -0.00000000000E+00 -0.36920264274E+02  0.36920264274E+02  0.00000000000E+00 0. -1.
      99926    2    1    2    0    0  0.00000000000E+00  0.00000000000E+00  0.13450283003E+04  0.14188688288E+04  0.45176058356E+03 0.  0.
      99925    2    3    3    0    0  0.34479522335E+02 -0.91865168868E+02  0.69221718807E+03  0.74697754072E+03  0.26302616632E+03 0.  0.
         25    1    4    4    0    0  0.16080544649E+02 -0.25666548639E+02  0.23413420979E+03  0.26717726686E+03  0.12509000000E+03 0.  0.
         25    1    4    4    0    0  0.18398977686E+02 -0.66198620229E+02  0.45808297829E+03  0.47980027386E+03  0.12509000000E+03 0.  0.
         25    1    3    3    0    0 -0.34479522335E+02  0.91865168868E+02  0.65281111218E+03  0.67189128808E+03  0.12509000000E+03 0.  0.
<mgrwt>
<rscale>  2 0.45176058E+03</rscale>
<asrwt>0</asrwt>
<pdfrwt beam="1">  1       21 0.20322770E+00 0.45176058E+03</pdfrwt>
<pdfrwt beam="2">  1       21 0.54294515E-02 0.45176058E+03</pdfrwt>
<totfact> 0.26494175E+04</totfact>
</mgrwt>
</event>
<event>
 7    0  0.4725730E-002  0.4529762E+03  0.7546771E-02  0.1026838E+00
         21   -1    0    0  502  501  0.00000000000E+00  0.00000000000E+00  0.48536477673E+03  0.48536477673E+03  0.00000000000E+00 0.  1.
         21   -1    0    0  501  502 -0.00000000000E+00 -0.00000000000E+00 -0.10568723921E+03  0.10568723921E+03  0.00000000000E+00 0.  1.
      99926    2    1    2    0    0  0.35527136788E-14  0.88817841970E-15  0.37967753752E+03  0.59105201595E+03  0.45297621688E+03 0.  0.
      99925    2    3    3    0    0  0.22098821494E+02  0.53012603157E+01  0.38136819202E+03  0.46390317527E+03  0.26315014131E+03 0.  0.
         25    1    4    4    0    0  0.69566697218E+01 -0.11267802232E+02  0.12280514577E+03  0.17579525178E+03  0.12509000000E+03 0.  0.
         25    1    3    3    0    0 -0.22098821494E+02 -0.53012603157E+01 -0.16906545003E+01  0.12714884067E+03  0.12509000000E+03 0.  0.
         25    1    4    4    0    0  0.15142151772E+02  0.16569062548E+02  0.25856304625E+03  0.28810792349E+03  0.12509000000E+03 0.  0.
<mgrwt>
<rscale>  2 0.45297622E+03</rscale>
<asrwt>0</asrwt>
<pdfrwt beam="1">  1       21 0.71377172E-01 0.45297622E+03</pdfrwt>
<pdfrwt beam="2">  1       21 0.15542241E-01 0.45297622E+03</pdfrwt>
<totfact> 0.60189377E+04</totfact>
</mgrwt>
</event>
<event>
 7    0  0.4725730E-002  0.4553319E+03  0.7546771E-02  0.1026144E+00
         21   -1    0    0  502  501  0.00000000000E+00  0.00000000000E+00  0.39184996492E+02  0.39184996492E+02  0.00000000000E+00 0. -1.
         21   -1    0    0  501  502 -0.00000000000E+00 -0.00000000000E+00 -0.13227459232E+04  0.13227459232E+04  0.00000000000E+00 0. -1.
      99926    2    1    2    0    0  0.00000000000E+00  0.00000000000E+00 -0.12835609267E+04  0.13619309197E+04  0.45533194204E+03 0.  0.
      99925    2    3    3    0    0  0.10672253886E+02 -0.11295757997E+03 -0.80697427796E+03  0.85630689560E+03  0.26302224675E+03 0.  0.
         25    1    4    4    0    0  0.26562328768E+02 -0.76774145419E+02 -0.34046581176E+03  0.37170459211E+03  0.12509000000E+03 0.  0.
         25    1    3    3    0    0 -0.10672253886E+02  0.11295757997E+03 -0.47658664875E+03  0.50562402409E+03  0.12509000000E+03 0.  0.
         25    1    4    4    0    0 -0.15890074882E+02 -0.36183434549E+02 -0.46650846620E+03  0.48460230349E+03  0.12509000000E+03 0.  0.
<mgrwt>
<rscale>  2 0.45533194E+03</rscale>
<asrwt>0</asrwt>
<pdfrwt beam="1">  1       21 0.57625000E-02 0.45533194E+03</pdfrwt>
<pdfrwt beam="2">  1       21 0.19452144E+00 0.45533194E+03</pdfrwt>
<totfact> 0.27293896E+04</totfact>
</mgrwt>
</event>
<event>
 7    0  0.4725730E-002  0.4543209E+03  0.7546771E-02  0.1026441E+00
         21   -1    0    0  502  501  0.00000000000E+00  0.00000000000E+00  0.16472959682E+03  0.16472959682E+03  0.00000000000E+00 0. -1.
         21   -1    0    0  501  502 -0.00000000000E+00 -0.00000000000E+00 -0.31325195326E+03  0.31325195326E+03  0.00000000000E+00 0. -1.
      99926    2    1    2    0    0  0.17763568394E-14  0.00000000000E+00 -0.14852235643E+03  0.47798155008E+03  0.45432089085E+03 0.  0.
      99925    2    3    3    0    0  0.12412082444E+02 -0.36026876370E+02  0.17871698005E+02  0.26635337364E+03  0.26300708441E+03 0.  0.
         25    1    4    4    0    0 -0.26819378656E+02 -0.20618509979E+02 -0.14641127559E+02  0.13040810075E+03  0.12509000000E+03 0.  0.
         25    1    4    4    0    0  0.39231461101E+02 -0.15408366390E+02  0.32512825564E+02  0.13594527289E+03  0.12509000000E+03 0.  0.
         25    1    3    3    0    0 -0.12412082444E+02  0.36026876370E+02 -0.16639405444E+03  0.21162817644E+03  0.12509000000E+03 0.  0.
<mgrwt>
<rscale>  2 0.45432089E+03</rscale>
<asrwt>0</asrwt>
<pdfrwt beam="1">  1       21 0.24224941E-01 0.45432089E+03</pdfrwt>
<pdfrwt beam="2">  1       21 0.46066463E-01 0.45432089E+03</pdfrwt>
<totfact> 0.67208850E+04</totfact>
</mgrwt>
</event>
<event>
 7    0  0.4725730E-002  0.4568570E+03  0.7546771E-02  0.1025697E+00
         21   -1    0    0  502  501  0.00000000000E+00  0.00000000000E+00  0.65637323663E+02  0.65637323663E+02  0.00000000000E+00 0.  1.
         21   -1    0    0  501  502 -0.00000000000E+00 -0.00000000000E+00 -0.79496822604E+03  0.79496822604E+03  0.00000000000E+00 0.  1.
      99926    2    1    2    0    0  0.00000000000E+00  0.35527136788E-14 -0.72933090238E+03  0.86060554971E+03  0.45685703127E+03 0.  0.
      99925    2    3    3    0    0 -0.43771075000E+02 -0.19379700224E+02 -0.65496511488E+03  0.70740875392E+03  0.26297597539E+03 0.  0.
         25    1    3    3    0    0  0.43771075000E+02  0.19379700224E+02 -0.74365787504E+02  0.15319679578E+03  0.12509000000E+03 0.  0.
         25    1    4    4    0    0  0.16169681795E+02 -0.22137642957E+02 -0.33606047293E+03  0.35963270626E+03  0.12509000000E+03 0.  0.
         25    1    4    4    0    0 -0.59940756795E+02  0.27579427331E+01 -0.31890464195E+03  0.34777604767E+03  0.12509000000E+03 0.  0.
<mgrwt>
<rscale>  2 0.45685703E+03</rscale>
<asrwt>0</asrwt>
<pdfrwt beam="1">  1       21 0.96525488E-02 0.45685703E+03</pdfrwt>
<pdfrwt beam="2">  1       21 0.11690708E+00 0.45685703E+03</pdfrwt>
<totfact> 0.44319508E+04</totfact>
</mgrwt>
</event>
<event>
 7    0  0.4725730E-002  0.4589968E+03  0.7546771E-02  0.1025073E+00
         21   -1    0    0  502  501  0.00000000000E+00  0.00000000000E+00  0.44698917970E+02  0.44698917970E+02  0.00000000000E+00 0. -1.
         21   -1    0    0  501  502 -0.00000000000E+00 -0.00000000000E+00 -0.11783174852E+04  0.11783174852E+04  0.00000000000E+00 0. -1.
      99926    2    1    2    0    0 -0.17763568394E-14  0.00000000000E+00 -0.11336185672E+04  0.12230164031E+04  0.45899680439E+03 0.  0.
      99925    2    3    3    0    0 -0.93657387268E+01 -0.10166591440E+03 -0.55931710099E+03  0.62644842092E+03  0.26301773592E+03 0.  0.
         25    1    4    4    0    0 -0.41562541208E+02 -0.55967194339E+02 -0.24926518980E+03  0.28747245889E+03  0.12509000000E+03 0.  0.
         25    1    4    4    0    0  0.32196802481E+02 -0.45698720060E+02 -0.31005191119E+03  0.33897596203E+03  0.12509000000E+03 0.  0.
         25    1    3    3    0    0  0.93657387268E+01  0.10166591440E+03 -0.57430146620E+03  0.59656798220E+03  0.12509000000E+03 0.  0.
<mgrwt>
<rscale>  2 0.45899680E+03</rscale>
<asrwt>0</asrwt>
<pdfrwt beam="1">  1       21 0.65733694E-02 0.45899680E+03</pdfrwt>
<pdfrwt beam="2">  1       21 0.17328201E+00 0.45899680E+03</pdfrwt>
<totfact> 0.30475072E+04</totfact>
</mgrwt>
</event>
<event>
 7    0  0.4725730E-002  0.4558410E+03  0.7546771E-02  0.1025994E+00
         21   -1    0    0  502  501  0.00000000000E+00  0.00000000000E+00  0.43038721569E+03  0.43038721569E+03  0.00000000000E+00 0.  1.
         21   -1    0    0  501  502 -0.00000000000E+00 -0.00000000000E+00 -0.12070004362E+03  0.12070004362E+03  0.00000000000E+00 0.  1.
      99926    2    1    2    0    0  0.00000000000E+00  0.00000000000E+00  0.30968717207E+03  0.55108725931E+03  0.45584100608E+03 0.  0.
      99925    2    3    3    0    0  0.31678822230E+02  0.15380187171E+02  0.32575343201E+03  0.42014555188E+03  0.26299598546E+03 0.  0.
         25    1    4    4    0    0  0.37564692717E+02  0.49484908474E+00  0.11243540981E+03  0.17233856357E+03  0.12509000000E+03 0.  0.
         25    1    3    3    0    0 -0.31678822230E+02 -0.15380187171E+02 -0.16066259939E+02  0.13094170743E+03  0.12509000000E+03 0.  0.
         25    1    4    4    0    0 -0.58858704868E+01  0.14885338086E+02  0.21331802220E+03  0.24780698831E+03  0.12509000000E+03 0.  0.
<mgrwt>
<rscale>  2 0.45584101E+03</rscale>
<asrwt>0</asrwt>
<pdfrwt beam="1">  1       21 0.63292237E-01 0.45584101E+03</pdfrwt>
<pdfrwt beam="2">  1       21 0.17750007E-01 0.45584101E+03</pdfrwt>
<totfact> 0.61385257E+04</totfact>
</mgrwt>
</event>
<event>
 7    0  0.4725730E-002  0.4201255E+03  0.7546771E-02  0.1037025E+00
         21   -1    0    0  502  501  0.00000000000E+00  0.00000000000E+00  0.12468506609E+03  0.12468506609E+03  0.00000000000E+00 0.  1.
         21   -1    0    0  501  502 -0.00000000000E+00 -0.00000000000E+00 -0.35390253569E+03  0.35390253569E+03  0.00000000000E+00 0.  1.
      99926    2    1    2    0    0  0.00000000000E+00  0.00000000000E+00 -0.22921746960E+03  0.47858760179E+03  0.42012551007E+03 0.  0.
      99925    2    3    3    0    0  0.26552284593E+02  0.65566260289E+02 -0.11190051471E+03  0.29307551509E+03  0.26147193740E+03 0.  0.
         25    1    3    3    0    0 -0.26552284593E+02 -0.65566260289E+02 -0.11731695490E+03  0.18551208670E+03  0.12509000000E+03 0.  0.
         25    1    4    4    0    0  0.35887588566E+02  0.36496030192E+02 -0.90215618817E+02  0.16249998527E+03  0.12509000000E+03 0.  0.
         25    1    4    4    0    0 -0.93353039732E+01  0.29070230098E+02 -0.21684895891E+02  0.13057552982E+03  0.12509000000E+03 0.  0.
<mgrwt>
<rscale>  2 0.42012551E+03</rscale>
<asrwt>0</asrwt>
<pdfrwt beam="1">  1       21 0.18336039E-01 0.42012551E+03</pdfrwt>
<pdfrwt beam="2">  1       21 0.52044490E-01 0.42012551E+03</pdfrwt>
<totfact> 0.89002700E+04</totfact>
</mgrwt>
</event>
<event>
 6    0  0.4725730E-002  0.4677966E+03  0.7546771E-02  0.1022544E+00
         21   -1    0    0  502  501  0.00000000000E+00  0.00000000000E+00  0.17194873958E+04  0.17194873958E+04  0.00000000000E+00 0. -1.
         21   -1    0    0  501  502 -0.00000000000E+00 -0.00000000000E+00 -0.31816703667E+02  0.31816703667E+02  0.00000000000E+00 0. -1.
      99926    2    1    2    0    0  0.00000000000E+00  0.00000000000E+00  0.16876706921E+04  0.17513040995E+04  0.46779662646E+03 0.  0.
         25    1    3    3    0    0  0.83927478083E+02  0.63163655905E+02  0.71838042429E+03  0.73671664235E+03  0.12509000000E+03 0.  0.
         25    1    3    3    0    0 -0.93517082283E+02 -0.68574232647E+02  0.47874386209E+03  0.50822343871E+03  0.12509000000E+03 0.  0.
         25    1    3    3    0    0  0.95896041999E+01  0.54105767413E+01  0.49054640576E+03  0.50636401842E+03  0.12509000000E+03 0.  0.
<mgrwt>
<rscale>  2 0.46779663E+03</rscale>
<asrwt>0</asrwt>
<pdfrwt beam="1">  1       21 0.25286573E+00 0.46779663E+03</pdfrwt>
<pdfrwt beam="2">  1       21 0.46789282E-02 0.46779663E+03</pdfrwt>
<totfact> 0.16511903E+04</totfact>
</mgrwt>
</event>
<event>
 7    0  0.4725730E-002  0.4488170E+03  0.7546771E-02  0.1028075E+00
         21   -1    0    0  502  501  0.00000000000E+00  0.00000000000E+00  0.38038823939E+03  0.38038823939E+03  0.00000000000E+00 0. -1.
         21   -1    0    0  501  502 -0.00000000000E+00 -0.00000000000E+00 -0.13238887271E+03  0.13238887271E+03  0.00000000000E+00 0. -1.
      99926    2    1    2    0    0  0.00000000000E+00  0.00000000000E+00  0.24799936668E+03  0.51277711210E+03  0.44881697920E+03 0.  0.
      99925    2    3    3    0    0  0.71541192904E+02  0.49066022680E+02  0.85407858986E+02  0.29004605603E+03  0.26326145821E+03 0.  0.
         25    1    3    3    0    0 -0.71541192904E+02 -0.49066022680E+02  0.16259150769E+03  0.22273105607E+03  0.12509000000E+03 0.  0.
         25    1    4    4    0    0  0.65216718764E+02  0.53843718226E+02  0.35350444224E+02  0.15507910370E+03  0.12509000000E+03 0.  0.
         25    1    4    4    0    0  0.63244741408E+01 -0.47776955456E+01  0.50057414762E+02  0.13496695233E+03  0.12509000000E+03 0.  0.
<mgrwt>
<rscale>  2 0.44881698E+03</rscale>
<asrwt>0</asrwt>
<pdfrwt beam="1">  1       21 0.55939447E-01 0.44881698E+03</pdfrwt>
<pdfrwt beam="2">  1       21 0.19468952E-01 0.44881698E+03</pdfrwt>
<totfact> 0.67640073E+04</totfact>
</mgrwt>
</event>
<event>
 7    0  0.4725730E-002  0.4562518E+03  0.7546771E-02  0.1025874E+00
         21   -1    0    0  502  501  0.00000000000E+00  0.00000000000E+00  0.60888146272E+02  0.60888146272E+02  0.00000000000E+00 0.  1.
         21   -1    0    0  501  502 -0.00000000000E+00 -0.00000000000E+00 -0.85470547319E+03  0.85470547319E+03  0.00000000000E+00 0.  1.
      99926    2    1    2    0    0  0.00000000000E+00  0.14210854715E-13 -0.79381732692E+03  0.91559361947E+03  0.45625182464E+03 0.  0.
      99925    2    3    3    0    0 -0.49371812893E+02 -0.79654339965E+02 -0.36762232427E+03  0.46164199410E+03  0.26302997478E+03 0.  0.
         25    1    3    3    0    0  0.49371812893E+02  0.79654339965E+02 -0.42619500265E+03  0.45395162536E+03  0.12509000000E+03 0.  0.
         25    1    4    4    0    0  0.70733148625E+01 -0.10989578422E+02 -0.16587481206E+03  0.20816523243E+03  0.12509000000E+03 0.  0.
         25    1    4    4    0    0 -0.56445127756E+02 -0.68664761544E+02 -0.20174751221E+03  0.25347676167E+03  0.12509000000E+03 0.  0.
<mgrwt>
<rscale>  2 0.45625182E+03</rscale>
<asrwt>0</asrwt>
<pdfrwt beam="1">  1       21 0.89541403E-02 0.45625182E+03</pdfrwt>
<pdfrwt beam="2">  1       21 0.12569197E+00 0.45625182E+03</pdfrwt>
<totfact> 0.42151882E+04</totfact>
</mgrwt>
</event>
<event>
 7    0  0.4725730E-002  0.4478675E+03  0.7546771E-02  0.1028360E+00
         21   -1    0    0  502  501  0.00000000000E+00  0.00000000000E+00  0.10595308771E+03  0.10595308771E+03  0.00000000000E+00 0. -1.
         21   -1    0    0  501  502 -0.00000000000E+00 -0.00000000000E+00 -0.47328791927E+03  0.47328791927E+03  0.00000000000E+00 0. -1.
      99926    2    1    2    0    0  0.00000000000E+00  0.71054273576E-14 -0.36733483156E+03  0.57924100698E+03  0.44786746442E+03 0.  0.
      99925    2    3    3    0    0  0.86923751999E+02 -0.32675251304E+02 -0.16564980020E+03  0.32439248199E+03  0.26299660713E+03 0.  0.
         25    1    3    3    0    0 -0.86923751999E+02  0.32675251304E+02 -0.20168503137E+03  0.25484852499E+03  0.12509000000E+03 0.  0.
         25    1    4    4    0    0  0.52432421857E+02 -0.56121360852E+02 -0.80209507556E+02  0.16727175257E+03  0.12509000000E+03 0.  0.
         25    1    4    4    0    0  0.34491330142E+02  0.23446109549E+02 -0.85440292639E+02  0.15712072942E+03  0.12509000000E+03 0.  0.
<mgrwt>
<rscale>  2 0.44786746E+03</rscale>
<asrwt>0</asrwt>
<pdfrwt beam="1">  1       21 0.15581337E-01 0.44786746E+03</pdfrwt>
<pdfrwt beam="2">  1       21 0.69601163E-01 0.44786746E+03</pdfrwt>
<totfact> 0.63479003E+04</totfact>
</mgrwt>
</event>
<event>
 7    0  0.4725730E-002  0.4639073E+03  0.7546771E-02  0.1023654E+00
         21   -1    0    0  502  501  0.00000000000E+00  0.00000000000E+00  0.13679598130E+03  0.13679598130E+03  0.00000000000E+00 0.  1.
         21   -1    0    0  501  502 -0.00000000000E+00 -0.00000000000E+00 -0.39330461602E+03  0.39330461602E+03  0.00000000000E+00 0.  1.
      99926    2    1    2    0    0  0.00000000000E+00  0.00000000000E+00 -0.25650863472E+03  0.53010059733E+03  0.46390727910E+03 0.  0.
      99925    2    3    3    0    0 -0.85438079599E+02  0.65884087928E+02 -0.96622178917E+02  0.30020591418E+03  0.26295886934E+03 0.  0.
         25    1    4    4    0    0 -0.15702971321E+02  0.53845728140E+01 -0.23323710916E+02  0.12832412292E+03  0.12509000000E+03 0.  0.
         25    1    3    3    0    0  0.85438079599E+02 -0.65884087928E+02 -0.15988645581E+03  0.22989468314E+03  0.12509000000E+03 0.  0.
         25    1    4    4    0    0 -0.69735108278E+02  0.60499515114E+02 -0.73298468001E+02  0.17188179126E+03  0.12509000000E+03 0.  0.
<mgrwt>
<rscale>  2 0.46390728E+03</rscale>
<asrwt>0</asrwt>
<pdfrwt beam="1">  1       21 0.20117056E-01 0.46390728E+03</pdfrwt>
<pdfrwt beam="2">  1       21 0.57838913E-01 0.46390728E+03</pdfrwt>
<totfact> 0.58927588E+04</totfact>
</mgrwt>
</event>
<event>
 7    0  0.4725730E-002  0.4217412E+03  0.7546771E-02  0.1036501E+00
         21   -1    0    0  502  501  0.00000000000E+00  0.00000000000E+00  0.12649318658E+03  0.12649318658E+03  0.00000000000E+00 0. -1.
         21   -1    0    0  501  502 -0.00000000000E+00 -0.00000000000E+00 -0.35153198857E+03  0.35153198857E+03  0.00000000000E+00 0. -1.
      99926    2    1    2    0    0  0.11102230246E-14  0.14210854715E-13 -0.22503880199E+03  0.47802517515E+03  0.42174115957E+03 0.  0.
      99925    2    3    3    0    0  0.39469160846E+00  0.72745371894E+02 -0.17847914765E+03  0.32601414126E+03  0.26294176017E+03 0.  0.
         25    1    4    4    0    0  0.22349731752E+02  0.61487809524E+01 -0.63383869952E+02  0.14213493971E+03  0.12509000000E+03 0.  0.
         25    1    4    4    0    0 -0.21955040143E+02  0.66596590942E+02 -0.11509527770E+03  0.18387920155E+03  0.12509000000E+03 0.  0.
         25    1    3    3    0    0 -0.39469160846E+00 -0.72745371894E+02 -0.46559654341E+02  0.15201103390E+03  0.12509000000E+03 0.  0.
<mgrwt>
<rscale>  2 0.42174116E+03</rscale>
<asrwt>0</asrwt>
<pdfrwt beam="1">  1       21 0.18601939E-01 0.42174116E+03</pdfrwt>
<pdfrwt beam="2">  1       21 0.51695881E-01 0.42174116E+03</pdfrwt>
<totfact> 0.87842559E+04</totfact>
</mgrwt>
</event>
<event>
 7    0  0.4725730E-002  0.4448476E+03  0.7546771E-02  0.1029270E+00
         21   -1    0    0  502  501  0.00000000000E+00  0.00000000000E+00  0.51521139071E+02  0.51521139071E+02  0.00000000000E+00 0. -1.
         21   -1    0    0  501  502 -0.00000000000E+00 -0.00000000000E+00 -0.96023379146E+03  0.96023379146E+03  0.00000000000E+00 0. -1.
      99926    2    1    2    0    0  0.14210854715E-13  0.88817841970E-15 -0.90871265239E+03  0.10117549305E+04  0.44484756360E+03 0.  0.
      99925    2    3    3    0    0  0.92937998815E+02  0.44700632507E+01 -0.67966970230E+03  0.73468881175E+03  0.26298154460E+03 0.  0.
         25    1    4    4    0    0  0.24737362126E+02 -0.10102443458E+02 -0.23543487181E+03  0.26793858142E+03  0.12509000000E+03 0.  0.
         25    1    4    4    0    0  0.68200636689E+02  0.14572506708E+02 -0.44423483049E+03  0.46675023034E+03  0.12509000000E+03 0.  0.
         25    1    3    3    0    0 -0.92937998815E+02 -0.44700632507E+01 -0.22904295009E+03  0.27706611878E+03  0.12509000000E+03 0.  0.
<mgrwt>
<rscale>  2 0.44484756E+03</rscale>
<asrwt>0</asrwt>
<pdfrwt beam="1">  1       21 0.75766377E-02 0.44484756E+03</pdfrwt>
<pdfrwt beam="2">  1       21 0.14121086E+00 0.44484756E+03</pdfrwt>
<totfact> 0.41940132E+04</totfact>
</mgrwt>
</event>
<event>
 7    0  0.4725730E-002  0.4627033E+03  0.7546771E-02  0.1024000E+00
         21   -1    0    0  502  501  0.00000000000E+00  0.00000000000E+00  0.44668140124E+03  0.44668140124E+03  0.00000000000E+00 0.  1.
         21   -1    0    0  501  502 -0.00000000000E+00 -0.00000000000E+00 -0.11982495621E+03  0.11982495621E+03  0.00000000000E+00 0.  1.
      99926    2    1    2    0    0  0.00000000000E+00  0.00000000000E+00  0.32685644503E+03  0.56650635745E+03  0.46270327141E+03 0.  0.
      99925    2    3    3    0    0  0.13279576689E+02 -0.11508392567E+03  0.16415984672E+03  0.33084060197E+03  0.26284290276E+03 0.  0.
         25    1    3    3    0    0 -0.13279576689E+02  0.11508392567E+03  0.16269659831E+03  0.23566575548E+03  0.12509000000E+03 0.  0.
         25    1    4    4    0    0 -0.69543996615E+01 -0.32165518908E+02  0.41129325612E+02  0.13572808776E+03  0.12509000000E+03 0.  0.
         25    1    4    4    0    0  0.20233976350E+02 -0.82918406759E+02  0.12303052110E+03  0.19511251421E+03  0.12509000000E+03 0.  0.
<mgrwt>
<rscale>  2 0.46270327E+03</rscale>
<asrwt>0</asrwt>
<pdfrwt beam="1">  1       21 0.65688441E-01 0.46270327E+03</pdfrwt>
<pdfrwt beam="2">  1       21 0.17621317E-01 0.46270327E+03</pdfrwt>
<totfact> 0.57222112E+04</totfact>
</mgrwt>
</event>
<event>
 7    0  0.4725730E-002  0.4592341E+03  0.7546771E-02  0.1025004E+00
         21   -1    0    0  502  501  0.00000000000E+00  0.00000000000E+00  0.10654185777E+03  0.10654185777E+03  0.00000000000E+00 0. -1.
         21   -1    0    0  501  502 -0.00000000000E+00 -0.00000000000E+00 -0.49486634425E+03  0.49486634425E+03  0.00000000000E+00 0. -1.
      99926    2    1    2    0    0  0.00000000000E+00  0.00000000000E+00 -0.38832448648E+03  0.60140820203E+03  0.45923405652E+03 0.  0.
      99925    2    3    3    0    0 -0.12639447920E+02  0.11574075926E+03 -0.25926303736E+03  0.38725861704E+03  0.26305177235E+03 0.  0.
         25    1    4    4    0    0 -0.25371174017E+02  0.54776907817E+02 -0.17741233886E+03  0.22531500656E+03  0.12509000000E+03 0.  0.
         25    1    3    3    0    0  0.12639447920E+02 -0.11574075926E+03 -0.12906144912E+03  0.21414958498E+03  0.12509000000E+03 0.  0.
         25    1    4    4    0    0  0.12731726097E+02  0.60963851447E+02 -0.81850698494E+02  0.16194361048E+03  0.12509000000E+03 0.  0.
<mgrwt>
<rscale>  2 0.45923406E+03</rscale>
<asrwt>0</asrwt>
<pdfrwt beam="1">  1       21 0.15667920E-01 0.45923406E+03</pdfrwt>
<pdfrwt beam="2">  1       21 0.72774462E-01 0.45923406E+03</pdfrwt>
<totfact> 0.56671860E+04</totfact>
</mgrwt>
</event>
<event>
 7    0  0.4725730E-002  0.4607038E+03  0.7546771E-02  0.1024577E+00
         21   -1    0    0  502  501  0.00000000000E+00  0.00000000000E+00  0.31977014933E+03  0.31977014933E+03  0.00000000000E+00 0. -1.
         21   -1    0    0  501  502 -0.00000000000E+00 -0.00000000000E+00 -0.16593789903E+03  0.16593789903E+03  0.00000000000E+00 0. -1.
      99926    2    1    2    0    0 -0.71054273576E-14  0.00000000000E+00  0.15383225030E+03  0.48570804836E+03  0.46070375190E+03 0.  0.
      99925    2    3    3    0    0 -0.33531781341E+02  0.21030554326E+02 -0.21383016831E+02  0.26681409571E+03  0.26299403735E+03 0.  0.
         25    1    4    4    0    0  0.17513591267E+02 -0.11171947317E+02 -0.42723862237E+01  0.12687513417E+03  0.12509000000E+03 0.  0.
         25    1    3    3    0    0  0.33531781341E+02 -0.21030554326E+02  0.17521526713E+03  0.21889395266E+03  0.12509000000E+03 0.  0.
         25    1    4    4    0    0 -0.51045372608E+02  0.32202501642E+02 -0.17110630607E+02  0.13993896154E+03  0.12509000000E+03 0.  0.
<mgrwt>
<rscale>  2 0.46070375E+03</rscale>
<asrwt>0</asrwt>
<pdfrwt beam="1">  1       21 0.47025022E-01 0.46070375E+03</pdfrwt>
<pdfrwt beam="2">  1       21 0.24402632E-01 0.46070375E+03</pdfrwt>
<totfact> 0.63368829E+04</totfact>
</mgrwt>
</event>
<event>
 7    0  0.4725730E-002  0.4536322E+03  0.7546771E-02  0.1026644E+00
         21   -1    0    0  502  501  0.00000000000E+00  0.00000000000E+00  0.57555478646E+02  0.57555478646E+02  0.00000000000E+00 0. -1.
         21   -1    0    0  501  502 -0.00000000000E+00 -0.00000000000E+00 -0.89384258139E+03  0.89384258139E+03  0.00000000000E+00 0. -1.
      99926    2    1    2    0    0  0.14210854715E-13  0.00000000000E+00 -0.83628710275E+03  0.95139806004E+03  0.45363217525E+03 0.  0.
      99925    2    3    3    0    0 -0.92044316061E+02  0.55666501756E+02 -0.46276855181E+03  0.54306666089E+03  0.26305085077E+03 0.  0.
         25    1    3    3    0    0  0.92044316061E+02 -0.55666501756E+02 -0.37351855094E+03  0.40833139915E+03  0.12509000000E+03 0.  0.
         25    1    4    4    0    0 -0.75122125066E+02  0.98653894974E+01 -0.28443488475E+03  0.31983022270E+03  0.12509000000E+03 0.  0.
         25    1    4    4    0    0 -0.16922190995E+02  0.45801112258E+02 -0.17833366706E+03  0.22323643819E+03  0.12509000000E+03 0.  0.
<mgrwt>
<rscale>  2 0.45363218E+03</rscale>
<asrwt>0</asrwt>
<pdfrwt beam="1">  1       21 0.84640411E-02 0.45363218E+03</pdfrwt>
<pdfrwt beam="2">  1       21 0.13144744E+00 0.45363218E+03</pdfrwt>
<totfact> 0.41526640E+04</totfact>
</mgrwt>
</event>
<event>
 7    0  0.4725730E-002  0.4715084E+03  0.7546771E-02  0.1021495E+00
         21   -1    0    0  502  501  0.00000000000E+00  0.00000000000E+00  0.83905227089E+03  0.83905227089E+03  0.00000000000E+00 0.  1.
         21   -1    0    0  501  502 -0.00000000000E+00 -0.00000000000E+00 -0.66241445561E+02  0.66241445561E+02  0.00000000000E+00 0.  1.
      99926    2    1    2    0    0  0.00000000000E+00  0.00000000000E+00  0.77281082533E+03  0.90529371645E+03  0.47150836822E+03 0.  0.
      99925    2    3    3    0    0 -0.96765002983E+02  0.39457355196E+02  0.62149041024E+03  0.68288480295E+03  0.26298474366E+03 0.  0.
         25    1    3    3    0    0  0.96765002983E+02 -0.39457355196E+02  0.15132041509E+03  0.22240891350E+03  0.12509000000E+03 0.  0.
         25    1    4    4    0    0 -0.74089095883E+02  0.92200571724E+01  0.25343426721E+03  0.29231941345E+03  0.12509000000E+03 0.  0.
         25    1    4    4    0    0 -0.22675907100E+02  0.30237298024E+02  0.36805614303E+03  0.39056538950E+03  0.12509000000E+03 0.  0.
<mgrwt>
<rscale>  2 0.47150837E+03</rscale>
<asrwt>0</asrwt>
<pdfrwt beam="1">  1       21 0.12339003E+00 0.47150837E+03</pdfrwt>
<pdfrwt beam="2">  1       21 0.97413896E-02 0.47150837E+03</pdfrwt>
<totfact> 0.37868799E+04</totfact>
</mgrwt>
</event>
<event>
 7    0  0.4725730E-002  0.4564302E+03  0.7546771E-02  0.1025822E+00
         21   -1    0    0  502  501  0.00000000000E+00  0.00000000000E+00  0.26077500445E+04  0.26077500445E+04  0.00000000000E+00 0. -1.
         21   -1    0    0  501  502 -0.00000000000E+00 -0.00000000000E+00 -0.19972060083E+02  0.19972060083E+02  0.00000000000E+00 0. -1.
      99926    2    1    2    0    0 -0.26645352591E-14  0.14210854715E-13  0.25877779844E+04  0.26277221045E+04  0.45643023812E+03 0.  0.
      99925    2    3    3    0    0  0.79988513332E+01 -0.95555671658E+02  0.19863537337E+04  0.20059878322E+04  0.26304212500E+03 0.  0.
         25    1    3    3    0    0 -0.79988513332E+01  0.95555671658E+02  0.60142425069E+03  0.62173427236E+03  0.12509000000E+03 0.  0.
         25    1    4    4    0    0 -0.26319420595E+02 -0.72699517261E+02  0.95442128870E+03  0.96568392144E+03  0.12509000000E+03 0.  0.
         25    1    4    4    0    0  0.34318271929E+02 -0.22856154397E+02  0.10319324450E+04  0.10403039107E+04  0.12509000000E+03 0.  0.
<mgrwt>
<rscale>  2 0.45643024E+03</rscale>
<asrwt>0</asrwt>
<pdfrwt beam="1">  1       21 0.38349242E+00 0.45643024E+03</pdfrwt>
<pdfrwt beam="2">  1       21 0.29370695E-02 0.45643024E+03</pdfrwt>
<totfact> 0.58460656E+03</totfact>
</mgrwt>
</event>
<event>
 7    0  0.4725730E-002  0.4521981E+03  0.7546771E-02  0.1027069E+00
         21   -1    0    0  502  501  0.00000000000E+00  0.00000000000E+00  0.18775153010E+03  0.18775153010E+03  0.00000000000E+00 0. -1.
         21   -1    0    0  501  502 -0.00000000000E+00 -0.00000000000E+00 -0.27227887325E+03  0.27227887325E+03  0.00000000000E+00 0. -1.
      99926    2    1    2    0    0  0.35527136788E-14  0.00000000000E+00 -0.84527343148E+02  0.46003040335E+03  0.45219807636E+03 0.  0.
      99925    2    3    3    0    0  0.24816207708E+02  0.10713229012E+03 -0.43816892719E+02  0.28857189342E+03  0.26317417394E+03 0.  0.
         25    1    3    3    0    0 -0.24816207708E+02 -0.10713229012E+03 -0.40710450430E+02  0.17145850993E+03  0.12509000000E+03 0.  0.
         25    1    4    4    0    0 -0.27394085359E+02  0.41457792800E+02 -0.21690765659E+02  0.13633481548E+03  0.12509000000E+03 0.  0.
         25    1    4    4    0    0  0.52210293067E+02  0.65674497325E+02 -0.22126127060E+02  0.15223707794E+03  0.12509000000E+03 0.  0.
<mgrwt>
<rscale>  2 0.45219808E+03</rscale>
<asrwt>0</asrwt>
<pdfrwt beam="1">  1       21 0.27610519E-01 0.45219808E+03</pdfrwt>
<pdfrwt beam="2">  1       21 0.40041010E-01 0.45219808E+03</pdfrwt>
<totfact> 0.69720675E+04</totfact>
</mgrwt>
</event>
<event>
 7    0  0.4725730E-002  0.4542120E+03  0.7546771E-02  0.1026473E+00
         21   -1    0    0  502  501  0.00000000000E+00  0.00000000000E+00  0.11033233558E+04  0.11033233558E+04  0.00000000000E+00 0.  1.
         21   -1    0    0  501  502 -0.00000000000E+00 -0.00000000000E+00 -0.46747081001E+02  0.46747081001E+02  0.00000000000E+00 0.  1.
      99926    2    1    2    0    0  0.14210854715E-13  0.00000000000E+00  0.10565762748E+04  0.11500704368E+04  0.45421204865E+03 0.  0.
      99925    2    3    3    0    0  0.10684661449E+03 -0.34602662873E+02  0.65343297318E+03  0.71328035788E+03  0.26302219524E+03 0.  0.
         25    1    4    4    0    0  0.86571022134E+02 -0.42228689985E+02  0.32989714127E+03  0.36572863717E+03  0.12509000000E+03 0.  0.
         25    1    3    3    0    0 -0.10684661449E+03  0.34602662873E+02  0.40314330161E+03  0.43679007891E+03  0.12509000000E+03 0.  0.
         25    1    4    4    0    0  0.20275592352E+02  0.76260271129E+01  0.32353583192E+03  0.34755172071E+03  0.12509000000E+03 0.  0.
<mgrwt>
<rscale>  2 0.45421205E+03</rscale>
<asrwt>0</asrwt>
<pdfrwt beam="1">  1       21 0.16225342E+00 0.45421205E+03</pdfrwt>
<pdfrwt beam="2">  1       21 0.68745714E-02 0.45421205E+03</pdfrwt>
<totfact> 0.33988260E+04</totfact>
</mgrwt>
</event>
<event>
 7    0  0.4725730E-002  0.4577970E+03  0.7546771E-02  0.1025422E+00
         21   -1    0    0  502  501  0.00000000000E+00  0.00000000000E+00  0.40056528543E+03  0.40056528543E+03  0.00000000000E+00 0.  1.
         21   -1    0    0  501  502 -0.00000000000E+00 -0.00000000000E+00 -0.13080146307E+03  0.13080146307E+03  0.00000000000E+00 0.  1.
      99926    2    1    2    0    0  0.55511151231E-15  0.00000000000E+00  0.26976382236E+03  0.53136674850E+03  0.45779700912E+03 0.  0.
      99925    2    3    3    0    0 -0.70931148106E+00 -0.11123807325E+03  0.20636819065E+03  0.35236695441E+03  0.26305936285E+03 0.  0.
         25    1    4    4    0    0 -0.20589731055E+02 -0.48697108678E+02  0.58496337982E+02  0.14786708584E+03  0.12509000000E+03 0.  0.
         25    1    3    3    0    0  0.70931148106E+00  0.11123807325E+03  0.63395631701E+02  0.17899979408E+03  0.12509000000E+03 0.  0.
         25    1    4    4    0    0  0.19880419574E+02 -0.62540964572E+02  0.14787185267E+03  0.20449986857E+03  0.12509000000E+03 0.  0.
<mgrwt>
<rscale>  2 0.45779701E+03</rscale>
<asrwt>0</asrwt>
<pdfrwt beam="1">  1       21 0.58906659E-01 0.45779701E+03</pdfrwt>
<pdfrwt beam="2">  1       21 0.19235509E-01 0.45779701E+03</pdfrwt>
<totfact> 0.61734109E+04</totfact>
</mgrwt>
</event>
<event>
 7    0  0.4725730E-002  0.4583653E+03  0.7546771E-02  0.1025256E+00
         21   -1    0    0  502  501  0.00000000000E+00  0.00000000000E+00  0.45162783369E+03  0.45162783369E+03  0.00000000000E+00 0.  1.
         21   -1    0    0  501  502 -0.00000000000E+00 -0.00000000000E+00 -0.11630079757E+03  0.11630079757E+03  0.00000000000E+00 0.  1.
      99926    2    1    2    0    0  0.00000000000E+00  0.00000000000E+00  0.33532703612E+03  0.56792863126E+03  0.45836525724E+03 0.  0.
      99925    2    3    3    0    0 -0.49282711041E+02  0.10496957260E+03  0.19911628183E+03  0.34964378418E+03  0.26297544628E+03 0.  0.
         25    1    3    3    0    0  0.49282711041E+02 -0.10496957260E+03  0.13621075429E+03  0.21828484708E+03  0.12509000000E+03 0.  0.
         25    1    4    4    0    0 -0.45949471490E+01  0.78454556989E+02  0.13359147760E+03  0.19917435086E+03  0.12509000000E+03 0.  0.
         25    1    4    4    0    0 -0.44687763892E+02  0.26515015614E+02  0.65524804227E+02  0.15046943332E+03  0.12509000000E+03 0.  0.
<mgrwt>
<rscale>  2 0.45836526E+03</rscale>
<asrwt>0</asrwt>
<pdfrwt beam="1">  1       21 0.66415857E-01 0.45836526E+03</pdfrwt>
<pdfrwt beam="2">  1       21 0.17103059E-01 0.45836526E+03</pdfrwt>
<totfact> 0.59108233E+04</totfact>
</mgrwt>
</event>
<event>
 7    0  0.4725730E-002  0.4549647E+03  0.7546771E-02  0.1026252E+00
         21   -1    0    0  502  501  0.00000000000E+00  0.00000000000E+00  0.11541490386E+03  0.11541490386E+03  0.00000000000E+00 0. -1.
         21   -1    0    0  501  502 -0.00000000000E+00 -0.00000000000E+00 -0.44836685751E+03  0.44836685751E+03  0.00000000000E+00 0. -1.
      99926    2    1    2    0    0  0.00000000000E+00  0.00000000000E+00 -0.33295195365E+03  0.56378176137E+03  0.45496469205E+03 0.  0.
      99925    2    3    3    0    0  0.91017480290E+02  0.43347994080E+02 -0.26969809600E+03  0.39112085405E+03  0.26471726271E+03 0.  0.
         25    1    3    3    0    0 -0.91017480290E+02 -0.43347994080E+02 -0.63253857655E+02  0.17266090732E+03  0.12509000000E+03 0.  0.
         25    1    4    4    0    0  0.73527971241E+02  0.74245299624E+01 -0.18344609690E+03  0.23401167656E+03  0.12509000000E+03 0.  0.
         25    1    4    4    0    0  0.17489509049E+02  0.35923464117E+02 -0.86251999098E+02  0.15710917748E+03  0.12509000000E+03 0.  0.
<mgrwt>
<rscale>  2 0.45496469E+03</rscale>
<asrwt>0</asrwt>
<pdfrwt beam="1">  1       21 0.16972780E-01 0.45496469E+03</pdfrwt>
<pdfrwt beam="2">  1       21 0.65936301E-01 0.45496469E+03</pdfrwt>
<totfact> 0.60981913E+04</totfact>
</mgrwt>
</event>
<event>
 7    0  0.4725730E-002  0.4428019E+03  0.7546771E-02  0.1029891E+00
         21   -1    0    0  502  501  0.00000000000E+00  0.00000000000E+00  0.39283960097E+02  0.39283960097E+02  0.00000000000E+00 0.  1.
         21   -1    0    0  501  502 -0.00000000000E+00 -0.00000000000E+00 -0.12477965731E+04  0.12477965731E+04  0.00000000000E+00 0.  1.
      99926    2    1    2    0    0  0.00000000000E+00  0.00000000000E+00 -0.12085126130E+04  0.12870805332E+04  0.44280194574E+03 0.  0.
      99925    2    3    3    0    0  0.31993547959E+02  0.91328741786E+02 -0.68629927931E+03  0.74144439054E+03  0.26337911325E+03 0.  0.
         25    1    4    4    0    0 -0.21398989606E+01  0.73231078200E+02 -0.29249074401E+03  0.32644404331E+03  0.12509000000E+03 0.  0.
         25    1    4    4    0    0  0.34133446919E+02  0.18097663586E+02 -0.39380853530E+03  0.41500034723E+03  0.12509000000E+03 0.  0.
         25    1    3    3    0    0 -0.31993547959E+02 -0.91328741786E+02 -0.52221333372E+03  0.54563614269E+03  0.12509000000E+03 0.  0.
<mgrwt>
<rscale>  2 0.44280195E+03</rscale>
<asrwt>0</asrwt>
<pdfrwt beam="1">  1       21 0.57770534E-02 0.44280195E+03</pdfrwt>
<pdfrwt beam="2">  1       21 0.18349948E+00 0.44280195E+03</pdfrwt>
<totfact> 0.32464811E+04</totfact>
</mgrwt>
</event>
<event>
 7    0  0.4725730E-002  0.4580355E+03  0.7546771E-02  0.1025353E+00
         21   -1    0    0  502  501  0.00000000000E+00  0.00000000000E+00  0.28969055850E+03  0.28969055850E+03  0.00000000000E+00 0.  1.
         21   -1    0    0  501  502 -0.00000000000E+00 -0.00000000000E+00 -0.18105228767E+03  0.18105228767E+03  0.00000000000E+00 0.  1.
      99926    2    1    2    0    0  0.00000000000E+00  0.00000000000E+00  0.10863827083E+03  0.47074284617E+03  0.45803553719E+03 0.  0.
      99925    2    3    3    0    0  0.52060942212E+02  0.64996633335E+02  0.15115201002E+03  0.31457040888E+03  0.26300704927E+03 0.  0.
         25    1    4    4    0    0 -0.19137008093E+01  0.57444968415E+02  0.93675339797E+02  0.16651175344E+03  0.12509000000E+03 0.  0.
         25    1    4    4    0    0  0.53974643021E+02  0.75516649203E+01  0.57476670221E+02  0.14805865544E+03  0.12509000000E+03 0.  0.
         25    1    3    3    0    0 -0.52060942212E+02 -0.64996633335E+02 -0.42513739188E+02  0.15617243729E+03  0.12509000000E+03 0.  0.
<mgrwt>
<rscale>  2 0.45803554E+03</rscale>
<asrwt>0</asrwt>
<pdfrwt beam="1">  1       21 0.42601553E-01 0.45803554E+03</pdfrwt>
<pdfrwt beam="2">  1       21 0.26625336E-01 0.45803554E+03</pdfrwt>
<totfact> 0.65782274E+04</totfact>
</mgrwt>
</event>
<event>
 7    0  0.4725730E-002  0.4626359E+03  0.7546771E-02  0.1024020E+00
         21   -1    0    0  502  501  0.00000000000E+00  0.00000000000E+00  0.79221399100E+02  0.79221399100E+02  0.00000000000E+00 0. -1.
         21   -1    0    0  501  502 -0.00000000000E+00 -0.00000000000E+00 -0.67542340215E+03  0.67542340215E+03  0.00000000000E+00 0. -1.
      99926    2    1    2    0    0 -0.71054273576E-14  0.00000000000E+00 -0.59620200305E+03  0.75464480125E+03  0.46263586935E+03 0.  0.
      99925    2    3    3    0    0  0.43374607607E+02 -0.11121685308E+03 -0.39468945785E+03  0.48911634898E+03  0.26306746227E+03 0.  0.
         25    1    4    4    0    0  0.46548209543E+02 -0.42014152629E+02 -0.24474344265E+03  0.28191982132E+03  0.12509000000E+03 0.  0.
         25    1    3    3    0    0 -0.43374607607E+02  0.11121685308E+03 -0.20151254519E+03  0.26552845227E+03  0.12509000000E+03 0.  0.
         25    1    4    4    0    0 -0.31736019359E+01 -0.69202700446E+02 -0.14994601520E+03  0.20719652765E+03  0.12509000000E+03 0.  0.
<mgrwt>
<rscale>  2 0.46263587E+03</rscale>
<asrwt>0</asrwt>
<pdfrwt beam="1">  1       21 0.11650206E-01 0.46263587E+03</pdfrwt>
<pdfrwt beam="2">  1       21 0.99326972E-01 0.46263587E+03</pdfrwt>
<totfact> 0.47141349E+04</totfact>
</mgrwt>
</event>
<event>
 6    0  0.4725730E-002  0.4523350E+03  0.7546771E-02  0.1027028E+00
         21   -1    0    0  502  501  0.00000000000E+00  0.00000000000E+00  0.20146935047E+03  0.20146935047E+03  0.00000000000E+00 0.  1.
         21   -1    0    0  501  502 -0.00000000000E+00 -0.00000000000E+00 -0.25389334356E+03  0.25389334356E+03  0.00000000000E+00 0.  1.
      99926    2    1    2    0    0  0.00000000000E+00 -0.42188474936E-14 -0.52423993084E+02  0.45536269403E+03  0.45233495118E+03 0.  0.
         25    1    3    3    0    0  0.82638649574E+02 -0.19570253404E+01 -0.58643171393E+02  0.16099536019E+03  0.12509000000E+03 0.  0.
         25    1    3    3    0    0 -0.51571277451E+02 -0.63816893728E+02  0.33953310187E+01  0.14963699060E+03  0.12509000000E+03 0.  0.
         25    1    3    3    0    0 -0.31067372123E+02  0.65773919068E+02  0.28238472906E+01  0.14473034324E+03  0.12509000000E+03 0.  0.
<mgrwt>
<rscale>  2 0.45233495E+03</rscale>
<asrwt>0</asrwt>
<pdfrwt beam="1">  1       21 0.29627846E-01 0.45233495E+03</pdfrwt>
<pdfrwt beam="2">  1       21 0.37337256E-01 0.45233495E+03</pdfrwt>
<totfact> 0.69995653E+04</totfact>
</mgrwt>
</event>
<event>
 7    0  0.4725730E-002  0.4574288E+03  0.7546771E-02  0.1025530E+00
         21   -1    0    0  502  501  0.00000000000E+00  0.00000000000E+00  0.14323480151E+03  0.14323480151E+03  0.00000000000E+00 0.  1.
         21   -1    0    0  501  502 -0.00000000000E+00 -0.00000000000E+00 -0.36520654029E+03  0.36520654029E+03  0.00000000000E+00 0.  1.
      99926    2    1    2    0    0  0.00000000000E+00  0.14210854715E-13 -0.22197173878E+03  0.50844134181E+03  0.45742884172E+03 0.  0.
      99925    2    3    3    0    0  0.65689473299E+02  0.93862669426E+02 -0.14967483965E+03  0.32405138184E+03  0.26359330954E+03 0.  0.
         25    1    4    4    0    0  0.41374630618E+02  0.33765457561E+02 -0.11702161373E+03  0.17942556218E+03  0.12509000000E+03 0.  0.
         25    1    4    4    0    0  0.24314842681E+02  0.60097211865E+02 -0.32653225916E+02  0.14462581966E+03  0.12509000000E+03 0.  0.
         25    1    3    3    0    0 -0.65689473299E+02 -0.93862669426E+02 -0.72296899130E+02  0.18438995997E+03  0.12509000000E+03 0.  0.
<mgrwt>
<rscale>  2 0.45742884E+03</rscale>
<asrwt>0</asrwt>
<pdfrwt beam="1">  1       21 0.21063942E-01 0.45742884E+03</pdfrwt>
<pdfrwt beam="2">  1       21 0.53706843E-01 0.45742884E+03</pdfrwt>
<totfact> 0.63449608E+04</totfact>
</mgrwt>
</event>
<event>
 7    0  0.4725730E-002  0.4512024E+03  0.7546771E-02  0.1027364E+00
         21   -1    0    0  502  501  0.00000000000E+00  0.00000000000E+00  0.11107882825E+03  0.11107882825E+03  0.00000000000E+00 0. -1.
         21   -1    0    0  501  502 -0.00000000000E+00 -0.00000000000E+00 -0.45819622919E+03  0.45819622919E+03  0.00000000000E+00 0. -1.
      99926    2    1    2    0    0  0.00000000000E+00  0.00000000000E+00 -0.34711740094E+03  0.56927505745E+03  0.45120239471E+03 0.  0.
      99925    2    3    3    0    0 -0.90883210076E+02 -0.41711929083E+02 -0.16261394830E+03  0.32496239908E+03  0.26297836743E+03 0.  0.
         25    1    3    3    0    0  0.90883210076E+02  0.41711929083E+02 -0.18450345264E+03  0.24431265836E+03  0.12509000000E+03 0.  0.
         25    1    4    4    0    0 -0.87828018930E+02 -0.17380200151E+02 -0.91941778070E+02  0.17921113504E+03  0.12509000000E+03 0.  0.
         25    1    4    4    0    0 -0.30551911457E+01 -0.24331728932E+02 -0.70672170235E+02  0.14575126405E+03  0.12509000000E+03 0.  0.
<mgrwt>
<rscale>  2 0.45120239E+03</rscale>
<asrwt>0</asrwt>
<pdfrwt beam="1">  1       21 0.16335122E-01 0.45120239E+03</pdfrwt>
<pdfrwt beam="2">  1       21 0.67381797E-01 0.45120239E+03</pdfrwt>
<totfact> 0.62465356E+04</totfact>
</mgrwt>
</event>
<event>
 7    0  0.4725730E-002  0.4645988E+03  0.7546771E-02  0.1023456E+00
         21   -1    0    0  502  501  0.00000000000E+00  0.00000000000E+00  0.28390568711E+03  0.28390568711E+03  0.00000000000E+00 0. -1.
         21   -1    0    0  501  502 -0.00000000000E+00 -0.00000000000E+00 -0.19007372479E+03  0.19007372479E+03  0.00000000000E+00 0. -1.
      99926    2    1    2    0    0 -0.14210854715E-13 -0.35527136788E-14  0.93831962321E+02  0.47397941189E+03  0.46459880084E+03 0.  0.
      99925    2    3    3    0    0 -0.12106324074E+03 -0.13971965288E+02  0.54233522470E+02  0.29490660935E+03  0.26301541629E+03 0.  0.
         25    1    4    4    0    0 -0.87614060700E+02 -0.14563588858E+02  0.61347229080E+02  0.16522503554E+03  0.12509000000E+03 0.  0.
         25    1    4    4    0    0 -0.33449180039E+02  0.59162356989E+00 -0.71137066104E+01  0.12968157381E+03  0.12509000000E+03 0.  0.
         25    1    3    3    0    0  0.12106324074E+03  0.13971965288E+02  0.39598439851E+02  0.17907280254E+03  0.12509000000E+03 0.  0.
<mgrwt>
<rscale>  2 0.46459880E+03</rscale>
<asrwt>0</asrwt>
<pdfrwt beam="1">  1       21 0.41750836E-01 0.46459880E+03</pdfrwt>
<pdfrwt beam="2">  1       21 0.27952018E-01 0.46459880E+03</pdfrwt>
<totfact> 0.62260852E+04</totfact>
</mgrwt>
</event>
<event>
 7    0  0.4725730E-002  0.4590280E+03  0.7546771E-02  0.1025063E+00
         21   -1    0    0  502  501  0.00000000000E+00  0.00000000000E+00  0.12448734656E+04  0.12448734656E+04  0.00000000000E+00 0.  1.
         21   -1    0    0  501  502 -0.00000000000E+00 -0.00000000000E+00 -0.42314889703E+02  0.42314889703E+02  0.00000000000E+00 0.  1.
      99926    2    1    2    0    0  0.35527136788E-14  0.00000000000E+00  0.12025585759E+04  0.12871883553E+04  0.45902803135E+03 0.  0.
      99925    2    3    3    0    0 -0.30976202789E+02 -0.60546558659E+02  0.48753547279E+03  0.55812665902E+03  0.26303824699E+03 0.  0.
         25    1    3    3    0    0  0.30976202789E+02  0.60546558659E+02  0.71502310311E+03  0.72906169628E+03  0.12509000000E+03 0.  0.
         25    1    4    4    0    0 -0.53260062215E+02 -0.15786209754E+02  0.25348083696E+03  0.28807270168E+03  0.12509000000E+03 0.  0.
         25    1    4    4    0    0  0.22283859425E+02 -0.44760348905E+02  0.23405463582E+03  0.27005395734E+03  0.12509000000E+03 0.  0.
<mgrwt>
<rscale>  2 0.45902803E+03</rscale>
<asrwt>0</asrwt>
<pdfrwt beam="1">  1       21 0.18306960E+00 0.45902803E+03</pdfrwt>
<pdfrwt beam="2">  1       21 0.62227787E-02 0.45902803E+03</pdfrwt>
<totfact> 0.28582718E+04</totfact>
</mgrwt>
</event>
<event>
 7    0  0.4725730E-002  0.4515433E+03  0.7546771E-02  0.1027263E+00
         21   -1    0    0  502  501  0.00000000000E+00  0.00000000000E+00  0.47479934730E+03  0.47479934730E+03  0.00000000000E+00 0. -1.
         21   -1    0    0  501  502 -0.00000000000E+00 -0.00000000000E+00 -0.10735656884E+03  0.10735656884E+03  0.00000000000E+00 0. -1.
      99926    2    1    2    0    0  0.00000000000E+00  0.00000000000E+00  0.36744277847E+03  0.58215591614E+03  0.45154325955E+03 0.  0.
      99925    2    3    3    0    0  0.16986262436E+02  0.84662968530E+02  0.32020082438E+03  0.42298411689E+03  0.26254646036E+03 0.  0.
         25    1    4    4    0    0  0.60033011141E+01  0.39418748389E+02  0.21956027735E+03  0.25582044648E+03  0.12509000000E+03 0.  0.
         25    1    4    4    0    0  0.10982961322E+02  0.45244220141E+02  0.10064054704E+03  0.16716367041E+03  0.12509000000E+03 0.  0.
         25    1    3    3    0    0 -0.16986262436E+02 -0.84662968530E+02  0.47241954083E+02  0.15917179925E+03  0.12509000000E+03 0.  0.
<mgrwt>
<rscale>  2 0.45154326E+03</rscale>
<asrwt>0</asrwt>
<pdfrwt beam="1">  1       21 0.69823432E-01 0.45154326E+03</pdfrwt>
<pdfrwt beam="2">  1       21 0.15787731E-01 0.45154326E+03</pdfrwt>
<totfact> 0.61452396E+04</totfact>
</mgrwt>
</event>
<event>
 7    0  0.4725730E-002  0.4364623E+03  0.7546771E-02  0.1031838E+00
         21   -1    0    0  502  501  0.00000000000E+00  0.00000000000E+00  0.24058192429E+03  0.24058192429E+03  0.00000000000E+00 0.  1.
         21   -1    0    0  501  502 -0.00000000000E+00 -0.00000000000E+00 -0.19795682484E+03  0.19795682484E+03  0.00000000000E+00 0.  1.
      99926    2    1    2    0    0  0.00000000000E+00  0.17763568394E-14  0.42625099447E+02  0.43853874913E+03  0.43646229549E+03 0.  0.
      99925    2    3    3    0    0 -0.92793566937E+02 -0.10800458204E+02  0.11578016172E+02  0.27935732609E+03  0.26301933241E+03 0.  0.
         25    1    4    4    0    0 -0.69427275469E+02  0.13277203761E+02 -0.22515617963E+02  0.14543346201E+03  0.12509000000E+03 0.  0.
         25    1    3    3    0    0  0.92793566937E+02  0.10800458204E+02  0.31047083275E+02  0.15918142304E+03  0.12509000000E+03 0.  0.
         25    1    4    4    0    0 -0.23366291468E+02 -0.24077661964E+02  0.34093634135E+02  0.13392386408E+03  0.12509000000E+03 0.  0.
<mgrwt>
<rscale>  2 0.43646230E+03</rscale>
<asrwt>0</asrwt>
<pdfrwt beam="1">  1       21 0.35379695E-01 0.43646230E+03</pdfrwt>
<pdfrwt beam="2">  1       21 0.29111298E-01 0.43646230E+03</pdfrwt>
<totfact> 0.81119112E+04</totfact>
</mgrwt>
</event>
<event>
 7    0  0.4725730E-002  0.4525050E+03  0.7546771E-02  0.1026978E+00
         21   -1    0    0  502  501  0.00000000000E+00  0.00000000000E+00  0.59560565185E+03  0.59560565185E+03  0.00000000000E+00 0. -1.
         21   -1    0    0  501  502 -0.00000000000E+00 -0.00000000000E+00 -0.85946450419E+02  0.85946450419E+02  0.00000000000E+00 0. -1.
      99926    2    1    2    0    0 -0.44408920985E-14  0.00000000000E+00  0.50965920143E+03  0.68155210226E+03  0.45250499058E+03 0.  0.
      99925    2    3    3    0    0  0.45394514374E+00  0.10557060737E+03  0.27036525906E+03  0.39163063332E+03  0.26292930692E+03 0.  0.
         25    1    3    3    0    0 -0.45394514374E+00 -0.10557060737E+03  0.23929394236E+03  0.28992146895E+03  0.12509000000E+03 0.  0.
         25    1    4    4    0    0 -0.32152341976E+02  0.51546215504E+02  0.16814585165E+03  0.21820018550E+03  0.12509000000E+03 0.  0.
         25    1    4    4    0    0  0.32606287120E+02  0.54024391862E+02  0.10221940741E+03  0.17343044781E+03  0.12509000000E+03 0.  0.
<mgrwt>
<rscale>  2 0.45250499E+03</rscale>
<asrwt>0</asrwt>
<pdfrwt beam="1">  1       21 0.87589065E-01 0.45250499E+03</pdfrwt>
<pdfrwt beam="2">  1       21 0.12639184E-01 0.45250499E+03</pdfrwt>
<totfact> 0.54988729E+04</totfact>
</mgrwt>
</event>
<event>
 7    0  0.4725730E-002  0.4536648E+03  0.7546771E-02  0.1026635E+00
         21   -1    0    0  502  501  0.00000000000E+00  0.00000000000E+00  0.12701863637E+03  0.12701863637E+03  0.00000000000E+00 0.  1.
         21   -1    0    0  501  502 -0.00000000000E+00 -0.00000000000E+00 -0.40508186989E+03  0.40508186989E+03  0.00000000000E+00 0.  1.
      99926    2    1    2    0    0  0.00000000000E+00  0.00000000000E+00 -0.27806323352E+03  0.53210050625E+03  0.45366483985E+03 0.  0.
      99925    2    3    3    0    0 -0.83623390415E+02 -0.43964215588E+02 -0.10476754787E+03  0.29842417788E+03  0.26297343436E+03 0.  0.
         25    1    4    4    0    0 -0.83287900389E+01  0.81334161444E+00 -0.61833922980E+02  0.13978902818E+03  0.12509000000E+03 0.  0.
         25    1    3    3    0    0  0.83623390415E+02  0.43964215588E+02 -0.17329568565E+03  0.23367632837E+03  0.12509000000E+03 0.  0.
         25    1    4    4    0    0 -0.75294600376E+02 -0.44777557202E+02 -0.42933624894E+02  0.15863514970E+03  0.12509000000E+03 0.  0.
<mgrwt>
<rscale>  2 0.45366484E+03</rscale>
<asrwt>0</asrwt>
<pdfrwt beam="1">  1       21 0.18679211E-01 0.45366484E+03</pdfrwt>
<pdfrwt beam="2">  1       21 0.59570864E-01 0.45366484E+03</pdfrwt>
<totfact> 0.63735969E+04</totfact>
</mgrwt>
</event>
<event>
 7    0  0.4725730E-002  0.4496470E+03  0.7546771E-02  0.1027827E+00
         21   -1    0    0  502  501  0.00000000000E+00  0.00000000000E+00  0.36746366433E+03  0.36746366433E+03  0.00000000000E+00 0.  1.
         21   -1    0    0  501  502 -0.00000000000E+00 -0.00000000000E+00 -0.13755267078E+03  0.13755267078E+03  0.00000000000E+00 0.  1.
      99926    2    1    2    0    0 -0.71054273576E-14  0.00000000000E+00  0.22991099355E+03  0.50501633510E+03  0.44964701019E+03 0.  0.
      99925    2    3    3    0    0 -0.34507572327E+02 -0.81874766713E+02  0.21459763145E+03  0.35082081918E+03  0.26292366530E+03 0.  0.
         25    1    3    3    0    0  0.34507572327E+02  0.81874766713E+02  0.15313362096E+02  0.15419551592E+03  0.12509000000E+03 0.  0.
         25    1    4    4    0    0 -0.84886579081E+00 -0.29208098013E+02  0.58206574730E+02  0.14102959620E+03  0.12509000000E+03 0.  0.
         25    1    4    4    0    0 -0.33658706536E+02 -0.52666668700E+02  0.15639105672E+03  0.20979122298E+03  0.12509000000E+03 0.  0.
<mgrwt>
<rscale>  2 0.44964701E+03</rscale>
<asrwt>0</asrwt>
<pdfrwt beam="1">  1       21 0.54038774E-01 0.44964701E+03</pdfrwt>
<pdfrwt beam="2">  1       21 0.20228334E-01 0.44964701E+03</pdfrwt>
<totfact> 0.67752707E+04</totfact>
</mgrwt>
</event>
<event>
 7    0  0.4725730E-002  0.4505999E+03  0.7546771E-02  0.1027543E+00
         21   -1    0    0  502  501  0.00000000000E+00  0.00000000000E+00  0.11854911214E+03  0.11854911214E+03  0.00000000000E+00 0. -1.
         21   -1    0    0  501  502 -0.00000000000E+00 -0.00000000000E+00 -0.42817758120E+03  0.42817758120E+03  0.00000000000E+00 0. -1.
      99926    2    1    2    0    0  0.00000000000E+00  0.00000000000E+00 -0.30962846906E+03  0.54672669334E+03  0.45059992051E+03 0.  0.
      99925    2    3    3    0    0 -0.14226576320E+02  0.44834492575E+02 -0.76360573717E+02  0.27788855189E+03  0.26301821773E+03 0.  0.
         25    1    3    3    0    0  0.14226576320E+02 -0.44834492575E+02 -0.23326789535E+03  0.26883814145E+03  0.12509000000E+03 0.  0.
         25    1    4    4    0    0 -0.12671094045E+02  0.23618710154E+02 -0.80119166971E+02  0.15094697450E+03  0.12509000000E+03 0.  0.
         25    1    4    4    0    0 -0.15554822752E+01  0.21215782421E+02  0.37585932542E+01  0.12694157740E+03  0.12509000000E+03 0.  0.
<mgrwt>
<rscale>  2 0.45059992E+03</rscale>
<asrwt>0</asrwt>
<pdfrwt beam="1">  1       21 0.17433693E-01 0.45059992E+03</pdfrwt>
<pdfrwt beam="2">  1       21 0.62967292E-01 0.45059992E+03</pdfrwt>
<totfact> 0.64292655E+04</totfact>
</mgrwt>
</event>
<event>
 7    0  0.4725730E-002  0.4520033E+03  0.7546771E-02  0.1027126E+00
         21   -1    0    0  502  501  0.00000000000E+00  0.00000000000E+00  0.20281553523E+03  0.20281553523E+03  0.00000000000E+00 0.  1.
         21   -1    0    0  501  502 -0.00000000000E+00 -0.00000000000E+00 -0.25183840469E+03  0.25183840469E+03  0.00000000000E+00 0.  1.
      99926    2    1    2    0    0  0.00000000000E+00  0.22204460493E-14 -0.49022869462E+02  0.45465393992E+03  0.45200327803E+03 0.  0.
      99925    2    3    3    0    0  0.33399147248E+02 -0.38929594484E+01  0.74685681526E+02  0.27553952995E+03  0.26308444152E+03 0.  0.
         25    1    4    4    0    0  0.25678448821E+02  0.35426047474E+02  0.51400774254E+02  0.14214054758E+03  0.12509000000E+03 0.  0.
         25    1    4    4    0    0  0.77206984268E+01 -0.39319006922E+02  0.23284907272E+02  0.13339898237E+03  0.12509000000E+03 0.  0.
         25    1    3    3    0    0 -0.33399147248E+02  0.38929594484E+01 -0.12370855099E+03  0.17911440997E+03  0.12509000000E+03 0.  0.
<mgrwt>
<rscale>  2 0.45200328E+03</rscale>
<asrwt>0</asrwt>
<pdfrwt beam="1">  1       21 0.29825814E-01 0.45200328E+03</pdfrwt>
<pdfrwt beam="2">  1       21 0.37035059E-01 0.45200328E+03</pdfrwt>
<totfact> 0.70235425E+04</totfact>
</mgrwt>
</event>
<event>
 7    0  0.4725730E-002  0.4461444E+03  0.7546771E-02  0.1028878E+00
         21   -1    0    0  502  501  0.00000000000E+00  0.00000000000E+00  0.54936068383E+02  0.54936068383E+02  0.00000000000E+00 0. -1.
         21   -1    0    0  501  502 -0.00000000000E+00 -0.00000000000E+00 -0.90580226680E+03  0.90580226680E+03  0.00000000000E+00 0. -1.
      99926    2    1    2    0    0 -0.71054273576E-14  0.14210854715E-13 -0.85086619842E+03  0.96073833519E+03  0.44614443971E+03 0.  0.
      99925    2    3    3    0    0 -0.51062674496E+02  0.90516070741E+02 -0.56630373933E+03  0.63298254651E+03  0.26299510112E+03 0.  0.
         25    1    4    4    0    0  0.94277453982E+01  0.61046113246E+02 -0.25108022020E+03  0.28723560956E+03  0.12509000000E+03 0.  0.
         25    1    4    4    0    0 -0.60490419895E+02  0.29469957495E+02 -0.31522351913E+03  0.34574693694E+03  0.12509000000E+03 0.  0.
         25    1    3    3    0    0  0.51062674496E+02 -0.90516070741E+02 -0.28456245909E+03  0.32775578868E+03  0.12509000000E+03 0.  0.
<mgrwt>
<rscale>  2 0.44614444E+03</rscale>
<asrwt>0</asrwt>
<pdfrwt beam="1">  1       21 0.80788343E-02 0.44614444E+03</pdfrwt>
<pdfrwt beam="2">  1       21 0.13320620E+00 0.44614444E+03</pdfrwt>
<totfact> 0.43654144E+04</totfact>
</mgrwt>
</event>
<event>
 7    0  0.4725730E-002  0.4588983E+03  0.7546771E-02  0.1025101E+00
         21   -1    0    0  502  501  0.00000000000E+00  0.00000000000E+00  0.26505954817E+03  0.26505954817E+03  0.00000000000E+00 0. -1.
         21   -1    0    0  501  502 -0.00000000000E+00 -0.00000000000E+00 -0.19862292547E+03  0.19862292547E+03  0.00000000000E+00 0. -1.
      99926    2    1    2    0    0  0.00000000000E+00  0.00000000000E+00  0.66436622697E+02  0.46368247364E+03  0.45889825836E+03 0.  0.
      99925    2    3    3    0    0 -0.13033804019E+02  0.11299702437E+03  0.67804112685E+02  0.29460383603E+03  0.26316499567E+03 0.  0.
         25    1    4    4    0    0  0.13679895987E+02  0.83026771007E+02  0.62270372477E+02  0.16311251223E+03  0.12509000000E+03 0.  0.
         25    1    3    3    0    0  0.13033804019E+02 -0.11299702437E+03 -0.13674899888E+01  0.16907863760E+03  0.12509000000E+03 0.  0.
         25    1    4    4    0    0 -0.26713700006E+02  0.29970253365E+02  0.55337402078E+01  0.13149132380E+03  0.12509000000E+03 0.  0.
<mgrwt>
<rscale>  2 0.45889826E+03</rscale>
<asrwt>0</asrwt>
<pdfrwt beam="1">  1       21 0.38979345E-01 0.45889826E+03</pdfrwt>
<pdfrwt beam="2">  1       21 0.29209254E-01 0.45889826E+03</pdfrwt>
<totfact> 0.65842233E+04</totfact>
</mgrwt>
</event>
<event>
 6    0  0.4725730E-002  0.4532669E+03  0.7546771E-02  0.1026752E+00
         21   -1    0    0  502  501  0.00000000000E+00  0.00000000000E+00  0.40076231477E+03  0.40076231477E+03  0.00000000000E+00 0.  1.
         21   -1    0    0  501  502 -0.00000000000E+00 -0.00000000000E+00 -0.12816254084E+03  0.12816254084E+03  0.00000000000E+00 0.  1.
      99926    2    1    2    0    0  0.14210854715E-13  0.00000000000E+00  0.27259977393E+03  0.52892485561E+03  0.45326688179E+03 0.  0.
         25    1    3    3    0    0  0.55306497052E+01  0.51295387336E+02  0.43219819542E+02  0.14204670270E+03  0.12509000000E+03 0.  0.
         25    1    3    3    0    0  0.62365636896E+02 -0.46833184839E+02  0.18738040941E+03  0.23841507041E+03  0.12509000000E+03 0.  0.
         25    1    3    3    0    0 -0.67896286601E+02 -0.44622024973E+01  0.41999544983E+02  0.14846308250E+03  0.12509000000E+03 0.  0.
<mgrwt>
<rscale>  2 0.45326688E+03</rscale>
<asrwt>0</asrwt>
<pdfrwt beam="1">  1       21 0.58935634E-01 0.45326688E+03</pdfrwt>
<pdfrwt beam="2">  1       21 0.18847433E-01 0.45326688E+03</pdfrwt>
<totfact> 0.64156144E+04</totfact>
</mgrwt>
</event>
<event>
 7    0  0.4725730E-002  0.4516164E+03  0.7546771E-02  0.1027241E+00
         21   -1    0    0  502  501  0.00000000000E+00  0.00000000000E+00  0.38000064472E+03  0.38000064472E+03  0.00000000000E+00 0.  1.
         21   -1    0    0  501  502 -0.00000000000E+00 -0.00000000000E+00 -0.13418228031E+03  0.13418228031E+03  0.00000000000E+00 0.  1.
      99926    2    1    2    0    0  0.00000000000E+00  0.00000000000E+00  0.24581836441E+03  0.51418292503E+03  0.45161644358E+03 0.  0.
      99925    2    3    3    0    0  0.43379763800E+02 -0.45339791865E+01  0.27014436276E+03  0.37949208210E+03  0.26293326677E+03 0.  0.
         25    1    4    4    0    0 -0.10204450668E+02 -0.24549015770E+02  0.11302659678E+03  0.17067309298E+03  0.12509000000E+03 0.  0.
         25    1    4    4    0    0  0.53584214469E+02  0.20015036584E+02  0.15711776598E+03  0.20881898912E+03  0.12509000000E+03 0.  0.
         25    1    3    3    0    0 -0.43379763800E+02  0.45339791865E+01 -0.24325998349E+02  0.13469084293E+03  0.12509000000E+03 0.  0.
<mgrwt>
<rscale>  2 0.45161644E+03</rscale>
<asrwt>0</asrwt>
<pdfrwt beam="1">  1       21 0.55882447E-01 0.45161644E+03</pdfrwt>
<pdfrwt beam="2">  1       21 0.19732688E-01 0.45161644E+03</pdfrwt>
<totfact> 0.66040635E+04</totfact>
</mgrwt>
</event>
<event>
 7    0  0.4725730E-002  0.4567323E+03  0.7546771E-02  0.1025733E+00
         21   -1    0    0  502  501  0.00000000000E+00  0.00000000000E+00  0.78196253286E+02  0.78196253286E+02  0.00000000000E+00 0. -1.
         21   -1    0    0  501  502 -0.00000000000E+00 -0.00000000000E+00 -0.66692567159E+03  0.66692567159E+03  0.00000000000E+00 0. -1.
      99926    2    1    2    0    0 -0.88817841970E-15  0.14210854715E-13 -0.58872941831E+03  0.74512192488E+03  0.45673225741E+03 0.  0.
      99925    2    3    3    0    0 -0.45531589572E+01  0.78860061768E+02 -0.23441061293E+03  0.36115712891E+03  0.26314728901E+03 0.  0.
         25    1    4    4    0    0  0.30148508443E+02  0.43009739482E+02 -0.85420609970E+02  0.16032142389E+03  0.12509000000E+03 0.  0.
         25    1    4    4    0    0 -0.34701667400E+02  0.35850322286E+02 -0.14899000296E+03  0.20083570502E+03  0.12509000000E+03 0.  0.
         25    1    3    3    0    0  0.45531589572E+01 -0.78860061768E+02 -0.35431880537E+03  0.38396479596E+03  0.12509000000E+03 0.  0.
<mgrwt>
<rscale>  2 0.45673226E+03</rscale>
<asrwt>0</asrwt>
<pdfrwt beam="1">  1       21 0.11499449E-01 0.45673226E+03</pdfrwt>
<pdfrwt beam="2">  1       21 0.98077305E-01 0.45673226E+03</pdfrwt>
<totfact> 0.49838549E+04</totfact>
</mgrwt>
</event>
<event>
 7    0  0.4725730E-002  0.4296457E+03  0.7546771E-02  0.1033972E+00
         21   -1    0    0  502  501  0.00000000000E+00  0.00000000000E+00  0.13909976181E+03  0.13909976181E+03  0.00000000000E+00 0. -1.
         21   -1    0    0  501  502 -0.00000000000E+00 -0.00000000000E+00 -0.33176806378E+03  0.33176806378E+03  0.00000000000E+00 0. -1.
      99926    2    1    2    0    0  0.00000000000E+00  0.00000000000E+00 -0.19266830197E+03  0.47086782560E+03  0.42964570823E+03 0.  0.
      99925    2    3    3    0    0 -0.41693071570E+02 -0.58177545719E+02 -0.69306220779E+02  0.28116107764E+03  0.26291683153E+03 0.  0.
         25    1    4    4    0    0 -0.24967515389E+02  0.65984015804E+01 -0.12443630753E+02  0.12833264501E+03  0.12509000000E+03 0.  0.
         25    1    3    3    0    0  0.41693071570E+02  0.58177545719E+02 -0.12336208119E+03  0.18970674795E+03  0.12509000000E+03 0.  0.
         25    1    4    4    0    0 -0.16725556181E+02 -0.64775947299E+02 -0.56862590026E+02  0.15282843264E+03  0.12509000000E+03 0.  0.
<mgrwt>
<rscale>  2 0.42964571E+03</rscale>
<asrwt>0</asrwt>
<pdfrwt beam="1">  1       21 0.20455848E-01 0.42964571E+03</pdfrwt>
<pdfrwt beam="2">  1       21 0.48789421E-01 0.42964571E+03</pdfrwt>
<totfact> 0.82827334E+04</totfact>
</mgrwt>
</event>
<event>
 7    0  0.4725730E-002  0.4513330E+03  0.7546771E-02  0.1027325E+00
         21   -1    0    0  502  501  0.00000000000E+00  0.00000000000E+00  0.12719615532E+03  0.12719615532E+03  0.00000000000E+00 0. -1.
         21   -1    0    0  501  502 -0.00000000000E+00 -0.00000000000E+00 -0.40036884431E+03  0.40036884431E+03  0.00000000000E+00 0. -1.
      99926    2    1    2    0    0  0.00000000000E+00  0.00000000000E+00 -0.27317268899E+03  0.52756499964E+03  0.45133303761E+03 0.  0.
      99925    2    3    3    0    0  0.19809775095E+02  0.54881205977E+02 -0.63889566417E+02  0.27686336930E+03  0.26299633953E+03 0.  0.
         25    1    3    3    0    0 -0.19809775095E+02 -0.54881205977E+02 -0.20928312257E+03  0.25070163033E+03  0.12509000000E+03 0.  0.
         25    1    4    4    0    0  0.15306008560E+02  0.63820114680E+02 -0.14498368676E+02  0.14200349196E+03  0.12509000000E+03 0.  0.
         25    1    4    4    0    0  0.45037665352E+01 -0.89389087035E+01 -0.49391197741E+02  0.13485987734E+03  0.12509000000E+03 0.  0.
<mgrwt>
<rscale>  2 0.45133304E+03</rscale>
<asrwt>0</asrwt>
<pdfrwt beam="1">  1       21 0.18705317E-01 0.45133304E+03</pdfrwt>
<pdfrwt beam="2">  1       21 0.58877771E-01 0.45133304E+03</pdfrwt>
<totfact> 0.65247360E+04</totfact>
</mgrwt>
</event>
<event>
 7    0  0.4725730E-002  0.4498356E+03  0.7546771E-02  0.1027771E+00
         21   -1    0    0  502  501  0.00000000000E+00  0.00000000000E+00  0.50358886906E+02  0.50358886906E+02  0.00000000000E+00 0. -1.
         21   -1    0    0  501  502 -0.00000000000E+00 -0.00000000000E+00 -0.10045498051E+04  0.10045498051E+04  0.00000000000E+00 0. -1.
      99926    2    1    2    0    0  0.00000000000E+00  0.00000000000E+00 -0.95419091815E+03  0.10549086920E+04  0.44983557007E+03 0.  0.
      99925    2    3    3    0    0  0.48423701405E+01  0.44521942122E+02 -0.83426230681E+03  0.87592257016E+03  0.26313703745E+03 0.  0.
         25    1    4    4    0    0 -0.35637937861E+01  0.40626302384E+02 -0.30812026528E+03  0.33503552506E+03  0.12509000000E+03 0.  0.
         25    1    3    3    0    0 -0.48423701405E+01 -0.44521942122E+02 -0.11992861133E+03  0.17898612180E+03  0.12509000000E+03 0.  0.
         25    1    4    4    0    0  0.84061639266E+01  0.38956397379E+01 -0.52614204153E+03  0.54088704511E+03  0.12509000000E+03 0.  0.
<mgrwt>
<rscale>  2 0.44983557E+03</rscale>
<asrwt>0</asrwt>
<pdfrwt beam="1">  1       21 0.74057186E-02 0.44983557E+03</pdfrwt>
<pdfrwt beam="2">  1       21 0.14772791E+00 0.44983557E+03</pdfrwt>
<totfact> 0.38631588E+04</totfact>
</mgrwt>
</event>
<event>
 7    0  0.4725730E-002  0.4417959E+03  0.7546771E-02  0.1030197E+00
         21   -1    0    0  502  501  0.00000000000E+00  0.00000000000E+00  0.49367422204E+03  0.49367422204E+03  0.00000000000E+00 0. -1.
         21   -1    0    0  501  502 -0.00000000000E+00 -0.00000000000E+00 -0.98842311429E+02  0.98842311429E+02  0.00000000000E+00 0. -1.
      99926    2    1    2    0    0  0.00000000000E+00  0.00000000000E+00  0.39483191061E+03  0.59251653347E+03  0.44179588590E+03 0.  0.
      99925    2    3    3    0    0 -0.94948095595E+02 -0.23933786500E+02  0.22285938737E+03  0.35840112637E+03  0.26305340493E+03 0.  0.
         25    1    4    4    0    0 -0.85609598385E+02 -0.32196581211E+02  0.12489132880E+03  0.19902506196E+03  0.12509000000E+03 0.  0.
         25    1    4    4    0    0 -0.93384972099E+01  0.82627947112E+01  0.97968058572E+02  0.15937606441E+03  0.12509000000E+03 0.  0.
         25    1    3    3    0    0  0.94948095595E+02  0.23933786500E+02  0.17197252324E+03  0.23411540710E+03  0.12509000000E+03 0.  0.
<mgrwt>
<rscale>  2 0.44179589E+03</rscale>
<asrwt>0</asrwt>
<pdfrwt beam="1">  1       21 0.72599149E-01 0.44179589E+03</pdfrwt>
<pdfrwt beam="2">  1       21 0.14535634E-01 0.44179589E+03</pdfrwt>
<totfact> 0.65736759E+04</totfact>
</mgrwt>
</event>
<event>
 7    0  0.4725730E-002  0.4557052E+03  0.7546771E-02  0.1026034E+00
         21   -1    0    0  502  501  0.00000000000E+00  0.00000000000E+00  0.18594348681E+03  0.18594348681E+03  0.00000000000E+00 0.  1.
         21   -1    0    0  501  502 -0.00000000000E+00 -0.00000000000E+00 -0.27920745355E+03  0.27920745355E+03  0.00000000000E+00 0.  1.
      99926    2    1    2    0    0 -0.35527136788E-14  0.14210854715E-13 -0.93263966732E+02  0.46515094036E+03  0.45570520057E+03 0.  0.
      99925    2    3    3    0    0  0.23518580430E+02  0.96894772989E+02 -0.25034618359E+01  0.28123058258E+03  0.26294990511E+03 0.  0.
         25    1    4    4    0    0  0.50191544809E+02  0.46383832106E+02  0.11498499745E+02  0.14300480638E+03  0.12509000000E+03 0.  0.
         25    1    3    3    0    0 -0.23518580430E+02 -0.96894772989E+02 -0.90760504896E+02  0.18392035778E+03  0.12509000000E+03 0.  0.
         25    1    4    4    0    0 -0.26672964379E+02  0.50510940883E+02 -0.14001961581E+02  0.13822577620E+03  0.12509000000E+03 0.  0.
<mgrwt>
<rscale>  2 0.45570520E+03</rscale>
<asrwt>0</asrwt>
<pdfrwt beam="1">  1       21 0.27344631E-01 0.45570520E+03</pdfrwt>
<pdfrwt beam="2">  1       21 0.41059919E-01 0.45570520E+03</pdfrwt>
<totfact> 0.67420330E+04</totfact>
</mgrwt>
</event>
<event>
 7    0  0.4725730E-002  0.4343114E+03  0.7546771E-02  0.1032507E+00
         21   -1    0    0  502  501  0.00000000000E+00  0.00000000000E+00  0.11753854907E+04  0.11753854907E+04  0.00000000000E+00 0. -1.
         21   -1    0    0  501  502 -0.00000000000E+00 -0.00000000000E+00 -0.40120111560E+02  0.40120111560E+02  0.00000000000E+00 0. -1.
      99926    2    1    2    0    0  0.71054273576E-14  0.14210854715E-13  0.11352653791E+04  0.12155056022E+04  0.43431139526E+03 0.  0.
      99925    2    3    3    0    0 -0.61355563292E+02 -0.69013816832E+02  0.71695414376E+03  0.76923302882E+03  0.26299961276E+03 0.  0.
         25    1    3    3    0    0  0.61355563292E+02  0.69013816832E+02  0.41831123536E+03  0.44627257342E+03  0.12509000000E+03 0.  0.
         25    1    4    4    0    0 -0.27658718261E+02  0.54473216096E+01  0.36519938976E+03  0.38705655968E+03  0.12509000000E+03 0.  0.
         25    1    4    4    0    0 -0.33696845031E+02 -0.74461138442E+02  0.35175475401E+03  0.38217646915E+03  0.12509000000E+03 0.  0.
<mgrwt>
<rscale>  2 0.43431140E+03</rscale>
<asrwt>0</asrwt>
<pdfrwt beam="1">  1       21 0.17285079E+00 0.43431140E+03</pdfrwt>
<pdfrwt beam="2">  1       21 0.59000171E-02 0.43431140E+03</pdfrwt>
<totfact> 0.37329275E+04</totfact>
</mgrwt>
</event>
<event>
 7    0  0.4725730E-002  0.4526732E+03  0.7546771E-02  0.1026928E+00
         21   -1    0    0  502  501  0.00000000000E+00  0.00000000000E+00  0.62887905682E+03  0.62887905682E+03  0.00000000000E+00 0.  1.
         21   -1    0    0  501  502 -0.00000000000E+00 -0.00000000000E+00 -0.81459625178E+02  0.81459625178E+02  0.00000000000E+00 0.  1.
      99926    2    1    2    0    0  0.00000000000E+00 -0.14210854715E-13  0.54741943164E+03  0.71033868200E+03  0.45267318123E+03 0.  0.
      99925    2    3    3    0    0  0.70184273109E+02  0.80901639941E+02  0.39045210817E+03  0.48283669019E+03  0.26307320861E+03 0.  0.
         25    1    4    4    0    0  0.38310288734E+01  0.21996368523E+02  0.13918019201E+03  0.18845994523E+03  0.12509000000E+03 0.  0.
         25    1    3    3    0    0 -0.70184273109E+02 -0.80901639941E+02  0.15696732347E+03  0.22750199180E+03  0.12509000000E+03 0.  0.
         25    1    4    4    0    0  0.66353244235E+02  0.58905271417E+02  0.25127191616E+03  0.29437674496E+03  0.12509000000E+03 0.  0.
<mgrwt>
<rscale>  2 0.45267318E+03</rscale>
<asrwt>0</asrwt>
<pdfrwt beam="1">  1       21 0.92482212E-01 0.45267318E+03</pdfrwt>
<pdfrwt beam="2">  1       21 0.11979357E-01 0.45267318E+03</pdfrwt>
<totfact> 0.53314552E+04</totfact>
</mgrwt>
</event>
<event>
 7    0  0.4725730E-002  0.4528557E+03  0.7546771E-02  0.1026874E+00
         21   -1    0    0  502  501  0.00000000000E+00  0.00000000000E+00  0.23538503931E+03  0.23538503931E+03  0.00000000000E+00 0.  1.
         21   -1    0    0  501  502 -0.00000000000E+00 -0.00000000000E+00 -0.21781149577E+03  0.21781149577E+03  0.00000000000E+00 0.  1.
      99926    2    1    2    0    0  0.00000000000E+00  0.35527136788E-14  0.17573543540E+02  0.45319653509E+03  0.45285568339E+03 0.  0.
      99925    2    3    3    0    0 -0.30410906536E+02  0.27823507225E+02 -0.92281654301E+02  0.28168955744E+03  0.26293370316E+03 0.  0.
         25    1    4    4    0    0  0.18637696186E+02 -0.91105641074E+01 -0.43993871266E+02  0.13421376571E+03  0.12509000000E+03 0.  0.
         25    1    3    3    0    0  0.30410906536E+02 -0.27823507225E+02  0.10985519784E+03  0.17150697765E+03  0.12509000000E+03 0.  0.
         25    1    4    4    0    0 -0.49048602722E+02  0.36934071332E+02 -0.48287783035E+02  0.14747579172E+03  0.12509000000E+03 0.  0.
<mgrwt>
<rscale>  2 0.45285568E+03</rscale>
<asrwt>0</asrwt>
<pdfrwt beam="1">  1       21 0.34615447E-01 0.45285568E+03</pdfrwt>
<pdfrwt beam="2">  1       21 0.32031102E-01 0.45285568E+03</pdfrwt>
<totfact> 0.69865858E+04</totfact>
</mgrwt>
</event>
<event>
 7    0  0.4725730E-002  0.4185800E+03  0.7546771E-02  0.1037529E+00
         21   -1    0    0  502  501  0.00000000000E+00  0.00000000000E+00  0.42951660333E+03  0.42951660333E+03  0.00000000000E+00 0. -1.
         21   -1    0    0  501  502 -0.00000000000E+00 -0.00000000000E+00 -0.10198047312E+03  0.10198047312E+03  0.00000000000E+00 0. -1.
      99926    2    1    2    0    0  0.35527136788E-14  0.00000000000E+00  0.32753613021E+03  0.53149707645E+03  0.41858001109E+03 0.  0.
      99925    2    3    3    0    0  0.18773892586E+02 -0.60882624720E+01  0.30431959065E+03  0.40274909864E+03  0.26307203807E+03 0.  0.
         25    1    4    4    0    0 -0.15695903575E+01 -0.39965742397E+02  0.17220516096E+03  0.21656834889E+03  0.12509000000E+03 0.  0.
         25    1    4    4    0    0  0.20343482943E+02  0.33877479925E+02  0.13211442969E+03  0.18618074975E+03  0.12509000000E+03 0.  0.
         25    1    3    3    0    0 -0.18773892586E+02  0.60882624720E+01  0.23216539557E+02  0.12874797782E+03  0.12509000000E+03 0.  0.
<mgrwt>
<rscale>  2 0.41858001E+03</rscale>
<asrwt>0</asrwt>
<pdfrwt beam="1">  1       21 0.63164206E-01 0.41858001E+03</pdfrwt>
<pdfrwt beam="2">  1       21 0.14997129E-01 0.41858001E+03</pdfrwt>
<totfact> 0.85115821E+04</totfact>
</mgrwt>
</event>
<event>
 7    0  0.4725730E-002  0.4424956E+03  0.7546771E-02  0.1029984E+00
         21   -1    0    0  502  501  0.00000000000E+00  0.00000000000E+00  0.50090059406E+03  0.50090059406E+03  0.00000000000E+00 0. -1.
         21   -1    0    0  501  502 -0.00000000000E+00 -0.00000000000E+00 -0.97725162889E+02  0.97725162889E+02  0.00000000000E+00 0. -1.
      99926    2    1    2    0    0  0.71054273576E-14  0.00000000000E+00  0.40317543117E+03  0.59862575694E+03  0.44249561419E+03 0.  0.
      99925    2    3    3    0    0  0.37693989940E+02  0.49907163932E+02  0.36392998915E+03  0.45336986306E+03  0.26303542316E+03 0.  0.
         25    1    4    4    0    0  0.12869209536E+02  0.49059111066E+02  0.24105679486E+03  0.27627576691E+03  0.12509000000E+03 0.  0.
         25    1    4    4    0    0  0.24824780405E+02  0.84805286653E+00  0.12287319430E+03  0.17709409615E+03  0.12509000000E+03 0.  0.
         25    1    3    3    0    0 -0.37693989940E+02 -0.49907163932E+02  0.39245442013E+02  0.14525589388E+03  0.12509000000E+03 0.  0.
<mgrwt>
<rscale>  2 0.44249561E+03</rscale>
<asrwt>0</asrwt>
<pdfrwt beam="1">  1       21 0.73661851E-01 0.44249561E+03</pdfrwt>
<pdfrwt beam="2">  1       21 0.14371348E-01 0.44249561E+03</pdfrwt>
<totfact> 0.64945527E+04</totfact>
</mgrwt>
</event>
<event>
 7    0  0.4725730E-002  0.4530308E+03  0.7546771E-02  0.1026822E+00
         21   -1    0    0  502  501  0.00000000000E+00  0.00000000000E+00  0.19498362279E+03  0.19498362279E+03  0.00000000000E+00 0. -1.
         21   -1    0    0  501  502 -0.00000000000E+00 -0.00000000000E+00 -0.26314635393E+03  0.26314635393E+03  0.00000000000E+00 0. -1.
      99926    2    1    2    0    0  0.00000000000E+00 -0.35527136788E-14 -0.68162731137E+02  0.45812997672E+03  0.45303081314E+03 0.  0.
      99925    2    3    3    0    0 -0.85644879191E+02  0.21817594641E+02  0.25562335420E+02  0.27856675952E+03  0.26293526533E+03 0.  0.
         25    1    4    4    0    0 -0.77383426391E+02 -0.10651031434E+02  0.59937006989E+01  0.14759766834E+03  0.12509000000E+03 0.  0.
         25    1    3    3    0    0  0.85644879191E+02 -0.21817594641E+02 -0.93725066557E+02  0.17956321719E+03  0.12509000000E+03 0.  0.
         25    1    4    4    0    0 -0.82614528000E+01  0.32468626075E+02  0.19568634721E+02  0.13096909119E+03  0.12509000000E+03 0.  0.
<mgrwt>
<rscale>  2 0.45303081E+03</rscale>
<asrwt>0</asrwt>
<pdfrwt beam="1">  1       21 0.28674062E-01 0.45303081E+03</pdfrwt>
<pdfrwt beam="2">  1       21 0.38697993E-01 0.45303081E+03</pdfrwt>
<totfact> 0.69400514E+04</totfact>
</mgrwt>
</event>
<event>
 7    0  0.4725730E-002  0.4540365E+03  0.7546771E-02  0.1026525E+00
         21   -1    0    0  502  501  0.00000000000E+00  0.00000000000E+00  0.53753670913E+02  0.53753670913E+02  0.00000000000E+00 0. -1.
         21   -1    0    0  501  502 -0.00000000000E+00 -0.00000000000E+00 -0.95876788291E+03  0.95876788291E+03  0.00000000000E+00 0. -1.
      99926    2    1    2    0    0  0.00000000000E+00  0.00000000000E+00 -0.90501421200E+03  0.10125215538E+04  0.45403653271E+03 0.  0.
      99925    2    3    3    0    0 -0.13510392213E+02  0.62000913562E+02 -0.36296495520E+03  0.45261839356E+03  0.26285586831E+03 0.  0.
         25    1    4    4    0    0  0.16501598273E+02  0.47103594966E+02 -0.13659764932E+03  0.19182668559E+03  0.12509000000E+03 0.  0.
         25    1    3    3    0    0  0.13510392213E+02 -0.62000913562E+02 -0.54204925679E+03  0.55990316026E+03  0.12509000000E+03 0.  0.
         25    1    4    4    0    0 -0.30011990486E+02  0.14897318596E+02 -0.22636730588E+03  0.26079170797E+03  0.12509000000E+03 0.  0.
<mgrwt>
<rscale>  2 0.45403653E+03</rscale>
<asrwt>0</asrwt>
<pdfrwt beam="1">  1       21 0.79049516E-02 0.45403653E+03</pdfrwt>
<pdfrwt beam="2">  1       21 0.14099528E+00 0.45403653E+03</pdfrwt>
<totfact> 0.38975650E+04</totfact>
</mgrwt>
</event>
<event>
 7    0  0.4725730E-002  0.4516436E+03  0.7546771E-02  0.1027233E+00
         21   -1    0    0  502  501  0.00000000000E+00  0.00000000000E+00  0.20423120723E+02  0.20423120723E+02  0.00000000000E+00 0. -1.
         21   -1    0    0  501  502 -0.00000000000E+00 -0.00000000000E+00 -0.24969491201E+04  0.24969491201E+04  0.00000000000E+00 0. -1.
      99926    2    1    2    0    0 -0.17763568394E-14  0.14210854715E-13 -0.24765259993E+04  0.25173722408E+04  0.45164363526E+03 0.  0.
      99925    2    3    3    0    0  0.12727142649E+02 -0.10285474627E+03 -0.13571551164E+04  0.13862755338E+04  0.26296153049E+03 0.  0.
         25    1    4    4    0    0 -0.90488567040E+01 -0.16424639279E+02 -0.70680106788E+03  0.71802987977E+03  0.12509000000E+03 0.  0.
         25    1    3    3    0    0 -0.12727142649E+02  0.10285474627E+03 -0.11193708829E+04  0.11310967070E+04  0.12509000000E+03 0.  0.
         25    1    4    4    0    0  0.21775999353E+02 -0.86430106991E+02 -0.65035404854E+03  0.66824565401E+03  0.12509000000E+03 0.  0.
<mgrwt>
<rscale>  2 0.45164364E+03</rscale>
<asrwt>0</asrwt>
<pdfrwt beam="1">  1       21 0.30033992E-02 0.45164364E+03</pdfrwt>
<pdfrwt beam="2">  1       21 0.36719851E+00 0.45164364E+03</pdfrwt>
<totfact> 0.71401632E+03</totfact>
</mgrwt>
</event>
<event>
 7    0  0.4725730E-002  0.4590977E+03  0.7546771E-02  0.1025043E+00
         21   -1    0    0  502  501  0.00000000000E+00  0.00000000000E+00  0.31874231248E+03  0.31874231248E+03  0.00000000000E+00 0. -1.
         21   -1    0    0  501  502 -0.00000000000E+00 -0.00000000000E+00 -0.16531434468E+03  0.16531434468E+03  0.00000000000E+00 0. -1.
      99926    2    1    2    0    0  0.00000000000E+00 -0.71054273576E-14  0.15342796780E+03  0.48405665716E+03  0.45909770859E+03 0.  0.
      99925    2    3    3    0    0  0.62817937267E+02  0.45148479772E+02  0.18978572311E+03  0.33255130102E+03  0.26189171167E+03 0.  0.
         25    1    4    4    0    0  0.34576397780E+02  0.43545075116E+02  0.58027920463E+02  0.14868237456E+03  0.12509000000E+03 0.  0.
         25    1    3    3    0    0 -0.62817937267E+02 -0.45148479772E+02 -0.36357755310E+02  0.15150535614E+03  0.12509000000E+03 0.  0.
         25    1    4    4    0    0  0.28241539487E+02  0.16034046558E+01  0.13175780265E+03  0.18386892646E+03  0.12509000000E+03 0.  0.
<mgrwt>
<rscale>  2 0.45909771E+03</rscale>
<asrwt>0</asrwt>
<pdfrwt beam="1">  1       21 0.46873870E-01 0.45909771E+03</pdfrwt>
<pdfrwt beam="2">  1       21 0.24310933E-01 0.45909771E+03</pdfrwt>
<totfact> 0.64289259E+04</totfact>
</mgrwt>
</event>
<event>
 6    0  0.4725730E-002  0.4477264E+03  0.7546771E-02  0.1028402E+00
         21   -1    0    0  502  501  0.00000000000E+00  0.00000000000E+00  0.65849603133E+03  0.65849603133E+03  0.00000000000E+00 0.  1.
         21   -1    0    0  501  502 -0.00000000000E+00 -0.00000000000E+00 -0.76104838333E+02  0.76104838333E+02  0.00000000000E+00 0.  1.
      99926    2    1    2    0    0  0.14210854715E-13  0.71054273576E-14  0.58239119299E+03  0.73460086966E+03  0.44772640756E+03 0.  0.
         25    1    3    3    0    0  0.29630623041E+02  0.52350531554E+02  0.30883479134E+03  0.33859265855E+03  0.12509000000E+03 0.  0.
         25    1    3    3    0    0 -0.66544679376E+02 -0.39875354799E+02  0.97521316927E+02  0.17656770268E+03  0.12509000000E+03 0.  0.
         25    1    3    3    0    0  0.36914056335E+02 -0.12475176755E+02  0.17603508472E+03  0.21944050844E+03  0.12509000000E+03 0.  0.
<mgrwt>
<rscale>  2 0.44772641E+03</rscale>
<asrwt>0</asrwt>
<pdfrwt beam="1">  1       21 0.96837649E-01 0.44772641E+03</pdfrwt>
<pdfrwt beam="2">  1       21 0.11191888E-01 0.44772641E+03</pdfrwt>
<totfact> 0.54092025E+04</totfact>
</mgrwt>
</event>
<event>
 7    0  0.4725730E-002  0.4545898E+03  0.7546771E-02  0.1026362E+00
         21   -1    0    0  502  501  0.00000000000E+00  0.00000000000E+00  0.17224889684E+03  0.17224889684E+03  0.00000000000E+00 0.  1.
         21   -1    0    0  501  502 -0.00000000000E+00 -0.00000000000E+00 -0.29993203355E+03  0.29993203355E+03  0.00000000000E+00 0.  1.
      99926    2    1    2    0    0  0.00000000000E+00  0.00000000000E+00 -0.12768313671E+03  0.47218093039E+03  0.45458975750E+03 0.  0.
      99925    2    3    3    0    0 -0.70667020677E+02  0.79891265859E+02 -0.11850335557E+03  0.30753519357E+03  0.26297986202E+03 0.  0.
         25    1    4    4    0    0 -0.48262084462E+02  0.76181929428E+02 -0.44815315305E+02  0.16058902750E+03  0.12509000000E+03 0.  0.
         25    1    3    3    0    0  0.70667020677E+02 -0.79891265859E+02 -0.91797811400E+01  0.16464573682E+03  0.12509000000E+03 0.  0.
         25    1    4    4    0    0 -0.22404936214E+02  0.37093364311E+01 -0.73688040266E+02  0.14694616607E+03  0.12509000000E+03 0.  0.
<mgrwt>
<rscale>  2 0.45458976E+03</rscale>
<asrwt>0</asrwt>
<pdfrwt beam="1">  1       21 0.25330720E-01 0.45458976E+03</pdfrwt>
<pdfrwt beam="2">  1       21 0.44107652E-01 0.45458976E+03</pdfrwt>
<totfact> 0.67493314E+04</totfact>
</mgrwt>
</event>
<event>
 7    0  0.4725730E-002  0.4852326E+03  0.7546771E-02  0.1017707E+00
         21   -1    0    0  502  501  0.00000000000E+00  0.00000000000E+00  0.24680048333E+03  0.24680048333E+03  0.00000000000E+00 0. -1.
         21   -1    0    0  501  502 -0.00000000000E+00 -0.00000000000E+00 -0.23850305248E+03  0.23850305248E+03  0.00000000000E+00 0. -1.
      99926    2    1    2    0    0  0.00000000000E+00  0.00000000000E+00  0.82974308464E+01  0.48530353581E+03  0.48523259836E+03 0.  0.
      99925    2    3    3    0    0 -0.74421677174E+02  0.15341180195E+02  0.12222004236E+03  0.29983168523E+03  0.26303490808E+03 0.  0.
         25    1    4    4    0    0 -0.36119937352E+02 -0.42756059913E+01  0.10318226635E+03  0.16618369015E+03  0.12509000000E+03 0.  0.
         25    1    4    4    0    0 -0.38301739822E+02  0.19616786186E+02  0.19037776010E+02  0.13364799508E+03  0.12509000000E+03 0.  0.
         25    1    3    3    0    0  0.74421677174E+02 -0.15341180195E+02 -0.11392261152E+03  0.18547185058E+03  0.12509000000E+03 0.  0.
<mgrwt>
<rscale>  2 0.48523260E+03</rscale>
<asrwt>0</asrwt>
<pdfrwt beam="1">  1       21 0.36294189E-01 0.48523260E+03</pdfrwt>
<pdfrwt beam="2">  1       21 0.35073978E-01 0.48523260E+03</pdfrwt>
<totfact> 0.52521009E+04</totfact>
</mgrwt>
</event>
<event>
 7    0  0.4725730E-002  0.4663075E+03  0.7546771E-02  0.1022968E+00
         21   -1    0    0  502  501  0.00000000000E+00  0.00000000000E+00  0.10281181913E+03  0.10281181913E+03  0.00000000000E+00 0. -1.
         21   -1    0    0  501  502 -0.00000000000E+00 -0.00000000000E+00 -0.52873960955E+03  0.52873960955E+03  0.00000000000E+00 0. -1.
      99926    2    1    2    0    0  0.00000000000E+00 -0.14210854715E-13 -0.42592779042E+03  0.63155142868E+03  0.46630754274E+03 0.  0.
      99925    2    3    3    0    0  0.64573303254E+02 -0.76714150902E+02 -0.36299369388E+03  0.45932198564E+03  0.26297812125E+03 0.  0.
         25    1    4    4    0    0  0.70836108980E+01 -0.60843921173E+02 -0.21847822787E+03  0.25909921737E+03  0.12509000000E+03 0.  0.
         25    1    4    4    0    0  0.57489692356E+02 -0.15870229729E+02 -0.14451546601E+03  0.20022276827E+03  0.12509000000E+03 0.  0.
         25    1    3    3    0    0 -0.64573303254E+02  0.76714150902E+02 -0.62934096537E+02  0.17222944304E+03  0.12509000000E+03 0.  0.
<mgrwt>
<rscale>  2 0.46630754E+03</rscale>
<asrwt>0</asrwt>
<pdfrwt beam="1">  1       21 0.15119385E-01 0.46630754E+03</pdfrwt>
<pdfrwt beam="2">  1       21 0.77755826E-01 0.46630754E+03</pdfrwt>
<totfact> 0.51979341E+04</totfact>
</mgrwt>
</event>
<event>
 7    0  0.4725730E-002  0.4557986E+03  0.7546771E-02  0.1026007E+00
         21   -1    0    0  502  501  0.00000000000E+00  0.00000000000E+00  0.15850299819E+04  0.15850299819E+04  0.00000000000E+00 0.  1.
         21   -1    0    0  501  502 -0.00000000000E+00 -0.00000000000E+00 -0.32767891394E+02  0.32767891394E+02  0.00000000000E+00 0.  1.
      99926    2    1    2    0    0  0.00000000000E+00  0.00000000000E+00  0.15522620905E+04  0.16177978733E+04  0.45579859721E+03 0.  0.
      99925    2    3    3    0    0  0.10293875142E+03 -0.27607511849E+02  0.11192567809E+04  0.11546567851E+04  0.26294103658E+03 0.  0.
         25    1    3    3    0    0 -0.10293875142E+03  0.27607511849E+02  0.43300530969E+03  0.46314108819E+03  0.12509000000E+03 0.  0.
         25    1    4    4    0    0  0.20417500569E+02 -0.59171242576E+00  0.61432870374E+03  0.62726747787E+03  0.12509000000E+03 0.  0.
         25    1    4    4    0    0  0.82521250855E+02 -0.27015799423E+02  0.50492807711E+03  0.52738930726E+03  0.12509000000E+03 0.  0.
<mgrwt>
<rscale>  2 0.45579860E+03</rscale>
<asrwt>0</asrwt>
<pdfrwt beam="1">  1       21 0.23309259E+00 0.45579860E+03</pdfrwt>
<pdfrwt beam="2">  1       21 0.48188086E-02 0.45579860E+03</pdfrwt>
<totfact> 0.20900670E+04</totfact>
</mgrwt>
</event>
<event>
 7    0  0.4725730E-002  0.4538133E+03  0.7546771E-02  0.1026591E+00
         21   -1    0    0  502  501  0.00000000000E+00  0.00000000000E+00  0.35039961966E+03  0.35039961966E+03  0.00000000000E+00 0. -1.
         21   -1    0    0  501  502 -0.00000000000E+00 -0.00000000000E+00 -0.14693691239E+03  0.14693691239E+03  0.00000000000E+00 0. -1.
      99926    2    1    2    0    0  0.14210854715E-13  0.00000000000E+00  0.20346270726E+03  0.49733653205E+03  0.45381334585E+03 0.  0.
      99925    2    3    3    0    0  0.80413307950E+02  0.16555180920E+02  0.44134168188E+02  0.27876511220E+03  0.26271998186E+03 0.  0.
         25    1    3    3    0    0 -0.80413307950E+02 -0.16555180920E+02  0.15932853908E+03  0.21857141985E+03  0.12509000000E+03 0.  0.
         25    1    4    4    0    0  0.28072646716E+01 -0.77538544941E+01  0.10362363511E+02  0.12578906817E+03  0.12509000000E+03 0.  0.
         25    1    4    4    0    0  0.77606043279E+02  0.24309035414E+02  0.33771804677E+02  0.15297604403E+03  0.12509000000E+03 0.  0.
<mgrwt>
<rscale>  2 0.45381335E+03</rscale>
<asrwt>0</asrwt>
<pdfrwt beam="1">  1       21 0.51529356E-01 0.45381335E+03</pdfrwt>
<pdfrwt beam="2">  1       21 0.21608370E-01 0.45381335E+03</pdfrwt>
<totfact> 0.66078451E+04</totfact>
</mgrwt>
</event>
<event>
 7    0  0.4725730E-002  0.4474972E+03  0.7546771E-02  0.1028471E+00
         21   -1    0    0  502  501  0.00000000000E+00  0.00000000000E+00  0.11356378641E+03  0.11356378641E+03  0.00000000000E+00 0.  1.
         21   -1    0    0  501  502 -0.00000000000E+00 -0.00000000000E+00 -0.44083980863E+03  0.44083980863E+03  0.00000000000E+00 0.  1.
      99926    2    1    2    0    0 -0.19984014443E-14  0.00000000000E+00 -0.32727602222E+03  0.55440359504E+03  0.44749720835E+03 0.  0.
      99925    2    3    3    0    0 -0.17463249737E+01 -0.82783029782E+02 -0.12534401369E+03  0.30284818596E+03  0.26296353797E+03 0.  0.
         25    1    4    4    0    0  0.39165680123E+02 -0.46239199216E+02 -0.58994857291E+02  0.15099640834E+03  0.12509000000E+03 0.  0.
         25    1    3    3    0    0  0.17463249737E+01  0.82783029782E+02 -0.20193200852E+03  0.25155540908E+03  0.12509000000E+03 0.  0.
         25    1    4    4    0    0 -0.40912005097E+02 -0.36543830566E+02 -0.66349156401E+02  0.15185177763E+03  0.12509000000E+03 0.  0.
<mgrwt>
<rscale>  2 0.44749721E+03</rscale>
<asrwt>0</asrwt>
<pdfrwt beam="1">  1       21 0.16700557E-01 0.44749721E+03</pdfrwt>
<pdfrwt beam="2">  1       21 0.64829383E-01 0.44749721E+03</pdfrwt>
<totfact> 0.65370932E+04</totfact>
</mgrwt>
</event>
<event>
 6    0  0.4725730E-002  0.4587197E+03  0.7546771E-02  0.1025153E+00
         21   -1    0    0  502  501  0.00000000000E+00  0.00000000000E+00  0.27406632615E+03  0.27406632615E+03  0.00000000000E+00 0.  1.
         21   -1    0    0  501  502 -0.00000000000E+00 -0.00000000000E+00 -0.19194600787E+03  0.19194600787E+03  0.00000000000E+00 0.  1.
      99926    2    1    2    0    0 -0.14210854715E-13  0.00000000000E+00  0.82120318281E+02  0.46601233402E+03  0.45871968432E+03 0.  0.
         25    1    3    3    0    0  0.85740836998E+02  0.10814256789E+02  0.84448168502E+02  0.17391791323E+03  0.12509000000E+03 0.  0.
         25    1    3    3    0    0 -0.24334343410E+02  0.40839460171E+02  0.36078323774E+02  0.13859716924E+03  0.12509000000E+03 0.  0.
         25    1    3    3    0    0 -0.61406493588E+02 -0.51653716960E+02 -0.38406173994E+02  0.15349725154E+03  0.12509000000E+03 0.  0.
<mgrwt>
<rscale>  2 0.45871968E+03</rscale>
<asrwt>0</asrwt>
<pdfrwt beam="1">  1       21 0.40303872E-01 0.45871968E+03</pdfrwt>
<pdfrwt beam="2">  1       21 0.28227354E-01 0.45871968E+03</pdfrwt>
<totfact> 0.65768713E+04</totfact>
</mgrwt>
</event>
<event>
 7    0  0.4725730E-002  0.4589829E+03  0.7546771E-02  0.1025077E+00
         21   -1    0    0  502  501  0.00000000000E+00  0.00000000000E+00  0.35589923338E+03  0.35589923338E+03  0.00000000000E+00 0.  1.
         21   -1    0    0  501  502 -0.00000000000E+00 -0.00000000000E+00 -0.14798100264E+03  0.14798100264E+03  0.00000000000E+00 0.  1.
      99926    2    1    2    0    0  0.88817841970E-15  0.00000000000E+00  0.20791823074E+03  0.50388023602E+03  0.45898289901E+03 0.  0.
      99925    2    3    3    0    0  0.63961467417E+01 -0.98402990805E+02  0.61364863428E+02  0.28743288247E+03  0.26292195832E+03 0.  0.
         25    1    4    4    0    0 -0.22945490882E+02 -0.41244451893E+02  0.60636104945E+02  0.14680546886E+03  0.12509000000E+03 0.  0.
         25    1    3    3    0    0 -0.63961467417E+01  0.98402990805E+02  0.14655336731E+03  0.21644735356E+03  0.12509000000E+03 0.  0.
         25    1    4    4    0    0  0.29341637623E+02 -0.57158538912E+02  0.72875848337E+00  0.14062741361E+03  0.12509000000E+03 0.  0.
<mgrwt>
<rscale>  2 0.45898290E+03</rscale>
<asrwt>0</asrwt>
<pdfrwt beam="1">  1       21 0.52338122E-01 0.45898290E+03</pdfrwt>
<pdfrwt beam="2">  1       21 0.21761912E-01 0.45898290E+03</pdfrwt>
<totfact> 0.62983963E+04</totfact>
</mgrwt>
</event>
<event>
 7    0  0.4725730E-002  0.4469793E+03  0.7546771E-02  0.1028627E+00
         21   -1    0    0  502  501  0.00000000000E+00  0.00000000000E+00  0.46888401406E+03  0.46888401406E+03  0.00000000000E+00 0.  1.
         21   -1    0    0  501  502 -0.00000000000E+00 -0.00000000000E+00 -0.10652445545E+03  0.10652445545E+03  0.00000000000E+00 0.  1.
      99926    2    1    2    0    0  0.71054273576E-14  0.00000000000E+00  0.36235955861E+03  0.57540846951E+03  0.44697925798E+03 0.  0.
      99925    2    3    3    0    0  0.48111419479E+02  0.92241945730E+02  0.25184902156E+03  0.37872758041E+03  0.26302730898E+03 0.  0.
         25    1    4    4    0    0  0.45514663860E+02  0.84094360931E+02  0.13790357647E+03  0.20930444493E+03  0.12509000000E+03 0.  0.
         25    1    4    4    0    0  0.25967556194E+01  0.81475847992E+01  0.11394544509E+03  0.16942313548E+03  0.12509000000E+03 0.  0.
         25    1    3    3    0    0 -0.48111419479E+02 -0.92241945730E+02  0.11051053705E+03  0.19668088910E+03  0.12509000000E+03 0.  0.
<mgrwt>
<rscale>  2 0.44697926E+03</rscale>
<asrwt>0</asrwt>
<pdfrwt beam="1">  1       21 0.68953531E-01 0.44697926E+03</pdfrwt>
<pdfrwt beam="2">  1       21 0.15665361E-01 0.44697926E+03</pdfrwt>
<totfact> 0.64193105E+04</totfact>
</mgrwt>
</event>
<event>
 7    0  0.4725730E-002  0.4626953E+03  0.7546771E-02  0.1024002E+00
         21   -1    0    0  502  501  0.00000000000E+00  0.00000000000E+00  0.15982578457E+04  0.15982578457E+04  0.00000000000E+00 0.  1.
         21   -1    0    0  501  502 -0.00000000000E+00 -0.00000000000E+00 -0.33487546497E+02  0.33487546497E+02  0.00000000000E+00 0.  1.
      99926    2    1    2    0    0 -0.14210854715E-13  0.00000000000E+00  0.15647702992E+04  0.16317453922E+04  0.46269529465E+03 0.  0.
      99925    2    3    3    0    0  0.11108358105E+03  0.42300081842E+02  0.91419308329E+03  0.95867252774E+03  0.26301171648E+03 0.  0.
         25    1    3    3    0    0 -0.11108358105E+03 -0.42300081842E+02  0.65057721596E+03  0.67307286450E+03  0.12509000000E+03 0.  0.
         25    1    4    4    0    0  0.25763072983E+02  0.43618396128E+02  0.37167758258E+03  0.39542133718E+03  0.12509000000E+03 0.  0.
         25    1    4    4    0    0  0.85320508070E+02 -0.13183142859E+01  0.54251550071E+03  0.56325119056E+03  0.12509000000E+03 0.  0.
<mgrwt>
<rscale>  2 0.46269529E+03</rscale>
<asrwt>0</asrwt>
<pdfrwt beam="1">  1       21 0.23503787E+00 0.46269529E+03</pdfrwt>
<pdfrwt beam="2">  1       21 0.49246403E-02 0.46269529E+03</pdfrwt>
<totfact> 0.19528675E+04</totfact>
</mgrwt>
</event>
<event>
 7    0  0.4725730E-002  0.4495242E+03  0.7546771E-02  0.1027864E+00
         21   -1    0    0  502  501  0.00000000000E+00  0.00000000000E+00  0.16247150246E+03  0.16247150246E+03  0.00000000000E+00 0.  1.
         21   -1    0    0  501  502 -0.00000000000E+00 -0.00000000000E+00 -0.31093460207E+03  0.31093460207E+03  0.00000000000E+00 0.  1.
      99926    2    1    2    0    0  0.00000000000E+00  0.00000000000E+00 -0.14846309961E+03  0.47340610453E+03  0.44952424614E+03 0.  0.
      99925    2    3    3    0    0 -0.83923894509E+02 -0.61679288792E+02 -0.63949065056E+02  0.29000031162E+03  0.26298886495E+03 0.  0.
         25    1    4    4    0    0 -0.60306476715E+02  0.48432717343E+01 -0.37844607685E+02  0.14401406475E+03  0.12509000000E+03 0.  0.
         25    1    3    3    0    0  0.83923894509E+02  0.61679288792E+02 -0.84514034559E+02  0.18340579291E+03  0.12509000000E+03 0.  0.
         25    1    4    4    0    0 -0.23617417794E+02 -0.66522560526E+02 -0.26104457370E+02  0.14598624688E+03  0.12509000000E+03 0.  0.
<mgrwt>
<rscale>  2 0.44952425E+03</rscale>
<asrwt>0</asrwt>
<pdfrwt beam="1">  1       21 0.23892868E-01 0.44952425E+03</pdfrwt>
<pdfrwt beam="2">  1       21 0.45725677E-01 0.44952425E+03</pdfrwt>
<totfact> 0.70184122E+04</totfact>
</mgrwt>
</event>
<event>
 7    0  0.4725730E-002  0.4557879E+03  0.7546771E-02  0.1026010E+00
         21   -1    0    0  502  501  0.00000000000E+00  0.00000000000E+00  0.13309557346E+03  0.13309557346E+03  0.00000000000E+00 0.  1.
         21   -1    0    0  501  502 -0.00000000000E+00 -0.00000000000E+00 -0.39021316157E+03  0.39021316157E+03  0.00000000000E+00 0.  1.
      99926    2    1    2    0    0  0.00000000000E+00  0.00000000000E+00 -0.25711758811E+03  0.52330873503E+03  0.45578786517E+03 0.  0.
      99925    2    3    3    0    0 -0.41409530183E+02  0.66472903795E+02 -0.25668448469E+03  0.37572454953E+03  0.26296124489E+03 0.  0.
         25    1    4    4    0    0 -0.20512125458E+02 -0.56785815514E+01 -0.99431649630E+02  0.16120531824E+03  0.12509000000E+03 0.  0.
         25    1    3    3    0    0  0.41409530183E+02 -0.66472903795E+02 -0.43310341995E+00  0.14758418549E+03  0.12509000000E+03 0.  0.
         25    1    4    4    0    0 -0.20897404725E+02  0.72151485347E+02 -0.15725283506E+03  0.21451923130E+03  0.12509000000E+03 0.  0.
<mgrwt>
<rscale>  2 0.45578787E+03</rscale>
<asrwt>0</asrwt>
<pdfrwt beam="1">  1       21 0.19572879E-01 0.45578787E+03</pdfrwt>
<pdfrwt beam="2">  1       21 0.57384288E-01 0.45578787E+03</pdfrwt>
<totfact> 0.63265626E+04</totfact>
</mgrwt>
</event>
<event>
 7    0  0.4725730E-002  0.4572378E+03  0.7546771E-02  0.1025585E+00
         21   -1    0    0  502  501  0.00000000000E+00  0.00000000000E+00  0.48999098046E+03  0.48999098046E+03  0.00000000000E+00 0.  1.
         21   -1    0    0  501  502 -0.00000000000E+00 -0.00000000000E+00 -0.10666850671E+03  0.10666850671E+03  0.00000000000E+00 0.  1.
      99926    2    1    2    0    0  0.00000000000E+00  0.00000000000E+00  0.38332247375E+03  0.59665948717E+03  0.45723782077E+03 0.  0.
      99925    2    3    3    0    0  0.28597967775E+02 -0.92509873701E+02  0.32263259539E+03  0.42722900016E+03  0.26278680803E+03 0.  0.
         25    1    4    4    0    0 -0.13067985587E+02 -0.43183435918E+02  0.11185889364E+03  0.17376852871E+03  0.12509000000E+03 0.  0.
         25    1    4    4    0    0  0.41665953362E+02 -0.49326437783E+02  0.21077370176E+03  0.25346047145E+03  0.12509000000E+03 0.  0.
         25    1    3    3    0    0 -0.28597967775E+02  0.92509873701E+02  0.60689878359E+02  0.16943048701E+03  0.12509000000E+03 0.  0.
<mgrwt>
<rscale>  2 0.45723782E+03</rscale>
<asrwt>0</asrwt>
<pdfrwt beam="1">  1       21 0.72057496E-01 0.45723782E+03</pdfrwt>
<pdfrwt beam="2">  1       21 0.15686545E-01 0.45723782E+03</pdfrwt>
<totfact> 0.57854480E+04</totfact>
</mgrwt>
</event>
<event>
 7    0  0.4725730E-002  0.4519127E+03  0.7546771E-02  0.1027153E+00
         21   -1    0    0  502  501  0.00000000000E+00  0.00000000000E+00  0.41289519194E+03  0.41289519194E+03  0.00000000000E+00 0.  1.
         21   -1    0    0  501  502 -0.00000000000E+00 -0.00000000000E+00 -0.12365429291E+03  0.12365429291E+03  0.00000000000E+00 0.  1.
      99926    2    1    2    0    0  0.00000000000E+00 -0.17763568394E-14  0.28924089903E+03  0.53654948485E+03  0.45191265972E+03 0.  0.
      99925    2    3    3    0    0 -0.10514662487E+03  0.95531092839E+01  0.14423918321E+03  0.31787145597E+03  0.26285023480E+03 0.  0.
         25    1    3    3    0    0  0.10514662487E+03 -0.95531092839E+01  0.14500171583E+03  0.21867802887E+03  0.12509000000E+03 0.  0.
         25    1    4    4    0    0 -0.41050909322E+02  0.24045460927E+02  0.32480613374E+02  0.13771659193E+03  0.12509000000E+03 0.  0.
         25    1    4    4    0    0 -0.64095715549E+02 -0.14492351643E+02  0.11175856983E+03  0.18015486405E+03  0.12509000000E+03 0.  0.
<mgrwt>
<rscale>  2 0.45191266E+03</rscale>
<asrwt>0</asrwt>
<pdfrwt beam="1">  1       21 0.60719881E-01 0.45191266E+03</pdfrwt>
<pdfrwt beam="2">  1       21 0.18184455E-01 0.45191266E+03</pdfrwt>
<totfact> 0.64321524E+04</totfact>
</mgrwt>
</event>
<event>
 7    0  0.4725730E-002  0.4603009E+03  0.7546771E-02  0.1024694E+00
         21   -1    0    0  502  501  0.00000000000E+00  0.00000000000E+00  0.70349903393E+02  0.70349903393E+02  0.00000000000E+00 0. -1.
         21   -1    0    0  501  502 -0.00000000000E+00 -0.00000000000E+00 -0.75293969113E+03  0.75293969113E+03  0.00000000000E+00 0. -1.
      99926    2    1    2    0    0  0.00000000000E+00 -0.14210854715E-13 -0.68258978774E+03  0.82328959452E+03  0.46030092128E+03 0.  0.
      99925    2    3    3    0    0 -0.16916348361E+02 -0.11556836404E+03 -0.45563400869E+03  0.53903857279E+03  0.26328316216E+03 0.  0.
         25    1    4    4    0    0  0.20943589774E+02 -0.85911291019E+02 -0.22262846019E+03  0.27024123162E+03  0.12509000000E+03 0.  0.
         25    1    4    4    0    0 -0.37859938134E+02 -0.29657073025E+02 -0.23300554849E+03  0.26879734118E+03  0.12509000000E+03 0.  0.
         25    1    3    3    0    0  0.16916348361E+02  0.11556836404E+03 -0.22695577905E+03  0.28425102173E+03  0.12509000000E+03 0.  0.
<mgrwt>
<rscale>  2 0.46030092E+03</rscale>
<asrwt>0</asrwt>
<pdfrwt beam="1">  1       21 0.10345574E-01 0.46030092E+03</pdfrwt>
<pdfrwt beam="2">  1       21 0.11072642E+00 0.46030092E+03</pdfrwt>
<totfact> 0.44767572E+04</totfact>
</mgrwt>
</event>
<event>
 7    0  0.4725730E-002  0.4530138E+03  0.7546771E-02  0.1026827E+00
         21   -1    0    0  502  501  0.00000000000E+00  0.00000000000E+00  0.32739532102E+03  0.32739532102E+03  0.00000000000E+00 0. -1.
         21   -1    0    0  501  502 -0.00000000000E+00 -0.00000000000E+00 -0.15670771317E+03  0.15670771317E+03  0.00000000000E+00 0. -1.
      99926    2    1    2    0    0  0.00000000000E+00  0.00000000000E+00  0.17068760785E+03  0.48410303419E+03  0.45301378372E+03 0.  0.
      99925    2    3    3    0    0 -0.72147799029E+02  0.63576835731E+02  0.16733868263E+03  0.32628655107E+03  0.26308432062E+03 0.  0.
         25    1    4    4    0    0 -0.13882712837E+02  0.44444800500E+02  0.11901409626E+03  0.17882934104E+03  0.12509000000E+03 0.  0.
         25    1    4    4    0    0 -0.58265086192E+02  0.19132035231E+02  0.48324586364E+02  0.14745721002E+03  0.12509000000E+03 0.  0.
         25    1    3    3    0    0  0.72147799029E+02 -0.63576835731E+02  0.33489252215E+01  0.15781648313E+03  0.12509000000E+03 0.  0.
<mgrwt>
<rscale>  2 0.45301378E+03</rscale>
<asrwt>0</asrwt>
<pdfrwt beam="1">  1       21 0.48146371E-01 0.45301378E+03</pdfrwt>
<pdfrwt beam="2">  1       21 0.23045252E-01 0.45301378E+03</pdfrwt>
<totfact> 0.67460033E+04</totfact>
</mgrwt>
</event>
<event>
 7    0  0.4725730E-002  0.4541717E+03  0.7546771E-02  0.1026485E+00
         21   -1    0    0  502  501  0.00000000000E+00  0.00000000000E+00  0.27637433825E+03  0.27637433825E+03  0.00000000000E+00 0. -1.
         21   -1    0    0  501  502 -0.00000000000E+00 -0.00000000000E+00 -0.18658747568E+03  0.18658747568E+03  0.00000000000E+00 0. -1.
      99926    2    1    2    0    0 -0.71054273576E-14  0.71054273576E-14  0.89786862567E+02  0.46296181392E+03  0.45417173014E+03 0.  0.
      99925    2    3    3    0    0 -0.34800441378E+02 -0.46618035133E+02  0.15464270589E+03  0.31052133232E+03  0.26291599309E+03 0.  0.
         25    1    4    4    0    0 -0.42639784371E+02 -0.48395104073E+02  0.57910341204E+02  0.15218854434E+03  0.12509000000E+03 0.  0.
         25    1    3    3    0    0  0.34800441378E+02  0.46618035133E+02 -0.64855843318E+02  0.15244048161E+03  0.12509000000E+03 0.  0.
         25    1    4    4    0    0  0.78393429938E+01  0.17770689395E+01  0.96732364681E+02  0.15833278798E+03  0.12509000000E+03 0.  0.
<mgrwt>
<rscale>  2 0.45417173E+03</rscale>
<asrwt>0</asrwt>
<pdfrwt beam="1">  1       21 0.40643285E-01 0.45417173E+03</pdfrwt>
<pdfrwt beam="2">  1       21 0.27439335E-01 0.45417173E+03</pdfrwt>
<totfact> 0.68411103E+04</totfact>
</mgrwt>
</event>
<event>
 7    0  0.4725730E-002  0.4173494E+03  0.7546771E-02  0.1037932E+00
         21   -1    0    0  502  501  0.00000000000E+00  0.00000000000E+00  0.26378932789E+03  0.26378932789E+03  0.00000000000E+00 0. -1.
         21   -1    0    0  501  502 -0.00000000000E+00 -0.00000000000E+00 -0.16507541884E+03  0.16507541884E+03  0.00000000000E+00 0. -1.
      99926    2    1    2    0    0  0.00000000000E+00  0.00000000000E+00  0.98713909045E+02  0.42886474673E+03  0.41734941614E+03 0.  0.
      99925    2    3    3    0    0  0.47626465665E+02 -0.30799978385E+02  0.11080919298E+03  0.29098536867E+03  0.26301499697E+03 0.  0.
         25    1    3    3    0    0 -0.47626465665E+02  0.30799978385E+02 -0.12095283931E+02  0.13787937806E+03  0.12509000000E+03 0.  0.
         25    1    4    4    0    0  0.39764415777E+02 -0.10690408694E+02  0.16238313454E+02  0.13269018247E+03  0.12509000000E+03 0.  0.
         25    1    4    4    0    0  0.78620498878E+01 -0.20109569691E+02  0.94570879521E+02  0.15829518620E+03  0.12509000000E+03 0.  0.
<mgrwt>
<rscale>  2 0.41734942E+03</rscale>
<asrwt>0</asrwt>
<pdfrwt beam="1">  1       21 0.38792548E-01 0.41734942E+03</pdfrwt>
<pdfrwt beam="2">  1       21 0.24275797E-01 0.41734942E+03</pdfrwt>
<totfact> 0.96327694E+04</totfact>
</mgrwt>
</event>
<event>
 7    0  0.4725730E-002  0.4543477E+03  0.7546771E-02  0.1026433E+00
         21   -1    0    0  502  501  0.00000000000E+00  0.00000000000E+00  0.39982686960E+03  0.39982686960E+03  0.00000000000E+00 0.  1.
         21   -1    0    0  501  502 -0.00000000000E+00 -0.00000000000E+00 -0.12907577493E+03  0.12907577493E+03  0.00000000000E+00 0.  1.
      99926    2    1    2    0    0  0.00000000000E+00  0.00000000000E+00  0.27075109467E+03  0.52890264453E+03  0.45434772160E+03 0.  0.
      99925    2    3    3    0    0  0.70738640074E+02 -0.87517519758E+02  0.17567656243E+03  0.33564130270E+03  0.26292500457E+03 0.  0.
         25    1    4    4    0    0  0.59471336530E+02 -0.74286409428E+02  0.11938891855E+03  0.19737409269E+03  0.12509000000E+03 0.  0.
         25    1    4    4    0    0  0.11267303543E+02 -0.13231110329E+02  0.56287643884E+02  0.13826721001E+03  0.12509000000E+03 0.  0.
         25    1    3    3    0    0 -0.70738640074E+02  0.87517519758E+02  0.95074532241E+02  0.19326134183E+03  0.12509000000E+03 0.  0.
<mgrwt>
<rscale>  2 0.45434772E+03</rscale>
<asrwt>0</asrwt>
<pdfrwt beam="1">  1       21 0.58798069E-01 0.45434772E+03</pdfrwt>
<pdfrwt beam="2">  1       21 0.18981732E-01 0.45434772E+03</pdfrwt>
<totfact> 0.63609109E+04</totfact>
</mgrwt>
</event>
<event>
 7    0  0.4725730E-002  0.4015292E+03  0.7546771E-02  0.1043251E+00
         21   -1    0    0  502  501  0.00000000000E+00  0.00000000000E+00  0.66811560122E+03  0.66811560122E+03  0.00000000000E+00 0.  1.
         21   -1    0    0  501  502 -0.00000000000E+00 -0.00000000000E+00 -0.60328515188E+02  0.60328515188E+02  0.00000000000E+00 0.  1.
      99926    2    1    2    0    0  0.00000000000E+00  0.00000000000E+00  0.60778708604E+03  0.72844411641E+03  0.40152918796E+03 0.  0.
      99925    2    3    3    0    0  0.45097131312E+02 -0.15106845923E+02  0.41596908857E+03  0.49455606563E+03  0.26323649322E+03 0.  0.
         25    1    3    3    0    0 -0.45097131312E+02  0.15106845923E+02  0.19181799746E+03  0.23388805078E+03  0.12509000000E+03 0.  0.
         25    1    4    4    0    0  0.47575224178E+02  0.24243291428E+02  0.19943895337E+03  0.24140120828E+03  0.12509000000E+03 0.  0.
         25    1    4    4    0    0 -0.24780928662E+01 -0.39350137350E+02  0.21653013520E+03  0.25315485736E+03  0.12509000000E+03 0.  0.
<mgrwt>
<rscale>  2 0.40152919E+03</rscale>
<asrwt>0</asrwt>
<pdfrwt beam="1">  1       21 0.98252290E-01 0.40152919E+03</pdfrwt>
<pdfrwt beam="2">  1       21 0.88718409E-02 0.40152919E+03</pdfrwt>
<totfact> 0.80131879E+04</totfact>
</mgrwt>
</event>
<event>
 6    0  0.4725730E-002  0.4566257E+03  0.7546771E-02  0.1025764E+00
         21   -1    0    0  502  501  0.00000000000E+00  0.00000000000E+00  0.71344558992E+03  0.71344558992E+03  0.00000000000E+00 0.  1.
         21   -1    0    0  501  502 -0.00000000000E+00 -0.00000000000E+00 -0.73063405469E+02  0.73063405469E+02  0.00000000000E+00 0.  1.
      99926    2    1    2    0    0  0.00000000000E+00  0.00000000000E+00  0.64038218446E+03  0.78650899539E+03  0.45662573040E+03 0.  0.
         25    1    3    3    0    0 -0.25584960127E+02 -0.63249229990E+02  0.10188530303E+03  0.17516614499E+03  0.12509000000E+03 0.  0.
         25    1    3    3    0    0  0.48251729385E+02  0.84888088757E+02  0.33033599109E+03  0.36647454497E+03  0.12509000000E+03 0.  0.
         25    1    3    3    0    0 -0.22666769258E+02 -0.21638858767E+02  0.20816089033E+03  0.24486830542E+03  0.12509000000E+03 0.  0.
<mgrwt>
<rscale>  2 0.45662573E+03</rscale>
<asrwt>0</asrwt>
<pdfrwt beam="1">  1       21 0.10491847E+00 0.45662573E+03</pdfrwt>
<pdfrwt beam="2">  1       21 0.10744619E-01 0.45662573E+03</pdfrwt>
<totfact> 0.47811318E+04</totfact>
</mgrwt>
</event>
<event>
 7    0  0.4725730E-002  0.4467549E+03  0.7546771E-02  0.1028694E+00
         21   -1    0    0  502  501  0.00000000000E+00  0.00000000000E+00  0.12932101289E+03  0.12932101289E+03  0.00000000000E+00 0. -1.
         21   -1    0    0  501  502 -0.00000000000E+00 -0.00000000000E+00 -0.38584198463E+03  0.38584198463E+03  0.00000000000E+00 0. -1.
      99926    2    1    2    0    0 -0.71054273576E-14  0.00000000000E+00 -0.25652097173E+03  0.51516299752E+03  0.44675486016E+03 0.  0.
      99925    2    3    3    0    0 -0.51045243787E+02 -0.37210402042E+02 -0.65197824741E+02  0.27800843693E+03  0.26276929753E+03 0.  0.
         25    1    3    3    0    0  0.51045243787E+02  0.37210402042E+02 -0.19132314699E+03  0.23715456059E+03  0.12509000000E+03 0.  0.
         25    1    4    4    0    0 -0.34221650815E+02  0.20748144816E+02 -0.33824283645E+02  0.13562152175E+03  0.12509000000E+03 0.  0.
         25    1    4    4    0    0 -0.16823592972E+02 -0.57958546858E+02 -0.31373541096E+02  0.14238691518E+03  0.12509000000E+03 0.  0.
<mgrwt>
<rscale>  2 0.44675486E+03</rscale>
<asrwt>0</asrwt>
<pdfrwt beam="1">  1       21 0.19017796E-01 0.44675486E+03</pdfrwt>
<pdfrwt beam="2">  1       21 0.56741469E-01 0.44675486E+03</pdfrwt>
<totfact> 0.68596599E+04</totfact>
</mgrwt>
</event>
<event>
 7    0  0.4725730E-002  0.4481041E+03  0.7546771E-02  0.1028289E+00
         21   -1    0    0  502  501  0.00000000000E+00  0.00000000000E+00  0.19692775320E+03  0.19692775320E+03  0.00000000000E+00 0. -1.
         21   -1    0    0  501  502 -0.00000000000E+00 -0.00000000000E+00 -0.25491235806E+03  0.25491235806E+03  0.00000000000E+00 0. -1.
      99926    2    1    2    0    0  0.00000000000E+00  0.00000000000E+00 -0.57984604857E+02  0.45184011126E+03  0.44810408583E+03 0.  0.
      99925    2    3    3    0    0 -0.10555898950E+02  0.65876950420E+02  0.47110499909E+02  0.27536436577E+03  0.26297325935E+03 0.  0.
         25    1    4    4    0    0  0.20074796564E+01 -0.14765036669E+01  0.44254774827E+02  0.13271097631E+03  0.12509000000E+03 0.  0.
         25    1    4    4    0    0 -0.12563378606E+02  0.67353454087E+02  0.28557250821E+01  0.14265338946E+03  0.12509000000E+03 0.  0.
         25    1    3    3    0    0  0.10555898950E+02 -0.65876950420E+02 -0.10509510477E+03  0.17647574549E+03  0.12509000000E+03 0.  0.
<mgrwt>
<rscale>  2 0.44810409E+03</rscale>
<asrwt>0</asrwt>
<pdfrwt beam="1">  1       21 0.28959964E-01 0.44810409E+03</pdfrwt>
<pdfrwt beam="2">  1       21 0.37487111E-01 0.44810409E+03</pdfrwt>
<totfact> 0.72695667E+04</totfact>
</mgrwt>
</event>
<event>
 7    0  0.4725730E-002  0.4551139E+03  0.7546771E-02  0.1026208E+00
         21   -1    0    0  502  501  0.00000000000E+00  0.00000000000E+00  0.25955651839E+03  0.25955651839E+03  0.00000000000E+00 0.  1.
         21   -1    0    0  501  502 -0.00000000000E+00 -0.00000000000E+00 -0.19950246016E+03  0.19950246016E+03  0.00000000000E+00 0.  1.
      99926    2    1    2    0    0  0.00000000000E+00  0.00000000000E+00  0.60054058236E+02  0.45905897855E+03  0.45511389330E+03 0.  0.
      99925    2    3    3    0    0  0.73565988014E+02 -0.21702613687E+02  0.12188357220E+03  0.29983160989E+03  0.26298370878E+03 0.  0.
         25    1    3    3    0    0 -0.73565988014E+02  0.21702613687E+02 -0.61829513966E+02  0.15922736866E+03  0.12509000000E+03 0.  0.
         25    1    4    4    0    0  0.25013239901E+02 -0.87468686033E+01  0.10200278948E+03  0.16356725541E+03  0.12509000000E+03 0.  0.
         25    1    4    4    0    0  0.48552748113E+02 -0.12955745084E+02  0.19880782725E+02  0.13626435448E+03  0.12509000000E+03 0.  0.
<mgrwt>
<rscale>  2 0.45511389E+03</rscale>
<asrwt>0</asrwt>
<pdfrwt beam="1">  1       21 0.38170076E-01 0.45511389E+03</pdfrwt>
<pdfrwt beam="2">  1       21 0.29338597E-01 0.45511389E+03</pdfrwt>
<totfact> 0.68187239E+04</totfact>
</mgrwt>
</event>
<event>
 7    0  0.4725730E-002  0.4420337E+03  0.7546771E-02  0.1030125E+00
         21   -1    0    0  502  501  0.00000000000E+00  0.00000000000E+00  0.21586938910E+03  0.21586938910E+03  0.00000000000E+00 0.  1.
         21   -1    0    0  501  502 -0.00000000000E+00 -0.00000000000E+00 -0.22628701854E+03  0.22628701854E+03  0.00000000000E+00 0.  1.
      99926    2    1    2    0    0  0.00000000000E+00  0.00000000000E+00 -0.10417629441E+02  0.44215640765E+03  0.44203366594E+03 0.  0.
      99925    2    3    3    0    0 -0.44448901080E+02  0.35214953642E+02  0.75657575890E+02  0.28006924949E+03  0.26362647430E+03 0.  0.
         25    1    4    4    0    0 -0.23449377914E+02 -0.24262093205E+02  0.36999843366E+02  0.13474056182E+03  0.12509000000E+03 0.  0.
         25    1    4    4    0    0 -0.20999523166E+02  0.59477046848E+02  0.38657732524E+02  0.14532868767E+03  0.12509000000E+03 0.  0.
         25    1    3    3    0    0  0.44448901080E+02 -0.35214953642E+02 -0.86075205331E+02  0.16208715816E+03  0.12509000000E+03 0.  0.
<mgrwt>
<rscale>  2 0.44203367E+03</rscale>
<asrwt>0</asrwt>
<pdfrwt beam="1">  1       21 0.31745498E-01 0.44203367E+03</pdfrwt>
<pdfrwt beam="2">  1       21 0.33277503E-01 0.44203367E+03</pdfrwt>
<totfact> 0.77178033E+04</totfact>
</mgrwt>
</event>
<event>
 7    0  0.4725730E-002  0.4621622E+03  0.7546771E-02  0.1024156E+00
         21   -1    0    0  502  501  0.00000000000E+00  0.00000000000E+00  0.84415832578E+02  0.84415832578E+02  0.00000000000E+00 0.  1.
         21   -1    0    0  501  502 -0.00000000000E+00 -0.00000000000E+00 -0.63256456382E+03  0.63256456382E+03  0.00000000000E+00 0.  1.
      99926    2    1    2    0    0  0.00000000000E+00  0.71054273576E-14 -0.54814873124E+03  0.71698039640E+03  0.46216215472E+03 0.  0.
      99925    2    3    3    0    0 -0.33586883889E+02  0.63856560398E+02 -0.19468161815E+03  0.33515288663E+03  0.26309843386E+03 0.  0.
         25    1    4    4    0    0  0.14696676098E+02  0.54772087194E+02 -0.11325351069E+03  0.17801640264E+03  0.12509000000E+03 0.  0.
         25    1    4    4    0    0 -0.48283559987E+02  0.90844732038E+01 -0.81428107454E+02  0.15713648399E+03  0.12509000000E+03 0.  0.
         25    1    3    3    0    0  0.33586883889E+02 -0.63856560398E+02 -0.35346711310E+03  0.38182750977E+03  0.12509000000E+03 0.  0.
<mgrwt>
<rscale>  2 0.46216215E+03</rscale>
<asrwt>0</asrwt>
<pdfrwt beam="1">  1       21 0.12414093E-01 0.46216215E+03</pdfrwt>
<pdfrwt beam="2">  1       21 0.93024204E-01 0.46216215E+03</pdfrwt>
<totfact> 0.49161855E+04</totfact>
</mgrwt>
</event>
<event>
 7    0  0.4725730E-002  0.4583750E+03  0.7546771E-02  0.1025254E+00
         21   -1    0    0  502  501  0.00000000000E+00  0.00000000000E+00  0.62588691322E+03  0.62588691322E+03  0.00000000000E+00 0.  1.
         21   -1    0    0  501  502 -0.00000000000E+00 -0.00000000000E+00 -0.83923955705E+02  0.83923955705E+02  0.00000000000E+00 0.  1.
      99926    2    1    2    0    0 -0.35527136788E-14  0.00000000000E+00  0.54196295752E+03  0.70981086893E+03  0.45837498004E+03 0.  0.
      99925    2    3    3    0    0  0.23563624757E+02  0.23459109654E+02  0.16752677040E+03  0.31363472053E+03  0.26305122103E+03 0.  0.
         25    1    4    4    0    0 -0.15004722568E+02  0.42064786194E+02  0.88353362723E+02  0.15952558648E+03  0.12509000000E+03 0.  0.
         25    1    4    4    0    0  0.38568347325E+02 -0.18605676539E+02  0.79173407681E+02  0.15410913405E+03  0.12509000000E+03 0.  0.
         25    1    3    3    0    0 -0.23563624757E+02 -0.23459109654E+02  0.37443618711E+03  0.39617614839E+03  0.12509000000E+03 0.  0.
<mgrwt>
<rscale>  2 0.45837498E+03</rscale>
<asrwt>0</asrwt>
<pdfrwt beam="1">  1       21 0.92042191E-01 0.45837498E+03</pdfrwt>
<pdfrwt beam="2">  1       21 0.12341759E-01 0.45837498E+03</pdfrwt>
<totfact> 0.51005601E+04</totfact>
</mgrwt>
</event>
<event>
 7    0  0.4725730E-002  0.4508393E+03  0.7546771E-02  0.1027472E+00
         21   -1    0    0  502  501  0.00000000000E+00  0.00000000000E+00  0.60829206001E+03  0.60829206001E+03  0.00000000000E+00 0.  1.
         21   -1    0    0  501  502 -0.00000000000E+00 -0.00000000000E+00 -0.83535555543E+02  0.83535555543E+02  0.00000000000E+00 0.  1.
      99926    2    1    2    0    0  0.00000000000E+00  0.00000000000E+00  0.52475650447E+03  0.69182761556E+03  0.45083928474E+03 0.  0.
      99925    2    3    3    0    0  0.57483665038E+02  0.17660645877E+02  0.47139465310E+03  0.54312904313E+03  0.26298282903E+03 0.  0.
         25    1    4    4    0    0  0.42961059292E+02  0.19614718900E+02  0.16858290337E+03  0.21516991709E+03  0.12509000000E+03 0.  0.
         25    1    4    4    0    0  0.14522605746E+02 -0.19540730230E+01  0.30281174973E+03  0.32795912604E+03  0.12509000000E+03 0.  0.
         25    1    3    3    0    0 -0.57483665038E+02 -0.17660645877E+02  0.53361851371E+02  0.14869857242E+03  0.12509000000E+03 0.  0.
<mgrwt>
<rscale>  2 0.45083928E+03</rscale>
<asrwt>0</asrwt>
<pdfrwt beam="1">  1       21 0.89454713E-01 0.45083928E+03</pdfrwt>
<pdfrwt beam="2">  1       21 0.12284641E-01 0.45083928E+03</pdfrwt>
<totfact> 0.55132563E+04</totfact>
</mgrwt>
</event>
<event>
 7    0  0.4725730E-002  0.4451859E+03  0.7546771E-02  0.1029167E+00
         21   -1    0    0  502  501  0.00000000000E+00  0.00000000000E+00  0.62198055760E+03  0.62198055760E+03  0.00000000000E+00 0.  1.
         21   -1    0    0  501  502 -0.00000000000E+00 -0.00000000000E+00 -0.79661036382E+02  0.79661036382E+02  0.00000000000E+00 0.  1.
      99926    2    1    2    0    0  0.00000000000E+00 -0.14210854715E-13  0.54231952122E+03  0.70164159399E+03  0.44518587501E+03 0.  0.
      99925    2    3    3    0    0 -0.24423231572E+02 -0.81943443026E+02  0.25185029570E+03  0.37402733732E+03  0.26297653036E+03 0.  0.
         25    1    4    4    0    0  0.54483955881E+01 -0.78591098830E+02  0.13121129515E+03  0.19766172595E+03  0.12509000000E+03 0.  0.
         25    1    3    3    0    0  0.24423231572E+02  0.81943443026E+02  0.29046922552E+03  0.32761425667E+03  0.12509000000E+03 0.  0.
         25    1    4    4    0    0 -0.29871627160E+02 -0.33523441962E+01  0.12063900055E+03  0.17636561137E+03  0.12509000000E+03 0.  0.
<mgrwt>
<rscale>  2 0.44518588E+03</rscale>
<asrwt>0</asrwt>
<pdfrwt beam="1">  1       21 0.91467727E-01 0.44518588E+03</pdfrwt>
<pdfrwt beam="2">  1       21 0.11714859E-01 0.44518588E+03</pdfrwt>
<totfact> 0.57097435E+04</totfact>
</mgrwt>
</event>
<event>
 7    0  0.4725730E-002  0.4431855E+03  0.7546771E-02  0.1029774E+00
         21   -1    0    0  502  501  0.00000000000E+00  0.00000000000E+00  0.10542083878E+03  0.10542083878E+03  0.00000000000E+00 0.  1.
         21   -1    0    0  501  502 -0.00000000000E+00 -0.00000000000E+00 -0.46578397434E+03  0.46578397434E+03  0.00000000000E+00 0.  1.
      99926    2    1    2    0    0  0.00000000000E+00 -0.71054273576E-14 -0.36036313557E+03  0.57120481312E+03  0.44318545673E+03 0.  0.
      99925    2    3    3    0    0  0.57274535594E+02  0.38382673137E+02 -0.32558778920E+03  0.42419993279E+03  0.26302960381E+03 0.  0.
         25    1    3    3    0    0 -0.57274535594E+02 -0.38382673137E+02 -0.34775346364E+02  0.14700488033E+03  0.12509000000E+03 0.  0.
         25    1    4    4    0    0  0.26250461599E+02  0.46313205338E+02 -0.21405333454E+03  0.25357511283E+03  0.12509000000E+03 0.  0.
         25    1    4    4    0    0  0.31024073995E+02 -0.79305322010E+01 -0.11153445467E+03  0.17062481996E+03  0.12509000000E+03 0.  0.
<mgrwt>
<rscale>  2 0.44318546E+03</rscale>
<asrwt>0</asrwt>
<pdfrwt beam="1">  1       21 0.15503065E-01 0.44318546E+03</pdfrwt>
<pdfrwt beam="2">  1       21 0.68497643E-01 0.44318546E+03</pdfrwt>
<totfact> 0.66483320E+04</totfact>
</mgrwt>
</event>
<event>
 7    0  0.4725730E-002  0.4580091E+03  0.7546771E-02  0.1025360E+00
         21   -1    0    0  502  501  0.00000000000E+00  0.00000000000E+00  0.47813792819E+02  0.47813792819E+02  0.00000000000E+00 0.  1.
         21   -1    0    0  501  502 -0.00000000000E+00 -0.00000000000E+00 -0.10968189290E+04  0.10968189290E+04  0.00000000000E+00 0.  1.
      99926    2    1    2    0    0  0.00000000000E+00  0.71054273576E-14 -0.10490051362E+04  0.11446327218E+04  0.45800905245E+03 0.  0.
      99925    2    3    3    0    0 -0.97499959838E+02 -0.59592678679E+02 -0.70601731577E+03  0.76208117945E+03  0.26315346165E+03 0.  0.
         25    1    4    4    0    0 -0.14174994987E+02 -0.19488904414E+02 -0.38147131873E+03  0.40217983911E+03  0.12509000000E+03 0.  0.
         25    1    3    3    0    0  0.97499959838E+02  0.59592678679E+02 -0.34298782042E+03  0.38255154238E+03  0.12509000000E+03 0.  0.
         25    1    4    4    0    0 -0.83324964851E+02 -0.40103774265E+02 -0.32454599704E+03  0.35990134034E+03  0.12509000000E+03 0.  0.
<mgrwt>
<rscale>  2 0.45800905E+03</rscale>
<asrwt>0</asrwt>
<pdfrwt beam="1">  1       21 0.70314406E-02 0.45800905E+03</pdfrwt>
<pdfrwt beam="2">  1       21 0.16129689E+00 0.45800905E+03</pdfrwt>
<totfact> 0.33177121E+04</totfact>
</mgrwt>
</event>
<event>
 7    0  0.4725730E-002  0.4661975E+03  0.7546771E-02  0.1022999E+00
         21   -1    0    0  502  501  0.00000000000E+00  0.00000000000E+00  0.83629552282E+03  0.83629552282E+03  0.00000000000E+00 0. -1.
         21   -1    0    0  501  502 -0.00000000000E+00 -0.00000000000E+00 -0.64971092391E+02  0.64971092391E+02  0.00000000000E+00 0. -1.
      99926    2    1    2    0    0  0.00000000000E+00  0.00000000000E+00  0.77132443043E+03  0.90126661521E+03  0.46619752758E+03 0.  0.
      99925    2    3    3    0    0 -0.40174918047E+02 -0.37188973275E+02  0.26704392331E+03  0.37882677970E+03  0.26305936263E+03 0.  0.
         25    1    3    3    0    0  0.40174918047E+02  0.37188973275E+02  0.50428050712E+03  0.52243983551E+03  0.12509000000E+03 0.  0.
         25    1    4    4    0    0  0.11450259240E+02 -0.11624192960E+02  0.92164794275E+02  0.15623087948E+03  0.12509000000E+03 0.  0.
         25    1    4    4    0    0 -0.51625177287E+02 -0.25564780314E+02  0.17487912904E+03  0.22259590022E+03  0.12509000000E+03 0.  0.
<mgrwt>
<rscale>  2 0.46619753E+03</rscale>
<asrwt>0</asrwt>
<pdfrwt beam="1">  1       21 0.12298463E+00 0.46619753E+03</pdfrwt>
<pdfrwt beam="2">  1       21 0.95545729E-02 0.46619753E+03</pdfrwt>
<totfact> 0.39592089E+04</totfact>
</mgrwt>
</event>
<event>
 7    0  0.4725730E-002  0.4447324E+03  0.7546771E-02  0.1029305E+00
         21   -1    0    0  502  501  0.00000000000E+00  0.00000000000E+00  0.17654098177E+03  0.17654098177E+03  0.00000000000E+00 0. -1.
         21   -1    0    0  501  502 -0.00000000000E+00 -0.00000000000E+00 -0.28008640477E+03  0.28008640477E+03  0.00000000000E+00 0. -1.
      99926    2    1    2    0    0  0.00000000000E+00  0.00000000000E+00 -0.10354542300E+03  0.45662738654E+03  0.44473240888E+03 0.  0.
      99925    2    3    3    0    0  0.46812574682E+02 -0.61280334136E+02  0.47945072346E+01  0.27405755035E+03  0.26294078631E+03 0.  0.
         25    1    3    3    0    0 -0.46812574682E+02  0.61280334136E+02 -0.10833993024E+03  0.18256983618E+03  0.12509000000E+03 0.  0.
         25    1    4    4    0    0 -0.88948342024E+01 -0.32619821564E+02  0.27120226768E+02  0.13238650095E+03  0.12509000000E+03 0.  0.
         25    1    4    4    0    0  0.55707408885E+02 -0.28660512572E+02 -0.22325719534E+02  0.14167104940E+03  0.12509000000E+03 0.  0.
<mgrwt>
<rscale>  2 0.44473241E+03</rscale>
<asrwt>0</asrwt>
<pdfrwt beam="1">  1       21 0.25961909E-01 0.44473241E+03</pdfrwt>
<pdfrwt beam="2">  1       21 0.41189177E-01 0.44473241E+03</pdfrwt>
<totfact> 0.74313909E+04</totfact>
</mgrwt>
</event>
<event>
 7    0  0.4725730E-002  0.4526277E+03  0.7546771E-02  0.1026941E+00
         21   -1    0    0  502  501  0.00000000000E+00  0.00000000000E+00  0.12321154731E+04  0.12321154731E+04  0.00000000000E+00 0.  1.
         21   -1    0    0  501  502 -0.00000000000E+00 -0.00000000000E+00 -0.41569118913E+02  0.41569118913E+02  0.00000000000E+00 0.  1.
      99926    2    1    2    0    0  0.00000000000E+00  0.00000000000E+00  0.11905463542E+04  0.12736845920E+04  0.45262768195E+03 0.  0.
      99925    2    3    3    0    0 -0.99109802385E+01 -0.51101783376E+02  0.47510189599E+03  0.54552396368E+03  0.26299232609E+03 0.  0.
         25    1    3    3    0    0  0.99109802385E+01  0.51101783376E+02  0.71544445821E+03  0.72816062835E+03  0.12509000000E+03 0.  0.
         25    1    4    4    0    0 -0.11587862905E+02 -0.14614846122E+01  0.29541679834E+03  0.32102181755E+03  0.12509000000E+03 0.  0.
         25    1    4    4    0    0  0.16768826661E+01 -0.49640298764E+02  0.17968509765E+03  0.22450214613E+03  0.12509000000E+03 0.  0.
<mgrwt>
<rscale>  2 0.45262768E+03</rscale>
<asrwt>0</asrwt>
<pdfrwt beam="1">  1       21 0.18119343E+00 0.45262768E+03</pdfrwt>
<pdfrwt beam="2">  1       21 0.61131065E-02 0.45262768E+03</pdfrwt>
<totfact> 0.30446844E+04</totfact>
</mgrwt>
</event>
<event>
 7    0  0.4725730E-002  0.4562390E+03  0.7546771E-02  0.1025878E+00
         21   -1    0    0  502  501  0.00000000000E+00  0.00000000000E+00  0.14406762233E+03  0.14406762233E+03  0.00000000000E+00 0. -1.
         21   -1    0    0  501  502 -0.00000000000E+00 -0.00000000000E+00 -0.36120884328E+03  0.36120884328E+03  0.00000000000E+00 0. -1.
      99926    2    1    2    0    0  0.88817841970E-15  0.00000000000E+00 -0.21714122095E+03  0.50527646561E+03  0.45623896903E+03 0.  0.
      99925    2    3    3    0    0  0.63630333740E+01  0.80742062888E+02 -0.22582088764E+03  0.35600284561E+03  0.26302696417E+03 0.  0.
         25    1    4    4    0    0  0.12283373915E+02  0.15450592108E+02 -0.66284335927E+02  0.14293608138E+03  0.12509000000E+03 0.  0.
         25    1    4    4    0    0 -0.59203405408E+01  0.65291470780E+02 -0.15953655171E+03  0.21306676423E+03  0.12509000000E+03 0.  0.
         25    1    3    3    0    0 -0.63630333740E+01 -0.80742062888E+02  0.86796666900E+01  0.14927362000E+03  0.12509000000E+03 0.  0.
<mgrwt>
<rscale>  2 0.45623897E+03</rscale>
<asrwt>0</asrwt>
<pdfrwt beam="1">  1       21 0.21186415E-01 0.45623897E+03</pdfrwt>
<pdfrwt beam="2">  1       21 0.53118948E-01 0.45623897E+03</pdfrwt>
<totfact> 0.64267199E+04</totfact>
</mgrwt>
</event>
<event>
 7    0  0.4725730E-002  0.4485732E+03  0.7546771E-02  0.1028148E+00
         21   -1    0    0  502  501  0.00000000000E+00  0.00000000000E+00  0.10442955426E+04  0.10442955426E+04  0.00000000000E+00 0.  1.
         21   -1    0    0  501  502 -0.00000000000E+00 -0.00000000000E+00 -0.48170723462E+02  0.48170723462E+02  0.00000000000E+00 0.  1.
      99926    2    1    2    0    0  0.17763568394E-14  0.00000000000E+00  0.99612481914E+03  0.10924662661E+04  0.44857316814E+03 0.  0.
      99925    2    3    3    0    0  0.14932947344E+02  0.11283274446E+02  0.88734103067E+03  0.92563783344E+03  0.26283262503E+03 0.  0.
         25    1    3    3    0    0 -0.14932947344E+02 -0.11283274446E+02  0.10878378847E+03  0.16682843262E+03  0.12509000000E+03 0.  0.
         25    1    4    4    0    0 -0.19052858205E+02  0.18616896261E+02  0.34414782094E+03  0.36714415560E+03  0.12509000000E+03 0.  0.
         25    1    4    4    0    0  0.33985805549E+02 -0.73336218153E+01  0.54319320973E+03  0.55849367784E+03  0.12509000000E+03 0.  0.
<mgrwt>
<rscale>  2 0.44857317E+03</rscale>
<asrwt>0</asrwt>
<pdfrwt beam="1">  1       21 0.15357286E+00 0.44857317E+03</pdfrwt>
<pdfrwt beam="2">  1       21 0.70839306E-02 0.44857317E+03</pdfrwt>
<totfact> 0.37607115E+04</totfact>
</mgrwt>
</event>
<event>
 7    0  0.4725730E-002  0.4528687E+03  0.7546771E-02  0.1026870E+00
         21   -1    0    0  502  501  0.00000000000E+00  0.00000000000E+00  0.22589954756E+03  0.22589954756E+03  0.00000000000E+00 0.  1.
         21   -1    0    0  501  502 -0.00000000000E+00 -0.00000000000E+00 -0.22697039629E+03  0.22697039629E+03  0.00000000000E+00 0.  1.
      99926    2    1    2    0    0  0.14210854715E-13  0.00000000000E+00 -0.10708487359E+01  0.45286994385E+03  0.45286867779E+03 0.  0.
      99925    2    3    3    0    0 -0.99745593162E+02 -0.46620501169E+02 -0.14300147409E+02  0.28570183407E+03  0.26324587232E+03 0.  0.
         25    1    4    4    0    0 -0.19210049089E+02 -0.15463489385E+02  0.22111165911E+02  0.12940076216E+03  0.12509000000E+03 0.  0.
         25    1    3    3    0    0  0.99745593162E+02  0.46620501169E+02  0.13229298673E+02  0.16716810978E+03  0.12509000000E+03 0.  0.
         25    1    4    4    0    0 -0.80535544073E+02 -0.31157011784E+02 -0.36411313320E+02  0.15630107191E+03  0.12509000000E+03 0.  0.
<mgrwt>
<rscale>  2 0.45286868E+03</rscale>
<asrwt>0</asrwt>
<pdfrwt beam="1">  1       21 0.33220522E-01 0.45286868E+03</pdfrwt>
<pdfrwt beam="2">  1       21 0.33377999E-01 0.45286868E+03</pdfrwt>
<totfact> 0.69882990E+04</totfact>
</mgrwt>
</event>
<event>
 7    0  0.4725730E-002  0.4552005E+03  0.7546771E-02  0.1026182E+00
         21   -1    0    0  502  501  0.00000000000E+00  0.00000000000E+00  0.30157652642E+03  0.30157652642E+03  0.00000000000E+00 0. -1.
         21   -1    0    0  501  502 -0.00000000000E+00 -0.00000000000E+00 -0.17177024316E+03  0.17177024316E+03  0.00000000000E+00 0. -1.
      99926    2    1    2    0    0  0.00000000000E+00  0.00000000000E+00  0.12980628326E+03  0.47334676958E+03  0.45520049769E+03 0.  0.
      99925    2    3    3    0    0 -0.79906545123E+02 -0.31101171030E+01 -0.18349730251E+01  0.27492384439E+03  0.26303046270E+03 0.  0.
         25    1    4    4    0    0 -0.46563910332E+02  0.18189027300E+01  0.39035949426E+02  0.13907846562E+03  0.12509000000E+03 0.  0.
         25    1    3    3    0    0  0.79906545123E+02  0.31101171030E+01  0.13164125629E+03  0.19842292519E+03  0.12509000000E+03 0.  0.
         25    1    4    4    0    0 -0.33342634792E+02 -0.49290198330E+01 -0.40870922451E+02  0.13584537877E+03  0.12509000000E+03 0.  0.
<mgrwt>
<rscale>  2 0.45520050E+03</rscale>
<asrwt>0</asrwt>
<pdfrwt beam="1">  1       21 0.44349489E-01 0.45520050E+03</pdfrwt>
<pdfrwt beam="2">  1       21 0.25260330E-01 0.45520050E+03</pdfrwt>
<totfact> 0.67080935E+04</totfact>
</mgrwt>
</event>
<event>
 7    0  0.4725730E-002  0.4709033E+03  0.7546771E-02  0.1021666E+00
         21   -1    0    0  502  501  0.00000000000E+00  0.00000000000E+00  0.35242813161E+02  0.35242813161E+02  0.00000000000E+00 0. -1.
         21   -1    0    0  501  502 -0.00000000000E+00 -0.00000000000E+00 -0.15730153088E+04  0.15730153088E+04  0.00000000000E+00 0. -1.
      99926    2    1    2    0    0  0.00000000000E+00  0.00000000000E+00 -0.15377724957E+04  0.16082581220E+04  0.47090332183E+03 0.  0.
      99925    2    3    3    0    0 -0.10195252999E+03  0.36022150418E+02 -0.72332150221E+03  0.77719263568E+03  0.26294958396E+03 0.  0.
         25    1    4    4    0    0 -0.20049234527E+02 -0.11667526172E+02 -0.33650970370E+03  0.35975601698E+03  0.12509000000E+03 0.  0.
         25    1    3    3    0    0  0.10195252999E+03 -0.36022150418E+02 -0.81445099345E+03  0.83106548630E+03  0.12509000000E+03 0.  0.
         25    1    4    4    0    0 -0.81903295464E+02  0.47689676590E+02 -0.38681179851E+03  0.41743661870E+03  0.12509000000E+03 0.  0.
<mgrwt>
<rscale>  2 0.47090332E+03</rscale>
<asrwt>0</asrwt>
<pdfrwt beam="1">  1       21 0.51827665E-02 0.47090332E+03</pdfrwt>
<pdfrwt beam="2">  1       21 0.23132579E+00 0.47090332E+03</pdfrwt>
<totfact> 0.18811485E+04</totfact>
</mgrwt>
</event>
<event>
 7    0  0.4725730E-002  0.4867889E+03  0.7546771E-02  0.1017286E+00
         21   -1    0    0  502  501  0.00000000000E+00  0.00000000000E+00  0.91777022800E+03  0.91777022800E+03  0.00000000000E+00 0.  1.
         21   -1    0    0  501  502 -0.00000000000E+00 -0.00000000000E+00 -0.64548670496E+02  0.64548670496E+02  0.00000000000E+00 0.  1.
      99926    2    1    2    0    0  0.00000000000E+00  0.00000000000E+00  0.85322155751E+03  0.98231889850E+03  0.48678885788E+03 0.  0.
      99925    2    3    3    0    0  0.46979320328E+02 -0.95536061687E+02  0.70940299870E+03  0.76399464062E+03  0.26287069200E+03 0.  0.
         25    1    3    3    0    0 -0.46979320328E+02  0.95536061687E+02  0.14381855881E+03  0.21832425788E+03  0.12509000000E+03 0.  0.
         25    1    4    4    0    0  0.52620509238E+02 -0.23052113686E+02  0.30975365723E+03  0.33896187722E+03  0.12509000000E+03 0.  0.
         25    1    4    4    0    0 -0.56411889098E+01 -0.72483948001E+02  0.39964934147E+03  0.42503276340E+03  0.12509000000E+03 0.  0.
<mgrwt>
<rscale>  2 0.48678886E+03</rscale>
<asrwt>0</asrwt>
<pdfrwt beam="1">  1       21 0.13496620E+00 0.48678886E+03</pdfrwt>
<pdfrwt beam="2">  1       21 0.94924521E-02 0.48678886E+03</pdfrwt>
<totfact> 0.31317966E+04</totfact>
</mgrwt>
</event>
<event>
 7    0  0.4725730E-002  0.4569920E+03  0.7546771E-02  0.1025657E+00
         21   -1    0    0  502  501  0.00000000000E+00  0.00000000000E+00  0.15160146513E+04  0.15160146513E+04  0.00000000000E+00 0. -1.
         21   -1    0    0  501  502 -0.00000000000E+00 -0.00000000000E+00 -0.34439264512E+02  0.34439264512E+02  0.00000000000E+00 0. -1.
      99926    2    1    2    0    0 -0.71054273576E-14  0.00000000000E+00  0.14815753868E+04  0.15504539158E+04  0.45699203311E+03 0.  0.
      99925    2    3    3    0    0  0.35152139805E+02  0.10435355203E+03  0.10439411911E+04  0.10821628375E+04  0.26294079085E+03 0.  0.
         25    1    4    4    0    0  0.36131692023E+02  0.16267887248E+02  0.52398153330E+03  0.54016136355E+03  0.12509000000E+03 0.  0.
         25    1    4    4    0    0 -0.97955221864E+00  0.88085664782E+02  0.51995965781E+03  0.54200147390E+03  0.12509000000E+03 0.  0.
         25    1    3    3    0    0 -0.35152139805E+02 -0.10435355203E+03  0.43763419570E+03  0.46829107839E+03  0.12509000000E+03 0.  0.
<mgrwt>
<rscale>  2 0.45699203E+03</rscale>
<asrwt>0</asrwt>
<pdfrwt beam="1">  1       21 0.22294329E+00 0.45699203E+03</pdfrwt>
<pdfrwt beam="2">  1       21 0.50645987E-02 0.45699203E+03</pdfrwt>
<totfact> 0.22223452E+04</totfact>
</mgrwt>
</event>
<event>
 7    0  0.4725730E-002  0.4572387E+03  0.7546771E-02  0.1025585E+00
         21   -1    0    0  502  501  0.00000000000E+00  0.00000000000E+00  0.12681570991E+03  0.12681570991E+03  0.00000000000E+00 0. -1.
         21   -1    0    0  501  502 -0.00000000000E+00 -0.00000000000E+00 -0.41214777769E+03  0.41214777769E+03  0.00000000000E+00 0. -1.
      99926    2    1    2    0    0  0.71054273576E-14  0.00000000000E+00 -0.28533206778E+03  0.53896348761E+03  0.45723872547E+03 0.  0.
      99925    2    3    3    0    0  0.42012410186E+02 -0.10445536003E+03 -0.15013716583E+03  0.32309052853E+03  0.26300257834E+03 0.  0.
         25    1    4    4    0    0 -0.81518713429E+01 -0.32878533435E+02 -0.42646824801E+02  0.13643207370E+03  0.12509000000E+03 0.  0.
         25    1    4    4    0    0  0.50164281528E+02 -0.71576826593E+02 -0.10749034103E+03  0.18665845483E+03  0.12509000000E+03 0.  0.
         25    1    3    3    0    0 -0.42012410186E+02  0.10445536003E+03 -0.13519490195E+03  0.21587295908E+03  0.12509000000E+03 0.  0.
<mgrwt>
<rscale>  2 0.45723873E+03</rscale>
<asrwt>0</asrwt>
<pdfrwt beam="1">  1       21 0.18649369E-01 0.45723873E+03</pdfrwt>
<pdfrwt beam="2">  1       21 0.60609968E-01 0.45723873E+03</pdfrwt>
<totfact> 0.61504770E+04</totfact>
</mgrwt>
</event>
<event>
 7    0  0.4725730E-002  0.4537132E+03  0.7546771E-02  0.1026620E+00
         21   -1    0    0  502  501  0.00000000000E+00  0.00000000000E+00  0.93225387338E+02  0.93225387338E+02  0.00000000000E+00 0. -1.
         21   -1    0    0  501  502 -0.00000000000E+00 -0.00000000000E+00 -0.55203746334E+03  0.55203746334E+03  0.00000000000E+00 0. -1.
      99926    2    1    2    0    0  0.00000000000E+00 -0.71054273576E-14 -0.45881207600E+03  0.64526285068E+03  0.45371315319E+03 0.  0.
      99925    2    3    3    0    0  0.51491393568E+02 -0.37196995712E+02 -0.42055811817E+03  0.49984671165E+03  0.26256927521E+03 0.  0.
         25    1    4    4    0    0  0.41343334966E+02 -0.68365014182E+01 -0.14806729999E+03  0.19831147855E+03  0.12509000000E+03 0.  0.
         25    1    3    3    0    0 -0.51491393568E+02  0.37196995712E+02 -0.38253957837E+02  0.14541613903E+03  0.12509000000E+03 0.  0.
         25    1    4    4    0    0  0.10148058602E+02 -0.30360494294E+02 -0.27249081818E+03  0.30153523310E+03  0.12509000000E+03 0.  0.
<mgrwt>
<rscale>  2 0.45371315E+03</rscale>
<asrwt>0</asrwt>
<pdfrwt beam="1">  1       21 0.13709616E-01 0.45371315E+03</pdfrwt>
<pdfrwt beam="2">  1       21 0.81181980E-01 0.45371315E+03</pdfrwt>
<totfact> 0.56547183E+04</totfact>
</mgrwt>
</event>
<event>
 7    0  0.4725730E-002  0.4026669E+03  0.7546771E-02  0.1042860E+00
         21   -1    0    0  502  501  0.00000000000E+00  0.00000000000E+00  0.34372074160E+02  0.34372074160E+02  0.00000000000E+00 0.  1.
         21   -1    0    0  501  502 -0.00000000000E+00 -0.00000000000E+00 -0.11793051462E+04  0.11793051462E+04  0.00000000000E+00 0.  1.
      99926    2    1    2    0    0 -0.35527136788E-14  0.13322676296E-14 -0.11449330720E+04  0.12136772203E+04  0.40266692907E+03 0.  0.
      99925    2    3    3    0    0  0.21998904034E+02  0.31241213590E+01 -0.62466595187E+03  0.67812227795E+03  0.26296113878E+03 0.  0.
         25    1    4    4    0    0  0.38450059151E+02 -0.22837444274E+02 -0.27294900950E+03  0.30355992126E+03  0.12509000000E+03 0.  0.
         25    1    3    3    0    0 -0.21998904034E+02 -0.31241213590E+01 -0.52026712015E+03  0.53555494239E+03  0.12509000000E+03 0.  0.
         25    1    4    4    0    0 -0.16451155117E+02  0.25961565633E+02 -0.35171694237E+03  0.37456235669E+03  0.12509000000E+03 0.  0.
<mgrwt>
<rscale>  2 0.40266693E+03</rscale>
<asrwt>0</asrwt>
<pdfrwt beam="1">  1       21 0.50547167E-02 0.40266693E+03</pdfrwt>
<pdfrwt beam="2">  1       21 0.17342723E+00 0.40266693E+03</pdfrwt>
<totfact> 0.48773200E+04</totfact>
</mgrwt>
</event>
<event>
 7    0  0.4725730E-002  0.4750880E+03  0.7546771E-02  0.1020494E+00
         21   -1    0    0  502  501  0.00000000000E+00  0.00000000000E+00  0.39450552872E+03  0.39450552872E+03  0.00000000000E+00 0. -1.
         21   -1    0    0  501  502 -0.00000000000E+00 -0.00000000000E+00 -0.14303260261E+03  0.14303260261E+03  0.00000000000E+00 0. -1.
      99926    2    1    2    0    0  0.14210854715E-13  0.00000000000E+00  0.25147292611E+03  0.53753813134E+03  0.47508800245E+03 0.  0.
      99925    2    3    3    0    0 -0.11177081769E+03 -0.29542541716E+02  0.22546146792E+03  0.36523148168E+03  0.26305072560E+03 0.  0.
         25    1    4    4    0    0 -0.55447949084E+02 -0.51936800087E+02  0.94201944228E+02  0.17405005216E+03  0.12509000000E+03 0.  0.
         25    1    4    4    0    0 -0.56322868602E+02  0.22394258371E+02  0.13125952369E+03  0.19118142952E+03  0.12509000000E+03 0.  0.
         25    1    3    3    0    0  0.11177081769E+03  0.29542541716E+02  0.26011458196E+02  0.17230664965E+03  0.12509000000E+03 0.  0.
<mgrwt>
<rscale>  2 0.47508800E+03</rscale>
<asrwt>0</asrwt>
<pdfrwt beam="1">  1       21 0.58015519E-01 0.47508800E+03</pdfrwt>
<pdfrwt beam="2">  1       21 0.21034206E-01 0.47508800E+03</pdfrwt>
<totfact> 0.53635719E+04</totfact>
</mgrwt>
</event>
<event>
 7    0  0.4725730E-002  0.4413675E+03  0.7546771E-02  0.1030328E+00
         21   -1    0    0  502  501  0.00000000000E+00  0.00000000000E+00  0.89465143815E+02  0.89465143815E+02  0.00000000000E+00 0.  1.
         21   -1    0    0  501  502 -0.00000000000E+00 -0.00000000000E+00 -0.54436074127E+03  0.54436074127E+03  0.00000000000E+00 0.  1.
      99926    2    1    2    0    0  0.17763568394E-14  0.00000000000E+00 -0.45489559745E+03  0.63382588508E+03  0.44136747504E+03 0.  0.
      99925    2    3    3    0    0 -0.14104571066E+02  0.92378369246E+02 -0.34258657277E+03  0.44148887057E+03  0.26232453366E+03 0.  0.
         25    1    4    4    0    0  0.88282366796E+01  0.54315580615E+02 -0.11776160422E+03  0.18039795894E+03  0.12509000000E+03 0.  0.
         25    1    3    3    0    0  0.14104571066E+02 -0.92378369246E+02 -0.11230902468E+03  0.19233701452E+03  0.12509000000E+03 0.  0.
         25    1    4    4    0    0 -0.22932807745E+02  0.38062788632E+02 -0.22482496855E+03  0.26109091163E+03  0.12509000000E+03 0.  0.
<mgrwt>
<rscale>  2 0.44136748E+03</rscale>
<asrwt>0</asrwt>
<pdfrwt beam="1">  1       21 0.13156638E-01 0.44136748E+03</pdfrwt>
<pdfrwt beam="2">  1       21 0.80053053E-01 0.44136748E+03</pdfrwt>
<totfact> 0.63170184E+04</totfact>
</mgrwt>
</event>
<event>
 7    0  0.4725730E-002  0.4597943E+03  0.7546771E-02  0.1024841E+00
         21   -1    0    0  502  501  0.00000000000E+00  0.00000000000E+00  0.11661325705E+03  0.11661325705E+03  0.00000000000E+00 0.  1.
         21   -1    0    0  501  502 -0.00000000000E+00 -0.00000000000E+00 -0.45323066490E+03  0.45323066490E+03  0.00000000000E+00 0.  1.
      99926    2    1    2    0    0  0.00000000000E+00  0.00000000000E+00 -0.33661740786E+03  0.56984392195E+03  0.45979431935E+03 0.  0.
      99925    2    3    3    0    0  0.17369816885E+02  0.17776283343E+02 -0.68390843649E+02  0.27284105221E+03  0.26295860033E+03 0.  0.
         25    1    4    4    0    0  0.15140834143E+02 -0.30497496952E+02 -0.41020965811E+02  0.13597635793E+03  0.12509000000E+03 0.  0.
         25    1    4    4    0    0  0.22289827427E+01  0.48273780294E+02 -0.27369877839E+02  0.13686469428E+03  0.12509000000E+03 0.  0.
         25    1    3    3    0    0 -0.17369816885E+02 -0.17776283343E+02 -0.26822656421E+03  0.29700286974E+03  0.12509000000E+03 0.  0.
<mgrwt>
<rscale>  2 0.45979432E+03</rscale>
<asrwt>0</asrwt>
<pdfrwt beam="1">  1       21 0.17149009E-01 0.45979432E+03</pdfrwt>
<pdfrwt beam="2">  1       21 0.66651565E-01 0.45979432E+03</pdfrwt>
<totfact> 0.58330773E+04</totfact>
</mgrwt>
</event>
<event>
 7    0  0.4725730E-002  0.4607002E+03  0.7546771E-02  0.1024578E+00
         21   -1    0    0  502  501  0.00000000000E+00  0.00000000000E+00  0.59565447813E+03  0.59565447813E+03  0.00000000000E+00 0.  1.
         21   -1    0    0  501  502 -0.00000000000E+00 -0.00000000000E+00 -0.89080460947E+02  0.89080460947E+02  0.00000000000E+00 0.  1.
      99926    2    1    2    0    0  0.00000000000E+00 -0.53290705182E-14  0.50657401718E+03  0.68473493907E+03  0.46070022998E+03 0.  0.
      99925    2    3    3    0    0  0.10104195138E+03 -0.12609347692E+02  0.40694528958E+03  0.49515154568E+03  0.26306294473E+03 0.  0.
         25    1    3    3    0    0 -0.10104195138E+03  0.12609347692E+02  0.99628727594E+02  0.18958339339E+03  0.12509000000E+03 0.  0.
         25    1    4    4    0    0  0.39155803344E+02  0.32300100174E+02  0.18072851865E+03  0.22558098094E+03  0.12509000000E+03 0.  0.
         25    1    4    4    0    0  0.61886148034E+02 -0.44909447866E+02  0.22621677093E+03  0.26957056474E+03  0.12509000000E+03 0.  0.
<mgrwt>
<rscale>  2 0.46070023E+03</rscale>
<asrwt>0</asrwt>
<pdfrwt beam="1">  1       21 0.87596244E-01 0.46070023E+03</pdfrwt>
<pdfrwt beam="2">  1       21 0.13100068E-01 0.46070023E+03</pdfrwt>
<totfact> 0.51393251E+04</totfact>
</mgrwt>
</event>
<event>
 7    0  0.4725730E-002  0.4558401E+03  0.7546771E-02  0.1025995E+00
         21   -1    0    0  502  501  0.00000000000E+00  0.00000000000E+00  0.42441783806E+03  0.42441783806E+03  0.00000000000E+00 0.  1.
         21   -1    0    0  501  502 -0.00000000000E+00 -0.00000000000E+00 -0.12239718353E+03  0.12239718353E+03  0.00000000000E+00 0.  1.
      99926    2    1    2    0    0  0.00000000000E+00  0.11102230246E-15  0.30202065453E+03  0.54681502159E+03  0.45584009485E+03 0.  0.
      99925    2    3    3    0    0  0.10955123168E+03  0.39554404702E+00  0.15214561313E+03  0.32295867266E+03  0.26296841604E+03 0.  0.
         25    1    4    4    0    0  0.15385404382E+02 -0.17666542179E+02  0.68280658127E+02  0.14442497622E+03  0.12509000000E+03 0.  0.
         25    1    3    3    0    0 -0.10955123168E+03 -0.39554404702E+00  0.14987504140E+03  0.22385634893E+03  0.12509000000E+03 0.  0.
         25    1    4    4    0    0  0.94165827302E+02  0.18062086226E+02  0.83864955000E+02  0.17853369645E+03  0.12509000000E+03 0.  0.
<mgrwt>
<rscale>  2 0.45584009E+03</rscale>
<asrwt>0</asrwt>
<pdfrwt beam="1">  1       21 0.62414388E-01 0.45584009E+03</pdfrwt>
<pdfrwt beam="2">  1       21 0.17999586E-01 0.45584009E+03</pdfrwt>
<totfact> 0.61666531E+04</totfact>
</mgrwt>
</event>
<event>
 7    0  0.4725730E-002  0.4473361E+03  0.7546771E-02  0.1028519E+00
         21   -1    0    0  502  501  0.00000000000E+00  0.00000000000E+00  0.10659094475E+03  0.10659094475E+03  0.00000000000E+00 0.  1.
         21   -1    0    0  501  502 -0.00000000000E+00 -0.00000000000E+00 -0.46933996069E+03  0.46933996069E+03  0.00000000000E+00 0.  1.
      99926    2    1    2    0    0  0.14210854715E-13  0.00000000000E+00 -0.36274901594E+03  0.57593090543E+03  0.44733606972E+03 0.  0.
      99925    2    3    3    0    0  0.97192022116E+02 -0.26365078929E+02 -0.27178244458E+03  0.39136700931E+03  0.26298485173E+03 0.  0.
         25    1    4    4    0    0  0.35352877004E+02 -0.46039282405E+02 -0.16189582295E+03  0.21266689217E+03  0.12509000000E+03 0.  0.
         25    1    4    4    0    0  0.61839145111E+02  0.19674203475E+02 -0.10988662163E+03  0.17870011713E+03  0.12509000000E+03 0.  0.
         25    1    3    3    0    0 -0.97192022116E+02  0.26365078929E+02 -0.90966571357E+02  0.18456389613E+03  0.12509000000E+03 0.  0.
<mgrwt>
<rscale>  2 0.44733607E+03</rscale>
<asrwt>0</asrwt>
<pdfrwt beam="1">  1       21 0.15675139E-01 0.44733607E+03</pdfrwt>
<pdfrwt beam="2">  1       21 0.69020583E-01 0.44733607E+03</pdfrwt>
<totfact> 0.63974008E+04</totfact>
</mgrwt>
</event>
<event>
 7    0  0.4725730E-002  0.4491916E+03  0.7546771E-02  0.1027963E+00
         21   -1    0    0  502  501  0.00000000000E+00  0.00000000000E+00  0.12791040977E+03  0.12791040977E+03  0.00000000000E+00 0. -1.
         21   -1    0    0  501  502 -0.00000000000E+00 -0.00000000000E+00 -0.39436407337E+03  0.39436407337E+03  0.00000000000E+00 0. -1.
      99926    2    1    2    0    0 -0.35527136788E-14 -0.14210854715E-13 -0.26645366360E+03  0.52227448314E+03  0.44919158596E+03 0.  0.
      99925    2    3    3    0    0  0.22390258208E+02  0.10082041173E+03 -0.13341178876E+03  0.31247999407E+03  0.26301893892E+03 0.  0.
         25    1    4    4    0    0  0.49995138022E+02  0.42123599349E+02 -0.76218850172E+02  0.16040801934E+03  0.12509000000E+03 0.  0.
         25    1    4    4    0    0 -0.27604879814E+02  0.58696812379E+02 -0.57192938588E+02  0.15207197473E+03  0.12509000000E+03 0.  0.
         25    1    3    3    0    0 -0.22390258208E+02 -0.10082041173E+03 -0.13304187485E+03  0.20979448907E+03  0.12509000000E+03 0.  0.
<mgrwt>
<rscale>  2 0.44919159E+03</rscale>
<asrwt>0</asrwt>
<pdfrwt beam="1">  1       21 0.18810355E-01 0.44919159E+03</pdfrwt>
<pdfrwt beam="2">  1       21 0.57994716E-01 0.44919159E+03</pdfrwt>
<totfact> 0.66753560E+04</totfact>
</mgrwt>
</event>
<event>
 6    0  0.4725730E-002  0.4549989E+03  0.7546771E-02  0.1026242E+00
         21   -1    0    0  502  501  0.00000000000E+00  0.00000000000E+00  0.30721998183E+02  0.30721998183E+02  0.00000000000E+00 0. -1.
         21   -1    0    0  501  502 -0.00000000000E+00 -0.00000000000E+00 -0.16846562618E+04  0.16846562618E+04  0.00000000000E+00 0. -1.
      99926    2    1    2    0    0 -0.14210854715E-13 -0.35527136788E-14 -0.16539342636E+04  0.17153782600E+04  0.45499893017E+03 0.  0.
         25    1    3    3    0    0 -0.82012249067E+02 -0.17341311614E+02 -0.33220906895E+03  0.36474251696E+03  0.12509000000E+03 0.  0.
         25    1    3    3    0    0  0.77582434863E+02  0.21695460843E+02 -0.82873750627E+03  0.84198758281E+03  0.12509000000E+03 0.  0.
         25    1    3    3    0    0  0.44298142047E+01 -0.43541492296E+01 -0.49298768841E+03  0.50864816022E+03  0.12509000000E+03 0.  0.
<mgrwt>
<rscale>  2 0.45499893E+03</rscale>
<asrwt>0</asrwt>
<pdfrwt beam="1">  1       21 0.45179408E-02 0.45499893E+03</pdfrwt>
<pdfrwt beam="2">  1       21 0.24774358E+00 0.45499893E+03</pdfrwt>
<totfact> 0.18943681E+04</totfact>
</mgrwt>
</event>
<event>
 7    0  0.4725730E-002  0.4570321E+03  0.7546771E-02  0.1025646E+00
         21   -1    0    0  502  501  0.00000000000E+00  0.00000000000E+00  0.85200591781E+02  0.85200591781E+02  0.00000000000E+00 0.  1.
         21   -1    0    0  501  502 -0.00000000000E+00 -0.00000000000E+00 -0.61290165078E+03  0.61290165078E+03  0.00000000000E+00 0.  1.
      99926    2    1    2    0    0  0.00000000000E+00 -0.17763568394E-14 -0.52770105900E+03  0.69810224256E+03  0.45703209231E+03 0.  0.
      99925    2    3    3    0    0  0.93428069999E+02  0.12828385309E+02 -0.23125441809E+03  0.36280910106E+03  0.26317003285E+03 0.  0.
         25    1    4    4    0    0  0.63943939563E+02 -0.30729288289E+02 -0.12242256591E+03  0.18885949621E+03  0.12509000000E+03 0.  0.
         25    1    3    3    0    0 -0.93428069999E+02 -0.12828385309E+02 -0.29644664091E+03  0.33529314150E+03  0.12509000000E+03 0.  0.
         25    1    4    4    0    0  0.29484130436E+02  0.43557673598E+02 -0.10883185218E+03  0.17394960484E+03  0.12509000000E+03 0.  0.
<mgrwt>
<rscale>  2 0.45703209E+03</rscale>
<asrwt>0</asrwt>
<pdfrwt beam="1">  1       21 0.12529499E-01 0.45703209E+03</pdfrwt>
<pdfrwt beam="2">  1       21 0.90132594E-01 0.45703209E+03</pdfrwt>
<totfact> 0.52166794E+04</totfact>
</mgrwt>
</event>
<event>
 7    0  0.4725730E-002  0.4573651E+03  0.7546771E-02  0.1025548E+00
         21   -1    0    0  502  501  0.00000000000E+00  0.00000000000E+00  0.64043479719E+03  0.64043479719E+03  0.00000000000E+00 0. -1.
         21   -1    0    0  501  502 -0.00000000000E+00 -0.00000000000E+00 -0.81656575294E+02  0.81656575294E+02  0.00000000000E+00 0. -1.
      99926    2    1    2    0    0  0.00000000000E+00  0.00000000000E+00  0.55877822190E+03  0.72209137249E+03  0.45736511558E+03 0.  0.
      99925    2    3    3    0    0 -0.55776669791E+02 -0.45370632024E+02  0.20826915370E+03  0.34304830616E+03  0.26293833656E+03 0.  0.
         25    1    3    3    0    0  0.55776669791E+02  0.45370632024E+02  0.35050906819E+03  0.37904306633E+03  0.12509000000E+03 0.  0.
         25    1    4    4    0    0 -0.51447795218E+02 -0.50240651385E+02  0.13682820903E+03  0.19884784528E+03  0.12509000000E+03 0.  0.
         25    1    4    4    0    0 -0.43288745738E+01  0.48700193611E+01  0.71440944672E+02  0.14420046088E+03  0.12509000000E+03 0.  0.
<mgrwt>
<rscale>  2 0.45736512E+03</rscale>
<asrwt>0</asrwt>
<pdfrwt beam="1">  1       21 0.94181585E-01 0.45736512E+03</pdfrwt>
<pdfrwt beam="2">  1       21 0.12008320E-01 0.45736512E+03</pdfrwt>
<totfact> 0.50768922E+04</totfact>
</mgrwt>
</event>
<event>
 7    0  0.4725730E-002  0.4578368E+03  0.7546771E-02  0.1025410E+00
         21   -1    0    0  502  501  0.00000000000E+00  0.00000000000E+00  0.13430387081E+03  0.13430387081E+03  0.00000000000E+00 0.  1.
         21   -1    0    0  501  502 -0.00000000000E+00 -0.00000000000E+00 -0.39018707713E+03  0.39018707713E+03  0.00000000000E+00 0.  1.
      99926    2    1    2    0    0 -0.14210854715E-13  0.00000000000E+00 -0.25588320631E+03  0.52449094794E+03  0.45783680411E+03 0.  0.
      99925    2    3    3    0    0 -0.94326125213E+02  0.47441967866E+02 -0.10505552652E+03  0.30190466062E+03  0.26260541167E+03 0.  0.
         25    1    3    3    0    0  0.94326125213E+02 -0.47441967866E+02 -0.15082767979E+03  0.22258628732E+03  0.12509000000E+03 0.  0.
         25    1    4    4    0    0 -0.79532540883E+02  0.39386336253E+02 -0.80866734428E+02  0.17338871180E+03  0.12509000000E+03 0.  0.
         25    1    4    4    0    0 -0.14793584330E+02  0.80556316138E+01 -0.24188792095E+02  0.12851594882E+03  0.12509000000E+03 0.  0.
<mgrwt>
<rscale>  2 0.45783680E+03</rscale>
<asrwt>0</asrwt>
<pdfrwt beam="1">  1       21 0.19750570E-01 0.45783680E+03</pdfrwt>
<pdfrwt beam="2">  1       21 0.57380451E-01 0.45783680E+03</pdfrwt>
<totfact> 0.62170945E+04</totfact>
</mgrwt>
</event>
<event>
 7    0  0.4725730E-002  0.4518999E+03  0.7546771E-02  0.1027157E+00
         21   -1    0    0  502  501  0.00000000000E+00  0.00000000000E+00  0.23404027819E+03  0.23404027819E+03  0.00000000000E+00 0.  1.
         21   -1    0    0  501  502 -0.00000000000E+00 -0.00000000000E+00 -0.21813928116E+03  0.21813928116E+03  0.00000000000E+00 0.  1.
      99926    2    1    2    0    0  0.00000000000E+00  0.00000000000E+00  0.15900997036E+02  0.45217955935E+03  0.45189989177E+03 0.  0.
      99925    2    3    3    0    0  0.61993099820E+02  0.43323097787E+02 -0.70135508063E+02  0.28256286342E+03  0.26306415010E+03 0.  0.
         25    1    3    3    0    0 -0.61993099820E+02 -0.43323097787E+02  0.86036505098E+02  0.16961669593E+03  0.12509000000E+03 0.  0.
         25    1    4    4    0    0  0.61018312816E+02  0.85387757497E+01 -0.61605398973E+02  0.15244303353E+03  0.12509000000E+03 0.  0.
         25    1    4    4    0    0  0.97478700383E+00  0.34784322037E+02 -0.85301090893E+01  0.13011982989E+03  0.12509000000E+03 0.  0.
<mgrwt>
<rscale>  2 0.45189989E+03</rscale>
<asrwt>0</asrwt>
<pdfrwt beam="1">  1       21 0.34417688E-01 0.45189989E+03</pdfrwt>
<pdfrwt beam="2">  1       21 0.32079306E-01 0.45189989E+03</pdfrwt>
<totfact> 0.70480221E+04</totfact>
</mgrwt>
</event>
<event>
 7    0  0.4725730E-002  0.4557104E+03  0.7546771E-02  0.1026033E+00
         21   -1    0    0  502  501  0.00000000000E+00  0.00000000000E+00  0.73524358215E+02  0.73524358215E+02  0.00000000000E+00 0. -1.
         21   -1    0    0  501  502 -0.00000000000E+00 -0.00000000000E+00 -0.70613325463E+03  0.70613325463E+03  0.00000000000E+00 0. -1.
      99926    2    1    2    0    0  0.17763568394E-14  0.00000000000E+00 -0.63260889642E+03  0.77965761285E+03  0.45571040963E+03 0.  0.
      99925    2    3    3    0    0 -0.96261286486E+01  0.88117838180E+02 -0.27578240771E+03  0.39128914490E+03  0.26304722532E+03 0.  0.
         25    1    4    4    0    0  0.18427765001E+02  0.29548464453E+02 -0.89536033426E+02  0.15772413784E+03  0.12509000000E+03 0.  0.
         25    1    4    4    0    0 -0.28053893650E+02  0.58569373728E+02 -0.18624637429E+03  0.23356500706E+03  0.12509000000E+03 0.  0.
         25    1    3    3    0    0  0.96261286486E+01 -0.88117838180E+02 -0.35682648870E+03  0.38836846795E+03  0.12509000000E+03 0.  0.
<mgrwt>
<rscale>  2 0.45571041E+03</rscale>
<asrwt>0</asrwt>
<pdfrwt beam="1">  1       21 0.10812406E-01 0.45571041E+03</pdfrwt>
<pdfrwt beam="2">  1       21 0.10384312E+00 0.45571041E+03</pdfrwt>
<totfact> 0.48493551E+04</totfact>
</mgrwt>
</event>
<event>
 7    0  0.4725730E-002  0.4569497E+03  0.7546771E-02  0.1025670E+00
         21   -1    0    0  502  501  0.00000000000E+00  0.00000000000E+00  0.19077493044E+04  0.19077493044E+04  0.00000000000E+00 0.  1.
         21   -1    0    0  501  502 -0.00000000000E+00 -0.00000000000E+00 -0.27362486277E+02  0.27362486277E+02  0.00000000000E+00 0.  1.
      99926    2    1    2    0    0  0.14210854715E-13  0.44408920985E-15  0.18803868181E+04  0.19351117906E+04  0.45694973098E+03 0.  0.
      99925    2    3    3    0    0 -0.84347394314E+02 -0.10984633196E+01  0.15125304224E+04  0.15375171157E+04  0.26285911247E+03 0.  0.
         25    1    3    3    0    0  0.84347394314E+02  0.10984633196E+01  0.36785639570E+03  0.39759467490E+03  0.12509000000E+03 0.  0.
         25    1    4    4    0    0 -0.44629609207E+02  0.24951604630E+02  0.93330837689E+03  0.94304104846E+03  0.12509000000E+03 0.  0.
         25    1    4    4    0    0 -0.39717785107E+02 -0.26050067950E+02  0.57922204550E+03  0.59447606729E+03  0.12509000000E+03 0.  0.
<mgrwt>
<rscale>  2 0.45694973E+03</rscale>
<asrwt>0</asrwt>
<pdfrwt beam="1">  1       21 0.28055128E+00 0.45694973E+03</pdfrwt>
<pdfrwt beam="2">  1       21 0.40238963E-02 0.45694973E+03</pdfrwt>
<totfact> 0.14576501E+04</totfact>
</mgrwt>
</event>
<event>
 7    0  0.4725730E-002  0.4564766E+03  0.7546771E-02  0.1025808E+00
         21   -1    0    0  502  501  0.00000000000E+00  0.00000000000E+00  0.27831546426E+02  0.27831546426E+02  0.00000000000E+00 0.  1.
         21   -1    0    0  501  502 -0.00000000000E+00 -0.00000000000E+00 -0.18717152234E+04  0.18717152234E+04  0.00000000000E+00 0.  1.
      99926    2    1    2    0    0  0.00000000000E+00 -0.71054273576E-14 -0.18438836770E+04  0.18995467699E+04  0.45647663308E+03 0.  0.
      99925    2    3    3    0    0  0.86655642304E+02 -0.29650866967E+02 -0.14450827384E+04  0.14716705366E+04  0.26298607040E+03 0.  0.
         25    1    4    4    0    0  0.80852445453E+02 -0.26249721437E+02 -0.87636851315E+03  0.88932302610E+03  0.12509000000E+03 0.  0.
         25    1    4    4    0    0  0.58031968515E+01 -0.34011455300E+01 -0.56871422521E+03  0.58234751046E+03  0.12509000000E+03 0.  0.
         25    1    3    3    0    0 -0.86655642304E+02  0.29650866967E+02 -0.39880093864E+03  0.42787623329E+03  0.12509000000E+03 0.  0.
<mgrwt>
<rscale>  2 0.45647663E+03</rscale>
<asrwt>0</asrwt>
<pdfrwt beam="1">  1       21 0.40928738E-02 0.45647663E+03</pdfrwt>
<pdfrwt beam="2">  1       21 0.27525228E+00 0.45647663E+03</pdfrwt>
<totfact> 0.15244467E+04</totfact>
</mgrwt>
</event>
<event>
 7    0  0.4725730E-002  0.4590680E+03  0.7546771E-02  0.1025052E+00
         21   -1    0    0  502  501  0.00000000000E+00  0.00000000000E+00  0.26659899476E+03  0.26659899476E+03  0.00000000000E+00 0.  1.
         21   -1    0    0  501  502 -0.00000000000E+00 -0.00000000000E+00 -0.19762214832E+03  0.19762214832E+03  0.00000000000E+00 0.  1.
      99926    2    1    2    0    0  0.00000000000E+00  0.00000000000E+00  0.68976846436E+02  0.46422114308E+03  0.45906803890E+03 0.  0.
      99925    2    3    3    0    0  0.89447989656E+02 -0.54010146267E+02  0.96176595357E+02  0.29897776743E+03  0.26309642562E+03 0.  0.
         25    1    3    3    0    0 -0.89447989656E+02  0.54010146267E+02 -0.27199748922E+02  0.16524337565E+03  0.12509000000E+03 0.  0.
         25    1    4    4    0    0  0.44496158374E+02 -0.87759130794E+01  0.85509596397E+02  0.15816549540E+03  0.12509000000E+03 0.  0.
         25    1    4    4    0    0  0.44951831282E+02 -0.45234233188E+02  0.10666998961E+02  0.14081227203E+03  0.12509000000E+03 0.  0.
<mgrwt>
<rscale>  2 0.45906804E+03</rscale>
<asrwt>0</asrwt>
<pdfrwt beam="1">  1       21 0.39205735E-01 0.45906804E+03</pdfrwt>
<pdfrwt beam="2">  1       21 0.29062081E-01 0.45906804E+03</pdfrwt>
<totfact> 0.65716102E+04</totfact>
</mgrwt>
</event>
<event>
 7    0  0.4725730E-002  0.4711122E+03  0.7546771E-02  0.1021607E+00
         21   -1    0    0  502  501  0.00000000000E+00  0.00000000000E+00  0.34239516889E+03  0.34239516889E+03  0.00000000000E+00 0. -1.
         21   -1    0    0  501  502 -0.00000000000E+00 -0.00000000000E+00 -0.16205447468E+03  0.16205447468E+03  0.00000000000E+00 0. -1.
      99926    2    1    2    0    0  0.00000000000E+00  0.88817841970E-15  0.18034069421E+03  0.50444964357E+03  0.47111217020E+03 0.  0.
      99925    2    3    3    0    0 -0.57343376441E+02  0.64560408316E+01  0.23389953384E+03  0.35664571708E+03  0.26297762698E+03 0.  0.
         25    1    4    4    0    0 -0.30899118900E+02 -0.80571149737E+01  0.65660079710E+02  0.14483931379E+03  0.12509000000E+03 0.  0.
         25    1    3    3    0    0  0.57343376441E+02 -0.64560408316E+01 -0.53558839628E+02  0.14780392649E+03  0.12509000000E+03 0.  0.
         25    1    4    4    0    0 -0.26444257541E+02  0.14513155805E+02  0.16823945413E+03  0.21180640329E+03  0.12509000000E+03 0.  0.
<mgrwt>
<rscale>  2 0.47111217E+03</rscale>
<asrwt>0</asrwt>
<pdfrwt beam="1">  1       21 0.50352231E-01 0.47111217E+03</pdfrwt>
<pdfrwt beam="2">  1       21 0.23831540E-01 0.47111217E+03</pdfrwt>
<totfact> 0.57275313E+04</totfact>
</mgrwt>
</event>
<event>
 7    0  0.4725730E-002  0.4652648E+03  0.7546771E-02  0.1023265E+00
         21   -1    0    0  502  501  0.00000000000E+00  0.00000000000E+00  0.13569152084E+03  0.13569152084E+03  0.00000000000E+00 0. -1.
         21   -1    0    0  501  502 -0.00000000000E+00 -0.00000000000E+00 -0.39882983673E+03  0.39882983673E+03  0.00000000000E+00 0. -1.
      99926    2    1    2    0    0  0.00000000000E+00  0.00000000000E+00 -0.26313831589E+03  0.53452135757E+03  0.46526477237E+03 0.  0.
      99925    2    3    3    0    0  0.10413380284E+03 -0.40338238307E+02 -0.22209861328E+03  0.36188651852E+03  0.26298866117E+03 0.  0.
         25    1    3    3    0    0 -0.10413380284E+03  0.40338238307E+02 -0.41039702612E+02  0.17263483905E+03  0.12509000000E+03 0.  0.
         25    1    4    4    0    0  0.13359747028E+02 -0.10696734314E+02 -0.77332590357E+02  0.14805654527E+03  0.12509000000E+03 0.  0.
         25    1    4    4    0    0  0.90774055814E+02 -0.29641503993E+02 -0.14476602292E+03  0.21382997325E+03  0.12509000000E+03 0.  0.
<mgrwt>
<rscale>  2 0.46526477E+03</rscale>
<asrwt>0</asrwt>
<pdfrwt beam="1">  1       21 0.19954635E-01 0.46526477E+03</pdfrwt>
<pdfrwt beam="2">  1       21 0.58651448E-01 0.46526477E+03</pdfrwt>
<totfact> 0.58033987E+04</totfact>
</mgrwt>
</event>
<event>
 7    0  0.4725730E-002  0.4576289E+03  0.7546771E-02  0.1025471E+00
         21   -1    0    0  502  501  0.00000000000E+00  0.00000000000E+00  0.35920885204E+02  0.35920885204E+02  0.00000000000E+00 0. -1.
         21   -1    0    0  501  502 -0.00000000000E+00 -0.00000000000E+00 -0.14575377875E+04  0.14575377875E+04  0.00000000000E+00 0. -1.
      99926    2    1    2    0    0  0.00000000000E+00  0.00000000000E+00 -0.14216169023E+04  0.14934586727E+04  0.45762887823E+03 0.  0.
      99925    2    3    3    0    0 -0.97817979092E+02  0.37320230288E+02 -0.10519065759E+04  0.10893616668E+04  0.26313540259E+03 0.  0.
         25    1    3    3    0    0  0.97817979092E+02 -0.37320230288E+02 -0.36971032646E+03  0.40409700595E+03  0.12509000000E+03 0.  0.
         25    1    4    4    0    0 -0.84664605295E+02  0.31015986157E+02 -0.49840469812E+03  0.52171336766E+03  0.12509000000E+03 0.  0.
         25    1    4    4    0    0 -0.13153373797E+02  0.63042441311E+01 -0.55350187775E+03  0.56764829913E+03  0.12509000000E+03 0.  0.
<mgrwt>
<rscale>  2 0.45762888E+03</rscale>
<asrwt>0</asrwt>
<pdfrwt beam="1">  1       21 0.52824830E-02 0.45762888E+03</pdfrwt>
<pdfrwt beam="2">  1       21 0.21434380E+00 0.45762888E+03</pdfrwt>
<totfact> 0.23457238E+04</totfact>
</mgrwt>
</event>
<event>
 7    0  0.4725730E-002  0.4577488E+03  0.7546771E-02  0.1025436E+00
         21   -1    0    0  502  501  0.00000000000E+00  0.00000000000E+00  0.17206969612E+03  0.17206969612E+03  0.00000000000E+00 0. -1.
         21   -1    0    0  501  502 -0.00000000000E+00 -0.00000000000E+00 -0.30443176116E+03  0.30443176116E+03  0.00000000000E+00 0. -1.
      99926    2    1    2    0    0  0.00000000000E+00  0.00000000000E+00 -0.13236206505E+03  0.47650145728E+03  0.45774875480E+03 0.  0.
      99925    2    3    3    0    0  0.61631029598E+02  0.92635956258E+02 -0.49667419895E+02  0.28977782022E+03  0.26291543943E+03 0.  0.
         25    1    4    4    0    0  0.60901083249E+00  0.71056696553E+02 -0.35811609168E+02  0.14825452597E+03  0.12509000000E+03 0.  0.
         25    1    4    4    0    0  0.61022018766E+02  0.21579259705E+02 -0.13855810727E+02  0.14152329425E+03  0.12509000000E+03 0.  0.
         25    1    3    3    0    0 -0.61631029598E+02 -0.92635956258E+02 -0.82694645151E+02  0.18672363706E+03  0.12509000000E+03 0.  0.
<mgrwt>
<rscale>  2 0.45774875E+03</rscale>
<asrwt>0</asrwt>
<pdfrwt beam="1">  1       21 0.25304367E-01 0.45774875E+03</pdfrwt>
<pdfrwt beam="2">  1       21 0.44769376E-01 0.45774875E+03</pdfrwt>
<totfact> 0.65514858E+04</totfact>
</mgrwt>
</event>
<event>
 7    0  0.4725730E-002  0.4630388E+03  0.7546771E-02  0.1023904E+00
         21   -1    0    0  502  501  0.00000000000E+00  0.00000000000E+00  0.79351304469E+02  0.79351304469E+02  0.00000000000E+00 0. -1.
         21   -1    0    0  501  502 -0.00000000000E+00 -0.00000000000E+00 -0.67549275359E+03  0.67549275359E+03  0.00000000000E+00 0. -1.
      99926    2    1    2    0    0  0.00000000000E+00 -0.17763568394E-14 -0.59614144912E+03  0.75484405806E+03  0.46303879387E+03 0.  0.
      99925    2    3    3    0    0  0.71868058842E+02  0.13091077726E+02 -0.21612684511E+03  0.34815621516E+03  0.26299342726E+03 0.  0.
         25    1    4    4    0    0  0.37945464879E+00  0.26876389390E+02 -0.93691570404E+02  0.15858153347E+03  0.12509000000E+03 0.  0.
         25    1    3    3    0    0 -0.71868058842E+02 -0.13091077726E+02 -0.38001460401E+03  0.40668784290E+03  0.12509000000E+03 0.  0.
         25    1    4    4    0    0  0.71488604193E+02 -0.13785311664E+02 -0.12243527471E+03  0.18957468169E+03  0.12509000000E+03 0.  0.
<mgrwt>
<rscale>  2 0.46303879E+03</rscale>
<asrwt>0</asrwt>
<pdfrwt beam="1">  1       21 0.11669310E-01 0.46303879E+03</pdfrwt>
<pdfrwt beam="2">  1       21 0.99337163E-01 0.46303879E+03</pdfrwt>
<totfact> 0.46985085E+04</totfact>
</mgrwt>
</event>
<event>
 7    0  0.4725730E-002  0.4517735E+03  0.7546771E-02  0.1027194E+00
         21   -1    0    0  502  501  0.00000000000E+00  0.00000000000E+00  0.28249866396E+03  0.28249866396E+03  0.00000000000E+00 0. -1.
         21   -1    0    0  501  502 -0.00000000000E+00 -0.00000000000E+00 -0.18061971897E+03  0.18061971897E+03  0.00000000000E+00 0. -1.
      99926    2    1    2    0    0  0.00000000000E+00  0.00000000000E+00  0.10187894499E+03  0.46311838294E+03  0.45177352422E+03 0.  0.
      99925    2    3    3    0    0 -0.30257759561E+02  0.91798205301E+02  0.10264076217E+02  0.28040758744E+03  0.26302209285E+03 0.  0.
         25    1    4    4    0    0 -0.20065098405E+02  0.55630457902E+01  0.17209396534E+02  0.12797354055E+03  0.12509000000E+03 0.  0.
         25    1    4    4    0    0 -0.10192661155E+02  0.86235159511E+02 -0.69453203172E+01  0.15243404689E+03  0.12509000000E+03 0.  0.
         25    1    3    3    0    0  0.30257759561E+02 -0.91798205301E+02  0.91614868771E+02  0.18271079549E+03  0.12509000000E+03 0.  0.
<mgrwt>
<rscale>  2 0.45177352E+03</rscale>
<asrwt>0</asrwt>
<pdfrwt beam="1">  1       21 0.41543921E-01 0.45177352E+03</pdfrwt>
<pdfrwt beam="2">  1       21 0.26561723E-01 0.45177352E+03</pdfrwt>
<totfact> 0.69718625E+04</totfact>
</mgrwt>
</event>
<event>
 7    0  0.4725730E-002  0.4558040E+03  0.7546771E-02  0.1026005E+00
         21   -1    0    0  502  501  0.00000000000E+00  0.00000000000E+00  0.32017313609E+03  0.32017313609E+03  0.00000000000E+00 0.  1.
         21   -1    0    0  501  502 -0.00000000000E+00 -0.00000000000E+00 -0.16222259150E+03  0.16222259150E+03  0.00000000000E+00 0.  1.
      99926    2    1    2    0    0 -0.35527136788E-14  0.14210854715E-13  0.15795054459E+03  0.48239572760E+03  0.45580397483E+03 0.  0.
      99925    2    3    3    0    0  0.20705483883E+02  0.10438364500E+03  0.14241025144E+03  0.31743006081E+03  0.26297623731E+03 0.  0.
         25    1    4    4    0    0 -0.61593963801E+01  0.77611365343E+02  0.43861622475E+02  0.15372967254E+03  0.12509000000E+03 0.  0.
         25    1    4    4    0    0  0.26864880264E+02  0.26772279654E+02  0.98548628963E+02  0.16370038827E+03  0.12509000000E+03 0.  0.
         25    1    3    3    0    0 -0.20705483883E+02 -0.10438364500E+03  0.15540293151E+02  0.16496566678E+03  0.12509000000E+03 0.  0.
<mgrwt>
<rscale>  2 0.45580397E+03</rscale>
<asrwt>0</asrwt>
<pdfrwt beam="1">  1       21 0.47084285E-01 0.45580397E+03</pdfrwt>
<pdfrwt beam="2">  1       21 0.23856263E-01 0.45580397E+03</pdfrwt>
<totfact> 0.66103250E+04</totfact>
</mgrwt>
</event>
<event>
 7    0  0.4725730E-002  0.4543070E+03  0.7546771E-02  0.1026445E+00
         21   -1    0    0  502  501  0.00000000000E+00  0.00000000000E+00  0.89306162418E+03  0.89306162418E+03  0.00000000000E+00 0.  1.
         21   -1    0    0  501  502 -0.00000000000E+00 -0.00000000000E+00 -0.57777315698E+02  0.57777315698E+02  0.00000000000E+00 0.  1.
      99926    2    1    2    0    0 -0.71054273576E-14  0.00000000000E+00  0.83528430849E+03  0.95083893988E+03  0.45430695966E+03 0.  0.
      99925    2    3    3    0    0  0.50327257791E+02 -0.38362267184E+02  0.33121827312E+03  0.42764244474E+03  0.26299813626E+03 0.  0.
         25    1    4    4    0    0  0.73194883966E+01 -0.17135958774E+02  0.21895018373E+03  0.25285155141E+03  0.12509000000E+03 0.  0.
         25    1    4    4    0    0  0.43007769394E+02 -0.21226308411E+02  0.11226808939E+03  0.17479089333E+03  0.12509000000E+03 0.  0.
         25    1    3    3    0    0 -0.50327257791E+02  0.38362267184E+02  0.50406603536E+03  0.52319649514E+03  0.12509000000E+03 0.  0.
<mgrwt>
<rscale>  2 0.45430696E+03</rscale>
<asrwt>0</asrwt>
<pdfrwt beam="1">  1       21 0.13133258E+00 0.45430696E+03</pdfrwt>
<pdfrwt beam="2">  1       21 0.84966646E-02 0.45430696E+03</pdfrwt>
<totfact> 0.41330389E+04</totfact>
</mgrwt>
</event>
<event>
 7    0  0.4725730E-002  0.4563909E+03  0.7546771E-02  0.1025833E+00
         21   -1    0    0  502  501  0.00000000000E+00  0.00000000000E+00  0.15989185406E+04  0.15989185406E+04  0.00000000000E+00 0. -1.
         21   -1    0    0  501  502 -0.00000000000E+00 -0.00000000000E+00 -0.32567743829E+02  0.32567743829E+02  0.00000000000E+00 0. -1.
      99926    2    1    2    0    0  0.00000000000E+00  0.00000000000E+00  0.15663507968E+04  0.16314862845E+04  0.45639092644E+03 0.  0.
      99925    2    3    3    0    0  0.46941830876E-01  0.84718561312E+02  0.70906557284E+03  0.76099062097E+03  0.26297433673E+03 0.  0.
         25    1    4    4    0    0 -0.88502003816E+01  0.26819486380E+02  0.24132768368E+03  0.27328404620E+03  0.12509000000E+03 0.  0.
         25    1    3    3    0    0 -0.46941830876E-01 -0.84718561312E+02  0.85728522397E+03  0.87049566350E+03  0.12509000000E+03 0.  0.
         25    1    4    4    0    0  0.88971422125E+01  0.57899074932E+02  0.46773788917E+03  0.48770657478E+03  0.12509000000E+03 0.  0.
<mgrwt>
<rscale>  2 0.45639093E+03</rscale>
<asrwt>0</asrwt>
<pdfrwt beam="1">  1       21 0.23513503E+00 0.45639093E+03</pdfrwt>
<pdfrwt beam="2">  1       21 0.47893752E-02 0.45639093E+03</pdfrwt>
<totfact> 0.20505179E+04</totfact>
</mgrwt>
</event>
<event>
 7    0  0.4725730E-002  0.4363757E+03  0.7546771E-02  0.1031865E+00
         21   -1    0    0  502  501  0.00000000000E+00  0.00000000000E+00  0.21246496951E+03  0.21246496951E+03  0.00000000000E+00 0. -1.
         21   -1    0    0  501  502 -0.00000000000E+00 -0.00000000000E+00 -0.22406486305E+03  0.22406486305E+03  0.00000000000E+00 0. -1.
      99926    2    1    2    0    0  0.14210854715E-13  0.00000000000E+00 -0.11599893542E+02  0.43652983256E+03  0.43637568354E+03 0.  0.
      99925    2    3    3    0    0 -0.67063888652E+02  0.66462394208E+02 -0.15671156937E+02  0.27975324537E+03  0.26287160008E+03 0.  0.
         25    1    4    4    0    0 -0.14755671285E+02  0.31851675168E+02 -0.43631987760E+02  0.13705297334E+03  0.12509000000E+03 0.  0.
         25    1    3    3    0    0  0.67063888652E+02 -0.66462394208E+02  0.40712633955E+01  0.15677658719E+03  0.12509000000E+03 0.  0.
         25    1    4    4    0    0 -0.52308217367E+02  0.34610719040E+02  0.27960830823E+02  0.14270027203E+03  0.12509000000E+03 0.  0.
<mgrwt>
<rscale>  2 0.43637568E+03</rscale>
<asrwt>0</asrwt>
<pdfrwt beam="1">  1       21 0.31244849E-01 0.43637568E+03</pdfrwt>
<pdfrwt beam="2">  1       21 0.32950715E-01 0.43637568E+03</pdfrwt>
<totfact> 0.81354484E+04</totfact>
</mgrwt>
</event>
<event>
 7    0  0.4725730E-002  0.4502461E+03  0.7546771E-02  0.1027649E+00
         21   -1    0    0  502  501  0.00000000000E+00  0.00000000000E+00  0.16212389878E+04  0.16212389878E+04  0.00000000000E+00 0. -1.
         21   -1    0    0  501  502 -0.00000000000E+00 -0.00000000000E+00 -0.31260286438E+02  0.31260286438E+02  0.00000000000E+00 0. -1.
      99926    2    1    2    0    0  0.00000000000E+00  0.00000000000E+00  0.15899787014E+04  0.16524992743E+04  0.45024613333E+03 0.  0.
      99925    2    3    3    0    0  0.99048433036E+02 -0.42741393282E+02  0.10543475334E+04  0.10919765940E+04  0.26291964939E+03 0.  0.
         25    1    4    4    0    0  0.49001334289E+02  0.19168110503E+02  0.52490169122E+03  0.54216034600E+03  0.12509000000E+03 0.  0.
         25    1    4    4    0    0  0.50047098747E+02 -0.61909503785E+02  0.52944584214E+03  0.54981624804E+03  0.12509000000E+03 0.  0.
         25    1    3    3    0    0 -0.99048433036E+02  0.42741393282E+02  0.53563116802E+03  0.56052268022E+03  0.12509000000E+03 0.  0.
<mgrwt>
<rscale>  2 0.45024613E+03</rscale>
<asrwt>0</asrwt>
<pdfrwt beam="1">  1       21 0.23841744E+00 0.45024613E+03</pdfrwt>
<pdfrwt beam="2">  1       21 0.45971020E-02 0.45024613E+03</pdfrwt>
<totfact> 0.21034790E+04</totfact>
</mgrwt>
</event>
<event>
 7    0  0.4725730E-002  0.4538429E+03  0.7546771E-02  0.1026582E+00
         21   -1    0    0  502  501  0.00000000000E+00  0.00000000000E+00  0.23512224762E+03  0.23512224762E+03  0.00000000000E+00 0. -1.
         21   -1    0    0  501  502 -0.00000000000E+00 -0.00000000000E+00 -0.21900664324E+03  0.21900664324E+03  0.00000000000E+00 0. -1.
      99926    2    1    2    0    0  0.00000000000E+00  0.00000000000E+00  0.16115604370E+02  0.45412889086E+03  0.45384285475E+03 0.  0.
      99925    2    3    3    0    0 -0.71030945379E+02 -0.69488466508E+01 -0.76226317394E+02  0.28304931789E+03  0.26308322490E+03 0.  0.
         25    1    4    4    0    0 -0.57158863158E+02 -0.25554466486E+02 -0.11635586120E+02  0.14036759369E+03  0.12509000000E+03 0.  0.
         25    1    3    3    0    0  0.71030945379E+02  0.69488466508E+01  0.92341921764E+02  0.17107957297E+03  0.12509000000E+03 0.  0.
         25    1    4    4    0    0 -0.13872082221E+02  0.18605619835E+02 -0.64590731274E+02  0.14268172420E+03  0.12509000000E+03 0.  0.
<mgrwt>
<rscale>  2 0.45384285E+03</rscale>
<asrwt>0</asrwt>
<pdfrwt beam="1">  1       21 0.34576801E-01 0.45384285E+03</pdfrwt>
<pdfrwt beam="2">  1       21 0.32206859E-01 0.45384285E+03</pdfrwt>
<totfact> 0.69246805E+04</totfact>
</mgrwt>
</event>
<event>
 7    0  0.4725730E-002  0.4381043E+03  0.7546771E-02  0.1031330E+00
         21   -1    0    0  502  501  0.00000000000E+00  0.00000000000E+00  0.96029694601E+03  0.96029694601E+03  0.00000000000E+00 0.  1.
         21   -1    0    0  501  502 -0.00000000000E+00 -0.00000000000E+00 -0.49967708465E+02  0.49967708465E+02  0.00000000000E+00 0.  1.
      99926    2    1    2    0    0  0.14210854715E-13  0.00000000000E+00  0.91032923754E+03  0.10102646545E+04  0.43810426995E+03 0.  0.
      99925    2    3    3    0    0  0.78408814647E+02 -0.45877366417E+02  0.65733266668E+03  0.71377275250E+03  0.26293085131E+03 0.  0.
         25    1    4    4    0    0  0.59168638658E+01 -0.32596841387E+02  0.36734549698E+03  0.38947116145E+03  0.12509000000E+03 0.  0.
         25    1    3    3    0    0 -0.78408814647E+02  0.45877366417E+02  0.25299657087E+03  0.29649190197E+03  0.12509000000E+03 0.  0.
         25    1    4    4    0    0  0.72491950781E+02 -0.13280525030E+02  0.28998716969E+03  0.32430159105E+03  0.12509000000E+03 0.  0.
<mgrwt>
<rscale>  2 0.43810427E+03</rscale>
<asrwt>0</asrwt>
<pdfrwt beam="1">  1       21 0.14122013E+00 0.43810427E+03</pdfrwt>
<pdfrwt beam="2">  1       21 0.73481930E-02 0.43810427E+03</pdfrwt>
<totfact> 0.44336867E+04</totfact>
</mgrwt>
</event>
<event>
 7    0  0.4725730E-002  0.4793621E+03  0.7546771E-02  0.1019311E+00
         21   -1    0    0  502  501  0.00000000000E+00  0.00000000000E+00  0.66932001234E+02  0.66932001234E+02  0.00000000000E+00 0.  1.
         21   -1    0    0  501  502 -0.00000000000E+00 -0.00000000000E+00 -0.85828900292E+03  0.85828900292E+03  0.00000000000E+00 0.  1.
      99926    2    1    2    0    0  0.00000000000E+00 -0.35527136788E-14 -0.79135700169E+03  0.92522100415E+03  0.47936207861E+03 0.  0.
      99925    2    3    3    0    0  0.18668831710E+02  0.29599313567E+02 -0.23633870513E+03  0.35520568659E+03  0.26285062603E+03 0.  0.
         25    1    4    4    0    0  0.22277847509E+02  0.28282041104E+02 -0.72367414252E+02  0.14893195454E+03  0.12509000000E+03 0.  0.
         25    1    4    4    0    0 -0.36090157987E+01  0.13172724632E+01 -0.16397129088E+03  0.20627373205E+03  0.12509000000E+03 0.  0.
         25    1    3    3    0    0 -0.18668831710E+02 -0.29599313567E+02 -0.55501829656E+03  0.57001531756E+03  0.12509000000E+03 0.  0.
<mgrwt>
<rscale>  2 0.47936208E+03</rscale>
<asrwt>0</asrwt>
<pdfrwt beam="1">  1       21 0.98429418E-02 0.47936208E+03</pdfrwt>
<pdfrwt beam="2">  1       21 0.12621897E+00 0.47936208E+03</pdfrwt>
<totfact> 0.34995439E+04</totfact>
</mgrwt>
</event>
<event>
 7    0  0.4725730E-002  0.4510917E+03  0.7546771E-02  0.1027397E+00
         21   -1    0    0  502  501  0.00000000000E+00  0.00000000000E+00  0.14523545261E+04  0.14523545261E+04  0.00000000000E+00 0.  1.
         21   -1    0    0  501  502 -0.00000000000E+00 -0.00000000000E+00 -0.35026517318E+02  0.35026517318E+02  0.00000000000E+00 0.  1.
      99926    2    1    2    0    0  0.00000000000E+00  0.71054273576E-14  0.14173280088E+04  0.14873810434E+04  0.45109165792E+03 0.  0.
      99925    2    3    3    0    0 -0.99826626933E+01 -0.57116194140E+02  0.58700414527E+03  0.64568802360E+03  0.26263519199E+03 0.  0.
         25    1    3    3    0    0  0.99826626933E+01  0.57116194140E+02  0.83032386351E+03  0.84169301981E+03  0.12509000000E+03 0.  0.
         25    1    4    4    0    0  0.13128711452E+01  0.62047444884E+01  0.22847068956E+03  0.26055054514E+03  0.12509000000E+03 0.  0.
         25    1    4    4    0    0 -0.11295533839E+02 -0.63320938628E+02  0.35853345571E+03  0.38513747846E+03  0.12509000000E+03 0.  0.
<mgrwt>
<rscale>  2 0.45109166E+03</rscale>
<asrwt>0</asrwt>
<pdfrwt beam="1">  1       21 0.21358151E+00 0.45109166E+03</pdfrwt>
<pdfrwt beam="2">  1       21 0.51509594E-02 0.45109166E+03</pdfrwt>
<totfact> 0.24835568E+04</totfact>
</mgrwt>
</event>
<event>
 7    0  0.4725730E-002  0.4537044E+03  0.7546771E-02  0.1026623E+00
         21   -1    0    0  502  501  0.00000000000E+00  0.00000000000E+00  0.30219090668E+03  0.30219090668E+03  0.00000000000E+00 0.  1.
         21   -1    0    0  501  502 -0.00000000000E+00 -0.00000000000E+00 -0.17029603956E+03  0.17029603956E+03  0.00000000000E+00 0.  1.
      99926    2    1    2    0    0 -0.51070259133E-14  0.00000000000E+00  0.13189486712E+03  0.47248694623E+03  0.45370437334E+03 0.  0.
      99925    2    3    3    0    0  0.18310697874E+01  0.70542258850E+02  0.17309699092E+03  0.32307246834E+03  0.26350272946E+03 0.  0.
         25    1    4    4    0    0 -0.40081132150E+02  0.32390840440E+02  0.80229809993E+02  0.15728952352E+03  0.12509000000E+03 0.  0.
         25    1    4    4    0    0  0.41912201937E+02  0.38151418410E+02  0.92867180924E+02  0.16578294481E+03  0.12509000000E+03 0.  0.
         25    1    3    3    0    0 -0.18310697874E+01 -0.70542258850E+02 -0.41202123795E+02  0.14941447790E+03  0.12509000000E+03 0.  0.
<mgrwt>
<rscale>  2 0.45370437E+03</rscale>
<asrwt>0</asrwt>
<pdfrwt beam="1">  1       21 0.44439839E-01 0.45370437E+03</pdfrwt>
<pdfrwt beam="2">  1       21 0.25043535E-01 0.45370437E+03</pdfrwt>
<totfact> 0.67947103E+04</totfact>
</mgrwt>
</event>
<event>
 6    0  0.4725730E-002  0.4619644E+03  0.7546771E-02  0.1024213E+00
         21   -1    0    0  502  501  0.00000000000E+00  0.00000000000E+00  0.19385979359E+02  0.19385979359E+02  0.00000000000E+00 0. -1.
         21   -1    0    0  501  502 -0.00000000000E+00 -0.00000000000E+00 -0.27521327091E+04  0.27521327091E+04  0.00000000000E+00 0. -1.
      99926    2    1    2    0    0  0.17763568394E-14  0.00000000000E+00 -0.27327467297E+04  0.27715186884E+04  0.46196444838E+03 0.  0.
         25    1    3    3    0    0  0.25325997742E+02 -0.82830984071E+01 -0.73491785571E+03  0.74596365771E+03  0.12509000000E+03 0.  0.
         25    1    3    3    0    0 -0.20957760792E+02 -0.94929952686E+02 -0.70465087455E+03  0.72224046325E+03  0.12509000000E+03 0.  0.
         25    1    3    3    0    0 -0.43682369503E+01  0.10321305109E+03 -0.12931779994E+04  0.13033145675E+04  0.12509000000E+03 0.  0.
<mgrwt>
<rscale>  2 0.46196445E+03</rscale>
<asrwt>0</asrwt>
<pdfrwt beam="1">  1       21 0.28508788E-02 0.46196445E+03</pdfrwt>
<pdfrwt beam="2">  1       21 0.40472547E+00 0.46196445E+03</pdfrwt>
<totfact> 0.44858420E+03</totfact>
</mgrwt>
</event>
<event>
 7    0  0.4725730E-002  0.4483765E+03  0.7546771E-02  0.1028207E+00
         21   -1    0    0  502  501  0.00000000000E+00  0.00000000000E+00  0.21905910393E+03  0.21905910393E+03  0.00000000000E+00 0.  1.
         21   -1    0    0  501  502 -0.00000000000E+00 -0.00000000000E+00 -0.22943744755E+03  0.22943744755E+03  0.00000000000E+00 0.  1.
      99926    2    1    2    0    0  0.00000000000E+00  0.00000000000E+00 -0.10378343624E+02  0.44849655149E+03  0.44837645643E+03 0.  0.
      99925    2    3    3    0    0 -0.85710644035E+01 -0.64701333962E+02  0.78272102956E+02  0.28186481519E+03  0.26279559772E+03 0.  0.
         25    1    4    4    0    0 -0.28644975665E+01  0.87299837989E+01  0.41539378221E+02  0.13212662868E+03  0.12509000000E+03 0.  0.
         25    1    4    4    0    0 -0.57065668370E+01 -0.73431317761E+02  0.36732724735E+02  0.14973818651E+03  0.12509000000E+03 0.  0.
         25    1    3    3    0    0  0.85710644035E+01  0.64701333962E+02 -0.88650446580E+02  0.16663173629E+03  0.12509000000E+03 0.  0.
<mgrwt>
<rscale>  2 0.44837646E+03</rscale>
<asrwt>0</asrwt>
<pdfrwt beam="1">  1       21 0.32214574E-01 0.44837646E+03</pdfrwt>
<pdfrwt beam="2">  1       21 0.33740801E-01 0.44837646E+03</pdfrwt>
<totfact> 0.72796707E+04</totfact>
</mgrwt>
</event>
<event>
 7    0  0.4725730E-002  0.4550271E+03  0.7546771E-02  0.1026233E+00
         21   -1    0    0  502  501  0.00000000000E+00  0.00000000000E+00  0.25297278607E+03  0.25297278607E+03  0.00000000000E+00 0. -1.
         21   -1    0    0  501  502 -0.00000000000E+00 -0.00000000000E+00 -0.20461656986E+03  0.20461656986E+03  0.00000000000E+00 0. -1.
      99926    2    1    2    0    0  0.00000000000E+00  0.00000000000E+00  0.48356216204E+02  0.45758935593E+03  0.45502713657E+03 0.  0.
      99925    2    3    3    0    0 -0.61903934394E+02  0.16739273675E+02 -0.63271417343E+02  0.27808855635E+03  0.26309251708E+03 0.  0.
         25    1    3    3    0    0  0.61903934394E+02 -0.16739273675E+02  0.11162763355E+03  0.17950079958E+03  0.12509000000E+03 0.  0.
         25    1    4    4    0    0 -0.53906229703E+02 -0.15155449397E+02 -0.57486610341E+02  0.14861960744E+03  0.12509000000E+03 0.  0.
         25    1    4    4    0    0 -0.79977046913E+01  0.31894723073E+02 -0.57848070022E+01  0.12946894891E+03  0.12509000000E+03 0.  0.
<mgrwt>
<rscale>  2 0.45502714E+03</rscale>
<asrwt>0</asrwt>
<pdfrwt beam="1">  1       21 0.37201880E-01 0.45502714E+03</pdfrwt>
<pdfrwt beam="2">  1       21 0.30090672E-01 0.45502714E+03</pdfrwt>
<totfact> 0.68341681E+04</totfact>
</mgrwt>
</event>
<event>
 7    0  0.4725730E-002  0.4598504E+03  0.7546771E-02  0.1024825E+00
         21   -1    0    0  502  501  0.00000000000E+00  0.00000000000E+00  0.13479422604E+03  0.13479422604E+03  0.00000000000E+00 0. -1.
         21   -1    0    0  501  502 -0.00000000000E+00 -0.00000000000E+00 -0.39219483015E+03  0.39219483015E+03  0.00000000000E+00 0. -1.
      99926    2    1    2    0    0  0.00000000000E+00  0.00000000000E+00 -0.25740060411E+03  0.52698905620E+03  0.45985040432E+03 0.  0.
      99925    2    3    3    0    0  0.25603907727E+02 -0.10138996607E+03 -0.22302697601E+03  0.36036210844E+03  0.26302914641E+03 0.  0.
         25    1    4    4    0    0  0.85978073952E+00 -0.14912318492E+02 -0.74512319314E+02  0.14636498999E+03  0.12509000000E+03 0.  0.
         25    1    4    4    0    0  0.24744126987E+02 -0.86477647577E+02 -0.14851465670E+03  0.21399711845E+03  0.12509000000E+03 0.  0.
         25    1    3    3    0    0 -0.25603907727E+02  0.10138996607E+03 -0.34373628102E+02  0.16662694776E+03  0.12509000000E+03 0.  0.
<mgrwt>
<rscale>  2 0.45985040E+03</rscale>
<asrwt>0</asrwt>
<pdfrwt beam="1">  1       21 0.19822680E-01 0.45985040E+03</pdfrwt>
<pdfrwt beam="2">  1       21 0.57675710E-01 0.45985040E+03</pdfrwt>
<totfact> 0.61030125E+04</totfact>
</mgrwt>
</event>
<event>
 7    0  0.4725730E-002  0.4535907E+03  0.7546771E-02  0.1026657E+00
         21   -1    0    0  502  501  0.00000000000E+00  0.00000000000E+00  0.64349410074E+02  0.64349410074E+02  0.00000000000E+00 0. -1.
         21   -1    0    0  501  502 -0.00000000000E+00 -0.00000000000E+00 -0.79932544209E+03  0.79932544209E+03  0.00000000000E+00 0. -1.
      99926    2    1    2    0    0  0.00000000000E+00  0.00000000000E+00 -0.73497603201E+03  0.86367485216E+03  0.45359065535E+03 0.  0.
      99925    2    3    3    0    0 -0.85243903870E+02 -0.32997600360E+02 -0.34057182996E+03  0.43993253958E+03  0.26305152203E+03 0.  0.
         25    1    3    3    0    0  0.85243903870E+02  0.32997600360E+02 -0.39440420205E+03  0.42374231258E+03  0.12509000000E+03 0.  0.
         25    1    4    4    0    0 -0.23399447741E+02  0.18081482139E+02 -0.17961511113E+03  0.22087003056E+03  0.12509000000E+03 0.  0.
         25    1    4    4    0    0 -0.61844456128E+02 -0.51079082499E+02 -0.16095671882E+03  0.21906250902E+03  0.12509000000E+03 0.  0.
<mgrwt>
<rscale>  2 0.45359066E+03</rscale>
<asrwt>0</asrwt>
<pdfrwt beam="1">  1       21 0.94631490E-02 0.45359066E+03</pdfrwt>
<pdfrwt beam="2">  1       21 0.11754785E+00 0.45359066E+03</pdfrwt>
<totfact> 0.45332665E+04</totfact>
</mgrwt>
</event>
<event>
 7    0  0.4725730E-002  0.4492852E+03  0.7546771E-02  0.1027935E+00
         21   -1    0    0  502  501  0.00000000000E+00  0.00000000000E+00  0.26161780421E+03  0.26161780421E+03  0.00000000000E+00 0. -1.
         21   -1    0    0  501  502 -0.00000000000E+00 -0.00000000000E+00 -0.19289320738E+03  0.19289320738E+03  0.00000000000E+00 0. -1.
      99926    2    1    2    0    0 -0.71054273576E-14 -0.53290705182E-14  0.68724596833E+02  0.45451101159E+03  0.44928519834E+03 0.  0.
      99925    2    3    3    0    0 -0.43806172356E+02 -0.81473727490E+01  0.14276389661E+03  0.30247586293E+03  0.26291587449E+03 0.  0.
         25    1    4    4    0    0 -0.11200283999E+02  0.31375652151E+02  0.51203574368E+02  0.13920916650E+03  0.12509000000E+03 0.  0.
         25    1    4    4    0    0 -0.32605888357E+02 -0.39523024900E+02  0.91560322241E+02  0.16326669643E+03  0.12509000000E+03 0.  0.
         25    1    3    3    0    0  0.43806172356E+02  0.81473727490E+01 -0.74039299776E+02  0.15203514867E+03  0.12509000000E+03 0.  0.
<mgrwt>
<rscale>  2 0.44928520E+03</rscale>
<asrwt>0</asrwt>
<pdfrwt beam="1">  1       21 0.38473207E-01 0.44928520E+03</pdfrwt>
<pdfrwt beam="2">  1       21 0.28366648E-01 0.44928520E+03</pdfrwt>
<totfact> 0.71799204E+04</totfact>
</mgrwt>
</event>
<event>
 7    0  0.4725730E-002  0.4495023E+03  0.7546771E-02  0.1027871E+00
         21   -1    0    0  502  501  0.00000000000E+00  0.00000000000E+00  0.24008836771E+03  0.24008836771E+03  0.00000000000E+00 0.  1.
         21   -1    0    0  501  502 -0.00000000000E+00 -0.00000000000E+00 -0.21039373422E+03  0.21039373422E+03  0.00000000000E+00 0.  1.
      99926    2    1    2    0    0 -0.35527136788E-14  0.00000000000E+00  0.29694633487E+02  0.45048210193E+03  0.44950233915E+03 0.  0.
      99925    2    3    3    0    0  0.23544116016E+02  0.11317642067E+02  0.12367447803E+03  0.29185633573E+03  0.26306335694E+03 0.  0.
         25    1    4    4    0    0 -0.29838369723E+01  0.71532167810E+01  0.10306942292E+03  0.16226794457E+03  0.12509000000E+03 0.  0.
         25    1    4    4    0    0  0.26527952989E+02  0.41644252862E+01  0.20605055117E+02  0.12958839116E+03  0.12509000000E+03 0.  0.
         25    1    3    3    0    0 -0.23544116016E+02 -0.11317642067E+02 -0.93979844546E+02  0.15862576620E+03  0.12509000000E+03 0.  0.
<mgrwt>
<rscale>  2 0.44950234E+03</rscale>
<asrwt>0</asrwt>
<pdfrwt beam="1">  1       21 0.35307113E-01 0.44950234E+03</pdfrwt>
<pdfrwt beam="2">  1       21 0.30940255E-01 0.44950234E+03</pdfrwt>
<totfact> 0.71984200E+04</totfact>
</mgrwt>
</event>
<event>
 7    0  0.4725730E-002  0.4533411E+03  0.7546771E-02  0.1026730E+00
         21   -1    0    0  502  501  0.00000000000E+00  0.00000000000E+00  0.19178335268E+03  0.19178335268E+03  0.00000000000E+00 0.  1.
         21   -1    0    0  501  502 -0.00000000000E+00 -0.00000000000E+00 -0.26790409972E+03  0.26790409972E+03  0.00000000000E+00 0.  1.
      99926    2    1    2    0    0  0.00000000000E+00  0.00000000000E+00 -0.76120747035E+02  0.45968745240E+03  0.45334113619E+03 0.  0.
      99925    2    3    3    0    0 -0.95099524849E+02 -0.57830789077E+02 -0.56546630543E+02  0.29110817156E+03  0.26297932682E+03 0.  0.
         25    1    4    4    0    0 -0.59585896192E+02 -0.42669643209E+01 -0.58500581963E+02  0.15046099893E+03  0.12509000000E+03 0.  0.
         25    1    3    3    0    0  0.95099524849E+02  0.57830789077E+02 -0.19574116492E+02  0.16857928084E+03  0.12509000000E+03 0.  0.
         25    1    4    4    0    0 -0.35513628657E+02 -0.53563824756E+02  0.19539514194E+01  0.14064717263E+03  0.12509000000E+03 0.  0.
<mgrwt>
<rscale>  2 0.45334114E+03</rscale>
<asrwt>0</asrwt>
<pdfrwt beam="1">  1       21 0.28203434E-01 0.45334114E+03</pdfrwt>
<pdfrwt beam="2">  1       21 0.39397662E-01 0.45334114E+03</pdfrwt>
<totfact> 0.69113007E+04</totfact>
</mgrwt>
</event>
<event>
 7    0  0.4725730E-002  0.4513382E+03  0.7546771E-02  0.1027324E+00
         21   -1    0    0  502  501  0.00000000000E+00  0.00000000000E+00  0.20600055294E+02  0.20600055294E+02  0.00000000000E+00 0. -1.
         21   -1    0    0  501  502 -0.00000000000E+00 -0.00000000000E+00 -0.24721552179E+04  0.24721552179E+04  0.00000000000E+00 0. -1.
      99926    2    1    2    0    0  0.14210854715E-13  0.00000000000E+00 -0.24515551626E+04  0.24927552732E+04  0.45133816229E+03 0.  0.
      99925    2    3    3    0    0 -0.95507789007E+02 -0.42494702667E+02 -0.17313563623E+04  0.17543371277E+04  0.26301400509E+03 0.  0.
         25    1    4    4    0    0 -0.88744344176E+02 -0.13503790314E+02 -0.99389039216E+03  0.10057452613E+04  0.12509000000E+03 0.  0.
         25    1    3    3    0    0  0.95507789007E+02  0.42494702667E+02 -0.72019880028E+03  0.73841814546E+03  0.12509000000E+03 0.  0.
         25    1    4    4    0    0 -0.67634448303E+01 -0.28990912354E+02 -0.73746597015E+03  0.74859186639E+03  0.12509000000E+03 0.  0.
<mgrwt>
<rscale>  2 0.45133816E+03</rscale>
<asrwt>0</asrwt>
<pdfrwt beam="1">  1       21 0.30294192E-02 0.45133816E+03</pdfrwt>
<pdfrwt beam="2">  1       21 0.36355232E+00 0.45133816E+03</pdfrwt>
<totfact> 0.74150398E+03</totfact>
</mgrwt>
</event>
<event>
 7    0  0.4725730E-002  0.4503282E+03  0.7546771E-02  0.1027624E+00
         21   -1    0    0  502  501  0.00000000000E+00  0.00000000000E+00  0.10407890270E+03  0.10407890270E+03  0.00000000000E+00 0.  1.
         21   -1    0    0  501  502 -0.00000000000E+00 -0.00000000000E+00 -0.48711965689E+03  0.48711965689E+03  0.00000000000E+00 0.  1.
      99926    2    1    2    0    0 -0.17763568394E-14  0.00000000000E+00 -0.38304075420E+03  0.59119855959E+03  0.45032823305E+03 0.  0.
      99925    2    3    3    0    0  0.83329861083E+01  0.10221469303E+03 -0.19508484565E+03  0.34322232326E+03  0.26310869247E+03 0.  0.
         25    1    3    3    0    0 -0.83329861083E+01 -0.10221469303E+03 -0.18795590855E+03  0.24797623633E+03  0.12509000000E+03 0.  0.
         25    1    4    4    0    0 -0.18885545199E+02  0.51429974571E+02 -0.13797143144E+03  0.19412709778E+03  0.12509000000E+03 0.  0.
         25    1    4    4    0    0  0.27218531307E+02  0.50784718455E+02 -0.57113414215E+02  0.14909522547E+03  0.12509000000E+03 0.  0.
<mgrwt>
<rscale>  2 0.45032823E+03</rscale>
<asrwt>0</asrwt>
<pdfrwt beam="1">  1       21 0.15305721E-01 0.45032823E+03</pdfrwt>
<pdfrwt beam="2">  1       21 0.71635242E-01 0.45032823E+03</pdfrwt>
<totfact> 0.61461315E+04</totfact>
</mgrwt>
</event>
<event>
 7    0  0.4725730E-002  0.4517262E+03  0.7546771E-02  0.1027209E+00
         21   -1    0    0  502  501  0.00000000000E+00  0.00000000000E+00  0.51451941239E+03  0.51451941239E+03  0.00000000000E+00 0. -1.
         21   -1    0    0  501  502 -0.00000000000E+00 -0.00000000000E+00 -0.99149092849E+02  0.99149092849E+02  0.00000000000E+00 0. -1.
      99926    2    1    2    0    0  0.14210854715E-13 -0.35527136788E-14  0.41537031954E+03  0.61366850524E+03  0.45172616923E+03 0.  0.
      99925    2    3    3    0    0 -0.97401855225E+02 -0.17970189374E+02  0.19724504903E+03  0.34341641766E+03  0.26309537708E+03 0.  0.
         25    1    4    4    0    0 -0.67818022399E+02  0.25340655926E+02  0.11582829250E+03  0.18521645296E+03  0.12509000000E+03 0.  0.
         25    1    3    3    0    0  0.97401855225E+02  0.17970189374E+02  0.21812527051E+03  0.27025208758E+03  0.12509000000E+03 0.  0.
         25    1    4    4    0    0 -0.29583832826E+02 -0.43310845300E+02  0.81416756534E+02  0.15819996470E+03  0.12509000000E+03 0.  0.
<mgrwt>
<rscale>  2 0.45172617E+03</rscale>
<asrwt>0</asrwt>
<pdfrwt beam="1">  1       21 0.75664618E-01 0.45172617E+03</pdfrwt>
<pdfrwt beam="2">  1       21 0.14580749E-01 0.45172617E+03</pdfrwt>
<totfact> 0.59364864E+04</totfact>
</mgrwt>
</event>
<event>
 7    0  0.4725730E-002  0.4516669E+03  0.7546771E-02  0.1027226E+00
         21   -1    0    0  502  501  0.00000000000E+00  0.00000000000E+00  0.34761570490E+03  0.34761570490E+03  0.00000000000E+00 0. -1.
         21   -1    0    0  501  502 -0.00000000000E+00 -0.00000000000E+00 -0.14671591766E+03  0.14671591766E+03  0.00000000000E+00 0. -1.
      99926    2    1    2    0    0  0.00000000000E+00  0.00000000000E+00  0.20089978724E+03  0.49433162256E+03  0.45166694427E+03 0.  0.
      99925    2    3    3    0    0 -0.10550093262E+03 -0.23898046011E+02  0.10618736375E+03  0.30375482793E+03  0.26322932185E+03 0.  0.
         25    1    4    4    0    0 -0.57075193812E+02 -0.61658531883E+01  0.96523584795E+02  0.16810682918E+03  0.12509000000E+03 0.  0.
         25    1    3    3    0    0  0.10550093262E+03  0.23898046011E+02  0.94712423491E+02  0.19057679463E+03  0.12509000000E+03 0.  0.
         25    1    4    4    0    0 -0.48425738809E+02 -0.17732192822E+02  0.96637789533E+01  0.13564799875E+03  0.12509000000E+03 0.  0.
<mgrwt>
<rscale>  2 0.45166694E+03</rscale>
<asrwt>0</asrwt>
<pdfrwt beam="1">  1       21 0.51119957E-01 0.45166694E+03</pdfrwt>
<pdfrwt beam="2">  1       21 0.21575870E-01 0.45166694E+03</pdfrwt>
<totfact> 0.67437501E+04</totfact>
</mgrwt>
</event>
<event>
 7    0  0.4725730E-002  0.4591284E+03  0.7546771E-02  0.1025034E+00
         21   -1    0    0  502  501  0.00000000000E+00  0.00000000000E+00  0.42349023648E+03  0.42349023648E+03  0.00000000000E+00 0. -1.
         21   -1    0    0  501  502 -0.00000000000E+00 -0.00000000000E+00 -0.12444140636E+03  0.12444140636E+03  0.00000000000E+00 0. -1.
      99926    2    1    2    0    0  0.00000000000E+00  0.88817841970E-15  0.29904883013E+03  0.54793164284E+03  0.45912839428E+03 0.  0.
      99925    2    3    3    0    0 -0.27016813360E+02 -0.52744421551E+01  0.32324617274E+03  0.41758308154E+03  0.26292549107E+03 0.  0.
         25    1    4    4    0    0  0.22998271600E+02 -0.20266742157E+02  0.16014678298E+03  0.20550951689E+03  0.12509000000E+03 0.  0.
         25    1    3    3    0    0  0.27016813360E+02  0.52744421551E+01 -0.24197342614E+02  0.13034856130E+03  0.12509000000E+03 0.  0.
         25    1    4    4    0    0 -0.50015084961E+02  0.14992300002E+02  0.16309938976E+03  0.21207356465E+03  0.12509000000E+03 0.  0.
<mgrwt>
<rscale>  2 0.45912839E+03</rscale>
<asrwt>0</asrwt>
<pdfrwt beam="1">  1       21 0.62277976E-01 0.45912839E+03</pdfrwt>
<pdfrwt beam="2">  1       21 0.18300207E-01 0.45912839E+03</pdfrwt>
<totfact> 0.60018697E+04</totfact>
</mgrwt>
</event>
<event>
 7    0  0.4725730E-002  0.4562373E+03  0.7546771E-02  0.1025878E+00
         21   -1    0    0  502  501  0.00000000000E+00  0.00000000000E+00  0.58223997361E+02  0.58223997361E+02  0.00000000000E+00 0. -1.
         21   -1    0    0  501  502 -0.00000000000E+00 -0.00000000000E+00 -0.89375713392E+03  0.89375713392E+03  0.00000000000E+00 0. -1.
      99926    2    1    2    0    0 -0.35527136788E-14 -0.14210854715E-13 -0.83553313656E+03  0.95198113129E+03  0.45623727602E+03 0.  0.
      99925    2    3    3    0    0 -0.22741606394E+02 -0.10978178270E+03 -0.56584174866E+03  0.63425456128E+03  0.26369062082E+03 0.  0.
         25    1    3    3    0    0  0.22741606394E+02  0.10978178270E+03 -0.26969138790E+03  0.31772657000E+03  0.12509000000E+03 0.  0.
         25    1    4    4    0    0 -0.20355554511E+02 -0.27565147971E+02 -0.19353558719E+03  0.23297578757E+03  0.12509000000E+03 0.  0.
         25    1    4    4    0    0 -0.23860518825E+01 -0.82216634734E+02 -0.37230616147E+03  0.40127877372E+03  0.12509000000E+03 0.  0.
<mgrwt>
<rscale>  2 0.45623728E+03</rscale>
<asrwt>0</asrwt>
<pdfrwt beam="1">  1       21 0.85623529E-02 0.45623728E+03</pdfrwt>
<pdfrwt beam="2">  1       21 0.13143487E+00 0.45623728E+03</pdfrwt>
<totfact> 0.40665824E+04</totfact>
</mgrwt>
</event>
<event>
 7    0  0.4725730E-002  0.4539729E+03  0.7546771E-02  0.1026544E+00
         21   -1    0    0  502  501  0.00000000000E+00  0.00000000000E+00  0.13946783225E+03  0.13946783225E+03  0.00000000000E+00 0. -1.
         21   -1    0    0  501  502 -0.00000000000E+00 -0.00000000000E+00 -0.36942455470E+03  0.36942455470E+03  0.00000000000E+00 0. -1.
      99926    2    1    2    0    0  0.00000000000E+00  0.14210854715E-13 -0.22995672246E+03  0.50889238695E+03  0.45397287066E+03 0.  0.
      99925    2    3    3    0    0  0.24030585765E+02  0.10204607574E+03 -0.10009719470E+03  0.30032135427E+03  0.26302584819E+03 0.  0.
         25    1    4    4    0    0  0.23577485000E+02  0.90320076332E+02 -0.40419802993E+02  0.16122928568E+03  0.12509000000E+03 0.  0.
         25    1    3    3    0    0 -0.24030585765E+02 -0.10204607574E+03 -0.12985952776E+03  0.20857103269E+03  0.12509000000E+03 0.  0.
         25    1    4    4    0    0  0.45310076445E+00  0.11725999412E+02 -0.59677391705E+02  0.13909206858E+03  0.12509000000E+03 0.  0.
<mgrwt>
<rscale>  2 0.45397287E+03</rscale>
<asrwt>0</asrwt>
<pdfrwt beam="1">  1       21 0.20509976E-01 0.45397287E+03</pdfrwt>
<pdfrwt beam="2">  1       21 0.54327139E-01 0.45397287E+03</pdfrwt>
<totfact> 0.65180061E+04</totfact>
</mgrwt>
</event>
<event>
 7    0  0.4725730E-002  0.4717526E+03  0.7546771E-02  0.1021427E+00
         21   -1    0    0  502  501  0.00000000000E+00  0.00000000000E+00  0.49828591732E+03  0.49828591732E+03  0.00000000000E+00 0.  1.
         21   -1    0    0  501  502 -0.00000000000E+00 -0.00000000000E+00 -0.11165802608E+03  0.11165802608E+03  0.00000000000E+00 0.  1.
      99926    2    1    2    0    0  0.00000000000E+00  0.00000000000E+00  0.38662789124E+03  0.60994394339E+03  0.47175257053E+03 0.  0.
      99925    2    3    3    0    0  0.82000450888E+02 -0.58504308316E+02  0.34240577924E+03  0.44336083703E+03  0.26302145561E+03 0.  0.
         25    1    4    4    0    0  0.14688068047E+02 -0.32164591088E+02  0.21231797985E+03  0.24895126618E+03  0.12509000000E+03 0.  0.
         25    1    3    3    0    0 -0.82000450888E+02  0.58504308316E+02  0.44222111997E+02  0.16658310637E+03  0.12509000000E+03 0.  0.
         25    1    4    4    0    0  0.67312382841E+02 -0.26339717228E+02  0.13008779939E+03  0.19440957085E+03  0.12509000000E+03 0.  0.
<mgrwt>
<rscale>  2 0.47175257E+03</rscale>
<asrwt>0</asrwt>
<pdfrwt beam="1">  1       21 0.73277340E-01 0.47175257E+03</pdfrwt>
<pdfrwt beam="2">  1       21 0.16420298E-01 0.47175257E+03</pdfrwt>
<totfact> 0.50981008E+04</totfact>
</mgrwt>
</event>
<event>
 7    0  0.4725730E-002  0.4586712E+03  0.7546771E-02  0.1025167E+00
         21   -1    0    0  502  501  0.00000000000E+00  0.00000000000E+00  0.10126745249E+03  0.10126745249E+03  0.00000000000E+00 0.  1.
         21   -1    0    0  501  502 -0.00000000000E+00 -0.00000000000E+00 -0.51936554198E+03  0.51936554198E+03  0.00000000000E+00 0.  1.
      99926    2    1    2    0    0  0.00000000000E+00  0.00000000000E+00 -0.41809808949E+03  0.62063299446E+03  0.45867123453E+03 0.  0.
      99925    2    3    3    0    0 -0.10718241169E+03 -0.19743223291E+02 -0.31746990439E+03  0.42659329755E+03  0.26328090907E+03 0.  0.
         25    1    4    4    0    0 -0.95786718941E+02 -0.12404442461E+01 -0.16415259629E+03  0.22753069507E+03  0.12509000000E+03 0.  0.
         25    1    4    4    0    0 -0.11395692754E+02 -0.18502779045E+02 -0.15331730810E+03  0.19906260249E+03  0.12509000000E+03 0.  0.
         25    1    3    3    0    0  0.10718241169E+03  0.19743223291E+02 -0.10062818510E+03  0.19403969691E+03  0.12509000000E+03 0.  0.
<mgrwt>
<rscale>  2 0.45867123E+03</rscale>
<asrwt>0</asrwt>
<pdfrwt beam="1">  1       21 0.14892273E-01 0.45867123E+03</pdfrwt>
<pdfrwt beam="2">  1       21 0.76377285E-01 0.45867123E+03</pdfrwt>
<totfact> 0.55790834E+04</totfact>
</mgrwt>
</event>
<event>
 7    0  0.4725730E-002  0.4506652E+03  0.7546771E-02  0.1027524E+00
         21   -1    0    0  502  501  0.00000000000E+00  0.00000000000E+00  0.29632117276E+04  0.29632117276E+04  0.00000000000E+00 0. -1.
         21   -1    0    0  501  502 -0.00000000000E+00 -0.00000000000E+00 -0.17135050108E+02  0.17135050108E+02  0.00000000000E+00 0. -1.
      99926    2    1    2    0    0  0.00000000000E+00  0.00000000000E+00  0.29460766775E+04  0.29803467777E+04  0.45066520360E+03 0.  0.
      99925    2    3    3    0    0  0.97160134034E+02  0.13691646652E+02  0.15403270435E+04  0.15656358198E+04  0.26264151708E+03 0.  0.
         25    1    3    3    0    0 -0.97160134034E+02 -0.13691646652E+02  0.14057496340E+04  0.14147109579E+04  0.12509000000E+03 0.  0.
         25    1    4    4    0    0  0.44368174406E+02 -0.15913932216E+01  0.97703270794E+03  0.98600785388E+03  0.12509000000E+03 0.  0.
         25    1    4    4    0    0  0.52791959628E+02  0.15283039874E+02  0.56329433555E+03  0.57962796591E+03  0.12509000000E+03 0.  0.
<mgrwt>
<rscale>  2 0.45066520E+03</rscale>
<asrwt>0</asrwt>
<pdfrwt beam="1">  1       21 0.43576608E+00 0.45066520E+03</pdfrwt>
<pdfrwt beam="2">  1       21 0.25198623E-02 0.45066520E+03</pdfrwt>
<totfact> 0.34738800E+03</totfact>
</mgrwt>
</event>
<event>
 7    0  0.4725730E-002  0.4578521E+03  0.7546771E-02  0.1025406E+00
         21   -1    0    0  502  501  0.00000000000E+00  0.00000000000E+00  0.13092770641E+04  0.13092770641E+04  0.00000000000E+00 0. -1.
         21   -1    0    0  501  502 -0.00000000000E+00 -0.00000000000E+00 -0.40027544991E+02  0.40027544991E+02  0.00000000000E+00 0. -1.
      99926    2    1    2    0    0  0.00000000000E+00  0.00000000000E+00  0.12692495191E+04  0.13493046091E+04  0.45785214465E+03 0.  0.
      99925    2    3    3    0    0 -0.95825868631E+02  0.32646495245E+02  0.63068132547E+03  0.69077196998E+03  0.26298020735E+03 0.  0.
         25    1    3    3    0    0  0.95825868631E+02 -0.32646495245E+02  0.63856819364E+03  0.65853263911E+03  0.12509000000E+03 0.  0.
         25    1    4    4    0    0 -0.34571533089E+02  0.82630148090E+01  0.39576645027E+03  0.41658379658E+03  0.12509000000E+03 0.  0.
         25    1    4    4    0    0 -0.61254335542E+02  0.24383480436E+02  0.23491487520E+03  0.27418817340E+03  0.12509000000E+03 0.  0.
<mgrwt>
<rscale>  2 0.45785214E+03</rscale>
<asrwt>0</asrwt>
<pdfrwt beam="1">  1       21 0.19254072E+00 0.45785214E+03</pdfrwt>
<pdfrwt beam="2">  1       21 0.58864045E-02 0.45785214E+03</pdfrwt>
<totfact> 0.27108781E+04</totfact>
</mgrwt>
</event>
<event>
 7    0  0.4725730E-002  0.4424752E+03  0.7546771E-02  0.1029990E+00
         21   -1    0    0  502  501  0.00000000000E+00  0.00000000000E+00  0.14860418288E+03  0.14860418288E+03  0.00000000000E+00 0. -1.
         21   -1    0    0  501  502 -0.00000000000E+00 -0.00000000000E+00 -0.32937207114E+03  0.32937207114E+03  0.00000000000E+00 0. -1.
      99926    2    1    2    0    0  0.14210854715E-13  0.00000000000E+00 -0.18076788826E+03  0.47797625402E+03  0.44247516312E+03 0.  0.
      99925    2    3    3    0    0 -0.83118242269E+02  0.54653573951E+02 -0.96482113561E+02  0.29729073922E+03  0.26301583611E+03 0.  0.
         25    1    4    4    0    0 -0.24554441705E+02 -0.11070052180E+02 -0.37326065139E+02  0.13328994674E+03  0.12509000000E+03 0.  0.
         25    1    4    4    0    0 -0.58563800564E+02  0.65723626132E+02 -0.59156048422E+02  0.16400079248E+03  0.12509000000E+03 0.  0.
         25    1    3    3    0    0  0.83118242269E+02 -0.54653573951E+02 -0.84285774701E+02  0.18068551481E+03  0.12509000000E+03 0.  0.
<mgrwt>
<rscale>  2 0.44247516E+03</rscale>
<asrwt>0</asrwt>
<pdfrwt beam="1">  1       21 0.21853556E-01 0.44247516E+03</pdfrwt>
<pdfrwt beam="2">  1       21 0.48437070E-01 0.44247516E+03</pdfrwt>
<totfact> 0.73929241E+04</totfact>
</mgrwt>
</event>
<event>
 7    0  0.4725730E-002  0.4577069E+03  0.7546771E-02  0.1025448E+00
         21   -1    0    0  502  501  0.00000000000E+00  0.00000000000E+00  0.42677454573E+03  0.42677454573E+03  0.00000000000E+00 0. -1.
         21   -1    0    0  501  502 -0.00000000000E+00 -0.00000000000E+00 -0.12272029119E+03  0.12272029119E+03  0.00000000000E+00 0. -1.
      99926    2    1    2    0    0  0.00000000000E+00 -0.35527136788E-14  0.30405425455E+03  0.54949483692E+03  0.45770687792E+03 0.  0.
      99925    2    3    3    0    0  0.76145074249E+02  0.23492879062E+02  0.90135872409E+02  0.28919007320E+03  0.26297611154E+03 0.  0.
         25    1    3    3    0    0 -0.76145074249E+02 -0.23492879062E+02  0.21391838214E+03  0.26030476372E+03  0.12509000000E+03 0.  0.
         25    1    4    4    0    0  0.42106907376E+02 -0.54949112538E+01  0.65962060791E+01  0.13226565591E+03  0.12509000000E+03 0.  0.
         25    1    4    4    0    0  0.34038166874E+02  0.28987790316E+02  0.83539666330E+02  0.15692441729E+03  0.12509000000E+03 0.  0.
<mgrwt>
<rscale>  2 0.45770688E+03</rscale>
<asrwt>0</asrwt>
<pdfrwt beam="1">  1       21 0.62760962E-01 0.45770688E+03</pdfrwt>
<pdfrwt beam="2">  1       21 0.18047102E-01 0.45770688E+03</pdfrwt>
<totfact> 0.60591750E+04</totfact>
</mgrwt>
</event>
<event>
 7    0  0.4725730E-002  0.4447677E+03  0.7546771E-02  0.1029294E+00
         21   -1    0    0  502  501  0.00000000000E+00  0.00000000000E+00  0.11303113786E+03  0.11303113786E+03  0.00000000000E+00 0.  1.
         21   -1    0    0  501  502 -0.00000000000E+00 -0.00000000000E+00 -0.43753052856E+03  0.43753052856E+03  0.00000000000E+00 0.  1.
      99926    2    1    2    0    0  0.00000000000E+00  0.26645352591E-14 -0.32449939070E+03  0.55056166642E+03  0.44476768538E+03 0.  0.
      99925    2    3    3    0    0 -0.87431092459E+02  0.18878927543E+01 -0.27418780511E+03  0.38985533856E+03  0.26298378746E+03 0.  0.
         25    1    3    3    0    0  0.87431092459E+02 -0.18878927543E+01 -0.50311585590E+02  0.16070632785E+03  0.12509000000E+03 0.  0.
         25    1    4    4    0    0 -0.15441091158E+02  0.29362189177E+02 -0.11359255397E+03  0.17219564996E+03  0.12509000000E+03 0.  0.
         25    1    4    4    0    0 -0.71990001302E+02 -0.27474296423E+02 -0.16059525115E+03  0.21765968860E+03  0.12509000000E+03 0.  0.
<mgrwt>
<rscale>  2 0.44476769E+03</rscale>
<asrwt>0</asrwt>
<pdfrwt beam="1">  1       21 0.16622226E-01 0.44476769E+03</pdfrwt>
<pdfrwt beam="2">  1       21 0.64342725E-01 0.44476769E+03</pdfrwt>
<totfact> 0.67098606E+04</totfact>
</mgrwt>
</event>
<event>
 7    0  0.4725730E-002  0.4460144E+03  0.7546771E-02  0.1028917E+00
         21   -1    0    0  502  501  0.00000000000E+00  0.00000000000E+00  0.11405247873E+03  0.11405247873E+03  0.00000000000E+00 0. -1.
         21   -1    0    0  501  502 -0.00000000000E+00 -0.00000000000E+00 -0.43604672576E+03  0.43604672576E+03  0.00000000000E+00 0. -1.
      99926    2    1    2    0    0  0.00000000000E+00  0.00000000000E+00 -0.32199424703E+03  0.55009920450E+03  0.44601439402E+03 0.  0.
      99925    2    3    3    0    0  0.10191587358E+03 -0.23221211129E+02 -0.20147658207E+03  0.34737257675E+03  0.26296163982E+03 0.  0.
         25    1    3    3    0    0 -0.10191587358E+03  0.23221211129E+02 -0.12051766496E+03  0.20272662775E+03  0.12509000000E+03 0.  0.
         25    1    4    4    0    0  0.70772023805E+02  0.23732780649E+02 -0.98861188554E+02  0.17604819492E+03  0.12509000000E+03 0.  0.
         25    1    4    4    0    0  0.31143849773E+02 -0.46953991777E+02 -0.10261539352E+03  0.17132438183E+03  0.12509000000E+03 0.  0.
<mgrwt>
<rscale>  2 0.44601439E+03</rscale>
<asrwt>0</asrwt>
<pdfrwt beam="1">  1       21 0.16772423E-01 0.44601439E+03</pdfrwt>
<pdfrwt beam="2">  1       21 0.64124519E-01 0.44601439E+03</pdfrwt>
<totfact> 0.66460228E+04</totfact>
</mgrwt>
</event>
<event>
 7    0  0.4725730E-002  0.4625543E+03  0.7546771E-02  0.1024043E+00
         21   -1    0    0  502  501  0.00000000000E+00  0.00000000000E+00  0.69540140787E+02  0.69540140787E+02  0.00000000000E+00 0.  1.
         21   -1    0    0  501  502 -0.00000000000E+00 -0.00000000000E+00 -0.76918331422E+03  0.76918331422E+03  0.00000000000E+00 0.  1.
      99926    2    1    2    0    0  0.14210854715E-13 -0.35527136788E-14 -0.69964317344E+03  0.83872345501E+03  0.46255428205E+03 0.  0.
      99925    2    3    3    0    0  0.11292923662E+03  0.30955032197E+02 -0.48467019335E+03  0.56381962315E+03  0.26320361819E+03 0.  0.
         25    1    3    3    0    0 -0.11292923662E+03 -0.30955032197E+02 -0.21497298009E+03  0.27490383186E+03  0.12509000000E+03 0.  0.
         25    1    4    4    0    0  0.72487147763E+02 -0.47709660513E+01 -0.18668332738E+03  0.23616799429E+03  0.12509000000E+03 0.  0.
         25    1    4    4    0    0  0.40442088860E+02  0.35725998248E+02 -0.29798686597E+03  0.32765162886E+03  0.12509000000E+03 0.  0.
<mgrwt>
<rscale>  2 0.46255428E+03</rscale>
<asrwt>0</asrwt>
<pdfrwt beam="1">  1       21 0.10226490E-01 0.46255428E+03</pdfrwt>
<pdfrwt beam="2">  1       21 0.11311521E+00 0.46255428E+03</pdfrwt>
<totfact> 0.43322816E+04</totfact>
</mgrwt>
</event>
<event>
 7    0  0.4725730E-002  0.4557372E+03  0.7546771E-02  0.1026025E+00
         21   -1    0    0  502  501  0.00000000000E+00  0.00000000000E+00  0.14091197099E+03  0.14091197099E+03  0.00000000000E+00 0.  1.
         21   -1    0    0  501  502 -0.00000000000E+00 -0.00000000000E+00 -0.36848612089E+03  0.36848612089E+03  0.00000000000E+00 0.  1.
      99926    2    1    2    0    0 -0.35527136788E-14 -0.14210854715E-13 -0.22757414990E+03  0.50939809188E+03  0.45573722944E+03 0.  0.
      99925    2    3    3    0    0 -0.26403192096E+02 -0.11020668864E+03 -0.13081936119E+03  0.31484311247E+03  0.26300159207E+03 0.  0.
         25    1    4    4    0    0 -0.89326905051E+01 -0.13763388005E+02 -0.72855463150E+02  0.14568682308E+03  0.12509000000E+03 0.  0.
         25    1    4    4    0    0 -0.17470501591E+02 -0.96443300631E+02 -0.57963898042E+02  0.16915628939E+03  0.12509000000E+03 0.  0.
         25    1    3    3    0    0  0.26403192096E+02  0.11020668864E+03 -0.96754788714E+02  0.19455497941E+03  0.12509000000E+03 0.  0.
<mgrwt>
<rscale>  2 0.45573723E+03</rscale>
<asrwt>0</asrwt>
<pdfrwt beam="1">  1       21 0.20722349E-01 0.45573723E+03</pdfrwt>
<pdfrwt beam="2">  1       21 0.54189135E-01 0.45573723E+03</pdfrwt>
<totfact> 0.64238646E+04</totfact>
</mgrwt>
</event>
<event>
 7    0  0.4725730E-002  0.4474317E+03  0.7546771E-02  0.1028491E+00
         21   -1    0    0  502  501  0.00000000000E+00  0.00000000000E+00  0.29041689107E+02  0.29041689107E+02  0.00000000000E+00 0. -1.
         21   -1    0    0  501  502 -0.00000000000E+00 -0.00000000000E+00 -0.17233423951E+04  0.17233423951E+04  0.00000000000E+00 0. -1.
      99926    2    1    2    0    0  0.00000000000E+00  0.00000000000E+00 -0.16943007060E+04  0.17523840842E+04  0.44743166657E+03 0.  0.
      99925    2    3    3    0    0  0.68257987163E+02  0.80180715617E+02 -0.11200252076E+04  0.11552844643E+04  0.26294035020E+03 0.  0.
         25    1    3    3    0    0 -0.68257987163E+02 -0.80180715617E+02 -0.57427549837E+03  0.59709961991E+03  0.12509000000E+03 0.  0.
         25    1    4    4    0    0  0.20892545690E+02  0.78921966755E+02 -0.57523724536E+03  0.59431521253E+03  0.12509000000E+03 0.  0.
         25    1    4    4    0    0  0.47365441473E+02  0.12587488627E+01 -0.54478796225E+03  0.56096925174E+03  0.12509000000E+03 0.  0.
<mgrwt>
<rscale>  2 0.44743167E+03</rscale>
<asrwt>0</asrwt>
<pdfrwt beam="1">  1       21 0.42708359E-02 0.44743167E+03</pdfrwt>
<pdfrwt beam="2">  1       21 0.25343275E+00 0.44743167E+03</pdfrwt>
<totfact> 0.19302060E+04</totfact>
</mgrwt>
</event>
<event>
 7    0  0.4725730E-002  0.4562824E+03  0.7546771E-02  0.1025865E+00
         21   -1    0    0  502  501  0.00000000000E+00  0.00000000000E+00  0.28577416275E+03  0.28577416275E+03  0.00000000000E+00 0.  1.
         21   -1    0    0  501  502 -0.00000000000E+00 -0.00000000000E+00 -0.18213128482E+03  0.18213128482E+03  0.00000000000E+00 0.  1.
      99926    2    1    2    0    0 -0.14210854715E-13  0.00000000000E+00  0.10364287793E+03  0.46790544758E+03  0.45628243636E+03 0.  0.
      99925    2    3    3    0    0 -0.66492752111E+02 -0.88539728064E+01  0.16012391865E+03  0.31513995743E+03  0.26300920997E+03 0.  0.
         25    1    4    4    0    0 -0.69351705494E+02 -0.68520249554E+01  0.10901040364E+03  0.17996495632E+03  0.12509000000E+03 0.  0.
         25    1    4    4    0    0  0.28589533832E+01 -0.20019478510E+01  0.51113515010E+02  0.13517500111E+03  0.12509000000E+03 0.  0.
         25    1    3    3    0    0  0.66492752111E+02  0.88539728064E+01 -0.56481040720E+02  0.15276549014E+03  0.12509000000E+03 0.  0.
<mgrwt>
<rscale>  2 0.45628244E+03</rscale>
<asrwt>0</asrwt>
<pdfrwt beam="1">  1       21 0.42025612E-01 0.45628244E+03</pdfrwt>
<pdfrwt beam="2">  1       21 0.26784012E-01 0.45628244E+03</pdfrwt>
<totfact> 0.66908883E+04</totfact>
</mgrwt>
</event>
<event>
 7    0  0.4725730E-002  0.4568464E+03  0.7546771E-02  0.1025700E+00
         21   -1    0    0  502  501  0.00000000000E+00  0.00000000000E+00  0.22963584875E+03  0.22963584875E+03  0.00000000000E+00 0.  1.
         21   -1    0    0  501  502 -0.00000000000E+00 -0.00000000000E+00 -0.22721700180E+03  0.22721700180E+03  0.00000000000E+00 0.  1.
      99926    2    1    2    0    0  0.00000000000E+00 -0.88817841970E-15  0.24188469430E+01  0.45685285055E+03  0.45684644711E+03 0.  0.
      99925    2    3    3    0    0  0.11322065252E+03 -0.40803014688E+01 -0.16329412231E+02  0.28704539977E+03  0.26323534491E+03 0.  0.
         25    1    4    4    0    0  0.21558947065E+02  0.13205733918E+02  0.12979534308E+02  0.12827765206E+03  0.12509000000E+03 0.  0.
         25    1    4    4    0    0  0.91661705459E+02 -0.17286035387E+02 -0.29308946539E+02  0.15876774771E+03  0.12509000000E+03 0.  0.
         25    1    3    3    0    0 -0.11322065252E+03  0.40803014688E+01  0.18748259174E+02  0.16980745078E+03  0.12509000000E+03 0.  0.
<mgrwt>
<rscale>  2 0.45684645E+03</rscale>
<asrwt>0</asrwt>
<pdfrwt beam="1">  1       21 0.33769978E-01 0.45684645E+03</pdfrwt>
<pdfrwt beam="2">  1       21 0.33414265E-01 0.45684645E+03</pdfrwt>
<totfact> 0.67411619E+04</totfact>
</mgrwt>
</event>
<event>
 7    0  0.4725730E-002  0.4548313E+03  0.7546771E-02  0.1026291E+00
         21   -1    0    0  502  501  0.00000000000E+00  0.00000000000E+00  0.49936294276E+02  0.49936294276E+02  0.00000000000E+00 0.  1.
         21   -1    0    0  501  502 -0.00000000000E+00 -0.00000000000E+00 -0.10356769955E+04  0.10356769955E+04  0.00000000000E+00 0.  1.
      99926    2    1    2    0    0  0.71054273576E-14  0.00000000000E+00 -0.98574070118E+03  0.10856132897E+04  0.45483127078E+03 0.  0.
      99925    2    3    3    0    0  0.58809687169E+02  0.91226998472E+02 -0.54555102658E+03  0.61529913698E+03  0.26303262309E+03 0.  0.
         25    1    4    4    0    0 -0.56101765800E+01  0.39872492456E+02 -0.30237158318E+03  0.32969284516E+03  0.12509000000E+03 0.  0.
         25    1    4    4    0    0  0.64419863749E+02  0.51354506017E+02 -0.24317944340E+03  0.28560629182E+03  0.12509000000E+03 0.  0.
         25    1    3    3    0    0 -0.58809687169E+02 -0.91226998472E+02 -0.44018967460E+03  0.47031415276E+03  0.12509000000E+03 0.  0.
<mgrwt>
<rscale>  2 0.45483127E+03</rscale>
<asrwt>0</asrwt>
<pdfrwt beam="1">  1       21 0.73435726E-02 0.45483127E+03</pdfrwt>
<pdfrwt beam="2">  1       21 0.15230544E+00 0.45483127E+03</pdfrwt>
<totfact> 0.36044541E+04</totfact>
</mgrwt>
</event>
<event>
 7    0  0.4725730E-002  0.4547767E+03  0.7546771E-02  0.1026307E+00
         21   -1    0    0  502  501  0.00000000000E+00  0.00000000000E+00  0.12169684278E+03  0.12169684278E+03  0.00000000000E+00 0.  1.
         21   -1    0    0  501  502 -0.00000000000E+00 -0.00000000000E+00 -0.42487097574E+03  0.42487097574E+03  0.00000000000E+00 0.  1.
      99926    2    1    2    0    0  0.00000000000E+00  0.00000000000E+00 -0.30317413297E+03  0.54656781852E+03  0.45477667634E+03 0.  0.
      99925    2    3    3    0    0  0.23438240757E+02 -0.10119828517E+03 -0.13786623637E+03  0.31469575718E+03  0.26312711074E+03 0.  0.
         25    1    4    4    0    0 -0.37649884896E+01 -0.82346209152E+02 -0.99095513898E+02  0.17961765580E+03  0.12509000000E+03 0.  0.
         25    1    4    4    0    0  0.27203229247E+02 -0.18852076021E+02 -0.38770722472E+02  0.13507810138E+03  0.12509000000E+03 0.  0.
         25    1    3    3    0    0 -0.23438240757E+02  0.10119828517E+03 -0.16530789660E+03  0.23187206134E+03  0.12509000000E+03 0.  0.
<mgrwt>
<rscale>  2 0.45477668E+03</rscale>
<asrwt>0</asrwt>
<pdfrwt beam="1">  1       21 0.17896594E-01 0.45477668E+03</pdfrwt>
<pdfrwt beam="2">  1       21 0.62481027E-01 0.45477668E+03</pdfrwt>
<totfact> 0.62203730E+04</totfact>
</mgrwt>
</event>
<event>
 7    0  0.4725730E-002  0.4502100E+03  0.7546771E-02  0.1027659E+00
         21   -1    0    0  502  501  0.00000000000E+00  0.00000000000E+00  0.17314114218E+03  0.17314114218E+03  0.00000000000E+00 0.  1.
         21   -1    0    0  501  502 -0.00000000000E+00 -0.00000000000E+00 -0.29266453231E+03  0.29266453231E+03  0.00000000000E+00 0.  1.
      99926    2    1    2    0    0 -0.88817841970E-15  0.00000000000E+00 -0.11952339012E+03  0.46580567449E+03  0.45021004609E+03 0.  0.
      99925    2    3    3    0    0 -0.46000520691E+01  0.81341776529E+02 -0.14988761901E+03  0.31346677734E+03  0.26297809239E+03 0.  0.
         25    1    4    4    0    0 -0.41438122590E+02  0.48657974987E+02 -0.85056272204E+02  0.16421569375E+03  0.12509000000E+03 0.  0.
         25    1    3    3    0    0  0.46000520691E+01 -0.81341776529E+02  0.30364228889E+02  0.15233889715E+03  0.12509000000E+03 0.  0.
         25    1    4    4    0    0  0.36838070521E+02  0.32683801542E+02 -0.64831346809E+02  0.14925108359E+03  0.12509000000E+03 0.  0.
<mgrwt>
<rscale>  2 0.45021005E+03</rscale>
<asrwt>0</asrwt>
<pdfrwt beam="1">  1       21 0.25461933E-01 0.45021005E+03</pdfrwt>
<pdfrwt beam="2">  1       21 0.43038901E-01 0.45021005E+03</pdfrwt>
<totfact> 0.70385684E+04</totfact>
</mgrwt>
</event>
<event>
 7    0  0.4725730E-002  0.4727687E+03  0.7546771E-02  0.1021142E+00
         21   -1    0    0  502  501  0.00000000000E+00  0.00000000000E+00  0.36628452612E+03  0.36628452612E+03  0.00000000000E+00 0.  1.
         21   -1    0    0  501  502 -0.00000000000E+00 -0.00000000000E+00 -0.15255233835E+03  0.15255233835E+03  0.00000000000E+00 0.  1.
      99926    2    1    2    0    0 -0.14210854715E-13 -0.88817841970E-15  0.21373218777E+03  0.51883686447E+03  0.47276870015E+03 0.  0.
      99925    2    3    3    0    0  0.12177108413E+03 -0.63109095838E+01  0.17938885200E+03  0.34080597580E+03  0.26286941322E+03 0.  0.
         25    1    4    4    0    0  0.39539310297E+02  0.81961057461E+01  0.44487226653E+02  0.13877015040E+03  0.12509000000E+03 0.  0.
         25    1    3    3    0    0 -0.12177108413E+03  0.63109095838E+01  0.34343335772E+02  0.17803088867E+03  0.12509000000E+03 0.  0.
         25    1    4    4    0    0  0.82231773831E+02 -0.14507015330E+02  0.13490162535E+03  0.20203582539E+03  0.12509000000E+03 0.  0.
<mgrwt>
<rscale>  2 0.47276870E+03</rscale>
<asrwt>0</asrwt>
<pdfrwt beam="1">  1       21 0.53865371E-01 0.47276870E+03</pdfrwt>
<pdfrwt beam="2">  1       21 0.22434167E-01 0.47276870E+03</pdfrwt>
<totfact> 0.55689058E+04</totfact>
</mgrwt>
</event>
<event>
 7    0  0.4725730E-002  0.4852863E+03  0.7546771E-02  0.1017692E+00
         21   -1    0    0  502  501  0.00000000000E+00  0.00000000000E+00  0.12383304576E+03  0.12383304576E+03  0.00000000000E+00 0.  1.
         21   -1    0    0  501  502 -0.00000000000E+00 -0.00000000000E+00 -0.47544408505E+03  0.47544408505E+03  0.00000000000E+00 0.  1.
      99926    2    1    2    0    0  0.14210854715E-13  0.35527136788E-14 -0.35161103929E+03  0.59927713081E+03  0.48528626249E+03 0.  0.
      99925    2    3    3    0    0  0.12424994517E+03  0.28097331052E+02 -0.28655278901E+03  0.40925715050E+03  0.26296654817E+03 0.  0.
         25    1    3    3    0    0 -0.12424994517E+03 -0.28097331052E+02 -0.65058250277E+02  0.19001998031E+03  0.12509000000E+03 0.  0.
         25    1    4    4    0    0  0.10255668529E+03  0.10393862529E+02 -0.13652811936E+03  0.21192768001E+03  0.12509000000E+03 0.  0.
         25    1    4    4    0    0  0.21693259886E+02  0.17703468523E+02 -0.15002466965E+03  0.19732947049E+03  0.12509000000E+03 0.  0.
<mgrwt>
<rscale>  2 0.48528626E+03</rscale>
<asrwt>0</asrwt>
<pdfrwt beam="1">  1       21 0.18210742E-01 0.48528626E+03</pdfrwt>
<pdfrwt beam="2">  1       21 0.69918247E-01 0.48528626E+03</pdfrwt>
<totfact> 0.46542155E+04</totfact>
</mgrwt>
</event>
<event>
 7    0  0.4725730E-002  0.4437259E+03  0.7546771E-02  0.1029610E+00
         21   -1    0    0  502  501  0.00000000000E+00  0.00000000000E+00  0.40833225242E+03  0.40833225242E+03  0.00000000000E+00 0. -1.
         21   -1    0    0  501  502 -0.00000000000E+00 -0.00000000000E+00 -0.12054682916E+03  0.12054682916E+03  0.00000000000E+00 0. -1.
      99926    2    1    2    0    0  0.00000000000E+00  0.00000000000E+00  0.28778542326E+03  0.52887908158E+03  0.44372585353E+03 0.  0.
      99925    2    3    3    0    0 -0.54353270179E+02  0.74401403893E+02  0.13096017118E+03  0.30812692492E+03  0.26325232866E+03 0.  0.
         25    1    3    3    0    0  0.54353270179E+02 -0.74401403893E+02  0.15682525208E+03  0.22075215666E+03  0.12509000000E+03 0.  0.
         25    1    4    4    0    0 -0.57499201671E+02  0.35121828794E+02  0.98904157829E+02  0.17311626609E+03  0.12509000000E+03 0.  0.
         25    1    4    4    0    0  0.31459314911E+01  0.39279575098E+02  0.32056013348E+02  0.13501065883E+03  0.12509000000E+03 0.  0.
<mgrwt>
<rscale>  2 0.44372585E+03</rscale>
<asrwt>0</asrwt>
<pdfrwt beam="1">  1       21 0.60048860E-01 0.44372585E+03</pdfrwt>
<pdfrwt beam="2">  1       21 0.17727475E-01 0.44372585E+03</pdfrwt>
<totfact> 0.69261611E+04</totfact>
</mgrwt>
</event>
<event>
 7    0  0.4725730E-002  0.4501165E+03  0.7546771E-02  0.1027687E+00
         21   -1    0    0  502  501  0.00000000000E+00  0.00000000000E+00  0.95945391914E+02  0.95945391914E+02  0.00000000000E+00 0.  1.
         21   -1    0    0  501  502 -0.00000000000E+00 -0.00000000000E+00 -0.52791722080E+03  0.52791722080E+03  0.00000000000E+00 0.  1.
      99926    2    1    2    0    0  0.00000000000E+00  0.00000000000E+00 -0.43197182889E+03  0.62386261272E+03  0.45011653890E+03 0.  0.
      99925    2    3    3    0    0  0.97050446905E+02  0.18122285780E+02 -0.33520064057E+03  0.43742394325E+03  0.26312170225E+03 0.  0.
         25    1    4    4    0    0  0.60914467313E+02 -0.97534429016E+01 -0.22432885399E+03  0.26415269222E+03  0.12509000000E+03 0.  0.
         25    1    3    3    0    0 -0.97050446905E+02 -0.18122285780E+02 -0.96771188313E+02  0.18643866947E+03  0.12509000000E+03 0.  0.
         25    1    4    4    0    0  0.36135979593E+02  0.27875728682E+02 -0.11087178659E+03  0.17327125103E+03  0.12509000000E+03 0.  0.
<mgrwt>
<rscale>  2 0.45011654E+03</rscale>
<asrwt>0</asrwt>
<pdfrwt beam="1">  1       21 0.14109617E-01 0.45011654E+03</pdfrwt>
<pdfrwt beam="2">  1       21 0.77634883E-01 0.45011654E+03</pdfrwt>
<totfact> 0.59493895E+04</totfact>
</mgrwt>
</event>
<event>
 7    0  0.4725730E-002  0.4533220E+03  0.7546771E-02  0.1026736E+00
         21   -1    0    0  502  501  0.00000000000E+00  0.00000000000E+00  0.54128891975E+03  0.54128891975E+03  0.00000000000E+00 0.  1.
         21   -1    0    0  501  502 -0.00000000000E+00 -0.00000000000E+00 -0.94912727397E+02  0.94912727397E+02  0.00000000000E+00 0.  1.
      99926    2    1    2    0    0  0.17763568394E-14 -0.14210854715E-13  0.44637619236E+03  0.63620164715E+03  0.45332199454E+03 0.  0.
      99925    2    3    3    0    0  0.14186996134E+02  0.10555269898E+03  0.32773183117E+03  0.43355260160E+03  0.26309135689E+03 0.  0.
         25    1    4    4    0    0  0.23453657710E+02  0.76858277244E+02  0.12920684132E+03  0.19697508671E+03  0.12509000000E+03 0.  0.
         25    1    3    3    0    0 -0.14186996134E+02 -0.10555269898E+03  0.11864436118E+03  0.20264904555E+03  0.12509000000E+03 0.  0.
         25    1    4    4    0    0 -0.92666615759E+01  0.28694421735E+02  0.19852498985E+03  0.23657751489E+03  0.12509000000E+03 0.  0.
<mgrwt>
<rscale>  2 0.45332199E+03</rscale>
<asrwt>0</asrwt>
<pdfrwt beam="1">  1       21 0.79601311E-01 0.45332199E+03</pdfrwt>
<pdfrwt beam="2">  1       21 0.13957754E-01 0.45332199E+03</pdfrwt>
<totfact> 0.57258033E+04</totfact>
</mgrwt>
</event>
<event>
 7    0  0.4725730E-002  0.4550441E+03  0.7546771E-02  0.1026228E+00
         21   -1    0    0  502  501  0.00000000000E+00  0.00000000000E+00  0.61473686384E+03  0.61473686384E+03  0.00000000000E+00 0. -1.
         21   -1    0    0  501  502 -0.00000000000E+00 -0.00000000000E+00 -0.84208851240E+02  0.84208851240E+02  0.00000000000E+00 0. -1.
      99926    2    1    2    0    0  0.71054273576E-14  0.00000000000E+00  0.53052801260E+03  0.69894571508E+03  0.45504410827E+03 0.  0.
      99925    2    3    3    0    0 -0.43101174630E+02 -0.10187660246E+03  0.29725207895E+03  0.41206294686E+03  0.26305991779E+03 0.  0.
         25    1    4    4    0    0 -0.32770151873E+02 -0.12405288785E+02  0.15583085695E+03  0.20287567158E+03  0.12509000000E+03 0.  0.
         25    1    3    3    0    0  0.43101174630E+02  0.10187660246E+03  0.23327593365E+03  0.28688276822E+03  0.12509000000E+03 0.  0.
         25    1    4    4    0    0 -0.10331022757E+02 -0.89471313678E+02  0.14142122200E+03  0.20918727527E+03  0.12509000000E+03 0.  0.
<mgrwt>
<rscale>  2 0.45504411E+03</rscale>
<asrwt>0</asrwt>
<pdfrwt beam="1">  1       21 0.90402478E-01 0.45504411E+03</pdfrwt>
<pdfrwt beam="2">  1       21 0.12383655E-01 0.45504411E+03</pdfrwt>
<totfact> 0.52941859E+04</totfact>
</mgrwt>
</event>
<event>
 7    0  0.4725730E-002  0.4485599E+03  0.7546771E-02  0.1028152E+00
         21   -1    0    0  502  501  0.00000000000E+00  0.00000000000E+00  0.76638472625E+03  0.76638472625E+03  0.00000000000E+00 0. -1.
         21   -1    0    0  501  502 -0.00000000000E+00 -0.00000000000E+00 -0.65634798060E+02  0.65634798060E+02  0.00000000000E+00 0. -1.
      99926    2    1    2    0    0  0.00000000000E+00  0.00000000000E+00  0.70074992819E+03  0.83201952431E+03  0.44855994803E+03 0.  0.
      99925    2    3    3    0    0  0.28665774725E+02  0.98915430756E+02  0.39285431260E+03  0.48409251001E+03  0.26344839767E+03 0.  0.
         25    1    3    3    0    0 -0.28665774725E+02 -0.98915430756E+02  0.30789561559E+03  0.34792701430E+03  0.12509000000E+03 0.  0.
         25    1    4    4    0    0  0.34333291424E+01  0.43821169932E+02  0.25980798097E+03  0.29168438039E+03  0.12509000000E+03 0.  0.
         25    1    4    4    0    0  0.25232445583E+02  0.55094260824E+02  0.13304633163E+03  0.19240812963E+03  0.12509000000E+03 0.  0.
<mgrwt>
<rscale>  2 0.44855995E+03</rscale>
<asrwt>0</asrwt>
<pdfrwt beam="1">  1       21 0.11270363E+00 0.44855995E+03</pdfrwt>
<pdfrwt beam="2">  1       21 0.96521767E-02 0.44855995E+03</pdfrwt>
<totfact> 0.48667595E+04</totfact>
</mgrwt>
</event>
<event>
 7    0  0.4725730E-002  0.4686247E+03  0.7546771E-02  0.1022309E+00
         21   -1    0    0  502  501  0.00000000000E+00  0.00000000000E+00  0.21292071655E+03  0.21292071655E+03  0.00000000000E+00 0.  1.
         21   -1    0    0  501  502 -0.00000000000E+00 -0.00000000000E+00 -0.25785312617E+03  0.25785312617E+03  0.00000000000E+00 0.  1.
      99926    2    1    2    0    0 -0.14210854715E-13  0.14210854715E-13 -0.44932409616E+02  0.47077384272E+03  0.46862467878E+03 0.  0.
      99925    2    3    3    0    0  0.77331351176E+02 -0.92834504042E+02  0.62268792930E+01  0.28949184153E+03  0.26299880089E+03 0.  0.
         25    1    4    4    0    0  0.45662614009E+02 -0.11056478142E+02 -0.17951208736E+02  0.13482237953E+03  0.12509000000E+03 0.  0.
         25    1    3    3    0    0 -0.77331351176E+02  0.92834504042E+02 -0.51159288909E+02  0.18128200119E+03  0.12509000000E+03 0.  0.
         25    1    4    4    0    0  0.31668737167E+02 -0.81778025900E+02  0.24178088029E+02  0.15466946200E+03  0.12509000000E+03 0.  0.
<mgrwt>
<rscale>  2 0.46862468E+03</rscale>
<asrwt>0</asrwt>
<pdfrwt beam="1">  1       21 0.31311870E-01 0.46862468E+03</pdfrwt>
<pdfrwt beam="2">  1       21 0.37919577E-01 0.46862468E+03</pdfrwt>
<totfact> 0.60550527E+04</totfact>
</mgrwt>
</event>
<event>
 7    0  0.4725730E-002  0.4480542E+03  0.7546771E-02  0.1028304E+00
         21   -1    0    0  502  501  0.00000000000E+00  0.00000000000E+00  0.10994528121E+03  0.10994528121E+03  0.00000000000E+00 0. -1.
         21   -1    0    0  501  502 -0.00000000000E+00 -0.00000000000E+00 -0.45648290866E+03  0.45648290866E+03  0.00000000000E+00 0. -1.
      99926    2    1    2    0    0  0.00000000000E+00  0.00000000000E+00 -0.34653762745E+03  0.56642818987E+03  0.44805420100E+03 0.  0.
      99925    2    3    3    0    0 -0.33455116530E+02 -0.76173533513E+02 -0.13549990425E+03  0.30737977597E+03  0.26305978521E+03 0.  0.
         25    1    4    4    0    0 -0.23593416815E+02 -0.55270817430E+02 -0.11129057428E+03  0.17788932683E+03  0.12509000000E+03 0.  0.
         25    1    4    4    0    0 -0.98616997154E+01 -0.20902716083E+02 -0.24209329972E+02  0.12949044914E+03  0.12509000000E+03 0.  0.
         25    1    3    3    0    0  0.33455116530E+02  0.76173533513E+02 -0.21103772320E+03  0.25904841390E+03  0.12509000000E+03 0.  0.
<mgrwt>
<rscale>  2 0.44805420E+03</rscale>
<asrwt>0</asrwt>
<pdfrwt beam="1">  1       21 0.16168424E-01 0.44805420E+03</pdfrwt>
<pdfrwt beam="2">  1       21 0.67129839E-01 0.44805420E+03</pdfrwt>
<totfact> 0.64251073E+04</totfact>
</mgrwt>
</event>
<event>
 7    0  0.4725730E-002  0.4681092E+03  0.7546771E-02  0.1022455E+00
         21   -1    0    0  502  501  0.00000000000E+00  0.00000000000E+00  0.13915996823E+03  0.13915996823E+03  0.00000000000E+00 0.  1.
         21   -1    0    0  501  502 -0.00000000000E+00 -0.00000000000E+00 -0.39365887360E+03  0.39365887360E+03  0.00000000000E+00 0.  1.
      99926    2    1    2    0    0  0.00000000000E+00  0.00000000000E+00 -0.25449890536E+03  0.53281884183E+03  0.46810920241E+03 0.  0.
      99925    2    3    3    0    0 -0.36049062983E+01  0.44291640711E+02 -0.25237310505E+02  0.26789785028E+03  0.26297831005E+03 0.  0.
         25    1    3    3    0    0  0.36049062983E+01 -0.44291640711E+02 -0.22926159486E+03  0.26492099155E+03  0.12509000000E+03 0.  0.
         25    1    4    4    0    0 -0.21085300631E+02  0.34542523032E+02  0.20804214623E+02  0.13310935071E+03  0.12509000000E+03 0.  0.
         25    1    4    4    0    0  0.17480394333E+02  0.97491176784E+01 -0.46041525128E+02  0.13478849957E+03  0.12509000000E+03 0.  0.
<mgrwt>
<rscale>  2 0.46810920E+03</rscale>
<asrwt>0</asrwt>
<pdfrwt beam="1">  1       21 0.20464701E-01 0.46810920E+03</pdfrwt>
<pdfrwt beam="2">  1       21 0.57891011E-01 0.46810920E+03</pdfrwt>
<totfact> 0.56872190E+04</totfact>
</mgrwt>
</event>
<event>
 7    0  0.4725730E-002  0.4531284E+03  0.7546771E-02  0.1026793E+00
         21   -1    0    0  502  501  0.00000000000E+00  0.00000000000E+00  0.17244760057E+04  0.17244760057E+04  0.00000000000E+00 0. -1.
         21   -1    0    0  501  502 -0.00000000000E+00 -0.00000000000E+00 -0.29766333059E+02  0.29766333059E+02  0.00000000000E+00 0. -1.
      99926    2    1    2    0    0 -0.88817841970E-15 -0.14210854715E-13  0.16947096727E+04  0.17542423388E+04  0.45312835770E+03 0.  0.
      99925    2    3    3    0    0 -0.41838622468E+01  0.90527034533E+02  0.13193100894E+04  0.13483051467E+04  0.26293536846E+03 0.  0.
         25    1    4    4    0    0 -0.24426668051E+02  0.37712478620E+02  0.80927168366E+03  0.82011405258E+03  0.12509000000E+03 0.  0.
         25    1    3    3    0    0  0.41838622468E+01 -0.90527034533E+02  0.37539958324E+03  0.40593719204E+03  0.12509000000E+03 0.  0.
         25    1    4    4    0    0  0.20242805804E+02  0.52814555913E+02  0.51003840577E+03  0.52819109417E+03  0.12509000000E+03 0.  0.
<mgrwt>
<rscale>  2 0.45312836E+03</rscale>
<asrwt>0</asrwt>
<pdfrwt beam="1">  1       21 0.25359935E+00 0.45312836E+03</pdfrwt>
<pdfrwt beam="2">  1       21 0.43774031E-02 0.45312836E+03</pdfrwt>
<totfact> 0.18421719E+04</totfact>
</mgrwt>
</event>
<event>
 7    0  0.4725730E-002  0.4545546E+03  0.7546771E-02  0.1026372E+00
         21   -1    0    0  502  501  0.00000000000E+00  0.00000000000E+00  0.33448530856E+03  0.33448530856E+03  0.00000000000E+00 0.  1.
         21   -1    0    0  501  502 -0.00000000000E+00 -0.00000000000E+00 -0.15443122187E+03  0.15443122187E+03  0.00000000000E+00 0.  1.
      99926    2    1    2    0    0 -0.35527136788E-14  0.00000000000E+00  0.18005408669E+03  0.48891653043E+03  0.45455461674E+03 0.  0.
      99925    2    3    3    0    0  0.29958778144E+02  0.71846639100E+02  0.20114590052E+03  0.34008158612E+03  0.26293790899E+03 0.  0.
         25    1    3    3    0    0 -0.29958778144E+02 -0.71846639100E+02 -0.21091813830E+02  0.14883494431E+03  0.12509000000E+03 0.  0.
         25    1    4    4    0    0  0.53605639095E+02  0.33807617797E+02  0.87893935186E+02  0.16549734592E+03  0.12509000000E+03 0.  0.
         25    1    4    4    0    0 -0.23646860952E+02  0.38039021302E+02  0.11325196534E+03  0.17458424020E+03  0.12509000000E+03 0.  0.
<mgrwt>
<rscale>  2 0.45455462E+03</rscale>
<asrwt>0</asrwt>
<pdfrwt beam="1">  1       21 0.49189016E-01 0.45455462E+03</pdfrwt>
<pdfrwt beam="2">  1       21 0.22710474E-01 0.45455462E+03</pdfrwt>
<totfact> 0.66290623E+04</totfact>
</mgrwt>
</event>
<event>
 7    0  0.4725730E-002  0.4626826E+03  0.7546771E-02  0.1024006E+00
         21   -1    0    0  502  501  0.00000000000E+00  0.00000000000E+00  0.52735442847E+02  0.52735442847E+02  0.00000000000E+00 0. -1.
         21   -1    0    0  501  502 -0.00000000000E+00 -0.00000000000E+00 -0.10148541996E+04  0.10148541996E+04  0.00000000000E+00 0. -1.
      99926    2    1    2    0    0 -0.71054273576E-14  0.00000000000E+00 -0.96211875676E+03  0.10675896425E+04  0.46268255053E+03 0.  0.
      99925    2    3    3    0    0  0.53397936453E+02 -0.86109602751E+01 -0.84908093421E+03  0.89052878941E+03  0.26301635628E+03 0.  0.
         25    1    4    4    0    0 -0.10859017699E+02 -0.15308270563E+02 -0.44475127184E+03  0.46238886591E+03  0.12509000000E+03 0.  0.
         25    1    4    4    0    0  0.64256954152E+02  0.66973102879E+01 -0.40432966237E+03  0.42813992350E+03  0.12509000000E+03 0.  0.
         25    1    3    3    0    0 -0.53397936453E+02  0.86109602751E+01 -0.11303782255E+03  0.17706085305E+03  0.12509000000E+03 0.  0.
<mgrwt>
<rscale>  2 0.46268255E+03</rscale>
<asrwt>0</asrwt>
<pdfrwt beam="1">  1       21 0.77552131E-02 0.46268255E+03</pdfrwt>
<pdfrwt beam="2">  1       21 0.14924325E+00 0.46268255E+03</pdfrwt>
<totfact> 0.34521902E+04</totfact>
</mgrwt>
</event>
<event>
 7    0  0.4725730E-002  0.4525733E+03  0.7546771E-02  0.1026957E+00
         21   -1    0    0  502  501  0.00000000000E+00  0.00000000000E+00  0.14493386755E+04  0.14493386755E+04  0.00000000000E+00 0. -1.
         21   -1    0    0  501  502 -0.00000000000E+00 -0.00000000000E+00 -0.35330360219E+02  0.35330360219E+02  0.00000000000E+00 0. -1.
      99926    2    1    2    0    0  0.00000000000E+00  0.00000000000E+00  0.14140083152E+04  0.14846690357E+04  0.45257334205E+03 0.  0.
      99925    2    3    3    0    0 -0.21677554019E+02 -0.10862620949E+03  0.89936540888E+03  0.94358272195E+03  0.26309816558E+03 0.  0.
         25    1    3    3    0    0  0.21677554019E+02  0.10862620949E+03  0.51464290636E+03  0.54108631373E+03  0.12509000000E+03 0.  0.
         25    1    4    4    0    0 -0.62288176500E+01 -0.42124892282E+02  0.30540737770E+03  0.33276790586E+03  0.12509000000E+03 0.  0.
         25    1    4    4    0    0 -0.15448736369E+02 -0.66501317212E+02  0.59395803118E+03  0.61081481609E+03  0.12509000000E+03 0.  0.
<mgrwt>
<rscale>  2 0.45257334E+03</rscale>
<asrwt>0</asrwt>
<pdfrwt beam="1">  1       21 0.21313800E+00 0.45257334E+03</pdfrwt>
<pdfrwt beam="2">  1       21 0.51956422E-02 0.45257334E+03</pdfrwt>
<totfact> 0.24618166E+04</totfact>
</mgrwt>
</event>
<event>
 7    0  0.4725730E-002  0.4350173E+03  0.7546771E-02  0.1032287E+00
         21   -1    0    0  502  501  0.00000000000E+00  0.00000000000E+00  0.20674739839E+03  0.20674739839E+03  0.00000000000E+00 0.  1.
         21   -1    0    0  501  502 -0.00000000000E+00 -0.00000000000E+00 -0.22883003700E+03  0.22883003700E+03  0.00000000000E+00 0.  1.
      99926    2    1    2    0    0 -0.35527136788E-14  0.71054273576E-14 -0.22082638607E+02  0.43557743538E+03  0.43501730918E+03 0.  0.
      99925    2    3    3    0    0 -0.29039809019E+02  0.63823875792E+02 -0.75157493666E+02  0.28266816173E+03  0.26331700130E+03 0.  0.
         25    1    3    3    0    0  0.29039809019E+02 -0.63823875792E+02  0.53074855059E+02  0.15290927365E+03  0.12509000000E+03 0.  0.
         25    1    4    4    0    0 -0.49219110256E+02  0.55159435111E+02 -0.34855436979E+02  0.14942387253E+03  0.12509000000E+03 0.  0.
         25    1    4    4    0    0  0.20179301237E+02  0.86644406811E+01 -0.40302056687E+02  0.13324428920E+03  0.12509000000E+03 0.  0.
<mgrwt>
<rscale>  2 0.43501731E+03</rscale>
<asrwt>0</asrwt>
<pdfrwt beam="1">  1       21 0.30404029E-01 0.43501731E+03</pdfrwt>
<pdfrwt beam="2">  1       21 0.33651476E-01 0.43501731E+03</pdfrwt>
<totfact> 0.82361759E+04</totfact>
</mgrwt>
</event>
<event>
 7    0  0.4725730E-002  0.4550113E+03  0.7546771E-02  0.1026238E+00
         21   -1    0    0  502  501  0.00000000000E+00  0.00000000000E+00  0.18164936168E+03  0.18164936168E+03  0.00000000000E+00 0.  1.
         21   -1    0    0  501  502 -0.00000000000E+00 -0.00000000000E+00 -0.28493804278E+03  0.28493804278E+03  0.00000000000E+00 0.  1.
      99926    2    1    2    0    0  0.17763568394E-14 -0.14210854715E-13 -0.10328868110E+03  0.46658740446E+03  0.45501126839E+03 0.  0.
      99925    2    3    3    0    0 -0.15626515263E+02 -0.11210064095E+03 -0.65342584806E+02  0.29367657194E+03  0.26299341025E+03 0.  0.
         25    1    3    3    0    0  0.15626515263E+02  0.11210064095E+03 -0.37946096291E+02  0.17291083252E+03  0.12509000000E+03 0.  0.
         25    1    4    4    0    0 -0.36025224774E+02 -0.56479945800E+02 -0.62977639019E+02  0.15524655299E+03  0.12509000000E+03 0.  0.
         25    1    4    4    0    0  0.20398709511E+02 -0.55620695148E+02 -0.23649457870E+01  0.13843001895E+03  0.12509000000E+03 0.  0.
<mgrwt>
<rscale>  2 0.45501127E+03</rscale>
<asrwt>0</asrwt>
<pdfrwt beam="1">  1       21 0.26713142E-01 0.45501127E+03</pdfrwt>
<pdfrwt beam="2">  1       21 0.41902653E-01 0.45501127E+03</pdfrwt>
<totfact> 0.67684647E+04</totfact>
</mgrwt>
</event>
<event>
 7    0  0.4725730E-002  0.4570553E+03  0.7546771E-02  0.1025639E+00
         21   -1    0    0  502  501  0.00000000000E+00  0.00000000000E+00  0.63408935971E+03  0.63408935971E+03  0.00000000000E+00 0.  1.
         21   -1    0    0  501  502 -0.00000000000E+00 -0.00000000000E+00 -0.82362047177E+02  0.82362047177E+02  0.00000000000E+00 0.  1.
      99926    2    1    2    0    0 -0.59952043330E-14  0.00000000000E+00  0.55172731254E+03  0.71645140689E+03  0.45705534789E+03 0.  0.
      99925    2    3    3    0    0  0.12256923353E+01 -0.68505618268E+02  0.49155179115E+03  0.56165113709E+03  0.26293404944E+03 0.  0.
         25    1    3    3    0    0 -0.12256923353E+01  0.68505618268E+02  0.60175521381E+02  0.15480026980E+03  0.12509000000E+03 0.  0.
         25    1    4    4    0    0 -0.33504342620E+02 -0.46161832137E+02  0.28895301916E+03  0.31999189225E+03  0.12509000000E+03 0.  0.
         25    1    4    4    0    0  0.34730034955E+02 -0.22343786131E+02  0.20259877199E+03  0.24165924484E+03  0.12509000000E+03 0.  0.
<mgrwt>
<rscale>  2 0.45705535E+03</rscale>
<asrwt>0</asrwt>
<pdfrwt beam="1">  1       21 0.93248433E-01 0.45705535E+03</pdfrwt>
<pdfrwt beam="2">  1       21 0.12112066E-01 0.45705535E+03</pdfrwt>
<totfact> 0.51186253E+04</totfact>
</mgrwt>
</event>
<event>
 7    0  0.4725730E-002  0.4569284E+03  0.7546771E-02  0.1025676E+00
         21   -1    0    0  502  501  0.00000000000E+00  0.00000000000E+00  0.88894039522E+03  0.88894039522E+03  0.00000000000E+00 0.  1.
         21   -1    0    0  501  502 -0.00000000000E+00 -0.00000000000E+00 -0.58716983628E+02  0.58716983628E+02  0.00000000000E+00 0.  1.
      99926    2    1    2    0    0 -0.17763568394E-14  0.14210854715E-13  0.83022341160E+03  0.94765737885E+03  0.45692843480E+03 0.  0.
      99925    2    3    3    0    0  0.11331198156E+02 -0.10729959270E+03  0.43724328632E+03  0.52136817467E+03  0.26268133446E+03 0.  0.
         25    1    4    4    0    0  0.20267731205E+02 -0.93482850074E+02  0.23005628891E+03  0.27878885981E+03  0.12509000000E+03 0.  0.
         25    1    3    3    0    0 -0.11331198156E+02  0.10729959270E+03  0.39298012527E+03  0.42628920419E+03  0.12509000000E+03 0.  0.
         25    1    4    4    0    0 -0.89365330482E+01 -0.13816742629E+02  0.20718699741E+03  0.24257931486E+03  0.12509000000E+03 0.  0.
<mgrwt>
<rscale>  2 0.45692843E+03</rscale>
<asrwt>0</asrwt>
<pdfrwt beam="1">  1       21 0.13072652E+00 0.45692843E+03</pdfrwt>
<pdfrwt beam="2">  1       21 0.86348511E-02 0.45692843E+03</pdfrwt>
<totfact> 0.40619779E+04</totfact>
</mgrwt>
</event>
<event>
 7    0  0.4725730E-002  0.4533447E+03  0.7546771E-02  0.1026729E+00
         21   -1    0    0  502  501  0.00000000000E+00  0.00000000000E+00  0.15014047625E+04  0.15014047625E+04  0.00000000000E+00 0. -1.
         21   -1    0    0  501  502 -0.00000000000E+00 -0.00000000000E+00 -0.34221514086E+02  0.34221514086E+02  0.00000000000E+00 0. -1.
      99926    2    1    2    0    0  0.00000000000E+00  0.00000000000E+00  0.14671832484E+04  0.15356262766E+04  0.45334465578E+03 0.  0.
      99925    2    3    3    0    0  0.58180782475E+02  0.35473970968E+02  0.12240860230E+04  0.12538689783E+04  0.26297797785E+03 0.  0.
         25    1    4    4    0    0  0.51973774464E+02 -0.14546401400E+02  0.57477457905E+03  0.59069975101E+03  0.12509000000E+03 0.  0.
         25    1    3    3    0    0 -0.58180782475E+02 -0.35473970968E+02  0.24309722541E+03  0.28175729834E+03  0.12509000000E+03 0.  0.
         25    1    4    4    0    0  0.62070080119E+01  0.50020372368E+02  0.64931144398E+03  0.66316922726E+03  0.12509000000E+03 0.  0.
<mgrwt>
<rscale>  2 0.45334466E+03</rscale>
<asrwt>0</asrwt>
<pdfrwt beam="1">  1       21 0.22079477E+00 0.45334466E+03</pdfrwt>
<pdfrwt beam="2">  1       21 0.50325766E-02 0.45334466E+03</pdfrwt>
<totfact> 0.23216396E+04</totfact>
</mgrwt>
</event>
<event>
 7    0  0.4725730E-002  0.4600729E+03  0.7546771E-02  0.1024760E+00
         21   -1    0    0  502  501  0.00000000000E+00  0.00000000000E+00  0.26699395495E+03  0.26699395495E+03  0.00000000000E+00 0.  1.
         21   -1    0    0  501  502 -0.00000000000E+00 -0.00000000000E+00 -0.19819461297E+03  0.19819461297E+03  0.00000000000E+00 0.  1.
      99926    2    1    2    0    0  0.00000000000E+00  0.00000000000E+00  0.68799341974E+02  0.46518856792E+03  0.46007287930E+03 0.  0.
      99925    2    3    3    0    0 -0.99489393722E+02 -0.42579859710E+02 -0.39790035698E+01  0.28448057254E+03  0.26306307184E+03 0.  0.
         25    1    3    3    0    0  0.99489393722E+02  0.42579859710E+02  0.72778345544E+02  0.18070799539E+03  0.12509000000E+03 0.  0.
         25    1    4    4    0    0 -0.58253976521E+02 -0.44730277805E+02  0.30683240274E+02  0.14826763931E+03  0.12509000000E+03 0.  0.
         25    1    4    4    0    0 -0.41235417201E+02  0.21504180949E+01 -0.34662243844E+02  0.13621293323E+03  0.12509000000E+03 0.  0.
<mgrwt>
<rscale>  2 0.46007288E+03</rscale>
<asrwt>0</asrwt>
<pdfrwt beam="1">  1       21 0.39263817E-01 0.46007288E+03</pdfrwt>
<pdfrwt beam="2">  1       21 0.29146267E-01 0.46007288E+03</pdfrwt>
<totfact> 0.65129162E+04</totfact>
</mgrwt>
</event>
<event>
 7    0  0.4725730E-002  0.4551511E+03  0.7546771E-02  0.1026197E+00
         21   -1    0    0  502  501  0.00000000000E+00  0.00000000000E+00  0.13450090779E+03  0.13450090779E+03  0.00000000000E+00 0.  1.
         21   -1    0    0  501  502 -0.00000000000E+00 -0.00000000000E+00 -0.38505791669E+03  0.38505791669E+03  0.00000000000E+00 0.  1.
      99926    2    1    2    0    0  0.00000000000E+00  0.00000000000E+00 -0.25055700890E+03  0.51955882447E+03  0.45515113686E+03 0.  0.
      99925    2    3    3    0    0 -0.74493954844E+01  0.70675236777E+02 -0.57028390515E+02  0.27841298308E+03  0.26307996738E+03 0.  0.
         25    1    4    4    0    0  0.23536835401E+02  0.44465948337E+01 -0.32682053595E+02  0.13148908530E+03  0.12509000000E+03 0.  0.
         25    1    3    3    0    0  0.74493954844E+01 -0.70675236777E+02 -0.19352861838E+03  0.24114584139E+03  0.12509000000E+03 0.  0.
         25    1    4    4    0    0 -0.30986230886E+02  0.66228641944E+02 -0.24346336920E+02  0.14692389778E+03  0.12509000000E+03 0.  0.
<mgrwt>
<rscale>  2 0.45515114E+03</rscale>
<asrwt>0</asrwt>
<pdfrwt beam="1">  1       21 0.19779546E-01 0.45515114E+03</pdfrwt>
<pdfrwt beam="2">  1       21 0.56626163E-01 0.45515114E+03</pdfrwt>
<totfact> 0.63840751E+04</totfact>
</mgrwt>
</event>
<event>
 7    0  0.4725730E-002  0.4450508E+03  0.7546771E-02  0.1029208E+00
         21   -1    0    0  502  501  0.00000000000E+00  0.00000000000E+00  0.30460470764E+03  0.30460470764E+03  0.00000000000E+00 0.  1.
         21   -1    0    0  501  502 -0.00000000000E+00 -0.00000000000E+00 -0.16256332813E+03  0.16256332813E+03  0.00000000000E+00 0.  1.
      99926    2    1    2    0    0 -0.14210854715E-13  0.17763568394E-14  0.14204137951E+03  0.46716803577E+03  0.44505080626E+03 0.  0.
      99925    2    3    3    0    0 -0.96826419551E+02  0.46916064482E+01  0.52116187011E+02  0.28514766593E+03  0.26305080829E+03 0.  0.
         25    1    4    4    0    0 -0.58075261329E+02  0.41769505555E+02  0.22273411143E+02  0.14581166111E+03  0.12509000000E+03 0.  0.
         25    1    3    3    0    0  0.96826419551E+02 -0.46916064482E+01  0.89925192494E+02  0.18202036985E+03  0.12509000000E+03 0.  0.
         25    1    4    4    0    0 -0.38751158222E+02 -0.37077899107E+02  0.29842775868E+02  0.13933600481E+03  0.12509000000E+03 0.  0.
<mgrwt>
<rscale>  2 0.44505081E+03</rscale>
<asrwt>0</asrwt>
<pdfrwt beam="1">  1       21 0.44794810E-01 0.44505081E+03</pdfrwt>
<pdfrwt beam="2">  1       21 0.23906372E-01 0.44505081E+03</pdfrwt>
<totfact> 0.73261903E+04</totfact>
</mgrwt>
</event>
<event>
 7    0  0.4725730E-002  0.4526930E+03  0.7546771E-02  0.1026922E+00
         21   -1    0    0  502  501  0.00000000000E+00  0.00000000000E+00  0.17298932460E+03  0.17298932460E+03  0.00000000000E+00 0.  1.
         21   -1    0    0  501  502 -0.00000000000E+00 -0.00000000000E+00 -0.29616128390E+03  0.29616128390E+03  0.00000000000E+00 0.  1.
      99926    2    1    2    0    0  0.14210854715E-13 -0.35527136788E-14 -0.12317195930E+03  0.46915060851E+03  0.45269301066E+03 0.  0.
      99925    2    3    3    0    0 -0.88990511326E+02  0.16858061315E+02 -0.14409250377E+03  0.31330234057E+03  0.26304410586E+03 0.  0.
         25    1    4    4    0    0 -0.30270608442E+02  0.20953223396E+02 -0.29388620647E+02  0.13366580127E+03  0.12509000000E+03 0.  0.
         25    1    3    3    0    0  0.88990511326E+02 -0.16858061315E+02  0.20920544468E+02  0.15584826793E+03  0.12509000000E+03 0.  0.
         25    1    4    4    0    0 -0.58719902884E+02 -0.40951620808E+01 -0.11470388313E+03  0.17963653930E+03  0.12509000000E+03 0.  0.
<mgrwt>
<rscale>  2 0.45269301E+03</rscale>
<asrwt>0</asrwt>
<pdfrwt beam="1">  1       21 0.25439607E-01 0.45269301E+03</pdfrwt>
<pdfrwt beam="2">  1       21 0.43553130E-01 0.45269301E+03</pdfrwt>
<totfact> 0.68748586E+04</totfact>
</mgrwt>
</event>
<event>
 6    0  0.4725730E-002  0.4514448E+03  0.7546771E-02  0.1027292E+00
         21   -1    0    0  502  501  0.00000000000E+00  0.00000000000E+00  0.48333759578E+03  0.48333759578E+03  0.00000000000E+00 0. -1.
         21   -1    0    0  501  502 -0.00000000000E+00 -0.00000000000E+00 -0.10541412080E+03  0.10541412080E+03  0.00000000000E+00 0. -1.
      99926    2    1    2    0    0  0.00000000000E+00  0.00000000000E+00  0.37792347498E+03  0.58875171659E+03  0.45144482591E+03 0.  0.
         25    1    3    3    0    0  0.64140637135E+02 -0.18742925152E+02  0.21565812050E+03  0.25811092889E+03  0.12509000000E+03 0.  0.
         25    1    3    3    0    0 -0.67758513314E+02  0.61677612476E+02  0.99212463923E+02  0.18408140891E+03  0.12509000000E+03 0.  0.
         25    1    3    3    0    0  0.36178761795E+01 -0.42934687324E+02  0.63052890553E+02  0.14655937879E+03  0.12509000000E+03 0.  0.
<mgrwt>
<rscale>  2 0.45144483E+03</rscale>
<asrwt>0</asrwt>
<pdfrwt beam="1">  1       21 0.71079057E-01 0.45144483E+03</pdfrwt>
<pdfrwt beam="2">  1       21 0.15502077E-01 0.45144483E+03</pdfrwt>
<totfact> 0.61074138E+04</totfact>
</mgrwt>
</event>
<event>
 7    0  0.4725730E-002  0.4536627E+03  0.7546771E-02  0.1026635E+00
         21   -1    0    0  502  501  0.00000000000E+00  0.00000000000E+00  0.50922674417E+02  0.50922674417E+02  0.00000000000E+00 0. -1.
         21   -1    0    0  501  502 -0.00000000000E+00 -0.00000000000E+00 -0.10104039755E+04  0.10104039755E+04  0.00000000000E+00 0. -1.
      99926    2    1    2    0    0  0.71054273576E-14  0.17763568394E-14 -0.95948130109E+03  0.10613266499E+04  0.45366274996E+03 0.  0.
      99925    2    3    3    0    0  0.56062305420E+02  0.10199966024E+02 -0.82972787784E+03  0.87230157132E+03  0.26308678923E+03 0.  0.
         25    1    4    4    0    0  0.54713230456E+02 -0.23423020623E+02 -0.38888094798E+03  0.41281724199E+03  0.12509000000E+03 0.  0.
         25    1    3    3    0    0 -0.56062305420E+02 -0.10199966024E+02 -0.12975342325E+03  0.18902507860E+03  0.12509000000E+03 0.  0.
         25    1    4    4    0    0  0.13490749641E+01  0.33622986647E+02 -0.44084692986E+03  0.45948432933E+03  0.12509000000E+03 0.  0.
<mgrwt>
<rscale>  2 0.45366275E+03</rscale>
<asrwt>0</asrwt>
<pdfrwt beam="1">  1       21 0.74886290E-02 0.45366275E+03</pdfrwt>
<pdfrwt beam="2">  1       21 0.14858881E+00 0.45366275E+03</pdfrwt>
<totfact> 0.37251763E+04</totfact>
</mgrwt>
</event>
<event>
 7    0  0.4725730E-002  0.4577936E+03  0.7546771E-02  0.1025423E+00
         21   -1    0    0  502  501  0.00000000000E+00  0.00000000000E+00  0.11493300451E+04  0.11493300451E+04  0.00000000000E+00 0.  1.
         21   -1    0    0  501  502 -0.00000000000E+00 -0.00000000000E+00 -0.45586328447E+02  0.45586328447E+02  0.00000000000E+00 0.  1.
      99926    2    1    2    0    0  0.00000000000E+00  0.00000000000E+00  0.11037437166E+04  0.11949163735E+04  0.45779356452E+03 0.  0.
      99925    2    3    3    0    0  0.11275300664E+03  0.11717024613E+02  0.62962511261E+03  0.69164061616E+03  0.26284678107E+03 0.  0.
         25    1    4    4    0    0  0.73672047764E+02  0.42271341008E+02  0.31307642596E+03  0.34767627685E+03  0.12509000000E+03 0.  0.
         25    1    3    3    0    0 -0.11275300664E+03 -0.11717024613E+02  0.47411860400E+03  0.50327575735E+03  0.12509000000E+03 0.  0.
         25    1    4    4    0    0  0.39080958873E+02 -0.30554316395E+02  0.31654868665E+03  0.34396433931E+03  0.12509000000E+03 0.  0.
<mgrwt>
<rscale>  2 0.45779356E+03</rscale>
<asrwt>0</asrwt>
<pdfrwt beam="1">  1       21 0.16901911E+00 0.45779356E+03</pdfrwt>
<pdfrwt beam="2">  1       21 0.67038725E-02 0.45779356E+03</pdfrwt>
<totfact> 0.31623639E+04</totfact>
</mgrwt>
</event>
<event>
 7    0  0.4725730E-002  0.4575227E+03  0.7546771E-02  0.1025502E+00
         21   -1    0    0  502  501  0.00000000000E+00  0.00000000000E+00  0.62763149135E+02  0.62763149135E+02  0.00000000000E+00 0.  1.
         21   -1    0    0  501  502 -0.00000000000E+00 -0.00000000000E+00 -0.83379739476E+03  0.83379739476E+03  0.00000000000E+00 0.  1.
      99926    2    1    2    0    0 -0.71054273576E-14 -0.14210854715E-13 -0.77103424562E+03  0.89656054389E+03  0.45752267806E+03 0.  0.
      99925    2    3    3    0    0  0.60433283476E+02  0.95065511233E+02 -0.53440158122E+03  0.60616054537E+03  0.26297513871E+03 0.  0.
         25    1    4    4    0    0  0.39188061401E+02  0.49315677135E+02 -0.35564056968E+03  0.38222436222E+03  0.12509000000E+03 0.  0.
         25    1    4    4    0    0  0.21245222075E+02  0.45749834097E+02 -0.17876101154E+03  0.22393618316E+03  0.12509000000E+03 0.  0.
         25    1    3    3    0    0 -0.60433283476E+02 -0.95065511233E+02 -0.23663266440E+03  0.29039999852E+03  0.12509000000E+03 0.  0.
<mgrwt>
<rscale>  2 0.45752268E+03</rscale>
<asrwt>0</asrwt>
<pdfrwt beam="1">  1       21 0.92298749E-02 0.45752268E+03</pdfrwt>
<pdfrwt beam="2">  1       21 0.12261726E+00 0.45752268E+03</pdfrwt>
<totfact> 0.42536292E+04</totfact>
</mgrwt>
</event>
<event>
 7    0  0.4725730E-002  0.4575729E+03  0.7546771E-02  0.1025487E+00
         21   -1    0    0  502  501  0.00000000000E+00  0.00000000000E+00  0.16538124555E+04  0.16538124555E+04  0.00000000000E+00 0.  1.
         21   -1    0    0  501  502 -0.00000000000E+00 -0.00000000000E+00 -0.31650051336E+02  0.31650051336E+02  0.00000000000E+00 0.  1.
      99926    2    1    2    0    0  0.00000000000E+00  0.00000000000E+00  0.16221624041E+04  0.16854625068E+04  0.45757294114E+03 0.  0.
      99925    2    3    3    0    0  0.79203384024E+02 -0.21012527548E+02  0.71943760487E+03  0.77043558170E+03  0.26318399628E+03 0.  0.
         25    1    4    4    0    0  0.15807275425E+02 -0.40081395164E+02  0.39187041931E+03  0.41360164630E+03  0.12509000000E+03 0.  0.
         25    1    3    3    0    0 -0.79203384024E+02  0.21012527548E+02  0.90272479927E+03  0.91502692510E+03  0.12509000000E+03 0.  0.
         25    1    4    4    0    0  0.63396108598E+02  0.19068867616E+02  0.32756718556E+03  0.35683393540E+03  0.12509000000E+03 0.  0.
<mgrwt>
<rscale>  2 0.45757294E+03</rscale>
<asrwt>0</asrwt>
<pdfrwt beam="1">  1       21 0.24320766E+00 0.45757294E+03</pdfrwt>
<pdfrwt beam="2">  1       21 0.46544204E-02 0.45757294E+03</pdfrwt>
<totfact> 0.19179736E+04</totfact>
</mgrwt>
</event>
<event>
 7    0  0.4725730E-002  0.4514601E+03  0.7546771E-02  0.1027288E+00
         21   -1    0    0  502  501  0.00000000000E+00  0.00000000000E+00  0.56145993080E+02  0.56145993080E+02  0.00000000000E+00 0. -1.
         21   -1    0    0  501  502 -0.00000000000E+00 -0.00000000000E+00 -0.90752805474E+03  0.90752805474E+03  0.00000000000E+00 0. -1.
      99926    2    1    2    0    0 -0.17763568394E-14  0.00000000000E+00 -0.85138206166E+03  0.96367404782E+03  0.45146013725E+03 0.  0.
      99925    2    3    3    0    0  0.96601709602E+01 -0.78068454039E+02 -0.37367225771E+03  0.46363188229E+03  0.26293642516E+03 0.  0.
         25    1    3    3    0    0 -0.96601709602E+01  0.78068454039E+02 -0.47770980395E+03  0.50004216553E+03  0.12509000000E+03 0.  0.
         25    1    4    4    0    0  0.13877784214E+02 -0.27317923712E+02 -0.24653184478E+03  0.27814442371E+03  0.12509000000E+03 0.  0.
         25    1    4    4    0    0 -0.42176132537E+01 -0.50750530327E+02 -0.12714041293E+03  0.18548745858E+03  0.12509000000E+03 0.  0.
<mgrwt>
<rscale>  2 0.45146014E+03</rscale>
<asrwt>0</asrwt>
<pdfrwt beam="1">  1       21 0.82567646E-02 0.45146014E+03</pdfrwt>
<pdfrwt beam="2">  1       21 0.13345999E+00 0.45146014E+03</pdfrwt>
<totfact> 0.41735206E+04</totfact>
</mgrwt>
</event>
<event>
 7    0  0.4725730E-002  0.4598477E+03  0.7546771E-02  0.1024825E+00
         21   -1    0    0  502  501  0.00000000000E+00  0.00000000000E+00  0.61749001461E+02  0.61749001461E+02  0.00000000000E+00 0.  1.
         21   -1    0    0  501  502 -0.00000000000E+00 -0.00000000000E+00 -0.85612689276E+03  0.85612689276E+03  0.00000000000E+00 0.  1.
      99926    2    1    2    0    0  0.14210854715E-13  0.14210854715E-13 -0.79437789129E+03  0.91787589422E+03  0.45984771719E+03 0.  0.
      99925    2    3    3    0    0  0.75852570496E+02  0.72597864245E+02 -0.39217586640E+03  0.48378138921E+03  0.26309401365E+03 0.  0.
         25    1    4    4    0    0  0.59045617739E+02  0.27721152750E+02 -0.25877562711E+03  0.29473238806E+03  0.12509000000E+03 0.  0.
         25    1    4    4    0    0  0.16806952757E+02  0.44876711495E+02 -0.13340023928E+03  0.18904900115E+03  0.12509000000E+03 0.  0.
         25    1    3    3    0    0 -0.75852570496E+02 -0.72597864245E+02 -0.40220202490E+03  0.43409450500E+03  0.12509000000E+03 0.  0.
<mgrwt>
<rscale>  2 0.45984772E+03</rscale>
<asrwt>0</asrwt>
<pdfrwt beam="1">  1       21 0.90807363E-02 0.45984772E+03</pdfrwt>
<pdfrwt beam="2">  1       21 0.12590100E+00 0.45984772E+03</pdfrwt>
<totfact> 0.40895885E+04</totfact>
</mgrwt>
</event>
<event>
 7    0  0.4725730E-002  0.4449109E+03  0.7546771E-02  0.1029251E+00
         21   -1    0    0  502  501  0.00000000000E+00  0.00000000000E+00  0.11074153683E+04  0.11074153683E+04  0.00000000000E+00 0.  1.
         21   -1    0    0  501  502 -0.00000000000E+00 -0.00000000000E+00 -0.44686418878E+02  0.44686418878E+02  0.00000000000E+00 0.  1.
      99926    2    1    2    0    0  0.00000000000E+00 -0.35527136788E-14  0.10627289495E+04  0.11521017872E+04  0.44491089904E+03 0.  0.
      99925    2    3    3    0    0 -0.73261610711E+02 -0.25714682032E+02  0.85207194424E+03  0.89509519114E+03  0.26294542128E+03 0.  0.
         25    1    4    4    0    0 -0.18021997782E+02 -0.24795355868E+01  0.52154026024E+03  0.53664018826E+03  0.12509000000E+03 0.  0.
         25    1    3    3    0    0  0.73261610711E+02  0.25714682032E+02  0.21065700521E+03  0.25700659607E+03  0.12509000000E+03 0.  0.
         25    1    4    4    0    0 -0.55239612929E+02 -0.23235146446E+02  0.33053168399E+03  0.35845500288E+03  0.12509000000E+03 0.  0.
<mgrwt>
<rscale>  2 0.44491090E+03</rscale>
<asrwt>0</asrwt>
<pdfrwt beam="1">  1       21 0.16285518E+00 0.44491090E+03</pdfrwt>
<pdfrwt beam="2">  1       21 0.65715329E-02 0.44491090E+03</pdfrwt>
<totfact> 0.36498799E+04</totfact>
</mgrwt>
</event>
<event>
 7    0  0.4725730E-002  0.4499558E+03  0.7546771E-02  0.1027735E+00
         21   -1    0    0  502  501  0.00000000000E+00  0.00000000000E+00  0.19362521109E+03  0.19362521109E+03  0.00000000000E+00 0.  1.
         21   -1    0    0  501  502 -0.00000000000E+00 -0.00000000000E+00 -0.26140740193E+03  0.26140740193E+03  0.00000000000E+00 0.  1.
      99926    2    1    2    0    0  0.00000000000E+00  0.35527136788E-14 -0.67782190837E+02  0.45503261302E+03  0.44995583508E+03 0.  0.
      99925    2    3    3    0    0 -0.55856545443E+02 -0.22777812504E+02 -0.13409765989E+03  0.30113644040E+03  0.26279686250E+03 0.  0.
         25    1    4    4    0    0  0.45276117736E+01 -0.35208609884E+02 -0.69634198148E+02  0.14750110213E+03  0.12509000000E+03 0.  0.
         25    1    3    3    0    0  0.55856545443E+02  0.22777812504E+02  0.66315469051E+02  0.15389617262E+03  0.12509000000E+03 0.  0.
         25    1    4    4    0    0 -0.60384157217E+02  0.12430797380E+02 -0.64463461740E+02  0.15363533827E+03  0.12509000000E+03 0.  0.
<mgrwt>
<rscale>  2 0.44995584E+03</rscale>
<asrwt>0</asrwt>
<pdfrwt beam="1">  1       21 0.28474296E-01 0.44995584E+03</pdfrwt>
<pdfrwt beam="2">  1       21 0.38442265E-01 0.44995584E+03</pdfrwt>
<totfact> 0.71372154E+04</totfact>
</mgrwt>
</event>
<event>
 7    0  0.4725730E-002  0.4545311E+03  0.7546771E-02  0.1026379E+00
         21   -1    0    0  502  501  0.00000000000E+00  0.00000000000E+00  0.65308489014E+02  0.65308489014E+02  0.00000000000E+00 0.  1.
         21   -1    0    0  501  502 -0.00000000000E+00 -0.00000000000E+00 -0.79085619907E+03  0.79085619907E+03  0.00000000000E+00 0.  1.
      99926    2    1    2    0    0  0.00000000000E+00  0.00000000000E+00 -0.72554771005E+03  0.85616468808E+03  0.45453106996E+03 0.  0.
      99925    2    3    3    0    0  0.75579197638E+02  0.74538520204E+02 -0.52849209905E+03  0.59975363521E+03  0.26293025325E+03 0.  0.
         25    1    3    3    0    0 -0.75579197638E+02 -0.74538520204E+02 -0.19705561100E+03  0.25641105287E+03  0.12509000000E+03 0.  0.
         25    1    4    4    0    0  0.63057297030E+01  0.13053471407E+02 -0.20161811426E+03  0.23771312004E+03  0.12509000000E+03 0.  0.
         25    1    4    4    0    0  0.69273467935E+02  0.61485048797E+02 -0.32687398479E+03  0.36204051516E+03  0.12509000000E+03 0.  0.
<mgrwt>
<rscale>  2 0.45453107E+03</rscale>
<asrwt>0</asrwt>
<pdfrwt beam="1">  1       21 0.96041903E-02 0.45453107E+03</pdfrwt>
<pdfrwt beam="2">  1       21 0.11630237E+00 0.45453107E+03</pdfrwt>
<totfact> 0.45331358E+04</totfact>
</mgrwt>
</event>
<event>
 7    0  0.4725730E-002  0.4592182E+03  0.7546771E-02  0.1025008E+00
         21   -1    0    0  502  501  0.00000000000E+00  0.00000000000E+00  0.14976676030E+04  0.14976676030E+04  0.00000000000E+00 0. -1.
         21   -1    0    0  501  502 -0.00000000000E+00 -0.00000000000E+00 -0.35201631884E+02  0.35201631884E+02  0.00000000000E+00 0. -1.
      99926    2    1    2    0    0 -0.14210854715E-13  0.00000000000E+00  0.14624659711E+04  0.15328692349E+04  0.45921822109E+03 0.  0.
      99925    2    3    3    0    0  0.11419409652E+03 -0.26360346070E+02  0.92753607522E+03  0.97114629504E+03  0.26280562401E+03 0.  0.
         25    1    3    3    0    0 -0.11419409652E+03  0.26360346070E+02  0.53492989590E+03  0.56172293985E+03  0.12509000000E+03 0.  0.
         25    1    4    4    0    0  0.15164560936E+02 -0.15277711356E+02  0.44878375877E+03  0.46638797434E+03  0.12509000000E+03 0.  0.
         25    1    4    4    0    0  0.99029535584E+02 -0.11082634713E+02  0.47875231645E+03  0.50475832070E+03  0.12509000000E+03 0.  0.
<mgrwt>
<rscale>  2 0.45921822E+03</rscale>
<asrwt>0</asrwt>
<pdfrwt beam="1">  1       21 0.22024519E+00 0.45921822E+03</pdfrwt>
<pdfrwt beam="2">  1       21 0.51767116E-02 0.45921822E+03</pdfrwt>
<totfact> 0.22247122E+04</totfact>
</mgrwt>
</event>
<event>
 7    0  0.4725730E-002  0.4556530E+03  0.7546771E-02  0.1026050E+00
         21   -1    0    0  502  501  0.00000000000E+00  0.00000000000E+00  0.16404613593E+03  0.16404613593E+03  0.00000000000E+00 0. -1.
         21   -1    0    0  501  502 -0.00000000000E+00 -0.00000000000E+00 -0.31640434069E+03  0.31640434069E+03  0.00000000000E+00 0. -1.
      99926    2    1    2    0    0  0.00000000000E+00 -0.17763568394E-14 -0.15235820476E+03  0.48045047662E+03  0.45565297972E+03 0.  0.
      99925    2    3    3    0    0 -0.45177920898E+02 -0.72994758769E+01 -0.20567493841E+03  0.33697745103E+03  0.26297774683E+03 0.  0.
         25    1    3    3    0    0  0.45177920898E+02  0.72994758769E+01  0.53316733648E+02  0.14347302559E+03  0.12509000000E+03 0.  0.
         25    1    4    4    0    0  0.12462698800E+02  0.49613547364E+01 -0.73570257481E+02  0.14573957866E+03  0.12509000000E+03 0.  0.
         25    1    4    4    0    0 -0.57640619698E+02 -0.12260830613E+02 -0.13210468093E+03  0.19123787237E+03  0.12509000000E+03 0.  0.
<mgrwt>
<rscale>  2 0.45565298E+03</rscale>
<asrwt>0</asrwt>
<pdfrwt beam="1">  1       21 0.24124432E-01 0.45565298E+03</pdfrwt>
<pdfrwt beam="2">  1       21 0.46530049E-01 0.45565298E+03</pdfrwt>
<totfact> 0.66322902E+04</totfact>
</mgrwt>
</event>
<event>
 7    0  0.4725730E-002  0.4382659E+03  0.7546771E-02  0.1031280E+00
         21   -1    0    0  502  501  0.00000000000E+00  0.00000000000E+00  0.55739404523E+03  0.55739404523E+03  0.00000000000E+00 0. -1.
         21   -1    0    0  501  502 -0.00000000000E+00 -0.00000000000E+00 -0.86149559639E+02  0.86149559639E+02  0.00000000000E+00 0. -1.
      99926    2    1    2    0    0  0.00000000000E+00  0.00000000000E+00  0.47124448559E+03  0.64354360487E+03  0.43826590806E+03 0.  0.
      99925    2    3    3    0    0  0.79046907229E+02  0.26359693881E+02  0.37312625238E+03  0.46405003175E+03  0.26301327864E+03 0.  0.
         25    1    4    4    0    0  0.79124430887E+02  0.19995346570E+02  0.22508508199E+03  0.27013198937E+03  0.12509000000E+03 0.  0.
         25    1    4    4    0    0 -0.77523657542E-01  0.63643473118E+01  0.14804117039E+03  0.19391804237E+03  0.12509000000E+03 0.  0.
         25    1    3    3    0    0 -0.79046907229E+02 -0.26359693881E+02  0.98118233204E+02  0.17949357312E+03  0.12509000000E+03 0.  0.
<mgrwt>
<rscale>  2 0.43826591E+03</rscale>
<asrwt>0</asrwt>
<pdfrwt beam="1">  1       21 0.81969711E-01 0.43826591E+03</pdfrwt>
<pdfrwt beam="2">  1       21 0.12669053E-01 0.43826591E+03</pdfrwt>
<totfact> 0.64130237E+04</totfact>
</mgrwt>
</event>
<event>
 7    0  0.4725730E-002  0.4436838E+03  0.7546771E-02  0.1029623E+00
         21   -1    0    0  502  501  0.00000000000E+00  0.00000000000E+00  0.58035020728E+03  0.58035020728E+03  0.00000000000E+00 0. -1.
         21   -1    0    0  501  502 -0.00000000000E+00 -0.00000000000E+00 -0.84800231466E+02  0.84800231466E+02  0.00000000000E+00 0. -1.
      99926    2    1    2    0    0  0.00000000000E+00  0.00000000000E+00  0.49554997581E+03  0.66515043875E+03  0.44368381493E+03 0.  0.
      99925    2    3    3    0    0 -0.72465562966E+02  0.17534279256E+02  0.21071531697E+03  0.34524889179E+03  0.26312951889E+03 0.  0.
         25    1    4    4    0    0 -0.70848633224E+02  0.20184211552E+01  0.84023099174E+02  0.16652625063E+03  0.12509000000E+03 0.  0.
         25    1    3    3    0    0  0.72465562966E+02 -0.17534279256E+02  0.28483465884E+03  0.31990154695E+03  0.12509000000E+03 0.  0.
         25    1    4    4    0    0 -0.16169297422E+01  0.15515858101E+02  0.12669221780E+03  0.17872264116E+03  0.12509000000E+03 0.  0.
<mgrwt>
<rscale>  2 0.44368381E+03</rscale>
<asrwt>0</asrwt>
<pdfrwt beam="1">  1       21 0.85345617E-01 0.44368381E+03</pdfrwt>
<pdfrwt beam="2">  1       21 0.12470623E-01 0.44368381E+03</pdfrwt>
<totfact> 0.60010837E+04</totfact>
</mgrwt>
</event>
<event>
 7    0  0.4725730E-002  0.4485908E+03  0.7546771E-02  0.1028143E+00
         21   -1    0    0  502  501  0.00000000000E+00  0.00000000000E+00  0.19014628754E+03  0.19014628754E+03  0.00000000000E+00 0. -1.
         21   -1    0    0  501  502 -0.00000000000E+00 -0.00000000000E+00 -0.26457752367E+03  0.26457752367E+03  0.00000000000E+00 0. -1.
      99926    2    1    2    0    0 -0.88817841970E-15 -0.14210854715E-13 -0.74431236126E+02  0.45472381121E+03  0.44859083313E+03 0.  0.
      99925    2    3    3    0    0 -0.68969000588E+01  0.10044406118E+03 -0.10048557492E+02  0.28172319253E+03  0.26292661912E+03 0.  0.
         25    1    4    4    0    0  0.17439490048E+02  0.42379098294E+02  0.29000973491E+02  0.13634034014E+03  0.12509000000E+03 0.  0.
         25    1    4    4    0    0 -0.24336390107E+02  0.58064962890E+02 -0.39049530984E+02  0.14538285239E+03  0.12509000000E+03 0.  0.
         25    1    3    3    0    0  0.68969000588E+01 -0.10044406118E+03 -0.64382678634E+02  0.17300061869E+03  0.12509000000E+03 0.  0.
<mgrwt>
<rscale>  2 0.44859083E+03</rscale>
<asrwt>0</asrwt>
<pdfrwt beam="1">  1       21 0.27962690E-01 0.44859083E+03</pdfrwt>
<pdfrwt beam="2">  1       21 0.38908459E-01 0.44859083E+03</pdfrwt>
<totfact> 0.72186187E+04</totfact>
</mgrwt>
</event>
<event>
 7    0  0.4725730E-002  0.4419515E+03  0.7546771E-02  0.1030150E+00
         21   -1    0    0  502  501  0.00000000000E+00  0.00000000000E+00  0.54561844298E+02  0.54561844298E+02  0.00000000000E+00 0.  1.
         21   -1    0    0  501  502 -0.00000000000E+00 -0.00000000000E+00 -0.89495299356E+03  0.89495299356E+03  0.00000000000E+00 0.  1.
      99926    2    1    2    0    0  0.00000000000E+00 -0.71054273576E-14 -0.84039114926E+03  0.94951483786E+03  0.44195151720E+03 0.  0.
      99925    2    3    3    0    0 -0.82296434153E+02 -0.56985953027E+02 -0.55003977507E+03  0.61789528097E+03  0.26311731636E+03 0.  0.
         25    1    3    3    0    0  0.82296434153E+02  0.56985953027E+02 -0.29035137419E+03  0.33161955688E+03  0.12509000000E+03 0.  0.
         25    1    4    4    0    0 -0.70306381616E+02 -0.15680653546E+02 -0.34388428093E+03  0.37295144049E+03  0.12509000000E+03 0.  0.
         25    1    4    4    0    0 -0.11990052537E+02 -0.41305299481E+02 -0.20615549414E+03  0.24494384048E+03  0.12509000000E+03 0.  0.
<mgrwt>
<rscale>  2 0.44195152E+03</rscale>
<asrwt>0</asrwt>
<pdfrwt beam="1">  1       21 0.80238002E-02 0.44195152E+03</pdfrwt>
<pdfrwt beam="2">  1       21 0.13161074E+00 0.44195152E+03</pdfrwt>
<totfact> 0.45642669E+04</totfact>
</mgrwt>
</event>
<event>
 7    0  0.4725730E-002  0.4476668E+03  0.7546771E-02  0.1028420E+00
         21   -1    0    0  502  501  0.00000000000E+00  0.00000000000E+00  0.94505829022E+03  0.94505829022E+03  0.00000000000E+00 0. -1.
         21   -1    0    0  501  502 -0.00000000000E+00 -0.00000000000E+00 -0.53014081364E+02  0.53014081364E+02  0.00000000000E+00 0. -1.
      99926    2    1    2    0    0  0.00000000000E+00  0.00000000000E+00  0.89204420886E+03  0.99807237158E+03  0.44766682741E+03 0.  0.
      99925    2    3    3    0    0 -0.16923252825E+02 -0.55765064484E+02  0.76318485218E+03  0.80926458359E+03  0.26279632562E+03 0.  0.
         25    1    4    4    0    0  0.14358271915E+02 -0.45520827678E+02  0.30332859619E+03  0.33156304241E+03  0.12509000000E+03 0.  0.
         25    1    4    4    0    0 -0.31281524739E+02 -0.10244236806E+02  0.45985625598E+03  0.47770154118E+03  0.12509000000E+03 0.  0.
         25    1    3    3    0    0  0.16923252825E+02  0.55765064484E+02  0.12885935668E+03  0.18880778799E+03  0.12509000000E+03 0.  0.
<mgrwt>
<rscale>  2 0.44766683E+03</rscale>
<asrwt>0</asrwt>
<pdfrwt beam="1">  1       21 0.13897915E+00 0.44766683E+03</pdfrwt>
<pdfrwt beam="2">  1       21 0.77961890E-02 0.44766683E+03</pdfrwt>
<totfact> 0.41572209E+04</totfact>
</mgrwt>
</event>
<event>
 7    0  0.4725730E-002  0.4601872E+03  0.7546771E-02  0.1024727E+00
         21   -1    0    0  502  501  0.00000000000E+00  0.00000000000E+00  0.26938963184E+03  0.26938963184E+03  0.00000000000E+00 0.  1.
         21   -1    0    0  501  502 -0.00000000000E+00 -0.00000000000E+00 -0.19652966411E+03  0.19652966411E+03  0.00000000000E+00 0.  1.
      99926    2    1    2    0    0  0.00000000000E+00  0.00000000000E+00  0.72859967723E+02  0.46591929595E+03  0.46018715263E+03 0.  0.
      99925    2    3    3    0    0 -0.97899375372E+02 -0.35906667903E+02  0.10138969104E+03  0.30058620879E+03  0.26305631140E+03 0.  0.
         25    1    4    4    0    0 -0.11647833015E+02 -0.35875241461E+02  0.54585822373E+02  0.14159740488E+03  0.12509000000E+03 0.  0.
         25    1    4    4    0    0 -0.86251542356E+02 -0.31426442553E-01  0.46803868666E+02  0.15898880391E+03  0.12509000000E+03 0.  0.
         25    1    3    3    0    0  0.97899375372E+02  0.35906667903E+02 -0.28529723317E+02  0.16533308716E+03  0.12509000000E+03 0.  0.
<mgrwt>
<rscale>  2 0.46018715E+03</rscale>
<asrwt>0</asrwt>
<pdfrwt beam="1">  1       21 0.39616122E-01 0.46018715E+03</pdfrwt>
<pdfrwt beam="2">  1       21 0.28901421E-01 0.46018715E+03</pdfrwt>
<totfact> 0.65019214E+04</totfact>
</mgrwt>
</event>
<event>
 7    0  0.4725730E-002  0.4553991E+03  0.7546771E-02  0.1026124E+00
         21   -1    0    0  502  501  0.00000000000E+00  0.00000000000E+00  0.36983698148E+03  0.36983698148E+03  0.00000000000E+00 0. -1.
         21   -1    0    0  501  502 -0.00000000000E+00 -0.00000000000E+00 -0.14018904686E+03  0.14018904686E+03  0.00000000000E+00 0. -1.
      99926    2    1    2    0    0  0.00000000000E+00  0.00000000000E+00  0.22964793462E+03  0.51002602834E+03  0.45539913890E+03 0.  0.
      99925    2    3    3    0    0  0.86088036544E+02 -0.12275914665E+02  0.62651393396E+02  0.28397912834E+03  0.26297737569E+03 0.  0.
         25    1    4    4    0    0  0.10418032542E+02  0.63684831870E+01  0.52627168712E+02  0.13625791708E+03  0.12509000000E+03 0.  0.
         25    1    3    3    0    0 -0.86088036544E+02  0.12275914665E+02  0.16699654122E+03  0.22604689999E+03  0.12509000000E+03 0.  0.
         25    1    4    4    0    0  0.75670004002E+02 -0.18644397852E+02  0.10024224684E+02  0.14772121126E+03  0.12509000000E+03 0.  0.
<mgrwt>
<rscale>  2 0.45539914E+03</rscale>
<asrwt>0</asrwt>
<pdfrwt beam="1">  1       21 0.54387791E-01 0.45539914E+03</pdfrwt>
<pdfrwt beam="2">  1       21 0.20616036E-01 0.45539914E+03</pdfrwt>
<totfact> 0.64367747E+04</totfact>
</mgrwt>
</event>
<event>
 7    0  0.4725730E-002  0.4506327E+03  0.7546771E-02  0.1027534E+00
         21   -1    0    0  502  501  0.00000000000E+00  0.00000000000E+00  0.60184572219E+03  0.60184572219E+03  0.00000000000E+00 0.  1.
         21   -1    0    0  501  502 -0.00000000000E+00 -0.00000000000E+00 -0.84352956596E+02  0.84352956596E+02  0.00000000000E+00 0.  1.
      99926    2    1    2    0    0  0.00000000000E+00  0.00000000000E+00  0.51749276560E+03  0.68619867879E+03  0.45063273774E+03 0.  0.
      99925    2    3    3    0    0  0.53492011136E+02 -0.81174585399E+02  0.40195344722E+03  0.49011820867E+03  0.26305622245E+03 0.  0.
         25    1    4    4    0    0  0.44367175016E+02 -0.49852749603E+02  0.27246324685E+03  0.30714405715E+03  0.12509000000E+03 0.  0.
         25    1    3    3    0    0 -0.53492011136E+02  0.81174585399E+02  0.11553931838E+03  0.19608047012E+03  0.12509000000E+03 0.  0.
         25    1    4    4    0    0  0.91248361197E+01 -0.31321835796E+02  0.12949020037E+03  0.18297415152E+03  0.12509000000E+03 0.  0.
<mgrwt>
<rscale>  2 0.45063274E+03</rscale>
<asrwt>0</asrwt>
<pdfrwt beam="1">  1       21 0.88506722E-01 0.45063274E+03</pdfrwt>
<pdfrwt beam="2">  1       21 0.12404847E-01 0.45063274E+03</pdfrwt>
<totfact> 0.55544130E+04</totfact>
</mgrwt>
</event>
<event>
 7    0  0.4725730E-002  0.4481362E+03  0.7546771E-02  0.1028279E+00
         21   -1    0    0  502  501  0.00000000000E+00  0.00000000000E+00  0.26273650046E+04  0.26273650046E+04  0.00000000000E+00 0. -1.
         21   -1    0    0  501  502 -0.00000000000E+00 -0.00000000000E+00 -0.19109077428E+02  0.19109077428E+02  0.00000000000E+00 0. -1.
      99926    2    1    2    0    0  0.00000000000E+00 -0.71054273576E-14  0.26082559272E+04  0.26464740820E+04  0.44813623511E+03 0.  0.
      99925    2    3    3    0    0 -0.43393946645E+02  0.63768385689E+02  0.20864895735E+04  0.21044066716E+04  0.26294344859E+03 0.  0.
         25    1    4    4    0    0 -0.19791375492E+02  0.56030737303E+02  0.83148271102E+03  0.84293662211E+03  0.12509000000E+03 0.  0.
         25    1    4    4    0    0 -0.23602571153E+02  0.77376483863E+01  0.12550068625E+04  0.12614700494E+04  0.12509000000E+03 0.  0.
         25    1    3    3    0    0  0.43393946645E+02 -0.63768385689E+02  0.52176635361E+03  0.54206741046E+03  0.12509000000E+03 0.  0.
<mgrwt>
<rscale>  2 0.44813624E+03</rscale>
<asrwt>0</asrwt>
<pdfrwt beam="1">  1       21 0.38637696E+00 0.44813624E+03</pdfrwt>
<pdfrwt beam="2">  1       21 0.28101603E-02 0.44813624E+03</pdfrwt>
<totfact> 0.60634628E+03</totfact>
</mgrwt>
</event>
<event>
 7    0  0.4725730E-002  0.4558233E+03  0.7546771E-02  0.1026000E+00
         21   -1    0    0  502  501  0.00000000000E+00  0.00000000000E+00  0.94290915500E+03  0.94290915500E+03  0.00000000000E+00 0.  1.
         21   -1    0    0  501  502 -0.00000000000E+00 -0.00000000000E+00 -0.55088780384E+02  0.55088780384E+02  0.00000000000E+00 0.  1.
      99926    2    1    2    0    0  0.00000000000E+00  0.00000000000E+00  0.88782037461E+03  0.99799793538E+03  0.45582327875E+03 0.  0.
      99925    2    3    3    0    0 -0.57321981074E+02 -0.98266063454E+02  0.54197186786E+03  0.61302946075E+03  0.26292505671E+03 0.  0.
         25    1    3    3    0    0  0.57321981074E+02  0.98266063454E+02  0.34584850675E+03  0.38496847463E+03  0.12509000000E+03 0.  0.
         25    1    4    4    0    0 -0.61476277976E+02 -0.75113554238E+02  0.32396160033E+03  0.36058286894E+03  0.12509000000E+03 0.  0.
         25    1    4    4    0    0  0.41542969021E+01 -0.23152509217E+02  0.21801026754E+03  0.25244659181E+03  0.12509000000E+03 0.  0.
<mgrwt>
<rscale>  2 0.45582328E+03</rscale>
<asrwt>0</asrwt>
<pdfrwt beam="1">  1       21 0.13866310E+00 0.45582328E+03</pdfrwt>
<pdfrwt beam="2">  1       21 0.81012918E-02 0.45582328E+03</pdfrwt>
<totfact> 0.38993434E+04</totfact>
</mgrwt>
</event>
<event>
 7    0  0.4725730E-002  0.4559874E+03  0.7546771E-02  0.1025951E+00
         21   -1    0    0  502  501  0.00000000000E+00  0.00000000000E+00  0.56296659438E+02  0.56296659438E+02  0.00000000000E+00 0.  1.
         21   -1    0    0  501  502 -0.00000000000E+00 -0.00000000000E+00 -0.92334285537E+03  0.92334285537E+03  0.00000000000E+00 0.  1.
      99926    2    1    2    0    0  0.00000000000E+00  0.00000000000E+00 -0.86704619593E+03  0.97963951481E+03  0.45598736067E+03 0.  0.
      99925    2    3    3    0    0 -0.63358738619E+02  0.34521557657E+02 -0.73497459341E+03  0.78394464008E+03  0.26301231539E+03 0.  0.
         25    1    3    3    0    0  0.63358738619E+02 -0.34521557657E+02 -0.13207160252E+03  0.19569487473E+03  0.12509000000E+03 0.  0.
         25    1    4    4    0    0 -0.58739659548E+02 -0.92213797729E+01 -0.41816619623E+03  0.44050636456E+03  0.12509000000E+03 0.  0.
         25    1    4    4    0    0 -0.46190790714E+01  0.43742937430E+02 -0.31680839718E+03  0.34343827552E+03  0.12509000000E+03 0.  0.
<mgrwt>
<rscale>  2 0.45598736E+03</rscale>
<asrwt>0</asrwt>
<pdfrwt beam="1">  1       21 0.82789207E-02 0.45598736E+03</pdfrwt>
<pdfrwt beam="2">  1       21 0.13578571E+00 0.45598736E+03</pdfrwt>
<totfact> 0.39656268E+04</totfact>
</mgrwt>
</event>
<event>
 7    0  0.4725730E-002  0.4438998E+03  0.7546771E-02  0.1029557E+00
         21   -1    0    0  502  501  0.00000000000E+00  0.00000000000E+00  0.94540519188E+03  0.94540519188E+03  0.00000000000E+00 0. -1.
         21   -1    0    0  501  502 -0.00000000000E+00 -0.00000000000E+00 -0.52106503296E+02  0.52106503296E+02  0.00000000000E+00 0. -1.
      99926    2    1    2    0    0  0.00000000000E+00  0.00000000000E+00  0.89329868858E+03  0.99751169518E+03  0.44389980287E+03 0.  0.
      99925    2    3    3    0    0  0.44143182508E+02  0.23891024258E+02  0.36740140351E+03  0.45461680282E+03  0.26300806927E+03 0.  0.
         25    1    3    3    0    0 -0.44143182508E+02 -0.23891024258E+02  0.52589728507E+03  0.54289489236E+03  0.12509000000E+03 0.  0.
         25    1    4    4    0    0  0.10193618945E+02  0.14686244278E+02  0.11558733099E+03  0.17125283888E+03  0.12509000000E+03 0.  0.
         25    1    4    4    0    0  0.33949563564E+02  0.92047799800E+01  0.25181407252E+03  0.28336396394E+03  0.12509000000E+03 0.  0.
<mgrwt>
<rscale>  2 0.44389980E+03</rscale>
<asrwt>0</asrwt>
<pdfrwt beam="1">  1       21 0.13903016E+00 0.44389980E+03</pdfrwt>
<pdfrwt beam="2">  1       21 0.76627217E-02 0.44389980E+03</pdfrwt>
<totfact> 0.42860565E+04</totfact>
</mgrwt>
</event>
<event>
 7    0  0.4725730E-002  0.4562662E+03  0.7546771E-02  0.1025870E+00
         21   -1    0    0  502  501  0.00000000000E+00  0.00000000000E+00  0.62143318889E+03  0.62143318889E+03  0.00000000000E+00 0. -1.
         21   -1    0    0  501  502 -0.00000000000E+00 -0.00000000000E+00 -0.83749480074E+02  0.83749480074E+02  0.00000000000E+00 0. -1.
      99926    2    1    2    0    0  0.00000000000E+00  0.00000000000E+00  0.53768370882E+03  0.70518266897E+03  0.45626617876E+03 0.  0.
      99925    2    3    3    0    0 -0.84451183924E+02  0.76689399157E+02  0.32643657725E+03  0.43446856681E+03  0.26303769725E+03 0.  0.
         25    1    4    4    0    0 -0.13043057476E+02  0.99504382552E+01  0.16893432432E+03  0.21084460297E+03  0.12509000000E+03 0.  0.
         25    1    4    4    0    0 -0.71408126448E+02  0.66738960902E+02  0.15750225293E+03  0.22362396384E+03  0.12509000000E+03 0.  0.
         25    1    3    3    0    0  0.84451183924E+02 -0.76689399157E+02  0.21124713157E+03  0.27071410215E+03  0.12509000000E+03 0.  0.
<mgrwt>
<rscale>  2 0.45626618E+03</rscale>
<asrwt>0</asrwt>
<pdfrwt beam="1">  1       21 0.91387232E-01 0.45626618E+03</pdfrwt>
<pdfrwt beam="2">  1       21 0.12316100E-01 0.45626618E+03</pdfrwt>
<totfact> 0.52101432E+04</totfact>
</mgrwt>
</event>
<event>
 7    0  0.4725730E-002  0.4411388E+03  0.7546771E-02  0.1030398E+00
         21   -1    0    0  502  501  0.00000000000E+00  0.00000000000E+00  0.64683559878E+03  0.64683559878E+03  0.00000000000E+00 0.  1.
         21   -1    0    0  501  502 -0.00000000000E+00 -0.00000000000E+00 -0.75213649978E+02  0.75213649978E+02  0.00000000000E+00 0.  1.
      99926    2    1    2    0    0  0.00000000000E+00  0.00000000000E+00  0.57162194880E+03  0.72204924876E+03  0.44113882767E+03 0.  0.
      99925    2    3    3    0    0  0.42257902912E+02 -0.81932903140E+02  0.42596406441E+03  0.50906460527E+03  0.26306397928E+03 0.  0.
         25    1    3    3    0    0 -0.42257902912E+02  0.81932903140E+02  0.14565788439E+03  0.21298464349E+03  0.12509000000E+03 0.  0.
         25    1    4    4    0    0  0.17436180534E+02 -0.13016850921E+02  0.14372006896E+03  0.19177180481E+03  0.12509000000E+03 0.  0.
         25    1    4    4    0    0  0.24821722377E+02 -0.68916052219E+02  0.28224399545E+03  0.31729280046E+03  0.12509000000E+03 0.  0.
<mgrwt>
<rscale>  2 0.44113883E+03</rscale>
<asrwt>0</asrwt>
<pdfrwt beam="1">  1       21 0.95122879E-01 0.44113883E+03</pdfrwt>
<pdfrwt beam="2">  1       21 0.11060831E-01 0.44113883E+03</pdfrwt>
<totfact> 0.57766927E+04</totfact>
</mgrwt>
</event>
<event>
 7    0  0.4725730E-002  0.4510972E+03  0.7546771E-02  0.1027395E+00
         21   -1    0    0  502  501  0.00000000000E+00  0.00000000000E+00  0.19233027579E+03  0.19233027579E+03  0.00000000000E+00 0.  1.
         21   -1    0    0  501  502 -0.00000000000E+00 -0.00000000000E+00 -0.26450427931E+03  0.26450427931E+03  0.00000000000E+00 0.  1.
      99926    2    1    2    0    0  0.00000000000E+00  0.00000000000E+00 -0.72174003519E+02  0.45683455510E+03  0.45109724445E+03 0.  0.
      99925    2    3    3    0    0 -0.85335303730E+02 -0.51742607339E+02 -0.91170352122E+02  0.29568933848E+03  0.26298429670E+03 0.  0.
         25    1    3    3    0    0  0.85335303730E+02  0.51742607339E+02  0.18996348604E+02  0.16114521661E+03  0.12509000000E+03 0.  0.
         25    1    4    4    0    0 -0.57960787555E+02 -0.23249606840E+02 -0.86534476256E+02  0.16442542624E+03  0.12509000000E+03 0.  0.
         25    1    4    4    0    0 -0.27374516175E+02 -0.28493000499E+02 -0.46358758663E+01  0.13126391225E+03  0.12509000000E+03 0.  0.
<mgrwt>
<rscale>  2 0.45109724E+03</rscale>
<asrwt>0</asrwt>
<pdfrwt beam="1">  1       21 0.28283864E-01 0.45109724E+03</pdfrwt>
<pdfrwt beam="2">  1       21 0.38897688E-01 0.45109724E+03</pdfrwt>
<totfact> 0.70583125E+04</totfact>
</mgrwt>
</event>
<event>
 7    0  0.4725730E-002  0.4539889E+03  0.7546771E-02  0.1026539E+00
         21   -1    0    0  502  501  0.00000000000E+00  0.00000000000E+00  0.15282472308E+03  0.15282472308E+03  0.00000000000E+00 0.  1.
         21   -1    0    0  501  502 -0.00000000000E+00 -0.00000000000E+00 -0.33716070465E+03  0.33716070465E+03  0.00000000000E+00 0.  1.
      99926    2    1    2    0    0  0.00000000000E+00  0.00000000000E+00 -0.18433598158E+03  0.48998542773E+03  0.45398894841E+03 0.  0.
      99925    2    3    3    0    0 -0.88164317670E+02 -0.65652350390E+02 -0.14084127967E+03  0.31787361751E+03  0.26291480109E+03 0.  0.
         25    1    3    3    0    0  0.88164317670E+02  0.65652350390E+02 -0.43494701909E+02  0.17211181022E+03  0.12509000000E+03 0.  0.
         25    1    4    4    0    0 -0.80930081425E+02 -0.46776384777E+02 -0.96793408358E+02  0.18372310757E+03  0.12509000000E+03 0.  0.
         25    1    4    4    0    0 -0.72342362449E+01 -0.18875965613E+02 -0.44047871312E+02  0.13415050995E+03  0.12509000000E+03 0.  0.
<mgrwt>
<rscale>  2 0.45398895E+03</rscale>
<asrwt>0</asrwt>
<pdfrwt beam="1">  1       21 0.22474224E-01 0.45398895E+03</pdfrwt>
<pdfrwt beam="2">  1       21 0.49582456E-01 0.45398895E+03</pdfrwt>
<totfact> 0.66512357E+04</totfact>
</mgrwt>
</event>
<event>
 7    0  0.4725730E-002  0.4529172E+03  0.7546771E-02  0.1026856E+00
         21   -1    0    0  502  501  0.00000000000E+00  0.00000000000E+00  0.55873383442E+03  0.55873383442E+03  0.00000000000E+00 0. -1.
         21   -1    0    0  501  502 -0.00000000000E+00 -0.00000000000E+00 -0.91785216279E+02  0.91785216279E+02  0.00000000000E+00 0. -1.
      99926    2    1    2    0    0  0.00000000000E+00  0.00000000000E+00  0.46694861814E+03  0.65051905070E+03  0.45291723674E+03 0.  0.
      99925    2    3    3    0    0 -0.20057091816E+02 -0.94761147998E+02  0.37264659341E+03  0.46633886156E+03  0.26310546957E+03 0.  0.
         25    1    4    4    0    0 -0.47381177767E+02 -0.39848866012E+02  0.21040402167E+03  0.25248815530E+03  0.12509000000E+03 0.  0.
         25    1    4    4    0    0  0.27324085951E+02 -0.54912281986E+02  0.16224257174E+03  0.21385070627E+03  0.12509000000E+03 0.  0.
         25    1    3    3    0    0  0.20057091816E+02  0.94761147998E+02  0.94302024728E+02  0.18418018914E+03  0.12509000000E+03 0.  0.
<mgrwt>
<rscale>  2 0.45291724E+03</rscale>
<asrwt>0</asrwt>
<pdfrwt beam="1">  1       21 0.82166739E-01 0.45291724E+03</pdfrwt>
<pdfrwt beam="2">  1       21 0.13497826E-01 0.45291724E+03</pdfrwt>
<totfact> 0.56595765E+04</totfact>
</mgrwt>
</event>
<event>
 7    0  0.4725730E-002  0.4470956E+03  0.7546771E-02  0.1028592E+00
         21   -1    0    0  502  501  0.00000000000E+00  0.00000000000E+00  0.21221672012E+04  0.21221672012E+04  0.00000000000E+00 0. -1.
         21   -1    0    0  501  502 -0.00000000000E+00 -0.00000000000E+00 -0.23548393800E+02  0.23548393800E+02  0.00000000000E+00 0. -1.
      99926    2    1    2    0    0  0.00000000000E+00  0.00000000000E+00  0.20986188074E+04  0.21457155950E+04  0.44709564508E+03 0.  0.
      99925    2    3    3    0    0  0.72978072410E+02 -0.67617560618E+02  0.14997578234E+04  0.15258931044E+04  0.26301768714E+03 0.  0.
         25    1    4    4    0    0  0.59389471190E+02 -0.50540106280E+02  0.63648676112E+03  0.65333323566E+03  0.12509000000E+03 0.  0.
         25    1    3    3    0    0 -0.72978072410E+02  0.67617560618E+02  0.59886098402E+03  0.61982249059E+03  0.12509000000E+03 0.  0.
         25    1    4    4    0    0  0.13588601220E+02 -0.17077454339E+02  0.86327106227E+03  0.87255986877E+03  0.12509000000E+03 0.  0.
<mgrwt>
<rscale>  2 0.44709565E+03</rscale>
<asrwt>0</asrwt>
<pdfrwt beam="1">  1       21 0.31208328E+00 0.44709565E+03</pdfrwt>
<pdfrwt beam="2">  1       21 0.34630005E-02 0.44709565E+03</pdfrwt>
<totfact> 0.12205496E+04</totfact>
</mgrwt>
</event>
<event>
 7    0  0.4725730E-002  0.4454963E+03  0.7546771E-02  0.1029074E+00
         21   -1    0    0  502  501  0.00000000000E+00  0.00000000000E+00  0.25420538917E+03  0.25420538917E+03  0.00000000000E+00 0. -1.
         21   -1    0    0  501  502 -0.00000000000E+00 -0.00000000000E+00 -0.19518368833E+03  0.19518368833E+03  0.00000000000E+00 0. -1.
      99926    2    1    2    0    0  0.71054273576E-14  0.00000000000E+00  0.59021700837E+02  0.44938907750E+03  0.44549633198E+03 0.  0.
      99925    2    3    3    0    0 -0.45752236867E+02  0.92779535910E+02  0.26712113943E+02  0.28388159439E+03  0.26300934040E+03 0.  0.
         25    1    4    4    0    0  0.14410962068E+02  0.62351229353E+02  0.14514987166E+02  0.14125701605E+03  0.12509000000E+03 0.  0.
         25    1    4    4    0    0 -0.60163198935E+02  0.30428306556E+02  0.12197126777E+02  0.14262457834E+03  0.12509000000E+03 0.  0.
         25    1    3    3    0    0  0.45752236867E+02 -0.92779535910E+02  0.32309586894E+02  0.16550748312E+03  0.12509000000E+03 0.  0.
<mgrwt>
<rscale>  2 0.44549633E+03</rscale>
<asrwt>0</asrwt>
<pdfrwt beam="1">  1       21 0.37383146E-01 0.44549633E+03</pdfrwt>
<pdfrwt beam="2">  1       21 0.28703483E-01 0.44549633E+03</pdfrwt>
<totfact> 0.74445085E+04</totfact>
</mgrwt>
</event>
<event>
 7    0  0.4725730E-002  0.4156052E+03  0.7546771E-02  0.1038506E+00
         21   -1    0    0  502  501  0.00000000000E+00  0.00000000000E+00  0.10468899641E+03  0.10468899641E+03  0.00000000000E+00 0. -1.
         21   -1    0    0  501  502 -0.00000000000E+00 -0.00000000000E+00 -0.41247808111E+03  0.41247808111E+03  0.00000000000E+00 0. -1.
      99926    2    1    2    0    0  0.71054273576E-14  0.35527136788E-14 -0.30778908471E+03  0.51716707752E+03  0.41560517972E+03 0.  0.
      99925    2    3    3    0    0  0.48527372217E+02  0.23524733245E+02 -0.25718909399E+03  0.37185298293E+03  0.26309711499E+03 0.  0.
         25    1    3    3    0    0 -0.48527372217E+02 -0.23524733245E+02 -0.50599990712E+02  0.14531409460E+03  0.12509000000E+03 0.  0.
         25    1    4    4    0    0  0.58069187335E+02 -0.46882547830E+01 -0.15564019981E+03  0.20800334167E+03  0.12509000000E+03 0.  0.
         25    1    4    4    0    0 -0.95418151182E+01  0.28212988028E+02 -0.10154889419E+03  0.16384964126E+03  0.12509000000E+03 0.  0.
<mgrwt>
<rscale>  2 0.41560518E+03</rscale>
<asrwt>0</asrwt>
<pdfrwt beam="1">  1       21 0.15395441E-01 0.41560518E+03</pdfrwt>
<pdfrwt beam="2">  1       21 0.60658542E-01 0.41560518E+03</pdfrwt>
<totfact> 0.88682842E+04</totfact>
</mgrwt>
</event>
<event>
 7    0  0.4725730E-002  0.4673838E+03  0.7546771E-02  0.1022661E+00
         21   -1    0    0  502  501  0.00000000000E+00  0.00000000000E+00  0.40715338241E+03  0.40715338241E+03  0.00000000000E+00 0.  1.
         21   -1    0    0  501  502 -0.00000000000E+00 -0.00000000000E+00 -0.13413102344E+03  0.13413102344E+03  0.00000000000E+00 0.  1.
      99926    2    1    2    0    0  0.00000000000E+00  0.71054273576E-14  0.27302235898E+03  0.54128440585E+03  0.46738378182E+03 0.  0.
      99925    2    3    3    0    0 -0.34633843718E+02 -0.62709020236E+02  0.52217040460E+02  0.27759060400E+03  0.26305512685E+03 0.  0.
         25    1    4    4    0    0  0.13975384505E+02 -0.24637952770E+02  0.51171859292E+02  0.13808840419E+03  0.12509000000E+03 0.  0.
         25    1    3    3    0    0  0.34633843718E+02  0.62709020236E+02  0.22080531852E+03  0.26369380185E+03  0.12509000000E+03 0.  0.
         25    1    4    4    0    0 -0.48609228223E+02 -0.38071067466E+02  0.10451811684E+01  0.13950219980E+03  0.12509000000E+03 0.  0.
<mgrwt>
<rscale>  2 0.46738378E+03</rscale>
<asrwt>0</asrwt>
<pdfrwt beam="1">  1       21 0.59875497E-01 0.46738378E+03</pdfrwt>
<pdfrwt beam="2">  1       21 0.19725151E-01 0.46738378E+03</pdfrwt>
<totfact> 0.56678705E+04</totfact>
</mgrwt>
</event>
<event>
 7    0  0.4725730E-002  0.4589554E+03  0.7546771E-02  0.1025085E+00
         21   -1    0    0  502  501  0.00000000000E+00  0.00000000000E+00  0.20560470065E+03  0.20560470065E+03  0.00000000000E+00 0.  1.
         21   -1    0    0  501  502 -0.00000000000E+00 -0.00000000000E+00 -0.25612265003E+03  0.25612265003E+03  0.00000000000E+00 0.  1.
      99926    2    1    2    0    0  0.00000000000E+00  0.17763568394E-14 -0.50517949378E+02  0.46172735067E+03  0.45895542610E+03 0.  0.
      99925    2    3    3    0    0 -0.10267973348E+03  0.31705995356E+01 -0.87472033202E+02  0.29569635122E+03  0.26311935535E+03 0.  0.
         25    1    4    4    0    0 -0.56323185241E+02 -0.27149427100E+02 -0.74030383063E+02  0.15823210263E+03  0.12509000000E+03 0.  0.
         25    1    4    4    0    0 -0.46356548240E+02  0.30320026635E+02 -0.13441650139E+02  0.13746424858E+03  0.12509000000E+03 0.  0.
         25    1    3    3    0    0  0.10267973348E+03 -0.31705995356E+01  0.36954083824E+02  0.16603099946E+03  0.12509000000E+03 0.  0.
<mgrwt>
<rscale>  2 0.45895543E+03</rscale>
<asrwt>0</asrwt>
<pdfrwt beam="1">  1       21 0.30235985E-01 0.45895543E+03</pdfrwt>
<pdfrwt beam="2">  1       21 0.37665095E-01 0.45895543E+03</pdfrwt>
<totfact> 0.65949716E+04</totfact>
</mgrwt>
</event>
<event>
 7    0  0.4725730E-002  0.4542698E+03  0.7546771E-02  0.1026456E+00
         21   -1    0    0  502  501  0.00000000000E+00  0.00000000000E+00  0.33527814824E+03  0.33527814824E+03  0.00000000000E+00 0. -1.
         21   -1    0    0  501  502 -0.00000000000E+00 -0.00000000000E+00 -0.15387299534E+03  0.15387299534E+03  0.00000000000E+00 0. -1.
      99926    2    1    2    0    0 -0.14210854715E-13  0.00000000000E+00  0.18140515290E+03  0.48915114358E+03  0.45426975661E+03 0.  0.
      99925    2    3    3    0    0  0.89047049466E+02 -0.94969481171E+01  0.41021384969E+02  0.28088525718E+03  0.26304791319E+03 0.  0.
         25    1    4    4    0    0  0.31136883858E+01 -0.14899975811E+02  0.19081824954E+02  0.12744931729E+03  0.12509000000E+03 0.  0.
         25    1    4    4    0    0  0.85933361080E+02  0.54030276938E+01  0.21939560015E+02  0.15343593988E+03  0.12509000000E+03 0.  0.
         25    1    3    3    0    0 -0.89047049466E+02  0.94969481171E+01  0.14038376793E+03  0.20826588641E+03  0.12509000000E+03 0.  0.
<mgrwt>
<rscale>  2 0.45426976E+03</rscale>
<asrwt>0</asrwt>
<pdfrwt beam="1">  1       21 0.49305610E-01 0.45426976E+03</pdfrwt>
<pdfrwt beam="2">  1       21 0.22628382E-01 0.45426976E+03</pdfrwt>
<totfact> 0.66423991E+04</totfact>
</mgrwt>
</event>
<event>
 7    0  0.4725730E-002  0.4526599E+03  0.7546771E-02  0.1026932E+00
         21   -1    0    0  502  501  0.00000000000E+00  0.00000000000E+00  0.34866251229E+03  0.34866251229E+03  0.00000000000E+00 0. -1.
         21   -1    0    0  501  502 -0.00000000000E+00 -0.00000000000E+00 -0.14691928343E+03  0.14691928343E+03  0.00000000000E+00 0. -1.
      99926    2    1    2    0    0  0.00000000000E+00  0.00000000000E+00  0.20174322886E+03  0.49558179572E+03  0.45265990088E+03 0.  0.
      99925    2    3    3    0    0 -0.54647469387E+02  0.83138797020E+02  0.18178937371E+03  0.33451016596E+03  0.26258573696E+03 0.  0.
         25    1    3    3    0    0  0.54647469387E+02 -0.83138797020E+02  0.19953855145E+02  0.16107162977E+03  0.12509000000E+03 0.  0.
         25    1    4    4    0    0 -0.66221150445E+02  0.33474608397E+02  0.86848634645E+02  0.16939888906E+03  0.12509000000E+03 0.  0.
         25    1    4    4    0    0  0.11573681058E+02  0.49664188624E+02  0.94940739069E+02  0.16511127690E+03  0.12509000000E+03 0.  0.
<mgrwt>
<rscale>  2 0.45265990E+03</rscale>
<asrwt>0</asrwt>
<pdfrwt beam="1">  1       21 0.51273899E-01 0.45265990E+03</pdfrwt>
<pdfrwt beam="2">  1       21 0.21605777E-01 0.45265990E+03</pdfrwt>
<totfact> 0.66814769E+04</totfact>
</mgrwt>
</event>
<event>
 7    0  0.4725730E-002  0.4645343E+03  0.7546771E-02  0.1023474E+00
         21   -1    0    0  502  501  0.00000000000E+00  0.00000000000E+00  0.18173607045E+03  0.18173607045E+03  0.00000000000E+00 0. -1.
         21   -1    0    0  501  502 -0.00000000000E+00 -0.00000000000E+00 -0.29684818612E+03  0.29684818612E+03  0.00000000000E+00 0. -1.
      99926    2    1    2    0    0  0.14210854715E-13  0.00000000000E+00 -0.11511211567E+03  0.47858425656E+03  0.46453427372E+03 0.  0.
      99925    2    3    3    0    0  0.11216093718E+03  0.47308530076E+02 -0.68575237127E+02  0.29794272753E+03  0.26315229980E+03 0.  0.
         25    1    4    4    0    0  0.79376661970E+02  0.37682067904E+02 -0.70305389493E+02  0.16825857660E+03  0.12509000000E+03 0.  0.
         25    1    3    3    0    0 -0.11216093718E+03 -0.47308530076E+02 -0.46536878545E+02  0.18064152904E+03  0.12509000000E+03 0.  0.
         25    1    4    4    0    0  0.32784275213E+02  0.96264621726E+01  0.17301523654E+01  0.12968415093E+03  0.12509000000E+03 0.  0.
<mgrwt>
<rscale>  2 0.46453427E+03</rscale>
<asrwt>0</asrwt>
<pdfrwt beam="1">  1       21 0.26725893E-01 0.46453427E+03</pdfrwt>
<pdfrwt beam="2">  1       21 0.43654144E-01 0.46453427E+03</pdfrwt>
<totfact> 0.61980001E+04</totfact>
</mgrwt>
</event>
<event>
 7    0  0.4725730E-002  0.4552739E+03  0.7546771E-02  0.1026161E+00
         21   -1    0    0  502  501  0.00000000000E+00  0.00000000000E+00  0.24233480944E+03  0.24233480944E+03  0.00000000000E+00 0.  1.
         21   -1    0    0  501  502 -0.00000000000E+00 -0.00000000000E+00 -0.21383049982E+03  0.21383049982E+03  0.00000000000E+00 0.  1.
      99926    2    1    2    0    0  0.14210854715E-13 -0.71054273576E-14  0.28504309623E+02  0.45616530926E+03  0.45527386670E+03 0.  0.
      99925    2    3    3    0    0 -0.10528184248E+03  0.40549478776E+02  0.30063265215E+02  0.28770621918E+03  0.26294969492E+03 0.  0.
         25    1    3    3    0    0  0.10528184248E+03 -0.40549478776E+02 -0.15589555916E+01  0.16845909007E+03  0.12509000000E+03 0.  0.
         25    1    4    4    0    0 -0.25520846111E+02  0.38159049939E+02 -0.11152172123E+02  0.13371352109E+03  0.12509000000E+03 0.  0.
         25    1    4    4    0    0 -0.79760996373E+02  0.23904288369E+01  0.41215437337E+02  0.15399269810E+03  0.12509000000E+03 0.  0.
<mgrwt>
<rscale>  2 0.45527387E+03</rscale>
<asrwt>0</asrwt>
<pdfrwt beam="1">  1       21 0.35637472E-01 0.45527387E+03</pdfrwt>
<pdfrwt beam="2">  1       21 0.31445662E-01 0.45527387E+03</pdfrwt>
<totfact> 0.68311152E+04</totfact>
</mgrwt>
</event>
<event>
 7    0  0.4725730E-002  0.4654039E+03  0.7546771E-02  0.1023225E+00
         21   -1    0    0  502  501  0.00000000000E+00  0.00000000000E+00  0.72422579928E+03  0.72422579928E+03  0.00000000000E+00 0. -1.
         21   -1    0    0  501  502 -0.00000000000E+00 -0.00000000000E+00 -0.74769770890E+02  0.74769770890E+02  0.00000000000E+00 0. -1.
      99926    2    1    2    0    0  0.00000000000E+00  0.00000000000E+00  0.64945602839E+03  0.79899557017E+03  0.46540389807E+03 0.  0.
      99925    2    3    3    0    0 -0.92017436306E+02 -0.57113171025E+02  0.50391118187E+03  0.57863238509E+03  0.26298257542E+03 0.  0.
         25    1    4    4    0    0 -0.21661949689E+02 -0.58197561150E+02  0.22164646257E+03  0.26197491991E+03  0.12509000000E+03 0.  0.
         25    1    3    3    0    0  0.92017436306E+02  0.57113171025E+02  0.14554484652E+03  0.22036318508E+03  0.12509000000E+03 0.  0.
         25    1    4    4    0    0 -0.70355486617E+02  0.10843901250E+01  0.28226471929E+03  0.31665746518E+03  0.12509000000E+03 0.  0.
<mgrwt>
<rscale>  2 0.46540390E+03</rscale>
<asrwt>0</asrwt>
<pdfrwt beam="1">  1       21 0.10650379E+00 0.46540390E+03</pdfrwt>
<pdfrwt beam="2">  1       21 0.10995555E-01 0.46540390E+03</pdfrwt>
<totfact> 0.44100922E+04</totfact>
</mgrwt>
</event>
<event>
 7    0  0.4725730E-002  0.4518274E+03  0.7546771E-02  0.1027179E+00
         21   -1    0    0  502  501  0.00000000000E+00  0.00000000000E+00  0.39900277026E+02  0.39900277026E+02  0.00000000000E+00 0.  1.
         21   -1    0    0  501  502 -0.00000000000E+00 -0.00000000000E+00 -0.12791137799E+04  0.12791137799E+04  0.00000000000E+00 0.  1.
      99926    2    1    2    0    0  0.00000000000E+00  0.00000000000E+00 -0.12392135029E+04  0.13190140569E+04  0.45182737485E+03 0.  0.
      99925    2    3    3    0    0 -0.79065472118E+02 -0.14359042645E+02 -0.56181107271E+03  0.62548749544E+03  0.26295511889E+03 0.  0.
         25    1    3    3    0    0  0.79065472118E+02  0.14359042645E+02 -0.67740243015E+03  0.69352656147E+03  0.12509000000E+03 0.  0.
         25    1    4    4    0    0 -0.22883166878E+02 -0.39419417195E+02 -0.23312288441E+03  0.26846101601E+03  0.12509000000E+03 0.  0.
         25    1    4    4    0    0 -0.56182305240E+02  0.25060374550E+02 -0.32868818829E+03  0.35702647943E+03  0.12509000000E+03 0.  0.
<mgrwt>
<rscale>  2 0.45182737E+03</rscale>
<asrwt>0</asrwt>
<pdfrwt beam="1">  1       21 0.58676879E-02 0.45182737E+03</pdfrwt>
<pdfrwt beam="2">  1       21 0.18810497E+00 0.45182737E+03</pdfrwt>
<totfact> 0.29283256E+04</totfact>
</mgrwt>
</event>
<event>
 7    0  0.4725730E-002  0.4670081E+03  0.7546771E-02  0.1022768E+00
         21   -1    0    0  502  501  0.00000000000E+00  0.00000000000E+00  0.81018471492E+03  0.81018471492E+03  0.00000000000E+00 0.  1.
         21   -1    0    0  501  502 -0.00000000000E+00 -0.00000000000E+00 -0.67298419960E+02  0.67298419960E+02  0.00000000000E+00 0.  1.
      99926    2    1    2    0    0  0.00000000000E+00  0.00000000000E+00  0.74288629496E+03  0.87748313488E+03  0.46700814207E+03 0.  0.
      99925    2    3    3    0    0  0.42085433222E+02 -0.97493686052E+02  0.34204930071E+03  0.44436189715E+03  0.26302769629E+03 0.  0.
         25    1    3    3    0    0 -0.42085433222E+02  0.97493686052E+02  0.40083699426E+03  0.43312123773E+03  0.12509000000E+03 0.  0.
         25    1    4    4    0    0  0.10786795375E+02 -0.41204301459E+02  0.22680169425E+03  0.26248936365E+03  0.12509000000E+03 0.  0.
         25    1    4    4    0    0  0.31298637846E+02 -0.56289384593E+02  0.11524760645E+03  0.18187253350E+03  0.12509000000E+03 0.  0.
<mgrwt>
<rscale>  2 0.46700814E+03</rscale>
<asrwt>0</asrwt>
<pdfrwt beam="1">  1       21 0.11914481E+00 0.46700814E+03</pdfrwt>
<pdfrwt beam="2">  1       21 0.98968270E-02 0.46700814E+03</pdfrwt>
<totfact> 0.40295888E+04</totfact>
</mgrwt>
</event>
<event>
 7    0  0.4725730E-002  0.4533914E+03  0.7546771E-02  0.1026716E+00
         21   -1    0    0  502  501  0.00000000000E+00  0.00000000000E+00  0.36730820617E+02  0.36730820617E+02  0.00000000000E+00 0. -1.
         21   -1    0    0  501  502 -0.00000000000E+00 -0.00000000000E+00 -0.13991230593E+04  0.13991230593E+04  0.00000000000E+00 0. -1.
      99926    2    1    2    0    0  0.00000000000E+00  0.14210854715E-13 -0.13623922387E+04  0.14358538799E+04  0.45339138992E+03 0.  0.
      99925    2    3    3    0    0  0.23114771450E+02 -0.10923089249E+03 -0.85260732359E+03  0.89920329687E+03  0.26298600785E+03 0.  0.
         25    1    4    4    0    0  0.30308198673E+02 -0.56573701174E+02 -0.31991009652E+03  0.34944119466E+03  0.12509000000E+03 0.  0.
         25    1    4    4    0    0 -0.71934272231E+01 -0.52657191313E+02 -0.53269722708E+03  0.54976210221E+03  0.12509000000E+03 0.  0.
         25    1    3    3    0    0 -0.23114771450E+02  0.10923089249E+03 -0.50978491510E+03  0.53665058306E+03  0.12509000000E+03 0.  0.
<mgrwt>
<rscale>  2 0.45339139E+03</rscale>
<asrwt>0</asrwt>
<pdfrwt beam="1">  1       21 0.54015920E-02 0.45339139E+03</pdfrwt>
<pdfrwt beam="2">  1       21 0.20575336E+00 0.45339139E+03</pdfrwt>
<totfact> 0.25711926E+04</totfact>
</mgrwt>
</event>
<event>
 7    0  0.4725730E-002  0.4529533E+03  0.7546771E-02  0.1026845E+00
         21   -1    0    0  502  501  0.00000000000E+00  0.00000000000E+00  0.18322759629E+03  0.18322759629E+03  0.00000000000E+00 0.  1.
         21   -1    0    0  501  502 -0.00000000000E+00 -0.00000000000E+00 -0.27993424566E+03  0.27993424566E+03  0.00000000000E+00 0.  1.
      99926    2    1    2    0    0  0.00000000000E+00 -0.71054273576E-14 -0.96706649376E+02  0.46316184195E+03  0.45295332630E+03 0.  0.
      99925    2    3    3    0    0 -0.99878750620E+02  0.41698208520E+02 -0.87496255818E+02  0.29749094870E+03  0.26292729862E+03 0.  0.
         25    1    3    3    0    0  0.99878750620E+02 -0.41698208520E+02 -0.92103935581E+01  0.16567089325E+03  0.12509000000E+03 0.  0.
         25    1    4    4    0    0 -0.85072119526E+02  0.24484480200E+02 -0.72323104292E+02  0.16945469839E+03  0.12509000000E+03 0.  0.
         25    1    4    4    0    0 -0.14806631094E+02  0.17213728320E+02 -0.15173151526E+02  0.12803625031E+03  0.12509000000E+03 0.  0.
<mgrwt>
<rscale>  2 0.45295333E+03</rscale>
<asrwt>0</asrwt>
<pdfrwt beam="1">  1       21 0.26945235E-01 0.45295333E+03</pdfrwt>
<pdfrwt beam="2">  1       21 0.41166801E-01 0.45295333E+03</pdfrwt>
<totfact> 0.69062720E+04</totfact>
</mgrwt>
</event>
<event>
 7    0  0.4725730E-002  0.4621947E+03  0.7546771E-02  0.1024147E+00
         21   -1    0    0  502  501  0.00000000000E+00  0.00000000000E+00  0.68877917134E+03  0.68877917134E+03  0.00000000000E+00 0. -1.
         21   -1    0    0  501  502 -0.00000000000E+00 -0.00000000000E+00 -0.77537161040E+02  0.77537161040E+02  0.00000000000E+00 0. -1.
      99926    2    1    2    0    0  0.00000000000E+00  0.00000000000E+00  0.61124201030E+03  0.76631633238E+03  0.46219468421E+03 0.  0.
      99925    2    3    3    0    0  0.86450752233E+02 -0.58726969297E+02  0.47945246296E+03  0.55670101240E+03  0.26290447595E+03 0.  0.
         25    1    3    3    0    0 -0.86450752233E+02  0.58726969297E+02  0.13178954733E+03  0.20961531998E+03  0.12509000000E+03 0.  0.
         25    1    4    4    0    0  0.46974647961E+02  0.32192017887E+01  0.27792291319E+03  0.30839201446E+03  0.12509000000E+03 0.  0.
         25    1    4    4    0    0  0.39476104272E+02 -0.61946171086E+02  0.20152954978E+03  0.24830899793E+03  0.12509000000E+03 0.  0.
<mgrwt>
<rscale>  2 0.46219468E+03</rscale>
<asrwt>0</asrwt>
<pdfrwt beam="1">  1       21 0.10129105E+00 0.46219468E+03</pdfrwt>
<pdfrwt beam="2">  1       21 0.11402524E-01 0.46219468E+03</pdfrwt>
<totfact> 0.46740612E+04</totfact>
</mgrwt>
</event>
<event>
 7    0  0.4725730E-002  0.4613264E+03  0.7546771E-02  0.1024397E+00
         21   -1    0    0  502  501  0.00000000000E+00  0.00000000000E+00  0.15557007101E+03  0.15557007101E+03  0.00000000000E+00 0. -1.
         21   -1    0    0  501  502 -0.00000000000E+00 -0.00000000000E+00 -0.34200354983E+03  0.34200354983E+03  0.00000000000E+00 0. -1.
      99926    2    1    2    0    0 -0.35527136788E-14  0.00000000000E+00 -0.18643347882E+03  0.49757362083E+03  0.46132642036E+03 0.  0.
      99925    2    3    3    0    0  0.21444056773E+02  0.28330371929E+02  0.58777421640E+01  0.26542373097E+03  0.26296910763E+03 0.  0.
         25    1    4    4    0    0 -0.59806951417E+01  0.73282127904E+01  0.39223605840E+02  0.13143618517E+03  0.12509000000E+03 0.  0.
         25    1    4    4    0    0  0.27424751914E+02  0.21002159138E+02 -0.33345863676E+02  0.13398754580E+03  0.12509000000E+03 0.  0.
         25    1    3    3    0    0 -0.21444056773E+02 -0.28330371929E+02 -0.19231122099E+03  0.23214988986E+03  0.12509000000E+03 0.  0.
<mgrwt>
<rscale>  2 0.46132642E+03</rscale>
<asrwt>0</asrwt>
<pdfrwt beam="1">  1       21 0.22877952E-01 0.46132642E+03</pdfrwt>
<pdfrwt beam="2">  1       21 0.50294639E-01 0.46132642E+03</pdfrwt>
<totfact> 0.62255572E+04</totfact>
</mgrwt>
</event>
<event>
 7    0  0.4725730E-002  0.4589876E+03  0.7546771E-02  0.1025075E+00
         21   -1    0    0  502  501  0.00000000000E+00  0.00000000000E+00  0.44780198059E+03  0.44780198059E+03  0.00000000000E+00 0. -1.
         21   -1    0    0  501  502 -0.00000000000E+00 -0.00000000000E+00 -0.11761314686E+03  0.11761314686E+03  0.00000000000E+00 0. -1.
      99926    2    1    2    0    0  0.00000000000E+00  0.00000000000E+00  0.33018883373E+03  0.56541512744E+03  0.45898758199E+03 0.  0.
      99925    2    3    3    0    0 -0.49267264256E+02 -0.82839209098E+02  0.12559459725E+03  0.30696608490E+03  0.26299159022E+03 0.  0.
         25    1    4    4    0    0 -0.15522085817E+02 -0.38674974005E+02  0.10498531651E+03  0.16854113309E+03  0.12509000000E+03 0.  0.
         25    1    4    4    0    0 -0.33745178438E+02 -0.44164235093E+02  0.20609280742E+02  0.13842495180E+03  0.12509000000E+03 0.  0.
         25    1    3    3    0    0  0.49267264256E+02  0.82839209098E+02  0.20459423648E+03  0.25844904255E+03  0.12509000000E+03 0.  0.
<mgrwt>
<rscale>  2 0.45898758E+03</rscale>
<asrwt>0</asrwt>
<pdfrwt beam="1">  1       21 0.65853232E-01 0.45898758E+03</pdfrwt>
<pdfrwt beam="2">  1       21 0.17296051E-01 0.45898758E+03</pdfrwt>
<totfact> 0.58977118E+04</totfact>
</mgrwt>
</event>
<event>
 7    0  0.4725730E-002  0.4728538E+03  0.7546771E-02  0.1021118E+00
         21   -1    0    0  502  501  0.00000000000E+00  0.00000000000E+00  0.17064169014E+03  0.17064169014E+03  0.00000000000E+00 0. -1.
         21   -1    0    0  501  502 -0.00000000000E+00 -0.00000000000E+00 -0.32757341169E+03  0.32757341169E+03  0.00000000000E+00 0. -1.
      99926    2    1    2    0    0  0.00000000000E+00  0.14210854715E-13 -0.15693172155E+03  0.49821510183E+03  0.47285380666E+03 0.  0.
      99925    2    3    3    0    0 -0.18048436327E+02 -0.10768603283E+03 -0.17008656237E+03  0.33165404499E+03  0.26295044997E+03 0.  0.
         25    1    4    4    0    0 -0.63937611941E+01 -0.36168231002E+02 -0.12399998364E+03  0.17992366481E+03  0.12509000000E+03 0.  0.
         25    1    3    3    0    0  0.18048436327E+02  0.10768603283E+03  0.13154840822E+02  0.16656105684E+03  0.12509000000E+03 0.  0.
         25    1    4    4    0    0 -0.11654675133E+02 -0.71517801825E+02 -0.46086578729E+02  0.15173038018E+03  0.12509000000E+03 0.  0.
<mgrwt>
<rscale>  2 0.47285381E+03</rscale>
<asrwt>0</asrwt>
<pdfrwt beam="1">  1       21 0.25094366E-01 0.47285381E+03</pdfrwt>
<pdfrwt beam="2">  1       21 0.48172560E-01 0.47285381E+03</pdfrwt>
<totfact> 0.56894756E+04</totfact>
</mgrwt>
</event>
<event>
 7    0  0.4725730E-002  0.4735249E+03  0.7546771E-02  0.1020930E+00
         21   -1    0    0  502  501  0.00000000000E+00  0.00000000000E+00  0.60451126968E+03  0.60451126968E+03  0.00000000000E+00 0. -1.
         21   -1    0    0  501  502 -0.00000000000E+00 -0.00000000000E+00 -0.92730213052E+02  0.92730213052E+02  0.00000000000E+00 0. -1.
      99926    2    1    2    0    0  0.00000000000E+00  0.00000000000E+00  0.51178105663E+03  0.69724148274E+03  0.47352490465E+03 0.  0.
      99925    2    3    3    0    0  0.88658684580E+02 -0.69904149393E+02  0.22285348153E+03  0.36276636526E+03  0.26303765716E+03 0.  0.
         25    1    4    4    0    0  0.30964299344E+02 -0.31225191705E+02  0.15629465981E+03  0.20496177501E+03  0.12509000000E+03 0.  0.
         25    1    3    3    0    0 -0.88658684580E+02  0.69904149393E+02  0.28892757510E+03  0.33447511747E+03  0.12509000000E+03 0.  0.
         25    1    4    4    0    0  0.57694385236E+02 -0.38678957688E+02  0.66558821719E+02  0.15780459025E+03  0.12509000000E+03 0.  0.
<mgrwt>
<rscale>  2 0.47352490E+03</rscale>
<asrwt>0</asrwt>
<pdfrwt beam="1">  1       21 0.88898715E-01 0.47352490E+03</pdfrwt>
<pdfrwt beam="2">  1       21 0.13636796E-01 0.47352490E+03</pdfrwt>
<totfact> 0.45970506E+04</totfact>
</mgrwt>
</event>
<event>
 7    0  0.4725730E-002  0.4524452E+03  0.7546771E-02  0.1026995E+00
         21   -1    0    0  502  501  0.00000000000E+00  0.00000000000E+00  0.11763557974E+03  0.11763557974E+03  0.00000000000E+00 0. -1.
         21   -1    0    0  501  502 -0.00000000000E+00 -0.00000000000E+00 -0.43504409536E+03  0.43504409536E+03  0.00000000000E+00 0. -1.
      99926    2    1    2    0    0  0.14210854715E-13  0.00000000000E+00 -0.31740851562E+03  0.55267967511E+03  0.45244519832E+03 0.  0.
      99925    2    3    3    0    0 -0.83185682001E+02  0.41345577639E+02 -0.27374752885E+03  0.39086773381E+03  0.26307900201E+03 0.  0.
         25    1    3    3    0    0  0.83185682001E+02 -0.41345577639E+02 -0.43660986767E+02  0.16181194130E+03  0.12509000000E+03 0.  0.
         25    1    4    4    0    0 -0.15927269032E+02  0.33790650710E+02 -0.90261925961E+02  0.15871423803E+03  0.12509000000E+03 0.  0.
         25    1    4    4    0    0 -0.67258412969E+02  0.75549269290E+01 -0.18348560289E+03  0.23215349578E+03  0.12509000000E+03 0.  0.
<mgrwt>
<rscale>  2 0.45244520E+03</rscale>
<asrwt>0</asrwt>
<pdfrwt beam="1">  1       21 0.17299350E-01 0.45244520E+03</pdfrwt>
<pdfrwt beam="2">  1       21 0.63977073E-01 0.45244520E+03</pdfrwt>
<totfact> 0.62952556E+04</totfact>
</mgrwt>
</event>
<event>
 7    0  0.4725730E-002  0.4524563E+03  0.7546771E-02  0.1026992E+00
         21   -1    0    0  502  501  0.00000000000E+00  0.00000000000E+00  0.68289785791E+03  0.68289785791E+03  0.00000000000E+00 0.  1.
         21   -1    0    0  501  502 -0.00000000000E+00 -0.00000000000E+00 -0.74944102852E+02  0.74944102852E+02  0.00000000000E+00 0.  1.
      99926    2    1    2    0    0 -0.88817841970E-15  0.00000000000E+00  0.60795375506E+03  0.75784196076E+03  0.45245626220E+03 0.  0.
      99925    2    3    3    0    0  0.45502448902E+01 -0.86985894897E+02  0.27099562869E+03  0.38801019135E+03  0.26367788528E+03 0.  0.
         25    1    4    4    0    0 -0.66570468198E+01 -0.19947269612E+02  0.80642180902E+02  0.15030927875E+03  0.12509000000E+03 0.  0.
         25    1    4    4    0    0  0.11207291710E+02 -0.67038625284E+02  0.19035344778E+03  0.23770091260E+03  0.12509000000E+03 0.  0.
         25    1    3    3    0    0 -0.45502448902E+01  0.86985894897E+02  0.33695812637E+03  0.36983176942E+03  0.12509000000E+03 0.  0.
<mgrwt>
<rscale>  2 0.45245626E+03</rscale>
<asrwt>0</asrwt>
<pdfrwt beam="1">  1       21 0.10042615E+00 0.45245626E+03</pdfrwt>
<pdfrwt beam="2">  1       21 0.11021192E-01 0.45245626E+03</pdfrwt>
<totfact> 0.50879539E+04</totfact>
</mgrwt>
</event>
<event>
 7    0  0.4725730E-002  0.4566835E+03  0.7546771E-02  0.1025747E+00
         21   -1    0    0  502  501  0.00000000000E+00  0.00000000000E+00  0.97987726604E+02  0.97987726604E+02  0.00000000000E+00 0.  1.
         21   -1    0    0  501  502 -0.00000000000E+00 -0.00000000000E+00 -0.53210700158E+03  0.53210700158E+03  0.00000000000E+00 0.  1.
      99926    2    1    2    0    0 -0.71054273576E-14 -0.71054273576E-14 -0.43411927498E+03  0.63009472818E+03  0.45668350264E+03 0.  0.
      99925    2    3    3    0    0 -0.56433119326E+02 -0.37009387943E+02 -0.14454931727E+03  0.30752278232E+03  0.26290942313E+03 0.  0.
         25    1    4    4    0    0 -0.55895553872E+02 -0.20390858484E+02 -0.41500781594E+02  0.14460263838E+03  0.12509000000E+03 0.  0.
         25    1    3    3    0    0  0.56433119326E+02  0.37009387943E+02 -0.28956995770E+03  0.32257194586E+03  0.12509000000E+03 0.  0.
         25    1    4    4    0    0 -0.53756545411E+00 -0.16618529459E+02 -0.10304853568E+03  0.16292014395E+03  0.12509000000E+03 0.  0.
<mgrwt>
<rscale>  2 0.45668350E+03</rscale>
<asrwt>0</asrwt>
<pdfrwt beam="1">  1       21 0.14409960E-01 0.45668350E+03</pdfrwt>
<pdfrwt beam="2">  1       21 0.78251029E-01 0.45668350E+03</pdfrwt>
<totfact> 0.56113597E+04</totfact>
</mgrwt>
</event>
<event>
 7    0  0.4725730E-002  0.4545209E+03  0.7546771E-02  0.1026382E+00
         21   -1    0    0  502  501  0.00000000000E+00  0.00000000000E+00  0.78820819179E+02  0.78820819179E+02  0.00000000000E+00 0.  1.
         21   -1    0    0  501  502 -0.00000000000E+00 -0.00000000000E+00 -0.65524973929E+03  0.65524973929E+03  0.00000000000E+00 0.  1.
      99926    2    1    2    0    0  0.00000000000E+00  0.00000000000E+00 -0.57642892012E+03  0.73407055847E+03  0.45452093997E+03 0.  0.
      99925    2    3    3    0    0  0.71440188525E+02  0.39772514186E+02 -0.23778086626E+03  0.36391442128E+03  0.26307491754E+03 0.  0.
         25    1    4    4    0    0  0.70488099540E+00  0.11655616879E+02 -0.81504496792E+02  0.14975593931E+03  0.12509000000E+03 0.  0.
         25    1    4    4    0    0  0.70735307530E+02  0.28116897306E+02 -0.15627636947E+03  0.21415848197E+03  0.12509000000E+03 0.  0.
         25    1    3    3    0    0 -0.71440188525E+02 -0.39772514186E+02 -0.33864805385E+03  0.37015613719E+03  0.12509000000E+03 0.  0.
<mgrwt>
<rscale>  2 0.45452094E+03</rscale>
<asrwt>0</asrwt>
<pdfrwt beam="1">  1       21 0.11591297E-01 0.45452094E+03</pdfrwt>
<pdfrwt beam="2">  1       21 0.96360252E-01 0.45452094E+03</pdfrwt>
<totfact> 0.51284803E+04</totfact>
</mgrwt>
</event>
<event>
 7    0  0.4725730E-002  0.4561468E+03  0.7546771E-02  0.1025905E+00
         21   -1    0    0  502  501  0.00000000000E+00  0.00000000000E+00  0.12273539925E+03  0.12273539925E+03  0.00000000000E+00 0.  1.
         21   -1    0    0  501  502 -0.00000000000E+00 -0.00000000000E+00 -0.42381802466E+03  0.42381802466E+03  0.00000000000E+00 0.  1.
      99926    2    1    2    0    0  0.00000000000E+00 -0.14210854715E-13 -0.30108262541E+03  0.54655342392E+03  0.45614679422E+03 0.  0.
      99925    2    3    3    0    0  0.56201628396E+01  0.11415730879E+03 -0.18776282997E+03  0.34270946027E+03  0.26292853869E+03 0.  0.
         25    1    3    3    0    0 -0.56201628396E+01 -0.11415730879E+03 -0.11331979544E+03  0.20384396365E+03  0.12509000000E+03 0.  0.
         25    1    4    4    0    0  0.91569133345E+01  0.23637672974E+02 -0.11573652265E+03  0.17229346888E+03  0.12509000000E+03 0.  0.
         25    1    4    4    0    0 -0.35367504949E+01  0.90519635814E+02 -0.72026307329E+02  0.17041599138E+03  0.12509000000E+03 0.  0.
<mgrwt>
<rscale>  2 0.45614679E+03</rscale>
<asrwt>0</asrwt>
<pdfrwt beam="1">  1       21 0.18049324E-01 0.45614679E+03</pdfrwt>
<pdfrwt beam="2">  1       21 0.62326179E-01 0.45614679E+03</pdfrwt>
<totfact> 0.61534564E+04</totfact>
</mgrwt>
</event>
<event>
 7    0  0.4725730E-002  0.4444617E+03  0.7546771E-02  0.1029387E+00
         21   -1    0    0  502  501  0.00000000000E+00  0.00000000000E+00  0.78414155183E+02  0.78414155183E+02  0.00000000000E+00 0. -1.
         21   -1    0    0  501  502 -0.00000000000E+00 -0.00000000000E+00 -0.62981686913E+03  0.62981686913E+03  0.00000000000E+00 0. -1.
      99926    2    1    2    0    0  0.17763568394E-14  0.00000000000E+00 -0.55140271394E+03  0.70823102431E+03  0.44446173159E+03 0.  0.
      99925    2    3    3    0    0  0.14252067394E+02 -0.47160332928E+02 -0.49497458479E+03  0.56242683957E+03  0.26248217436E+03 0.  0.
         25    1    4    4    0    0 -0.18783229846E+02 -0.14928351103E+02 -0.18109173037E+03  0.22139870889E+03  0.12509000000E+03 0.  0.
         25    1    3    3    0    0 -0.14252067394E+02  0.47160332928E+02 -0.56428129148E+02  0.14580418473E+03  0.12509000000E+03 0.  0.
         25    1    4    4    0    0  0.33035297240E+02 -0.32231981825E+02 -0.31388285442E+03  0.34102813068E+03  0.12509000000E+03 0.  0.
<mgrwt>
<rscale>  2 0.44446173E+03</rscale>
<asrwt>0</asrwt>
<pdfrwt beam="1">  1       21 0.11531493E-01 0.44446173E+03</pdfrwt>
<pdfrwt beam="2">  1       21 0.92620128E-01 0.44446173E+03</pdfrwt>
<totfact> 0.57042910E+04</totfact>
</mgrwt>
</event>
<event>
 7    0  0.4725730E-002  0.4636171E+03  0.7546771E-02  0.1023737E+00
         21   -1    0    0  502  501  0.00000000000E+00  0.00000000000E+00  0.16745759957E+04  0.16745759957E+04  0.00000000000E+00 0.  1.
         21   -1    0    0  501  502 -0.00000000000E+00 -0.00000000000E+00 -0.32088838337E+02  0.32088838337E+02  0.00000000000E+00 0.  1.
      99926    2    1    2    0    0  0.14210854715E-13  0.00000000000E+00  0.16424871574E+04  0.17066648340E+04  0.46361707651E+03 0.  0.
      99925    2    3    3    0    0 -0.97194612454E+02  0.11654341820E+02  0.76553914472E+03  0.81544772168E+03  0.26329107149E+03 0.  0.
         25    1    4    4    0    0 -0.79923965215E+02 -0.28833059101E+01  0.49005961370E+03  0.51205672219E+03  0.12509000000E+03 0.  0.
         25    1    3    3    0    0  0.97194612454E+02 -0.11654341820E+02  0.87694801264E+03  0.89121711235E+03  0.12509000000E+03 0.  0.
         25    1    4    4    0    0 -0.17270647239E+02  0.14537647730E+02  0.27547953102E+03  0.30339099949E+03  0.12509000000E+03 0.  0.
<mgrwt>
<rscale>  2 0.46361708E+03</rscale>
<asrwt>0</asrwt>
<pdfrwt beam="1">  1       21 0.24626112E+00 0.46361708E+03</pdfrwt>
<pdfrwt beam="2">  1       21 0.47189479E-02 0.46361708E+03</pdfrwt>
<totfact> 0.17895887E+04</totfact>
</mgrwt>
</event>
<event>
 7    0  0.4725730E-002  0.4590379E+03  0.7546771E-02  0.1025061E+00
         21   -1    0    0  502  501  0.00000000000E+00  0.00000000000E+00  0.58698945152E+02  0.58698945152E+02  0.00000000000E+00 0.  1.
         21   -1    0    0  501  502 -0.00000000000E+00 -0.00000000000E+00 -0.89744272801E+03  0.89744272801E+03  0.00000000000E+00 0.  1.
      99926    2    1    2    0    0  0.14210854715E-13  0.00000000000E+00 -0.83874378286E+03  0.95614167317E+03  0.45903786976E+03 0.  0.
      99925    2    3    3    0    0 -0.68304655909E+02  0.91610405856E+02 -0.47268151749E+03  0.55277201304E+03  0.26281379139E+03 0.  0.
         25    1    3    3    0    0  0.68304655909E+02 -0.91610405856E+02 -0.36606226537E+03  0.40336966013E+03  0.12509000000E+03 0.  0.
         25    1    4    4    0    0 -0.32935542569E+02  0.55740167379E+02 -0.31650859757E+03  0.34643457775E+03  0.12509000000E+03 0.  0.
         25    1    4    4    0    0 -0.35369113341E+02  0.35870238477E+02 -0.15617291992E+03  0.20633743529E+03  0.12509000000E+03 0.  0.
<mgrwt>
<rscale>  2 0.45903787E+03</rscale>
<asrwt>0</asrwt>
<pdfrwt beam="1">  1       21 0.86321986E-02 0.45903787E+03</pdfrwt>
<pdfrwt beam="2">  1       21 0.13197686E+00 0.45903787E+03</pdfrwt>
<totfact> 0.39627094E+04</totfact>
</mgrwt>
</event>
<event>
 7    0  0.4725730E-002  0.4933708E+03  0.7546771E-02  0.1015524E+00
         21   -1    0    0  502  501  0.00000000000E+00  0.00000000000E+00  0.73526099666E+03  0.73526099666E+03  0.00000000000E+00 0. -1.
         21   -1    0    0  501  502 -0.00000000000E+00 -0.00000000000E+00 -0.82764738732E+02  0.82764738732E+02  0.00000000000E+00 0. -1.
      99926    2    1    2    0    0 -0.14210854715E-13 -0.35527136788E-14  0.65249625793E+03  0.81802573540E+03  0.49337079074E+03 0.  0.
      99925    2    3    3    0    0  0.11382366212E+03 -0.13346097941E+02  0.54870375529E+03  0.61914301595E+03  0.26292264783E+03 0.  0.
         25    1    4    4    0    0  0.81151461503E+02 -0.37533923593E+02  0.32729065727E+03  0.36160895670E+03  0.12509000000E+03 0.  0.
         25    1    3    3    0    0 -0.11382366212E+03  0.13346097941E+02  0.10379250265E+03  0.19888271945E+03  0.12509000000E+03 0.  0.
         25    1    4    4    0    0  0.32672200621E+02  0.24187825652E+02  0.22141309801E+03  0.25753405925E+03  0.12509000000E+03 0.  0.
<mgrwt>
<rscale>  2 0.49337079E+03</rscale>
<asrwt>0</asrwt>
<pdfrwt beam="1">  1       21 0.10812661E+00 0.49337079E+03</pdfrwt>
<pdfrwt beam="2">  1       21 0.12171286E-01 0.49337079E+03</pdfrwt>
<totfact> 0.35086413E+04</totfact>
</mgrwt>
</event>
<event>
 7    0  0.4725730E-002  0.4568249E+03  0.7546771E-02  0.1025706E+00
         21   -1    0    0  502  501  0.00000000000E+00  0.00000000000E+00  0.21417608226E+02  0.21417608226E+02  0.00000000000E+00 0.  1.
         21   -1    0    0  501  502 -0.00000000000E+00 -0.00000000000E+00 -0.24359516314E+04  0.24359516314E+04  0.00000000000E+00 0.  1.
      99926    2    1    2    0    0 -0.14210854715E-13  0.71054273576E-14 -0.24145340232E+04  0.24573692397E+04  0.45682494546E+03 0.  0.
      99925    2    3    3    0    0  0.66625926703E+02 -0.33894590491E+02 -0.19860928612E+04  0.20048239991E+04  0.26299535467E+03 0.  0.
         25    1    4    4    0    0  0.23128212834E-01 -0.40340941685E+02 -0.98435128553E+03  0.99308728395E+03  0.12509000000E+03 0.  0.
         25    1    3    3    0    0 -0.66625926703E+02  0.33894590491E+02 -0.42844116198E+03  0.45254524056E+03  0.12509000000E+03 0.  0.
         25    1    4    4    0    0  0.66602798491E+02  0.64463511943E+01 -0.10017415757E+04  0.10117367152E+04  0.12509000000E+03 0.  0.
<mgrwt>
<rscale>  2 0.45682495E+03</rscale>
<asrwt>0</asrwt>
<pdfrwt beam="1">  1       21 0.31496517E-02 0.45682495E+03</pdfrwt>
<pdfrwt beam="2">  1       21 0.35822779E+00 0.45682495E+03</pdfrwt>
<totfact> 0.74714167E+03</totfact>
</mgrwt>
</event>
<event>
 7    0  0.4725730E-002  0.4719736E+03  0.7546771E-02  0.1021365E+00
         21   -1    0    0  502  501  0.00000000000E+00  0.00000000000E+00  0.35396227833E+03  0.35396227833E+03  0.00000000000E+00 0. -1.
         21   -1    0    0  501  502 -0.00000000000E+00 -0.00000000000E+00 -0.15733249679E+03  0.15733249679E+03  0.00000000000E+00 0. -1.
      99926    2    1    2    0    0  0.00000000000E+00 -0.14210854715E-13  0.19662978154E+03  0.51129477512E+03  0.47197359681E+03 0.  0.
      99925    2    3    3    0    0  0.97363897348E+02  0.83420028966E+02  0.11365725763E+03  0.31388510575E+03  0.26299668755E+03 0.  0.
         25    1    3    3    0    0 -0.97363897348E+02 -0.83420028966E+02  0.82972523901E+02  0.19740966937E+03  0.12509000000E+03 0.  0.
         25    1    4    4    0    0  0.19618558967E+02  0.10859862745E+02  0.64400843232E+02  0.14247035195E+03  0.12509000000E+03 0.  0.
         25    1    4    4    0    0  0.77745338381E+02  0.72560166221E+02  0.49256414403E+02  0.17141475380E+03  0.12509000000E+03 0.  0.
<mgrwt>
<rscale>  2 0.47197360E+03</rscale>
<asrwt>0</asrwt>
<pdfrwt beam="1">  1       21 0.52053276E-01 0.47197360E+03</pdfrwt>
<pdfrwt beam="2">  1       21 0.23137132E-01 0.47197360E+03</pdfrwt>
<totfact> 0.56482020E+04</totfact>
</mgrwt>
</event>
<event>
 7    0  0.4725730E-002  0.4551242E+03  0.7546771E-02  0.1026205E+00
         21   -1    0    0  502  501  0.00000000000E+00  0.00000000000E+00  0.34693270105E+02  0.34693270105E+02  0.00000000000E+00 0.  1.
         21   -1    0    0  501  502 -0.00000000000E+00 -0.00000000000E+00 -0.14926382429E+04  0.14926382429E+04  0.00000000000E+00 0.  1.
      99926    2    1    2    0    0  0.14210854715E-13  0.00000000000E+00 -0.14579449728E+04  0.15273315130E+04  0.45512416648E+03 0.  0.
      99925    2    3    3    0    0 -0.72301738132E+02 -0.28228408193E+02 -0.64055605384E+03  0.69679160590E+03  0.26302490295E+03 0.  0.
         25    1    4    4    0    0 -0.30279640687E+02 -0.52603002320E+02 -0.35576260228E+03  0.38196658201E+03  0.12509000000E+03 0.  0.
         25    1    3    3    0    0  0.72301738132E+02  0.28228408193E+02 -0.81738891893E+03  0.83053990708E+03  0.12509000000E+03 0.  0.
         25    1    4    4    0    0 -0.42022097445E+02  0.24374594127E+02 -0.28479345156E+03  0.31482502388E+03  0.12509000000E+03 0.  0.
<mgrwt>
<rscale>  2 0.45512417E+03</rscale>
<asrwt>0</asrwt>
<pdfrwt beam="1">  1       21 0.51019514E-02 0.45512417E+03</pdfrwt>
<pdfrwt beam="2">  1       21 0.21950563E+00 0.45512417E+03</pdfrwt>
<totfact> 0.23094870E+04</totfact>
</mgrwt>
</event>
<event>
 7    0  0.4725730E-002  0.4581489E+03  0.7546771E-02  0.1025319E+00
         21   -1    0    0  502  501  0.00000000000E+00  0.00000000000E+00  0.53066322979E+02  0.53066322979E+02  0.00000000000E+00 0.  1.
         21   -1    0    0  501  502 -0.00000000000E+00 -0.00000000000E+00 -0.98885884924E+03  0.98885884924E+03  0.00000000000E+00 0.  1.
      99926    2    1    2    0    0  0.00000000000E+00  0.00000000000E+00 -0.93579252626E+03  0.10419251722E+04  0.45814889752E+03 0.  0.
      99925    2    3    3    0    0  0.10858053066E+03  0.35992756282E+02 -0.54215823735E+03  0.61334534109E+03  0.26300521472E+03 0.  0.
         25    1    3    3    0    0 -0.10858053066E+03 -0.35992756282E+02 -0.39363428891E+03  0.42857983113E+03  0.12509000000E+03 0.  0.
         25    1    4    4    0    0  0.12902176465E+02  0.15135424096E+02 -0.21199628348E+03  0.24695238312E+03  0.12509000000E+03 0.  0.
         25    1    4    4    0    0  0.95678354192E+02  0.20857332185E+02 -0.33016195387E+03  0.36639295797E+03  0.12509000000E+03 0.  0.
<mgrwt>
<rscale>  2 0.45814890E+03</rscale>
<asrwt>0</asrwt>
<pdfrwt beam="1">  1       21 0.78038707E-02 0.45814890E+03</pdfrwt>
<pdfrwt beam="2">  1       21 0.14542042E+00 0.45814890E+03</pdfrwt>
<totfact> 0.36665513E+04</totfact>
</mgrwt>
</event>
<event>
 7    0  0.4725730E-002  0.4557528E+03  0.7546771E-02  0.1026020E+00
         21   -1    0    0  502  501  0.00000000000E+00  0.00000000000E+00  0.42221260035E+03  0.42221260035E+03  0.00000000000E+00 0. -1.
         21   -1    0    0  501  502 -0.00000000000E+00 -0.00000000000E+00 -0.12298935461E+03  0.12298935461E+03  0.00000000000E+00 0. -1.
      99926    2    1    2    0    0  0.00000000000E+00  0.00000000000E+00  0.29922324573E+03  0.54520195496E+03  0.45575280680E+03 0.  0.
      99925    2    3    3    0    0  0.79009801366E+02  0.73777542026E+02  0.14505840792E+03  0.31914890867E+03  0.26292282096E+03 0.  0.
         25    1    4    4    0    0  0.48391333541E+02  0.63993632760E+02  0.11126929396E+03  0.18564824285E+03  0.12509000000E+03 0.  0.
         25    1    4    4    0    0  0.30618467825E+02  0.97839092665E+01  0.33789113962E+02  0.13350066582E+03  0.12509000000E+03 0.  0.
         25    1    3    3    0    0 -0.79009801366E+02 -0.73777542026E+02  0.15416483781E+03  0.22605304629E+03  0.12509000000E+03 0.  0.
<mgrwt>
<rscale>  2 0.45575281E+03</rscale>
<asrwt>0</asrwt>
<pdfrwt beam="1">  1       21 0.62090088E-01 0.45575281E+03</pdfrwt>
<pdfrwt beam="2">  1       21 0.18086670E-01 0.45575281E+03</pdfrwt>
<totfact> 0.61815637E+04</totfact>
</mgrwt>
</event>
<event>
 7    0  0.4725730E-002  0.4523336E+03  0.7546771E-02  0.1027028E+00
         21   -1    0    0  502  501  0.00000000000E+00  0.00000000000E+00  0.25118939574E+03  0.25118939574E+03  0.00000000000E+00 0.  1.
         21   -1    0    0  501  502 -0.00000000000E+00 -0.00000000000E+00 -0.20363690971E+03  0.20363690971E+03  0.00000000000E+00 0.  1.
      99926    2    1    2    0    0  0.35527136788E-14  0.00000000000E+00  0.47552486029E+02  0.45482630545E+03  0.45233364810E+03 0.  0.
      99925    2    3    3    0    0  0.28093838532E+02 -0.89342827591E+02  0.89319720439E+02  0.29307521712E+03  0.26295183176E+03 0.  0.
         25    1    4    4    0    0 -0.11522900488E+02 -0.30817993413E+02  0.11954798561E+02  0.12989592473E+03  0.12509000000E+03 0.  0.
         25    1    3    3    0    0 -0.28093838532E+02  0.89342827591E+02 -0.41767234410E+02  0.16175108833E+03  0.12509000000E+03 0.  0.
         25    1    4    4    0    0  0.39616739020E+02 -0.58524834178E+02  0.77364921878E+02  0.16317929239E+03  0.12509000000E+03 0.  0.
<mgrwt>
<rscale>  2 0.45233365E+03</rscale>
<asrwt>0</asrwt>
<pdfrwt beam="1">  1       21 0.36939617E-01 0.45233365E+03</pdfrwt>
<pdfrwt beam="2">  1       21 0.29946604E-01 0.45233365E+03</pdfrwt>
<totfact> 0.70036599E+04</totfact>
</mgrwt>
</event>
<event>
 7    0  0.4725730E-002  0.3968565E+03  0.7546771E-02  0.1044874E+00
         21   -1    0    0  502  501  0.00000000000E+00  0.00000000000E+00  0.10499143292E+03  0.10499143292E+03  0.00000000000E+00 0.  1.
         21   -1    0    0  501  502 -0.00000000000E+00 -0.00000000000E+00 -0.37501887624E+03  0.37501887624E+03  0.00000000000E+00 0.  1.
      99926    2    1    2    0    0  0.00000000000E+00  0.00000000000E+00 -0.27002744332E+03  0.48001030916E+03  0.39685649390E+03 0.  0.
      99925    2    3    3    0    0  0.27089465661E+02  0.16416027065E+02 -0.20803640674E+03  0.33685402459E+03  0.26303642763E+03 0.  0.
         25    1    3    3    0    0 -0.27089465661E+02 -0.16416027065E+02 -0.61991036580E+02  0.14315628457E+03  0.12509000000E+03 0.  0.
         25    1    4    4    0    0  0.92012020342E+01  0.15020180985E+02 -0.15460817671E+03  0.19965336051E+03  0.12509000000E+03 0.  0.
         25    1    4    4    0    0  0.17888263627E+02  0.13958460800E+01 -0.53428230032E+02  0.13720066409E+03  0.12509000000E+03 0.  0.
<mgrwt>
<rscale>  2 0.39685649E+03</rscale>
<asrwt>0</asrwt>
<pdfrwt beam="1">  1       21 0.15439917E-01 0.39685649E+03</pdfrwt>
<pdfrwt beam="2">  1       21 0.55149834E-01 0.39685649E+03</pdfrwt>
<totfact> 0.10890333E+05</totfact>
</mgrwt>
</event>
<event>
 7    0  0.4725730E-002  0.4519056E+03  0.7546771E-02  0.1027155E+00
         21   -1    0    0  502  501  0.00000000000E+00  0.00000000000E+00  0.17582625975E+03  0.17582625975E+03  0.00000000000E+00 0.  1.
         21   -1    0    0  501  502 -0.00000000000E+00 -0.00000000000E+00 -0.29036997778E+03  0.29036997778E+03  0.00000000000E+00 0.  1.
      99926    2    1    2    0    0  0.00000000000E+00  0.71054273576E-14 -0.11454371803E+03  0.46619623753E+03  0.45190559694E+03 0.  0.
      99925    2    3    3    0    0  0.92791224961E+02  0.52821343984E+02 -0.43778947757E+02  0.28715583253E+03  0.26294784669E+03 0.  0.
         25    1    4    4    0    0  0.54525308708E+02  0.66899043085E+02 -0.29566554451E+02  0.15482306190E+03  0.12509000000E+03 0.  0.
         25    1    3    3    0    0 -0.92791224961E+02 -0.52821343984E+02 -0.70764770275E+02  0.17904040500E+03  0.12509000000E+03 0.  0.
         25    1    4    4    0    0  0.38265916252E+02 -0.14077699101E+02 -0.14212393306E+02  0.13233277063E+03  0.12509000000E+03 0.  0.
<mgrwt>
<rscale>  2 0.45190560E+03</rscale>
<asrwt>0</asrwt>
<pdfrwt beam="1">  1       21 0.25856803E-01 0.45190560E+03</pdfrwt>
<pdfrwt beam="2">  1       21 0.42701467E-01 0.45190560E+03</pdfrwt>
<totfact> 0.69407866E+04</totfact>
</mgrwt>
</event>
<event>
 7    0  0.4725730E-002  0.4611553E+03  0.7546771E-02  0.1024447E+00
         21   -1    0    0  502  501  0.00000000000E+00  0.00000000000E+00  0.43673600616E+03  0.43673600616E+03  0.00000000000E+00 0.  1.
         21   -1    0    0  501  502 -0.00000000000E+00 -0.00000000000E+00 -0.12173499364E+03  0.12173499364E+03  0.00000000000E+00 0.  1.
      99926    2    1    2    0    0  0.00000000000E+00  0.00000000000E+00  0.31500101252E+03  0.55847099980E+03  0.46115530977E+03 0.  0.
      99925    2    3    3    0    0 -0.11141337995E+03  0.32962569031E+02  0.16825783585E+03  0.33334761099E+03  0.26326879466E+03 0.  0.
         25    1    4    4    0    0 -0.22614576186E+02  0.38757642710E+02  0.61992614390E+02  0.14664298914E+03  0.12509000000E+03 0.  0.
         25    1    4    4    0    0 -0.88798803769E+02 -0.57950736795E+01  0.10626522146E+03  0.18670462185E+03  0.12509000000E+03 0.  0.
         25    1    3    3    0    0  0.11141337995E+03 -0.32962569031E+02  0.14674317667E+03  0.22512338881E+03  0.12509000000E+03 0.  0.
<mgrwt>
<rscale>  2 0.46115531E+03</rscale>
<asrwt>0</asrwt>
<pdfrwt beam="1">  1       21 0.64225883E-01 0.46115531E+03</pdfrwt>
<pdfrwt beam="2">  1       21 0.17902205E-01 0.46115531E+03</pdfrwt>
<totfact> 0.58413620E+04</totfact>
</mgrwt>
</event>
<event>
 7    0  0.4725730E-002  0.4485467E+03  0.7546771E-02  0.1028156E+00
         21   -1    0    0  502  501  0.00000000000E+00  0.00000000000E+00  0.14653182955E+03  0.14653182955E+03  0.00000000000E+00 0. -1.
         21   -1    0    0  501  502 -0.00000000000E+00 -0.00000000000E+00 -0.34326008440E+03  0.34326008440E+03  0.00000000000E+00 0. -1.
      99926    2    1    2    0    0  0.00000000000E+00  0.14210854715E-13 -0.19672825486E+03  0.48979191395E+03  0.44854666727E+03 0.  0.
      99925    2    3    3    0    0 -0.47457266805E+02 -0.93024593262E+02 -0.98921343438E+02  0.29974069153E+03  0.26297011778E+03 0.  0.
         25    1    3    3    0    0  0.47457266805E+02  0.93024593262E+02 -0.97806911417E+02  0.19005122242E+03  0.12509000000E+03 0.  0.
         25    1    4    4    0    0 -0.14698064034E+01 -0.92572935322E+01 -0.47668771787E+02  0.13419268877E+03  0.12509000000E+03 0.  0.
         25    1    4    4    0    0 -0.45987460401E+02 -0.83767299729E+02 -0.51252571651E+02  0.16554800276E+03  0.12509000000E+03 0.  0.
<mgrwt>
<rscale>  2 0.44854667E+03</rscale>
<asrwt>0</asrwt>
<pdfrwt beam="1">  1       21 0.21548799E-01 0.44854667E+03</pdfrwt>
<pdfrwt beam="2">  1       21 0.50479423E-01 0.44854667E+03</pdfrwt>
<totfact> 0.69486087E+04</totfact>
</mgrwt>
</event>
<event>
 7    0  0.4725730E-002  0.4479075E+03  0.7546771E-02  0.1028348E+00
         21   -1    0    0  502  501  0.00000000000E+00  0.00000000000E+00  0.40577938594E+02  0.40577938594E+02  0.00000000000E+00 0. -1.
         21   -1    0    0  501  502 -0.00000000000E+00 -0.00000000000E+00 -0.12360231956E+04  0.12360231956E+04  0.00000000000E+00 0. -1.
      99926    2    1    2    0    0  0.00000000000E+00  0.00000000000E+00 -0.11954452570E+04  0.12766011342E+04  0.44790746068E+03 0.  0.
      99925    2    3    3    0    0 -0.68978716131E+02  0.80016619673E+02 -0.79343168966E+03  0.84252379185E+03  0.26296724317E+03 0.  0.
         25    1    3    3    0    0  0.68978716131E+02 -0.80016619673E+02 -0.40201356737E+03  0.43407734236E+03  0.12509000000E+03 0.  0.
         25    1    4    4    0    0  0.20336977092E+01  0.47366727426E+02 -0.42903047553E+03  0.44940226949E+03  0.12509000000E+03 0.  0.
         25    1    4    4    0    0 -0.71012413840E+02  0.32649892247E+02 -0.36440121413E+03  0.39312152236E+03  0.12509000000E+03 0.  0.
<mgrwt>
<rscale>  2 0.44790746E+03</rscale>
<asrwt>0</asrwt>
<pdfrwt beam="1">  1       21 0.59673445E-02 0.44790746E+03</pdfrwt>
<pdfrwt beam="2">  1       21 0.18176810E+00 0.44790746E+03</pdfrwt>
<totfact> 0.31504616E+04</totfact>
</mgrwt>
</event>
<event>
 7    0  0.4725730E-002  0.4306949E+03  0.7546771E-02  0.1033641E+00
         21   -1    0    0  502  501  0.00000000000E+00  0.00000000000E+00  0.61896415020E+03  0.61896415020E+03  0.00000000000E+00 0.  1.
         21   -1    0    0  501  502 -0.00000000000E+00 -0.00000000000E+00 -0.74922794380E+02  0.74922794380E+02  0.00000000000E+00 0.  1.
      99926    2    1    2    0    0  0.00000000000E+00  0.00000000000E+00  0.54404135582E+03  0.69388694458E+03  0.43069489783E+03 0.  0.
      99925    2    3    3    0    0 -0.29918596319E+02 -0.64723664749E+02  0.43402442748E+03  0.51268123880E+03  0.26340192442E+03 0.  0.
         25    1    4    4    0    0  0.31457458721E+00 -0.65989501344E+02  0.26333082154E+03  0.29890691346E+03  0.12509000000E+03 0.  0.
         25    1    3    3    0    0  0.29918596319E+02  0.64723664749E+02  0.11001692834E+03  0.18120570578E+03  0.12509000000E+03 0.  0.
         25    1    4    4    0    0 -0.30233170906E+02  0.12658365951E+01  0.17069360594E+03  0.21377432534E+03  0.12509000000E+03 0.  0.
<mgrwt>
<rscale>  2 0.43069490E+03</rscale>
<asrwt>0</asrwt>
<pdfrwt beam="1">  1       21 0.91024137E-01 0.43069490E+03</pdfrwt>
<pdfrwt beam="2">  1       21 0.11018058E-01 0.43069490E+03</pdfrwt>
<totfact> 0.64764762E+04</totfact>
</mgrwt>
</event>
<event>
 7    0  0.4725730E-002  0.4560685E+03  0.7546771E-02  0.1025928E+00
         21   -1    0    0  502  501  0.00000000000E+00  0.00000000000E+00  0.14571535865E+03  0.14571535865E+03  0.00000000000E+00 0. -1.
         21   -1    0    0  501  502 -0.00000000000E+00 -0.00000000000E+00 -0.35685743839E+03  0.35685743839E+03  0.00000000000E+00 0. -1.
      99926    2    1    2    0    0 -0.35527136788E-14  0.00000000000E+00 -0.21114207974E+03  0.50257279704E+03  0.45606845812E+03 0.  0.
      99925    2    3    3    0    0 -0.30960513629E+02 -0.10722444962E+03 -0.10636781152E+03  0.30488417476E+03  0.26302968024E+03 0.  0.
         25    1    4    4    0    0 -0.48623313019E+02 -0.49722842171E+02 -0.78764172959E+02  0.16336428815E+03  0.12509000000E+03 0.  0.
         25    1    4    4    0    0  0.17662799389E+02 -0.57501607452E+02 -0.27603638558E+02  0.14151988660E+03  0.12509000000E+03 0.  0.
         25    1    3    3    0    0  0.30960513629E+02  0.10722444962E+03 -0.10477426822E+03  0.19768862229E+03  0.12509000000E+03 0.  0.
<mgrwt>
<rscale>  2 0.45606846E+03</rscale>
<asrwt>0</asrwt>
<pdfrwt beam="1">  1       21 0.21428729E-01 0.45606846E+03</pdfrwt>
<pdfrwt beam="2">  1       21 0.52479035E-01 0.45606846E+03</pdfrwt>
<totfact> 0.64541166E+04</totfact>
</mgrwt>
</event>
<event>
 7    0  0.4725730E-002  0.4546747E+03  0.7546771E-02  0.1026337E+00
         21   -1    0    0  502  501  0.00000000000E+00  0.00000000000E+00  0.14379023204E+03  0.14379023204E+03  0.00000000000E+00 0.  1.
         21   -1    0    0  501  502 -0.00000000000E+00 -0.00000000000E+00 -0.35942831867E+03  0.35942831867E+03  0.00000000000E+00 0.  1.
      99926    2    1    2    0    0 -0.35527136788E-14  0.00000000000E+00 -0.21563808664E+03  0.50321855071E+03  0.45467474679E+03 0.  0.
      99925    2    3    3    0    0 -0.95149043225E+01 -0.11163790215E+03 -0.12048785565E+03  0.31020396795E+03  0.26297456868E+03 0.  0.
         25    1    4    4    0    0 -0.41778736862E+02 -0.70759168844E+02 -0.73941538091E+02  0.16693466382E+03  0.12509000000E+03 0.  0.
         25    1    3    3    0    0  0.95149043225E+01  0.11163790215E+03 -0.95150230988E+02  0.19301458276E+03  0.12509000000E+03 0.  0.
         25    1    4    4    0    0  0.32263832539E+02 -0.40878733310E+02 -0.46546317556E+02  0.14326930413E+03  0.12509000000E+03 0.  0.
<mgrwt>
<rscale>  2 0.45467475E+03</rscale>
<asrwt>0</asrwt>
<pdfrwt beam="1">  1       21 0.21145622E-01 0.45467475E+03</pdfrwt>
<pdfrwt beam="2">  1       21 0.52857106E-01 0.45467475E+03</pdfrwt>
<totfact> 0.65213336E+04</totfact>
</mgrwt>
</event>
<event>
 7    0  0.4725730E-002  0.4558356E+03  0.7546771E-02  0.1025996E+00
         21   -1    0    0  502  501  0.00000000000E+00  0.00000000000E+00  0.14514546514E+03  0.14514546514E+03  0.00000000000E+00 0.  1.
         21   -1    0    0  501  502 -0.00000000000E+00 -0.00000000000E+00 -0.35789277482E+03  0.35789277482E+03  0.00000000000E+00 0.  1.
      99926    2    1    2    0    0  0.00000000000E+00 -0.14210854715E-13 -0.21274730968E+03  0.50303823996E+03  0.45583555487E+03 0.  0.
      99925    2    3    3    0    0 -0.22265304600E+02 -0.10585657281E+03 -0.94350912162E+02  0.29965049982E+03  0.26303416055E+03 0.  0.
         25    1    3    3    0    0  0.22265304600E+02  0.10585657281E+03 -0.11839639752E+03  0.20338774014E+03  0.12509000000E+03 0.  0.
         25    1    4    4    0    0  0.12966899575E+02 -0.43243684970E+02 -0.78751242572E+02  0.15455556632E+03  0.12509000000E+03 0.  0.
         25    1    4    4    0    0 -0.35232204175E+02 -0.62612887839E+02 -0.15599669591E+02  0.14509493350E+03  0.12509000000E+03 0.  0.
<mgrwt>
<rscale>  2 0.45583555E+03</rscale>
<asrwt>0</asrwt>
<pdfrwt beam="1">  1       21 0.21344922E-01 0.45583555E+03</pdfrwt>
<pdfrwt beam="2">  1       21 0.52631289E-01 0.45583555E+03</pdfrwt>
<totfact> 0.64628038E+04</totfact>
</mgrwt>
</event>
<event>
 7    0  0.4725730E-002  0.4517047E+03  0.7546771E-02  0.1027215E+00
         21   -1    0    0  502  501  0.00000000000E+00  0.00000000000E+00  0.15931306191E+03  0.15931306191E+03  0.00000000000E+00 0. -1.
         21   -1    0    0  501  502 -0.00000000000E+00 -0.00000000000E+00 -0.32018266020E+03  0.32018266020E+03  0.00000000000E+00 0. -1.
      99926    2    1    2    0    0  0.00000000000E+00  0.14210854715E-13 -0.16086959829E+03  0.47949572210E+03  0.45170468214E+03 0.  0.
      99925    2    3    3    0    0  0.33463410396E+02 -0.89506045302E+02 -0.43521861624E+02  0.28315639497E+03  0.26296817220E+03 0.  0.
         25    1    4    4    0    0  0.22411050234E+02 -0.74026240702E+02 -0.52867807603E+02  0.15628388486E+03  0.12509000000E+03 0.  0.
         25    1    3    3    0    0 -0.33463410396E+02  0.89506045302E+02 -0.11734773666E+03  0.19633932714E+03  0.12509000000E+03 0.  0.
         25    1    4    4    0    0  0.11052360162E+02 -0.15479804600E+02  0.93459459798E+01  0.12687251011E+03  0.12509000000E+03 0.  0.
<mgrwt>
<rscale>  2 0.45170468E+03</rscale>
<asrwt>0</asrwt>
<pdfrwt beam="1">  1       21 0.23428392E-01 0.45170468E+03</pdfrwt>
<pdfrwt beam="2">  1       21 0.47085685E-01 0.45170468E+03</pdfrwt>
<totfact> 0.68511447E+04</totfact>
</mgrwt>
</event>
<event>
 7    0  0.4725730E-002  0.4452333E+03  0.7546771E-02  0.1029153E+00
         21   -1    0    0  502  501  0.00000000000E+00  0.00000000000E+00  0.26424762554E+03  0.26424762554E+03  0.00000000000E+00 0.  1.
         21   -1    0    0  501  502 -0.00000000000E+00 -0.00000000000E+00 -0.18754443410E+03  0.18754443410E+03  0.00000000000E+00 0.  1.
      99926    2    1    2    0    0  0.71054273576E-14 -0.71054273576E-14  0.76703191433E+02  0.45179205964E+03  0.44523329343E+03 0.  0.
      99925    2    3    3    0    0 -0.23318642273E+02  0.55600611277E+02 -0.37051806061E+02  0.27228469320E+03  0.26292761507E+03 0.  0.
         25    1    3    3    0    0  0.23318642273E+02 -0.55600611277E+02  0.11375499749E+03  0.17950736644E+03  0.12509000000E+03 0.  0.
         25    1    4    4    0    0  0.20452174317E+02  0.26795312942E+02  0.68540201681E+01  0.12973344180E+03  0.12509000000E+03 0.  0.
         25    1    4    4    0    0 -0.43770816590E+02  0.28805298336E+02 -0.43905826229E+02  0.14255125139E+03  0.12509000000E+03 0.  0.
<mgrwt>
<rscale>  2 0.44523329E+03</rscale>
<asrwt>0</asrwt>
<pdfrwt beam="1">  1       21 0.38859945E-01 0.44523329E+03</pdfrwt>
<pdfrwt beam="2">  1       21 0.27580064E-01 0.44523329E+03</pdfrwt>
<totfact> 0.74411517E+04</totfact>
</mgrwt>
</event>
<event>
 7    0  0.4725730E-002  0.4668810E+03  0.7546771E-02  0.1022804E+00
         21   -1    0    0  502  501  0.00000000000E+00  0.00000000000E+00  0.20335592834E+03  0.20335592834E+03  0.00000000000E+00 0.  1.
         21   -1    0    0  501  502 -0.00000000000E+00 -0.00000000000E+00 -0.26797579396E+03  0.26797579396E+03  0.00000000000E+00 0.  1.
      99926    2    1    2    0    0 -0.17763568394E-14  0.00000000000E+00 -0.64619865617E+02  0.47133172230E+03  0.46688099706E+03 0.  0.
      99925    2    3    3    0    0 -0.14085968507E+02  0.11122183299E+03  0.12871040965E+02  0.28634237302E+03  0.26316834964E+03 0.  0.
         25    1    3    3    0    0  0.14085968507E+02 -0.11122183299E+03 -0.77490906581E+02  0.18498934928E+03  0.12509000000E+03 0.  0.
         25    1    4    4    0    0  0.24040593843E+02  0.55724320229E+02 -0.20170359765E+02  0.14049021863E+03  0.12509000000E+03 0.  0.
         25    1    4    4    0    0 -0.38126562350E+02  0.55497512765E+02  0.33041400730E+02  0.14585215440E+03  0.12509000000E+03 0.  0.
<mgrwt>
<rscale>  2 0.46688100E+03</rscale>
<asrwt>0</asrwt>
<pdfrwt beam="1">  1       21 0.29905284E-01 0.46688100E+03</pdfrwt>
<pdfrwt beam="2">  1       21 0.39408205E-01 0.46688100E+03</pdfrwt>
<totfact> 0.61341211E+04</totfact>
</mgrwt>
</event>
<event>
 7    0  0.4725730E-002  0.4510734E+03  0.7546771E-02  0.1027402E+00
         21   -1    0    0  502  501  0.00000000000E+00  0.00000000000E+00  0.55207747159E+03  0.55207747159E+03  0.00000000000E+00 0.  1.
         21   -1    0    0  501  502 -0.00000000000E+00 -0.00000000000E+00 -0.92137076903E+02  0.92137076903E+02  0.00000000000E+00 0.  1.
      99926    2    1    2    0    0  0.00000000000E+00 -0.35527136788E-14  0.45994039469E+03  0.64421454849E+03  0.45107340625E+03 0.  0.
      99925    2    3    3    0    0 -0.88363965592E+02  0.15654090148E+02  0.20104571536E+03  0.34300498019E+03  0.26302052356E+03 0.  0.
         25    1    3    3    0    0  0.88363965592E+02 -0.15654090148E+02  0.25889467933E+03  0.30120956831E+03  0.12509000000E+03 0.  0.
         25    1    4    4    0    0 -0.28628984156E+02  0.40663620103E+02  0.12093721758E+03  0.18095985032E+03  0.12509000000E+03 0.  0.
         25    1    4    4    0    0 -0.59734981437E+02 -0.25009529955E+02  0.80108497778E+02  0.16204512986E+03  0.12509000000E+03 0.  0.
<mgrwt>
<rscale>  2 0.45107341E+03</rscale>
<asrwt>0</asrwt>
<pdfrwt beam="1">  1       21 0.81187862E-01 0.45107341E+03</pdfrwt>
<pdfrwt beam="2">  1       21 0.13549570E-01 0.45107341E+03</pdfrwt>
<totfact> 0.57806245E+04</totfact>
</mgrwt>
</event>
<event>
 7    0  0.4725730E-002  0.4496943E+03  0.7546771E-02  0.1027813E+00
         21   -1    0    0  502  501  0.00000000000E+00  0.00000000000E+00  0.15149031668E+03  0.15149031668E+03  0.00000000000E+00 0.  1.
         21   -1    0    0  501  502 -0.00000000000E+00 -0.00000000000E+00 -0.33372585993E+03  0.33372585993E+03  0.00000000000E+00 0.  1.
      99926    2    1    2    0    0  0.14210854715E-13  0.00000000000E+00 -0.18223554324E+03  0.48521617661E+03  0.44969427929E+03 0.  0.
      99925    2    3    3    0    0  0.90107134581E+02 -0.51227246084E+02 -0.14908796485E+03  0.31941570466E+03  0.26278440722E+03 0.  0.
         25    1    3    3    0    0 -0.90107134581E+02  0.51227246084E+02 -0.33147578393E+02  0.16580047194E+03  0.12509000000E+03 0.  0.
         25    1    4    4    0    0  0.74151725808E+02 -0.17963711514E+01 -0.60124503701E+02  0.15736635420E+03  0.12509000000E+03 0.  0.
         25    1    4    4    0    0  0.15955408773E+02 -0.49430874933E+02 -0.88963461148E+02  0.16204935046E+03  0.12509000000E+03 0.  0.
<mgrwt>
<rscale>  2 0.44969428E+03</rscale>
<asrwt>0</asrwt>
<pdfrwt beam="1">  1       21 0.22277988E-01 0.44969428E+03</pdfrwt>
<pdfrwt beam="2">  1       21 0.49077331E-01 0.44969428E+03</pdfrwt>
<totfact> 0.69191048E+04</totfact>
</mgrwt>
</event>
<event>
 7    0  0.4725730E-002  0.4666077E+03  0.7546771E-02  0.1022882E+00
         21   -1    0    0  502  501  0.00000000000E+00  0.00000000000E+00  0.30356918973E+03  0.30356918973E+03  0.00000000000E+00 0. -1.
         21   -1    0    0  501  502 -0.00000000000E+00 -0.00000000000E+00 -0.17930237096E+03  0.17930237096E+03  0.00000000000E+00 0. -1.
      99926    2    1    2    0    0  0.35527136788E-14 -0.14210854715E-13  0.12426681876E+03  0.48287156069E+03  0.46660765304E+03 0.  0.
      99925    2    3    3    0    0 -0.30899763385E+02  0.94212196492E+02  0.73488155482E+00  0.28103404942E+03  0.26296171497E+03 0.  0.
         25    1    3    3    0    0  0.30899763385E+02 -0.94212196492E+02  0.12353193721E+03  0.20183751127E+03  0.12509000000E+03 0.  0.
         25    1    4    4    0    0 -0.41212297450E+02  0.55882369461E+02 -0.30151643266E+02  0.14621190912E+03  0.12509000000E+03 0.  0.
         25    1    4    4    0    0  0.10312534065E+02  0.38329827031E+02  0.30886524821E+02  0.13482214030E+03  0.12509000000E+03 0.  0.
<mgrwt>
<rscale>  2 0.46660765E+03</rscale>
<asrwt>0</asrwt>
<pdfrwt beam="1">  1       21 0.44642528E-01 0.46660765E+03</pdfrwt>
<pdfrwt beam="2">  1       21 0.26367996E-01 0.46660765E+03</pdfrwt>
<totfact> 0.60703932E+04</totfact>
</mgrwt>
</event>
<event>
 7    0  0.4725730E-002  0.4540268E+03  0.7546771E-02  0.1026528E+00
         21   -1    0    0  502  501  0.00000000000E+00  0.00000000000E+00  0.20332115106E+03  0.20332115106E+03  0.00000000000E+00 0.  1.
         21   -1    0    0  501  502 -0.00000000000E+00 -0.00000000000E+00 -0.25346645914E+03  0.25346645914E+03  0.00000000000E+00 0.  1.
      99926    2    1    2    0    0  0.00000000000E+00  0.17763568394E-14 -0.50145308082E+02  0.45678761019E+03  0.45402683720E+03 0.  0.
      99925    2    3    3    0    0  0.82219290493E+02  0.84277892139E+01  0.44630924118E+02  0.27941489061E+03  0.26315341979E+03 0.  0.
         25    1    4    4    0    0  0.42653913941E+02 -0.15799613812E+02  0.58277966554E+02  0.14530249019E+03  0.12509000000E+03 0.  0.
         25    1    3    3    0    0 -0.82219290493E+02 -0.84277892139E+01 -0.94776232200E+02  0.17737271958E+03  0.12509000000E+03 0.  0.
         25    1    4    4    0    0  0.39565376552E+02  0.24227403026E+02 -0.13647042436E+02  0.13411240042E+03  0.12509000000E+03 0.  0.
<mgrwt>
<rscale>  2 0.45402684E+03</rscale>
<asrwt>0</asrwt>
<pdfrwt beam="1">  1       21 0.29900169E-01 0.45402684E+03</pdfrwt>
<pdfrwt beam="2">  1       21 0.37274479E-01 0.45402684E+03</pdfrwt>
<totfact> 0.68948765E+04</totfact>
</mgrwt>
</event>
<event>
 7    0  0.4725730E-002  0.4822535E+03  0.7546771E-02  0.1018518E+00
         21   -1    0    0  502  501  0.00000000000E+00  0.00000000000E+00  0.16030192452E+04  0.16030192452E+04  0.00000000000E+00 0. -1.
         21   -1    0    0  501  502 -0.00000000000E+00 -0.00000000000E+00 -0.36270377531E+02  0.36270377531E+02  0.00000000000E+00 0. -1.
      99926    2    1    2    0    0 -0.71054273576E-14  0.00000000000E+00  0.15667488677E+04  0.16392896228E+04  0.48225351513E+03 0.  0.
      99925    2    3    3    0    0 -0.52552714677E+02  0.11477740857E+03  0.78153330318E+03  0.83421407835E+03  0.26302696289E+03 0.  0.
         25    1    3    3    0    0  0.52552714677E+02 -0.11477740857E+03  0.78521556453E+03  0.80507554441E+03  0.12509000000E+03 0.  0.
         25    1    4    4    0    0 -0.31696292012E+02  0.53287494585E+02  0.27459727175E+03  0.30805094020E+03  0.12509000000E+03 0.  0.
         25    1    4    4    0    0 -0.20856422665E+02  0.61489913989E+02  0.50693603143E+03  0.52616313815E+03  0.12509000000E+03 0.  0.
<mgrwt>
<rscale>  2 0.48225352E+03</rscale>
<asrwt>0</asrwt>
<pdfrwt beam="1">  1       21 0.23573808E+00 0.48225352E+03</pdfrwt>
<pdfrwt beam="2">  1       21 0.53338801E-02 0.48225352E+03</pdfrwt>
<totfact> 0.16726929E+04</totfact>
</mgrwt>
</event>
<event>
 7    0  0.4725730E-002  0.4917697E+03  0.7546771E-02  0.1015950E+00
         21   -1    0    0  502  501  0.00000000000E+00  0.00000000000E+00  0.38802023585E+03  0.38802023585E+03  0.00000000000E+00 0. -1.
         21   -1    0    0  501  502 -0.00000000000E+00 -0.00000000000E+00 -0.15581497824E+03  0.15581497824E+03  0.00000000000E+00 0. -1.
      99926    2    1    2    0    0  0.00000000000E+00  0.00000000000E+00  0.23220525760E+03  0.54383521409E+03  0.49176972093E+03 0.  0.
      99925    2    3    3    0    0 -0.13619258169E+03  0.33800965762E+02  0.18194812801E+03  0.34924792836E+03  0.26301724198E+03 0.  0.
         25    1    4    4    0    0 -0.10828627796E+03  0.23882194280E+00  0.95113325112E+02  0.19084032001E+03  0.12509000000E+03 0.  0.
         25    1    4    4    0    0 -0.27906303732E+02  0.33562143820E+02  0.86834802901E+02  0.15840760834E+03  0.12509000000E+03 0.  0.
         25    1    3    3    0    0  0.13619258169E+03 -0.33800965762E+02  0.50257129592E+02  0.19458728573E+03  0.12509000000E+03 0.  0.
<mgrwt>
<rscale>  2 0.49176972E+03</rscale>
<asrwt>0</asrwt>
<pdfrwt beam="1">  1       21 0.57061799E-01 0.49176972E+03</pdfrwt>
<pdfrwt beam="2">  1       21 0.22913967E-01 0.49176972E+03</pdfrwt>
<totfact> 0.47007916E+04</totfact>
</mgrwt>
</event>
<event>
 7    0  0.4725730E-002  0.4525719E+03  0.7546771E-02  0.1026958E+00
         21   -1    0    0  502  501  0.00000000000E+00  0.00000000000E+00  0.17431702067E+03  0.17431702067E+03  0.00000000000E+00 0. -1.
         21   -1    0    0  501  502 -0.00000000000E+00 -0.00000000000E+00 -0.29374828361E+03  0.29374828361E+03  0.00000000000E+00 0. -1.
      99926    2    1    2    0    0  0.00000000000E+00 -0.35527136788E-14 -0.11943126293E+03  0.46806530428E+03  0.45257187551E+03 0.  0.
      99925    2    3    3    0    0 -0.21407001352E+02  0.17647603361E+02  0.35405422844E+02  0.26708867635E+03  0.26327384879E+03 0.  0.
         25    1    3    3    0    0  0.21407001352E+02 -0.17647603361E+02 -0.15483668578E+03  0.20097662793E+03  0.12509000000E+03 0.  0.
         25    1    4    4    0    0 -0.23722897833E+02 -0.11107653642E+02 -0.16009212117E+02  0.12880201405E+03  0.12509000000E+03 0.  0.
         25    1    4    4    0    0  0.23158964805E+01  0.28755257003E+02  0.51414634960E+02  0.13828666230E+03  0.12509000000E+03 0.  0.
<mgrwt>
<rscale>  2 0.45257188E+03</rscale>
<asrwt>0</asrwt>
<pdfrwt beam="1">  1       21 0.25634856E-01 0.45257188E+03</pdfrwt>
<pdfrwt beam="2">  1       21 0.43198276E-01 0.45257188E+03</pdfrwt>
<totfact> 0.68897467E+04</totfact>
</mgrwt>
</event>
<event>
 7    0  0.4725730E-002  0.4490405E+03  0.7546771E-02  0.1028009E+00
         21   -1    0    0  502  501  0.00000000000E+00  0.00000000000E+00  0.22038439324E+03  0.22038439324E+03  0.00000000000E+00 0.  1.
         21   -1    0    0  501  502 -0.00000000000E+00 -0.00000000000E+00 -0.22873375095E+03  0.22873375095E+03  0.00000000000E+00 0.  1.
      99926    2    1    2    0    0  0.00000000000E+00  0.00000000000E+00 -0.83493577060E+01  0.44911814419E+03  0.44904052786E+03 0.  0.
      99925    2    3    3    0    0  0.82264621678E+02  0.68806077954E+02  0.30748243763E+01  0.28395227489E+03  0.26290244489E+03 0.  0.
         25    1    4    4    0    0  0.80380051275E+02  0.52580028458E+02 -0.14561106434E+01  0.15771886505E+03  0.12509000000E+03 0.  0.
         25    1    3    3    0    0 -0.82264621678E+02 -0.68806077954E+02 -0.11424182082E+02  0.16516586929E+03  0.12509000000E+03 0.  0.
         25    1    4    4    0    0  0.18845704029E+01  0.16226049497E+02  0.45309350197E+01  0.12623340984E+03  0.12509000000E+03 0.  0.
<mgrwt>
<rscale>  2 0.44904053E+03</rscale>
<asrwt>0</asrwt>
<pdfrwt beam="1">  1       21 0.32409470E-01 0.44904053E+03</pdfrwt>
<pdfrwt beam="2">  1       21 0.33637316E-01 0.44904053E+03</pdfrwt>
<totfact> 0.72358819E+04</totfact>
</mgrwt>
</event>
<event>
 7    0  0.4725730E-002  0.4524192E+03  0.7546771E-02  0.1027003E+00
         21   -1    0    0  502  501  0.00000000000E+00  0.00000000000E+00  0.60275425206E+03  0.60275425206E+03  0.00000000000E+00 0.  1.
         21   -1    0    0  501  502 -0.00000000000E+00 -0.00000000000E+00 -0.84894918242E+02  0.84894918242E+02  0.00000000000E+00 0.  1.
      99926    2    1    2    0    0  0.00000000000E+00  0.00000000000E+00  0.51785933382E+03  0.68764917030E+03  0.45241915498E+03 0.  0.
      99925    2    3    3    0    0  0.19292949283E+02 -0.78525710232E+02  0.44164132640E+03  0.52033151488E+03  0.26298159468E+03 0.  0.
         25    1    4    4    0    0 -0.72286726477E+01 -0.13526673717E+01  0.18637053643E+03  0.22457864629E+03  0.12509000000E+03 0.  0.
         25    1    4    4    0    0  0.26521621931E+02 -0.77173042860E+02  0.25527078996E+03  0.29575286859E+03  0.12509000000E+03 0.  0.
         25    1    3    3    0    0 -0.19292949283E+02  0.78525710232E+02  0.76218007419E+02  0.16731765542E+03  0.12509000000E+03 0.  0.
<mgrwt>
<rscale>  2 0.45241915E+03</rscale>
<asrwt>0</asrwt>
<pdfrwt beam="1">  1       21 0.88640329E-01 0.45241915E+03</pdfrwt>
<pdfrwt beam="2">  1       21 0.12484547E-01 0.45241915E+03</pdfrwt>
<totfact> 0.54681375E+04</totfact>
</mgrwt>
</event>
<event>
 7    0  0.4725730E-002  0.4553998E+03  0.7546771E-02  0.1026124E+00
         21   -1    0    0  502  501  0.00000000000E+00  0.00000000000E+00  0.84167365701E+03  0.84167365701E+03  0.00000000000E+00 0.  1.
         21   -1    0    0  501  502 -0.00000000000E+00 -0.00000000000E+00 -0.61600162276E+02  0.61600162276E+02  0.00000000000E+00 0.  1.
      99926    2    1    2    0    0  0.00000000000E+00  0.00000000000E+00  0.78007349474E+03  0.90327381929E+03  0.45539975343E+03 0.  0.
      99925    2    3    3    0    0  0.62746199812E+02 -0.84820555503E+02  0.40667642726E+03  0.49559196989E+03  0.26285751255E+03 0.  0.
         25    1    4    4    0    0  0.80639596253E+01 -0.98690708404E+01  0.15448773112E+03  0.19918934000E+03  0.12509000000E+03 0.  0.
         25    1    3    3    0    0 -0.62746199812E+02  0.84820555503E+02  0.37339706748E+03  0.40768184940E+03  0.12509000000E+03 0.  0.
         25    1    4    4    0    0  0.54682240186E+02 -0.74951484663E+02  0.25218869614E+03  0.29640262989E+03  0.12509000000E+03 0.  0.
<mgrwt>
<rscale>  2 0.45539975E+03</rscale>
<asrwt>0</asrwt>
<pdfrwt beam="1">  1       21 0.12377553E+00 0.45539975E+03</pdfrwt>
<pdfrwt beam="2">  1       21 0.90588479E-02 0.45539975E+03</pdfrwt>
<totfact> 0.42957850E+04</totfact>
</mgrwt>
</event>
<event>
 7    0  0.4725730E-002  0.4529058E+03  0.7546771E-02  0.1026859E+00
         21   -1    0    0  502  501  0.00000000000E+00  0.00000000000E+00  0.92379612642E+03  0.92379612642E+03  0.00000000000E+00 0.  1.
         21   -1    0    0  501  502 -0.00000000000E+00 -0.00000000000E+00 -0.55511081203E+02  0.55511081203E+02  0.00000000000E+00 0.  1.
      99926    2    1    2    0    0  0.00000000000E+00  0.00000000000E+00  0.86828504521E+03  0.97930720762E+03  0.45290582592E+03 0.  0.
      99925    2    3    3    0    0 -0.26354997148E+02 -0.69737443081E+02  0.72586566401E+03  0.77561949300E+03  0.26295767512E+03 0.  0.
         25    1    3    3    0    0  0.26354997148E+02  0.69737443081E+02  0.14241938121E+03  0.20368771462E+03  0.12509000000E+03 0.  0.
         25    1    4    4    0    0  0.89930636316E+01 -0.39646762675E+02  0.26528405846E+03  0.29610113265E+03  0.12509000000E+03 0.  0.
         25    1    4    4    0    0 -0.35348060780E+02 -0.30090680406E+02  0.46058160555E+03  0.47951836035E+03  0.12509000000E+03 0.  0.
<mgrwt>
<rscale>  2 0.45290583E+03</rscale>
<asrwt>0</asrwt>
<pdfrwt beam="1">  1       21 0.13585236E+00 0.45290583E+03</pdfrwt>
<pdfrwt beam="2">  1       21 0.81633948E-02 0.45290583E+03</pdfrwt>
<totfact> 0.40637363E+04</totfact>
</mgrwt>
</event>
<event>
 7    0  0.4725730E-002  0.4621027E+03  0.7546771E-02  0.1024173E+00
         21   -1    0    0  502  501  0.00000000000E+00  0.00000000000E+00  0.51396848887E+03  0.51396848887E+03  0.00000000000E+00 0.  1.
         21   -1    0    0  501  502 -0.00000000000E+00 -0.00000000000E+00 -0.10386770664E+03  0.10386770664E+03  0.00000000000E+00 0.  1.
      99926    2    1    2    0    0  0.00000000000E+00 -0.35527136788E-14  0.41010078223E+03  0.61783619551E+03  0.46210270817E+03 0.  0.
      99925    2    3    3    0    0  0.17503815679E+02 -0.24529933232E+02  0.41125812988E+03  0.48916238799E+03  0.26313207948E+03 0.  0.
         25    1    4    4    0    0  0.63199300212E+01  0.28473322155E+02  0.19310497200E+03  0.23192177539E+03  0.12509000000E+03 0.  0.
         25    1    3    3    0    0 -0.17503815679E+02  0.24529933232E+02 -0.11573476417E+01  0.12867380752E+03  0.12509000000E+03 0.  0.
         25    1    4    4    0    0  0.11183885658E+02 -0.53003255386E+02  0.21815315788E+03  0.25724061260E+03  0.12509000000E+03 0.  0.
<mgrwt>
<rscale>  2 0.46210271E+03</rscale>
<asrwt>0</asrwt>
<pdfrwt beam="1">  1       21 0.75583600E-01 0.46210271E+03</pdfrwt>
<pdfrwt beam="2">  1       21 0.15274663E-01 0.46210271E+03</pdfrwt>
<totfact> 0.54473151E+04</totfact>
</mgrwt>
</event>
<event>
 7    0  0.4725730E-002  0.4564631E+03  0.7546771E-02  0.1025812E+00
         21   -1    0    0  502  501  0.00000000000E+00  0.00000000000E+00  0.58904590087E+03  0.58904590087E+03  0.00000000000E+00 0. -1.
         21   -1    0    0  501  502 -0.00000000000E+00 -0.00000000000E+00 -0.88430541386E+02  0.88430541386E+02  0.00000000000E+00 0. -1.
      99926    2    1    2    0    0  0.00000000000E+00 -0.22204460493E-14  0.50061535948E+03  0.67747644225E+03  0.45646313286E+03 0.  0.
      99925    2    3    3    0    0 -0.22337836024E+01 -0.23344525613E+01  0.14475199317E+03  0.30025411650E+03  0.26303793547E+03 0.  0.
         25    1    3    3    0    0  0.22337836024E+01  0.23344525613E+01  0.35586336632E+03  0.37722232575E+03  0.12509000000E+03 0.  0.
         25    1    4    4    0    0 -0.21107242760E+02  0.29745154383E+02  0.52729147088E+02  0.14056372562E+03  0.12509000000E+03 0.  0.
         25    1    4    4    0    0  0.18873459157E+02 -0.32079606945E+02  0.92022846077E+02  0.15969039089E+03  0.12509000000E+03 0.  0.
<mgrwt>
<rscale>  2 0.45646313E+03</rscale>
<asrwt>0</asrwt>
<pdfrwt beam="1">  1       21 0.86624395E-01 0.45646313E+03</pdfrwt>
<pdfrwt beam="2">  1       21 0.13004492E-01 0.45646313E+03</pdfrwt>
<totfact> 0.53523706E+04</totfact>
</mgrwt>
</event>
<event>
 7    0  0.4725730E-002  0.4624211E+03  0.7546771E-02  0.1024081E+00
         21   -1    0    0  502  501  0.00000000000E+00  0.00000000000E+00  0.10114613987E+03  0.10114613987E+03  0.00000000000E+00 0. -1.
         21   -1    0    0  501  502 -0.00000000000E+00 -0.00000000000E+00 -0.52852545900E+03  0.52852545900E+03  0.00000000000E+00 0. -1.
      99926    2    1    2    0    0  0.00000000000E+00  0.00000000000E+00 -0.42737931913E+03  0.62967159888E+03  0.46242106355E+03 0.  0.
      99925    2    3    3    0    0  0.10266447076E+03  0.45305631991E+02 -0.32495867085E+03  0.43287197708E+03  0.26303501084E+03 0.  0.
         25    1    4    4    0    0  0.55991484383E+02  0.89783543979E+01 -0.10446019031E+03  0.17255461927E+03  0.12509000000E+03 0.  0.
         25    1    4    4    0    0  0.46672986381E+02  0.36327277593E+02 -0.22049848054E+03  0.26031735781E+03  0.12509000000E+03 0.  0.
         25    1    3    3    0    0 -0.10266447076E+03 -0.45305631991E+02 -0.10242064828E+03  0.19679962180E+03  0.12509000000E+03 0.  0.
<mgrwt>
<rscale>  2 0.46242106E+03</rscale>
<asrwt>0</asrwt>
<pdfrwt beam="1">  1       21 0.14874432E-01 0.46242106E+03</pdfrwt>
<pdfrwt beam="2">  1       21 0.77724332E-01 0.46242106E+03</pdfrwt>
<totfact> 0.53673750E+04</totfact>
</mgrwt>
</event>
<event>
 7    0  0.4725730E-002  0.4539618E+03  0.7546771E-02  0.1026547E+00
         21   -1    0    0  502  501  0.00000000000E+00  0.00000000000E+00  0.10677600920E+04  0.10677600920E+04  0.00000000000E+00 0. -1.
         21   -1    0    0  501  502 -0.00000000000E+00 -0.00000000000E+00 -0.48250853110E+02  0.48250853110E+02  0.00000000000E+00 0. -1.
      99926    2    1    2    0    0  0.14210854715E-13  0.14210854715E-13  0.10195092389E+04  0.11160109451E+04  0.45396182815E+03 0.  0.
      99925    2    3    3    0    0 -0.90599179180E+02 -0.64689585701E+02  0.60662566753E+03  0.67046262521E+03  0.26293055648E+03 0.  0.
         25    1    3    3    0    0  0.90599179180E+02  0.64689585701E+02  0.41288357134E+03  0.44554831988E+03  0.12509000000E+03 0.  0.
         25    1    4    4    0    0 -0.74569885349E+02 -0.64420639230E+02  0.35000358723E+03  0.38452659951E+03  0.12509000000E+03 0.  0.
         25    1    4    4    0    0 -0.16029293831E+02 -0.26894647075E+00  0.25662208030E+03  0.28593602569E+03  0.12509000000E+03 0.  0.
<mgrwt>
<rscale>  2 0.45396183E+03</rscale>
<asrwt>0</asrwt>
<pdfrwt beam="1">  1       21 0.15702353E+00 0.45396183E+03</pdfrwt>
<pdfrwt beam="2">  1       21 0.70957144E-02 0.45396183E+03</pdfrwt>
<totfact> 0.35221857E+04</totfact>
</mgrwt>
</event>
<event>
 7    0  0.4725730E-002  0.4387525E+03  0.7546771E-02  0.1031130E+00
         21   -1    0    0  502  501  0.00000000000E+00  0.00000000000E+00  0.23123312275E+02  0.23123312275E+02  0.00000000000E+00 0. -1.
         21   -1    0    0  501  502 -0.00000000000E+00 -0.00000000000E+00 -0.20812739763E+04  0.20812739763E+04  0.00000000000E+00 0. -1.
      99926    2    1    2    0    0  0.44408920985E-15  0.00000000000E+00 -0.20581506640E+04  0.21043972886E+04  0.43875254112E+03 0.  0.
      99925    2    3    3    0    0 -0.38410665880E+01  0.38969235413E+02 -0.88418538464E+03  0.92313722390E+03  0.26242176860E+03 0.  0.
         25    1    3    3    0    0  0.38410665880E+01 -0.38969235413E+02 -0.11739652794E+04  0.11812600647E+04  0.12509000000E+03 0.  0.
         25    1    4    4    0    0 -0.20040107657E+02  0.23836518808E+02 -0.56673810048E+03  0.58121370268E+03  0.12509000000E+03 0.  0.
         25    1    4    4    0    0  0.16199041069E+02  0.15132716605E+02 -0.31744728416E+03  0.34192352122E+03  0.12509000000E+03 0.  0.
<mgrwt>
<rscale>  2 0.43875254E+03</rscale>
<asrwt>0</asrwt>
<pdfrwt beam="1">  1       21 0.34004857E-02 0.43875254E+03</pdfrwt>
<pdfrwt beam="2">  1       21 0.30606983E+00 0.43875254E+03</pdfrwt>
<totfact> 0.13731503E+04</totfact>
</mgrwt>
</event>
<event>
 7    0  0.4725730E-002  0.4566185E+03  0.7546771E-02  0.1025767E+00
         21   -1    0    0  502  501  0.00000000000E+00  0.00000000000E+00  0.21747427534E+03  0.21747427534E+03  0.00000000000E+00 0.  1.
         21   -1    0    0  501  502 -0.00000000000E+00 -0.00000000000E+00 -0.23968400859E+03  0.23968400859E+03  0.00000000000E+00 0.  1.
      99926    2    1    2    0    0  0.00000000000E+00  0.00000000000E+00 -0.22209733251E+02  0.45715828394E+03  0.45661846691E+03 0.  0.
      99925    2    3    3    0    0  0.99250606473E+02 -0.55114565142E+02 -0.30198417506E+02  0.28804404636E+03  0.26300024724E+03 0.  0.
         25    1    4    4    0    0  0.51726556329E+02 -0.33597874483E+02  0.25016625680E+02  0.14169613072E+03  0.12509000000E+03 0.  0.
         25    1    4    4    0    0  0.47524050144E+02 -0.21516690659E+02 -0.55215043186E+02  0.14634791564E+03  0.12509000000E+03 0.  0.
         25    1    3    3    0    0 -0.99250606473E+02  0.55114565142E+02  0.79886842549E+01  0.16911423758E+03  0.12509000000E+03 0.  0.
<mgrwt>
<rscale>  2 0.45661847E+03</rscale>
<asrwt>0</asrwt>
<pdfrwt beam="1">  1       21 0.31981511E-01 0.45661847E+03</pdfrwt>
<pdfrwt beam="2">  1       21 0.35247648E-01 0.45661847E+03</pdfrwt>
<totfact> 0.67511954E+04</totfact>
</mgrwt>
</event>
<event>
 7    0  0.4725730E-002  0.4551642E+03  0.7546771E-02  0.1026193E+00
         21   -1    0    0  502  501  0.00000000000E+00  0.00000000000E+00  0.50096386006E+03  0.50096386006E+03  0.00000000000E+00 0. -1.
         21   -1    0    0  501  502 -0.00000000000E+00 -0.00000000000E+00 -0.10338793802E+03  0.10338793802E+03  0.00000000000E+00 0. -1.
      99926    2    1    2    0    0 -0.14210854715E-13  0.23592239273E-15  0.39757592203E+03  0.60435179808E+03  0.45516423636E+03 0.  0.
      99925    2    3    3    0    0 -0.10650842394E+03 -0.10128878705E+00  0.30142755893E+03  0.41399405472E+03  0.26303697350E+03 0.  0.
         25    1    3    3    0    0  0.10650842394E+03  0.10128878705E+00  0.96148363098E+02  0.19035774336E+03  0.12509000000E+03 0.  0.
         25    1    4    4    0    0 -0.79519106835E+02 -0.15602663226E+02  0.11953839787E+03  0.19105933140E+03  0.12509000000E+03 0.  0.
         25    1    4    4    0    0 -0.26989317107E+02  0.15501374439E+02  0.18188916106E+03  0.22293472332E+03  0.12509000000E+03 0.  0.
<mgrwt>
<rscale>  2 0.45516424E+03</rscale>
<asrwt>0</asrwt>
<pdfrwt beam="1">  1       21 0.73671155E-01 0.45516424E+03</pdfrwt>
<pdfrwt beam="2">  1       21 0.15204109E-01 0.45516424E+03</pdfrwt>
<totfact> 0.58335473E+04</totfact>
</mgrwt>
</event>
<event>
 7    0  0.4725730E-002  0.4544006E+03  0.7546771E-02  0.1026418E+00
         21   -1    0    0  502  501  0.00000000000E+00  0.00000000000E+00  0.35457926611E+03  0.35457926611E+03  0.00000000000E+00 0.  1.
         21   -1    0    0  501  502 -0.00000000000E+00 -0.00000000000E+00 -0.14558092131E+03  0.14558092131E+03  0.00000000000E+00 0.  1.
      99926    2    1    2    0    0  0.00000000000E+00  0.00000000000E+00  0.20899834480E+03  0.50016018741E+03  0.45440059963E+03 0.  0.
      99925    2    3    3    0    0  0.23670500524E+02  0.10393241007E+03  0.17157737293E+03  0.33160730048E+03  0.26298739204E+03 0.  0.
         25    1    4    4    0    0  0.17247337553E+01  0.51142023061E+02  0.39215470952E+02  0.14072612583E+03  0.12509000000E+03 0.  0.
         25    1    3    3    0    0 -0.23670500524E+02 -0.10393241007E+03  0.37420971872E+02  0.16855288693E+03  0.12509000000E+03 0.  0.
         25    1    4    4    0    0  0.21945766769E+02  0.52790387010E+02  0.13236190198E+03  0.19088117465E+03  0.12509000000E+03 0.  0.
<mgrwt>
<rscale>  2 0.45440060E+03</rscale>
<asrwt>0</asrwt>
<pdfrwt beam="1">  1       21 0.52144010E-01 0.45440060E+03</pdfrwt>
<pdfrwt beam="2">  1       21 0.21408959E-01 0.45440060E+03</pdfrwt>
<totfact> 0.65570842E+04</totfact>
</mgrwt>
</event>
<event>
 7    0  0.4725730E-002  0.4435215E+03  0.7546771E-02  0.1029672E+00
         21   -1    0    0  502  501  0.00000000000E+00  0.00000000000E+00  0.79735575837E+03  0.79735575837E+03  0.00000000000E+00 0.  1.
         21   -1    0    0  501  502 -0.00000000000E+00 -0.00000000000E+00 -0.61676150474E+02  0.61676150474E+02  0.00000000000E+00 0.  1.
      99926    2    1    2    0    0  0.00000000000E+00  0.00000000000E+00  0.73567960790E+03  0.85903190884E+03  0.44352151576E+03 0.  0.
      99925    2    3    3    0    0 -0.43827306256E+02  0.91160996467E+02  0.44441841057E+03  0.52629815159E+03  0.26315558261E+03 0.  0.
         25    1    3    3    0    0  0.43827306256E+02 -0.91160996467E+02  0.29126119733E+03  0.33273375726E+03  0.12509000000E+03 0.  0.
         25    1    4    4    0    0  0.15916962259E+01  0.18021103589E+02  0.16019877816E+03  0.20405501782E+03  0.12509000000E+03 0.  0.
         25    1    4    4    0    0 -0.45419002482E+02  0.73139892878E+02  0.28421963241E+03  0.32224313377E+03  0.12509000000E+03 0.  0.
<mgrwt>
<rscale>  2 0.44352152E+03</rscale>
<asrwt>0</asrwt>
<pdfrwt beam="1">  1       21 0.11725819E+00 0.44352152E+03</pdfrwt>
<pdfrwt beam="2">  1       21 0.90700226E-02 0.44352152E+03</pdfrwt>
<totfact> 0.49331581E+04</totfact>
</mgrwt>
</event>
<event>
 6    0  0.4725730E-002  0.4610272E+03  0.7546771E-02  0.1024484E+00
         21   -1    0    0  502  501  0.00000000000E+00  0.00000000000E+00  0.23662681386E+03  0.23662681386E+03  0.00000000000E+00 0.  1.
         21   -1    0    0  501  502 -0.00000000000E+00 -0.00000000000E+00 -0.22455828824E+03  0.22455828824E+03  0.00000000000E+00 0.  1.
      99926    2    1    2    0    0  0.00000000000E+00  0.00000000000E+00  0.12068525618E+02  0.46118510210E+03  0.46102716740E+03 0.  0.
         25    1    3    3    0    0 -0.10570383601E+02  0.23980426402E+02 -0.46086286716E+01  0.12788878535E+03  0.12509000000E+03 0.  0.
         25    1    3    3    0    0  0.58578236878E+02 -0.75183781078E+02 -0.62770287942E+02  0.16932698521E+03  0.12509000000E+03 0.  0.
         25    1    3    3    0    0 -0.48007853277E+02  0.51203354676E+02  0.79447442232E+02  0.16396933153E+03  0.12509000000E+03 0.  0.
<mgrwt>
<rscale>  2 0.46102717E+03</rscale>
<asrwt>0</asrwt>
<pdfrwt beam="1">  1       21 0.34798061E-01 0.46102717E+03</pdfrwt>
<pdfrwt beam="2">  1       21 0.33023278E-01 0.46102717E+03</pdfrwt>
<totfact> 0.64916558E+04</totfact>
</mgrwt>
</event>
<event>
 7    0  0.4725730E-002  0.4380024E+03  0.7546771E-02  0.1031361E+00
         21   -1    0    0  502  501  0.00000000000E+00  0.00000000000E+00  0.12855731020E+03  0.12855731020E+03  0.00000000000E+00 0. -1.
         21   -1    0    0  501  502 -0.00000000000E+00 -0.00000000000E+00 -0.37307501752E+03  0.37307501752E+03  0.00000000000E+00 0. -1.
      99926    2    1    2    0    0 -0.14210854715E-13 -0.35527136788E-14 -0.24451770732E+03  0.50163232772E+03  0.43800237788E+03 0.  0.
      99925    2    3    3    0    0 -0.94091072947E+02  0.17892124656E+02 -0.14465463768E+03  0.31510244028E+03  0.26304244056E+03 0.  0.
         25    1    4    4    0    0 -0.82192312065E+02 -0.61186004478E+01 -0.58249794199E+02  0.16072821799E+03  0.12509000000E+03 0.  0.
         25    1    3    3    0    0  0.94091072947E+02 -0.17892124656E+02 -0.99863069631E+02  0.18652988744E+03  0.12509000000E+03 0.  0.
         25    1    4    4    0    0 -0.11898760881E+02  0.24010725104E+02 -0.86404843486E+02  0.15437422229E+03  0.12509000000E+03 0.  0.
<mgrwt>
<rscale>  2 0.43800238E+03</rscale>
<asrwt>0</asrwt>
<pdfrwt beam="1">  1       21 0.18905487E-01 0.43800238E+03</pdfrwt>
<pdfrwt beam="2">  1       21 0.54863973E-01 0.43800238E+03</pdfrwt>
<totfact> 0.74740437E+04</totfact>
</mgrwt>
</event>
<event>
 7    0  0.4725730E-002  0.4558049E+03  0.7546771E-02  0.1026005E+00
         21   -1    0    0  502  501  0.00000000000E+00  0.00000000000E+00  0.11196140954E+03  0.11196140954E+03  0.00000000000E+00 0. -1.
         21   -1    0    0  501  502 -0.00000000000E+00 -0.00000000000E+00 -0.46390567545E+03  0.46390567545E+03  0.00000000000E+00 0. -1.
      99926    2    1    2    0    0  0.00000000000E+00  0.00000000000E+00 -0.35194426591E+03  0.57586708499E+03  0.45580492896E+03 0.  0.
      99925    2    3    3    0    0 -0.17270869446E+02 -0.92654597946E+02 -0.30245888441E+03  0.41161280487E+03  0.26279377262E+03 0.  0.
         25    1    3    3    0    0  0.17270869446E+02  0.92654597946E+02 -0.49485381506E+02  0.16425428011E+03  0.12509000000E+03 0.  0.
         25    1    4    4    0    0 -0.22625939664E+02 -0.34893380493E+02 -0.94903127768E+02  0.16243027091E+03  0.12509000000E+03 0.  0.
         25    1    4    4    0    0  0.53550702184E+01 -0.57761217454E+02 -0.20755575664E+03  0.24918253396E+03  0.12509000000E+03 0.  0.
<mgrwt>
<rscale>  2 0.45580493E+03</rscale>
<asrwt>0</asrwt>
<pdfrwt beam="1">  1       21 0.16464913E-01 0.45580493E+03</pdfrwt>
<pdfrwt beam="2">  1       21 0.68221423E-01 0.45580493E+03</pdfrwt>
<totfact> 0.59807317E+04</totfact>
</mgrwt>
</event>
<event>
 7    0  0.4725730E-002  0.4562823E+03  0.7546771E-02  0.1025865E+00
         21   -1    0    0  502  501  0.00000000000E+00  0.00000000000E+00  0.67405278967E+03  0.67405278967E+03  0.00000000000E+00 0. -1.
         21   -1    0    0  501  502 -0.00000000000E+00 -0.00000000000E+00 -0.77217073843E+02  0.77217073843E+02  0.00000000000E+00 0. -1.
      99926    2    1    2    0    0  0.00000000000E+00  0.00000000000E+00  0.59683571583E+03  0.75126986351E+03  0.45628229873E+03 0.  0.
      99925    2    3    3    0    0 -0.10643841584E+03  0.35059366427E+02  0.33861681414E+03  0.44323933771E+03  0.26313773605E+03 0.  0.
         25    1    4    4    0    0 -0.83817602925E+02  0.17537209703E+02  0.13744198288E+03  0.20462343718E+03  0.12509000000E+03 0.  0.
         25    1    3    3    0    0  0.10643841584E+03 -0.35059366427E+02  0.25821890169E+03  0.30803052581E+03  0.12509000000E+03 0.  0.
         25    1    4    4    0    0 -0.22620812913E+02  0.17522156724E+02  0.20117483126E+03  0.23861590053E+03  0.12509000000E+03 0.  0.
<mgrwt>
<rscale>  2 0.45628230E+03</rscale>
<asrwt>0</asrwt>
<pdfrwt beam="1">  1       21 0.99125407E-01 0.45628230E+03</pdfrwt>
<pdfrwt beam="2">  1       21 0.11355452E-01 0.45628230E+03</pdfrwt>
<totfact> 0.49703363E+04</totfact>
</mgrwt>
</event>
<event>
 7    0  0.4725730E-002  0.4551103E+03  0.7546771E-02  0.1026209E+00
         21   -1    0    0  502  501  0.00000000000E+00  0.00000000000E+00  0.55002287924E+03  0.55002287924E+03  0.00000000000E+00 0.  1.
         21   -1    0    0  501  502 -0.00000000000E+00 -0.00000000000E+00 -0.94143996448E+02  0.94143996448E+02  0.00000000000E+00 0.  1.
      99926    2    1    2    0    0  0.00000000000E+00  0.00000000000E+00  0.45587888279E+03  0.64416687568E+03  0.45511032504E+03 0.  0.
      99925    2    3    3    0    0  0.39095837588E+02  0.93798838351E+02  0.21682121051E+03  0.35585665150E+03  0.26324097800E+03 0.  0.
         25    1    3    3    0    0 -0.39095837588E+02 -0.93798838351E+02  0.23905767228E+03  0.28831022418E+03  0.12509000000E+03 0.  0.
         25    1    4    4    0    0  0.14311118052E+02  0.54876559870E+02  0.16016334530E+03  0.21098827029E+03  0.12509000000E+03 0.  0.
         25    1    4    4    0    0  0.24784719536E+02  0.38922278481E+02  0.56657865210E+02  0.14486838121E+03  0.12509000000E+03 0.  0.
<mgrwt>
<rscale>  2 0.45511033E+03</rscale>
<asrwt>0</asrwt>
<pdfrwt beam="1">  1       21 0.80885716E-01 0.45511033E+03</pdfrwt>
<pdfrwt beam="2">  1       21 0.13844706E-01 0.45511033E+03</pdfrwt>
<totfact> 0.55990035E+04</totfact>
</mgrwt>
</event>
<event>
 7    0  0.4725730E-002  0.4446698E+03  0.7546771E-02  0.1029324E+00
         21   -1    0    0  502  501  0.00000000000E+00  0.00000000000E+00  0.69881794818E+03  0.69881794818E+03  0.00000000000E+00 0.  1.
         21   -1    0    0  501  502 -0.00000000000E+00 -0.00000000000E+00 -0.70737753001E+02  0.70737753001E+02  0.00000000000E+00 0.  1.
      99926    2    1    2    0    0  0.00000000000E+00  0.53290705182E-14  0.62808019518E+03  0.76955570118E+03  0.44466981643E+03 0.  0.
      99925    2    3    3    0    0 -0.98837789987E+02 -0.10528627699E+02  0.35070984606E+03  0.44945949783E+03  0.26293855429E+03 0.  0.
         25    1    3    3    0    0  0.98837789987E+02  0.10528627699E+02  0.27737034911E+03  0.32009620335E+03  0.12509000000E+03 0.  0.
         25    1    4    4    0    0 -0.56288475510E+02  0.29750143009E+02  0.14619805084E+03  0.20266929135E+03  0.12509000000E+03 0.  0.
         25    1    4    4    0    0 -0.42549314477E+02 -0.40278770708E+02  0.20451179522E+03  0.24679020648E+03  0.12509000000E+03 0.  0.
<mgrwt>
<rscale>  2 0.44466982E+03</rscale>
<asrwt>0</asrwt>
<pdfrwt beam="1">  1       21 0.10276734E+00 0.44466982E+03</pdfrwt>
<pdfrwt beam="2">  1       21 0.10402611E-01 0.44466982E+03</pdfrwt>
<totfact> 0.53479381E+04</totfact>
</mgrwt>
</event>
<event>
 7    0  0.4725730E-002  0.4569484E+03  0.7546771E-02  0.1025670E+00
         21   -1    0    0  502  501  0.00000000000E+00  0.00000000000E+00  0.28785156116E+03  0.28785156116E+03  0.00000000000E+00 0.  1.
         21   -1    0    0  501  502 -0.00000000000E+00 -0.00000000000E+00 -0.18134508835E+03  0.18134508835E+03  0.00000000000E+00 0.  1.
      99926    2    1    2    0    0  0.00000000000E+00 -0.17763568394E-14  0.10650647281E+03  0.46919664952E+03  0.45694842944E+03 0.  0.
      99925    2    3    3    0    0  0.97085677537E+02  0.15318704149E+02  0.56681933342E+01  0.28084549293E+03  0.26302427836E+03 0.  0.
         25    1    4    4    0    0  0.15174409108E+02  0.26778612747E+01 -0.22887442005E+02  0.12809674756E+03  0.12509000000E+03 0.  0.
         25    1    3    3    0    0 -0.97085677537E+02 -0.15318704149E+02  0.10083827947E+03  0.18835115658E+03  0.12509000000E+03 0.  0.
         25    1    4    4    0    0  0.81911268430E+02  0.12640842875E+02  0.28555635339E+02  0.15274874538E+03  0.12509000000E+03 0.  0.
<mgrwt>
<rscale>  2 0.45694843E+03</rscale>
<asrwt>0</asrwt>
<pdfrwt beam="1">  1       21 0.42331112E-01 0.45694843E+03</pdfrwt>
<pdfrwt beam="2">  1       21 0.26668395E-01 0.45694843E+03</pdfrwt>
<totfact> 0.66462515E+04</totfact>
</mgrwt>
</event>
<event>
 7    0  0.4725730E-002  0.4542702E+03  0.7546771E-02  0.1026456E+00
         21   -1    0    0  502  501  0.00000000000E+00  0.00000000000E+00  0.25167421277E+04  0.25167421277E+04  0.00000000000E+00 0.  1.
         21   -1    0    0  501  502 -0.00000000000E+00 -0.00000000000E+00 -0.20498863394E+02  0.20498863394E+02  0.00000000000E+00 0.  1.
      99926    2    1    2    0    0  0.14210854715E-13  0.00000000000E+00  0.24962432643E+04  0.25372409911E+04  0.45427019746E+03 0.  0.
      99925    2    3    3    0    0 -0.10882835627E+03 -0.24170459467E+02  0.16529914363E+04  0.16775032545E+04  0.26307538470E+03 0.  0.
         25    1    3    3    0    0  0.10882835627E+03  0.24170459467E+02  0.84325182801E+03  0.85973773662E+03  0.12509000000E+03 0.  0.
         25    1    4    4    0    0 -0.68267701508E+02 -0.10447621848E+02  0.62986291294E+03  0.64586719151E+03  0.12509000000E+03 0.  0.
         25    1    4    4    0    0 -0.40560654767E+02 -0.13722837619E+02  0.10231285234E+04  0.10316360630E+04  0.12509000000E+03 0.  0.
<mgrwt>
<rscale>  2 0.45427020E+03</rscale>
<asrwt>0</asrwt>
<pdfrwt beam="1">  1       21 0.37010892E+00 0.45427020E+03</pdfrwt>
<pdfrwt beam="2">  1       21 0.30145405E-02 0.45427020E+03</pdfrwt>
<totfact> 0.67967250E+03</totfact>
</mgrwt>
</event>
<event>
 7    0  0.4725730E-002  0.4570936E+03  0.7546771E-02  0.1025628E+00
         21   -1    0    0  502  501  0.00000000000E+00  0.00000000000E+00  0.16972075648E+03  0.16972075648E+03  0.00000000000E+00 0.  1.
         21   -1    0    0  501  502 -0.00000000000E+00 -0.00000000000E+00 -0.30776219904E+03  0.30776219904E+03  0.00000000000E+00 0.  1.
      99926    2    1    2    0    0  0.00000000000E+00  0.00000000000E+00 -0.13804144256E+03  0.47748295551E+03  0.45709357132E+03 0.  0.
      99925    2    3    3    0    0 -0.48439904077E+02 -0.10060452009E+03 -0.57656276520E+02  0.29153410021E+03  0.26305929292E+03 0.  0.
         25    1    4    4    0    0 -0.60346731031E+02 -0.73439552643E+02 -0.35744116741E+02  0.16112183533E+03  0.12509000000E+03 0.  0.
         25    1    4    4    0    0  0.11906826954E+02 -0.27164967448E+02 -0.21912159780E+02  0.13041226488E+03  0.12509000000E+03 0.  0.
         25    1    3    3    0    0  0.48439904077E+02  0.10060452009E+03 -0.80385166040E+02  0.18594885530E+03  0.12509000000E+03 0.  0.
<mgrwt>
<rscale>  2 0.45709357E+03</rscale>
<asrwt>0</asrwt>
<pdfrwt beam="1">  1       21 0.24958935E-01 0.45709357E+03</pdfrwt>
<pdfrwt beam="2">  1       21 0.45259146E-01 0.45709357E+03</pdfrwt>
<totfact> 0.65783954E+04</totfact>
</mgrwt>
</event>
<event>
 7    0  0.4725730E-002  0.4539435E+03  0.7546771E-02  0.1026553E+00
         21   -1    0    0  502  501  0.00000000000E+00  0.00000000000E+00  0.45482013896E+03  0.45482013896E+03  0.00000000000E+00 0.  1.
         21   -1    0    0  501  502 -0.00000000000E+00 -0.00000000000E+00 -0.11326714403E+03  0.11326714403E+03  0.00000000000E+00 0.  1.
      99926    2    1    2    0    0  0.00000000000E+00  0.14210854715E-13  0.34155299494E+03  0.56808728299E+03  0.45394351272E+03 0.  0.
      99925    2    3    3    0    0 -0.47155568323E+02  0.73649009166E+02  0.30279465412E+03  0.41061493222E+03  0.26319611665E+03 0.  0.
         25    1    3    3    0    0  0.47155568323E+02 -0.73649009166E+02  0.38758340816E+02  0.15747235077E+03  0.12509000000E+03 0.  0.
         25    1    4    4    0    0 -0.36435415106E+02  0.14202614646E+02  0.10021870709E+03  0.16498651790E+03  0.12509000000E+03 0.  0.
         25    1    4    4    0    0 -0.10720153216E+02  0.59446394520E+02  0.20257594703E+03  0.24562841432E+03  0.12509000000E+03 0.  0.
<mgrwt>
<rscale>  2 0.45394351E+03</rscale>
<asrwt>0</asrwt>
<pdfrwt beam="1">  1       21 0.66885314E-01 0.45394351E+03</pdfrwt>
<pdfrwt beam="2">  1       21 0.16656933E-01 0.45394351E+03</pdfrwt>
<totfact> 0.61196568E+04</totfact>
</mgrwt>
</event>
<event>
 7    0  0.4725730E-002  0.4537192E+03  0.7546771E-02  0.1026619E+00
         21   -1    0    0  502  501  0.00000000000E+00  0.00000000000E+00  0.40819989680E+02  0.40819989680E+02  0.00000000000E+00 0.  1.
         21   -1    0    0  501  502 -0.00000000000E+00 -0.00000000000E+00 -0.12607860908E+04  0.12607860908E+04  0.00000000000E+00 0.  1.
      99926    2    1    2    0    0  0.00000000000E+00  0.00000000000E+00 -0.12199661011E+04  0.13016060805E+04  0.45371918723E+03 0.  0.
      99925    2    3    3    0    0  0.39585017768E+02 -0.77237882654E+02 -0.97144250008E+03  0.10101542791E+04  0.26301800794E+03 0.  0.
         25    1    4    4    0    0 -0.14825049890E+02 -0.15127472676E+02 -0.42571404621E+03  0.44421681617E+03  0.12509000000E+03 0.  0.
         25    1    3    3    0    0 -0.39585017768E+02  0.77237882654E+02 -0.24852360106E+03  0.29145180139E+03  0.12509000000E+03 0.  0.
         25    1    4    4    0    0  0.54410067658E+02 -0.62110409978E+02 -0.54572845388E+03  0.56593746294E+03  0.12509000000E+03 0.  0.
<mgrwt>
<rscale>  2 0.45371919E+03</rscale>
<asrwt>0</asrwt>
<pdfrwt beam="1">  1       21 0.60029409E-02 0.45371919E+03</pdfrwt>
<pdfrwt beam="2">  1       21 0.18540968E+00 0.45371919E+03</pdfrwt>
<totfact> 0.29359440E+04</totfact>
</mgrwt>
</event>
<event>
 7    0  0.4725730E-002  0.4589182E+03  0.7546771E-02  0.1025095E+00
         21   -1    0    0  502  501  0.00000000000E+00  0.00000000000E+00  0.21564667243E+02  0.21564667243E+02  0.00000000000E+00 0.  1.
         21   -1    0    0  501  502 -0.00000000000E+00 -0.00000000000E+00 -0.24415626473E+04  0.24415626473E+04  0.00000000000E+00 0.  1.
      99926    2    1    2    0    0  0.71054273576E-14  0.00000000000E+00 -0.24199979801E+04  0.24631273146E+04  0.45891823256E+03 0.  0.
      99925    2    3    3    0    0 -0.59876768725E+02 -0.58042669328E+02 -0.10794431592E+04  0.11141688591E+04  0.26309795435E+03 0.  0.
         25    1    4    4    0    0 -0.70007382485E+02 -0.34957268351E+02 -0.53518129260E+03  0.55514823990E+03  0.12509000000E+03 0.  0.
         25    1    4    4    0    0  0.10130613760E+02 -0.23085400977E+02 -0.54426186664E+03  0.55902061917E+03  0.12509000000E+03 0.  0.
         25    1    3    3    0    0  0.59876768725E+02  0.58042669328E+02 -0.13405548208E+04  0.13489584555E+04  0.12509000000E+03 0.  0.
<mgrwt>
<rscale>  2 0.45891823E+03</rscale>
<asrwt>0</asrwt>
<pdfrwt beam="1">  1       21 0.31712734E-02 0.45891823E+03</pdfrwt>
<pdfrwt beam="2">  1       21 0.35905346E+00 0.45891823E+03</pdfrwt>
<totfact> 0.72918624E+03</totfact>
</mgrwt>
</event>
<event>
 7    0  0.4725730E-002  0.4622496E+03  0.7546771E-02  0.1024131E+00
         21   -1    0    0  502  501  0.00000000000E+00  0.00000000000E+00  0.82231720493E+02  0.82231720493E+02  0.00000000000E+00 0.  1.
         21   -1    0    0  501  502 -0.00000000000E+00 -0.00000000000E+00 -0.64961144910E+03  0.64961144910E+03  0.00000000000E+00 0.  1.
      99926    2    1    2    0    0  0.71054273576E-14 -0.71054273576E-14 -0.56737972861E+03  0.73184316959E+03  0.46224957377E+03 0.  0.
      99925    2    3    3    0    0 -0.63326588382E+02 -0.45566855841E+02 -0.21031443854E+03  0.34554053613E+03  0.26282980026E+03 0.  0.
         25    1    3    3    0    0  0.63326588382E+02  0.45566855841E+02 -0.35706529007E+03  0.38630263346E+03  0.12509000000E+03 0.  0.
         25    1    4    4    0    0 -0.64067958911E+02 -0.37738060705E+01 -0.12757469234E+03  0.18984666233E+03  0.12509000000E+03 0.  0.
         25    1    4    4    0    0  0.74137052942E+00 -0.41793049770E+02 -0.82739746199E+02  0.15569387381E+03  0.12509000000E+03 0.  0.
<mgrwt>
<rscale>  2 0.46224957E+03</rscale>
<asrwt>0</asrwt>
<pdfrwt beam="1">  1       21 0.12092900E-01 0.46224957E+03</pdfrwt>
<pdfrwt beam="2">  1       21 0.95531096E-01 0.46224957E+03</pdfrwt>
<totfact> 0.48389927E+04</totfact>
</mgrwt>
</event>
<event>
 7    0  0.4725730E-002  0.4617418E+03  0.7546771E-02  0.1024277E+00
         21   -1    0    0  502  501  0.00000000000E+00  0.00000000000E+00  0.10843364450E+04  0.10843364450E+04  0.00000000000E+00 0. -1.
         21   -1    0    0  501  502 -0.00000000000E+00 -0.00000000000E+00 -0.49155748414E+02  0.49155748414E+02  0.00000000000E+00 0. -1.
      99926    2    1    2    0    0  0.00000000000E+00  0.00000000000E+00  0.10351806966E+04  0.11334921934E+04  0.46174178709E+03 0.  0.
      99925    2    3    3    0    0 -0.78890605171E+02 -0.65472394578E+02  0.79759836669E+03  0.84608441061E+03  0.26303101204E+03 0.  0.
         25    1    3    3    0    0  0.78890605171E+02  0.65472394578E+02  0.23758232988E+03  0.28740778279E+03  0.12509000000E+03 0.  0.
         25    1    4    4    0    0 -0.78744762179E+02 -0.20126305112E+02  0.41195020556E+03  0.43812816126E+03  0.12509000000E+03 0.  0.
         25    1    4    4    0    0 -0.14584299210E+00 -0.45346089466E+02  0.38564816114E+03  0.40795624935E+03  0.12509000000E+03 0.  0.
<mgrwt>
<rscale>  2 0.46174179E+03</rscale>
<asrwt>0</asrwt>
<pdfrwt beam="1">  1       21 0.15946123E+00 0.46174179E+03</pdfrwt>
<pdfrwt beam="2">  1       21 0.72287872E-02 0.46174179E+03</pdfrwt>
<totfact> 0.32591586E+04</totfact>
</mgrwt>
</event>
<event>
 7    0  0.4725730E-002  0.4391396E+03  0.7546771E-02  0.1031011E+00
         21   -1    0    0  502  501  0.00000000000E+00  0.00000000000E+00  0.10557243904E+03  0.10557243904E+03  0.00000000000E+00 0.  1.
         21   -1    0    0  501  502 -0.00000000000E+00 -0.00000000000E+00 -0.45666178857E+03  0.45666178857E+03  0.00000000000E+00 0.  1.
      99926    2    1    2    0    0  0.00000000000E+00  0.71054273576E-14 -0.35108934953E+03  0.56223422761E+03  0.43913960803E+03 0.  0.
      99925    2    3    3    0    0 -0.19172963548E+02  0.61308399905E+02 -0.31825785486E+03  0.41783292023E+03  0.26300183387E+03 0.  0.
         25    1    3    3    0    0  0.19172963548E+02 -0.61308399905E+02 -0.32831494676E+02  0.14440130738E+03  0.12509000000E+03 0.  0.
         25    1    4    4    0    0  0.36459168462E+01  0.59940867288E+02 -0.12663945763E+03  0.18785968330E+03  0.12509000000E+03 0.  0.
         25    1    4    4    0    0 -0.22818880394E+02  0.13675326174E+01 -0.19161839723E+03  0.22997323693E+03  0.12509000000E+03 0.  0.
<mgrwt>
<rscale>  2 0.43913961E+03</rscale>
<asrwt>0</asrwt>
<pdfrwt beam="1">  1       21 0.15525359E-01 0.43913961E+03</pdfrwt>
<pdfrwt beam="2">  1       21 0.67156146E-01 0.43913961E+03</pdfrwt>
<totfact> 0.69365700E+04</totfact>
</mgrwt>
</event>
<event>
 7    0  0.4725730E-002  0.4515239E+03  0.7546771E-02  0.1027269E+00
         21   -1    0    0  502  501  0.00000000000E+00  0.00000000000E+00  0.11587246558E+03  0.11587246558E+03  0.00000000000E+00 0.  1.
         21   -1    0    0  501  502 -0.00000000000E+00 -0.00000000000E+00 -0.43986689441E+03  0.43986689441E+03  0.00000000000E+00 0.  1.
      99926    2    1    2    0    0  0.14210854715E-13 -0.71054273576E-14 -0.32399442884E+03  0.55573935999E+03  0.45152391556E+03 0.  0.
      99925    2    3    3    0    0  0.71035536773E+02  0.35450822599E+02 -0.11115571193E+03  0.29641208448E+03  0.26306220410E+03 0.  0.
         25    1    4    4    0    0  0.73715007029E+02  0.95781695503E+01 -0.74606089900E+02  0.16352131465E+03  0.12509000000E+03 0.  0.
         25    1    4    4    0    0 -0.26794702561E+01  0.25872653049E+02 -0.36549622029E+02  0.13289076983E+03  0.12509000000E+03 0.  0.
         25    1    3    3    0    0 -0.71035536773E+02 -0.35450822599E+02 -0.21283871691E+03  0.25932727551E+03  0.12509000000E+03 0.  0.
<mgrwt>
<rscale>  2 0.45152392E+03</rscale>
<asrwt>0</asrwt>
<pdfrwt beam="1">  1       21 0.17040068E-01 0.45152392E+03</pdfrwt>
<pdfrwt beam="2">  1       21 0.64686309E-01 0.45152392E+03</pdfrwt>
<totfact> 0.63209126E+04</totfact>
</mgrwt>
</event>
<event>
 7    0  0.4725730E-002  0.4620519E+03  0.7546771E-02  0.1024188E+00
         21   -1    0    0  502  501  0.00000000000E+00  0.00000000000E+00  0.34735230440E+03  0.34735230440E+03  0.00000000000E+00 0.  1.
         21   -1    0    0  501  502 -0.00000000000E+00 -0.00000000000E+00 -0.15365667274E+03  0.15365667274E+03  0.00000000000E+00 0.  1.
      99926    2    1    2    0    0  0.00000000000E+00  0.00000000000E+00  0.19369563165E+03  0.50100897714E+03  0.46205194237E+03 0.  0.
      99925    2    3    3    0    0  0.24021074202E+02  0.10382815806E+03  0.62267250080E+02  0.29058505741E+03  0.26306874908E+03 0.  0.
         25    1    4    4    0    0 -0.23367129736E+00  0.50043613170E+02 -0.89385707187E+01  0.13502527159E+03  0.12509000000E+03 0.  0.
         25    1    4    4    0    0  0.24254745499E+02  0.53784544889E+02  0.71205820798E+02  0.15555978582E+03  0.12509000000E+03 0.  0.
         25    1    3    3    0    0 -0.24021074202E+02 -0.10382815806E+03  0.13142838157E+03  0.21042391973E+03  0.12509000000E+03 0.  0.
<mgrwt>
<rscale>  2 0.46205194E+03</rscale>
<asrwt>0</asrwt>
<pdfrwt beam="1">  1       21 0.51081221E-01 0.46205194E+03</pdfrwt>
<pdfrwt beam="2">  1       21 0.22596570E-01 0.46205194E+03</pdfrwt>
<totfact> 0.61674272E+04</totfact>
</mgrwt>
</event>
<event>
 7    0  0.4725730E-002  0.4538942E+03  0.7546771E-02  0.1026567E+00
         21   -1    0    0  502  501  0.00000000000E+00  0.00000000000E+00  0.90009218398E+02  0.90009218398E+02  0.00000000000E+00 0.  1.
         21   -1    0    0  501  502 -0.00000000000E+00 -0.00000000000E+00 -0.57221889277E+03  0.57221889277E+03  0.00000000000E+00 0.  1.
      99926    2    1    2    0    0  0.35527136788E-14  0.00000000000E+00 -0.48220967437E+03  0.66222811117E+03  0.45389415194E+03 0.  0.
      99925    2    3    3    0    0 -0.23637791026E+02 -0.60654942976E+02 -0.43661892876E+03  0.51402625066E+03  0.26334223009E+03 0.  0.
         25    1    4    4    0    0 -0.23994560419E+02  0.63532629481E+01 -0.23659925085E+03  0.26878023827E+03  0.12509000000E+03 0.  0.
         25    1    3    3    0    0  0.23637791026E+02  0.60654942976E+02 -0.45590745616E+02  0.14820186051E+03  0.12509000000E+03 0.  0.
         25    1    4    4    0    0  0.35676939312E+00 -0.67008205924E+02 -0.20001967791E+03  0.24524601239E+03  0.12509000000E+03 0.  0.
<mgrwt>
<rscale>  2 0.45389415E+03</rscale>
<asrwt>0</asrwt>
<pdfrwt beam="1">  1       21 0.13236649E-01 0.45389415E+03</pdfrwt>
<pdfrwt beam="2">  1       21 0.84149840E-01 0.45389415E+03</pdfrwt>
<totfact> 0.55484018E+04</totfact>
</mgrwt>
</event>
<event>
 7    0  0.4725730E-002  0.4539511E+03  0.7546771E-02  0.1026550E+00
         21   -1    0    0  502  501  0.00000000000E+00  0.00000000000E+00  0.94122462848E+02  0.94122462848E+02  0.00000000000E+00 0.  1.
         21   -1    0    0  501  502 -0.00000000000E+00 -0.00000000000E+00 -0.54734957610E+03  0.54734957610E+03  0.00000000000E+00 0.  1.
      99926    2    1    2    0    0  0.00000000000E+00  0.00000000000E+00 -0.45322711325E+03  0.64147203895E+03  0.45395105525E+03 0.  0.
      99925    2    3    3    0    0  0.80724615878E+02 -0.39230379213E+02 -0.19031258214E+03  0.33679672811E+03  0.26297846088E+03 0.  0.
         25    1    4    4    0    0  0.14846186558E+02  0.24204932190E+01 -0.57865947357E+02  0.13864430751E+03  0.12509000000E+03 0.  0.
         25    1    3    3    0    0 -0.80724615878E+02  0.39230379213E+02 -0.26291453112E+03  0.30467531084E+03  0.12509000000E+03 0.  0.
         25    1    4    4    0    0  0.65878429320E+02 -0.41650872432E+02 -0.13244663478E+03  0.19815242060E+03  0.12509000000E+03 0.  0.
<mgrwt>
<rscale>  2 0.45395106E+03</rscale>
<asrwt>0</asrwt>
<pdfrwt beam="1">  1       21 0.13841538E-01 0.45395106E+03</pdfrwt>
<pdfrwt beam="2">  1       21 0.80492586E-01 0.45395106E+03</pdfrwt>
<totfact> 0.56663039E+04</totfact>
</mgrwt>
</event>
<event>
 7    0  0.4725730E-002  0.4636080E+03  0.7546771E-02  0.1023740E+00
         21   -1    0    0  502  501  0.00000000000E+00  0.00000000000E+00  0.52454132089E+02  0.52454132089E+02  0.00000000000E+00 0. -1.
         21   -1    0    0  501  502 -0.00000000000E+00 -0.00000000000E+00 -0.10243823014E+04  0.10243823014E+04  0.00000000000E+00 0. -1.
      99926    2    1    2    0    0  0.00000000000E+00  0.00000000000E+00 -0.97192816930E+03  0.10768364335E+04  0.46360795742E+03 0.  0.
      99925    2    3    3    0    0  0.81090217198E+02 -0.65360020420E+02 -0.75034249852E+03  0.80189048754E+03  0.26299607092E+03 0.  0.
         25    1    4    4    0    0  0.11514329261E+02 -0.60616366431E+02 -0.35619035131E+03  0.38252581367E+03  0.12509000000E+03 0.  0.
         25    1    4    4    0    0  0.69575887937E+02 -0.47436539891E+01 -0.39415214721E+03  0.41936467387E+03  0.12509000000E+03 0.  0.
         25    1    3    3    0    0 -0.81090217198E+02  0.65360020420E+02 -0.22158567077E+03  0.27494594594E+03  0.12509000000E+03 0.  0.
<mgrwt>
<rscale>  2 0.46360796E+03</rscale>
<asrwt>0</asrwt>
<pdfrwt beam="1">  1       21 0.77138435E-02 0.46360796E+03</pdfrwt>
<pdfrwt beam="2">  1       21 0.15064445E+00 0.46360796E+03</pdfrwt>
<totfact> 0.33968214E+04</totfact>
</mgrwt>
</event>
<event>
 7    0  0.4725730E-002  0.4506257E+03  0.7546771E-02  0.1027536E+00
         21   -1    0    0  502  501  0.00000000000E+00  0.00000000000E+00  0.41910042079E+03  0.41910042079E+03  0.00000000000E+00 0.  1.
         21   -1    0    0  501  502 -0.00000000000E+00 -0.00000000000E+00 -0.12113060222E+03  0.12113060222E+03  0.00000000000E+00 0.  1.
      99926    2    1    2    0    0  0.00000000000E+00  0.00000000000E+00  0.29796981857E+03  0.54023102302E+03  0.45062572658E+03 0.  0.
      99925    2    3    3    0    0  0.81488465577E+02 -0.71104816124E+02  0.17282623339E+03  0.33285530141E+03  0.26311115491E+03 0.  0.
         25    1    4    4    0    0  0.11053075936E+02 -0.41959916491E+02  0.11498968042E+03  0.17536516125E+03  0.12509000000E+03 0.  0.
         25    1    3    3    0    0 -0.81488465577E+02  0.71104816124E+02  0.12514358518E+03  0.20737572160E+03  0.12509000000E+03 0.  0.
         25    1    4    4    0    0  0.70435389641E+02 -0.29144899632E+02  0.57836552971E+02  0.15749014016E+03  0.12509000000E+03 0.  0.
<mgrwt>
<rscale>  2 0.45062573E+03</rscale>
<asrwt>0</asrwt>
<pdfrwt beam="1">  1       21 0.61632414E-01 0.45062573E+03</pdfrwt>
<pdfrwt beam="2">  1       21 0.17813324E-01 0.45062573E+03</pdfrwt>
<totfact> 0.64728490E+04</totfact>
</mgrwt>
</event>
<event>
 7    0  0.4725730E-002  0.4488968E+03  0.7546771E-02  0.1028052E+00
         21   -1    0    0  502  501  0.00000000000E+00  0.00000000000E+00  0.10194516997E+03  0.10194516997E+03  0.00000000000E+00 0. -1.
         21   -1    0    0  501  502 -0.00000000000E+00 -0.00000000000E+00 -0.49415864148E+03  0.49415864148E+03  0.00000000000E+00 0. -1.
      99926    2    1    2    0    0  0.00000000000E+00  0.00000000000E+00 -0.39221347151E+03  0.59610381146E+03  0.44889681086E+03 0.  0.
      99925    2    3    3    0    0  0.17665766173E+02  0.25629764334E+02 -0.11177859316E+03  0.28746131081E+03  0.26300301749E+03 0.  0.
         25    1    3    3    0    0 -0.17665766173E+02 -0.25629764334E+02 -0.28043487834E+03  0.30864250065E+03  0.12509000000E+03 0.  0.
         25    1    4    4    0    0 -0.83303374776E+01  0.14657860022E+02 -0.15628560137E+02  0.12718493376E+03  0.12509000000E+03 0.  0.
         25    1    4    4    0    0  0.25996103651E+02  0.10971904312E+02 -0.96150033027E+02  0.16027637705E+03  0.12509000000E+03 0.  0.
<mgrwt>
<rscale>  2 0.44889681E+03</rscale>
<asrwt>0</asrwt>
<pdfrwt beam="1">  1       21 0.14991937E-01 0.44889681E+03</pdfrwt>
<pdfrwt beam="2">  1       21 0.72670388E-01 0.44889681E+03</pdfrwt>
<totfact> 0.61847935E+04</totfact>
</mgrwt>
</event>
<event>
 7    0  0.4725730E-002  0.4553922E+03  0.7546771E-02  0.1026126E+00
         21   -1    0    0  502  501  0.00000000000E+00  0.00000000000E+00  0.48309935277E+03  0.48309935277E+03  0.00000000000E+00 0. -1.
         21   -1    0    0  501  502 -0.00000000000E+00 -0.00000000000E+00 -0.10731854406E+03  0.10731854406E+03  0.00000000000E+00 0. -1.
      99926    2    1    2    0    0  0.00000000000E+00 -0.14210854715E-13  0.37578080871E+03  0.59041789683E+03  0.45539222294E+03 0.  0.
      99925    2    3    3    0    0 -0.87473299309E+02  0.64567172279E+02  0.28047320503E+03  0.39923331261E+03  0.26249099285E+03 0.  0.
         25    1    4    4    0    0 -0.43481339002E+02  0.69249565092E+02  0.17198953573E+03  0.22784652205E+03  0.12509000000E+03 0.  0.
         25    1    3    3    0    0  0.87473299309E+02 -0.64567172279E+02  0.95307603673E+02  0.19118458423E+03  0.12509000000E+03 0.  0.
         25    1    4    4    0    0 -0.43991960307E+02 -0.46823928129E+01  0.10848366930E+03  0.17138679056E+03  0.12509000000E+03 0.  0.
<mgrwt>
<rscale>  2 0.45539222E+03</rscale>
<asrwt>0</asrwt>
<pdfrwt beam="1">  1       21 0.71044022E-01 0.45539222E+03</pdfrwt>
<pdfrwt beam="2">  1       21 0.15782139E-01 0.45539222E+03</pdfrwt>
<totfact> 0.59088597E+04</totfact>
</mgrwt>
</event>
<event>
 7    0  0.4725730E-002  0.4617148E+03  0.7546771E-02  0.1024285E+00
         21   -1    0    0  502  501  0.00000000000E+00  0.00000000000E+00  0.73048406688E+02  0.73048406688E+02  0.00000000000E+00 0. -1.
         21   -1    0    0  501  502 -0.00000000000E+00 -0.00000000000E+00 -0.72958646311E+03  0.72958646311E+03  0.00000000000E+00 0. -1.
      99926    2    1    2    0    0  0.00000000000E+00  0.00000000000E+00 -0.65653805642E+03  0.80263486980E+03  0.46171475467E+03 0.  0.
      99925    2    3    3    0    0  0.20283650513E+02 -0.68489906763E+02 -0.24463907948E+03  0.36627427452E+03  0.26307084817E+03 0.  0.
         25    1    3    3    0    0 -0.20283650513E+02  0.68489906763E+02 -0.41189897694E+03  0.43636059528E+03  0.12509000000E+03 0.  0.
         25    1    4    4    0    0  0.10840129990E+01 -0.23516800176E+02 -0.67809471470E+02  0.14422152230E+03  0.12509000000E+03 0.  0.
         25    1    4    4    0    0  0.19199637514E+02 -0.44973106587E+02 -0.17682960801E+03  0.22205275221E+03  0.12509000000E+03 0.  0.
<mgrwt>
<rscale>  2 0.46171475E+03</rscale>
<asrwt>0</asrwt>
<pdfrwt beam="1">  1       21 0.10742413E-01 0.46171475E+03</pdfrwt>
<pdfrwt beam="2">  1       21 0.10729213E+00 0.46171475E+03</pdfrwt>
<totfact> 0.45207909E+04</totfact>
</mgrwt>
</event>
<event>
 7    0  0.4725730E-002  0.4472834E+03  0.7546771E-02  0.1028535E+00
         21   -1    0    0  502  501  0.00000000000E+00  0.00000000000E+00  0.57838920105E+02  0.57838920105E+02  0.00000000000E+00 0.  1.
         21   -1    0    0  501  502 -0.00000000000E+00 -0.00000000000E+00 -0.86473974785E+03  0.86473974785E+03  0.00000000000E+00 0.  1.
      99926    2    1    2    0    0  0.00000000000E+00  0.00000000000E+00 -0.80690082774E+03  0.92257866795E+03  0.44728341435E+03 0.  0.
      99925    2    3    3    0    0 -0.76437594588E+02 -0.34474721868E+02 -0.64531877258E+03  0.70169978493E+03  0.26251677588E+03 0.  0.
         25    1    3    3    0    0  0.76437594588E+02  0.34474721868E+02 -0.16158205517E+03  0.22087888303E+03  0.12509000000E+03 0.  0.
         25    1    4    4    0    0 -0.35434853885E+02 -0.52287033657E+01 -0.41377057126E+03  0.43374711751E+03  0.12509000000E+03 0.  0.
         25    1    4    4    0    0 -0.41002740703E+02 -0.29246018502E+02 -0.23154820132E+03  0.26795266742E+03  0.12509000000E+03 0.  0.
<mgrwt>
<rscale>  2 0.44728341E+03</rscale>
<asrwt>0</asrwt>
<pdfrwt beam="1">  1       21 0.85057241E-02 0.44728341E+03</pdfrwt>
<pdfrwt beam="2">  1       21 0.12716760E+00 0.44728341E+03</pdfrwt>
<totfact> 0.44922475E+04</totfact>
</mgrwt>
</event>
<event>
 7    0  0.4725730E-002  0.4362674E+03  0.7546771E-02  0.1031898E+00
         21   -1    0    0  502  501  0.00000000000E+00  0.00000000000E+00  0.95215585030E+03  0.95215585030E+03  0.00000000000E+00 0.  1.
         21   -1    0    0  501  502 -0.00000000000E+00 -0.00000000000E+00 -0.49973247786E+02  0.49973247786E+02  0.00000000000E+00 0.  1.
      99926    2    1    2    0    0  0.00000000000E+00  0.00000000000E+00  0.90218260251E+03  0.10021290981E+04  0.43626744200E+03 0.  0.
      99925    2    3    3    0    0  0.61518930242E+02 -0.71795433783E+02  0.57467139486E+03  0.63901718375E+03  0.26297639813E+03 0.  0.
         25    1    4    4    0    0  0.39106599533E+02 -0.14127288796E+02  0.35586880990E+03  0.37949838521E+03  0.12509000000E+03 0.  0.
         25    1    4    4    0    0  0.22412330709E+02 -0.57668144987E+02  0.21880258496E+03  0.25951879855E+03  0.12509000000E+03 0.  0.
         25    1    3    3    0    0 -0.61518930242E+02  0.71795433783E+02  0.32751120765E+03  0.36311191433E+03  0.12509000000E+03 0.  0.
<mgrwt>
<rscale>  2 0.43626744E+03</rscale>
<asrwt>0</asrwt>
<pdfrwt beam="1">  1       21 0.14002291E+00 0.43626744E+03</pdfrwt>
<pdfrwt beam="2">  1       21 0.73490076E-02 0.43626744E+03</pdfrwt>
<totfact> 0.45366196E+04</totfact>
</mgrwt>
</event>
<event>
 7    0  0.4725730E-002  0.4542457E+03  0.7546771E-02  0.1026463E+00
         21   -1    0    0  502  501  0.00000000000E+00  0.00000000000E+00  0.22801141086E+03  0.22801141086E+03  0.00000000000E+00 0.  1.
         21   -1    0    0  501  502 -0.00000000000E+00 -0.00000000000E+00 -0.22623780063E+03  0.22623780063E+03  0.00000000000E+00 0.  1.
      99926    2    1    2    0    0  0.00000000000E+00  0.00000000000E+00  0.17736102316E+01  0.45424921149E+03  0.45424574895E+03 0.  0.
      99925    2    3    3    0    0  0.66142453857E+02 -0.90146282282E+02  0.12991169917E+02  0.28609892705E+03  0.26302594768E+03 0.  0.
         25    1    3    3    0    0 -0.66142453857E+02  0.90146282282E+02 -0.11217559686E+02  0.16815028444E+03  0.12509000000E+03 0.  0.
         25    1    4    4    0    0  0.71302667695E+01 -0.56556360571E+02 -0.22780831190E+02  0.13934108150E+03  0.12509000000E+03 0.  0.
         25    1    4    4    0    0  0.59012187088E+02 -0.33589921710E+02  0.35772001107E+02  0.14675784554E+03  0.12509000000E+03 0.  0.
<mgrwt>
<rscale>  2 0.45424575E+03</rscale>
<asrwt>0</asrwt>
<pdfrwt beam="1">  1       21 0.33531090E-01 0.45424575E+03</pdfrwt>
<pdfrwt beam="2">  1       21 0.33270265E-01 0.45424575E+03</pdfrwt>
<totfact> 0.69015236E+04</totfact>
</mgrwt>
</event>
<event>
 7    0  0.4725730E-002  0.4531277E+03  0.7546771E-02  0.1026793E+00
         21   -1    0    0  502  501  0.00000000000E+00  0.00000000000E+00  0.19166102145E+03  0.19166102145E+03  0.00000000000E+00 0. -1.
         21   -1    0    0  501  502 -0.00000000000E+00 -0.00000000000E+00 -0.26782275693E+03  0.26782275693E+03  0.00000000000E+00 0. -1.
      99926    2    1    2    0    0  0.00000000000E+00  0.14210854715E-13 -0.76161735477E+02  0.45948377838E+03  0.45312772222E+03 0.  0.
      99925    2    3    3    0    0 -0.48919000807E+02  0.54162635549E+02 -0.13279357680E+03  0.30398029520E+03  0.26352082670E+03 0.  0.
         25    1    3    3    0    0  0.48919000807E+02 -0.54162635549E+02  0.56631841323E+02  0.15550348318E+03  0.12509000000E+03 0.  0.
         25    1    4    4    0    0 -0.39719088870E+02  0.65630112369E+02 -0.60209864168E+02  0.15861164369E+03  0.12509000000E+03 0.  0.
         25    1    4    4    0    0 -0.91999119375E+01 -0.11467476820E+02 -0.72583712632E+02  0.14536865152E+03  0.12509000000E+03 0.  0.
<mgrwt>
<rscale>  2 0.45312772E+03</rscale>
<asrwt>0</asrwt>
<pdfrwt beam="1">  1       21 0.28185444E-01 0.45312772E+03</pdfrwt>
<pdfrwt beam="2">  1       21 0.39385699E-01 0.45312772E+03</pdfrwt>
<totfact> 0.69246222E+04</totfact>
</mgrwt>
</event>
<event>
 7    0  0.4725730E-002  0.4662546E+03  0.7546771E-02  0.1022983E+00
         21   -1    0    0  502  501  0.00000000000E+00  0.00000000000E+00  0.20260924618E+03  0.20260924618E+03  0.00000000000E+00 0.  1.
         21   -1    0    0  501  502 -0.00000000000E+00 -0.00000000000E+00 -0.26824212051E+03  0.26824212051E+03  0.00000000000E+00 0.  1.
      99926    2    1    2    0    0 -0.14210854715E-13 -0.71054273576E-14 -0.65632874333E+02  0.47085136670E+03  0.46625458210E+03 0.  0.
      99925    2    3    3    0    0 -0.78101269735E+02 -0.44841463046E+02 -0.12609726068E+03  0.30527958390E+03  0.26302954217E+03 0.  0.
         25    1    4    4    0    0 -0.36454391273E+02 -0.24619226699E+02 -0.18449128602E+02  0.13387646325E+03  0.12509000000E+03 0.  0.
         25    1    3    3    0    0  0.78101269735E+02  0.44841463046E+02  0.60464386345E+02  0.16557178280E+03  0.12509000000E+03 0.  0.
         25    1    4    4    0    0 -0.41646878462E+02 -0.20222236347E+02 -0.10764813208E+03  0.17140312065E+03  0.12509000000E+03 0.  0.
<mgrwt>
<rscale>  2 0.46625458E+03</rscale>
<asrwt>0</asrwt>
<pdfrwt beam="1">  1       21 0.29795478E-01 0.46625458E+03</pdfrwt>
<pdfrwt beam="2">  1       21 0.39447370E-01 0.46625458E+03</pdfrwt>
<totfact> 0.61672874E+04</totfact>
</mgrwt>
</event>
<event>
 7    0  0.4725730E-002  0.4549900E+03  0.7546771E-02  0.1026244E+00
         21   -1    0    0  502  501  0.00000000000E+00  0.00000000000E+00  0.37154158956E+03  0.37154158956E+03  0.00000000000E+00 0. -1.
         21   -1    0    0  501  502 -0.00000000000E+00 -0.00000000000E+00 -0.13929525877E+03  0.13929525877E+03  0.00000000000E+00 0. -1.
      99926    2    1    2    0    0  0.00000000000E+00  0.00000000000E+00  0.23224633079E+03  0.51083684833E+03  0.45499003005E+03 0.  0.
      99925    2    3    3    0    0  0.11098761575E+03  0.22054622824E+02  0.14639609933E+03  0.32156871161E+03  0.26300182728E+03 0.  0.
         25    1    4    4    0    0  0.14568824047E+02  0.21665675032E+02  0.55254405216E+02  0.13922000397E+03  0.12509000000E+03 0.  0.
         25    1    3    3    0    0 -0.11098761575E+03 -0.22054622824E+02  0.85850231461E+02  0.18926813672E+03  0.12509000000E+03 0.  0.
         25    1    4    4    0    0  0.96418791699E+02  0.38894779141E+00  0.91141694117E+02  0.18234870764E+03  0.12509000000E+03 0.  0.
<mgrwt>
<rscale>  2 0.45499003E+03</rscale>
<asrwt>0</asrwt>
<pdfrwt beam="1">  1       21 0.54638469E-01 0.45499003E+03</pdfrwt>
<pdfrwt beam="2">  1       21 0.20484597E-01 0.45499003E+03</pdfrwt>
<totfact> 0.64520954E+04</totfact>
</mgrwt>
</event>
<event>
 7    0  0.4725730E-002  0.4426963E+03  0.7546771E-02  0.1029923E+00
         21   -1    0    0  502  501  0.00000000000E+00  0.00000000000E+00  0.74105306181E+03  0.74105306181E+03  0.00000000000E+00 0.  1.
         21   -1    0    0  501  502 -0.00000000000E+00 -0.00000000000E+00 -0.66115378495E+02  0.66115378495E+02  0.00000000000E+00 0.  1.
      99926    2    1    2    0    0  0.00000000000E+00  0.00000000000E+00  0.67493768332E+03  0.80716844031E+03  0.44269630072E+03 0.  0.
      99925    2    3    3    0    0 -0.44664668599E+02 -0.88114457598E+02  0.46956689869E+03  0.54719967769E+03  0.26301202379E+03 0.  0.
         25    1    4    4    0    0 -0.57225352008E+02 -0.28921300364E+02  0.20855295899E+03  0.25150154538E+03  0.12509000000E+03 0.  0.
         25    1    4    4    0    0  0.12560683408E+02 -0.59193157234E+02  0.26101393970E+03  0.29569813231E+03  0.12509000000E+03 0.  0.
         25    1    3    3    0    0  0.44664668599E+02  0.88114457598E+02  0.20537078463E+03  0.25996876262E+03  0.12509000000E+03 0.  0.
<mgrwt>
<rscale>  2 0.44269630E+03</rscale>
<asrwt>0</asrwt>
<pdfrwt beam="1">  1       21 0.10897839E+00 0.44269630E+03</pdfrwt>
<pdfrwt beam="2">  1       21 0.97228502E-02 0.44269630E+03</pdfrwt>
<totfact> 0.52288796E+04</totfact>
</mgrwt>
</event>
<event>
 7    0  0.4725730E-002  0.4555801E+03  0.7546771E-02  0.1026071E+00
         21   -1    0    0  502  501  0.00000000000E+00  0.00000000000E+00  0.22245553574E+03  0.22245553574E+03  0.00000000000E+00 0.  1.
         21   -1    0    0  501  502 -0.00000000000E+00 -0.00000000000E+00 -0.23325246051E+03  0.23325246051E+03  0.00000000000E+00 0.  1.
      99926    2    1    2    0    0 -0.71054273576E-14  0.00000000000E+00 -0.10796924767E+02  0.45570799626E+03  0.45558007448E+03 0.  0.
      99925    2    3    3    0    0  0.43419289023E+02 -0.45101707989E+02  0.88208770287E+02  0.28433403535E+03  0.26295561941E+03 0.  0.
         25    1    4    4    0    0  0.48699100730E+02 -0.20064841291E+02  0.13483892213E+02  0.13639473493E+03  0.12509000000E+03 0.  0.
         25    1    3    3    0    0 -0.43419289023E+02  0.45101707989E+02 -0.99005695054E+02  0.17137396090E+03  0.12509000000E+03 0.  0.
         25    1    4    4    0    0 -0.52798117071E+01 -0.25036866697E+02  0.74724878074E+02  0.14793930042E+03  0.12509000000E+03 0.  0.
<mgrwt>
<rscale>  2 0.45558007E+03</rscale>
<asrwt>0</asrwt>
<pdfrwt beam="1">  1       21 0.32714049E-01 0.45558007E+03</pdfrwt>
<pdfrwt beam="2">  1       21 0.34301832E-01 0.45558007E+03</pdfrwt>
<totfact> 0.68177862E+04</totfact>
</mgrwt>
</event>
<event>
 7    0  0.4725730E-002  0.4742829E+03  0.7546771E-02  0.1020718E+00
         21   -1    0    0  502  501  0.00000000000E+00  0.00000000000E+00  0.45931601953E+03  0.45931601953E+03  0.00000000000E+00 0.  1.
         21   -1    0    0  501  502 -0.00000000000E+00 -0.00000000000E+00 -0.12243435605E+03  0.12243435605E+03  0.00000000000E+00 0.  1.
      99926    2    1    2    0    0  0.00000000000E+00  0.00000000000E+00  0.33688166348E+03  0.58175037558E+03  0.47428287371E+03 0.  0.
      99925    2    3    3    0    0  0.87984045467E+02  0.17737560762E+02  0.92509872756E+02  0.29292362211E+03  0.26304060240E+03 0.  0.
         25    1    4    4    0    0  0.21361652229E+02  0.37995508518E+02  0.25702754024E+02  0.13493746151E+03  0.12509000000E+03 0.  0.
         25    1    3    3    0    0 -0.87984045467E+02 -0.17737560762E+02  0.24437179073E+03  0.28882675347E+03  0.12509000000E+03 0.  0.
         25    1    4    4    0    0  0.66622393237E+02 -0.20257947756E+02  0.66807118732E+02  0.15798616060E+03  0.12509000000E+03 0.  0.
<mgrwt>
<rscale>  2 0.47428287E+03</rscale>
<asrwt>0</asrwt>
<pdfrwt beam="1">  1       21 0.67546473E-01 0.47428287E+03</pdfrwt>
<pdfrwt beam="2">  1       21 0.18005053E-01 0.47428287E+03</pdfrwt>
<totfact> 0.51503525E+04</totfact>
</mgrwt>
</event>
<event>
 7    0  0.4725730E-002  0.4541981E+03  0.7546771E-02  0.1026477E+00
         21   -1    0    0  502  501  0.00000000000E+00  0.00000000000E+00  0.76791093707E+03  0.76791093707E+03  0.00000000000E+00 0. -1.
         21   -1    0    0  501  502 -0.00000000000E+00 -0.00000000000E+00 -0.67161402898E+02  0.67161402898E+02  0.00000000000E+00 0. -1.
      99926    2    1    2    0    0 -0.71054273576E-14  0.00000000000E+00  0.70074953417E+03  0.83507233997E+03  0.45419808822E+03 0.  0.
      99925    2    3    3    0    0  0.38748932229E+02  0.10295638486E+03  0.48411953710E+03  0.56180038630E+03  0.26295712751E+03 0.  0.
         25    1    4    4    0    0  0.46090179143E+02  0.33774242304E+02  0.28642685581E+03  0.31773079153E+03  0.12509000000E+03 0.  0.
         25    1    4    4    0    0 -0.73412469141E+01  0.69182142553E+02  0.19769268129E+03  0.24406959477E+03  0.12509000000E+03 0.  0.
         25    1    3    3    0    0 -0.38748932229E+02 -0.10295638486E+03  0.21662999707E+03  0.27327195367E+03  0.12509000000E+03 0.  0.
<mgrwt>
<rscale>  2 0.45419809E+03</rscale>
<asrwt>0</asrwt>
<pdfrwt beam="1">  1       21 0.11292807E+00 0.45419809E+03</pdfrwt>
<pdfrwt beam="2">  1       21 0.98766773E-02 0.45419809E+03</pdfrwt>
<totfact> 0.46405986E+04</totfact>
</mgrwt>
</event>
<event>
 7    0  0.4725730E-002  0.4662285E+03  0.7546771E-02  0.1022990E+00
         21   -1    0    0  502  501  0.00000000000E+00  0.00000000000E+00  0.99303930719E+02  0.99303930719E+02  0.00000000000E+00 0.  1.
         21   -1    0    0  501  502 -0.00000000000E+00 -0.00000000000E+00 -0.54723171931E+03  0.54723171931E+03  0.00000000000E+00 0.  1.
      99926    2    1    2    0    0  0.88817841970E-15  0.14210854715E-13 -0.44792778859E+03  0.64653565003E+03  0.46622853084E+03 0.  0.
      99925    2    3    3    0    0  0.14678772866E+01  0.11785683472E+03 -0.33000161096E+03  0.43809745865E+03  0.26293712535E+03 0.  0.
         25    1    3    3    0    0 -0.14678772866E+01 -0.11785683472E+03 -0.11792617763E+03  0.20843819138E+03  0.12509000000E+03 0.  0.
         25    1    4    4    0    0  0.18578274959E+02  0.39038733102E+02 -0.20355771357E+03  0.24280120641E+03  0.12509000000E+03 0.  0.
         25    1    4    4    0    0 -0.17110397672E+02  0.78818101618E+02 -0.12644389739E+03  0.19529625224E+03  0.12509000000E+03 0.  0.
<mgrwt>
<rscale>  2 0.46622853E+03</rscale>
<asrwt>0</asrwt>
<pdfrwt beam="1">  1       21 0.14603519E-01 0.46622853E+03</pdfrwt>
<pdfrwt beam="2">  1       21 0.80475254E-01 0.46622853E+03</pdfrwt>
<totfact> 0.51211136E+04</totfact>
</mgrwt>
</event>
<event>
 7    0  0.4725730E-002  0.4519352E+03  0.7546771E-02  0.1027147E+00
         21   -1    0    0  502  501  0.00000000000E+00  0.00000000000E+00  0.10729099825E+03  0.10729099825E+03  0.00000000000E+00 0.  1.
         21   -1    0    0  501  502 -0.00000000000E+00 -0.00000000000E+00 -0.47591453669E+03  0.47591453669E+03  0.00000000000E+00 0.  1.
      99926    2    1    2    0    0  0.00000000000E+00  0.00000000000E+00 -0.36862353843E+03  0.58320553494E+03  0.45193515342E+03 0.  0.
      99925    2    3    3    0    0  0.90469838232E+02  0.32249267338E+02 -0.16332499335E+03  0.32432369397E+03  0.26322233595E+03 0.  0.
         25    1    4    4    0    0  0.11856163055E+02  0.65649428004E+01 -0.46162305222E+02  0.13402288461E+03  0.12509000000E+03 0.  0.
         25    1    3    3    0    0 -0.90469838232E+02 -0.32249267338E+02 -0.20529854508E+03  0.25888184097E+03  0.12509000000E+03 0.  0.
         25    1    4    4    0    0  0.78613675177E+02  0.25684324538E+02 -0.11716268813E+03  0.19030080936E+03  0.12509000000E+03 0.  0.
<mgrwt>
<rscale>  2 0.45193515E+03</rscale>
<asrwt>0</asrwt>
<pdfrwt beam="1">  1       21 0.15778088E-01 0.45193515E+03</pdfrwt>
<pdfrwt beam="2">  1       21 0.69987432E-01 0.45193515E+03</pdfrwt>
<totfact> 0.61193234E+04</totfact>
</mgrwt>
</event>
<event>
 7    0  0.4725730E-002  0.4565969E+03  0.7546771E-02  0.1025773E+00
         21   -1    0    0  502  501  0.00000000000E+00  0.00000000000E+00  0.12286659246E+03  0.12286659246E+03  0.00000000000E+00 0.  1.
         21   -1    0    0  501  502 -0.00000000000E+00 -0.00000000000E+00 -0.42420149657E+03  0.42420149657E+03  0.00000000000E+00 0.  1.
      99926    2    1    2    0    0  0.00000000000E+00  0.00000000000E+00 -0.30133490411E+03  0.54706808903E+03  0.45659694436E+03 0.  0.
      99925    2    3    3    0    0  0.55375955325E+02  0.93617687649E+02 -0.23168598266E+03  0.36726472914E+03  0.26338986093E+03 0.  0.
         25    1    4    4    0    0  0.32638022860E+02  0.63242530834E+02 -0.16995418164E+03  0.22270336818E+03  0.12509000000E+03 0.  0.
         25    1    3    3    0    0 -0.55375955325E+02 -0.93617687649E+02 -0.69648921447E+02  0.17980335989E+03  0.12509000000E+03 0.  0.
         25    1    4    4    0    0  0.22737932466E+02  0.30375156815E+02 -0.61731801018E+02  0.14456136096E+03  0.12509000000E+03 0.  0.
<mgrwt>
<rscale>  2 0.45659694E+03</rscale>
<asrwt>0</asrwt>
<pdfrwt beam="1">  1       21 0.18068617E-01 0.45659694E+03</pdfrwt>
<pdfrwt beam="2">  1       21 0.62382573E-01 0.45659694E+03</pdfrwt>
<totfact> 0.61282634E+04</totfact>
</mgrwt>
</event>
<event>
 7    0  0.4725730E-002  0.4626489E+03  0.7546771E-02  0.1024016E+00
         21   -1    0    0  502  501  0.00000000000E+00  0.00000000000E+00  0.19004663196E+04  0.19004663196E+04  0.00000000000E+00 0. -1.
         21   -1    0    0  501  502 -0.00000000000E+00 -0.00000000000E+00 -0.28156776029E+02  0.28156776029E+02  0.00000000000E+00 0. -1.
      99926    2    1    2    0    0  0.14210854715E-13  0.14210854715E-13  0.18723095436E+04  0.19286230957E+04  0.46264891446E+03 0.  0.
      99925    2    3    3    0    0  0.76369017793E+02  0.64213523456E+02  0.14501721880E+04  0.14771775745E+04  0.26286614142E+03 0.  0.
         25    1    3    3    0    0 -0.76369017793E+02 -0.64213523456E+02  0.42213735559E+03  0.45144552114E+03  0.12509000000E+03 0.  0.
         25    1    4    4    0    0  0.50418611021E+02 -0.63558191163E+01  0.72468198247E+03  0.73715257348E+03  0.12509000000E+03 0.  0.
         25    1    4    4    0    0  0.25950406772E+02  0.70569342572E+02  0.72549020555E+03  0.74002500104E+03  0.12509000000E+03 0.  0.
<mgrwt>
<rscale>  2 0.46264891E+03</rscale>
<asrwt>0</asrwt>
<pdfrwt beam="1">  1       21 0.27948025E+00 0.46264891E+03</pdfrwt>
<pdfrwt beam="2">  1       21 0.41407037E-02 0.46264891E+03</pdfrwt>
<totfact> 0.14057195E+04</totfact>
</mgrwt>
</event>
<event>
 7    0  0.4725730E-002  0.4562068E+03  0.7546771E-02  0.1025887E+00
         21   -1    0    0  502  501  0.00000000000E+00  0.00000000000E+00  0.55504370577E+03  0.55504370577E+03  0.00000000000E+00 0.  1.
         21   -1    0    0  501  502 -0.00000000000E+00 -0.00000000000E+00 -0.93742466473E+02  0.93742466473E+02  0.00000000000E+00 0.  1.
      99926    2    1    2    0    0  0.00000000000E+00  0.00000000000E+00  0.46130123930E+03  0.64878617224E+03  0.45620682143E+03 0.  0.
      99925    2    3    3    0    0  0.10094948288E+03 -0.49485151462E+02  0.31928313699E+03  0.42865841890E+03  0.26299570381E+03 0.  0.
         25    1    3    3    0    0 -0.10094948288E+03  0.49485151462E+02  0.14201810231E+03  0.22012775334E+03  0.12509000000E+03 0.  0.
         25    1    4    4    0    0  0.92945370917E+02 -0.18818284255E+02  0.17435065155E+03  0.23460312784E+03  0.12509000000E+03 0.  0.
         25    1    4    4    0    0  0.80041119609E+01 -0.30666867207E+02  0.14493248544E+03  0.19405529106E+03  0.12509000000E+03 0.  0.
<mgrwt>
<rscale>  2 0.45620682E+03</rscale>
<asrwt>0</asrwt>
<pdfrwt beam="1">  1       21 0.81624073E-01 0.45620682E+03</pdfrwt>
<pdfrwt beam="2">  1       21 0.13785657E-01 0.45620682E+03</pdfrwt>
<totfact> 0.55243614E+04</totfact>
</mgrwt>
</event>
<event>
 7    0  0.4725730E-002  0.4555056E+03  0.7546771E-02  0.1026093E+00
         21   -1    0    0  502  501  0.00000000000E+00  0.00000000000E+00  0.64432895787E+02  0.64432895787E+02  0.00000000000E+00 0. -1.
         21   -1    0    0  501  502 -0.00000000000E+00 -0.00000000000E+00 -0.80504448049E+03  0.80504448049E+03  0.00000000000E+00 0. -1.
      99926    2    1    2    0    0  0.00000000000E+00 -0.35527136788E-14 -0.74061158470E+03  0.86947737628E+03  0.45550564043E+03 0.  0.
      99925    2    3    3    0    0  0.10616994258E+03 -0.29079853904E+02 -0.41217006800E+03  0.50118532830E+03  0.26303017647E+03 0.  0.
         25    1    4    4    0    0  0.10328498469E+02 -0.21688771498E+02 -0.18322680445E+03  0.22315163154E+03  0.12509000000E+03 0.  0.
         25    1    3    3    0    0 -0.10616994258E+03  0.29079853904E+02 -0.32844151670E+03  0.36829204798E+03  0.12509000000E+03 0.  0.
         25    1    4    4    0    0  0.95841444109E+02 -0.73910824064E+01 -0.22894326355E+03  0.27803369676E+03  0.12509000000E+03 0.  0.
<mgrwt>
<rscale>  2 0.45550564E+03</rscale>
<asrwt>0</asrwt>
<pdfrwt beam="1">  1       21 0.94754265E-02 0.45550564E+03</pdfrwt>
<pdfrwt beam="2">  1       21 0.11838889E+00 0.45550564E+03</pdfrwt>
<totfact> 0.44403561E+04</totfact>
</mgrwt>
</event>
<event>
 7    0  0.4725730E-002  0.4611374E+03  0.7546771E-02  0.1024452E+00
         21   -1    0    0  502  501  0.00000000000E+00  0.00000000000E+00  0.22096256111E+03  0.22096256111E+03  0.00000000000E+00 0.  1.
         21   -1    0    0  501  502 -0.00000000000E+00 -0.00000000000E+00 -0.24059248409E+03  0.24059248409E+03  0.00000000000E+00 0.  1.
      99926    2    1    2    0    0  0.00000000000E+00  0.88817841970E-15 -0.19629922978E+02  0.46155504521E+03  0.46113742624E+03 0.  0.
      99925    2    3    3    0    0 -0.74719039792E+02  0.54331226910E+01  0.80040783068E+02  0.28493621418E+03  0.26300126514E+03 0.  0.
         25    1    3    3    0    0  0.74719039792E+02 -0.54331226910E+01 -0.99670706046E+02  0.17661883103E+03  0.12509000000E+03 0.  0.
         25    1    4    4    0    0 -0.98696140279E+01 -0.99167207267E+01  0.84648339308E+01  0.12615431877E+03  0.12509000000E+03 0.  0.
         25    1    4    4    0    0 -0.64849425764E+02  0.15349843418E+02  0.71575949137E+02  0.15878189541E+03  0.12509000000E+03 0.  0.
<mgrwt>
<rscale>  2 0.46113743E+03</rscale>
<asrwt>0</asrwt>
<pdfrwt beam="1">  1       21 0.32494494E-01 0.46113743E+03</pdfrwt>
<pdfrwt beam="2">  1       21 0.35381248E-01 0.46113743E+03</pdfrwt>
<totfact> 0.64834653E+04</totfact>
</mgrwt>
</event>
<event>
 7    0  0.4725730E-002  0.4486946E+03  0.7546771E-02  0.1028112E+00
         21   -1    0    0  502  501  0.00000000000E+00  0.00000000000E+00  0.30961706170E+02  0.30961706170E+02  0.00000000000E+00 0.  1.
         21   -1    0    0  501  502 -0.00000000000E+00 -0.00000000000E+00 -0.16256118063E+04  0.16256118063E+04  0.00000000000E+00 0.  1.
      99926    2    1    2    0    0  0.00000000000E+00  0.00000000000E+00 -0.15946501001E+04  0.16565735125E+04  0.44869461817E+03 0.  0.
      99925    2    3    3    0    0  0.60790040878E+02 -0.30431056413E+02 -0.70383286615E+03  0.75445138619E+03  0.26304887833E+03 0.  0.
         25    1    4    4    0    0  0.27044067814E+02 -0.50297033999E+02 -0.30328924062E+03  0.33300607323E+03  0.12509000000E+03 0.  0.
         25    1    4    4    0    0  0.33745973064E+02  0.19865977585E+02 -0.40054362553E+03  0.42144531296E+03  0.12509000000E+03 0.  0.
         25    1    3    3    0    0 -0.60790040878E+02  0.30431056413E+02 -0.89081723399E+03  0.90212212629E+03  0.12509000000E+03 0.  0.
<mgrwt>
<rscale>  2 0.44869462E+03</rscale>
<asrwt>0</asrwt>
<pdfrwt beam="1">  1       21 0.45531919E-02 0.44869462E+03</pdfrwt>
<pdfrwt beam="2">  1       21 0.23906057E+00 0.44869462E+03</pdfrwt>
<totfact> 0.21200108E+04</totfact>
</mgrwt>
</event>
<event>
 7    0  0.4725730E-002  0.4443906E+03  0.7546771E-02  0.1029408E+00
         21   -1    0    0  502  501  0.00000000000E+00  0.00000000000E+00  0.30765387666E+02  0.30765387666E+02  0.00000000000E+00 0.  1.
         21   -1    0    0  501  502 -0.00000000000E+00 -0.00000000000E+00 -0.16047495340E+04  0.16047495340E+04  0.00000000000E+00 0.  1.
      99926    2    1    2    0    0  0.53290705182E-14  0.00000000000E+00 -0.15739841463E+04  0.16355149216E+04  0.44439055579E+03 0.  0.
      99925    2    3    3    0    0 -0.14415689689E+02  0.55254385560E+02 -0.68646628893E+03  0.73740784869E+03  0.26319861365E+03 0.  0.
         25    1    3    3    0    0  0.14415689689E+02 -0.55254385560E+02 -0.88751785736E+03  0.89810707294E+03  0.12509000000E+03 0.  0.
         25    1    4    4    0    0  0.19400163177E+02  0.22256658937E+02 -0.42075937868E+03  0.43995191560E+03  0.12509000000E+03 0.  0.
         25    1    4    4    0    0 -0.33815852866E+02  0.32997726623E+02 -0.26570691026E+03  0.29745593308E+03  0.12509000000E+03 0.  0.
<mgrwt>
<rscale>  2 0.44439056E+03</rscale>
<asrwt>0</asrwt>
<pdfrwt beam="1">  1       21 0.45243226E-02 0.44439056E+03</pdfrwt>
<pdfrwt beam="2">  1       21 0.23599253E+00 0.44439056E+03</pdfrwt>
<totfact> 0.22430699E+04</totfact>
</mgrwt>
</event>
<event>
 7    0  0.4725730E-002  0.4583335E+03  0.7546771E-02  0.1025266E+00
         21   -1    0    0  502  501  0.00000000000E+00  0.00000000000E+00  0.12398733124E+04  0.12398733124E+04  0.00000000000E+00 0. -1.
         21   -1    0    0  501  502 -0.00000000000E+00 -0.00000000000E+00 -0.42357076724E+02  0.42357076724E+02  0.00000000000E+00 0. -1.
      99926    2    1    2    0    0  0.00000000000E+00  0.00000000000E+00  0.11975162357E+04  0.12822303891E+04  0.45833354240E+03 0.  0.
      99925    2    3    3    0    0 -0.88627763380E+02 -0.75108993673E+02  0.75830987725E+03  0.81101284408E+03  0.26308120793E+03 0.  0.
         25    1    4    4    0    0 -0.97286160675E+01 -0.13256286731E+02  0.29886918674E+03  0.32440819039E+03  0.12509000000E+03 0.  0.
         25    1    3    3    0    0  0.88627763380E+02  0.75108993673E+02  0.43920635844E+03  0.47121754505E+03  0.12509000000E+03 0.  0.
         25    1    4    4    0    0 -0.78899147313E+02 -0.61852706942E+02  0.45944069051E+03  0.48660465369E+03  0.12509000000E+03 0.  0.
<mgrwt>
<rscale>  2 0.45833354E+03</rscale>
<asrwt>0</asrwt>
<pdfrwt beam="1">  1       21 0.18233429E+00 0.45833354E+03</pdfrwt>
<pdfrwt beam="2">  1       21 0.62289827E-02 0.45833354E+03</pdfrwt>
<totfact> 0.28878790E+04</totfact>
</mgrwt>
</event>
<event>
 7    0  0.4725730E-002  0.4605153E+03  0.7546771E-02  0.1024632E+00
         21   -1    0    0  502  501  0.00000000000E+00  0.00000000000E+00  0.13689953523E+03  0.13689953523E+03  0.00000000000E+00 0.  1.
         21   -1    0    0  501  502 -0.00000000000E+00 -0.00000000000E+00 -0.38728097439E+03  0.38728097439E+03  0.00000000000E+00 0.  1.
      99926    2    1    2    0    0  0.00000000000E+00 -0.35527136788E-14 -0.25038143916E+03  0.52418050961E+03  0.46051530005E+03 0.  0.
      99925    2    3    3    0    0 -0.69102442261E+02  0.31091920835E+02 -0.53456577351E+02  0.27888728841E+03  0.26301836230E+03 0.  0.
         25    1    3    3    0    0  0.69102442261E+02 -0.31091920835E+02 -0.19692486181E+03  0.24529322120E+03  0.12509000000E+03 0.  0.
         25    1    4    4    0    0  0.70971977524E+01  0.18756220942E+02 -0.22404613575E+02  0.12865318049E+03  0.12509000000E+03 0.  0.
         25    1    4    4    0    0 -0.76199640014E+02  0.12335699893E+02 -0.31051963776E+02  0.15023410793E+03  0.12509000000E+03 0.  0.
<mgrwt>
<rscale>  2 0.46051530E+03</rscale>
<asrwt>0</asrwt>
<pdfrwt beam="1">  1       21 0.20132285E-01 0.46051530E+03</pdfrwt>
<pdfrwt beam="2">  1       21 0.56953084E-01 0.46051530E+03</pdfrwt>
<totfact> 0.60894851E+04</totfact>
</mgrwt>
</event>
<event>
 7    0  0.4725730E-002  0.4552638E+03  0.7546771E-02  0.1026164E+00
         21   -1    0    0  502  501  0.00000000000E+00  0.00000000000E+00  0.15366448558E+03  0.15366448558E+03  0.00000000000E+00 0.  1.
         21   -1    0    0  501  502 -0.00000000000E+00 -0.00000000000E+00 -0.33720408493E+03  0.33720408493E+03  0.00000000000E+00 0.  1.
      99926    2    1    2    0    0  0.00000000000E+00  0.00000000000E+00 -0.18353959935E+03  0.49086857051E+03  0.45526384547E+03 0.  0.
      99925    2    3    3    0    0 -0.47031822331E+02  0.85541117895E+02 -0.53481200501E+02  0.28570529316E+03  0.26313114710E+03 0.  0.
         25    1    4    4    0    0 -0.25639071201E+02  0.12004032166E+02  0.36327456694E+01  0.12830496367E+03  0.12509000000E+03 0.  0.
         25    1    3    3    0    0  0.47031822331E+02 -0.85541117895E+02 -0.13005839885E+03  0.20516327735E+03  0.12509000000E+03 0.  0.
         25    1    4    4    0    0 -0.21392751130E+02  0.73537085729E+02 -0.57113946170E+02  0.15740032950E+03  0.12509000000E+03 0.  0.
<mgrwt>
<rscale>  2 0.45526385E+03</rscale>
<asrwt>0</asrwt>
<pdfrwt beam="1">  1       21 0.22597719E-01 0.45526385E+03</pdfrwt>
<pdfrwt beam="2">  1       21 0.49588835E-01 0.45526385E+03</pdfrwt>
<totfact> 0.65779163E+04</totfact>
</mgrwt>
</event>
<event>
 7    0  0.4725730E-002  0.4584404E+03  0.7546771E-02  0.1025235E+00
         21   -1    0    0  502  501  0.00000000000E+00  0.00000000000E+00  0.13125326258E+04  0.13125326258E+04  0.00000000000E+00 0. -1.
         21   -1    0    0  501  502 -0.00000000000E+00 -0.00000000000E+00 -0.40030933043E+02  0.40030933043E+02  0.00000000000E+00 0. -1.
      99926    2    1    2    0    0  0.14210854715E-13  0.71054273576E-14  0.12725016927E+04  0.13525635588E+04  0.45844042430E+03 0.  0.
      99925    2    3    3    0    0  0.92529858296E+02  0.40902422692E+02  0.62908930388E+03  0.68934278631E+03  0.26306908203E+03 0.  0.
         25    1    3    3    0    0 -0.92529858296E+02 -0.40902422692E+02  0.64341238883E+03  0.66322077249E+03  0.12509000000E+03 0.  0.
         25    1    4    4    0    0  0.35495055531E+02  0.28617774482E+02  0.21531361900E+03  0.25315279696E+03  0.12509000000E+03 0.  0.
         25    1    4    4    0    0  0.57034802765E+02  0.12284648210E+02  0.41377568488E+03  0.43618998934E+03  0.12509000000E+03 0.  0.
<mgrwt>
<rscale>  2 0.45844042E+03</rscale>
<asrwt>0</asrwt>
<pdfrwt beam="1">  1       21 0.19301948E+00 0.45844042E+03</pdfrwt>
<pdfrwt beam="2">  1       21 0.58869028E-02 0.45844042E+03</pdfrwt>
<totfact> 0.26897430E+04</totfact>
</mgrwt>
</event>
<event>
 7    0  0.4725730E-002  0.4544416E+03  0.7546771E-02  0.1026406E+00
         21   -1    0    0  502  501  0.00000000000E+00  0.00000000000E+00  0.26344220445E+03  0.26344220445E+03  0.00000000000E+00 0.  1.
         21   -1    0    0  501  502 -0.00000000000E+00 -0.00000000000E+00 -0.19597960502E+03  0.19597960502E+03  0.00000000000E+00 0.  1.
      99926    2    1    2    0    0  0.00000000000E+00  0.00000000000E+00  0.67462599435E+02  0.45942180947E+03  0.45444163178E+03 0.  0.
      99925    2    3    3    0    0  0.81517137384E+02 -0.52591434205E+02 -0.15419710707E+02  0.28073804391E+03  0.26299273599E+03 0.  0.
         25    1    4    4    0    0  0.72741945044E+02 -0.48816325075E+02  0.87950870003E+01  0.15296825101E+03  0.12509000000E+03 0.  0.
         25    1    4    4    0    0  0.87751923399E+01 -0.37751091301E+01 -0.24214797707E+02  0.12776979290E+03  0.12509000000E+03 0.  0.
         25    1    3    3    0    0 -0.81517137384E+02  0.52591434205E+02  0.82882310142E+02  0.17868376556E+03  0.12509000000E+03 0.  0.
<mgrwt>
<rscale>  2 0.45444163E+03</rscale>
<asrwt>0</asrwt>
<pdfrwt beam="1">  1       21 0.38741501E-01 0.45444163E+03</pdfrwt>
<pdfrwt beam="2">  1       21 0.28820530E-01 0.45444163E+03</pdfrwt>
<totfact> 0.68527359E+04</totfact>
</mgrwt>
</event>
<event>
 7    0  0.4725730E-002  0.4580890E+03  0.7546771E-02  0.1025337E+00
         21   -1    0    0  502  501  0.00000000000E+00  0.00000000000E+00  0.15263159332E+04  0.15263159332E+04  0.00000000000E+00 0. -1.
         21   -1    0    0  501  502 -0.00000000000E+00 -0.00000000000E+00 -0.34371248870E+02  0.34371248870E+02  0.00000000000E+00 0. -1.
      99926    2    1    2    0    0  0.00000000000E+00 -0.71054273576E-14  0.14919446844E+04  0.15606871821E+04  0.45808900792E+03 0.  0.
      99925    2    3    3    0    0  0.11132593836E+03 -0.32062459080E+02  0.91112253301E+03  0.95535806052E+03  0.26295111296E+03 0.  0.
         25    1    4    4    0    0  0.61046301107E+02 -0.54794781156E+02  0.43546598960E+03  0.46044245581E+03  0.12509000000E+03 0.  0.
         25    1    4    4    0    0  0.50279637251E+02  0.22732322076E+02  0.47565654342E+03  0.49491560471E+03  0.12509000000E+03 0.  0.
         25    1    3    3    0    0 -0.11132593836E+03  0.32062459080E+02  0.58082215135E+03  0.60532912158E+03  0.12509000000E+03 0.  0.
<mgrwt>
<rscale>  2 0.45808901E+03</rscale>
<asrwt>0</asrwt>
<pdfrwt beam="1">  1       21 0.22445818E+00 0.45808901E+03</pdfrwt>
<pdfrwt beam="2">  1       21 0.50545964E-02 0.45808901E+03</pdfrwt>
<totfact> 0.21802493E+04</totfact>
</mgrwt>
</event>
<event>
 7    0  0.4725730E-002  0.4564999E+03  0.7546771E-02  0.1025801E+00
         21   -1    0    0  502  501  0.00000000000E+00  0.00000000000E+00  0.78400053544E+03  0.78400053544E+03  0.00000000000E+00 0.  1.
         21   -1    0    0  501  502 -0.00000000000E+00 -0.00000000000E+00 -0.66451544951E+02  0.66451544951E+02  0.00000000000E+00 0.  1.
      99926    2    1    2    0    0  0.00000000000E+00  0.00000000000E+00  0.71754899049E+03  0.85045208039E+03  0.45649993131E+03 0.  0.
      99925    2    3    3    0    0  0.10138636970E+03 -0.49002159296E+02  0.41210751454E+03  0.50170803254E+03  0.26305501098E+03 0.  0.
         25    1    4    4    0    0  0.47836205977E+02 -0.40990294450E+02  0.27368310232E+03  0.30743853928E+03  0.12509000000E+03 0.  0.
         25    1    3    3    0    0 -0.10138636970E+03  0.49002159296E+02  0.30544147595E+03  0.34874404785E+03  0.12509000000E+03 0.  0.
         25    1    4    4    0    0  0.53550163727E+02 -0.80118648456E+01  0.13842441222E+03  0.19426949326E+03  0.12509000000E+03 0.  0.
<mgrwt>
<rscale>  2 0.45649993E+03</rscale>
<asrwt>0</asrwt>
<pdfrwt beam="1">  1       21 0.11529419E+00 0.45649993E+03</pdfrwt>
<pdfrwt beam="2">  1       21 0.97722865E-02 0.45649993E+03</pdfrwt>
<totfact> 0.44888654E+04</totfact>
</mgrwt>
</event>
<event>
 7    0  0.4725730E-002  0.4460365E+03  0.7546771E-02  0.1028911E+00
         21   -1    0    0  502  501  0.00000000000E+00  0.00000000000E+00  0.24441308658E+03  0.24441308658E+03  0.00000000000E+00 0.  1.
         21   -1    0    0  501  502 -0.00000000000E+00 -0.00000000000E+00 -0.20349619892E+03  0.20349619892E+03  0.00000000000E+00 0.  1.
      99926    2    1    2    0    0  0.00000000000E+00  0.71054273576E-14  0.40916887665E+02  0.44790928550E+03  0.44603647423E+03 0.  0.
      99925    2    3    3    0    0 -0.60771535187E+02 -0.57338340232E+02  0.88979071557E+02  0.28999048874E+03  0.26305197896E+03 0.  0.
         25    1    4    4    0    0 -0.27063748532E+02 -0.23793127814E+02  0.16405159588E+01  0.13018739881E+03  0.12509000000E+03 0.  0.
         25    1    3    3    0    0  0.60771535187E+02  0.57338340232E+02 -0.48062183892E+02  0.15791879676E+03  0.12509000000E+03 0.  0.
         25    1    4    4    0    0 -0.33707786655E+02 -0.33545212418E+02  0.87338555598E+02  0.15980308993E+03  0.12509000000E+03 0.  0.
<mgrwt>
<rscale>  2 0.44603647E+03</rscale>
<asrwt>0</asrwt>
<pdfrwt beam="1">  1       21 0.35943101E-01 0.44603647E+03</pdfrwt>
<pdfrwt beam="2">  1       21 0.29925912E-01 0.44603647E+03</pdfrwt>
<totfact> 0.74237236E+04</totfact>
</mgrwt>
</event>
<event>
 7    0  0.4725730E-002  0.4563356E+03  0.7546771E-02  0.1025849E+00
         21   -1    0    0  502  501  0.00000000000E+00  0.00000000000E+00  0.99063570549E+02  0.99063570549E+02  0.00000000000E+00 0.  1.
         21   -1    0    0  501  502 -0.00000000000E+00 -0.00000000000E+00 -0.52552654034E+03  0.52552654034E+03  0.00000000000E+00 0.  1.
      99926    2    1    2    0    0 -0.17763568394E-14  0.14210854715E-13 -0.42646296979E+03  0.62459011089E+03  0.45633555857E+03 0.  0.
      99925    2    3    3    0    0 -0.13943090224E+02 -0.11249027316E+03 -0.24860318600E+03  0.37937575138E+03  0.26319944020E+03 0.  0.
         25    1    3    3    0    0  0.13943090224E+02  0.11249027316E+03 -0.17785978379E+03  0.24521435951E+03  0.12509000000E+03 0.  0.
         25    1    4    4    0    0 -0.41697831651E+02 -0.39668466007E+02 -0.13946535511E+03  0.19598568758E+03  0.12509000000E+03 0.  0.
         25    1    4    4    0    0  0.27754741428E+02 -0.72821807153E+02 -0.10913783090E+03  0.18339006380E+03  0.12509000000E+03 0.  0.
<mgrwt>
<rscale>  2 0.45633556E+03</rscale>
<asrwt>0</asrwt>
<pdfrwt beam="1">  1       21 0.14568172E-01 0.45633556E+03</pdfrwt>
<pdfrwt beam="2">  1       21 0.77283315E-01 0.45633556E+03</pdfrwt>
<totfact> 0.56590542E+04</totfact>
</mgrwt>
</event>
<event>
 7    0  0.4725730E-002  0.4584471E+03  0.7546771E-02  0.1025233E+00
         21   -1    0    0  502  501  0.00000000000E+00  0.00000000000E+00  0.16791591507E+03  0.16791591507E+03  0.00000000000E+00 0.  1.
         21   -1    0    0  501  502 -0.00000000000E+00 -0.00000000000E+00 -0.31291521152E+03  0.31291521152E+03  0.00000000000E+00 0.  1.
      99926    2    1    2    0    0  0.14210854715E-13 -0.35527136788E-14 -0.14499929645E+03  0.48083112659E+03  0.45844713580E+03 0.  0.
      99925    2    3    3    0    0 -0.73396520860E+02 -0.27512179906E+02 -0.18172396761E+03  0.32871216364E+03  0.26245783815E+03 0.  0.
         25    1    3    3    0    0  0.73396520860E+02  0.27512179906E+02  0.36724671154E+02  0.15211896295E+03  0.12509000000E+03 0.  0.
         25    1    4    4    0    0 -0.55824439343E+01  0.11918690831E+02 -0.93317260755E+02  0.15661685135E+03  0.12509000000E+03 0.  0.
         25    1    4    4    0    0 -0.67814076926E+02 -0.39430870737E+02 -0.88406706853E+02  0.17209531229E+03  0.12509000000E+03 0.  0.
<mgrwt>
<rscale>  2 0.45844714E+03</rscale>
<asrwt>0</asrwt>
<pdfrwt beam="1">  1       21 0.24693517E-01 0.45844714E+03</pdfrwt>
<pdfrwt beam="2">  1       21 0.46016942E-01 0.45844714E+03</pdfrwt>
<totfact> 0.64847161E+04</totfact>
</mgrwt>
</event>
<event>
 7    0  0.4725730E-002  0.4548536E+03  0.7546771E-02  0.1026284E+00
         21   -1    0    0  502  501  0.00000000000E+00  0.00000000000E+00  0.42376637333E+02  0.42376637333E+02  0.00000000000E+00 0.  1.
         21   -1    0    0  501  502 -0.00000000000E+00 -0.00000000000E+00 -0.12205532088E+04  0.12205532088E+04  0.00000000000E+00 0.  1.
      99926    2    1    2    0    0  0.00000000000E+00 -0.14210854715E-13 -0.11781765714E+04  0.12629298461E+04  0.45485356181E+03 0.  0.
      99925    2    3    3    0    0 -0.22989331243E+02  0.93061211344E+02 -0.90677764356E+03  0.94909265175E+03  0.26332920144E+03 0.  0.
         25    1    4    4    0    0 -0.87160375388E+01  0.87826974315E+02 -0.53943799091E+03  0.56074093917E+03  0.12509000000E+03 0.  0.
         25    1    4    4    0    0 -0.14273293704E+02  0.52342370286E+01 -0.36733965265E+03  0.38835171257E+03  0.12509000000E+03 0.  0.
         25    1    3    3    0    0  0.22989331243E+02 -0.93061211344E+02 -0.27139892788E+03  0.31383719435E+03  0.12509000000E+03 0.  0.
<mgrwt>
<rscale>  2 0.45485356E+03</rscale>
<asrwt>0</asrwt>
<pdfrwt beam="1">  1       21 0.62318584E-02 0.45485356E+03</pdfrwt>
<pdfrwt beam="2">  1       21 0.17949312E+00 0.45485356E+03</pdfrwt>
<totfact> 0.30245030E+04</totfact>
</mgrwt>
</event>
<event>
 7    0  0.4725730E-002  0.4437490E+03  0.7546771E-02  0.1029603E+00
         21   -1    0    0  502  501  0.00000000000E+00  0.00000000000E+00  0.81650737412E+02  0.81650737412E+02  0.00000000000E+00 0.  1.
         21   -1    0    0  501  502 -0.00000000000E+00 -0.00000000000E+00 -0.60291295029E+03  0.60291295029E+03  0.00000000000E+00 0.  1.
      99926    2    1    2    0    0  0.00000000000E+00 -0.14210854715E-13 -0.52126221288E+03  0.68456368770E+03  0.44374896952E+03 0.  0.
      99925    2    3    3    0    0  0.74483973228E+02  0.68684138772E+02 -0.31088958399E+03  0.41966837957E+03  0.26306623156E+03 0.  0.
         25    1    4    4    0    0  0.73376012183E+02  0.30910190021E+02 -0.19526490328E+03  0.24518435832E+03  0.12509000000E+03 0.  0.
         25    1    4    4    0    0  0.11079610447E+01  0.37773948751E+02 -0.11562468071E+03  0.17448402125E+03  0.12509000000E+03 0.  0.
         25    1    3    3    0    0 -0.74483973228E+02 -0.68684138772E+02 -0.21037262889E+03  0.26489530814E+03  0.12509000000E+03 0.  0.
<mgrwt>
<rscale>  2 0.44374897E+03</rscale>
<asrwt>0</asrwt>
<pdfrwt beam="1">  1       21 0.12007461E-01 0.44374897E+03</pdfrwt>
<pdfrwt beam="2">  1       21 0.88663670E-01 0.44374897E+03</pdfrwt>
<totfact> 0.58786012E+04</totfact>
</mgrwt>
</event>
<event>
 7    0  0.4725730E-002  0.4511432E+03  0.7546771E-02  0.1027382E+00
         21   -1    0    0  502  501  0.00000000000E+00  0.00000000000E+00  0.32135335034E+03  0.32135335034E+03  0.00000000000E+00 0.  1.
         21   -1    0    0  501  502 -0.00000000000E+00 -0.00000000000E+00 -0.15833827761E+03  0.15833827761E+03  0.00000000000E+00 0.  1.
      99926    2    1    2    0    0  0.00000000000E+00  0.35527136788E-14  0.16301507274E+03  0.47969162795E+03  0.45114315243E+03 0.  0.
      99925    2    3    3    0    0 -0.94133578433E+02 -0.23204078410E+02  0.15681499030E+03  0.32130757267E+03  0.26315025220E+03 0.  0.
         25    1    4    4    0    0 -0.64501597664E+02 -0.31444388833E+02  0.11924255267E+03  0.18712429067E+03  0.12509000000E+03 0.  0.
         25    1    3    3    0    0  0.94133578433E+02  0.23204078410E+02  0.62000824368E+01  0.15838405528E+03  0.12509000000E+03 0.  0.
         25    1    4    4    0    0 -0.29631980769E+02  0.82403104222E+01  0.37572437627E+02  0.13418328200E+03  0.12509000000E+03 0.  0.
<mgrwt>
<rscale>  2 0.45114315E+03</rscale>
<asrwt>0</asrwt>
<pdfrwt beam="1">  1       21 0.47257846E-01 0.45114315E+03</pdfrwt>
<pdfrwt beam="2">  1       21 0.23285041E-01 0.45114315E+03</pdfrwt>
<totfact> 0.68805023E+04</totfact>
</mgrwt>
</event>
<event>
 7    0  0.4725730E-002  0.4515340E+03  0.7546771E-02  0.1027266E+00
         21   -1    0    0  502  501  0.00000000000E+00  0.00000000000E+00  0.20795202772E+03  0.20795202772E+03  0.00000000000E+00 0.  1.
         21   -1    0    0  501  502 -0.00000000000E+00 -0.00000000000E+00 -0.24510819476E+03  0.24510819476E+03  0.00000000000E+00 0.  1.
      99926    2    1    2    0    0  0.00000000000E+00  0.00000000000E+00 -0.37156167038E+02  0.45306022248E+03  0.45153403464E+03 0.  0.
      99925    2    3    3    0    0 -0.88123214798E+02  0.34758276209E+02 -0.79281706549E+02  0.29059204734E+03  0.26302910530E+03 0.  0.
         25    1    4    4    0    0 -0.16436578926E+02  0.10246428047E+01 -0.84469321892E+01  0.12645184769E+03  0.12509000000E+03 0.  0.
         25    1    3    3    0    0  0.88123214798E+02 -0.34758276209E+02  0.42125539511E+02  0.16246817513E+03  0.12509000000E+03 0.  0.
         25    1    4    4    0    0 -0.71686635872E+02  0.33733633405E+02 -0.70834774360E+02  0.16414019966E+03  0.12509000000E+03 0.  0.
<mgrwt>
<rscale>  2 0.45153403E+03</rscale>
<asrwt>0</asrwt>
<pdfrwt beam="1">  1       21 0.30581180E-01 0.45153403E+03</pdfrwt>
<pdfrwt beam="2">  1       21 0.36045323E-01 0.45153403E+03</pdfrwt>
<totfact> 0.70620992E+04</totfact>
</mgrwt>
</event>
<event>
 7    0  0.4725730E-002  0.4504925E+03  0.7546771E-02  0.1027575E+00
         21   -1    0    0  502  501  0.00000000000E+00  0.00000000000E+00  0.61320957524E+03  0.61320957524E+03  0.00000000000E+00 0.  1.
         21   -1    0    0  501  502 -0.00000000000E+00 -0.00000000000E+00 -0.82738231180E+02  0.82738231180E+02  0.00000000000E+00 0.  1.
      99926    2    1    2    0    0 -0.14210854715E-13  0.00000000000E+00  0.53047134406E+03  0.69594780642E+03  0.45049251091E+03 0.  0.
      99925    2    3    3    0    0  0.94173013364E+02 -0.26057126843E+02  0.26105303998E+03  0.38324785282E+03  0.26302603807E+03 0.  0.
         25    1    4    4    0    0  0.85727687954E+02 -0.10902801994E+02  0.16659746489E+03  0.22554452106E+03  0.12509000000E+03 0.  0.
         25    1    4    4    0    0  0.84453254099E+01 -0.15154324850E+02  0.94455575088E+02  0.15770333176E+03  0.12509000000E+03 0.  0.
         25    1    3    3    0    0 -0.94173013364E+02  0.26057126843E+02  0.26941830408E+03  0.31269995359E+03  0.12509000000E+03 0.  0.
<mgrwt>
<rscale>  2 0.45049251E+03</rscale>
<asrwt>0</asrwt>
<pdfrwt beam="1">  1       21 0.90177876E-01 0.45049251E+03</pdfrwt>
<pdfrwt beam="2">  1       21 0.12167387E-01 0.45049251E+03</pdfrwt>
<totfact> 0.55050706E+04</totfact>
</mgrwt>
</event>
<event>
 7    0  0.4725730E-002  0.4517739E+03  0.7546771E-02  0.1027194E+00
         21   -1    0    0  502  501  0.00000000000E+00  0.00000000000E+00  0.38796287534E+03  0.38796287534E+03  0.00000000000E+00 0. -1.
         21   -1    0    0  501  502 -0.00000000000E+00 -0.00000000000E+00 -0.13152010841E+03  0.13152010841E+03  0.00000000000E+00 0. -1.
      99926    2    1    2    0    0  0.00000000000E+00  0.00000000000E+00  0.25644276693E+03  0.51948298375E+03  0.45177392321E+03 0.  0.
      99925    2    3    3    0    0  0.50185348282E+01 -0.45385235457E+02  0.46635747435E+02  0.27098449518E+03  0.26300703109E+03 0.  0.
         25    1    4    4    0    0  0.49844283932E+01 -0.27947117477E+02  0.64250193666E+02  0.14346247380E+03  0.12509000000E+03 0.  0.
         25    1    4    4    0    0  0.34106434951E-01 -0.17438117980E+02 -0.17614446231E+02  0.12752202138E+03  0.12509000000E+03 0.  0.
         25    1    3    3    0    0 -0.50185348282E+01  0.45385235457E+02  0.20980701950E+03  0.24849848857E+03  0.12509000000E+03 0.  0.
<mgrwt>
<rscale>  2 0.45177392E+03</rscale>
<asrwt>0</asrwt>
<pdfrwt beam="1">  1       21 0.57053364E-01 0.45177392E+03</pdfrwt>
<pdfrwt beam="2">  1       21 0.19341192E-01 0.45177392E+03</pdfrwt>
<totfact> 0.65585056E+04</totfact>
</mgrwt>
</event>
<event>
 7    0  0.4725730E-002  0.4550338E+03  0.7546771E-02  0.1026231E+00
         21   -1    0    0  502  501  0.00000000000E+00  0.00000000000E+00  0.80982376767E+03  0.80982376767E+03  0.00000000000E+00 0.  1.
         21   -1    0    0  501  502 -0.00000000000E+00 -0.00000000000E+00 -0.63920001185E+02  0.63920001185E+02  0.00000000000E+00 0.  1.
      99926    2    1    2    0    0  0.00000000000E+00 -0.71054273576E-14  0.74590376648E+03  0.87374376886E+03  0.45503378419E+03 0.  0.
      99925    2    3    3    0    0  0.96882557752E+02 -0.38290125051E+02  0.55444637246E+03  0.62243558057E+03  0.26298841866E+03 0.  0.
         25    1    3    3    0    0 -0.96882557752E+02  0.38290125051E+02  0.19145739403E+03  0.25130818829E+03  0.12509000000E+03 0.  0.
         25    1    4    4    0    0  0.90866146174E+02 -0.13990285628E+02  0.29806547687E+03  0.33606981598E+03  0.12509000000E+03 0.  0.
         25    1    4    4    0    0  0.60164115778E+01 -0.24299839423E+02  0.25638089558E+03  0.28636576458E+03  0.12509000000E+03 0.  0.
<mgrwt>
<rscale>  2 0.45503378E+03</rscale>
<asrwt>0</asrwt>
<pdfrwt beam="1">  1       21 0.11909172E+00 0.45503378E+03</pdfrwt>
<pdfrwt beam="2">  1       21 0.94000006E-02 0.45503378E+03</pdfrwt>
<totfact> 0.44376673E+04</totfact>
</mgrwt>
</event>
<event>
 7    0  0.4725730E-002  0.4495169E+03  0.7546771E-02  0.1027866E+00
         21   -1    0    0  502  501  0.00000000000E+00  0.00000000000E+00  0.44380677936E+02  0.44380677936E+02  0.00000000000E+00 0. -1.
         21   -1    0    0  501  502 -0.00000000000E+00 -0.00000000000E+00 -0.11382512343E+04  0.11382512343E+04  0.00000000000E+00 0. -1.
      99926    2    1    2    0    0 -0.71054273576E-14 -0.71054273576E-14 -0.10938705564E+04  0.11826319122E+04  0.44951690264E+03 0.  0.
      99925    2    3    3    0    0  0.54346142064E+02  0.50954981942E+02 -0.89727923543E+03  0.93799837221E+03  0.26302282520E+03 0.  0.
         25    1    4    4    0    0  0.14229941419E+02  0.64116640214E+02 -0.47393301923E+03  0.49454367816E+03  0.12509000000E+03 0.  0.
         25    1    3    3    0    0 -0.54346142064E+02 -0.50954981942E+02 -0.19659132092E+03  0.24463354002E+03  0.12509000000E+03 0.  0.
         25    1    4    4    0    0  0.40116200645E+02 -0.13161658271E+02 -0.42334621620E+03  0.44345469405E+03  0.12509000000E+03 0.  0.
<mgrwt>
<rscale>  2 0.44951690E+03</rscale>
<asrwt>0</asrwt>
<pdfrwt beam="1">  1       21 0.65265716E-02 0.44951690E+03</pdfrwt>
<pdfrwt beam="2">  1       21 0.16738985E+00 0.44951690E+03</pdfrwt>
<totfact> 0.34146927E+04</totfact>
</mgrwt>
</event>
<event>
 7    0  0.4725730E-002  0.4166289E+03  0.7546771E-02  0.1038169E+00
         21   -1    0    0  502  501  0.00000000000E+00  0.00000000000E+00  0.27706993625E+03  0.27706993625E+03  0.00000000000E+00 0.  1.
         21   -1    0    0  501  502 -0.00000000000E+00 -0.00000000000E+00 -0.15662077846E+03  0.15662077846E+03  0.00000000000E+00 0.  1.
      99926    2    1    2    0    0  0.00000000000E+00 -0.88817841970E-15  0.12044915779E+03  0.43369071471E+03  0.41662889532E+03 0.  0.
      99925    2    3    3    0    0 -0.70927361538E+02  0.56751663338E+01  0.83030917735E+02  0.28499461215E+03  0.26318225155E+03 0.  0.
         25    1    3    3    0    0  0.70927361538E+02 -0.56751663338E+01  0.37418240053E+02  0.14869610256E+03  0.12509000000E+03 0.  0.
         25    1    4    4    0    0 -0.59867511983E+02 -0.30094659978E+02  0.38483045289E+02  0.14703149467E+03  0.12509000000E+03 0.  0.
         25    1    4    4    0    0 -0.11059849555E+02  0.35769826312E+02  0.44547872447E+02  0.13796311748E+03  0.12509000000E+03 0.  0.
<mgrwt>
<rscale>  2 0.41662890E+03</rscale>
<asrwt>0</asrwt>
<pdfrwt beam="1">  1       21 0.40745579E-01 0.41662890E+03</pdfrwt>
<pdfrwt beam="2">  1       21 0.23032467E-01 0.41662890E+03</pdfrwt>
<totfact> 0.96400770E+04</totfact>
</mgrwt>
</event>
<event>
 7    0  0.4725730E-002  0.4597947E+03  0.7546771E-02  0.1024841E+00
         21   -1    0    0  502  501  0.00000000000E+00  0.00000000000E+00  0.62667542174E+03  0.62667542174E+03  0.00000000000E+00 0. -1.
         21   -1    0    0  501  502 -0.00000000000E+00 -0.00000000000E+00 -0.84338393427E+02  0.84338393427E+02  0.00000000000E+00 0. -1.
      99926    2    1    2    0    0  0.00000000000E+00  0.00000000000E+00  0.54233702832E+03  0.71101381517E+03  0.45979472929E+03 0.  0.
      99925    2    3    3    0    0  0.41751922082E+02  0.80079212418E+02  0.22358781292E+03  0.35688887440E+03  0.26310122639E+03 0.  0.
         25    1    4    4    0    0  0.34952551731E+02  0.19937748493E+02  0.66886338466E+02  0.14744654984E+03  0.12509000000E+03 0.  0.
         25    1    3    3    0    0 -0.41751922082E+02 -0.80079212418E+02  0.31874921539E+03  0.35412494077E+03  0.12509000000E+03 0.  0.
         25    1    4    4    0    0  0.67993703507E+01  0.60141463925E+02  0.15670147446E+03  0.20944232456E+03  0.12509000000E+03 0.  0.
<mgrwt>
<rscale>  2 0.45979473E+03</rscale>
<asrwt>0</asrwt>
<pdfrwt beam="1">  1       21 0.92158148E-01 0.45979473E+03</pdfrwt>
<pdfrwt beam="2">  1       21 0.12402705E-01 0.45979473E+03</pdfrwt>
<totfact> 0.50381469E+04</totfact>
</mgrwt>
</event>
<event>
 7    0  0.4725730E-002  0.4479352E+03  0.7546771E-02  0.1028340E+00
         21   -1    0    0  502  501  0.00000000000E+00  0.00000000000E+00  0.94239021312E+02  0.94239021312E+02  0.00000000000E+00 0. -1.
         21   -1    0    0  501  502 -0.00000000000E+00 -0.00000000000E+00 -0.53227934829E+03  0.53227934829E+03  0.00000000000E+00 0. -1.
      99926    2    1    2    0    0  0.00000000000E+00 -0.71054273576E-14 -0.43804032698E+03  0.62651836961E+03  0.44793519553E+03 0.  0.
      99925    2    3    3    0    0  0.72473452204E+02 -0.38634405330E+02 -0.37214014532E+03  0.46300885737E+03  0.26295226885E+03 0.  0.
         25    1    4    4    0    0 -0.12904287826E+01  0.20652549250E+00 -0.17379841219E+03  0.21413804902E+03  0.12509000000E+03 0.  0.
         25    1    4    4    0    0  0.73763880986E+02 -0.38840930823E+02 -0.19834173313E+03  0.24887080835E+03  0.12509000000E+03 0.  0.
         25    1    3    3    0    0 -0.72473452204E+02  0.38634405330E+02 -0.65900181661E+02  0.16350951224E+03  0.12509000000E+03 0.  0.
<mgrwt>
<rscale>  2 0.44793520E+03</rscale>
<asrwt>0</asrwt>
<pdfrwt beam="1">  1       21 0.13858680E-01 0.44793520E+03</pdfrwt>
<pdfrwt beam="2">  1       21 0.78276373E-01 0.44793520E+03</pdfrwt>
<totfact> 0.60372341E+04</totfact>
</mgrwt>
</event>
<event>
 7    0  0.4725730E-002  0.4580364E+03  0.7546771E-02  0.1025352E+00
         21   -1    0    0  502  501  0.00000000000E+00  0.00000000000E+00  0.28788369047E+03  0.28788369047E+03  0.00000000000E+00 0.  1.
         21   -1    0    0  501  502 -0.00000000000E+00 -0.00000000000E+00 -0.18218929344E+03  0.18218929344E+03  0.00000000000E+00 0.  1.
      99926    2    1    2    0    0  0.00000000000E+00  0.00000000000E+00  0.10569439703E+03  0.47007298391E+03  0.45803635734E+03 0.  0.
      99925    2    3    3    0    0 -0.85065045373E+02  0.73203618765E+02  0.95634288962E+02  0.30171756933E+03  0.26323514711E+03 0.  0.
         25    1    4    4    0    0 -0.44505632307E+01  0.16111554482E+02  0.51706397310E+02  0.13638346426E+03  0.12509000000E+03 0.  0.
         25    1    4    4    0    0 -0.80614482143E+02  0.57092064283E+02  0.43927891652E+02  0.16533410507E+03  0.12509000000E+03 0.  0.
         25    1    3    3    0    0  0.85065045373E+02 -0.73203618765E+02  0.10060108071E+02  0.16835541458E+03  0.12509000000E+03 0.  0.
<mgrwt>
<rscale>  2 0.45803636E+03</rscale>
<asrwt>0</asrwt>
<pdfrwt beam="1">  1       21 0.42335837E-01 0.45803636E+03</pdfrwt>
<pdfrwt beam="2">  1       21 0.26792543E-01 0.45803636E+03</pdfrwt>
<totfact> 0.65830568E+04</totfact>
</mgrwt>
</event>
<event>
 7    0  0.4725730E-002  0.4578917E+03  0.7546771E-02  0.1025394E+00
         21   -1    0    0  502  501  0.00000000000E+00  0.00000000000E+00  0.17508520366E+03  0.17508520366E+03  0.00000000000E+00 0. -1.
         21   -1    0    0  501  502 -0.00000000000E+00 -0.00000000000E+00 -0.29937536945E+03  0.29937536945E+03  0.00000000000E+00 0. -1.
      99926    2    1    2    0    0  0.00000000000E+00  0.14210854715E-13 -0.12429016580E+03  0.47446057311E+03  0.45789167946E+03 0.  0.
      99925    2    3    3    0    0 -0.70419272654E+02  0.90889595058E+02 -0.62881372979E+02  0.29379972957E+03  0.26295326881E+03 0.  0.
         25    1    4    4    0    0 -0.71703178152E+02  0.69544334857E+02 -0.36172626741E+02  0.16411498193E+03  0.12509000000E+03 0.  0.
         25    1    3    3    0    0  0.70419272654E+02 -0.90889595058E+02 -0.61408792817E+02  0.18066084353E+03  0.12509000000E+03 0.  0.
         25    1    4    4    0    0  0.12839054976E+01  0.21345260201E+02 -0.26708746238E+02  0.12968474765E+03  0.12509000000E+03 0.  0.
<mgrwt>
<rscale>  2 0.45789168E+03</rscale>
<asrwt>0</asrwt>
<pdfrwt beam="1">  1       21 0.25747824E-01 0.45789168E+03</pdfrwt>
<pdfrwt beam="2">  1       21 0.44025789E-01 0.45789168E+03</pdfrwt>
<totfact> 0.65587764E+04</totfact>
</mgrwt>
</event>
<event>
 7    0  0.4725730E-002  0.4343751E+03  0.7546771E-02  0.1032487E+00
         21   -1    0    0  502  501  0.00000000000E+00  0.00000000000E+00  0.41539320872E+03  0.41539320872E+03  0.00000000000E+00 0. -1.
         21   -1    0    0  501  502 -0.00000000000E+00 -0.00000000000E+00 -0.11355608646E+03  0.11355608646E+03  0.00000000000E+00 0. -1.
      99926    2    1    2    0    0 -0.71054273576E-14  0.00000000000E+00  0.30183712225E+03  0.52894929518E+03  0.43437507813E+03 0.  0.
      99925    2    3    3    0    0 -0.53240379849E+02 -0.54929036997E+02  0.25681900791E+03  0.37556782345E+03  0.26314150192E+03 0.  0.
         25    1    4    4    0    0  0.30194059255E+00 -0.20183890684E+02  0.80338209991E+02  0.15003071917E+03  0.12509000000E+03 0.  0.
         25    1    4    4    0    0 -0.53542320442E+02 -0.34745146312E+02  0.17648079792E+03  0.22553710427E+03  0.12509000000E+03 0.  0.
         25    1    3    3    0    0  0.53240379849E+02  0.54929036997E+02  0.45018114344E+02  0.15338147173E+03  0.12509000000E+03 0.  0.
<mgrwt>
<rscale>  2 0.43437508E+03</rscale>
<asrwt>0</asrwt>
<pdfrwt beam="1">  1       21 0.61087236E-01 0.43437508E+03</pdfrwt>
<pdfrwt beam="2">  1       21 0.16699425E-01 0.43437508E+03</pdfrwt>
<totfact> 0.74757432E+04</totfact>
</mgrwt>
</event>
<event>
 7    0  0.4725730E-002  0.4614943E+03  0.7546771E-02  0.1024349E+00
         21   -1    0    0  502  501  0.00000000000E+00  0.00000000000E+00  0.14821173743E+03  0.14821173743E+03  0.00000000000E+00 0. -1.
         21   -1    0    0  501  502 -0.00000000000E+00 -0.00000000000E+00 -0.35924440838E+03  0.35924440838E+03  0.00000000000E+00 0. -1.
      99926    2    1    2    0    0  0.00000000000E+00  0.00000000000E+00 -0.21103267095E+03  0.50745614580E+03  0.46149425967E+03 0.  0.
      99925    2    3    3    0    0  0.93327604700E+02 -0.64305253194E+02 -0.91445543393E+02  0.30058953041E+03  0.26295735586E+03 0.  0.
         25    1    3    3    0    0 -0.93327604700E+02  0.64305253194E+02 -0.11958712755E+03  0.20686661539E+03  0.12509000000E+03 0.  0.
         25    1    4    4    0    0  0.74789215101E+02 -0.56822537405E+02 -0.28008056780E+02  0.15891565938E+03  0.12509000000E+03 0.  0.
         25    1    4    4    0    0  0.18538389599E+02 -0.74827157889E+01 -0.63437486613E+02  0.14167387103E+03  0.12509000000E+03 0.  0.
<mgrwt>
<rscale>  2 0.46149426E+03</rscale>
<asrwt>0</asrwt>
<pdfrwt beam="1">  1       21 0.21795845E-01 0.46149426E+03</pdfrwt>
<pdfrwt beam="2">  1       21 0.52830058E-01 0.46149426E+03</pdfrwt>
<totfact> 0.61517176E+04</totfact>
</mgrwt>
</event>
<event>
 7    0  0.4725730E-002  0.4563345E+03  0.7546771E-02  0.1025850E+00
         21   -1    0    0  502  501  0.00000000000E+00  0.00000000000E+00  0.78429497775E+03  0.78429497775E+03  0.00000000000E+00 0. -1.
         21   -1    0    0  501  502 -0.00000000000E+00 -0.00000000000E+00 -0.66378460794E+02  0.66378460794E+02  0.00000000000E+00 0. -1.
      99926    2    1    2    0    0  0.00000000000E+00  0.00000000000E+00  0.71791651695E+03  0.85067343854E+03  0.45633449763E+03 0.  0.
      99925    2    3    3    0    0 -0.70428752492E+02  0.89048576897E+02  0.42495502412E+03  0.51249626219E+03  0.26301290463E+03 0.  0.
         25    1    4    4    0    0  0.93920863491E+00  0.58816150643E+02  0.18361948037E+03  0.22983438246E+03  0.12509000000E+03 0.  0.
         25    1    4    4    0    0 -0.71367961126E+02  0.30232426254E+02  0.24133554375E+03  0.28266187972E+03  0.12509000000E+03 0.  0.
         25    1    3    3    0    0  0.70428752492E+02 -0.89048576897E+02  0.29296149283E+03  0.33817717635E+03  0.12509000000E+03 0.  0.
<mgrwt>
<rscale>  2 0.45633450E+03</rscale>
<asrwt>0</asrwt>
<pdfrwt beam="1">  1       21 0.11533749E+00 0.45633450E+03</pdfrwt>
<pdfrwt beam="2">  1       21 0.97615388E-02 0.45633450E+03</pdfrwt>
<totfact> 0.44936995E+04</totfact>
</mgrwt>
</event>
<event>
 7    0  0.4725730E-002  0.4528536E+03  0.7546771E-02  0.1026874E+00
         21   -1    0    0  502  501  0.00000000000E+00  0.00000000000E+00  0.40124365121E+03  0.40124365121E+03  0.00000000000E+00 0.  1.
         21   -1    0    0  501  502 -0.00000000000E+00 -0.00000000000E+00 -0.12777546834E+03  0.12777546834E+03  0.00000000000E+00 0.  1.
      99926    2    1    2    0    0 -0.14210854715E-13 -0.71054273576E-14  0.27346818287E+03  0.52901911954E+03  0.45285359864E+03 0.  0.
      99925    2    3    3    0    0 -0.10084757294E+03 -0.44126239748E+02  0.19056811877E+03  0.34290816680E+03  0.26296852467E+03 0.  0.
         25    1    4    4    0    0 -0.10527312870E+02 -0.35351252628E+02  0.82169008720E+02  0.15414210805E+03  0.12509000000E+03 0.  0.
         25    1    4    4    0    0 -0.90320260074E+02 -0.87749871204E+01  0.10839911005E+03  0.18876605876E+03  0.12509000000E+03 0.  0.
         25    1    3    3    0    0  0.10084757294E+03  0.44126239748E+02  0.82900064101E+02  0.18611095274E+03  0.12509000000E+03 0.  0.
<mgrwt>
<rscale>  2 0.45285360E+03</rscale>
<asrwt>0</asrwt>
<pdfrwt beam="1">  1       21 0.59006419E-01 0.45285360E+03</pdfrwt>
<pdfrwt beam="2">  1       21 0.18790510E-01 0.45285360E+03</pdfrwt>
<totfact> 0.64360946E+04</totfact>
</mgrwt>
</event>
<event>
 7    0  0.4725730E-002  0.4653778E+03  0.7546771E-02  0.1023233E+00
         21   -1    0    0  502  501  0.00000000000E+00  0.00000000000E+00  0.14913138335E+04  0.14913138335E+04  0.00000000000E+00 0. -1.
         21   -1    0    0  501  502 -0.00000000000E+00 -0.00000000000E+00 -0.36306329332E+02  0.36306329332E+02  0.00000000000E+00 0. -1.
      99926    2    1    2    0    0  0.00000000000E+00  0.00000000000E+00  0.14550075042E+04  0.15276201629E+04  0.46537783006E+03 0.  0.
      99925    2    3    3    0    0  0.20478605109E+02 -0.12049934249E+03  0.87031717498E+03  0.91733354660E+03  0.26288664067E+03 0.  0.
         25    1    4    4    0    0  0.26071373319E+02 -0.63088463861E+02  0.32466695476E+03  0.35456453628E+03  0.12509000000E+03 0.  0.
         25    1    4    4    0    0 -0.55927682099E+01 -0.57410878633E+02  0.54565022022E+03  0.56276901032E+03  0.12509000000E+03 0.  0.
         25    1    3    3    0    0 -0.20478605109E+02  0.12049934249E+03  0.58469032923E+03  0.61028661627E+03  0.12509000000E+03 0.  0.
<mgrwt>
<rscale>  2 0.46537783E+03</rscale>
<asrwt>0</asrwt>
<pdfrwt beam="1">  1       21 0.21931082E+00 0.46537783E+03</pdfrwt>
<pdfrwt beam="2">  1       21 0.53391671E-02 0.46537783E+03</pdfrwt>
<totfact> 0.21337889E+04</totfact>
</mgrwt>
</event>
<event>
 7    0  0.4725730E-002  0.4454557E+03  0.7546771E-02  0.1029086E+00
         21   -1    0    0  502  501  0.00000000000E+00  0.00000000000E+00  0.18279462789E+03  0.18279462789E+03  0.00000000000E+00 0. -1.
         21   -1    0    0  501  502 -0.00000000000E+00 -0.00000000000E+00 -0.27138491212E+03  0.27138491212E+03  0.00000000000E+00 0. -1.
      99926    2    1    2    0    0 -0.35527136788E-14  0.00000000000E+00 -0.88590284238E+02  0.45417954001E+03  0.44545573978E+03 0.  0.
      99925    2    3    3    0    0 -0.24299807180E+02 -0.95436770116E+02 -0.90396276556E+02  0.29496450483E+03  0.26293328921E+03 0.  0.
         25    1    4    4    0    0 -0.49380421596E+02 -0.66081385671E+02 -0.49812229033E+02  0.15790485056E+03  0.12509000000E+03 0.  0.
         25    1    3    3    0    0  0.24299807180E+02  0.95436770116E+02  0.18059923176E+01  0.15921503518E+03  0.12509000000E+03 0.  0.
         25    1    4    4    0    0  0.25080614416E+02 -0.29355384445E+02 -0.40584047523E+02  0.13705965427E+03  0.12509000000E+03 0.  0.
<mgrwt>
<rscale>  2 0.44545574E+03</rscale>
<asrwt>0</asrwt>
<pdfrwt beam="1">  1       21 0.26881563E-01 0.44545574E+03</pdfrwt>
<pdfrwt beam="2">  1       21 0.39909545E-01 0.44545574E+03</pdfrwt>
<totfact> 0.74082888E+04</totfact>
</mgrwt>
</event>
<event>
 7    0  0.4725730E-002  0.4412580E+03  0.7546771E-02  0.1030362E+00
         21   -1    0    0  502  501  0.00000000000E+00  0.00000000000E+00  0.15205302793E+03  0.15205302793E+03  0.00000000000E+00 0. -1.
         21   -1    0    0  501  502 -0.00000000000E+00 -0.00000000000E+00 -0.32013282115E+03  0.32013282115E+03  0.00000000000E+00 0. -1.
      99926    2    1    2    0    0  0.35527136788E-14  0.00000000000E+00 -0.16807979322E+03  0.47218584909E+03  0.44125804150E+03 0.  0.
      99925    2    3    3    0    0  0.13338488337E+02  0.91076404929E+02 -0.14827284662E+03  0.31562068681E+03  0.26298052037E+03 0.  0.
         25    1    4    4    0    0 -0.26855170846E+02  0.68328720158E+02 -0.70734705081E+02  0.16137199510E+03  0.12509000000E+03 0.  0.
         25    1    3    3    0    0 -0.13338488337E+02 -0.91076404929E+02 -0.19806946601E+02  0.15656516228E+03  0.12509000000E+03 0.  0.
         25    1    4    4    0    0  0.40193659183E+02  0.22747684772E+02 -0.77538141539E+02  0.15424869171E+03  0.12509000000E+03 0.  0.
<mgrwt>
<rscale>  2 0.44125804E+03</rscale>
<asrwt>0</asrwt>
<pdfrwt beam="1">  1       21 0.22360740E-01 0.44125804E+03</pdfrwt>
<pdfrwt beam="2">  1       21 0.47078356E-01 0.44125804E+03</pdfrwt>
<totfact> 0.75140989E+04</totfact>
</mgrwt>
</event>
<event>
 7    0  0.4725730E-002  0.4561360E+03  0.7546771E-02  0.1025908E+00
         21   -1    0    0  502  501  0.00000000000E+00  0.00000000000E+00  0.10375170946E+03  0.10375170946E+03  0.00000000000E+00 0.  1.
         21   -1    0    0  501  502 -0.00000000000E+00 -0.00000000000E+00 -0.50134128679E+03  0.50134128679E+03  0.00000000000E+00 0.  1.
      99926    2    1    2    0    0  0.00000000000E+00 -0.14210854715E-13 -0.39758957734E+03  0.60509299625E+03  0.45613601273E+03 0.  0.
      99925    2    3    3    0    0  0.70139464022E+02  0.82872918259E+02 -0.29688740238E+03  0.41124795212E+03  0.26304996376E+03 0.  0.
         25    1    4    4    0    0  0.27838563866E+02  0.81005995139E+02 -0.17496638793E+03  0.23151177485E+03  0.12509000000E+03 0.  0.
         25    1    4    4    0    0  0.42300900156E+02  0.18669231206E+01 -0.12192101445E+03  0.17973617727E+03  0.12509000000E+03 0.  0.
         25    1    3    3    0    0 -0.70139464022E+02 -0.82872918259E+02 -0.10070217496E+03  0.19384504413E+03  0.12509000000E+03 0.  0.
<mgrwt>
<rscale>  2 0.45613601E+03</rscale>
<asrwt>0</asrwt>
<pdfrwt beam="1">  1       21 0.15257605E-01 0.45613601E+03</pdfrwt>
<pdfrwt beam="2">  1       21 0.73726658E-01 0.45613601E+03</pdfrwt>
<totfact> 0.57844984E+04</totfact>
</mgrwt>
</event>
<event>
 7    0  0.4725730E-002  0.4582882E+03  0.7546771E-02  0.1025279E+00
         21   -1    0    0  502  501  0.00000000000E+00  0.00000000000E+00  0.87690785232E+02  0.87690785232E+02  0.00000000000E+00 0. -1.
         21   -1    0    0  501  502 -0.00000000000E+00 -0.00000000000E+00 -0.59877462938E+03  0.59877462938E+03  0.00000000000E+00 0. -1.
      99926    2    1    2    0    0  0.71054273576E-14  0.00000000000E+00 -0.51108384415E+03  0.68646541461E+03  0.45828819504E+03 0.  0.
      99925    2    3    3    0    0  0.43347613772E+02  0.51198192077E+02 -0.17859495725E+03  0.32494551405E+03  0.26304592347E+03 0.  0.
         25    1    4    4    0    0  0.21403446875E+02  0.24540394888E+02 -0.13775510014E+03  0.18890292278E+03  0.12509000000E+03 0.  0.
         25    1    3    3    0    0 -0.43347613772E+02 -0.51198192077E+02 -0.33248888690E+03  0.36151990056E+03  0.12509000000E+03 0.  0.
         25    1    4    4    0    0  0.21944166897E+02  0.26657797189E+02 -0.40839857112E+02  0.13604259127E+03  0.12509000000E+03 0.  0.
<mgrwt>
<rscale>  2 0.45828820E+03</rscale>
<asrwt>0</asrwt>
<pdfrwt beam="1">  1       21 0.12895704E-01 0.45828820E+03</pdfrwt>
<pdfrwt beam="2">  1       21 0.88055089E-01 0.45828820E+03</pdfrwt>
<totfact> 0.52277627E+04</totfact>
</mgrwt>
</event>
<event>
 7    0  0.4725730E-002  0.4456432E+03  0.7546771E-02  0.1029029E+00
         21   -1    0    0  502  501  0.00000000000E+00  0.00000000000E+00  0.11658752397E+03  0.11658752397E+03  0.00000000000E+00 0.  1.
         21   -1    0    0  501  502 -0.00000000000E+00 -0.00000000000E+00 -0.42585568791E+03  0.42585568791E+03  0.00000000000E+00 0.  1.
      99926    2    1    2    0    0  0.00000000000E+00  0.00000000000E+00 -0.30926816394E+03  0.54244321188E+03  0.44564317664E+03 0.  0.
      99925    2    3    3    0    0  0.43820325133E+02 -0.48881696592E+02 -0.97676171304E+02  0.28802560124E+03  0.26288490138E+03 0.  0.
         25    1    4    4    0    0  0.18807942024E+02  0.10653049354E+02 -0.68547725994E+02  0.14426893284E+03  0.12509000000E+03 0.  0.
         25    1    4    4    0    0  0.25012383109E+02 -0.59534745946E+02 -0.29128445311E+02  0.14375666840E+03  0.12509000000E+03 0.  0.
         25    1    3    3    0    0 -0.43820325133E+02  0.48881696592E+02 -0.21159199264E+03  0.25441761064E+03  0.12509000000E+03 0.  0.
<mgrwt>
<rscale>  2 0.44564318E+03</rscale>
<asrwt>0</asrwt>
<pdfrwt beam="1">  1       21 0.17145224E-01 0.44564318E+03</pdfrwt>
<pdfrwt beam="2">  1       21 0.62625836E-01 0.44564318E+03</pdfrwt>
<totfact> 0.67208467E+04</totfact>
</mgrwt>
</event>
<event>
 7    0  0.4725730E-002  0.4599271E+03  0.7546771E-02  0.1024802E+00
         21   -1    0    0  502  501  0.00000000000E+00  0.00000000000E+00  0.12813273445E+03  0.12813273445E+03  0.00000000000E+00 0.  1.
         21   -1    0    0  501  502 -0.00000000000E+00 -0.00000000000E+00 -0.41272232667E+03  0.41272232667E+03  0.00000000000E+00 0.  1.
      99926    2    1    2    0    0  0.00000000000E+00  0.00000000000E+00 -0.28458959222E+03  0.54085506112E+03  0.45992712590E+03 0.  0.
      99925    2    3    3    0    0  0.11372754509E+03 -0.30149593981E+02 -0.17260350490E+03  0.33583958760E+03  0.26297016211E+03 0.  0.
         25    1    4    4    0    0  0.99631632657E+02 -0.14280556217E+02 -0.10762965488E+03  0.19329264658E+03  0.12509000000E+03 0.  0.
         25    1    3    3    0    0 -0.11372754509E+03  0.30149593981E+02 -0.11198608732E+03  0.20501547352E+03  0.12509000000E+03 0.  0.
         25    1    4    4    0    0  0.14095912438E+02 -0.15869037764E+02 -0.64973850021E+02  0.14254694102E+03  0.12509000000E+03 0.  0.
<mgrwt>
<rscale>  2 0.45992713E+03</rscale>
<asrwt>0</asrwt>
<pdfrwt beam="1">  1       21 0.18843049E-01 0.45992713E+03</pdfrwt>
<pdfrwt beam="2">  1       21 0.60694459E-01 0.45992713E+03</pdfrwt>
<totfact> 0.60096540E+04</totfact>
</mgrwt>
</event>
<event>
 7    0  0.4725730E-002  0.4515959E+03  0.7546771E-02  0.1027247E+00
         21   -1    0    0  502  501  0.00000000000E+00  0.00000000000E+00  0.87341945263E+02  0.87341945263E+02  0.00000000000E+00 0.  1.
         21   -1    0    0  501  502 -0.00000000000E+00 -0.00000000000E+00 -0.58373694312E+03  0.58373694312E+03  0.00000000000E+00 0.  1.
      99926    2    1    2    0    0  0.00000000000E+00 -0.14210854715E-13 -0.49639499786E+03  0.67107888838E+03  0.45159592617E+03 0.  0.
      99925    2    3    3    0    0 -0.23201438633E+02 -0.86021668426E+02 -0.21748180679E+03  0.35267959434E+03  0.26295726989E+03 0.  0.
         25    1    4    4    0    0 -0.12676657611E+02 -0.72826464029E+01 -0.72251540353E+02  0.14519479250E+03  0.12509000000E+03 0.  0.
         25    1    3    3    0    0  0.23201438633E+02  0.86021668426E+02 -0.27891319107E+03  0.31839929404E+03  0.12509000000E+03 0.  0.
         25    1    4    4    0    0 -0.10524781022E+02 -0.78739022023E+02 -0.14523026643E+03  0.20748480184E+03  0.12509000000E+03 0.  0.
<mgrwt>
<rscale>  2 0.45159593E+03</rscale>
<asrwt>0</asrwt>
<pdfrwt beam="1">  1       21 0.12844404E-01 0.45159593E+03</pdfrwt>
<pdfrwt beam="2">  1       21 0.85843669E-01 0.45159593E+03</pdfrwt>
<totfact> 0.55988520E+04</totfact>
</mgrwt>
</event>
<event>
 7    0  0.4725730E-002  0.4455416E+03  0.7546771E-02  0.1029060E+00
         21   -1    0    0  502  501  0.00000000000E+00  0.00000000000E+00  0.98193000881E+03  0.98193000881E+03  0.00000000000E+00 0.  1.
         21   -1    0    0  501  502 -0.00000000000E+00 -0.00000000000E+00 -0.50540080633E+02  0.50540080633E+02  0.00000000000E+00 0.  1.
      99926    2    1    2    0    0  0.71054273576E-14 -0.17763568394E-14  0.93138992818E+03  0.10324700894E+04  0.44554156628E+03 0.  0.
      99925    2    3    3    0    0  0.63214335540E+02  0.93538523539E+01  0.78140453420E+03  0.82697879211E+03  0.26309186564E+03 0.  0.
         25    1    3    3    0    0 -0.63214335540E+02 -0.93538523539E+01  0.14998539397E+03  0.20549129733E+03  0.12509000000E+03 0.  0.
         25    1    4    4    0    0  0.29724950235E+02 -0.31495882887E+02  0.32887362470E+03  0.35451506658E+03  0.12509000000E+03 0.  0.
         25    1    4    4    0    0  0.33489385305E+02  0.40849735241E+02  0.45253090950E+03  0.47246372554E+03  0.12509000000E+03 0.  0.
<mgrwt>
<rscale>  2 0.44554157E+03</rscale>
<asrwt>0</asrwt>
<pdfrwt beam="1">  1       21 0.14440146E+00 0.44554157E+03</pdfrwt>
<pdfrwt beam="2">  1       21 0.74323654E-02 0.44554157E+03</pdfrwt>
<totfact> 0.40862121E+04</totfact>
</mgrwt>
</event>
<event>
 7    0  0.4725730E-002  0.4337471E+03  0.7546771E-02  0.1032683E+00
         21   -1    0    0  502  501  0.00000000000E+00  0.00000000000E+00  0.42613059857E+02  0.42613059857E+02  0.00000000000E+00 0.  1.
         21   -1    0    0  501  502 -0.00000000000E+00 -0.00000000000E+00 -0.11037492641E+04  0.11037492641E+04  0.00000000000E+00 0.  1.
      99926    2    1    2    0    0  0.00000000000E+00  0.00000000000E+00 -0.10611362043E+04  0.11463623240E+04  0.43374708510E+03 0.  0.
      99925    2    3    3    0    0 -0.84869679816E+01  0.42974355095E+02 -0.46874231827E+03  0.53932291168E+03  0.26311787910E+03 0.  0.
         25    1    4    4    0    0  0.38072905482E+01  0.60152352378E+02 -0.26845714640E+03  0.30224087830E+03  0.12509000000E+03 0.  0.
         25    1    4    4    0    0 -0.12294258530E+02 -0.17177997283E+02 -0.20028517187E+03  0.23708203338E+03  0.12509000000E+03 0.  0.
         25    1    3    3    0    0  0.84869679816E+01 -0.42974355095E+02 -0.59239388598E+03  0.60703941228E+03  0.12509000000E+03 0.  0.
<mgrwt>
<rscale>  2 0.43374709E+03</rscale>
<asrwt>0</asrwt>
<pdfrwt beam="1">  1       21 0.62666277E-02 0.43374709E+03</pdfrwt>
<pdfrwt beam="2">  1       21 0.16231604E+00 0.43374709E+03</pdfrwt>
<totfact> 0.40154366E+04</totfact>
</mgrwt>
</event>
<event>
 7    0  0.4725730E-002  0.4607066E+03  0.7546771E-02  0.1024576E+00
         21   -1    0    0  502  501  0.00000000000E+00  0.00000000000E+00  0.27820806414E+03  0.27820806414E+03  0.00000000000E+00 0.  1.
         21   -1    0    0  501  502 -0.00000000000E+00 -0.00000000000E+00 -0.19073003839E+03  0.19073003839E+03  0.00000000000E+00 0.  1.
      99926    2    1    2    0    0  0.17763568394E-14 -0.14210854715E-13  0.87478025752E+02  0.46893810252E+03  0.46070656497E+03 0.  0.
      99925    2    3    3    0    0  0.12318304641E+02  0.73129330181E+02 -0.39145646835E+02  0.27611512121E+03  0.26307325773E+03 0.  0.
         25    1    3    3    0    0 -0.12318304641E+02 -0.73129330181E+02  0.12662367259E+03  0.19282298131E+03  0.12509000000E+03 0.  0.
         25    1    4    4    0    0  0.33919677022E+02  0.12931646421E+02 -0.37770835650E+02  0.13561679872E+03  0.12509000000E+03 0.  0.
         25    1    4    4    0    0 -0.21601372382E+02  0.60197683761E+02 -0.13748111854E+01  0.14049832250E+03  0.12509000000E+03 0.  0.
<mgrwt>
<rscale>  2 0.46070656E+03</rscale>
<asrwt>0</asrwt>
<pdfrwt beam="1">  1       21 0.40912951E-01 0.46070656E+03</pdfrwt>
<pdfrwt beam="2">  1       21 0.28048535E-01 0.46070656E+03</pdfrwt>
<totfact> 0.64541010E+04</totfact>
</mgrwt>
</event>
<event>
 7    0  0.4725730E-002  0.4667926E+03  0.7546771E-02  0.1022829E+00
         21   -1    0    0  502  501  0.00000000000E+00  0.00000000000E+00  0.19649712233E+03  0.19649712233E+03  0.00000000000E+00 0. -1.
         21   -1    0    0  501  502 -0.00000000000E+00 -0.00000000000E+00 -0.27722463178E+03  0.27722463178E+03  0.00000000000E+00 0. -1.
      99926    2    1    2    0    0 -0.35527136788E-14  0.14210854715E-13 -0.80727509449E+02  0.47372175410E+03  0.46679264083E+03 0.  0.
      99925    2    3    3    0    0 -0.25148902098E+02  0.11189098737E+03 -0.97771427121E+02  0.30316365972E+03  0.26305302180E+03 0.  0.
         25    1    3    3    0    0  0.25148902098E+02 -0.11189098737E+03  0.17043917672E+02  0.17055809439E+03  0.12509000000E+03 0.  0.
         25    1    4    4    0    0 -0.21604656951E+02  0.29531195981E+02 -0.78427778228E+02  0.15210942520E+03  0.12509000000E+03 0.  0.
         25    1    4    4    0    0 -0.35442451476E+01  0.82359791391E+02 -0.19343648893E+02  0.15105423451E+03  0.12509000000E+03 0.  0.
<mgrwt>
<rscale>  2 0.46679264E+03</rscale>
<asrwt>0</asrwt>
<pdfrwt beam="1">  1       21 0.28896636E-01 0.46679264E+03</pdfrwt>
<pdfrwt beam="2">  1       21 0.40768328E-01 0.46679264E+03</pdfrwt>
<totfact> 0.61223775E+04</totfact>
</mgrwt>
</event>
<event>
 7    0  0.4725730E-002  0.4558989E+03  0.7546771E-02  0.1025977E+00
         21   -1    0    0  502  501  0.00000000000E+00  0.00000000000E+00  0.13118618187E+04  0.13118618187E+04  0.00000000000E+00 0. -1.
         21   -1    0    0  501  502 -0.00000000000E+00 -0.00000000000E+00 -0.39608552230E+02  0.39608552230E+02  0.00000000000E+00 0. -1.
      99926    2    1    2    0    0  0.00000000000E+00 -0.71054273576E-14  0.12722532664E+04  0.13514703709E+04  0.45589888073E+03 0.  0.
      99925    2    3    3    0    0  0.89710283378E+02 -0.48075329046E+02  0.95188642377E+03  0.99280396016E+03  0.26308319474E+03 0.  0.
         25    1    3    3    0    0 -0.89710283378E+02  0.48075329046E+02  0.32036684266E+03  0.35866641073E+03  0.12509000000E+03 0.  0.
         25    1    4    4    0    0  0.80409727226E+02 -0.67381793673E+01  0.45933259132E+03  0.48285097581E+03  0.12509000000E+03 0.  0.
         25    1    4    4    0    0  0.93005561523E+01 -0.41337149679E+02  0.49255383245E+03  0.50995298435E+03  0.12509000000E+03 0.  0.
<mgrwt>
<rscale>  2 0.45589888E+03</rscale>
<asrwt>0</asrwt>
<pdfrwt beam="1">  1       21 0.19292083E+00 0.45589888E+03</pdfrwt>
<pdfrwt beam="2">  1       21 0.58247880E-02 0.45589888E+03</pdfrwt>
<totfact> 0.27462025E+04</totfact>
</mgrwt>
</event>
<event>
 7    0  0.4725730E-002  0.4593253E+03  0.7546771E-02  0.1024977E+00
         21   -1    0    0  502  501  0.00000000000E+00  0.00000000000E+00  0.90331024660E+03  0.90331024660E+03  0.00000000000E+00 0.  1.
         21   -1    0    0  501  502 -0.00000000000E+00 -0.00000000000E+00 -0.58390726305E+02  0.58390726305E+02  0.00000000000E+00 0.  1.
      99926    2    1    2    0    0  0.00000000000E+00  0.00000000000E+00  0.84491952029E+03  0.96170097290E+03  0.45932533733E+03 0.  0.
      99925    2    3    3    0    0 -0.18082168653E+02  0.69395410357E+02  0.33572755127E+03  0.43248772928E+03  0.26303984394E+03 0.  0.
         25    1    4    4    0    0  0.71445093723E+01  0.27175368006E+02  0.10610864273E+03  0.16642144334E+03  0.12509000000E+03 0.  0.
         25    1    3    3    0    0  0.18082168653E+02 -0.69395410357E+02  0.50919196903E+03  0.52921324362E+03  0.12509000000E+03 0.  0.
         25    1    4    4    0    0 -0.25226678025E+02  0.42220042351E+02  0.22961890853E+03  0.26606628594E+03  0.12509000000E+03 0.  0.
<mgrwt>
<rscale>  2 0.45932534E+03</rscale>
<asrwt>0</asrwt>
<pdfrwt beam="1">  1       21 0.13283973E+00 0.45932534E+03</pdfrwt>
<pdfrwt beam="2">  1       21 0.85868721E-02 0.45932534E+03</pdfrwt>
<totfact> 0.39323797E+04</totfact>
</mgrwt>
</event>
<event>
 7    0  0.4725730E-002  0.4556028E+03  0.7546771E-02  0.1026064E+00
         21   -1    0    0  502  501  0.00000000000E+00  0.00000000000E+00  0.97680623367E+03  0.97680623367E+03  0.00000000000E+00 0.  1.
         21   -1    0    0  501  502 -0.00000000000E+00 -0.00000000000E+00 -0.53125663019E+02  0.53125663019E+02  0.00000000000E+00 0.  1.
      99926    2    1    2    0    0  0.00000000000E+00  0.00000000000E+00  0.92368057066E+03  0.10299318967E+04  0.45560280423E+03 0.  0.
      99925    2    3    3    0    0  0.87295496308E+02 -0.67157674324E+02  0.64487988738E+03  0.70511196813E+03  0.26302502078E+03 0.  0.
         25    1    3    3    0    0 -0.87295496308E+02  0.67157674324E+02  0.27880068328E+03  0.32481992856E+03  0.12509000000E+03 0.  0.
         25    1    4    4    0    0  0.59376616841E+02 -0.69553205865E+02  0.39409094894E+03  0.42346005150E+03  0.12509000000E+03 0.  0.
         25    1    4    4    0    0  0.27918879467E+02  0.23955315414E+01  0.25078893843E+03  0.28165191663E+03  0.12509000000E+03 0.  0.
<mgrwt>
<rscale>  2 0.45560280E+03</rscale>
<asrwt>0</asrwt>
<pdfrwt beam="1">  1       21 0.14364796E+00 0.45560280E+03</pdfrwt>
<pdfrwt beam="2">  1       21 0.78125981E-02 0.45560280E+03</pdfrwt>
<totfact> 0.37844073E+04</totfact>
</mgrwt>
</event>
<event>
 7    0  0.4725730E-002  0.4199831E+03  0.7546771E-02  0.1037072E+00
         21   -1    0    0  502  501  0.00000000000E+00  0.00000000000E+00  0.15752551775E+03  0.15752551775E+03  0.00000000000E+00 0. -1.
         21   -1    0    0  501  502 -0.00000000000E+00 -0.00000000000E+00 -0.27993206009E+03  0.27993206009E+03  0.00000000000E+00 0. -1.
      99926    2    1    2    0    0 -0.17763568394E-14  0.00000000000E+00 -0.12240654233E+03  0.43745757784E+03  0.41998306014E+03 0.  0.
      99925    2    3    3    0    0 -0.74599168495E+01  0.74761593802E+02 -0.89831772888E+02  0.28794647467E+03  0.26305603697E+03 0.  0.
         25    1    4    4    0    0  0.15424706371E+02  0.73893175961E+02 -0.54798428417E+02  0.15604005536E+03  0.12509000000E+03 0.  0.
         25    1    4    4    0    0 -0.22884623220E+02  0.86841784062E+00 -0.35033344471E+02  0.13190641931E+03  0.12509000000E+03 0.  0.
         25    1    3    3    0    0  0.74599168495E+01 -0.74761593802E+02 -0.32574769443E+02  0.14951110317E+03  0.12509000000E+03 0.  0.
<mgrwt>
<rscale>  2 0.41998306E+03</rscale>
<asrwt>0</asrwt>
<pdfrwt beam="1">  1       21 0.23165518E-01 0.41998306E+03</pdfrwt>
<pdfrwt beam="2">  1       21 0.41166479E-01 0.41998306E+03</pdfrwt>
<totfact> 0.93272699E+04</totfact>
</mgrwt>
</event>
<event>
 7    0  0.4725730E-002  0.4041308E+03  0.7546771E-02  0.1042359E+00
         21   -1    0    0  502  501  0.00000000000E+00  0.00000000000E+00  0.15195009435E+03  0.15195009435E+03  0.00000000000E+00 0.  1.
         21   -1    0    0  501  502 -0.00000000000E+00 -0.00000000000E+00 -0.26870947105E+03  0.26870947105E+03  0.00000000000E+00 0.  1.
      99926    2    1    2    0    0  0.00000000000E+00 -0.17763568394E-14 -0.11675937670E+03  0.42065956540E+03  0.40413081782E+03 0.  0.
      99925    2    3    3    0    0 -0.26890290878E+02  0.12255435453E+02 -0.31740078973E+02  0.26655222447E+03  0.26300070782E+03 0.  0.
         25    1    4    4    0    0 -0.26635758040E+02  0.13381984926E+02  0.21895591681E+02  0.13044334464E+03  0.12509000000E+03 0.  0.
         25    1    3    3    0    0  0.26890290878E+02 -0.12255435453E+02 -0.85019297731E+02  0.15410734093E+03  0.12509000000E+03 0.  0.
         25    1    4    4    0    0 -0.25453283808E+00 -0.11265494734E+01 -0.53635670654E+02  0.13610887982E+03  0.12509000000E+03 0.  0.
<mgrwt>
<rscale>  2 0.40413082E+03</rscale>
<asrwt>0</asrwt>
<pdfrwt beam="1">  1       21 0.22345602E-01 0.40413082E+03</pdfrwt>
<pdfrwt beam="2">  1       21 0.39516099E-01 0.40413082E+03</pdfrwt>
<totfact> 0.10910202E+05</totfact>
</mgrwt>
</event>
<event>
 7    0  0.4725730E-002  0.4544842E+03  0.7546771E-02  0.1026393E+00
         21   -1    0    0  502  501  0.00000000000E+00  0.00000000000E+00  0.52042942571E+03  0.52042942571E+03  0.00000000000E+00 0.  1.
         21   -1    0    0  501  502 -0.00000000000E+00 -0.00000000000E+00 -0.99223756709E+02  0.99223756709E+02  0.00000000000E+00 0.  1.
      99926    2    1    2    0    0  0.00000000000E+00  0.14210854715E-13  0.42120566900E+03  0.61965318242E+03  0.45448415911E+03 0.  0.
      99925    2    3    3    0    0 -0.83532171996E+01  0.11209625347E+03  0.25514507158E+03  0.38330814567E+03  0.26304140493E+03 0.  0.
         25    1    4    4    0    0  0.80605351832E+01  0.44372389360E+02  0.17310338235E+03  0.21828002714E+03  0.12509000000E+03 0.  0.
         25    1    3    3    0    0  0.83532171996E+01 -0.11209625347E+03  0.16606059743E+03  0.23634503675E+03  0.12509000000E+03 0.  0.
         25    1    4    4    0    0 -0.16413752383E+02  0.67723864106E+02  0.82041689225E+02  0.16502811854E+03  0.12509000000E+03 0.  0.
<mgrwt>
<rscale>  2 0.45448416E+03</rscale>
<asrwt>0</asrwt>
<pdfrwt beam="1">  1       21 0.76533738E-01 0.45448416E+03</pdfrwt>
<pdfrwt beam="2">  1       21 0.14591729E-01 0.45448416E+03</pdfrwt>
<totfact> 0.57719337E+04</totfact>
</mgrwt>
</event>
<event>
 7    0  0.4725730E-002  0.4515659E+03  0.7546771E-02  0.1027256E+00
         21   -1    0    0  502  501  0.00000000000E+00  0.00000000000E+00  0.40257814223E+02  0.40257814223E+02  0.00000000000E+00 0.  1.
         21   -1    0    0  501  502 -0.00000000000E+00 -0.00000000000E+00 -0.12662870717E+04  0.12662870717E+04  0.00000000000E+00 0.  1.
      99926    2    1    2    0    0  0.71054273576E-14  0.14210854715E-13 -0.12260292575E+04  0.13065448859E+04  0.45156594063E+03 0.  0.
      99925    2    3    3    0    0  0.56982457212E+02  0.87276054842E+02 -0.67307063164E+03  0.73011201024E+03  0.26301209505E+03 0.  0.
         25    1    4    4    0    0  0.40313932996E+01  0.10299959545E+02 -0.26689753950E+03  0.29496465210E+03  0.12509000000E+03 0.  0.
         25    1    3    3    0    0 -0.56982457212E+02 -0.87276054842E+02 -0.55295862582E+03  0.57643287567E+03  0.12509000000E+03 0.  0.
         25    1    4    4    0    0  0.52951063913E+02  0.76976095297E+02 -0.40617309214E+03  0.43514735814E+03  0.12509000000E+03 0.  0.
<mgrwt>
<rscale>  2 0.45156594E+03</rscale>
<asrwt>0</asrwt>
<pdfrwt beam="1">  1       21 0.59202671E-02 0.45156594E+03</pdfrwt>
<pdfrwt beam="2">  1       21 0.18621868E+00 0.45156594E+03</pdfrwt>
<totfact> 0.29710755E+04</totfact>
</mgrwt>
</event>
<event>
 6    0  0.4725730E-002  0.4543127E+03  0.7546771E-02  0.1026444E+00
         21   -1    0    0  502  501  0.00000000000E+00  0.00000000000E+00  0.76071594042E+02  0.76071594042E+02  0.00000000000E+00 0. -1.
         21   -1    0    0  501  502 -0.00000000000E+00 -0.00000000000E+00 -0.67830862537E+03  0.67830862537E+03  0.00000000000E+00 0. -1.
      99926    2    1    2    0    0  0.00000000000E+00  0.00000000000E+00 -0.60223703133E+03  0.75438021941E+03  0.45431274860E+03 0.  0.
         25    1    3    3    0    0  0.35043069856E+02  0.10278834856E+03 -0.25849987539E+03  0.30702305291E+03  0.12509000000E+03 0.  0.
         25    1    3    3    0    0 -0.40070960444E+02 -0.69052631329E+02 -0.23600833920E+03  0.27878556640E+03  0.12509000000E+03 0.  0.
         25    1    3    3    0    0  0.50278905879E+01 -0.33735717234E+02 -0.10772881674E+03  0.16857160009E+03  0.12509000000E+03 0.  0.
<mgrwt>
<rscale>  2 0.45431275E+03</rscale>
<asrwt>0</asrwt>
<pdfrwt beam="1">  1       21 0.11186999E-01 0.45431275E+03</pdfrwt>
<pdfrwt beam="2">  1       21 0.99751268E-01 0.45431275E+03</pdfrwt>
<totfact> 0.50319168E+04</totfact>
</mgrwt>
</event>
<event>
 7    0  0.4725730E-002  0.4542195E+03  0.7546771E-02  0.1026471E+00
         21   -1    0    0  502  501  0.00000000000E+00  0.00000000000E+00  0.18123036952E+03  0.18123036952E+03  0.00000000000E+00 0.  1.
         21   -1    0    0  501  502 -0.00000000000E+00 -0.00000000000E+00 -0.28460377546E+03  0.28460377546E+03  0.00000000000E+00 0.  1.
      99926    2    1    2    0    0  0.00000000000E+00  0.00000000000E+00 -0.10337340595E+03  0.46583414498E+03  0.45421953896E+03 0.  0.
      99925    2    3    3    0    0  0.69819805323E+02  0.84301682841E+02 -0.38761968927E+02  0.28749815636E+03  0.26300403177E+03 0.  0.
         25    1    4    4    0    0  0.40337115762E+02  0.26654156581E+02 -0.56513720760E+02  0.14552950115E+03  0.12509000000E+03 0.  0.
         25    1    4    4    0    0  0.29482689562E+02  0.57647526260E+02  0.17751751833E+02  0.14196865521E+03  0.12509000000E+03 0.  0.
         25    1    3    3    0    0 -0.69819805323E+02 -0.84301682841E+02 -0.64611437020E+02  0.17833598863E+03  0.12509000000E+03 0.  0.
<mgrwt>
<rscale>  2 0.45421954E+03</rscale>
<asrwt>0</asrwt>
<pdfrwt beam="1">  1       21 0.26651525E-01 0.45421954E+03</pdfrwt>
<pdfrwt beam="2">  1       21 0.41853496E-01 0.45421954E+03</pdfrwt>
<totfact> 0.68168171E+04</totfact>
</mgrwt>
</event>
<event>
 7    0  0.4725730E-002  0.4534226E+03  0.7546771E-02  0.1026706E+00
         21   -1    0    0  502  501  0.00000000000E+00  0.00000000000E+00  0.11148733261E+04  0.11148733261E+04  0.00000000000E+00 0.  1.
         21   -1    0    0  501  502 -0.00000000000E+00 -0.00000000000E+00 -0.46102117697E+02  0.46102117697E+02  0.00000000000E+00 0.  1.
      99926    2    1    2    0    0  0.00000000000E+00  0.00000000000E+00  0.10687712084E+04  0.11609754438E+04  0.45342263417E+03 0.  0.
      99925    2    3    3    0    0  0.89115960250E+02  0.58192887879E+02  0.76034484950E+03  0.81154391468E+03  0.26296609805E+03 0.  0.
         25    1    4    4    0    0  0.40506706969E+02  0.56196649344E+02  0.30546814015E+03  0.33727903797E+03  0.12509000000E+03 0.  0.
         25    1    4    4    0    0  0.48609253281E+02  0.19962385346E+01  0.45487670935E+03  0.47426487671E+03  0.12509000000E+03 0.  0.
         25    1    3    3    0    0 -0.89115960250E+02 -0.58192887879E+02  0.30842635886E+03  0.34943152907E+03  0.12509000000E+03 0.  0.
<mgrwt>
<rscale>  2 0.45342263E+03</rscale>
<asrwt>0</asrwt>
<pdfrwt beam="1">  1       21 0.16395194E+00 0.45342263E+03</pdfrwt>
<pdfrwt beam="2">  1       21 0.67797239E-02 0.45342263E+03</pdfrwt>
<totfact> 0.33831987E+04</totfact>
</mgrwt>
</event>
<event>
 7    0  0.4725730E-002  0.4518967E+03  0.7546771E-02  0.1027158E+00
         21   -1    0    0  502  501  0.00000000000E+00  0.00000000000E+00  0.60752319121E+02  0.60752319121E+02  0.00000000000E+00 0. -1.
         21   -1    0    0  501  502 -0.00000000000E+00 -0.00000000000E+00 -0.84034070719E+03  0.84034070719E+03  0.00000000000E+00 0. -1.
      99926    2    1    2    0    0  0.00000000000E+00  0.00000000000E+00 -0.77958838807E+03  0.90109302631E+03  0.45189665550E+03 0.  0.
      99925    2    3    3    0    0  0.10824072384E+03 -0.20197896350E+02 -0.49487836391E+03  0.57119711050E+03  0.26313026176E+03 0.  0.
         25    1    4    4    0    0  0.68591003356E+02 -0.37325247038E+02 -0.20487897268E+03  0.25242979490E+03  0.12509000000E+03 0.  0.
         25    1    3    3    0    0 -0.10824072384E+03  0.20197896350E+02 -0.28471002416E+03  0.32989591581E+03  0.12509000000E+03 0.  0.
         25    1    4    4    0    0  0.39649720488E+02  0.17127350687E+02 -0.28999939123E+03  0.31876731560E+03  0.12509000000E+03 0.  0.
<mgrwt>
<rscale>  2 0.45189666E+03</rscale>
<asrwt>0</asrwt>
<pdfrwt beam="1">  1       21 0.89341649E-02 0.45189666E+03</pdfrwt>
<pdfrwt beam="2">  1       21 0.12357951E+00 0.45189666E+03</pdfrwt>
<totfact> 0.44251900E+04</totfact>
</mgrwt>
</event>
<event>
 7    0  0.4725730E-002  0.4563037E+03  0.7546771E-02  0.1025859E+00
         21   -1    0    0  502  501  0.00000000000E+00  0.00000000000E+00  0.31221269134E+03  0.31221269134E+03  0.00000000000E+00 0.  1.
         21   -1    0    0  501  502 -0.00000000000E+00 -0.00000000000E+00 -0.16672375883E+03  0.16672375883E+03  0.00000000000E+00 0.  1.
      99926    2    1    2    0    0  0.00000000000E+00  0.00000000000E+00  0.14548893251E+03  0.47893645018E+03  0.45630372980E+03 0.  0.
      99925    2    3    3    0    0 -0.84351086948E+02  0.33454337744E+02  0.18311079892E+02  0.27879646697E+03  0.26297885041E+03 0.  0.
         25    1    4    4    0    0 -0.65336518887E+02  0.51555325849E+02  0.56164932578E+01  0.15035247062E+03  0.12509000000E+03 0.  0.
         25    1    4    4    0    0 -0.19014568061E+02 -0.18100988105E+02  0.12694586634E+02  0.12844399635E+03  0.12509000000E+03 0.  0.
         25    1    3    3    0    0  0.84351086948E+02 -0.33454337744E+02  0.12717785262E+03  0.20013998321E+03  0.12509000000E+03 0.  0.
<mgrwt>
<rscale>  2 0.45630373E+03</rscale>
<asrwt>0</asrwt>
<pdfrwt beam="1">  1       21 0.45913632E-01 0.45630373E+03</pdfrwt>
<pdfrwt beam="2">  1       21 0.24518200E-01 0.45630373E+03</pdfrwt>
<totfact> 0.66091057E+04</totfact>
</mgrwt>
</event>
<event>
 7    0  0.4725730E-002  0.4583529E+03  0.7546771E-02  0.1025260E+00
         21   -1    0    0  502  501  0.00000000000E+00  0.00000000000E+00  0.10325371494E+03  0.10325371494E+03  0.00000000000E+00 0.  1.
         21   -1    0    0  501  502 -0.00000000000E+00 -0.00000000000E+00 -0.50866792348E+03  0.50866792348E+03  0.00000000000E+00 0.  1.
      99926    2    1    2    0    0  0.00000000000E+00  0.00000000000E+00 -0.40541420854E+03  0.61192163841E+03  0.45835293287E+03 0.  0.
      99925    2    3    3    0    0  0.89110162040E+02  0.74566897960E+02 -0.24963779561E+03  0.38080555897E+03  0.26304562626E+03 0.  0.
         25    1    3    3    0    0 -0.89110162040E+02 -0.74566897960E+02 -0.15577641293E+03  0.23111607944E+03  0.12509000000E+03 0.  0.
         25    1    4    4    0    0  0.84693789727E+02  0.26696560371E+02 -0.13937303209E+03  0.20726334584E+03  0.12509000000E+03 0.  0.
         25    1    4    4    0    0  0.44163723129E+01  0.47870337589E+02 -0.11026476352E+03  0.17354221313E+03  0.12509000000E+03 0.  0.
<mgrwt>
<rscale>  2 0.45835293E+03</rscale>
<asrwt>0</asrwt>
<pdfrwt beam="1">  1       21 0.15184370E-01 0.45835293E+03</pdfrwt>
<pdfrwt beam="2">  1       21 0.74804108E-01 0.45835293E+03</pdfrwt>
<totfact> 0.56440728E+04</totfact>
</mgrwt>
</event>
<event>
 7    0  0.4725730E-002  0.4668691E+03  0.7546771E-02  0.1022808E+00
         21   -1    0    0  502  501  0.00000000000E+00  0.00000000000E+00  0.14263918145E+04  0.14263918145E+04  0.00000000000E+00 0. -1.
         21   -1    0    0  501  502 -0.00000000000E+00 -0.00000000000E+00 -0.38202463099E+02  0.38202463099E+02  0.00000000000E+00 0. -1.
      99926    2    1    2    0    0 -0.14210854715E-13 -0.14210854715E-13  0.13881893514E+04  0.14645942776E+04  0.46686906369E+03 0.  0.
      99925    2    3    3    0    0 -0.92532505470E+02 -0.75478881661E+02  0.96742509010E+03  0.10096773645E+04  0.26320666645E+03 0.  0.
         25    1    3    3    0    0  0.92532505470E+02  0.75478881661E+02  0.42076426133E+03  0.45491691313E+03  0.12509000000E+03 0.  0.
         25    1    4    4    0    0 -0.87129652233E+02 -0.54462970563E+02  0.56024815085E+03  0.58316660577E+03  0.12509000000E+03 0.  0.
         25    1    4    4    0    0 -0.54028532363E+01 -0.21015911098E+02  0.40717693925E+03  0.42651075872E+03  0.12509000000E+03 0.  0.
<mgrwt>
<rscale>  2 0.46686906E+03</rscale>
<asrwt>0</asrwt>
<pdfrwt beam="1">  1       21 0.20976347E+00 0.46686906E+03</pdfrwt>
<pdfrwt beam="2">  1       21 0.56180102E-02 0.46686906E+03</pdfrwt>
<totfact> 0.22511713E+04</totfact>
</mgrwt>
</event>
<event>
 7    0  0.4725730E-002  0.4535857E+03  0.7546771E-02  0.1026658E+00
         21   -1    0    0  502  501  0.00000000000E+00  0.00000000000E+00  0.76404685186E+03  0.76404685186E+03  0.00000000000E+00 0.  1.
         21   -1    0    0  501  502 -0.00000000000E+00 -0.00000000000E+00 -0.67319153855E+02  0.67319153855E+02  0.00000000000E+00 0.  1.
      99926    2    1    2    0    0  0.00000000000E+00  0.00000000000E+00  0.69672769801E+03  0.83136600572E+03  0.45358565927E+03 0.  0.
      99925    2    3    3    0    0  0.24669205444E+02 -0.34349744382E+02  0.62858393945E+03  0.68277409959E+03  0.26319997625E+03 0.  0.
         25    1    3    3    0    0 -0.24669205444E+02  0.34349744382E+02  0.68143758553E+02  0.14859190613E+03  0.12509000000E+03 0.  0.
         25    1    4    4    0    0 -0.17435180010E+02 -0.28540915374E+02  0.37691429029E+03  0.39853539326E+03  0.12509000000E+03 0.  0.
         25    1    4    4    0    0  0.42104385454E+02 -0.58088290082E+01  0.25166964916E+03  0.28423870633E+03  0.12509000000E+03 0.  0.
<mgrwt>
<rscale>  2 0.45358566E+03</rscale>
<asrwt>0</asrwt>
<pdfrwt beam="1">  1       21 0.11235983E+00 0.45358566E+03</pdfrwt>
<pdfrwt beam="2">  1       21 0.98998760E-02 0.45358566E+03</pdfrwt>
<totfact> 0.46801992E+04</totfact>
</mgrwt>
</event>
<event>
 7    0  0.4725730E-002  0.4551700E+03  0.7546771E-02  0.1026191E+00
         21   -1    0    0  502  501  0.00000000000E+00  0.00000000000E+00  0.15851698792E+03  0.15851698792E+03  0.00000000000E+00 0. -1.
         21   -1    0    0  501  502 -0.00000000000E+00 -0.00000000000E+00 -0.32674687277E+03  0.32674687277E+03  0.00000000000E+00 0. -1.
      99926    2    1    2    0    0  0.00000000000E+00  0.00000000000E+00 -0.16822988485E+03  0.48526386070E+03  0.45516999060E+03 0.  0.
      99925    2    3    3    0    0  0.90360743465E+02 -0.66781755654E+02 -0.86805282663E+02  0.29844217890E+03  0.26250278132E+03 0.  0.
         25    1    4    4    0    0  0.68828816014E+02 -0.46677371464E+02 -0.78935667701E+02  0.16968951251E+03  0.12509000000E+03 0.  0.
         25    1    3    3    0    0 -0.90360743465E+02  0.66781755654E+02 -0.81424602184E+02  0.18682168179E+03  0.12509000000E+03 0.  0.
         25    1    4    4    0    0  0.21531927451E+02 -0.20104384190E+02 -0.78696149622E+01  0.12875266639E+03  0.12509000000E+03 0.  0.
<mgrwt>
<rscale>  2 0.45516999E+03</rscale>
<asrwt>0</asrwt>
<pdfrwt beam="1">  1       21 0.23311322E-01 0.45516999E+03</pdfrwt>
<pdfrwt beam="2">  1       21 0.48051010E-01 0.45516999E+03</pdfrwt>
<totfact> 0.66229466E+04</totfact>
</mgrwt>
</event>
<event>
 7    0  0.4725730E-002  0.4647837E+03  0.7546771E-02  0.1023403E+00
         21   -1    0    0  502  501  0.00000000000E+00  0.00000000000E+00  0.30966070724E+03  0.30966070724E+03  0.00000000000E+00 0.  1.
         21   -1    0    0  501  502 -0.00000000000E+00 -0.00000000000E+00 -0.17440370403E+03  0.17440370403E+03  0.00000000000E+00 0.  1.
      99926    2    1    2    0    0  0.00000000000E+00  0.00000000000E+00  0.13525700321E+03  0.48406441127E+03  0.46478371028E+03 0.  0.
      99925    2    3    3    0    0  0.52830515956E+02  0.90032468976E+02  0.18297525508E+02  0.28350535161E+03  0.26295166108E+03 0.  0.
         25    1    4    4    0    0  0.63323260492E+02  0.63440817622E+02 -0.18058868104E-01  0.15388983425E+03  0.12509000000E+03 0.  0.
         25    1    4    4    0    0 -0.10492744535E+02  0.26591651354E+02  0.18315584377E+02  0.12961551736E+03  0.12509000000E+03 0.  0.
         25    1    3    3    0    0 -0.52830515956E+02 -0.90032468976E+02  0.11695947770E+03  0.20055905966E+03  0.12509000000E+03 0.  0.
<mgrwt>
<rscale>  2 0.46478371E+03</rscale>
<asrwt>0</asrwt>
<pdfrwt beam="1">  1       21 0.45538339E-01 0.46478371E+03</pdfrwt>
<pdfrwt beam="2">  1       21 0.25647603E-01 0.46478371E+03</pdfrwt>
<totfact> 0.61490026E+04</totfact>
</mgrwt>
</event>
<event>
 7    0  0.4725730E-002  0.4655156E+03  0.7546771E-02  0.1023194E+00
         21   -1    0    0  502  501  0.00000000000E+00  0.00000000000E+00  0.16087338805E+03  0.16087338805E+03  0.00000000000E+00 0. -1.
         21   -1    0    0  501  502 -0.00000000000E+00 -0.00000000000E+00 -0.33676299501E+03  0.33676299501E+03  0.00000000000E+00 0. -1.
      99926    2    1    2    0    0  0.00000000000E+00  0.00000000000E+00 -0.17588960696E+03  0.49763638307E+03  0.46551564519E+03 0.  0.
      99925    2    3    3    0    0  0.41998117394E+02  0.65820003950E+02 -0.81988416378E+01  0.27433431040E+03  0.26286113838E+03 0.  0.
         25    1    4    4    0    0  0.52483969725E+02  0.28860468994E+02  0.20968360088E+02  0.14026643923E+03  0.12509000000E+03 0.  0.
         25    1    3    3    0    0 -0.41998117394E+02 -0.65820003950E+02 -0.16769076532E+03  0.22330207267E+03  0.12509000000E+03 0.  0.
         25    1    4    4    0    0 -0.10485852331E+02  0.36959534956E+02 -0.29167201726E+02  0.13406787117E+03  0.12509000000E+03 0.  0.
<mgrwt>
<rscale>  2 0.46551565E+03</rscale>
<asrwt>0</asrwt>
<pdfrwt beam="1">  1       21 0.23657851E-01 0.46551565E+03</pdfrwt>
<pdfrwt beam="2">  1       21 0.49523970E-01 0.46551565E+03</pdfrwt>
<totfact> 0.60248264E+04</totfact>
</mgrwt>
</event>
<event>
 7    0  0.4725730E-002  0.4610385E+03  0.7546771E-02  0.1024480E+00
         21   -1    0    0  502  501  0.00000000000E+00  0.00000000000E+00  0.14115752762E+02  0.14115752762E+02  0.00000000000E+00 0.  1.
         21   -1    0    0  501  502 -0.00000000000E+00 -0.00000000000E+00 -0.37645257041E+04  0.37645257041E+04  0.00000000000E+00 0.  1.
      99926    2    1    2    0    0 -0.17763568394E-14  0.00000000000E+00 -0.37504099514E+04  0.37786414569E+04  0.46103845439E+03 0.  0.
      99925    2    3    3    0    0  0.90663859579E+01  0.11591562150E+02 -0.13825061855E+04  0.14073902437E+04  0.26307295829E+03 0.  0.
         25    1    3    3    0    0 -0.90663859579E+01 -0.11591562150E+02 -0.23679037658E+04  0.23712512132E+04  0.12509000000E+03 0.  0.
         25    1    4    4    0    0 -0.34311449639E+02  0.48887852592E+00 -0.74146238091E+03  0.75272271454E+03  0.12509000000E+03 0.  0.
         25    1    4    4    0    0  0.43377835597E+02  0.11102683624E+02 -0.64104380464E+03  0.65466752918E+03  0.12509000000E+03 0.  0.
<mgrwt>
<rscale>  2 0.46103845E+03</rscale>
<asrwt>0</asrwt>
<pdfrwt beam="1">  1       21 0.20758468E-02 0.46103845E+03</pdfrwt>
<pdfrwt beam="2">  1       21 0.55360652E+00 0.46103845E+03</pdfrwt>
<totfact> 0.69510176E+02</totfact>
</mgrwt>
</event>
<event>
 7    0  0.4725730E-002  0.4266581E+03  0.7546771E-02  0.1034921E+00
         21   -1    0    0  502  501  0.00000000000E+00  0.00000000000E+00  0.38138774631E+03  0.38138774631E+03  0.00000000000E+00 0. -1.
         21   -1    0    0  501  502 -0.00000000000E+00 -0.00000000000E+00 -0.11932551590E+03  0.11932551590E+03  0.00000000000E+00 0. -1.
      99926    2    1    2    0    0  0.00000000000E+00  0.00000000000E+00  0.26206223040E+03  0.50071326221E+03  0.42665812818E+03 0.  0.
      99925    2    3    3    0    0  0.45377614620E+02  0.55236678876E+02  0.12266502532E+03  0.30024055213E+03  0.26455143565E+03 0.  0.
         25    1    4    4    0    0  0.18104623426E+02  0.28765981184E+02  0.14262249890E+02  0.13040774108E+03  0.12509000000E+03 0.  0.
         25    1    3    3    0    0 -0.45377614620E+02 -0.55236678876E+02  0.13939720508E+03  0.20047271008E+03  0.12509000000E+03 0.  0.
         25    1    4    4    0    0  0.27272991194E+02  0.26470697692E+02  0.10840277543E+03  0.16983281104E+03  0.12509000000E+03 0.  0.
<mgrwt>
<rscale>  2 0.42665813E+03</rscale>
<asrwt>0</asrwt>
<pdfrwt beam="1">  1       21 0.56086433E-01 0.42665813E+03</pdfrwt>
<pdfrwt beam="2">  1       21 0.17547870E-01 0.42665813E+03</pdfrwt>
<totfact> 0.82201823E+04</totfact>
</mgrwt>
</event>
<event>
 7    0  0.4725730E-002  0.4625916E+03  0.7546771E-02  0.1024032E+00
         21   -1    0    0  502  501  0.00000000000E+00  0.00000000000E+00  0.80481177552E+03  0.80481177552E+03  0.00000000000E+00 0.  1.
         21   -1    0    0  501  502 -0.00000000000E+00 -0.00000000000E+00 -0.66472381548E+02  0.66472381548E+02  0.00000000000E+00 0.  1.
      99926    2    1    2    0    0  0.00000000000E+00  0.00000000000E+00  0.73833939397E+03  0.87128415707E+03  0.46259163597E+03 0.  0.
      99925    2    3    3    0    0 -0.10800367621E+03 -0.39727767559E+02  0.39632420541E+03  0.48936140716E+03  0.26298026815E+03 0.  0.
         25    1    3    3    0    0  0.10800367621E+03  0.39727767559E+02  0.34201518857E+03  0.38192274991E+03  0.12509000000E+03 0.  0.
         25    1    4    4    0    0 -0.40364121863E+02  0.89006394697E+01  0.23106343457E+03  0.26598177120E+03  0.12509000000E+03 0.  0.
         25    1    4    4    0    0 -0.67639554344E+02 -0.48628407029E+02  0.16526077083E+03  0.22337963595E+03  0.12509000000E+03 0.  0.
<mgrwt>
<rscale>  2 0.46259164E+03</rscale>
<asrwt>0</asrwt>
<pdfrwt beam="1">  1       21 0.11835467E+00 0.46259164E+03</pdfrwt>
<pdfrwt beam="2">  1       21 0.97753507E-02 0.46259164E+03</pdfrwt>
<totfact> 0.41947780E+04</totfact>
</mgrwt>
</event>
<event>
 7    0  0.4725730E-002  0.4590125E+03  0.7546771E-02  0.1025068E+00
         21   -1    0    0  502  501  0.00000000000E+00  0.00000000000E+00  0.11028922752E+03  0.11028922752E+03  0.00000000000E+00 0. -1.
         21   -1    0    0  501  502 -0.00000000000E+00 -0.00000000000E+00 -0.47759070425E+03  0.47759070425E+03  0.00000000000E+00 0. -1.
      99926    2    1    2    0    0  0.14210854715E-13 -0.53290705182E-14 -0.36730147674E+03  0.58787993177E+03  0.45901246101E+03 0.  0.
      99925    2    3    3    0    0  0.11610293467E+03 -0.36116289901E+01 -0.21328406949E+03  0.35796297906E+03  0.26297236505E+03 0.  0.
         25    1    3    3    0    0 -0.11610293467E+03  0.36116289901E+01 -0.15401740725E+03  0.22991695270E+03  0.12509000000E+03 0.  0.
         25    1    4    4    0    0  0.79434447072E+02 -0.36577808570E+02 -0.12278148954E+03  0.19588407218E+03  0.12509000000E+03 0.  0.
         25    1    4    4    0    0  0.36668487603E+02  0.32966179580E+02 -0.90502579945E+02  0.16207890688E+03  0.12509000000E+03 0.  0.
<mgrwt>
<rscale>  2 0.45901246E+03</rscale>
<asrwt>0</asrwt>
<pdfrwt beam="1">  1       21 0.16219004E-01 0.45901246E+03</pdfrwt>
<pdfrwt beam="2">  1       21 0.70233926E-01 0.45901246E+03</pdfrwt>
<totfact> 0.57582488E+04</totfact>
</mgrwt>
</event>
<event>
 7    0  0.4725730E-002  0.4551117E+03  0.7546771E-02  0.1026209E+00
         21   -1    0    0  502  501  0.00000000000E+00  0.00000000000E+00  0.60378735066E+03  0.60378735066E+03  0.00000000000E+00 0.  1.
         21   -1    0    0  501  502 -0.00000000000E+00 -0.00000000000E+00 -0.85761441621E+02  0.85761441621E+02  0.00000000000E+00 0.  1.
      99926    2    1    2    0    0  0.00000000000E+00 -0.35527136788E-14  0.51802590904E+03  0.68954879228E+03  0.45511173848E+03 0.  0.
      99925    2    3    3    0    0  0.93452954898E+02  0.25429134921E+02  0.23741085288E+03  0.36741153345E+03  0.26314867692E+03 0.  0.
         25    1    3    3    0    0 -0.93452954898E+02 -0.25429134921E+02  0.28061505616E+03  0.32213725883E+03  0.12509000000E+03 0.  0.
         25    1    4    4    0    0  0.11656556460E+02  0.30597345319E+02  0.90928293042E+02  0.15807446165E+03  0.12509000000E+03 0.  0.
         25    1    4    4    0    0  0.81796398438E+02 -0.51682103978E+01  0.14648255983E+03  0.20933707180E+03  0.12509000000E+03 0.  0.
<mgrwt>
<rscale>  2 0.45511174E+03</rscale>
<asrwt>0</asrwt>
<pdfrwt beam="1">  1       21 0.88792255E-01 0.45511174E+03</pdfrwt>
<pdfrwt beam="2">  1       21 0.12611977E-01 0.45511174E+03</pdfrwt>
<totfact> 0.53427175E+04</totfact>
</mgrwt>
</event>
<event>
 7    0  0.4725730E-002  0.4525641E+03  0.7546771E-02  0.1026960E+00
         21   -1    0    0  502  501  0.00000000000E+00  0.00000000000E+00  0.76229109706E+03  0.76229109706E+03  0.00000000000E+00 0.  1.
         21   -1    0    0  501  502 -0.00000000000E+00 -0.00000000000E+00 -0.67170617474E+02  0.67170617474E+02  0.00000000000E+00 0.  1.
      99926    2    1    2    0    0 -0.17763568394E-14  0.00000000000E+00  0.69512047958E+03  0.82946171453E+03  0.45256408909E+03 0.  0.
      99925    2    3    3    0    0 -0.10626786656E+02 -0.11039168979E+03  0.43523464825E+03  0.52045134708E+03  0.26294705145E+03 0.  0.
         25    1    4    4    0    0  0.46813222191E+01 -0.16317745294E+02  0.16448764116E+03  0.20734482339E+03  0.12509000000E+03 0.  0.
         25    1    3    3    0    0  0.10626786656E+02  0.11039168979E+03  0.25988583133E+03  0.30901036746E+03  0.12509000000E+03 0.  0.
         25    1    4    4    0    0 -0.15308108875E+02 -0.94073944491E+02  0.27074700709E+03  0.31310652369E+03  0.12509000000E+03 0.  0.
<mgrwt>
<rscale>  2 0.45256409E+03</rscale>
<asrwt>0</asrwt>
<pdfrwt beam="1">  1       21 0.11210163E+00 0.45256409E+03</pdfrwt>
<pdfrwt beam="2">  1       21 0.98780324E-02 0.45256409E+03</pdfrwt>
<totfact> 0.47269545E+04</totfact>
</mgrwt>
</event>
<event>
 7    0  0.4725730E-002  0.4590589E+03  0.7546771E-02  0.1025055E+00
         21   -1    0    0  502  501  0.00000000000E+00  0.00000000000E+00  0.33786417733E+02  0.33786417733E+02  0.00000000000E+00 0. -1.
         21   -1    0    0  501  502 -0.00000000000E+00 -0.00000000000E+00 -0.15593179522E+04  0.15593179522E+04  0.00000000000E+00 0. -1.
      99926    2    1    2    0    0  0.00000000000E+00  0.00000000000E+00 -0.15255315345E+04  0.15931043699E+04  0.45905889693E+03 0.  0.
      99925    2    3    3    0    0  0.80873031678E+02 -0.51325857677E+02 -0.71867815447E+03  0.77101272307E+03  0.26227378541E+03 0.  0.
         25    1    4    4    0    0  0.12278970704E+01 -0.32182783618E+02 -0.35674371409E+03  0.37940851985E+03  0.12509000000E+03 0.  0.
         25    1    4    4    0    0  0.79645134607E+02 -0.19143074059E+02 -0.36193444037E+03  0.39160420322E+03  0.12509000000E+03 0.  0.
         25    1    3    3    0    0 -0.80873031678E+02  0.51325857677E+02 -0.80685338000E+03  0.82209164686E+03  0.12509000000E+03 0.  0.
<mgrwt>
<rscale>  2 0.45905890E+03</rscale>
<asrwt>0</asrwt>
<pdfrwt beam="1">  1       21 0.49685905E-02 0.45905890E+03</pdfrwt>
<pdfrwt beam="2">  1       21 0.22931148E+00 0.45905890E+03</pdfrwt>
<totfact> 0.20918933E+04</totfact>
</mgrwt>
</event>
<event>
 7    0  0.4725730E-002  0.4537060E+03  0.7546771E-02  0.1026623E+00
         21   -1    0    0  502  501  0.00000000000E+00  0.00000000000E+00  0.42980353353E+03  0.42980353353E+03  0.00000000000E+00 0. -1.
         21   -1    0    0  501  502 -0.00000000000E+00 -0.00000000000E+00 -0.11973443709E+03  0.11973443709E+03  0.00000000000E+00 0. -1.
      99926    2    1    2    0    0 -0.71054273576E-14  0.00000000000E+00  0.31006909644E+03  0.54953797062E+03  0.45370600237E+03 0.  0.
      99925    2    3    3    0    0 -0.63941606453E+02  0.76766973629E+02  0.13383509054E+03  0.31144632816E+03  0.26287884393E+03 0.  0.
         25    1    3    3    0    0  0.63941606453E+02 -0.76766973629E+02  0.17623400590E+03  0.23809164247E+03  0.12509000000E+03 0.  0.
         25    1    4    4    0    0 -0.11535705869E+02  0.11569400247E+02  0.33306740606E+02  0.13047517236E+03  0.12509000000E+03 0.  0.
         25    1    4    4    0    0 -0.52405900584E+02  0.65197573382E+02  0.10052834993E+03  0.18097115580E+03  0.12509000000E+03 0.  0.
<mgrwt>
<rscale>  2 0.45370600E+03</rscale>
<asrwt>0</asrwt>
<pdfrwt beam="1">  1       21 0.63206402E-01 0.45370600E+03</pdfrwt>
<pdfrwt beam="2">  1       21 0.17608006E-01 0.45370600E+03</pdfrwt>
<totfact> 0.62534835E+04</totfact>
</mgrwt>
</event>
<event>
 7    0  0.4725730E-002  0.4536354E+03  0.7546771E-02  0.1026643E+00
         21   -1    0    0  502  501  0.00000000000E+00  0.00000000000E+00  0.37668951021E+02  0.37668951021E+02  0.00000000000E+00 0.  1.
         21   -1    0    0  501  502 -0.00000000000E+00 -0.00000000000E+00 -0.13657472074E+04  0.13657472074E+04  0.00000000000E+00 0.  1.
      99926    2    1    2    0    0  0.00000000000E+00  0.00000000000E+00 -0.13280782564E+04  0.14034161584E+04  0.45363538073E+03 0.  0.
      99925    2    3    3    0    0 -0.98592542969E+02  0.12410407759E+02 -0.67755027671E+03  0.73355895858E+03  0.26298262393E+03 0.  0.
         25    1    4    4    0    0 -0.58943364122E+02  0.44385190422E+02 -0.32272234453E+03  0.35389487855E+03  0.12509000000E+03 0.  0.
         25    1    4    4    0    0 -0.39649178847E+02 -0.31974782663E+02 -0.35482793218E+03  0.37966408003E+03  0.12509000000E+03 0.  0.
         25    1    3    3    0    0  0.98592542969E+02 -0.12410407759E+02 -0.65052797965E+03  0.66985719983E+03  0.12509000000E+03 0.  0.
<mgrwt>
<rscale>  2 0.45363538E+03</rscale>
<asrwt>0</asrwt>
<pdfrwt beam="1">  1       21 0.55395507E-02 0.45363538E+03</pdfrwt>
<pdfrwt beam="2">  1       21 0.20084521E+00 0.45363538E+03</pdfrwt>
<totfact> 0.26521234E+04</totfact>
</mgrwt>
</event>
<event>
 7    0  0.4725730E-002  0.4536787E+03  0.7546771E-02  0.1026631E+00
         21   -1    0    0  502  501  0.00000000000E+00  0.00000000000E+00  0.28404638937E+03  0.28404638937E+03  0.00000000000E+00 0.  1.
         21   -1    0    0  501  502 -0.00000000000E+00 -0.00000000000E+00 -0.18115386460E+03  0.18115386460E+03  0.00000000000E+00 0.  1.
      99926    2    1    2    0    0  0.00000000000E+00 -0.14210854715E-13  0.10289252477E+03  0.46520025396E+03  0.45367874607E+03 0.  0.
      99925    2    3    3    0    0 -0.73224870515E+02  0.74088571116E+02  0.10677577605E+03  0.30237032498E+03  0.26301283057E+03 0.  0.
         25    1    4    4    0    0  0.52025179649E+01  0.37971777320E+02  0.52606181804E+02  0.14101007244E+03  0.12509000000E+03 0.  0.
         25    1    3    3    0    0  0.73224870515E+02 -0.74088571116E+02 -0.38832512816E+01  0.16282992898E+03  0.12509000000E+03 0.  0.
         25    1    4    4    0    0 -0.78427388479E+02  0.36116793796E+02  0.54169594249E+02  0.16136025254E+03  0.12509000000E+03 0.  0.
<mgrwt>
<rscale>  2 0.45367875E+03</rscale>
<asrwt>0</asrwt>
<pdfrwt beam="1">  1       21 0.41771528E-01 0.45367875E+03</pdfrwt>
<pdfrwt beam="2">  1       21 0.26640274E-01 0.45367875E+03</pdfrwt>
<totfact> 0.68509913E+04</totfact>
</mgrwt>
</event>
<event>
 7    0  0.4725730E-002  0.4536276E+03  0.7546771E-02  0.1026646E+00
         21   -1    0    0  502  501  0.00000000000E+00  0.00000000000E+00  0.37798368360E+03  0.37798368360E+03  0.00000000000E+00 0.  1.
         21   -1    0    0  501  502 -0.00000000000E+00 -0.00000000000E+00 -0.13610241557E+03  0.13610241557E+03  0.00000000000E+00 0.  1.
      99926    2    1    2    0    0  0.17763568394E-14  0.14210854715E-13  0.24188126804E+03  0.51408609917E+03  0.45362756699E+03 0.  0.
      99925    2    3    3    0    0  0.11873594316E+02  0.97409182935E+02  0.21330537402E+03  0.35255089873E+03  0.26298939608E+03 0.  0.
         25    1    4    4    0    0 -0.10495991770E+02  0.65744763410E+02  0.15246589460E+03  0.20814873738E+03  0.12509000000E+03 0.  0.
         25    1    3    3    0    0 -0.11873594316E+02 -0.97409182935E+02  0.28575894020E+02  0.16153520044E+03  0.12509000000E+03 0.  0.
         25    1    4    4    0    0  0.22369586086E+02  0.31664419524E+02  0.60839479421E+02  0.14440216135E+03  0.12509000000E+03 0.  0.
<mgrwt>
<rscale>  2 0.45362757E+03</rscale>
<asrwt>0</asrwt>
<pdfrwt beam="1">  1       21 0.55585836E-01 0.45362757E+03</pdfrwt>
<pdfrwt beam="2">  1       21 0.20015061E-01 0.45362757E+03</pdfrwt>
<totfact> 0.64996940E+04</totfact>
</mgrwt>
</event>
<event>
 7    0  0.4725730E-002  0.4578749E+03  0.7546771E-02  0.1025399E+00
         21   -1    0    0  502  501  0.00000000000E+00  0.00000000000E+00  0.79252869492E+02  0.79252869492E+02  0.00000000000E+00 0.  1.
         21   -1    0    0  501  502 -0.00000000000E+00 -0.00000000000E+00 -0.66133081365E+03  0.66133081365E+03  0.00000000000E+00 0.  1.
      99926    2    1    2    0    0  0.00000000000E+00 -0.14210854715E-13 -0.58207794416E+03  0.74058368314E+03  0.45787493780E+03 0.  0.
      99925    2    3    3    0    0  0.24392235899E+02 -0.11292749975E+03 -0.35315436922E+03  0.45527488091E+03  0.26307718889E+03 0.  0.
         25    1    3    3    0    0 -0.24392235899E+02  0.11292749975E+03 -0.22892357494E+03  0.28530880223E+03  0.12509000000E+03 0.  0.
         25    1    4    4    0    0  0.58350038822E+01 -0.98242348713E+02 -0.17865451023E+03  0.23927086843E+03  0.12509000000E+03 0.  0.
         25    1    4    4    0    0  0.18557232016E+02 -0.14685151032E+02 -0.17449985899E+03  0.21600401248E+03  0.12509000000E+03 0.  0.
<mgrwt>
<rscale>  2 0.45787494E+03</rscale>
<asrwt>0</asrwt>
<pdfrwt beam="1">  1       21 0.11654833E-01 0.45787494E+03</pdfrwt>
<pdfrwt beam="2">  1       21 0.97254534E-01 0.45787494E+03</pdfrwt>
<totfact> 0.49623213E+04</totfact>
</mgrwt>
</event>
<event>
 7    0  0.4725730E-002  0.4599985E+03  0.7546771E-02  0.1024782E+00
         21   -1    0    0  502  501  0.00000000000E+00  0.00000000000E+00  0.39206574441E+03  0.39206574441E+03  0.00000000000E+00 0.  1.
         21   -1    0    0  501  502 -0.00000000000E+00 -0.00000000000E+00 -0.13492547609E+03  0.13492547609E+03  0.00000000000E+00 0.  1.
      99926    2    1    2    0    0  0.00000000000E+00  0.71054273576E-14  0.25714026832E+03  0.52699122050E+03  0.45999850966E+03 0.  0.
      99925    2    3    3    0    0 -0.10513103998E+03  0.49350704560E+02  0.18439583271E+03  0.34144529998E+03  0.26285935812E+03 0.  0.
         25    1    4    4    0    0 -0.38074868700E+02  0.55373228661E+02  0.11804482530E+03  0.18465638077E+03  0.12509000000E+03 0.  0.
         25    1    3    3    0    0  0.10513103998E+03 -0.49350704560E+02  0.72744435607E+02  0.18554592052E+03  0.12509000000E+03 0.  0.
         25    1    4    4    0    0 -0.67056171282E+02 -0.60225241011E+01  0.66351007414E+02  0.15678891921E+03  0.12509000000E+03 0.  0.
<mgrwt>
<rscale>  2 0.45999851E+03</rscale>
<asrwt>0</asrwt>
<pdfrwt beam="1">  1       21 0.57656727E-01 0.45999851E+03</pdfrwt>
<pdfrwt beam="2">  1       21 0.19841982E-01 0.45999851E+03</pdfrwt>
<totfact> 0.60959059E+04</totfact>
</mgrwt>
</event>
<event>
 7    0  0.4725730E-002  0.4556539E+03  0.7546771E-02  0.1026049E+00
         21   -1    0    0  502  501  0.00000000000E+00  0.00000000000E+00  0.10126448040E+04  0.10126448040E+04  0.00000000000E+00 0. -1.
         21   -1    0    0  501  502 -0.00000000000E+00 -0.00000000000E+00 -0.51256987508E+02  0.51256987508E+02  0.00000000000E+00 0. -1.
      99926    2    1    2    0    0  0.00000000000E+00 -0.14210854715E-13  0.96138781645E+03  0.10639017915E+04  0.45565391282E+03 0.  0.
      99925    2    3    3    0    0 -0.37379813837E+02 -0.98154989055E+02  0.50555719228E+03  0.57969035171E+03  0.26347898747E+03 0.  0.
         25    1    4    4    0    0 -0.56623804908E+02 -0.52750301194E+02  0.22887393124E+03  0.27206549590E+03  0.12509000000E+03 0.  0.
         25    1    4    4    0    0  0.19243991071E+02 -0.45404687860E+02  0.27668326104E+03  0.30762485581E+03  0.12509000000E+03 0.  0.
         25    1    3    3    0    0  0.37379813837E+02  0.98154989055E+02  0.45583062417E+03  0.48421143976E+03  0.12509000000E+03 0.  0.
<mgrwt>
<rscale>  2 0.45565391E+03</rscale>
<asrwt>0</asrwt>
<pdfrwt beam="1">  1       21 0.14891834E+00 0.45565391E+03</pdfrwt>
<pdfrwt beam="2">  1       21 0.75377929E-02 0.45565391E+03</pdfrwt>
<totfact> 0.36584341E+04</totfact>
</mgrwt>
</event>
<event>
 7    0  0.4725730E-002  0.4594401E+03  0.7546771E-02  0.1024944E+00
         21   -1    0    0  502  501  0.00000000000E+00  0.00000000000E+00  0.25305448856E+03  0.25305448856E+03  0.00000000000E+00 0. -1.
         21   -1    0    0  501  502 -0.00000000000E+00 -0.00000000000E+00 -0.20853732896E+03  0.20853732896E+03  0.00000000000E+00 0. -1.
      99926    2    1    2    0    0  0.00000000000E+00  0.14210854715E-13  0.44517159602E+02  0.46159181752E+03  0.45944012504E+03 0.  0.
      99925    2    3    3    0    0 -0.78175477252E+02  0.79490663976E+02 -0.86968046135E+01  0.28578110968E+03  0.26299246631E+03 0.  0.
         25    1    3    3    0    0  0.78175477252E+02 -0.79490663976E+02  0.53213964215E+02  0.17581070784E+03  0.12509000000E+03 0.  0.
         25    1    4    4    0    0 -0.51014072891E+02  0.75111194685E+02 -0.25312392409E+02  0.15662807063E+03  0.12509000000E+03 0.  0.
         25    1    4    4    0    0 -0.27161404360E+02  0.43794692905E+01  0.16615587795E+02  0.12915303905E+03  0.12509000000E+03 0.  0.
<mgrwt>
<rscale>  2 0.45944013E+03</rscale>
<asrwt>0</asrwt>
<pdfrwt beam="1">  1       21 0.37213895E-01 0.45944013E+03</pdfrwt>
<pdfrwt beam="2">  1       21 0.30667254E-01 0.45944013E+03</pdfrwt>
<totfact> 0.65706795E+04</totfact>
</mgrwt>
</event>
<event>
 7    0  0.4725730E-002  0.4598873E+03  0.7546771E-02  0.1024814E+00
         21   -1    0    0  502  501  0.00000000000E+00  0.00000000000E+00  0.42111358274E+03  0.42111358274E+03  0.00000000000E+00 0. -1.
         21   -1    0    0  501  502 -0.00000000000E+00 -0.00000000000E+00 -0.12555777090E+03  0.12555777090E+03  0.00000000000E+00 0. -1.
      99926    2    1    2    0    0  0.00000000000E+00 -0.35527136788E-14  0.29555581184E+03  0.54667135364E+03  0.45988730247E+03 0.  0.
      99925    2    3    3    0    0  0.24120778337E+02  0.27126203726E+02  0.31822602498E+03  0.41446284582E+03  0.26304753319E+03 0.  0.
         25    1    4    4    0    0  0.32998398107E+01 -0.15248691854E+02  0.11165666663E+03  0.16839872579E+03  0.12509000000E+03 0.  0.
         25    1    3    3    0    0 -0.24120778337E+02 -0.27126203726E+02 -0.22670213133E+02  0.13220850782E+03  0.12509000000E+03 0.  0.
         25    1    4    4    0    0  0.20820938527E+02  0.42374895580E+02  0.20656935835E+03  0.24606412003E+03  0.12509000000E+03 0.  0.
<mgrwt>
<rscale>  2 0.45988730E+03</rscale>
<asrwt>0</asrwt>
<pdfrwt beam="1">  1       21 0.61928468E-01 0.45988730E+03</pdfrwt>
<pdfrwt beam="2">  1       21 0.18464378E-01 0.45988730E+03</pdfrwt>
<totfact> 0.59742914E+04</totfact>
</mgrwt>
</event>
<event>
 7    0  0.4725730E-002  0.4486394E+03  0.7546771E-02  0.1028129E+00
         21   -1    0    0  502  501  0.00000000000E+00  0.00000000000E+00  0.14076433243E+03  0.14076433243E+03  0.00000000000E+00 0. -1.
         21   -1    0    0  501  502 -0.00000000000E+00 -0.00000000000E+00 -0.35747206812E+03  0.35747206812E+03  0.00000000000E+00 0. -1.
      99926    2    1    2    0    0 -0.17763568394E-14  0.00000000000E+00 -0.21670773569E+03  0.49823640055E+03  0.44863935196E+03 0.  0.
      99925    2    3    3    0    0  0.13160647398E+02  0.54949963526E+02 -0.35940230190E+02  0.27126261291E+03  0.26286689386E+03 0.  0.
         25    1    4    4    0    0  0.31614067182E+02  0.55133188986E+02 -0.19207394985E+01  0.14032218325E+03  0.12509000000E+03 0.  0.
         25    1    4    4    0    0 -0.18453419784E+02 -0.18322545959E+00 -0.34019490691E+02  0.13094042966E+03  0.12509000000E+03 0.  0.
         25    1    3    3    0    0 -0.13160647398E+02 -0.54949963526E+02 -0.18076750550E+03  0.22697378764E+03  0.12509000000E+03 0.  0.
<mgrwt>
<rscale>  2 0.44863935E+03</rscale>
<asrwt>0</asrwt>
<pdfrwt beam="1">  1       21 0.20700637E-01 0.44863935E+03</pdfrwt>
<pdfrwt beam="2">  1       21 0.52569421E-01 0.44863935E+03</pdfrwt>
<totfact> 0.68803516E+04</totfact>
</mgrwt>
</event>
<event>
 7    0  0.4725730E-002  0.4496403E+03  0.7546771E-02  0.1027829E+00
         21   -1    0    0  502  501  0.00000000000E+00  0.00000000000E+00  0.11891479604E+03  0.11891479604E+03  0.00000000000E+00 0.  1.
         21   -1    0    0  501  502 -0.00000000000E+00 -0.00000000000E+00 -0.42504474045E+03  0.42504474045E+03  0.00000000000E+00 0.  1.
      99926    2    1    2    0    0 -0.14210854715E-13  0.00000000000E+00 -0.30612994441E+03  0.54395953649E+03  0.44964033902E+03 0.  0.
      99925    2    3    3    0    0 -0.83114397795E+02 -0.63067973607E+02 -0.22273600773E+03  0.36096328191E+03  0.26419233398E+03 0.  0.
         25    1    4    4    0    0 -0.97403635105E+01 -0.21658672255E+01 -0.82014567464E+02  0.14991151736E+03  0.12509000000E+03 0.  0.
         25    1    3    3    0    0  0.83114397795E+02  0.63067973607E+02 -0.83393936684E+02  0.18299625458E+03  0.12509000000E+03 0.  0.
         25    1    4    4    0    0 -0.73374034284E+02 -0.60902106381E+02 -0.14072144026E+03  0.21105176455E+03  0.12509000000E+03 0.  0.
<mgrwt>
<rscale>  2 0.44964034E+03</rscale>
<asrwt>0</asrwt>
<pdfrwt beam="1">  1       21 0.17487470E-01 0.44964034E+03</pdfrwt>
<pdfrwt beam="2">  1       21 0.62506580E-01 0.44964034E+03</pdfrwt>
<totfact> 0.64979777E+04</totfact>
</mgrwt>
</event>
<event>
 7    0  0.4725730E-002  0.4677110E+03  0.7546771E-02  0.1022568E+00
         21   -1    0    0  502  501  0.00000000000E+00  0.00000000000E+00  0.22653443353E+03  0.22653443353E+03  0.00000000000E+00 0.  1.
         21   -1    0    0  501  502 -0.00000000000E+00 -0.00000000000E+00 -0.24141313951E+03  0.24141313951E+03  0.00000000000E+00 0.  1.
      99926    2    1    2    0    0  0.00000000000E+00  0.00000000000E+00 -0.14878705974E+02  0.46794757304E+03  0.46771097402E+03 0.  0.
      99925    2    3    3    0    0  0.10784030904E+02 -0.26756899311E+01  0.11512427135E+03  0.28719432452E+03  0.26287549818E+03 0.  0.
         25    1    4    4    0    0 -0.34150883787E+02  0.67895575250E+01  0.55444881708E+02  0.14118790303E+03  0.12509000000E+03 0.  0.
         25    1    4    4    0    0  0.44934914690E+02 -0.94652474561E+01  0.59679389638E+02  0.14600642149E+03  0.12509000000E+03 0.  0.
         25    1    3    3    0    0 -0.10784030904E+02  0.26756899311E+01 -0.13000297732E+03  0.18075324852E+03  0.12509000000E+03 0.  0.
<mgrwt>
<rscale>  2 0.46771097E+03</rscale>
<asrwt>0</asrwt>
<pdfrwt beam="1">  1       21 0.33313888E-01 0.46771097E+03</pdfrwt>
<pdfrwt beam="2">  1       21 0.35501932E-01 0.46771097E+03</pdfrwt>
<totfact> 0.61164787E+04</totfact>
</mgrwt>
</event>
<event>
 7    0  0.4725730E-002  0.4488853E+03  0.7546771E-02  0.1028055E+00
         21   -1    0    0  502  501  0.00000000000E+00  0.00000000000E+00  0.79066950664E+03  0.79066950664E+03  0.00000000000E+00 0. -1.
         21   -1    0    0  501  502 -0.00000000000E+00 -0.00000000000E+00 -0.63711198971E+02  0.63711198971E+02  0.00000000000E+00 0. -1.
      99926    2    1    2    0    0  0.00000000000E+00 -0.71054273576E-14  0.72695830767E+03  0.85438070561E+03  0.44888529607E+03 0.  0.
      99925    2    3    3    0    0 -0.20164788274E+02 -0.53053700690E+02  0.63342571685E+03  0.68819656832E+03  0.26299251707E+03 0.  0.
         25    1    4    4    0    0  0.16445217062E+02 -0.11311767793E+02  0.23569538851E+03  0.26757844741E+03  0.12509000000E+03 0.  0.
         25    1    4    4    0    0 -0.36610005336E+02 -0.41741932897E+02  0.39773032834E+03  0.42061812090E+03  0.12509000000E+03 0.  0.
         25    1    3    3    0    0  0.20164788274E+02  0.53053700690E+02  0.93532590825E+02  0.16618413730E+03  0.12509000000E+03 0.  0.
<mgrwt>
<rscale>  2 0.44888530E+03</rscale>
<asrwt>0</asrwt>
<pdfrwt beam="1">  1       21 0.11627492E+00 0.44888530E+03</pdfrwt>
<pdfrwt beam="2">  1       21 0.93692944E-02 0.44888530E+03</pdfrwt>
<totfact> 0.47480750E+04</totfact>
</mgrwt>
</event>
<event>
 7    0  0.4725730E-002  0.4529832E+03  0.7546771E-02  0.1026836E+00
         21   -1    0    0  502  501  0.00000000000E+00  0.00000000000E+00  0.81199600376E+02  0.81199600376E+02  0.00000000000E+00 0. -1.
         21   -1    0    0  501  502 -0.00000000000E+00 -0.00000000000E+00 -0.63175736592E+03  0.63175736592E+03  0.00000000000E+00 0. -1.
      99926    2    1    2    0    0  0.00000000000E+00  0.00000000000E+00 -0.55055776555E+03  0.71295696630E+03  0.45298320343E+03 0.  0.
      99925    2    3    3    0    0  0.19024752832E+02 -0.29243691702E+02 -0.51345239736E+03  0.57789604977E+03  0.26289417122E+03 0.  0.
         25    1    4    4    0    0  0.13571615814E+02  0.25397284268E+02 -0.23684874713E+03  0.26939570881E+03  0.12509000000E+03 0.  0.
         25    1    4    4    0    0  0.54531370174E+01 -0.54640975970E+02 -0.27660365023E+03  0.30850034097E+03  0.12509000000E+03 0.  0.
         25    1    3    3    0    0 -0.19024752832E+02  0.29243691702E+02 -0.37105368186E+02  0.13506091653E+03  0.12509000000E+03 0.  0.
<mgrwt>
<rscale>  2 0.45298320E+03</rscale>
<asrwt>0</asrwt>
<pdfrwt beam="1">  1       21 0.11941118E-01 0.45298320E+03</pdfrwt>
<pdfrwt beam="2">  1       21 0.92905490E-01 0.45298320E+03</pdfrwt>
<totfact> 0.53041712E+04</totfact>
</mgrwt>
</event>
<event>
 7    0  0.4725730E-002  0.4579767E+03  0.7546771E-02  0.1025370E+00
         21   -1    0    0  502  501  0.00000000000E+00  0.00000000000E+00  0.91882580753E+02  0.91882580753E+02  0.00000000000E+00 0.  1.
         21   -1    0    0  501  502 -0.00000000000E+00 -0.00000000000E+00 -0.57068121906E+03  0.57068121906E+03  0.00000000000E+00 0.  1.
      99926    2    1    2    0    0 -0.71054273576E-14  0.00000000000E+00 -0.47879863831E+03  0.66256379982E+03  0.45797669458E+03 0.  0.
      99925    2    3    3    0    0  0.24351600897E+02 -0.10072070840E+03 -0.22507334012E+03  0.36129698019E+03  0.26294455289E+03 0.  0.
         25    1    4    4    0    0  0.42641809407E+02 -0.26032349020E+02 -0.91860702521E+02  0.16303957763E+03  0.12509000000E+03 0.  0.
         25    1    3    3    0    0 -0.24351600897E+02  0.10072070840E+03 -0.25372529819E+03  0.30126681963E+03  0.12509000000E+03 0.  0.
         25    1    4    4    0    0 -0.18290208510E+02 -0.74688359382E+02 -0.13321263760E+03  0.19825740256E+03  0.12509000000E+03 0.  0.
<mgrwt>
<rscale>  2 0.45797669E+03</rscale>
<asrwt>0</asrwt>
<pdfrwt beam="1">  1       21 0.13512144E-01 0.45797669E+03</pdfrwt>
<pdfrwt beam="2">  1       21 0.83923712E-01 0.45797669E+03</pdfrwt>
<totfact> 0.53710910E+04</totfact>
</mgrwt>
</event>
<event>
 7    0  0.4725730E-002  0.4670048E+03  0.7546771E-02  0.1022769E+00
         21   -1    0    0  502  501  0.00000000000E+00  0.00000000000E+00  0.21809072367E+03  0.21809072367E+03  0.00000000000E+00 0. -1.
         21   -1    0    0  501  502 -0.00000000000E+00 -0.00000000000E+00 -0.25000321312E+03  0.25000321312E+03  0.00000000000E+00 0. -1.
      99926    2    1    2    0    0  0.00000000000E+00  0.71054273576E-14 -0.31912489453E+02  0.46809393679E+03  0.46700484652E+03 0.  0.
      99925    2    3    3    0    0  0.11034234327E+03  0.56277453225E+02 -0.11610620506E+02  0.29088711287E+03  0.26294090870E+03 0.  0.
         25    1    4    4    0    0  0.44942474583E+02  0.67325987758E+02 -0.91849643978E+01  0.14927989255E+03  0.12509000000E+03 0.  0.
         25    1    3    3    0    0 -0.11034234327E+03 -0.56277453225E+02 -0.20301868946E+02  0.17720682392E+03  0.12509000000E+03 0.  0.
         25    1    4    4    0    0  0.65399868689E+02 -0.11048534533E+02 -0.24256561087E+01  0.14160722032E+03  0.12509000000E+03 0.  0.
<mgrwt>
<rscale>  2 0.46700485E+03</rscale>
<asrwt>0</asrwt>
<pdfrwt beam="1">  1       21 0.32072165E-01 0.46700485E+03</pdfrwt>
<pdfrwt beam="2">  1       21 0.36765178E-01 0.46700485E+03</pdfrwt>
<totfact> 0.61492558E+04</totfact>
</mgrwt>
</event>
<event>
 7    0  0.4725730E-002  0.4562092E+03  0.7546771E-02  0.1025886E+00
         21   -1    0    0  502  501  0.00000000000E+00  0.00000000000E+00  0.11092268222E+03  0.11092268222E+03  0.00000000000E+00 0. -1.
         21   -1    0    0  501  502 -0.00000000000E+00 -0.00000000000E+00 -0.46908095851E+03  0.46908095851E+03  0.00000000000E+00 0. -1.
      99926    2    1    2    0    0  0.22204460493E-15  0.00000000000E+00 -0.35815827629E+03  0.58000364073E+03  0.45620924189E+03 0.  0.
      99925    2    3    3    0    0  0.12870781151E+01  0.84006343356E+02 -0.32362653394E+03  0.42541168873E+03  0.26302518728E+03 0.  0.
         25    1    4    4    0    0 -0.22913957977E+02  0.16353030659E+02 -0.18691281227E+03  0.22666358016E+03  0.12509000000E+03 0.  0.
         25    1    3    3    0    0 -0.12870781151E+01 -0.84006343356E+02 -0.34531742349E+02  0.15459195200E+03  0.12509000000E+03 0.  0.
         25    1    4    4    0    0  0.24201036092E+02  0.67653312696E+02 -0.13671372168E+03  0.19874810857E+03  0.12509000000E+03 0.  0.
<mgrwt>
<rscale>  2 0.45620924E+03</rscale>
<asrwt>0</asrwt>
<pdfrwt beam="1">  1       21 0.16312159E-01 0.45620924E+03</pdfrwt>
<pdfrwt beam="2">  1       21 0.68982493E-01 0.45620924E+03</pdfrwt>
<totfact> 0.59356805E+04</totfact>
</mgrwt>
</event>
<event>
 7    0  0.4725730E-002  0.4444531E+03  0.7546771E-02  0.1029389E+00
         21   -1    0    0  502  501  0.00000000000E+00  0.00000000000E+00  0.26099105415E+03  0.26099105415E+03  0.00000000000E+00 0. -1.
         21   -1    0    0  501  502 -0.00000000000E+00 -0.00000000000E+00 -0.18921966810E+03  0.18921966810E+03  0.00000000000E+00 0. -1.
      99926    2    1    2    0    0  0.00000000000E+00  0.35527136788E-14  0.71771386046E+02  0.45021072224E+03  0.44445310503E+03 0.  0.
      99925    2    3    3    0    0  0.40020019976E+02  0.19890697630E+02  0.13964520945E+03  0.30104100060E+03  0.26292139066E+03 0.  0.
         25    1    3    3    0    0 -0.40020019976E+02 -0.19890697630E+02 -0.67873823409E+02  0.14916972164E+03  0.12509000000E+03 0.  0.
         25    1    4    4    0    0  0.37230403622E+02  0.46908060742E+02  0.72185874880E+02  0.15634825790E+03  0.12509000000E+03 0.  0.
         25    1    4    4    0    0  0.27896163538E+01 -0.27017363112E+02  0.67459334575E+02  0.14469274270E+03  0.12509000000E+03 0.  0.
<mgrwt>
<rscale>  2 0.44445311E+03</rscale>
<asrwt>0</asrwt>
<pdfrwt beam="1">  1       21 0.38381038E-01 0.44445311E+03</pdfrwt>
<pdfrwt beam="2">  1       21 0.27826422E-01 0.44445311E+03</pdfrwt>
<totfact> 0.75013218E+04</totfact>
</mgrwt>
</event>
<event>
 7    0  0.4725730E-002  0.4569172E+03  0.7546771E-02  0.1025679E+00
         21   -1    0    0  502  501  0.00000000000E+00  0.00000000000E+00  0.66625882252E+03  0.66625882252E+03  0.00000000000E+00 0.  1.
         21   -1    0    0  501  502 -0.00000000000E+00 -0.00000000000E+00 -0.78337925939E+02  0.78337925939E+02  0.00000000000E+00 0.  1.
      99926    2    1    2    0    0  0.00000000000E+00  0.00000000000E+00  0.58792089658E+03  0.74459674845E+03  0.45691721042E+03 0.  0.
      99925    2    3    3    0    0  0.22551733961E+02 -0.58841268871E+02  0.21236645997E+03  0.34377319802E+03  0.26288709122E+03 0.  0.
         25    1    4    4    0    0  0.32868748407E+02 -0.36399911394E+02  0.66120672049E+02  0.14974898846E+03  0.12509000000E+03 0.  0.
         25    1    4    4    0    0 -0.10317014446E+02 -0.22441357477E+02  0.14624578792E+03  0.19402420956E+03  0.12509000000E+03 0.  0.
         25    1    3    3    0    0 -0.22551733961E+02  0.58841268871E+02  0.37555443661E+03  0.40082355044E+03  0.12509000000E+03 0.  0.
<mgrwt>
<rscale>  2 0.45691721E+03</rscale>
<asrwt>0</asrwt>
<pdfrwt beam="1">  1       21 0.97979236E-01 0.45691721E+03</pdfrwt>
<pdfrwt beam="2">  1       21 0.11520284E-01 0.45691721E+03</pdfrwt>
<totfact> 0.49792965E+04</totfact>
</mgrwt>
</event>
<event>
 7    0  0.4725730E-002  0.4558993E+03  0.7546771E-02  0.1025977E+00
         21   -1    0    0  502  501  0.00000000000E+00  0.00000000000E+00  0.15908807087E+03  0.15908807087E+03  0.00000000000E+00 0. -1.
         21   -1    0    0  501  502 -0.00000000000E+00 -0.00000000000E+00 -0.32661805430E+03  0.32661805430E+03  0.00000000000E+00 0. -1.
      99926    2    1    2    0    0  0.00000000000E+00  0.00000000000E+00 -0.16752998344E+03  0.48570612517E+03  0.45589927031E+03 0.  0.
      99925    2    3    3    0    0 -0.69744701589E+02  0.69449323220E+01 -0.20113378232E+03  0.33843332087E+03  0.26300144258E+03 0.  0.
         25    1    4    4    0    0 -0.29905250747E+02 -0.58455494400E+01 -0.14817781939E+03  0.19629739868E+03  0.12509000000E+03 0.  0.
         25    1    3    3    0    0  0.69744701589E+02 -0.69449323220E+01  0.33603798886E+02  0.14727280429E+03  0.12509000000E+03 0.  0.
         25    1    4    4    0    0 -0.39839450842E+02  0.12790481762E+02 -0.52955962934E+02  0.14213592219E+03  0.12509000000E+03 0.  0.
<mgrwt>
<rscale>  2 0.45589927E+03</rscale>
<asrwt>0</asrwt>
<pdfrwt beam="1">  1       21 0.23395305E-01 0.45589927E+03</pdfrwt>
<pdfrwt beam="2">  1       21 0.48032066E-01 0.45589927E+03</pdfrwt>
<totfact> 0.65815928E+04</totfact>
</mgrwt>
</event>
<event>
 7    0  0.4725730E-002  0.4655469E+03  0.7546771E-02  0.1023185E+00
         21   -1    0    0  502  501  0.00000000000E+00  0.00000000000E+00  0.73276948503E+03  0.73276948503E+03  0.00000000000E+00 0. -1.
         21   -1    0    0  501  502 -0.00000000000E+00 -0.00000000000E+00 -0.73943423088E+02  0.73943423088E+02  0.00000000000E+00 0. -1.
      99926    2    1    2    0    0 -0.71054273576E-14 -0.14210854715E-13  0.65882606195E+03  0.80671290812E+03  0.46554692162E+03 0.  0.
      99925    2    3    3    0    0 -0.53301714848E+02 -0.74452273448E+02  0.55258434687E+03  0.61877934553E+03  0.26297186963E+03 0.  0.
         25    1    4    4    0    0  0.14045848409E+02 -0.37433313674E+02  0.27578403768E+03  0.30545520518E+03  0.12509000000E+03 0.  0.
         25    1    3    3    0    0  0.53301714848E+02  0.74452273448E+02  0.10624171508E+03  0.18793356260E+03  0.12509000000E+03 0.  0.
         25    1    4    4    0    0 -0.67347563256E+02 -0.37018959774E+02  0.27680030919E+03  0.31332414035E+03  0.12509000000E+03 0.  0.
<mgrwt>
<rscale>  2 0.46554692E+03</rscale>
<asrwt>0</asrwt>
<pdfrwt beam="1">  1       21 0.10776021E+00 0.46554692E+03</pdfrwt>
<pdfrwt beam="2">  1       21 0.10874033E-01 0.46554692E+03</pdfrwt>
<totfact> 0.43710258E+04</totfact>
</mgrwt>
</event>
<event>
 7    0  0.4725730E-002  0.4482112E+03  0.7546771E-02  0.1028257E+00
         21   -1    0    0  502  501  0.00000000000E+00  0.00000000000E+00  0.79291409276E+02  0.79291409276E+02  0.00000000000E+00 0.  1.
         21   -1    0    0  501  502 -0.00000000000E+00 -0.00000000000E+00 -0.63340166544E+03  0.63340166544E+03  0.00000000000E+00 0.  1.
      99926    2    1    2    0    0  0.00000000000E+00  0.00000000000E+00 -0.55411025616E+03  0.71269307471E+03  0.44821115867E+03 0.  0.
      99925    2    3    3    0    0 -0.83403749452E+01  0.10631201566E+03 -0.35689477780E+03  0.45595729705E+03  0.26296647654E+03 0.  0.
         25    1    4    4    0    0 -0.57353698070E-01  0.83265800460E+02 -0.23909025253E+03  0.28239131320E+03  0.12509000000E+03 0.  0.
         25    1    4    4    0    0 -0.82830212471E+01  0.23046215195E+02 -0.11780452527E+03  0.17356598385E+03  0.12509000000E+03 0.  0.
         25    1    3    3    0    0  0.83403749452E+01 -0.10631201566E+03 -0.19721547836E+03  0.25673577766E+03  0.12509000000E+03 0.  0.
<mgrwt>
<rscale>  2 0.44821116E+03</rscale>
<asrwt>0</asrwt>
<pdfrwt beam="1">  1       21 0.11660501E-01 0.44821116E+03</pdfrwt>
<pdfrwt beam="2">  1       21 0.93147305E-01 0.44821116E+03</pdfrwt>
<totfact> 0.55103766E+04</totfact>
</mgrwt>
</event>
<event>
 7    0  0.4725730E-002  0.4688483E+03  0.7546771E-02  0.1022246E+00
         21   -1    0    0  502  501  0.00000000000E+00  0.00000000000E+00  0.45663053811E+03  0.45663053811E+03  0.00000000000E+00 0.  1.
         21   -1    0    0  501  502 -0.00000000000E+00 -0.00000000000E+00 -0.12034823667E+03  0.12034823667E+03  0.00000000000E+00 0.  1.
      99926    2    1    2    0    0 -0.14210854715E-13  0.00000000000E+00  0.33628230144E+03  0.57697877478E+03  0.46884829134E+03 0.  0.
      99925    2    3    3    0    0 -0.11410568415E+03 -0.17974248268E+02  0.14836510586E+03  0.32339730612E+03  0.26311676536E+03 0.  0.
         25    1    3    3    0    0  0.11410568415E+03  0.17974248268E+02  0.18791719557E+03  0.25358146866E+03  0.12509000000E+03 0.  0.
         25    1    4    4    0    0 -0.49980186113E+02 -0.12599265390E+02  0.11791809604E+03  0.17946850968E+03  0.12509000000E+03 0.  0.
         25    1    4    4    0    0 -0.64125498033E+02 -0.53749828783E+01  0.30447009821E+02  0.14392879644E+03  0.12509000000E+03 0.  0.
<mgrwt>
<rscale>  2 0.46884829E+03</rscale>
<asrwt>0</asrwt>
<pdfrwt beam="1">  1       21 0.67151549E-01 0.46884829E+03</pdfrwt>
<pdfrwt beam="2">  1       21 0.17698270E-01 0.46884829E+03</pdfrwt>
<totfact> 0.53962329E+04</totfact>
</mgrwt>
</event>
<event>
 7    0  0.4725730E-002  0.4667296E+03  0.7546771E-02  0.1022847E+00
         21   -1    0    0  502  501  0.00000000000E+00  0.00000000000E+00  0.10923343314E+03  0.10923343314E+03  0.00000000000E+00 0.  1.
         21   -1    0    0  501  502 -0.00000000000E+00 -0.00000000000E+00 -0.49855731568E+03  0.49855731568E+03  0.00000000000E+00 0.  1.
      99926    2    1    2    0    0 -0.26645352591E-14  0.14210854715E-13 -0.38932388254E+03  0.60779074882E+03  0.46672958856E+03 0.  0.
      99925    2    3    3    0    0  0.64730717455E+01 -0.98567495435E+02 -0.33955883839E+03  0.44081314693E+03  0.26317023761E+03 0.  0.
         25    1    3    3    0    0 -0.64730717455E+01  0.98567495435E+02 -0.49765044151E+02  0.16697760189E+03  0.12509000000E+03 0.  0.
         25    1    4    4    0    0 -0.25227277306E+02 -0.78251121463E+02 -0.16495103694E+03  0.22274650663E+03  0.12509000000E+03 0.  0.
         25    1    4    4    0    0  0.31700349051E+02 -0.20316373973E+02 -0.17460780145E+03  0.21806664029E+03  0.12509000000E+03 0.  0.
<mgrwt>
<rscale>  2 0.46672959E+03</rscale>
<asrwt>0</asrwt>
<pdfrwt beam="1">  1       21 0.16063740E-01 0.46672959E+03</pdfrwt>
<pdfrwt beam="2">  1       21 0.73317252E-01 0.46672959E+03</pdfrwt>
<totfact> 0.53106497E+04</totfact>
</mgrwt>
</event>
<event>
 7    0  0.4725730E-002  0.4533865E+03  0.7546771E-02  0.1026717E+00
         21   -1    0    0  502  501  0.00000000000E+00  0.00000000000E+00  0.13847117211E+03  0.13847117211E+03  0.00000000000E+00 0. -1.
         21   -1    0    0  501  502 -0.00000000000E+00 -0.00000000000E+00 -0.37112295169E+03  0.37112295169E+03  0.00000000000E+00 0. -1.
      99926    2    1    2    0    0 -0.14210854715E-13  0.00000000000E+00 -0.23265177958E+03  0.50959412381E+03  0.45338650231E+03 0.  0.
      99925    2    3    3    0    0 -0.99350948565E+02 -0.18167926965E+02 -0.93242595344E+02  0.29679583129E+03  0.26304543207E+03 0.  0.
         25    1    4    4    0    0 -0.89451574479E+02 -0.14720872609E+02 -0.34934854646E+02  0.15838636443E+03  0.12509000000E+03 0.  0.
         25    1    4    4    0    0 -0.98993740859E+01 -0.34470543560E+01 -0.58307740698E+02  0.13840946686E+03  0.12509000000E+03 0.  0.
         25    1    3    3    0    0  0.99350948565E+02  0.18167926965E+02 -0.13940918424E+03  0.21279829252E+03  0.12509000000E+03 0.  0.
<mgrwt>
<rscale>  2 0.45338650E+03</rscale>
<asrwt>0</asrwt>
<pdfrwt beam="1">  1       21 0.20363408E-01 0.45338650E+03</pdfrwt>
<pdfrwt beam="2">  1       21 0.54576903E-01 0.45338650E+03</pdfrwt>
<totfact> 0.65435662E+04</totfact>
</mgrwt>
</event>
<event>
 7    0  0.4725730E-002  0.4462154E+03  0.7546771E-02  0.1028857E+00
         21   -1    0    0  502  501  0.00000000000E+00  0.00000000000E+00  0.12229044016E+03  0.12229044016E+03  0.00000000000E+00 0.  1.
         21   -1    0    0  501  502 -0.00000000000E+00 -0.00000000000E+00 -0.40703956535E+03  0.40703956535E+03  0.00000000000E+00 0.  1.
      99926    2    1    2    0    0  0.00000000000E+00  0.00000000000E+00 -0.28474912519E+03  0.52933000551E+03  0.44621540811E+03 0.  0.
      99925    2    3    3    0    0  0.36325955486E+02 -0.24828932700E+02 -0.29334939815E+03  0.39644839001E+03  0.26302358375E+03 0.  0.
         25    1    3    3    0    0 -0.36325955486E+02  0.24828932700E+02  0.86002729632E+01  0.13288161549E+03  0.12509000000E+03 0.  0.
         25    1    4    4    0    0  0.29877144761E+02  0.18875917632E+02 -0.11089545925E+03  0.17086326413E+03  0.12509000000E+03 0.  0.
         25    1    4    4    0    0  0.64488107252E+01 -0.43704850332E+02 -0.18245393890E+03  0.22558512589E+03  0.12509000000E+03 0.  0.
<mgrwt>
<rscale>  2 0.44621541E+03</rscale>
<asrwt>0</asrwt>
<pdfrwt beam="1">  1       21 0.17983888E-01 0.44621541E+03</pdfrwt>
<pdfrwt beam="2">  1       21 0.59858759E-01 0.44621541E+03</pdfrwt>
<totfact> 0.67849929E+04</totfact>
</mgrwt>
</event>
<event>
 7    0  0.4725730E-002  0.4553479E+03  0.7546771E-02  0.1026139E+00
         21   -1    0    0  502  501  0.00000000000E+00  0.00000000000E+00  0.24832312983E+03  0.24832312983E+03  0.00000000000E+00 0. -1.
         21   -1    0    0  501  502 -0.00000000000E+00 -0.00000000000E+00 -0.20874187527E+03  0.20874187527E+03  0.00000000000E+00 0. -1.
      99926    2    1    2    0    0 -0.14210854715E-13  0.00000000000E+00  0.39581254568E+02  0.45706500510E+03  0.45534793639E+03 0.  0.
      99925    2    3    3    0    0 -0.11231800824E+03 -0.96899812403E+01  0.39289194820E+02  0.28867015924E+03  0.26282615794E+03 0.  0.
         25    1    4    4    0    0 -0.16067405318E+02  0.90679536190E+01  0.26666604199E+02  0.12922463069E+03  0.12509000000E+03 0.  0.
         25    1    4    4    0    0 -0.96250602923E+02 -0.18757934859E+02  0.12622590621E+02  0.15944552856E+03  0.12509000000E+03 0.  0.
         25    1    3    3    0    0  0.11231800824E+03  0.96899812403E+01  0.29205974823E+00  0.16839484586E+03  0.12509000000E+03 0.  0.
<mgrwt>
<rscale>  2 0.45534794E+03</rscale>
<asrwt>0</asrwt>
<pdfrwt beam="1">  1       21 0.36518107E-01 0.45534794E+03</pdfrwt>
<pdfrwt beam="2">  1       21 0.30697335E-01 0.45534794E+03</pdfrwt>
<totfact> 0.68205261E+04</totfact>
</mgrwt>
</event>
<event>
 7    0  0.4725730E-002  0.4735326E+03  0.7546771E-02  0.1020928E+00
         21   -1    0    0  502  501  0.00000000000E+00  0.00000000000E+00  0.31252622705E+03  0.31252622705E+03  0.00000000000E+00 0. -1.
         21   -1    0    0  501  502 -0.00000000000E+00 -0.00000000000E+00 -0.17937143526E+03  0.17937143526E+03  0.00000000000E+00 0. -1.
      99926    2    1    2    0    0  0.00000000000E+00  0.00000000000E+00  0.13315479179E+03  0.49189766230E+03  0.47353258769E+03 0.  0.
      99925    2    3    3    0    0  0.11037920080E+03  0.66918386734E+02  0.95516877188E+02  0.30825191863E+03  0.26312379797E+03 0.  0.
         25    1    4    4    0    0  0.44519751814E+02 -0.27607252270E+01  0.64425623091E+02  0.14760690674E+03  0.12509000000E+03 0.  0.
         25    1    4    4    0    0  0.65859448991E+02  0.69679111961E+02  0.31091254097E+02  0.16064501189E+03  0.12509000000E+03 0.  0.
         25    1    3    3    0    0 -0.11037920080E+03 -0.66918386734E+02  0.37637914603E+02  0.18364574367E+03  0.12509000000E+03 0.  0.
<mgrwt>
<rscale>  2 0.47353259E+03</rscale>
<asrwt>0</asrwt>
<pdfrwt beam="1">  1       21 0.45959740E-01 0.47353259E+03</pdfrwt>
<pdfrwt beam="2">  1       21 0.26378152E-01 0.47353259E+03</pdfrwt>
<totfact> 0.56987919E+04</totfact>
</mgrwt>
</event>
<event>
 7    0  0.4725730E-002  0.4203003E+03  0.7546771E-02  0.1036969E+00
         21   -1    0    0  502  501  0.00000000000E+00  0.00000000000E+00  0.31597952582E+03  0.31597952582E+03  0.00000000000E+00 0. -1.
         21   -1    0    0  501  502 -0.00000000000E+00 -0.00000000000E+00 -0.13976562532E+03  0.13976562532E+03  0.00000000000E+00 0. -1.
      99926    2    1    2    0    0  0.00000000000E+00 -0.17763568394E-14  0.17621390050E+03  0.45574515113E+03  0.42030025464E+03 0.  0.
      99925    2    3    3    0    0 -0.70460662108E+02  0.10757671142E+02  0.14414973811E+03  0.30824582570E+03  0.26297511227E+03 0.  0.
         25    1    4    4    0    0 -0.52877377762E+02 -0.30146620923E+02  0.63756566191E+02  0.15302693771E+03  0.12509000000E+03 0.  0.
         25    1    4    4    0    0 -0.17583284346E+02  0.40904292066E+02  0.80393171923E+02  0.15521888799E+03  0.12509000000E+03 0.  0.
         25    1    3    3    0    0  0.70460662108E+02 -0.10757671142E+02  0.32064162388E+02  0.14749932543E+03  0.12509000000E+03 0.  0.
<mgrwt>
<rscale>  2 0.42030025E+03</rscale>
<asrwt>0</asrwt>
<pdfrwt beam="1">  1       21 0.46467577E-01 0.42030025E+03</pdfrwt>
<pdfrwt beam="2">  1       21 0.20553768E-01 0.42030025E+03</pdfrwt>
<totfact> 0.91139501E+04</totfact>
</mgrwt>
</event>
<event>
 7    0  0.4725730E-002  0.4606118E+03  0.7546771E-02  0.1024604E+00
         21   -1    0    0  502  501  0.00000000000E+00  0.00000000000E+00  0.13105292834E+03  0.13105292834E+03  0.00000000000E+00 0.  1.
         21   -1    0    0  501  502 -0.00000000000E+00 -0.00000000000E+00 -0.40472812266E+03  0.40472812266E+03  0.00000000000E+00 0.  1.
      99926    2    1    2    0    0  0.00000000000E+00 -0.71054273576E-14 -0.27367519432E+03  0.53578105100E+03  0.46061179167E+03 0.  0.
      99925    2    3    3    0    0  0.10350839202E+03  0.55810087350E+02 -0.18707925027E+03  0.34349189713E+03  0.26298152872E+03 0.  0.
         25    1    3    3    0    0 -0.10350839202E+03 -0.55810087350E+02 -0.86595944056E+02  0.19228915387E+03  0.12509000000E+03 0.  0.
         25    1    4    4    0    0  0.27438674630E+02  0.57903109972E+02 -0.10671013560E+03  0.17646589515E+03  0.12509000000E+03 0.  0.
         25    1    4    4    0    0  0.76069717387E+02 -0.20930226224E+01 -0.80369114666E+02  0.16702600199E+03  0.12509000000E+03 0.  0.
<mgrwt>
<rscale>  2 0.46061179E+03</rscale>
<asrwt>0</asrwt>
<pdfrwt beam="1">  1       21 0.19272490E-01 0.46061179E+03</pdfrwt>
<pdfrwt beam="2">  1       21 0.59518841E-01 0.46061179E+03</pdfrwt>
<totfact> 0.60099062E+04</totfact>
</mgrwt>
</event>
<event>
 7    0  0.4725730E-002  0.4567198E+03  0.7546771E-02  0.1025737E+00
         21   -1    0    0  502  501  0.00000000000E+00  0.00000000000E+00  0.29510069700E+03  0.29510069700E+03  0.00000000000E+00 0. -1.
         21   -1    0    0  501  502 -0.00000000000E+00 -0.00000000000E+00 -0.17671339509E+03  0.17671339509E+03  0.00000000000E+00 0. -1.
      99926    2    1    2    0    0  0.00000000000E+00 -0.17763568394E-14  0.11838730192E+03  0.47181409209E+03  0.45671980933E+03 0.  0.
      99925    2    3    3    0    0  0.10626897479E+03  0.28224565799E+01  0.11799889579E+03  0.30765343838E+03  0.26348783175E+03 0.  0.
         25    1    4    4    0    0  0.57019854271E+02  0.42080278262E+02  0.52642869675E+02  0.15310386483E+03  0.12509000000E+03 0.  0.
         25    1    3    3    0    0 -0.10626897479E+03 -0.28224565799E+01  0.38840612858E+00  0.16416065370E+03  0.12509000000E+03 0.  0.
         25    1    4    4    0    0  0.49249120521E+02 -0.39257821682E+02  0.65356026112E+02  0.15454957355E+03  0.12509000000E+03 0.  0.
<mgrwt>
<rscale>  2 0.45671981E+03</rscale>
<asrwt>0</asrwt>
<pdfrwt beam="1">  1       21 0.43397161E-01 0.45671981E+03</pdfrwt>
<pdfrwt beam="2">  1       21 0.25987264E-01 0.45671981E+03</pdfrwt>
<totfact> 0.66390587E+04</totfact>
</mgrwt>
</event>
<event>
 7    0  0.4725730E-002  0.4655101E+03  0.7546771E-02  0.1023195E+00
         21   -1    0    0  502  501  0.00000000000E+00  0.00000000000E+00  0.17402416095E+04  0.17402416095E+04  0.00000000000E+00 0.  1.
         21   -1    0    0  501  502 -0.00000000000E+00 -0.00000000000E+00 -0.31130688371E+02  0.31130688371E+02  0.00000000000E+00 0.  1.
      99926    2    1    2    0    0  0.00000000000E+00  0.00000000000E+00  0.17091109212E+04  0.17713722979E+04  0.46551012551E+03 0.  0.
      99925    2    3    3    0    0 -0.36361540763E+02  0.69609987730E+02  0.14246016363E+04  0.14508091165E+04  0.26303908103E+03 0.  0.
         25    1    4    4    0    0 -0.42649404473E+02  0.67793638157E+02  0.72031412572E+03  0.73546916787E+03  0.12509000000E+03 0.  0.
         25    1    3    3    0    0  0.36361540763E+02 -0.69609987730E+02  0.28450928483E+03  0.32056318144E+03  0.12509000000E+03 0.  0.
         25    1    4    4    0    0  0.62878637096E+01  0.18163495728E+01  0.70428751062E+03  0.71533994860E+03  0.12509000000E+03 0.  0.
<mgrwt>
<rscale>  2 0.46551013E+03</rscale>
<asrwt>0</asrwt>
<pdfrwt beam="1">  1       21 0.25591782E+00 0.46551013E+03</pdfrwt>
<pdfrwt beam="2">  1       21 0.45780436E-02 0.46551013E+03</pdfrwt>
<totfact> 0.16433721E+04</totfact>
</mgrwt>
</event>
<event>
 7    0  0.4725730E-002  0.4575992E+03  0.7546771E-02  0.1025480E+00
         21   -1    0    0  502  501  0.00000000000E+00  0.00000000000E+00  0.19005875665E+03  0.19005875665E+03  0.00000000000E+00 0.  1.
         21   -1    0    0  501  502 -0.00000000000E+00 -0.00000000000E+00 -0.27543720490E+03  0.27543720490E+03  0.00000000000E+00 0.  1.
      99926    2    1    2    0    0  0.00000000000E+00  0.00000000000E+00 -0.85378448249E+02  0.46549596154E+03  0.45759918137E+03 0.  0.
      99925    2    3    3    0    0  0.16966218875E+02 -0.80781499521E+02 -0.13593633421E+03  0.30732797748E+03  0.26297964852E+03 0.  0.
         25    1    3    3    0    0 -0.16966218875E+02  0.80781499521E+02  0.50557885964E+02  0.15816798406E+03  0.12509000000E+03 0.  0.
         25    1    4    4    0    0 -0.20658363995E+02 -0.68960065125E+02 -0.66236299234E+02  0.15879865875E+03  0.12509000000E+03 0.  0.
         25    1    4    4    0    0  0.37624582870E+02 -0.11821434395E+02 -0.69700034979E+02  0.14852931873E+03  0.12509000000E+03 0.  0.
<mgrwt>
<rscale>  2 0.45759918E+03</rscale>
<asrwt>0</asrwt>
<pdfrwt beam="1">  1       21 0.27949817E-01 0.45759918E+03</pdfrwt>
<pdfrwt beam="2">  1       21 0.40505471E-01 0.45759918E+03</pdfrwt>
<totfact> 0.66390972E+04</totfact>
</mgrwt>
</event>
<event>
 7    0  0.4725730E-002  0.4430942E+03  0.7546771E-02  0.1029802E+00
         21   -1    0    0  502  501  0.00000000000E+00  0.00000000000E+00  0.13725646446E+03  0.13725646446E+03  0.00000000000E+00 0.  1.
         21   -1    0    0  501  502 -0.00000000000E+00 -0.00000000000E+00 -0.35760147305E+03  0.35760147305E+03  0.00000000000E+00 0.  1.
      99926    2    1    2    0    0  0.00000000000E+00  0.00000000000E+00 -0.22034500859E+03  0.49485793750E+03  0.44309418355E+03 0.  0.
      99925    2    3    3    0    0 -0.29265042749E+02  0.97052382774E+02 -0.12535465002E+03  0.30791868520E+03  0.26234427893E+03 0.  0.
         25    1    4    4    0    0  0.26384653194E+01  0.85422446350E+02 -0.62832547968E+02  0.16401034426E+03  0.12509000000E+03 0.  0.
         25    1    3    3    0    0  0.29265042749E+02 -0.97052382774E+02 -0.94990358571E+02  0.18693925230E+03  0.12509000000E+03 0.  0.
         25    1    4    4    0    0 -0.31903508069E+02  0.11629936425E+02 -0.62522102056E+02  0.14390834095E+03  0.12509000000E+03 0.  0.
<mgrwt>
<rscale>  2 0.44309418E+03</rscale>
<asrwt>0</asrwt>
<pdfrwt beam="1">  1       21 0.20184774E-01 0.44309418E+03</pdfrwt>
<pdfrwt beam="2">  1       21 0.52588452E-01 0.44309418E+03</pdfrwt>
<totfact> 0.72221190E+04</totfact>
</mgrwt>
</event>
<event>
 7    0  0.4725730E-002  0.4628348E+03  0.7546771E-02  0.1023962E+00
         21   -1    0    0  502  501  0.00000000000E+00  0.00000000000E+00  0.43810570867E+02  0.43810570867E+02  0.00000000000E+00 0. -1.
         21   -1    0    0  501  502 -0.00000000000E+00 -0.00000000000E+00 -0.12223995656E+04  0.12223995656E+04  0.00000000000E+00 0. -1.
      99926    2    1    2    0    0  0.00000000000E+00  0.00000000000E+00 -0.11785889948E+04  0.12662101365E+04  0.46283484225E+03 0.  0.
      99925    2    3    3    0    0  0.10295651546E+03 -0.59795875221E+02 -0.78253061182E+03  0.83413914515E+03  0.26316983919E+03 0.  0.
         25    1    3    3    0    0 -0.10295651546E+03  0.59795875221E+02 -0.39605838296E+03  0.43207099137E+03  0.12509000000E+03 0.  0.
         25    1    4    4    0    0  0.83155684333E+02 -0.61192899460E+02 -0.43922494353E+03  0.46821522605E+03  0.12509000000E+03 0.  0.
         25    1    4    4    0    0  0.19800831131E+02  0.13970242389E+01 -0.34330566829E+03  0.36592391910E+03  0.12509000000E+03 0.  0.
<mgrwt>
<rscale>  2 0.46283484E+03</rscale>
<asrwt>0</asrwt>
<pdfrwt beam="1">  1       21 0.64427307E-02 0.46283484E+03</pdfrwt>
<pdfrwt beam="2">  1       21 0.17976465E+00 0.46283484E+03</pdfrwt>
<totfact> 0.28343752E+04</totfact>
</mgrwt>
</event>
<event>
 7    0  0.4725730E-002  0.4571714E+03  0.7546771E-02  0.1025605E+00
         21   -1    0    0  502  501  0.00000000000E+00  0.00000000000E+00  0.13841406802E+03  0.13841406802E+03  0.00000000000E+00 0. -1.
         21   -1    0    0  501  502 -0.00000000000E+00 -0.00000000000E+00 -0.37750076461E+03  0.37750076461E+03  0.00000000000E+00 0. -1.
      99926    2    1    2    0    0 -0.14210854715E-13  0.00000000000E+00 -0.23908669659E+03  0.51591483264E+03  0.45717137492E+03 0.  0.
      99925    2    3    3    0    0  0.10801723250E+03  0.24030260583E+02 -0.11380029729E+03  0.30713416808E+03  0.26293671025E+03 0.  0.
         25    1    4    4    0    0  0.66920224452E+02  0.33236284250E+02 -0.24445713880E+02  0.14774325047E+03  0.12509000000E+03 0.  0.
         25    1    3    3    0    0 -0.10801723250E+03 -0.24030260583E+02 -0.12528639930E+03  0.20878066456E+03  0.12509000000E+03 0.  0.
         25    1    4    4    0    0  0.41097008053E+02 -0.92060236674E+01 -0.89354583406E+02  0.15939091762E+03  0.12509000000E+03 0.  0.
<mgrwt>
<rscale>  2 0.45717137E+03</rscale>
<asrwt>0</asrwt>
<pdfrwt beam="1">  1       21 0.20355010E-01 0.45717137E+03</pdfrwt>
<pdfrwt beam="2">  1       21 0.55514818E-01 0.45717137E+03</pdfrwt>
<totfact> 0.63072668E+04</totfact>
</mgrwt>
</event>
<event>
 7    0  0.4725730E-002  0.4520276E+03  0.7546771E-02  0.1027119E+00
         21   -1    0    0  502  501  0.00000000000E+00  0.00000000000E+00  0.10548422455E+04  0.10548422455E+04  0.00000000000E+00 0.  1.
         21   -1    0    0  501  502 -0.00000000000E+00 -0.00000000000E+00 -0.48426417206E+02  0.48426417206E+02  0.00000000000E+00 0.  1.
      99926    2    1    2    0    0  0.00000000000E+00  0.35527136788E-14  0.10064158283E+04  0.11032686627E+04  0.45202756848E+03 0.  0.
      99925    2    3    3    0    0 -0.95691487336E+02  0.23707116401E+02  0.51543281488E+03  0.58709939233E+03  0.26324099549E+03 0.  0.
         25    1    4    4    0    0 -0.81151841313E+01  0.67846938688E+01  0.19800918665E+03  0.23445049452E+03  0.12509000000E+03 0.  0.
         25    1    4    4    0    0 -0.87576303204E+02  0.16922422532E+02  0.31742362823E+03  0.35264889781E+03  0.12509000000E+03 0.  0.
         25    1    3    3    0    0  0.95691487336E+02 -0.23707116401E+02  0.49098301341E+03  0.51616927037E+03  0.12509000000E+03 0.  0.
<mgrwt>
<rscale>  2 0.45202757E+03</rscale>
<asrwt>0</asrwt>
<pdfrwt beam="1">  1       21 0.15512385E+00 0.45202757E+03</pdfrwt>
<pdfrwt beam="2">  1       21 0.71215326E-02 0.45202757E+03</pdfrwt>
<totfact> 0.36213406E+04</totfact>
</mgrwt>
</event>
<event>
 7    0  0.4725730E-002  0.4559572E+03  0.7546771E-02  0.1025960E+00
         21   -1    0    0  502  501  0.00000000000E+00  0.00000000000E+00  0.11037330753E+04  0.11037330753E+04  0.00000000000E+00 0. -1.
         21   -1    0    0  501  502 -0.00000000000E+00 -0.00000000000E+00 -0.47089501261E+02  0.47089501261E+02  0.00000000000E+00 0. -1.
      99926    2    1    2    0    0  0.00000000000E+00  0.00000000000E+00  0.10566435741E+04  0.11508225766E+04  0.45595719116E+03 0.  0.
      99925    2    3    3    0    0  0.71857160386E+02 -0.84238828595E+02  0.59472912162E+03  0.65962801104E+03  0.26295770213E+03 0.  0.
         25    1    4    4    0    0  0.37617458556E+02 -0.58798877175E+02  0.22242302334E+03  0.26455980526E+03  0.12509000000E+03 0.  0.
         25    1    4    4    0    0  0.34239701830E+02 -0.25439951420E+02  0.37230609827E+03  0.39506820578E+03  0.12509000000E+03 0.  0.
         25    1    3    3    0    0 -0.71857160386E+02  0.84238828595E+02  0.46191445247E+03  0.49119456557E+03  0.12509000000E+03 0.  0.
<mgrwt>
<rscale>  2 0.45595719E+03</rscale>
<asrwt>0</asrwt>
<pdfrwt beam="1">  1       21 0.16231367E+00 0.45595719E+03</pdfrwt>
<pdfrwt beam="2">  1       21 0.69249274E-02 0.45595719E+03</pdfrwt>
<totfact> 0.33504276E+04</totfact>
</mgrwt>
</event>
<event>
 6    0  0.4725730E-002  0.7846730E+03  0.7546771E-02  0.9582471E-01
         21   -1    0    0  502  501  0.00000000000E+00  0.00000000000E+00  0.70965075239E+03  0.70965075239E+03  0.00000000000E+00 0.  1.
         21   -1    0    0  501  502 -0.00000000000E+00 -0.00000000000E+00 -0.21690660998E+03  0.21690660998E+03  0.00000000000E+00 0.  1.
      99925    2    1    2    0    0 -0.24153286706E+03  0.57009782358E+02  0.53473587869E+03  0.64548965670E+03  0.26291861057E+03 0.  0.
         25    1    3    3    0    0 -0.79519749406E+02  0.24357054685E+02  0.17802916578E+03  0.23293464454E+03  0.12509000000E+03 0.  0.
         25    1    1    2    0    0  0.24153286706E+03 -0.57009782358E+02 -0.41991736287E+02  0.28106770567E+03  0.12509000000E+03 0.  0.
         25    1    3    3    0    0 -0.16201311766E+03  0.32652727673E+02  0.35670671291E+03  0.41255501216E+03  0.12509000000E+03 0.  0.
<mgrwt>
<rscale>  2 0.78467302E+03</rscale>
<asrwt>0</asrwt>
<pdfrwt beam="1">  1       21 0.10436040E+00 0.78467302E+03</pdfrwt>
<pdfrwt beam="2">  1       21 0.31898031E-01 0.78467302E+03</pdfrwt>
<totfact> 0.56996449E+03</totfact>
</mgrwt>
</event>
<event>
 7    0  0.4725730E-002  0.4562955E+03  0.7546771E-02  0.1025861E+00
         21   -1    0    0  502  501  0.00000000000E+00  0.00000000000E+00  0.99047790603E+02  0.99047790603E+02  0.00000000000E+00 0.  1.
         21   -1    0    0  501  502 -0.00000000000E+00 -0.00000000000E+00 -0.52551808112E+03  0.52551808112E+03  0.00000000000E+00 0.  1.
      99926    2    1    2    0    0  0.00000000000E+00  0.00000000000E+00 -0.42647029052E+03  0.62456587172E+03  0.45629553957E+03 0.  0.
      99925    2    3    3    0    0  0.88754049577E+02  0.63010162084E+01 -0.17032859263E+03  0.32594728286E+03  0.26327327554E+03 0.  0.
         25    1    4    4    0    0  0.10310637464E+02  0.73683125873E+01 -0.10772819493E+03  0.16557014634E+03  0.12509000000E+03 0.  0.
         25    1    4    4    0    0  0.78443412113E+02 -0.10672963789E+01 -0.62600397701E+02  0.16037713652E+03  0.12509000000E+03 0.  0.
         25    1    3    3    0    0 -0.88754049577E+02 -0.63010162084E+01 -0.25614169788E+03  0.29861858887E+03  0.12509000000E+03 0.  0.
<mgrwt>
<rscale>  2 0.45629554E+03</rscale>
<asrwt>0</asrwt>
<pdfrwt beam="1">  1       21 0.14565851E-01 0.45629554E+03</pdfrwt>
<pdfrwt beam="2">  1       21 0.77282072E-01 0.45629554E+03</pdfrwt>
<totfact> 0.56609807E+04</totfact>
</mgrwt>
</event>
<event>
 7    0  0.4725730E-002  0.4547320E+03  0.7546771E-02  0.1026320E+00
         21   -1    0    0  502  501  0.00000000000E+00  0.00000000000E+00  0.26953864182E+03  0.26953864182E+03  0.00000000000E+00 0. -1.
         21   -1    0    0  501  502 -0.00000000000E+00 -0.00000000000E+00 -0.19179180520E+03  0.19179180520E+03  0.00000000000E+00 0. -1.
      99926    2    1    2    0    0  0.00000000000E+00  0.00000000000E+00  0.77746836620E+02  0.46133044701E+03  0.45473202079E+03 0.  0.
      99925    2    3    3    0    0 -0.34154846163E+02 -0.80562062575E+02  0.12138458657E+03  0.30255840676E+03  0.26296496383E+03 0.  0.
         25    1    4    4    0    0  0.60822828791E+00 -0.77699628085E+02  0.62658800244E+02  0.16003510707E+03  0.12509000000E+03 0.  0.
         25    1    4    4    0    0 -0.34763074451E+02 -0.28624344902E+01  0.58725786329E+02  0.14252329970E+03  0.12509000000E+03 0.  0.
         25    1    3    3    0    0  0.34154846163E+02  0.80562062575E+02 -0.43637749953E+02  0.15877204025E+03  0.12509000000E+03 0.  0.
<mgrwt>
<rscale>  2 0.45473202E+03</rscale>
<asrwt>0</asrwt>
<pdfrwt beam="1">  1       21 0.39638036E-01 0.45473202E+03</pdfrwt>
<pdfrwt beam="2">  1       21 0.28204677E-01 0.45473202E+03</pdfrwt>
<totfact> 0.68228584E+04</totfact>
</mgrwt>
</event>
<event>
 7    0  0.4725730E-002  0.4601009E+03  0.7546771E-02  0.1024752E+00
         21   -1    0    0  502  501  0.00000000000E+00  0.00000000000E+00  0.18578129152E+03  0.18578129152E+03  0.00000000000E+00 0.  1.
         21   -1    0    0  501  502 -0.00000000000E+00 -0.00000000000E+00 -0.28486836680E+03  0.28486836680E+03  0.00000000000E+00 0.  1.
      99926    2    1    2    0    0  0.00000000000E+00  0.00000000000E+00 -0.99087075280E+02  0.47064965833E+03  0.46010091545E+03 0.  0.
      99925    2    3    3    0    0  0.58175115159E+02 -0.10210459700E+03 -0.71970721642E+02  0.29688977375E+03  0.26297159587E+03 0.  0.
         25    1    4    4    0    0  0.62576040100E+02 -0.76422673867E+02 -0.51408051325E+02  0.16747083841E+03  0.12509000000E+03 0.  0.
         25    1    3    3    0    0 -0.58175115159E+02  0.10210459700E+03 -0.27116353638E+02  0.17375988457E+03  0.12509000000E+03 0.  0.
         25    1    4    4    0    0 -0.44009249402E+01 -0.25681923133E+02 -0.20562670317E+02  0.12941893535E+03  0.12509000000E+03 0.  0.
<mgrwt>
<rscale>  2 0.46010092E+03</rscale>
<asrwt>0</asrwt>
<pdfrwt beam="1">  1       21 0.27320778E-01 0.46010092E+03</pdfrwt>
<pdfrwt beam="2">  1       21 0.41892407E-01 0.46010092E+03</pdfrwt>
<totfact> 0.64728362E+04</totfact>
</mgrwt>
</event>
<event>
 7    0  0.4725730E-002  0.4523369E+03  0.7546771E-02  0.1027027E+00
         21   -1    0    0  502  501  0.00000000000E+00  0.00000000000E+00  0.20165349840E+03  0.20165349840E+03  0.00000000000E+00 0.  1.
         21   -1    0    0  501  502 -0.00000000000E+00 -0.00000000000E+00 -0.25366366324E+03  0.25366366324E+03  0.00000000000E+00 0.  1.
      99926    2    1    2    0    0  0.71054273576E-14  0.00000000000E+00 -0.52010164837E+02  0.45531716164E+03  0.45233688821E+03 0.  0.
      99925    2    3    3    0    0  0.59772997488E+02 -0.88520786290E+02 -0.36815758034E+01  0.28387649712E+03  0.26298967809E+03 0.  0.
         25    1    4    4    0    0 -0.65528761510E+01 -0.22060461070E+02  0.43303765425E+01  0.12726297336E+03  0.12509000000E+03 0.  0.
         25    1    4    4    0    0  0.66325873639E+02 -0.66460325221E+02 -0.80119523459E+01  0.15661352375E+03  0.12509000000E+03 0.  0.
         25    1    3    3    0    0 -0.59772997488E+02  0.88520786290E+02 -0.48328589033E+02  0.17144066452E+03  0.12509000000E+03 0.  0.
<mgrwt>
<rscale>  2 0.45233689E+03</rscale>
<asrwt>0</asrwt>
<pdfrwt beam="1">  1       21 0.29654926E-01 0.45233689E+03</pdfrwt>
<pdfrwt beam="2">  1       21 0.37303480E-01 0.45233689E+03</pdfrwt>
<totfact> 0.69997978E+04</totfact>
</mgrwt>
</event>
<event>
 7    0  0.4725730E-002  0.4495711E+03  0.7546771E-02  0.1027850E+00
         21   -1    0    0  502  501  0.00000000000E+00  0.00000000000E+00  0.30973843439E+03  0.30973843439E+03  0.00000000000E+00 0.  1.
         21   -1    0    0  501  502 -0.00000000000E+00 -0.00000000000E+00 -0.16313296691E+03  0.16313296691E+03  0.00000000000E+00 0.  1.
      99926    2    1    2    0    0  0.00000000000E+00  0.71054273576E-14  0.14660546748E+03  0.47287140130E+03  0.44957112794E+03 0.  0.
      99925    2    3    3    0    0 -0.88155042137E+02 -0.52219633139E+02  0.12867792086E+03  0.31018425809E+03  0.26297921042E+03 0.  0.
         25    1    3    3    0    0  0.88155042137E+02  0.52219633139E+02  0.17927546619E+02  0.16268714321E+03  0.12509000000E+03 0.  0.
         25    1    4    4    0    0 -0.37424164188E+02  0.13843958553E+02  0.70512521221E+02  0.14903605940E+03  0.12509000000E+03 0.  0.
         25    1    4    4    0    0 -0.50730877949E+02 -0.66063591693E+02  0.58165399636E+02  0.16114819869E+03  0.12509000000E+03 0.  0.
<mgrwt>
<rscale>  2 0.44957113E+03</rscale>
<asrwt>0</asrwt>
<pdfrwt beam="1">  1       21 0.45549770E-01 0.44957113E+03</pdfrwt>
<pdfrwt beam="2">  1       21 0.23990142E-01 0.44957113E+03</pdfrwt>
<totfact> 0.70198875E+04</totfact>
</mgrwt>
</event>
<event>
 7    0  0.4725730E-002  0.4626921E+03  0.7546771E-02  0.1024003E+00
         21   -1    0    0  502  501  0.00000000000E+00  0.00000000000E+00  0.23542186076E+04  0.23542186076E+04  0.00000000000E+00 0.  1.
         21   -1    0    0  501  502 -0.00000000000E+00 -0.00000000000E+00 -0.22734081668E+02  0.22734081668E+02  0.00000000000E+00 0.  1.
      99926    2    1    2    0    0 -0.14210854715E-13  0.00000000000E+00  0.23314845259E+04  0.23769526892E+04  0.46269211400E+03 0.  0.
      99925    2    3    3    0    0 -0.11903420333E+03  0.13977319749E+02  0.14121694666E+04  0.14414569953E+04  0.26308013961E+03 0.  0.
         25    1    4    4    0    0 -0.16463257004E+02  0.12245589201E+02  0.57632309194E+03  0.59009898126E+03  0.12509000000E+03 0.  0.
         25    1    4    4    0    0 -0.10257094632E+03  0.17317305480E+01  0.83584637471E+03  0.85135801408E+03  0.12509000000E+03 0.  0.
         25    1    3    3    0    0  0.11903420333E+03 -0.13977319749E+02  0.91931505925E+03  0.93549569389E+03  0.12509000000E+03 0.  0.
<mgrwt>
<rscale>  2 0.46269211E+03</rscale>
<asrwt>0</asrwt>
<pdfrwt beam="1">  1       21 0.34620845E+00 0.46269211E+03</pdfrwt>
<pdfrwt beam="2">  1       21 0.33432489E-02 0.46269211E+03</pdfrwt>
<totfact> 0.79859167E+03</totfact>
</mgrwt>
</event>
<event>
 7    0  0.4725730E-002  0.4719648E+03  0.7546771E-02  0.1021367E+00
         21   -1    0    0  502  501  0.00000000000E+00  0.00000000000E+00  0.57835613726E+03  0.57835613726E+03  0.00000000000E+00 0. -1.
         21   -1    0    0  501  502 -0.00000000000E+00 -0.00000000000E+00 -0.96286168335E+02  0.96286168335E+02  0.00000000000E+00 0. -1.
      99926    2    1    2    0    0  0.71054273576E-14  0.71054273576E-14  0.48206996893E+03  0.67464230559E+03  0.47196481390E+03 0.  0.
      99925    2    3    3    0    0 -0.48420901140E+02 -0.45810578106E+02  0.14201093329E+03  0.30622562770E+03  0.26299018452E+03 0.  0.
         25    1    4    4    0    0 -0.29467099453E+02 -0.26493511586E+01  0.10899564475E+03  0.16853156288E+03  0.12509000000E+03 0.  0.
         25    1    3    3    0    0  0.48420901140E+02  0.45810578106E+02  0.34005903563E+03  0.36841667789E+03  0.12509000000E+03 0.  0.
         25    1    4    4    0    0 -0.18953801687E+02 -0.43161226947E+02  0.33015288541E+02  0.13769406482E+03  0.12509000000E+03 0.  0.
<mgrwt>
<rscale>  2 0.47196481E+03</rscale>
<asrwt>0</asrwt>
<pdfrwt beam="1">  1       21 0.85052371E-01 0.47196481E+03</pdfrwt>
<pdfrwt beam="2">  1       21 0.14159731E-01 0.47196481E+03</pdfrwt>
<totfact> 0.47608267E+04</totfact>
</mgrwt>
</event>
<event>
 7    0  0.4725730E-002  0.4575578E+03  0.7546771E-02  0.1025492E+00
         21   -1    0    0  502  501  0.00000000000E+00  0.00000000000E+00  0.49747513098E+03  0.49747513098E+03  0.00000000000E+00 0. -1.
         21   -1    0    0  501  502 -0.00000000000E+00 -0.00000000000E+00 -0.10521086690E+03  0.10521086690E+03  0.00000000000E+00 0. -1.
      99926    2    1    2    0    0  0.00000000000E+00  0.00000000000E+00  0.39226426408E+03  0.60268599788E+03  0.45755782057E+03 0.  0.
      99925    2    3    3    0    0 -0.35355897296E+02 -0.46641433592E+02  0.11510175602E+03  0.29302162024E+03  0.26303572550E+03 0.  0.
         25    1    4    4    0    0 -0.23106372415E+02  0.14966173007E+02  0.69976583598E+02  0.14595246189E+03  0.12509000000E+03 0.  0.
         25    1    4    4    0    0 -0.12249524881E+02 -0.61607606599E+02  0.45125172417E+02  0.14706915835E+03  0.12509000000E+03 0.  0.
         25    1    3    3    0    0  0.35355897296E+02  0.46641433592E+02  0.27716250807E+03  0.30966437764E+03  0.12509000000E+03 0.  0.
<mgrwt>
<rscale>  2 0.45755782E+03</rscale>
<asrwt>0</asrwt>
<pdfrwt beam="1">  1       21 0.73158107E-01 0.45755782E+03</pdfrwt>
<pdfrwt beam="2">  1       21 0.15472186E-01 0.45755782E+03</pdfrwt>
<totfact> 0.57345548E+04</totfact>
</mgrwt>
</event>
<event>
 6    0  0.4725730E-002  0.4540093E+03  0.7546771E-02  0.1026533E+00
         21   -1    0    0  502  501  0.00000000000E+00  0.00000000000E+00  0.12416838560E+03  0.12416838560E+03  0.00000000000E+00 0. -1.
         21   -1    0    0  501  502 -0.00000000000E+00 -0.00000000000E+00 -0.41500998854E+03  0.41500998854E+03  0.00000000000E+00 0. -1.
      99926    2    1    2    0    0 -0.71054273576E-14 -0.71054273576E-14 -0.29084160294E+03  0.53917837413E+03  0.45400934036E+03 0.  0.
         25    1    3    3    0    0  0.50306294941E+02 -0.10149497865E+02 -0.54944328308E+01  0.13531974176E+03  0.12509000000E+03 0.  0.
         25    1    3    3    0    0 -0.71333807123E+01  0.48579189164E+02 -0.79468721617E+02  0.15612049371E+03  0.12509000000E+03 0.  0.
         25    1    3    3    0    0 -0.43172914229E+02 -0.38429691299E+02 -0.20587844849E+03  0.24773813867E+03  0.12509000000E+03 0.  0.
<mgrwt>
<rscale>  2 0.45400934E+03</rscale>
<asrwt>0</asrwt>
<pdfrwt beam="1">  1       21 0.18260057E-01 0.45400934E+03</pdfrwt>
<pdfrwt beam="2">  1       21 0.61030880E-01 0.45400934E+03</pdfrwt>
<totfact> 0.63080436E+04</totfact>
</mgrwt>
</event>
<event>
 7    0  0.4725730E-002  0.4548282E+03  0.7546771E-02  0.1026292E+00
         21   -1    0    0  502  501  0.00000000000E+00  0.00000000000E+00  0.98087188005E+03  0.98087188005E+03  0.00000000000E+00 0. -1.
         21   -1    0    0  501  502 -0.00000000000E+00 -0.00000000000E+00 -0.52725727636E+02  0.52725727636E+02  0.00000000000E+00 0. -1.
      99926    2    1    2    0    0  0.00000000000E+00  0.00000000000E+00  0.92814615242E+03  0.10335976077E+04  0.45482824712E+03 0.  0.
      99925    2    3    3    0    0 -0.35428528419E+02 -0.10127982924E+03  0.66519731092E+03  0.72327135069E+03  0.26290910947E+03 0.  0.
         25    1    4    4    0    0 -0.51823023991E+01 -0.52446223779E+02  0.23267834028E+03  0.26937739471E+03  0.12509000000E+03 0.  0.
         25    1    4    4    0    0 -0.30246226020E+02 -0.48833605464E+02  0.43251897064E+03  0.45389395598E+03  0.12509000000E+03 0.  0.
         25    1    3    3    0    0  0.35428528419E+02  0.10127982924E+03  0.26294884150E+03  0.31032625700E+03  0.12509000000E+03 0.  0.
<mgrwt>
<rscale>  2 0.45482825E+03</rscale>
<asrwt>0</asrwt>
<pdfrwt beam="1">  1       21 0.14424585E+00 0.45482825E+03</pdfrwt>
<pdfrwt beam="2">  1       21 0.77537841E-02 0.45482825E+03</pdfrwt>
<totfact> 0.37935907E+04</totfact>
</mgrwt>
</event>
<event>
 7    0  0.4725730E-002  0.4463897E+03  0.7546771E-02  0.1028804E+00
         21   -1    0    0  502  501  0.00000000000E+00  0.00000000000E+00  0.24888559198E+03  0.24888559198E+03  0.00000000000E+00 0. -1.
         21   -1    0    0  501  502 -0.00000000000E+00 -0.00000000000E+00 -0.20015599037E+03  0.20015599037E+03  0.00000000000E+00 0. -1.
      99926    2    1    2    0    0  0.00000000000E+00  0.14210854715E-13  0.48729601613E+02  0.44904158235E+03  0.44638970486E+03 0.  0.
      99925    2    3    3    0    0 -0.44473321840E+02  0.73956042561E+02  0.90707891197E+02  0.29138037126E+03  0.26311067375E+03 0.  0.
         25    1    4    4    0    0 -0.40545288751E+02  0.25323287943E+01  0.29312970432E+02  0.13474825218E+03  0.12509000000E+03 0.  0.
         25    1    4    4    0    0 -0.39280330898E+01  0.71423713767E+02  0.61394920765E+02  0.15663211908E+03  0.12509000000E+03 0.  0.
         25    1    3    3    0    0  0.44473321840E+02 -0.73956042561E+02 -0.41978289585E+02  0.15766121109E+03  0.12509000000E+03 0.  0.
<mgrwt>
<rscale>  2 0.44638970E+03</rscale>
<asrwt>0</asrwt>
<pdfrwt beam="1">  1       21 0.36600822E-01 0.44638970E+03</pdfrwt>
<pdfrwt beam="2">  1       21 0.29434704E-01 0.44638970E+03</pdfrwt>
<totfact> 0.73934499E+04</totfact>
</mgrwt>
</event>
<event>
 7    0  0.4725730E-002  0.4559746E+03  0.7546771E-02  0.1025955E+00
         21   -1    0    0  502  501  0.00000000000E+00  0.00000000000E+00  0.14396858748E+03  0.14396858748E+03  0.00000000000E+00 0. -1.
         21   -1    0    0  501  502 -0.00000000000E+00 -0.00000000000E+00 -0.36103858290E+03  0.36103858290E+03  0.00000000000E+00 0. -1.
      99926    2    1    2    0    0  0.00000000000E+00  0.00000000000E+00 -0.21706999542E+03  0.50500717039E+03  0.45597462564E+03 0.  0.
      99925    2    3    3    0    0  0.13584748832E+02  0.98816050384E+02 -0.74856278745E+02  0.29094781758E+03  0.26286500884E+03 0.  0.
         25    1    4    4    0    0  0.16262849201E+02  0.43437257780E+02 -0.77128353077E+02  0.15410245480E+03  0.12509000000E+03 0.  0.
         25    1    4    4    0    0 -0.26781003689E+01  0.55378792604E+02  0.22720743323E+01  0.13684536278E+03  0.12509000000E+03 0.  0.
         25    1    3    3    0    0 -0.13584748832E+02 -0.98816050384E+02 -0.14221371667E+03  0.21405935281E+03  0.12509000000E+03 0.  0.
<mgrwt>
<rscale>  2 0.45597463E+03</rscale>
<asrwt>0</asrwt>
<pdfrwt beam="1">  1       21 0.21171851E-01 0.45597463E+03</pdfrwt>
<pdfrwt beam="2">  1       21 0.53093909E-01 0.45597463E+03</pdfrwt>
<totfact> 0.64420506E+04</totfact>
</mgrwt>
</event>
<event>
 7    0  0.4725730E-002  0.4556703E+03  0.7546771E-02  0.1026044E+00
         21   -1    0    0  502  501  0.00000000000E+00  0.00000000000E+00  0.86226658011E+02  0.86226658011E+02  0.00000000000E+00 0.  1.
         21   -1    0    0  501  502 -0.00000000000E+00 -0.00000000000E+00 -0.60200466076E+03  0.60200466076E+03  0.00000000000E+00 0.  1.
      99926    2    1    2    0    0  0.00000000000E+00  0.00000000000E+00 -0.51577800275E+03  0.68823131877E+03  0.45567027555E+03 0.  0.
      99925    2    3    3    0    0  0.10477408300E+03 -0.29560504032E+02 -0.27418879073E+03  0.39520523233E+03  0.26297576093E+03 0.  0.
         25    1    4    4    0    0  0.33314959785E+02 -0.26173251588E+02 -0.17921095776E+03  0.22261851029E+03  0.12509000000E+03 0.  0.
         25    1    3    3    0    0 -0.10477408300E+03  0.29560504032E+02 -0.24158921202E+03  0.29302608644E+03  0.12509000000E+03 0.  0.
         25    1    4    4    0    0  0.71459123216E+02 -0.33872524438E+01 -0.94977832970E+02  0.17258672204E+03  0.12509000000E+03 0.  0.
<mgrwt>
<rscale>  2 0.45567028E+03</rscale>
<asrwt>0</asrwt>
<pdfrwt beam="1">  1       21 0.12680391E-01 0.45567028E+03</pdfrwt>
<pdfrwt beam="2">  1       21 0.88530094E-01 0.45567028E+03</pdfrwt>
<totfact> 0.53265115E+04</totfact>
</mgrwt>
</event>
<event>
 7    0  0.4725730E-002  0.4376527E+03  0.7546771E-02  0.1031469E+00
         21   -1    0    0  502  501  0.00000000000E+00  0.00000000000E+00  0.39075822023E+02  0.39075822023E+02  0.00000000000E+00 0.  1.
         21   -1    0    0  501  502 -0.00000000000E+00 -0.00000000000E+00 -0.12254370775E+04  0.12254370775E+04  0.00000000000E+00 0.  1.
      99926    2    1    2    0    0  0.35527136788E-14 -0.14210854715E-13 -0.11863612555E+04  0.12645128995E+04  0.43765265287E+03 0.  0.
      99925    2    3    3    0    0 -0.20214879660E+02 -0.82608002381E+02 -0.62992762595E+03  0.68788597023E+03  0.26295545381E+03 0.  0.
         25    1    4    4    0    0 -0.22597688773E+02 -0.43262454505E+01 -0.32863100605E+03  0.35238504250E+03  0.12509000000E+03 0.  0.
         25    1    4    4    0    0  0.23828091136E+01 -0.78281756931E+02 -0.30129661989E+03  0.33550092773E+03  0.12509000000E+03 0.  0.
         25    1    3    3    0    0  0.20214879660E+02  0.82608002381E+02 -0.55643362954E+03  0.57662692930E+03  0.12509000000E+03 0.  0.
<mgrwt>
<rscale>  2 0.43765265E+03</rscale>
<asrwt>0</asrwt>
<pdfrwt beam="1">  1       21 0.57464457E-02 0.43765265E+03</pdfrwt>
<pdfrwt beam="2">  1       21 0.18021130E+00 0.43765265E+03</pdfrwt>
<totfact> 0.34602554E+04</totfact>
</mgrwt>
</event>
<event>
 7    0  0.4725730E-002  0.4826398E+03  0.7546771E-02  0.1018412E+00
         21   -1    0    0  502  501  0.00000000000E+00  0.00000000000E+00  0.18482620297E+03  0.18482620297E+03  0.00000000000E+00 0. -1.
         21   -1    0    0  501  502 -0.00000000000E+00 -0.00000000000E+00 -0.31508137514E+03  0.31508137514E+03  0.00000000000E+00 0. -1.
      99926    2    1    2    0    0  0.14210854715E-13  0.00000000000E+00 -0.13025517217E+03  0.49990757811E+03  0.48263980024E+03 0.  0.
      99925    2    3    3    0    0  0.11265241233E+03  0.19813088204E+02 -0.10472627449E+01  0.28677542093E+03  0.26297513346E+03 0.  0.
         25    1    4    4    0    0  0.19298038053E+02  0.23452992309E+02 -0.16969672376E+02  0.12983811074E+03  0.12509000000E+03 0.  0.
         25    1    4    4    0    0  0.93354374279E+02 -0.36399041056E+01  0.15922409631E+02  0.15693731018E+03  0.12509000000E+03 0.  0.
         25    1    3    3    0    0 -0.11265241233E+03 -0.19813088204E+02 -0.12920790942E+03  0.21313215718E+03  0.12509000000E+03 0.  0.
<mgrwt>
<rscale>  2 0.48263980E+03</rscale>
<asrwt>0</asrwt>
<pdfrwt beam="1">  1       21 0.27180324E-01 0.48263980E+03</pdfrwt>
<pdfrwt beam="2">  1       21 0.46335496E-01 0.48263980E+03</pdfrwt>
<totfact> 0.52724831E+04</totfact>
</mgrwt>
</event>
<event>
 7    0  0.4725730E-002  0.4511354E+03  0.7546771E-02  0.1027384E+00
         21   -1    0    0  502  501  0.00000000000E+00  0.00000000000E+00  0.21533085580E+03  0.21533085580E+03  0.00000000000E+00 0.  1.
         21   -1    0    0  501  502 -0.00000000000E+00 -0.00000000000E+00 -0.23629121732E+03  0.23629121732E+03  0.00000000000E+00 0.  1.
      99926    2    1    2    0    0 -0.71054273576E-14  0.00000000000E+00 -0.20960361526E+02  0.45162207312E+03  0.45113541223E+03 0.  0.
      99925    2    3    3    0    0  0.49818099142E+02  0.75980562682E+02 -0.74265993861E+02  0.28808648847E+03  0.26310358813E+03 0.  0.
         25    1    3    3    0    0 -0.49818099142E+02 -0.75980562682E+02  0.53305632335E+02  0.16353558465E+03  0.12509000000E+03 0.  0.
         25    1    4    4    0    0  0.15442554789E+02 -0.37033615425E+01 -0.34849687189E+02  0.13082123750E+03  0.12509000000E+03 0.  0.
         25    1    4    4    0    0  0.34375544353E+02  0.79683924225E+02 -0.39416306671E+02  0.15726525096E+03  0.12509000000E+03 0.  0.
<mgrwt>
<rscale>  2 0.45113541E+03</rscale>
<asrwt>0</asrwt>
<pdfrwt beam="1">  1       21 0.31666302E-01 0.45113541E+03</pdfrwt>
<pdfrwt beam="2">  1       21 0.34748708E-01 0.45113541E+03</pdfrwt>
<totfact> 0.70956839E+04</totfact>
</mgrwt>
</event>
<event>
 7    0  0.4725730E-002  0.4515492E+03  0.7546771E-02  0.1027261E+00
         21   -1    0    0  502  501  0.00000000000E+00  0.00000000000E+00  0.45395672745E+02  0.45395672745E+02  0.00000000000E+00 0. -1.
         21   -1    0    0  501  502 -0.00000000000E+00 -0.00000000000E+00 -0.11228861313E+04  0.11228861313E+04  0.00000000000E+00 0. -1.
      99926    2    1    2    0    0 -0.14210854715E-13  0.00000000000E+00 -0.10774904585E+04  0.11682818040E+04  0.45154920593E+03 0.  0.
      99925    2    3    3    0    0  0.84613966718E+02 -0.37589266543E+02 -0.52693891632E+03  0.59615683074E+03  0.26299404742E+03 0.  0.
         25    1    4    4    0    0  0.81594683589E+01 -0.30664037069E+02 -0.20341322047E+03  0.24089687930E+03  0.12509000000E+03 0.  0.
         25    1    4    4    0    0  0.76454498359E+02 -0.69252294748E+01 -0.32352569585E+03  0.35525995144E+03  0.12509000000E+03 0.  0.
         25    1    3    3    0    0 -0.84613966718E+02  0.37589266543E+02 -0.55055154219E+03  0.57212497327E+03  0.12509000000E+03 0.  0.
<mgrwt>
<rscale>  2 0.45154921E+03</rscale>
<asrwt>0</asrwt>
<pdfrwt beam="1">  1       21 0.66758335E-02 0.45154921E+03</pdfrwt>
<pdfrwt beam="2">  1       21 0.16513033E+00 0.45154921E+03</pdfrwt>
<totfact> 0.34085154E+04</totfact>
</mgrwt>
</event>
<event>
 7    0  0.4725730E-002  0.4723537E+03  0.7546771E-02  0.1021258E+00
         21   -1    0    0  502  501  0.00000000000E+00  0.00000000000E+00  0.45172608412E+03  0.45172608412E+03  0.00000000000E+00 0.  1.
         21   -1    0    0  501  502 -0.00000000000E+00 -0.00000000000E+00 -0.12348078956E+03  0.12348078956E+03  0.00000000000E+00 0.  1.
      99926    2    1    2    0    0  0.00000000000E+00 -0.14210854715E-13  0.32824529457E+03  0.57520687368E+03  0.47235365366E+03 0.  0.
      99925    2    3    3    0    0 -0.64048518004E+02  0.97479316742E+02  0.26977469209E+03  0.39445635693E+03  0.26308364293E+03 0.  0.
         25    1    3    3    0    0  0.64048518004E+02 -0.97479316742E+02  0.58470602474E+02  0.18075051675E+03  0.12509000000E+03 0.  0.
         25    1    4    4    0    0  0.73081072495E+00  0.59194184307E+02  0.10110598690E+03  0.17138965613E+03  0.12509000000E+03 0.  0.
         25    1    4    4    0    0 -0.64779328729E+02  0.38285132435E+02  0.16866870519E+03  0.22306670080E+03  0.12509000000E+03 0.  0.
<mgrwt>
<rscale>  2 0.47235365E+03</rscale>
<asrwt>0</asrwt>
<pdfrwt beam="1">  1       21 0.66430306E-01 0.47235365E+03</pdfrwt>
<pdfrwt beam="2">  1       21 0.18158940E-01 0.47235365E+03</pdfrwt>
<totfact> 0.52628797E+04</totfact>
</mgrwt>
</event>
<event>
 7    0  0.4725730E-002  0.4785681E+03  0.7546771E-02  0.1019529E+00
         21   -1    0    0  502  501  0.00000000000E+00  0.00000000000E+00  0.18795327931E+02  0.18795327931E+02  0.00000000000E+00 0. -1.
         21   -1    0    0  501  502 -0.00000000000E+00 -0.00000000000E+00 -0.30463345273E+04  0.30463345273E+04  0.00000000000E+00 0. -1.
      99926    2    1    2    0    0  0.00000000000E+00  0.14210854715E-13 -0.30275391994E+04  0.30651298552E+04  0.47856809935E+03 0.  0.
      99925    2    3    3    0    0  0.37200669309E+02 -0.97275061108E+02 -0.13272916341E+04  0.13571088897E+04  0.26304967079E+03 0.  0.
         25    1    4    4    0    0  0.16140039927E+02 -0.90460844873E+02 -0.77600517732E+03  0.79137551685E+03  0.12509000000E+03 0.  0.
         25    1    4    4    0    0  0.21060629382E+02 -0.68142162347E+01 -0.55128645679E+03  0.56573337288E+03  0.12509000000E+03 0.  0.
         25    1    3    3    0    0 -0.37200669309E+02  0.97275061108E+02 -0.17002475652E+04  0.17080209655E+04  0.12509000000E+03 0.  0.
<mgrwt>
<rscale>  2 0.47856810E+03</rscale>
<asrwt>0</asrwt>
<pdfrwt beam="1">  1       21 0.27640186E-02 0.47856810E+03</pdfrwt>
<pdfrwt beam="2">  1       21 0.44799040E+00 0.47856810E+03</pdfrwt>
<totfact> 0.24251350E+03</totfact>
</mgrwt>
</event>
<event>
 7    0  0.4725730E-002  0.4605560E+03  0.7546771E-02  0.1024620E+00
         21   -1    0    0  502  501  0.00000000000E+00  0.00000000000E+00  0.30178082919E+03  0.30178082919E+03  0.00000000000E+00 0.  1.
         21   -1    0    0  501  502 -0.00000000000E+00 -0.00000000000E+00 -0.17571678649E+03  0.17571678649E+03  0.00000000000E+00 0.  1.
      99926    2    1    2    0    0  0.71054273576E-14  0.14210854715E-13  0.12606404270E+03  0.47749761568E+03  0.46055600106E+03 0.  0.
      99925    2    3    3    0    0  0.60320395175E+02  0.64837444932E+02  0.16022234427E+03  0.32047296154E+03  0.26303854307E+03 0.  0.
         25    1    3    3    0    0 -0.60320395175E+02 -0.64837444932E+02 -0.34158301568E+02  0.15702465413E+03  0.12509000000E+03 0.  0.
         25    1    4    4    0    0  0.29655588464E+02 -0.76717419277E+01  0.87911942147E+02  0.15593052050E+03  0.12509000000E+03 0.  0.
         25    1    4    4    0    0  0.30664806711E+02  0.72509186860E+02  0.72310402122E+02  0.16454244104E+03  0.12509000000E+03 0.  0.
<mgrwt>
<rscale>  2 0.46055600E+03</rscale>
<asrwt>0</asrwt>
<pdfrwt beam="1">  1       21 0.44379533E-01 0.46055600E+03</pdfrwt>
<pdfrwt beam="2">  1       21 0.25840704E-01 0.46055600E+03</pdfrwt>
<totfact> 0.64013510E+04</totfact>
</mgrwt>
</event>
<event>
 7    0  0.4725730E-002  0.4538710E+03  0.7546771E-02  0.1026574E+00
         21   -1    0    0  502  501  0.00000000000E+00  0.00000000000E+00  0.12696419029E+04  0.12696419029E+04  0.00000000000E+00 0.  1.
         21   -1    0    0  501  502 -0.00000000000E+00 -0.00000000000E+00 -0.40562390248E+02  0.40562390248E+02  0.00000000000E+00 0.  1.
      99926    2    1    2    0    0 -0.35527136788E-14  0.00000000000E+00  0.12290795126E+04  0.13102042931E+04  0.45387095232E+03 0.  0.
      99925    2    3    3    0    0 -0.84554344979E+01  0.48035642143E+02  0.10655140113E+04  0.10985912060E+04  0.26306579500E+03 0.  0.
         25    1    4    4    0    0 -0.34971652397E+02  0.47376390556E+02  0.49683883213E+03  0.51571685261E+03  0.12509000000E+03 0.  0.
         25    1    4    4    0    0  0.26516217899E+02  0.65925158694E+00  0.56867517913E+03  0.58287435343E+03  0.12509000000E+03 0.  0.
         25    1    3    3    0    0  0.84554344979E+01 -0.48035642143E+02  0.16356550136E+03  0.21161308708E+03  0.12509000000E+03 0.  0.
<mgrwt>
<rscale>  2 0.45387095E+03</rscale>
<asrwt>0</asrwt>
<pdfrwt beam="1">  1       21 0.18671202E+00 0.45387095E+03</pdfrwt>
<pdfrwt beam="2">  1       21 0.59650582E-02 0.45387095E+03</pdfrwt>
<totfact> 0.29074205E+04</totfact>
</mgrwt>
</event>
<event>
 7    0  0.4725730E-002  0.4551353E+03  0.7546771E-02  0.1026202E+00
         21   -1    0    0  502  501  0.00000000000E+00  0.00000000000E+00  0.10260603015E+04  0.10260603015E+04  0.00000000000E+00 0. -1.
         21   -1    0    0  501  502 -0.00000000000E+00 -0.00000000000E+00 -0.50471733796E+02  0.50471733796E+02  0.00000000000E+00 0. -1.
      99926    2    1    2    0    0 -0.14210854715E-13  0.00000000000E+00  0.97558856770E+03  0.10765320353E+04  0.45513533106E+03 0.  0.
      99925    2    3    3    0    0 -0.88862954090E+02  0.19325461817E+02  0.45525280834E+03  0.53369973278E+03  0.26326827986E+03 0.  0.
         25    1    4    4    0    0 -0.13871885075E+02 -0.15697284958E+02  0.23821847829E+03  0.26987846422E+03  0.12509000000E+03 0.  0.
         25    1    4    4    0    0 -0.74991069015E+02  0.35022746775E+02  0.21703433006E+03  0.26382126856E+03  0.12509000000E+03 0.  0.
         25    1    3    3    0    0  0.88862954090E+02 -0.19325461817E+02  0.52033575935E+03  0.54283230251E+03  0.12509000000E+03 0.  0.
<mgrwt>
<rscale>  2 0.45513533E+03</rscale>
<asrwt>0</asrwt>
<pdfrwt beam="1">  1       21 0.15089121E+00 0.45513533E+03</pdfrwt>
<pdfrwt beam="2">  1       21 0.74223144E-02 0.45513533E+03</pdfrwt>
<totfact> 0.36280335E+04</totfact>
</mgrwt>
</event>
<event>
 7    0  0.4725730E-002  0.4578172E+03  0.7546771E-02  0.1025416E+00
         21   -1    0    0  502  501  0.00000000000E+00  0.00000000000E+00  0.13317305291E+04  0.13317305291E+04  0.00000000000E+00 0.  1.
         21   -1    0    0  501  502 -0.00000000000E+00 -0.00000000000E+00 -0.39346660363E+02  0.39346660363E+02  0.00000000000E+00 0.  1.
      99926    2    1    2    0    0  0.00000000000E+00 -0.14210854715E-13  0.12923838687E+04  0.13710771895E+04  0.45781720729E+03 0.  0.
      99925    2    3    3    0    0  0.72423668635E+01  0.11535722714E+03  0.78715272579E+03  0.83791140133E+03  0.26291892482E+03 0.  0.
         25    1    4    4    0    0 -0.18119627944E+02  0.22890091411E+02  0.31663870935E+03  0.34170141580E+03  0.12509000000E+03 0.  0.
         25    1    4    4    0    0  0.25361994807E+02  0.92467135733E+02  0.47051401644E+03  0.49620998553E+03  0.12509000000E+03 0.  0.
         25    1    3    3    0    0 -0.72423668635E+01 -0.11535722714E+03  0.50523114295E+03  0.53316578814E+03  0.12509000000E+03 0.  0.
<mgrwt>
<rscale>  2 0.45781721E+03</rscale>
<asrwt>0</asrwt>
<pdfrwt beam="1">  1       21 0.19584270E+00 0.45781721E+03</pdfrwt>
<pdfrwt beam="2">  1       21 0.57862745E-02 0.45781721E+03</pdfrwt>
<totfact> 0.26527435E+04</totfact>
</mgrwt>
</event>
<event>
 7    0  0.4725730E-002  0.4550315E+03  0.7546771E-02  0.1026232E+00
         21   -1    0    0  502  501  0.00000000000E+00  0.00000000000E+00  0.56491983507E+02  0.56491983507E+02  0.00000000000E+00 0.  1.
         21   -1    0    0  501  502 -0.00000000000E+00 -0.00000000000E+00 -0.91629669647E+03  0.91629669647E+03  0.00000000000E+00 0.  1.
      99926    2    1    2    0    0  0.17763568394E-14  0.00000000000E+00 -0.85980471296E+03  0.97278867997E+03  0.45503150601E+03 0.  0.
      99925    2    3    3    0    0  0.99862590979E+01 -0.63608546399E+02 -0.74014800993E+03  0.78809702552E+03  0.26292978622E+03 0.  0.
         25    1    4    4    0    0 -0.10975297345E+02 -0.59964992806E+02 -0.45927156975E+03  0.47988971691E+03  0.12509000000E+03 0.  0.
         25    1    3    3    0    0 -0.99862590979E+01  0.63608546399E+02 -0.11965670302E+03  0.18469165445E+03  0.12509000000E+03 0.  0.
         25    1    4    4    0    0  0.20961556443E+02 -0.36435535929E+01 -0.28087644018E+03  0.30820730861E+03  0.12509000000E+03 0.  0.
<mgrwt>
<rscale>  2 0.45503151E+03</rscale>
<asrwt>0</asrwt>
<pdfrwt beam="1">  1       21 0.83076445E-02 0.45503151E+03</pdfrwt>
<pdfrwt beam="2">  1       21 0.13474952E+00 0.45503151E+03</pdfrwt>
<totfact> 0.40221627E+04</totfact>
</mgrwt>
</event>
<event>
 7    0  0.4725730E-002  0.4602498E+03  0.7546771E-02  0.1024709E+00
         21   -1    0    0  502  501  0.00000000000E+00  0.00000000000E+00  0.13187258686E+03  0.13187258686E+03  0.00000000000E+00 0.  1.
         21   -1    0    0  501  502 -0.00000000000E+00 -0.00000000000E+00 -0.40158063022E+03  0.40158063022E+03  0.00000000000E+00 0.  1.
      99926    2    1    2    0    0  0.35527136788E-14  0.00000000000E+00 -0.26970804336E+03  0.53345321708E+03  0.46024983016E+03 0.  0.
      99925    2    3    3    0    0 -0.30599178030E+02 -0.11323656993E+03 -0.15349296435E+03  0.32630041562E+03  0.26296965730E+03 0.  0.
         25    1    3    3    0    0  0.30599178030E+02  0.11323656993E+03 -0.11621507900E+03  0.20715280146E+03  0.12509000000E+03 0.  0.
         25    1    4    4    0    0 -0.43733601173E+02 -0.30502714591E+02 -0.89019398263E+02  0.16252693572E+03  0.12509000000E+03 0.  0.
         25    1    4    4    0    0  0.13134423143E+02 -0.82733855343E+02 -0.64473566088E+02  0.16377347989E+03  0.12509000000E+03 0.  0.
<mgrwt>
<rscale>  2 0.46024983E+03</rscale>
<asrwt>0</asrwt>
<pdfrwt beam="1">  1       21 0.19393028E-01 0.46024983E+03</pdfrwt>
<pdfrwt beam="2">  1       21 0.59055974E-01 0.46024983E+03</pdfrwt>
<totfact> 0.60419891E+04</totfact>
</mgrwt>
</event>
<event>
 7    0  0.4725730E-002  0.4304187E+03  0.7546771E-02  0.1033728E+00
         21   -1    0    0  502  501  0.00000000000E+00  0.00000000000E+00  0.13969063468E+04  0.13969063468E+04  0.00000000000E+00 0.  1.
         21   -1    0    0  501  502 -0.00000000000E+00 -0.00000000000E+00 -0.33155449436E+02  0.33155449436E+02  0.00000000000E+00 0.  1.
      99926    2    1    2    0    0 -0.35527136788E-14  0.00000000000E+00  0.13637508973E+04  0.14300617962E+04  0.43041866943E+03 0.  0.
      99925    2    3    3    0    0  0.27032357730E+02 -0.81567533172E+02  0.81197824924E+03  0.85779911691E+03  0.26291944945E+03 0.  0.
         25    1    4    4    0    0 -0.43881097500E+01 -0.25691065457E+02  0.49176893441E+03  0.50809790326E+03  0.12509000000E+03 0.  0.
         25    1    4    4    0    0  0.31420467480E+02 -0.55876467715E+02  0.32020931483E+03  0.34970121365E+03  0.12509000000E+03 0.  0.
         25    1    3    3    0    0 -0.27032357730E+02  0.81567533172E+02  0.55177264811E+03  0.57226267931E+03  0.12509000000E+03 0.  0.
<mgrwt>
<rscale>  2 0.43041867E+03</rscale>
<asrwt>0</asrwt>
<pdfrwt beam="1">  1       21 0.20542737E+00 0.43041867E+03</pdfrwt>
<pdfrwt beam="2">  1       21 0.48758023E-02 0.43041867E+03</pdfrwt>
<totfact> 0.31065343E+04</totfact>
</mgrwt>
</event>
<event>
 7    0  0.4725730E-002  0.4544872E+03  0.7546771E-02  0.1026392E+00
         21   -1    0    0  502  501  0.00000000000E+00  0.00000000000E+00  0.17704139691E+04  0.17704139691E+04  0.00000000000E+00 0.  1.
         21   -1    0    0  501  502 -0.00000000000E+00 -0.00000000000E+00 -0.29168117897E+02  0.29168117897E+02  0.00000000000E+00 0.  1.
      99926    2    1    2    0    0  0.00000000000E+00  0.00000000000E+00  0.17412458512E+04  0.17995820870E+04  0.45448715439E+03 0.  0.
      99925    2    3    3    0    0  0.41515043617E+02  0.66387770065E+02  0.14169818901E+04  0.14433160916E+04  0.26304529786E+03 0.  0.
         25    1    4    4    0    0  0.85109074373E+00  0.59999044960E+01  0.52943030678E+03  0.54404106558E+03  0.12509000000E+03 0.  0.
         25    1    4    4    0    0  0.40663952873E+02  0.60387865569E+02  0.88755158328E+03  0.89927502604E+03  0.12509000000E+03 0.  0.
         25    1    3    3    0    0 -0.41515043617E+02 -0.66387770065E+02  0.32426396113E+03  0.35626599536E+03  0.12509000000E+03 0.  0.
<mgrwt>
<rscale>  2 0.45448715E+03</rscale>
<asrwt>0</asrwt>
<pdfrwt beam="1">  1       21 0.26035492E+00 0.45448715E+03</pdfrwt>
<pdfrwt beam="2">  1       21 0.42894303E-02 0.45448715E+03</pdfrwt>
<totfact> 0.17336412E+04</totfact>
</mgrwt>
</event>
<event>
 7    0  0.4725730E-002  0.4526422E+03  0.7546771E-02  0.1026937E+00
         21   -1    0    0  502  501  0.00000000000E+00  0.00000000000E+00  0.53996510908E+03  0.53996510908E+03  0.00000000000E+00 0.  1.
         21   -1    0    0  501  502 -0.00000000000E+00 -0.00000000000E+00 -0.94860277245E+02  0.94860277245E+02  0.00000000000E+00 0.  1.
      99926    2    1    2    0    0  0.00000000000E+00  0.71054273576E-14  0.44510483184E+03  0.63482538633E+03  0.45264219843E+03 0.  0.
      99925    2    3    3    0    0  0.87597531992E+02 -0.51217556197E+02  0.34357266046E+03  0.44442355966E+03  0.26300867227E+03 0.  0.
         25    1    3    3    0    0 -0.87597531992E+02  0.51217556197E+02  0.10153217137E+03  0.19040182667E+03  0.12509000000E+03 0.  0.
         25    1    4    4    0    0  0.32697111714E+02  0.14552117727E+02  0.16660642935E+03  0.21139081258E+03  0.12509000000E+03 0.  0.
         25    1    4    4    0    0  0.54900420278E+02 -0.65769673924E+02  0.17696623112E+03  0.23303274708E+03  0.12509000000E+03 0.  0.
<mgrwt>
<rscale>  2 0.45264220E+03</rscale>
<asrwt>0</asrwt>
<pdfrwt beam="1">  1       21 0.79406632E-01 0.45264220E+03</pdfrwt>
<pdfrwt beam="2">  1       21 0.13950041E-01 0.45264220E+03</pdfrwt>
<totfact> 0.57649639E+04</totfact>
</mgrwt>
</event>
<event>
 7    0  0.4725730E-002  0.4664905E+03  0.7546771E-02  0.1022915E+00
         21   -1    0    0  502  501  0.00000000000E+00  0.00000000000E+00  0.40530787225E+03  0.40530787225E+03  0.00000000000E+00 0. -1.
         21   -1    0    0  501  502 -0.00000000000E+00 -0.00000000000E+00 -0.13422720058E+03  0.13422720058E+03  0.00000000000E+00 0. -1.
      99926    2    1    2    0    0  0.00000000000E+00 -0.14210854715E-13  0.27108067167E+03  0.53953507283E+03  0.46649047606E+03 0.  0.
      99925    2    3    3    0    0 -0.83547358615E+02  0.89242141322E+02  0.18987499138E+03  0.34669785772E+03  0.26306381597E+03 0.  0.
         25    1    3    3    0    0  0.83547358615E+02 -0.89242141322E+02  0.81205680293E+02  0.19283721511E+03  0.12509000000E+03 0.  0.
         25    1    4    4    0    0 -0.41774689447E+02  0.41452697929E+01  0.71208619790E+02  0.14993493113E+03  0.12509000000E+03 0.  0.
         25    1    4    4    0    0 -0.41772669168E+02  0.85096871529E+02  0.11866637159E+03  0.19676292659E+03  0.12509000000E+03 0.  0.
<mgrwt>
<rscale>  2 0.46649048E+03</rscale>
<asrwt>0</asrwt>
<pdfrwt beam="1">  1       21 0.59604099E-01 0.46649048E+03</pdfrwt>
<pdfrwt beam="2">  1       21 0.19739294E-01 0.46649048E+03</pdfrwt>
<totfact> 0.57178402E+04</totfact>
</mgrwt>
</event>
<event>
 7    0  0.4725730E-002  0.4569281E+03  0.7546771E-02  0.1025676E+00
         21   -1    0    0  502  501  0.00000000000E+00  0.00000000000E+00  0.53430550826E+02  0.53430550826E+02  0.00000000000E+00 0.  1.
         21   -1    0    0  501  502 -0.00000000000E+00 -0.00000000000E+00 -0.97689100936E+03  0.97689100936E+03  0.00000000000E+00 0.  1.
      99926    2    1    2    0    0  0.00000000000E+00  0.00000000000E+00 -0.92346045853E+03  0.10303215602E+04  0.45692811131E+03 0.  0.
      99925    2    3    3    0    0  0.95682871483E+02 -0.59711897584E+02 -0.52939466017E+03  0.60177041487E+03  0.26296045975E+03 0.  0.
         25    1    3    3    0    0 -0.95682871483E+02  0.59711897584E+02 -0.39406579836E+03  0.42855114531E+03  0.12509000000E+03 0.  0.
         25    1    4    4    0    0  0.27570879238E+02 -0.52860797420E+02 -0.20526145754E+03  0.24765740719E+03  0.12509000000E+03 0.  0.
         25    1    4    4    0    0  0.68111992245E+02 -0.68511001640E+01 -0.32413320263E+03  0.35411300768E+03  0.12509000000E+03 0.  0.
<mgrwt>
<rscale>  2 0.45692811E+03</rscale>
<asrwt>0</asrwt>
<pdfrwt beam="1">  1       21 0.78574342E-02 0.45692811E+03</pdfrwt>
<pdfrwt beam="2">  1       21 0.14366044E+00 0.45692811E+03</pdfrwt>
<totfact> 0.37441078E+04</totfact>
</mgrwt>
</event>
<event>
 7    0  0.4725730E-002  0.4549844E+03  0.7546771E-02  0.1026246E+00
         21   -1    0    0  502  501  0.00000000000E+00  0.00000000000E+00  0.14445009389E+03  0.14445009389E+03  0.00000000000E+00 0. -1.
         21   -1    0    0  501  502 -0.00000000000E+00 -0.00000000000E+00 -0.35827390221E+03  0.35827390221E+03  0.00000000000E+00 0. -1.
      99926    2    1    2    0    0  0.00000000000E+00  0.00000000000E+00 -0.21382380832E+03  0.50272399610E+03  0.45498439011E+03 0.  0.
      99925    2    3    3    0    0 -0.72002761508E+02  0.71484994825E+02 -0.78500245578E+02  0.29235651552E+03  0.26270809174E+03 0.  0.
         25    1    4    4    0    0 -0.56434604040E+02  0.19389108389E+02 -0.71081187261E+02  0.15575893342E+03  0.12509000000E+03 0.  0.
         25    1    3    3    0    0  0.72002761508E+02 -0.71484994825E+02 -0.13532356274E+03  0.21036748058E+03  0.12509000000E+03 0.  0.
         25    1    4    4    0    0 -0.15568157468E+02  0.52095886436E+02 -0.74190583177E+01  0.13659758210E+03  0.12509000000E+03 0.  0.
<mgrwt>
<rscale>  2 0.45498439E+03</rscale>
<asrwt>0</asrwt>
<pdfrwt beam="1">  1       21 0.21242661E-01 0.45498439E+03</pdfrwt>
<pdfrwt beam="2">  1       21 0.52687338E-01 0.45498439E+03</pdfrwt>
<totfact> 0.65087779E+04</totfact>
</mgrwt>
</event>
<event>
 7    0  0.4725730E-002  0.4433065E+03  0.7546771E-02  0.1029737E+00
         21   -1    0    0  502  501  0.00000000000E+00  0.00000000000E+00  0.46511829158E+03  0.46511829158E+03  0.00000000000E+00 0.  1.
         21   -1    0    0  501  502 -0.00000000000E+00 -0.00000000000E+00 -0.10562940311E+03  0.10562940311E+03  0.00000000000E+00 0.  1.
      99926    2    1    2    0    0  0.00000000000E+00  0.00000000000E+00  0.35948888847E+03  0.57074769469E+03  0.44330651931E+03 0.  0.
      99925    2    3    3    0    0 -0.81420820194E+02 -0.25451541332E+02  0.30001099987E+03  0.40807545290E+03  0.26313845082E+03 0.  0.
         25    1    4    4    0    0 -0.54108812264E+02  0.21952155605E+02  0.12607351507E+03  0.18695373760E+03  0.12509000000E+03 0.  0.
         25    1    4    4    0    0 -0.27312007930E+02 -0.47403696937E+02  0.17393748479E+03  0.22112171530E+03  0.12509000000E+03 0.  0.
         25    1    3    3    0    0  0.81420820194E+02  0.25451541332E+02  0.59477888600E+02  0.16267224179E+03  0.12509000000E+03 0.  0.
<mgrwt>
<rscale>  2 0.44330652E+03</rscale>
<asrwt>0</asrwt>
<pdfrwt beam="1">  1       21 0.68399748E-01 0.44330652E+03</pdfrwt>
<pdfrwt beam="2">  1       21 0.15533736E-01 0.44330652E+03</pdfrwt>
<totfact> 0.66450455E+04</totfact>
</mgrwt>
</event>
<event>
 7    0  0.4725730E-002  0.4555125E+03  0.7546771E-02  0.1026091E+00
         21   -1    0    0  502  501  0.00000000000E+00  0.00000000000E+00  0.97516465911E+02  0.97516465911E+02  0.00000000000E+00 0. -1.
         21   -1    0    0  501  502 -0.00000000000E+00 -0.00000000000E+00 -0.53193991408E+03  0.53193991408E+03  0.00000000000E+00 0. -1.
      99926    2    1    2    0    0  0.00000000000E+00  0.11102230246E-14 -0.43442344816E+03  0.62945637999E+03  0.45551246085E+03 0.  0.
      99925    2    3    3    0    0 -0.15442160578E+02 -0.10270501658E+01 -0.11757724189E+03  0.28845998457E+03  0.26295482451E+03 0.  0.
         25    1    3    3    0    0  0.15442160578E+02  0.10270501658E+01 -0.31684620627E+03  0.34099639542E+03  0.12509000000E+03 0.  0.
         25    1    4    4    0    0 -0.16562159787E+01 -0.83359391232E+01 -0.15655686270E+02  0.12635204607E+03  0.12509000000E+03 0.  0.
         25    1    4    4    0    0 -0.13785944599E+02  0.73088889574E+01 -0.10192155562E+03  0.16210793850E+03  0.12509000000E+03 0.  0.
<mgrwt>
<rscale>  2 0.45551246E+03</rscale>
<asrwt>0</asrwt>
<pdfrwt beam="1">  1       21 0.14340657E-01 0.45551246E+03</pdfrwt>
<pdfrwt beam="2">  1       21 0.78226457E-01 0.45551246E+03</pdfrwt>
<totfact> 0.56671203E+04</totfact>
</mgrwt>
</event>
<event>
 7    0  0.4725730E-002  0.4474031E+03  0.7546771E-02  0.1028499E+00
         21   -1    0    0  502  501  0.00000000000E+00  0.00000000000E+00  0.15363608963E+03  0.15363608963E+03  0.00000000000E+00 0. -1.
         21   -1    0    0  501  502 -0.00000000000E+00 -0.00000000000E+00 -0.32572026177E+03  0.32572026177E+03  0.00000000000E+00 0. -1.
      99926    2    1    2    0    0  0.00000000000E+00  0.71054273576E-14 -0.17208417214E+03  0.47935635139E+03  0.44740311725E+03 0.  0.
      99925    2    3    3    0    0 -0.85275379724E+02 -0.44968150947E+02 -0.15594584145E+03  0.32060504021E+03  0.26301038260E+03 0.  0.
         25    1    3    3    0    0  0.85275379724E+02  0.44968150947E+02 -0.16138330695E+02  0.15875131119E+03  0.12509000000E+03 0.  0.
         25    1    4    4    0    0 -0.20369712492E+02 -0.31540395921E+02 -0.37108051768E+02  0.13577274162E+03  0.12509000000E+03 0.  0.
         25    1    4    4    0    0 -0.64905667232E+02 -0.13427755026E+02 -0.11883778968E+03  0.18483229858E+03  0.12509000000E+03 0.  0.
<mgrwt>
<rscale>  2 0.44740312E+03</rscale>
<asrwt>0</asrwt>
<pdfrwt beam="1">  1       21 0.22593543E-01 0.44740312E+03</pdfrwt>
<pdfrwt beam="2">  1       21 0.47900038E-01 0.44740312E+03</pdfrwt>
<totfact> 0.70928817E+04</totfact>
</mgrwt>
</event>
<event>
 7    0  0.4725730E-002  0.4607978E+03  0.7546771E-02  0.1024550E+00
         21   -1    0    0  502  501  0.00000000000E+00  0.00000000000E+00  0.87956426345E+03  0.87956426345E+03  0.00000000000E+00 0.  1.
         21   -1    0    0  501  502 -0.00000000000E+00 -0.00000000000E+00 -0.60352207118E+02  0.60352207118E+02  0.00000000000E+00 0.  1.
      99926    2    1    2    0    0  0.00000000000E+00  0.00000000000E+00  0.81921205633E+03  0.93991647057E+03  0.46079776302E+03 0.  0.
      99925    2    3    3    0    0 -0.44326025191E+02 -0.10951859728E+03  0.53608896098E+03  0.60860798157E+03  0.26277972047E+03 0.  0.
         25    1    4    4    0    0 -0.25789466547E+02 -0.26922563999E+02  0.31375098649E+03  0.33981923233E+03  0.12509000000E+03 0.  0.
         25    1    3    3    0    0  0.44326025191E+02  0.10951859728E+03  0.28312309535E+03  0.33130848900E+03  0.12509000000E+03 0.  0.
         25    1    4    4    0    0 -0.18536558644E+02 -0.82596033279E+02  0.22233797449E+03  0.26878874924E+03  0.12509000000E+03 0.  0.
<mgrwt>
<rscale>  2 0.46079776E+03</rscale>
<asrwt>0</asrwt>
<pdfrwt beam="1">  1       21 0.12934768E+00 0.46079776E+03</pdfrwt>
<pdfrwt beam="2">  1       21 0.88753251E-02 0.46079776E+03</pdfrwt>
<totfact> 0.39719993E+04</totfact>
</mgrwt>
</event>
<event>
 7    0  0.4725730E-002  0.4548859E+03  0.7546771E-02  0.1026275E+00
         21   -1    0    0  502  501  0.00000000000E+00  0.00000000000E+00  0.43021787961E+03  0.43021787961E+03  0.00000000000E+00 0.  1.
         21   -1    0    0  501  502 -0.00000000000E+00 -0.00000000000E+00 -0.12024209988E+03  0.12024209988E+03  0.00000000000E+00 0.  1.
      99926    2    1    2    0    0  0.00000000000E+00  0.00000000000E+00  0.30997577973E+03  0.55045997949E+03  0.45488592526E+03 0.  0.
      99925    2    3    3    0    0 -0.67276348813E+02 -0.14578584888E+02  0.30368875132E+03  0.40754155145E+03  0.26291560668E+03 0.  0.
         25    1    4    4    0    0 -0.15317047052E+02  0.15321351728E+02  0.10248681261E+03  0.16315762504E+03  0.12509000000E+03 0.  0.
         25    1    4    4    0    0 -0.51959301762E+02 -0.29899936616E+02  0.20120193871E+03  0.24438392641E+03  0.12509000000E+03 0.  0.
         25    1    3    3    0    0  0.67276348813E+02  0.14578584888E+02  0.62870284125E+01  0.14291842804E+03  0.12509000000E+03 0.  0.
<mgrwt>
<rscale>  2 0.45488593E+03</rscale>
<asrwt>0</asrwt>
<pdfrwt beam="1">  1       21 0.63267335E-01 0.45488593E+03</pdfrwt>
<pdfrwt beam="2">  1       21 0.17682662E-01 0.45488593E+03</pdfrwt>
<totfact> 0.61891967E+04</totfact>
</mgrwt>
</event>
<event>
 7    0  0.4725730E-002  0.4717596E+03  0.7546771E-02  0.1021425E+00
         21   -1    0    0  502  501  0.00000000000E+00  0.00000000000E+00  0.14565040614E+04  0.14565040614E+04  0.00000000000E+00 0.  1.
         21   -1    0    0  501  502 -0.00000000000E+00 -0.00000000000E+00 -0.38200571945E+02  0.38200571945E+02  0.00000000000E+00 0.  1.
      99926    2    1    2    0    0 -0.14210854715E-13  0.00000000000E+00  0.14183034894E+04  0.14947046333E+04  0.47175963450E+03 0.  0.
      99925    2    3    3    0    0  0.10305016585E+03  0.44704301995E+02  0.68483307730E+03  0.74221266335E+03  0.26318336303E+03 0.  0.
         25    1    3    3    0    0 -0.10305016585E+03 -0.44704301995E+02  0.73347041215E+03  0.75249196999E+03  0.12509000000E+03 0.  0.
         25    1    4    4    0    0  0.90688536207E+02  0.71849649385E+01  0.35354357921E+03  0.38589714280E+03  0.12509000000E+03 0.  0.
         25    1    4    4    0    0  0.12361629644E+02  0.37519337057E+02  0.33128949810E+03  0.35631552056E+03  0.12509000000E+03 0.  0.
<mgrwt>
<rscale>  2 0.47175963E+03</rscale>
<asrwt>0</asrwt>
<pdfrwt beam="1">  1       21 0.21419174E+00 0.47175963E+03</pdfrwt>
<pdfrwt beam="2">  1       21 0.56177321E-02 0.47175963E+03</pdfrwt>
<totfact> 0.21034812E+04</totfact>
</mgrwt>
</event>
<event>
 7    0  0.4725730E-002  0.4615517E+03  0.7546771E-02  0.1024332E+00
         21   -1    0    0  502  501  0.00000000000E+00  0.00000000000E+00  0.28477545683E+03  0.28477545683E+03  0.00000000000E+00 0.  1.
         21   -1    0    0  501  502 -0.00000000000E+00 -0.00000000000E+00 -0.18701576528E+03  0.18701576528E+03  0.00000000000E+00 0.  1.
      99926    2    1    2    0    0  0.00000000000E+00  0.00000000000E+00  0.97759691552E+02  0.47179122210E+03  0.46155173054E+03 0.  0.
      99925    2    3    3    0    0  0.64289837822E+02 -0.51949212548E+02  0.14918326157E+03  0.31328634652E+03  0.26279418839E+03 0.  0.
         25    1    4    4    0    0  0.14442059790E+02 -0.61668001863E+02  0.69078579371E+02  0.15630378681E+03  0.12509000000E+03 0.  0.
         25    1    3    3    0    0 -0.64289837822E+02  0.51949212548E+02 -0.51423570016E+02  0.15850487559E+03  0.12509000000E+03 0.  0.
         25    1    4    4    0    0  0.49847778031E+02  0.97187893142E+01  0.80104682197E+02  0.15698255970E+03  0.12509000000E+03 0.  0.
<mgrwt>
<rscale>  2 0.46155173E+03</rscale>
<asrwt>0</asrwt>
<pdfrwt beam="1">  1       21 0.41878744E-01 0.46155173E+03</pdfrwt>
<pdfrwt beam="2">  1       21 0.27502318E-01 0.46155173E+03</pdfrwt>
<totfact> 0.63915023E+04</totfact>
</mgrwt>
</event>
<event>
 7    0  0.4725730E-002  0.4577845E+03  0.7546771E-02  0.1025426E+00
         21   -1    0    0  502  501  0.00000000000E+00  0.00000000000E+00  0.44019694379E+03  0.44019694379E+03  0.00000000000E+00 0. -1.
         21   -1    0    0  501  502 -0.00000000000E+00 -0.00000000000E+00 -0.11901866652E+03  0.11901866652E+03  0.00000000000E+00 0. -1.
      99926    2    1    2    0    0  0.00000000000E+00  0.00000000000E+00  0.32117827727E+03  0.55921561032E+03  0.45778446133E+03 0.  0.
      99925    2    3    3    0    0  0.40272971177E+02  0.10664549594E+03  0.18525307604E+03  0.34214801154E+03  0.26410487614E+03 0.  0.
         25    1    4    4    0    0  0.61272544196E+02  0.63016563249E+02  0.87261671166E+02  0.17603272216E+03  0.12509000000E+03 0.  0.
         25    1    4    4    0    0 -0.20999573019E+02  0.43628932695E+02  0.97991404879E+02  0.16611528938E+03  0.12509000000E+03 0.  0.
         25    1    3    3    0    0 -0.40272971177E+02 -0.10664549594E+03  0.13592520123E+03  0.21706759878E+03  0.12509000000E+03 0.  0.
<mgrwt>
<rscale>  2 0.45778446E+03</rscale>
<asrwt>0</asrwt>
<pdfrwt beam="1">  1       21 0.64734844E-01 0.45778446E+03</pdfrwt>
<pdfrwt beam="2">  1       21 0.17502745E-01 0.45778446E+03</pdfrwt>
<totfact> 0.59930672E+04</totfact>
</mgrwt>
</event>
<event>
 7    0  0.4725730E-002  0.4530775E+03  0.7546771E-02  0.1026808E+00
         21   -1    0    0  502  501  0.00000000000E+00  0.00000000000E+00  0.96033027211E+02  0.96033027211E+02  0.00000000000E+00 0.  1.
         21   -1    0    0  501  502 -0.00000000000E+00 -0.00000000000E+00 -0.53439735692E+03  0.53439735692E+03  0.00000000000E+00 0.  1.
      99926    2    1    2    0    0  0.00000000000E+00 -0.35527136788E-14 -0.43836432971E+03  0.63043038413E+03  0.45307745880E+03 0.  0.
      99925    2    3    3    0    0 -0.41278819917E+02  0.16954629823E+02 -0.41827958386E+03  0.49610873449E+03  0.26301077112E+03 0.  0.
         25    1    4    4    0    0  0.99794650935E+01 -0.82848169840E+01 -0.23998516681E+03  0.27094024490E+03  0.12509000000E+03 0.  0.
         25    1    4    4    0    0 -0.51258285010E+02  0.25239446807E+02 -0.17829441704E+03  0.22516848959E+03  0.12509000000E+03 0.  0.
         25    1    3    3    0    0  0.41278819917E+02 -0.16954629823E+02 -0.20084745857E+02  0.13432164964E+03  0.12509000000E+03 0.  0.
<mgrwt>
<rscale>  2 0.45307746E+03</rscale>
<asrwt>0</asrwt>
<pdfrwt beam="1">  1       21 0.14122505E-01 0.45307746E+03</pdfrwt>
<pdfrwt beam="2">  1       21 0.78587843E-01 0.45307746E+03</pdfrwt>
<totfact> 0.57714134E+04</totfact>
</mgrwt>
</event>
<event>
 7    0  0.4725730E-002  0.4419168E+03  0.7546771E-02  0.1030160E+00
         21   -1    0    0  502  501  0.00000000000E+00  0.00000000000E+00  0.31597496571E+03  0.31597496571E+03  0.00000000000E+00 0. -1.
         21   -1    0    0  501  502 -0.00000000000E+00 -0.00000000000E+00 -0.15451419118E+03  0.15451419118E+03  0.00000000000E+00 0. -1.
      99926    2    1    2    0    0  0.00000000000E+00  0.00000000000E+00  0.16146077452E+03  0.47048915689E+03  0.44191680783E+03 0.  0.
      99925    2    3    3    0    0 -0.60797588135E+02 -0.54349317476E+02  0.16526881913E+03  0.32111645411E+03  0.26296729738E+03 0.  0.
         25    1    3    3    0    0  0.60797588135E+02  0.54349317476E+02 -0.38080446070E+01  0.14937270278E+03  0.12509000000E+03 0.  0.
         25    1    4    4    0    0 -0.46758956324E+02 -0.52627069277E+02  0.12079885138E+03  0.18760564760E+03  0.12509000000E+03 0.  0.
         25    1    4    4    0    0 -0.14038631811E+02 -0.17222481994E+01  0.44469967746E+02  0.13351080650E+03  0.12509000000E+03 0.  0.
<mgrwt>
<rscale>  2 0.44191681E+03</rscale>
<asrwt>0</asrwt>
<pdfrwt beam="1">  1       21 0.46466907E-01 0.44191681E+03</pdfrwt>
<pdfrwt beam="2">  1       21 0.22722675E-01 0.44191681E+03</pdfrwt>
<totfact> 0.74877499E+04</totfact>
</mgrwt>
</event>
<event>
 7    0  0.4725730E-002  0.4526985E+03  0.7546771E-02  0.1026920E+00
         21   -1    0    0  502  501  0.00000000000E+00  0.00000000000E+00  0.15259469956E+03  0.15259469956E+03  0.00000000000E+00 0. -1.
         21   -1    0    0  501  502 -0.00000000000E+00 -0.00000000000E+00 -0.33575197786E+03  0.33575197786E+03  0.00000000000E+00 0. -1.
      99926    2    1    2    0    0  0.71054273576E-14  0.00000000000E+00 -0.18315727830E+03  0.48834667743E+03  0.45269845235E+03 0.  0.
      99925    2    3    3    0    0 -0.55932220622E+02  0.94972385284E+02 -0.10917671486E+03  0.30594931139E+03  0.26369918241E+03 0.  0.
         25    1    4    4    0    0 -0.55306878158E+02  0.26251868408E+02 -0.29031280778E+02  0.14226150122E+03  0.12509000000E+03 0.  0.
         25    1    3    3    0    0  0.55932220622E+02 -0.94972385284E+02 -0.73980563438E+02  0.18239736604E+03  0.12509000000E+03 0.  0.
         25    1    4    4    0    0 -0.62534246468E+00  0.68720516876E+02 -0.80145434086E+02  0.16368781017E+03  0.12509000000E+03 0.  0.
<mgrwt>
<rscale>  2 0.45269845E+03</rscale>
<asrwt>0</asrwt>
<pdfrwt beam="1">  1       21 0.22440397E-01 0.45269845E+03</pdfrwt>
<pdfrwt beam="2">  1       21 0.49375290E-01 0.45269845E+03</pdfrwt>
<totfact> 0.67318977E+04</totfact>
</mgrwt>
</event>
<event>
 7    0  0.4725730E-002  0.4638295E+03  0.7546771E-02  0.1023676E+00
         21   -1    0    0  502  501  0.00000000000E+00  0.00000000000E+00  0.79873157781E+03  0.79873157781E+03  0.00000000000E+00 0.  1.
         21   -1    0    0  501  502 -0.00000000000E+00 -0.00000000000E+00 -0.67337333353E+02  0.67337333353E+02  0.00000000000E+00 0.  1.
      99926    2    1    2    0    0  0.00000000000E+00  0.00000000000E+00  0.73139424446E+03  0.86606891116E+03  0.46382951400E+03 0.  0.
      99925    2    3    3    0    0  0.11315936601E+02  0.10626769360E+03  0.34958785379E+03  0.45032319420E+03  0.26297992050E+03 0.  0.
         25    1    4    4    0    0  0.20681644736E+02  0.79552681968E+02  0.23337270041E+03  0.27724841755E+03  0.12509000000E+03 0.  0.
         25    1    3    3    0    0 -0.11315936601E+02 -0.10626769360E+03  0.38180639066E+03  0.41574571697E+03  0.12509000000E+03 0.  0.
         25    1    4    4    0    0 -0.93657081343E+01  0.26715011637E+02  0.11621515339E+03  0.17307477665E+03  0.12509000000E+03 0.  0.
<mgrwt>
<rscale>  2 0.46382951E+03</rscale>
<asrwt>0</asrwt>
<pdfrwt beam="1">  1       21 0.11746052E+00 0.46382951E+03</pdfrwt>
<pdfrwt beam="2">  1       21 0.99025495E-02 0.46382951E+03</pdfrwt>
<totfact> 0.41760831E+04</totfact>
</mgrwt>
</event>
<event>
 7    0  0.4725730E-002  0.4620112E+03  0.7546771E-02  0.1024200E+00
         21   -1    0    0  502  501  0.00000000000E+00  0.00000000000E+00  0.66705401421E+02  0.66705401421E+02  0.00000000000E+00 0. -1.
         21   -1    0    0  501  502 -0.00000000000E+00 -0.00000000000E+00 -0.79998890399E+03  0.79998890399E+03  0.00000000000E+00 0. -1.
      99926    2    1    2    0    0  0.00000000000E+00  0.00000000000E+00 -0.73328350257E+03  0.86669430542E+03  0.46201117291E+03 0.  0.
      99925    2    3    3    0    0 -0.62390933646E+02  0.10163908111E+03 -0.44177777371E+03  0.52780460438E+03  0.26303415680E+03 0.  0.
         25    1    3    3    0    0  0.62390933646E+02 -0.10163908111E+03 -0.29150572886E+03  0.33888970104E+03  0.12509000000E+03 0.  0.
         25    1    4    4    0    0 -0.34161849106E+02  0.73331163744E+02 -0.17049621087E+03  0.22640882829E+03  0.12509000000E+03 0.  0.
         25    1    4    4    0    0 -0.28229084540E+02  0.28307917367E+02 -0.27128156285E+03  0.30139577608E+03  0.12509000000E+03 0.  0.
<mgrwt>
<rscale>  2 0.46201117E+03</rscale>
<asrwt>0</asrwt>
<pdfrwt beam="1">  1       21 0.98096182E-02 0.46201117E+03</pdfrwt>
<pdfrwt beam="2">  1       21 0.11764542E+00 0.46201117E+03</pdfrwt>
<totfact> 0.42325596E+04</totfact>
</mgrwt>
</event>
<event>
 7    0  0.4725730E-002  0.4623795E+03  0.7546771E-02  0.1024093E+00
         21   -1    0    0  502  501  0.00000000000E+00  0.00000000000E+00  0.10465172009E+03  0.10465172009E+03  0.00000000000E+00 0. -1.
         21   -1    0    0  501  502 -0.00000000000E+00 -0.00000000000E+00 -0.51072921746E+03  0.51072921746E+03  0.00000000000E+00 0. -1.
      99926    2    1    2    0    0  0.00000000000E+00  0.00000000000E+00 -0.40607749738E+03  0.61538093755E+03  0.46237945935E+03 0.  0.
      99925    2    3    3    0    0 -0.68414772783E+02  0.66493248953E+02 -0.35055137083E+03  0.44854990890E+03  0.26307569993E+03 0.  0.
         25    1    3    3    0    0  0.68414772783E+02 -0.66493248953E+02 -0.55526126542E+02  0.16683102865E+03  0.12509000000E+03 0.  0.
         25    1    4    4    0    0 -0.30192023281E+02  0.59399254119E+02 -0.23205931835E+03  0.27191701858E+03  0.12509000000E+03 0.  0.
         25    1    4    4    0    0 -0.38222749502E+02  0.70939948345E+01 -0.11849205248E+03  0.17663289032E+03  0.12509000000E+03 0.  0.
<mgrwt>
<rscale>  2 0.46237946E+03</rscale>
<asrwt>0</asrwt>
<pdfrwt beam="1">  1       21 0.15389959E-01 0.46237946E+03</pdfrwt>
<pdfrwt beam="2">  1       21 0.75107238E-01 0.46237946E+03</pdfrwt>
<totfact> 0.54495114E+04</totfact>
</mgrwt>
</event>
<event>
 7    0  0.4725730E-002  0.4473266E+03  0.7546771E-02  0.1028522E+00
         21   -1    0    0  502  501  0.00000000000E+00  0.00000000000E+00  0.13654067755E+04  0.13654067755E+04  0.00000000000E+00 0.  1.
         21   -1    0    0  501  502 -0.00000000000E+00 -0.00000000000E+00 -0.36637625819E+02  0.36637625819E+02  0.00000000000E+00 0.  1.
      99926    2    1    2    0    0  0.00000000000E+00  0.00000000000E+00  0.13287691496E+04  0.14020444013E+04  0.44732655870E+03 0.  0.
      99925    2    3    3    0    0 -0.76168440259E+02 -0.56443966297E+02  0.70797816651E+03  0.76171908907E+03  0.26456631262E+03 0.  0.
         25    1    4    4    0    0 -0.52063331097E+02 -0.12262120784E+02  0.25399028873E+03  0.28813108982E+03  0.12509000000E+03 0.  0.
         25    1    3    3    0    0  0.76168440259E+02  0.56443966297E+02  0.62079098312E+03  0.64032531220E+03  0.12509000000E+03 0.  0.
         25    1    4    4    0    0 -0.24105109162E+02 -0.44181845512E+02  0.45398787778E+03  0.47358799925E+03  0.12509000000E+03 0.  0.
<mgrwt>
<rscale>  2 0.44732656E+03</rscale>
<asrwt>0</asrwt>
<pdfrwt beam="1">  1       21 0.20079508E+00 0.44732656E+03</pdfrwt>
<pdfrwt beam="2">  1       21 0.53878870E-02 0.44732656E+03</pdfrwt>
<totfact> 0.27904871E+04</totfact>
</mgrwt>
</event>
<event>
 7    0  0.4725730E-002  0.4580372E+03  0.7546771E-02  0.1025352E+00
         21   -1    0    0  502  501  0.00000000000E+00  0.00000000000E+00  0.78541922935E+02  0.78541922935E+02  0.00000000000E+00 0. -1.
         21   -1    0    0  501  502 -0.00000000000E+00 -0.00000000000E+00 -0.66779003199E+03  0.66779003199E+03  0.00000000000E+00 0. -1.
      99926    2    1    2    0    0 -0.71054273576E-14  0.88817841970E-15 -0.58924810905E+03  0.74633195492E+03  0.45803717416E+03 0.  0.
      99925    2    3    3    0    0 -0.30028865023E+02  0.59931642766E+01 -0.18756050322E+03  0.32450486768E+03  0.26303386859E+03 0.  0.
         25    1    3    3    0    0  0.30028865023E+02 -0.59931642766E+01 -0.40168760584E+03  0.42182708725E+03  0.12509000000E+03 0.  0.
         25    1    4    4    0    0 -0.52549566791E+02  0.57803890335E+01 -0.77416838480E+02  0.15631936811E+03  0.12509000000E+03 0.  0.
         25    1    4    4    0    0  0.22520701768E+02  0.21277524316E+00 -0.11014366474E+03  0.16818549956E+03  0.12509000000E+03 0.  0.
<mgrwt>
<rscale>  2 0.45803717E+03</rscale>
<asrwt>0</asrwt>
<pdfrwt beam="1">  1       21 0.11550283E-01 0.45803717E+03</pdfrwt>
<pdfrwt beam="2">  1       21 0.98204415E-01 0.45803717E+03</pdfrwt>
<totfact> 0.49271724E+04</totfact>
</mgrwt>
</event>
<event>
 7    0  0.4725730E-002  0.4518940E+03  0.7546771E-02  0.1027159E+00
         21   -1    0    0  502  501  0.00000000000E+00  0.00000000000E+00  0.14580961071E+03  0.14580961071E+03  0.00000000000E+00 0.  1.
         21   -1    0    0  501  502 -0.00000000000E+00 -0.00000000000E+00 -0.35012817935E+03  0.35012817935E+03  0.00000000000E+00 0.  1.
      99926    2    1    2    0    0  0.14210854715E-13  0.71054273576E-14 -0.20431856864E+03  0.49593779007E+03  0.45189402975E+03 0.  0.
      99925    2    3    3    0    0  0.98695204341E+02  0.35895594750E+02 -0.16571206917E+03  0.32810690202E+03  0.26299127780E+03 0.  0.
         25    1    4    4    0    0  0.87099870287E+02  0.25118371076E+02 -0.68957545527E+02  0.16917438090E+03  0.12509000000E+03 0.  0.
         25    1    3    3    0    0 -0.98695204341E+02 -0.35895594750E+02 -0.38606499473E+02  0.16783088805E+03  0.12509000000E+03 0.  0.
         25    1    4    4    0    0  0.11595334054E+02  0.10777223674E+02 -0.96754523642E+02  0.15893252111E+03  0.12509000000E+03 0.  0.
<mgrwt>
<rscale>  2 0.45189403E+03</rscale>
<asrwt>0</asrwt>
<pdfrwt beam="1">  1       21 0.21442590E-01 0.45189403E+03</pdfrwt>
<pdfrwt beam="2">  1       21 0.51489438E-01 0.45189403E+03</pdfrwt>
<totfact> 0.67198631E+04</totfact>
</mgrwt>
</event>
<event>
 7    0  0.4725730E-002  0.4555338E+03  0.7546771E-02  0.1026085E+00
         21   -1    0    0  502  501  0.00000000000E+00  0.00000000000E+00  0.77794953179E+02  0.77794953179E+02  0.00000000000E+00 0.  1.
         21   -1    0    0  501  502 -0.00000000000E+00 -0.00000000000E+00 -0.66685249458E+03  0.66685249458E+03  0.00000000000E+00 0.  1.
      99926    2    1    2    0    0  0.00000000000E+00  0.00000000000E+00 -0.58905754140E+03  0.74464744776E+03  0.45553379060E+03 0.  0.
      99925    2    3    3    0    0 -0.10269716189E+03  0.46552551479E+02 -0.34532924007E+03  0.44839613539E+03  0.26285540336E+03 0.  0.
         25    1    4    4    0    0 -0.75547082593E+02 -0.57109756814E+01 -0.15443562922E+03  0.21269191006E+03  0.12509000000E+03 0.  0.
         25    1    3    3    0    0  0.10269716189E+03 -0.46552551479E+02 -0.24372830133E+03  0.29625131237E+03  0.12509000000E+03 0.  0.
         25    1    4    4    0    0 -0.27150079301E+02  0.52263527160E+02 -0.19089361085E+03  0.23570422533E+03  0.12509000000E+03 0.  0.
<mgrwt>
<rscale>  2 0.45553379E+03</rscale>
<asrwt>0</asrwt>
<pdfrwt beam="1">  1       21 0.11440435E-01 0.45553379E+03</pdfrwt>
<pdfrwt beam="2">  1       21 0.98066540E-01 0.45553379E+03</pdfrwt>
<totfact> 0.50333486E+04</totfact>
</mgrwt>
</event>
<event>
 7    0  0.4725730E-002  0.4548960E+03  0.7546771E-02  0.1026272E+00
         21   -1    0    0  502  501  0.00000000000E+00  0.00000000000E+00  0.12787528523E+03  0.12787528523E+03  0.00000000000E+00 0.  1.
         21   -1    0    0  501  502 -0.00000000000E+00 -0.00000000000E+00 -0.40455507648E+03  0.40455507648E+03  0.00000000000E+00 0.  1.
      99926    2    1    2    0    0  0.00000000000E+00  0.00000000000E+00 -0.27667979125E+03  0.53243036170E+03  0.45489601359E+03 0.  0.
      99925    2    3    3    0    0 -0.32309640319E+02 -0.72832938612E+02 -0.26821836952E+03  0.38387850691E+03  0.26281754986E+03 0.  0.
         25    1    3    3    0    0  0.32309640319E+02  0.72832938612E+02 -0.84614217288E+01  0.14855185479E+03  0.12509000000E+03 0.  0.
         25    1    4    4    0    0 -0.32530311008E+02 -0.97735447314E+00 -0.14407328298E+03  0.19355566466E+03  0.12509000000E+03 0.  0.
         25    1    4    4    0    0  0.22067068902E+00 -0.71855584138E+02 -0.12414508655E+03  0.19032284225E+03  0.12509000000E+03 0.  0.
<mgrwt>
<rscale>  2 0.45489601E+03</rscale>
<asrwt>0</asrwt>
<pdfrwt beam="1">  1       21 0.18805189E-01 0.45489601E+03</pdfrwt>
<pdfrwt beam="2">  1       21 0.59493394E-01 0.45489601E+03</pdfrwt>
<totfact> 0.63094247E+04</totfact>
</mgrwt>
</event>
<event>
 7    0  0.4725730E-002  0.4480720E+03  0.7546771E-02  0.1028299E+00
         21   -1    0    0  502  501  0.00000000000E+00  0.00000000000E+00  0.45064800668E+03  0.45064800668E+03  0.00000000000E+00 0. -1.
         21   -1    0    0  501  502 -0.00000000000E+00 -0.00000000000E+00 -0.11137770279E+03  0.11137770279E+03  0.00000000000E+00 0. -1.
      99926    2    1    2    0    0 -0.35527136788E-14  0.00000000000E+00  0.33927030390E+03  0.56202570947E+03  0.44807204667E+03 0.  0.
      99925    2    3    3    0    0 -0.29768828025E+02  0.34919952298E+02  0.33552335440E+03  0.42873229658E+03  0.26292560658E+03 0.  0.
         25    1    3    3    0    0  0.29768828025E+02 -0.34919952298E+02  0.37469495007E+01  0.13329341289E+03  0.12509000000E+03 0.  0.
         25    1    4    4    0    0 -0.16113569980E+02 -0.17715986883E+02  0.12938382986E+03  0.18155216016E+03  0.12509000000E+03 0.  0.
         25    1    4    4    0    0 -0.13655258045E+02  0.52635939181E+02  0.20613952453E+03  0.24718013642E+03  0.12509000000E+03 0.  0.
<mgrwt>
<rscale>  2 0.44807205E+03</rscale>
<asrwt>0</asrwt>
<pdfrwt beam="1">  1       21 0.66271765E-01 0.44807205E+03</pdfrwt>
<pdfrwt beam="2">  1       21 0.16379074E-01 0.44807205E+03</pdfrwt>
<totfact> 0.64543427E+04</totfact>
</mgrwt>
</event>
<event>
 7    0  0.4725730E-002  0.4435052E+03  0.7546771E-02  0.1029677E+00
         21   -1    0    0  502  501  0.00000000000E+00  0.00000000000E+00  0.30074163162E+02  0.30074163162E+02  0.00000000000E+00 0.  1.
         21   -1    0    0  501  502 -0.00000000000E+00 -0.00000000000E+00 -0.16350983950E+04  0.16350983950E+04  0.00000000000E+00 0.  1.
      99926    2    1    2    0    0  0.00000000000E+00 -0.35527136788E-14 -0.16050242318E+04  0.16651725582E+04  0.44350520140E+03 0.  0.
      99925    2    3    3    0    0  0.27650973786E+02 -0.27462630879E+02 -0.66720582669E+03  0.71824613991E+03  0.26304967189E+03 0.  0.
         25    1    3    3    0    0 -0.27650973786E+02  0.27462630879E+02 -0.93781840515E+03  0.94692641826E+03  0.12509000000E+03 0.  0.
         25    1    4    4    0    0  0.16592606966E+01 -0.48398877792E+02 -0.38671957665E+03  0.40932229793E+03  0.12509000000E+03 0.  0.
         25    1    4    4    0    0  0.25991713090E+02  0.20936246913E+02 -0.28048625004E+03  0.30892384198E+03  0.12509000000E+03 0.  0.
<mgrwt>
<rscale>  2 0.44350520E+03</rscale>
<asrwt>0</asrwt>
<pdfrwt beam="1">  1       21 0.44226711E-02 0.44350520E+03</pdfrwt>
<pdfrwt beam="2">  1       21 0.24045564E+00 0.44350520E+03</pdfrwt>
<totfact> 0.21885446E+04</totfact>
</mgrwt>
</event>
<event>
 7    0  0.4725730E-002  0.4542632E+03  0.7546771E-02  0.1026458E+00
         21   -1    0    0  502  501  0.00000000000E+00  0.00000000000E+00  0.85673683955E+02  0.85673683955E+02  0.00000000000E+00 0. -1.
         21   -1    0    0  501  502 -0.00000000000E+00 -0.00000000000E+00 -0.60215416998E+03  0.60215416998E+03  0.00000000000E+00 0. -1.
      99926    2    1    2    0    0  0.00000000000E+00  0.00000000000E+00 -0.51648048602E+03  0.68782785393E+03  0.45426321027E+03 0.  0.
      99925    2    3    3    0    0 -0.72795261196E+01  0.82858529870E+02 -0.43997348047E+03  0.51924743552E+03  0.26291197825E+03 0.  0.
         25    1    4    4    0    0  0.71216515723E+01  0.67788293698E+01 -0.16382448672E+03  0.20635561780E+03  0.12509000000E+03 0.  0.
         25    1    3    3    0    0  0.72795261196E+01 -0.82858529870E+02 -0.76507005551E+02  0.16858041841E+03  0.12509000000E+03 0.  0.
         25    1    4    4    0    0 -0.14401177692E+02  0.76079700501E+02 -0.27614899375E+03  0.31289181772E+03  0.12509000000E+03 0.  0.
<mgrwt>
<rscale>  2 0.45426321E+03</rscale>
<asrwt>0</asrwt>
<pdfrwt beam="1">  1       21 0.12599071E-01 0.45426321E+03</pdfrwt>
<pdfrwt beam="2">  1       21 0.88552083E-01 0.45426321E+03</pdfrwt>
<totfact> 0.53880820E+04</totfact>
</mgrwt>
</event>
<event>
 7    0  0.4725730E-002  0.4643873E+03  0.7546771E-02  0.1023516E+00
         21   -1    0    0  502  501  0.00000000000E+00  0.00000000000E+00  0.17126743233E+03  0.17126743233E+03  0.00000000000E+00 0.  1.
         21   -1    0    0  501  502 -0.00000000000E+00 -0.00000000000E+00 -0.31479356294E+03  0.31479356294E+03  0.00000000000E+00 0.  1.
      99926    2    1    2    0    0  0.31086244690E-14  0.00000000000E+00 -0.14352613060E+03  0.48606099527E+03  0.46438727476E+03 0.  0.
      99925    2    3    3    0    0  0.17262997900E+00 -0.67059954912E+02  0.16793867199E+02  0.27194168939E+03  0.26300794874E+03 0.  0.
         25    1    4    4    0    0  0.34000055731E+02 -0.55332158524E+02  0.15784827674E+02  0.14182496410E+03  0.12509000000E+03 0.  0.
         25    1    4    4    0    0 -0.33827425752E+02 -0.11727796388E+02  0.10090395247E+01  0.13011672530E+03  0.12509000000E+03 0.  0.
         25    1    3    3    0    0 -0.17262997900E+00  0.67059954912E+02 -0.16031999780E+03  0.21411930588E+03  0.12509000000E+03 0.  0.
<mgrwt>
<rscale>  2 0.46438727E+03</rscale>
<asrwt>0</asrwt>
<pdfrwt beam="1">  1       21 0.25186388E-01 0.46438727E+03</pdfrwt>
<pdfrwt beam="2">  1       21 0.46293170E-01 0.46438727E+03</pdfrwt>
<totfact> 0.61546134E+04</totfact>
</mgrwt>
</event>
<event>
 7    0  0.4725730E-002  0.4555214E+03  0.7546771E-02  0.1026088E+00
         21   -1    0    0  502  501  0.00000000000E+00  0.00000000000E+00  0.32275815591E+02  0.32275815591E+02  0.00000000000E+00 0. -1.
         21   -1    0    0  501  502 -0.00000000000E+00 -0.00000000000E+00 -0.16072387312E+04  0.16072387312E+04  0.00000000000E+00 0. -1.
      99926    2    1    2    0    0  0.00000000000E+00  0.71054273576E-14 -0.15749629156E+04  0.16395145468E+04  0.45552141947E+03 0.  0.
      99925    2    3    3    0    0 -0.80336281844E+02 -0.35872914421E+02 -0.12501072397E+04  0.12804609263E+04  0.26281417136E+03 0.  0.
         25    1    4    4    0    0 -0.33475428822E+01 -0.36197800131E+02 -0.58921792370E+03  0.60344573616E+03  0.12509000000E+03 0.  0.
         25    1    4    4    0    0 -0.76988738962E+02  0.32488571010E+00 -0.66088931604E+03  0.67701519011E+03  0.12509000000E+03 0.  0.
         25    1    3    3    0    0  0.80336281844E+02  0.35872914421E+02 -0.32485567587E+03  0.35905362053E+03  0.12509000000E+03 0.  0.
<mgrwt>
<rscale>  2 0.45552142E+03</rscale>
<asrwt>0</asrwt>
<pdfrwt beam="1">  1       21 0.47464423E-02 0.45552142E+03</pdfrwt>
<pdfrwt beam="2">  1       21 0.23635869E+00 0.45552142E+03</pdfrwt>
<totfact> 0.20468388E+04</totfact>
</mgrwt>
</event>
<event>
 7    0  0.4725730E-002  0.4524521E+03  0.7546771E-02  0.1026993E+00
         21   -1    0    0  502  501  0.00000000000E+00  0.00000000000E+00  0.64532173641E+02  0.64532173641E+02  0.00000000000E+00 0.  1.
         21   -1    0    0  501  502 -0.00000000000E+00 -0.00000000000E+00 -0.79306539087E+03  0.79306539087E+03  0.00000000000E+00 0.  1.
      99926    2    1    2    0    0  0.00000000000E+00 -0.71054273576E-14 -0.72853321723E+03  0.85759756451E+03  0.45245213454E+03 0.  0.
      99925    2    3    3    0    0  0.58571491861E+02  0.47977477345E+02 -0.30628928656E+03  0.41075318100E+03  0.26300682623E+03 0.  0.
         25    1    3    3    0    0 -0.58571491861E+02 -0.47977477345E+02 -0.42224393066E+03  0.44684438351E+03  0.12509000000E+03 0.  0.
         25    1    4    4    0    0  0.10026235079E+02 -0.59921967360E+00 -0.10284763287E+03  0.16225297575E+03  0.12509000000E+03 0.  0.
         25    1    4    4    0    0  0.48545256782E+02  0.48576697019E+02 -0.20344165369E+03  0.24850020524E+03  0.12509000000E+03 0.  0.
<mgrwt>
<rscale>  2 0.45245213E+03</rscale>
<asrwt>0</asrwt>
<pdfrwt beam="1">  1       21 0.94900261E-02 0.45245213E+03</pdfrwt>
<pdfrwt beam="2">  1       21 0.11662726E+00 0.45245213E+03</pdfrwt>
<totfact> 0.46014098E+04</totfact>
</mgrwt>
</event>
<event>
 7    0  0.4725730E-002  0.4556205E+03  0.7546771E-02  0.1026059E+00
         21   -1    0    0  502  501  0.00000000000E+00  0.00000000000E+00  0.47410344681E+03  0.47410344681E+03  0.00000000000E+00 0.  1.
         21   -1    0    0  501  502 -0.00000000000E+00 -0.00000000000E+00 -0.10946454390E+03  0.10946454390E+03  0.00000000000E+00 0.  1.
      99926    2    1    2    0    0  0.00000000000E+00  0.00000000000E+00  0.36463890291E+03  0.58356799071E+03  0.45562053319E+03 0.  0.
      99925    2    3    3    0    0  0.47457912083E+02  0.75372736612E+02  0.13865438046E+03  0.31034680681E+03  0.26297680589E+03 0.  0.
         25    1    4    4    0    0  0.13985626682E+02  0.31016575035E+01  0.88112741157E+02  0.15367687297E+03  0.12509000000E+03 0.  0.
         25    1    3    3    0    0 -0.47457912083E+02 -0.75372736612E+02  0.22598452245E+03  0.27322118390E+03  0.12509000000E+03 0.  0.
         25    1    4    4    0    0  0.33472285402E+02  0.72271079109E+02  0.50541639304E+02  0.15666993384E+03  0.12509000000E+03 0.  0.
<mgrwt>
<rscale>  2 0.45562053E+03</rscale>
<asrwt>0</asrwt>
<pdfrwt beam="1">  1       21 0.69721094E-01 0.45562053E+03</pdfrwt>
<pdfrwt beam="2">  1       21 0.16097727E-01 0.45562053E+03</pdfrwt>
<totfact> 0.59409316E+04</totfact>
</mgrwt>
</event>
<event>
 7    0  0.4725730E-002  0.4492497E+03  0.7546771E-02  0.1027946E+00
         21   -1    0    0  502  501  0.00000000000E+00  0.00000000000E+00  0.57982017065E+03  0.57982017065E+03  0.00000000000E+00 0. -1.
         21   -1    0    0  501  502 -0.00000000000E+00 -0.00000000000E+00 -0.87020627239E+02  0.87020627239E+02  0.00000000000E+00 0. -1.
      99926    2    1    2    0    0  0.14210854715E-13  0.00000000000E+00  0.49279954341E+03  0.66684079789E+03  0.44924966304E+03 0.  0.
      99925    2    3    3    0    0  0.86318367286E+02 -0.32048142853E+02  0.39474808859E+03  0.48315753822E+03  0.26293955446E+03 0.  0.
         25    1    3    3    0    0 -0.86318367286E+02  0.32048142853E+02  0.98051454828E+02  0.18368325968E+03  0.12509000000E+03 0.  0.
         25    1    4    4    0    0  0.39903137741E+02 -0.44582411815E+02  0.25013380148E+03  0.28599699052E+03  0.12509000000E+03 0.  0.
         25    1    4    4    0    0  0.46415229545E+02  0.12534268962E+02  0.14461428711E+03  0.19716054769E+03  0.12509000000E+03 0.  0.
<mgrwt>
<rscale>  2 0.44924966E+03</rscale>
<asrwt>0</asrwt>
<pdfrwt beam="1">  1       21 0.85267670E-01 0.44924966E+03</pdfrwt>
<pdfrwt beam="2">  1       21 0.12797151E-01 0.44924966E+03</pdfrwt>
<totfact> 0.57293204E+04</totfact>
</mgrwt>
</event>
<event>
 7    0  0.4725730E-002  0.4523451E+03  0.7546771E-02  0.1027025E+00
         21   -1    0    0  502  501  0.00000000000E+00  0.00000000000E+00  0.73032234222E+03  0.73032234222E+03  0.00000000000E+00 0.  1.
         21   -1    0    0  501  502 -0.00000000000E+00 -0.00000000000E+00 -0.70043063777E+02  0.70043063777E+02  0.00000000000E+00 0.  1.
      99926    2    1    2    0    0  0.00000000000E+00  0.00000000000E+00  0.66027927844E+03  0.80036540600E+03  0.45234506472E+03 0.  0.
      99925    2    3    3    0    0  0.35142261470E+02 -0.10537138798E+03  0.42519565390E+03  0.51183477231E+03  0.26238403554E+03 0.  0.
         25    1    4    4    0    0  0.47526716970E+02 -0.47671228805E+02  0.26095698645E+03  0.29711511533E+03  0.12509000000E+03 0.  0.
         25    1    3    3    0    0 -0.35142261470E+02  0.10537138798E+03  0.23508362454E+03  0.28853063369E+03  0.12509000000E+03 0.  0.
         25    1    4    4    0    0 -0.12384455500E+02 -0.57700159179E+02  0.16423866745E+03  0.21471965698E+03  0.12509000000E+03 0.  0.
<mgrwt>
<rscale>  2 0.45234506E+03</rscale>
<asrwt>0</asrwt>
<pdfrwt beam="1">  1       21 0.10740034E+00 0.45234506E+03</pdfrwt>
<pdfrwt beam="2">  1       21 0.10300451E-01 0.45234506E+03</pdfrwt>
<totfact> 0.48755061E+04</totfact>
</mgrwt>
</event>
<event>
 7    0  0.4725730E-002  0.4169089E+03  0.7546771E-02  0.1038077E+00
         21   -1    0    0  502  501  0.00000000000E+00  0.00000000000E+00  0.11373312957E+03  0.11373312957E+03  0.00000000000E+00 0.  1.
         21   -1    0    0  501  502 -0.00000000000E+00 -0.00000000000E+00 -0.38206338790E+03  0.38206338790E+03  0.00000000000E+00 0.  1.
      99926    2    1    2    0    0  0.00000000000E+00  0.00000000000E+00 -0.26833025833E+03  0.49579651747E+03  0.41690893394E+03 0.  0.
      99925    2    3    3    0    0  0.59792040316E+02  0.37909411951E+02 -0.19165450358E+03  0.33288890234E+03  0.26281430889E+03 0.  0.
         25    1    4    4    0    0  0.51457087395E+02  0.36355457893E+01 -0.13490834634E+03  0.19107281086E+03  0.12509000000E+03 0.  0.
         25    1    3    3    0    0 -0.59792040316E+02 -0.37909411951E+02 -0.76675754750E+02  0.16290761513E+03  0.12509000000E+03 0.  0.
         25    1    4    4    0    0  0.83349529209E+01  0.34273866162E+02 -0.56746157239E+02  0.14181609148E+03  0.12509000000E+03 0.  0.
<mgrwt>
<rscale>  2 0.41690893E+03</rscale>
<asrwt>0</asrwt>
<pdfrwt beam="1">  1       21 0.16725461E-01 0.41690893E+03</pdfrwt>
<pdfrwt beam="2">  1       21 0.56185791E-01 0.41690893E+03</pdfrwt>
<totfact> 0.89771502E+04</totfact>
</mgrwt>
</event>
<event>
 7    0  0.4725730E-002  0.4568847E+03  0.7546771E-02  0.1025689E+00
         21   -1    0    0  502  501  0.00000000000E+00  0.00000000000E+00  0.23179743218E+02  0.23179743218E+02  0.00000000000E+00 0. -1.
         21   -1    0    0  501  502 -0.00000000000E+00 -0.00000000000E+00 -0.22513586425E+04  0.22513586425E+04  0.00000000000E+00 0. -1.
      99926    2    1    2    0    0  0.00000000000E+00  0.14210854715E-13 -0.22281788992E+04  0.22745383857E+04  0.45688473480E+03 0.  0.
      99925    2    3    3    0    0  0.94466383992E+01  0.10394940883E+03 -0.11602119558E+04  0.11942163879E+04  0.26299482902E+03 0.  0.
         25    1    4    4    0    0 -0.96917260028E+01  0.43185095387E+02 -0.72126892103E+03  0.73337251554E+03  0.12509000000E+03 0.  0.
         25    1    4    4    0    0  0.19138364402E+02  0.60764313445E+02 -0.43894303479E+03  0.46084387233E+03  0.12509000000E+03 0.  0.
         25    1    3    3    0    0 -0.94466383992E+01 -0.10394940883E+03 -0.10679669434E+04  0.10803219978E+04  0.12509000000E+03 0.  0.
<mgrwt>
<rscale>  2 0.45688473E+03</rscale>
<asrwt>0</asrwt>
<pdfrwt beam="1">  1       21 0.34087854E-02 0.45688473E+03</pdfrwt>
<pdfrwt beam="2">  1       21 0.33108219E+00 0.45688473E+03</pdfrwt>
<totfact> 0.95818343E+03</totfact>
</mgrwt>
</event>
<event>
 7    0  0.4725730E-002  0.4521106E+03  0.7546771E-02  0.1027095E+00
         21   -1    0    0  502  501  0.00000000000E+00  0.00000000000E+00  0.11157645609E+03  0.11157645609E+03  0.00000000000E+00 0.  1.
         21   -1    0    0  501  502 -0.00000000000E+00 -0.00000000000E+00 -0.45799078590E+03  0.45799078590E+03  0.00000000000E+00 0.  1.
      99926    2    1    2    0    0  0.00000000000E+00  0.71054273576E-14 -0.34641432981E+03  0.56956724199E+03  0.45211055645E+03 0.  0.
      99925    2    3    3    0    0 -0.20303134363E+02  0.55879831480E+02 -0.10119173045E+03  0.28793556024E+03  0.26293030960E+03 0.  0.
         25    1    3    3    0    0  0.20303134363E+02 -0.55879831480E+02 -0.24522259935E+03  0.28163168175E+03  0.12509000000E+03 0.  0.
         25    1    4    4    0    0 -0.36603783589E+02  0.69698763543E+01 -0.25788095335E+02  0.13304491764E+03  0.12509000000E+03 0.  0.
         25    1    4    4    0    0  0.16300649226E+02  0.48909955125E+02 -0.75403635119E+02  0.15489064260E+03  0.12509000000E+03 0.  0.
<mgrwt>
<rscale>  2 0.45211056E+03</rscale>
<asrwt>0</asrwt>
<pdfrwt beam="1">  1       21 0.16408303E-01 0.45211056E+03</pdfrwt>
<pdfrwt beam="2">  1       21 0.67351584E-01 0.45211056E+03</pdfrwt>
<totfact> 0.61996184E+04</totfact>
</mgrwt>
</event>
<event>
 7    0  0.4725730E-002  0.4571536E+03  0.7546771E-02  0.1025610E+00
         21   -1    0    0  502  501  0.00000000000E+00  0.00000000000E+00  0.53719042777E+03  0.53719042777E+03  0.00000000000E+00 0. -1.
         21   -1    0    0  501  502 -0.00000000000E+00 -0.00000000000E+00 -0.97260396091E+02  0.97260396091E+02  0.00000000000E+00 0. -1.
      99926    2    1    2    0    0  0.00000000000E+00  0.00000000000E+00  0.43993003168E+03  0.63445082386E+03  0.45715360124E+03 0.  0.
      99925    2    3    3    0    0  0.48745641628E+02 -0.28568770410E+02  0.41563168153E+03  0.49505846345E+03  0.26294652559E+03 0.  0.
         25    1    4    4    0    0 -0.16539439431E+02 -0.14096393282E+02  0.20437937196E+03  0.24060485686E+03  0.12509000000E+03 0.  0.
         25    1    3    3    0    0 -0.48745641628E+02  0.28568770410E+02  0.24298350143E+02  0.13939236041E+03  0.12509000000E+03 0.  0.
         25    1    4    4    0    0  0.65285081060E+02 -0.14472377128E+02  0.21125230957E+03  0.25445360659E+03  0.12509000000E+03 0.  0.
<mgrwt>
<rscale>  2 0.45715360E+03</rscale>
<asrwt>0</asrwt>
<pdfrwt beam="1">  1       21 0.78998591E-01 0.45715360E+03</pdfrwt>
<pdfrwt beam="2">  1       21 0.14303000E-01 0.45715360E+03</pdfrwt>
<totfact> 0.55654198E+04</totfact>
</mgrwt>
</event>
<event>
 7    0  0.4725730E-002  0.4468990E+03  0.7546771E-02  0.1028651E+00
         21   -1    0    0  502  501  0.00000000000E+00  0.00000000000E+00  0.28625635229E+03  0.28625635229E+03  0.00000000000E+00 0. -1.
         21   -1    0    0  501  502 -0.00000000000E+00 -0.00000000000E+00 -0.17442299356E+03  0.17442299356E+03  0.00000000000E+00 0. -1.
      99926    2    1    2    0    0  0.00000000000E+00  0.14210854715E-13  0.11183335873E+03  0.46067934586E+03  0.44689904853E+03 0.  0.
      99925    2    3    3    0    0  0.16923042046E+02  0.10079043806E+03  0.44185781005E+02  0.28555423450E+03  0.26295196489E+03 0.  0.
         25    1    3    3    0    0 -0.16923042046E+02 -0.10079043806E+03  0.67647577725E+02  0.17512511136E+03  0.12509000000E+03 0.  0.
         25    1    4    4    0    0  0.20971180960E+01  0.70574663195E+02  0.58766760698E+02  0.15519736226E+03  0.12509000000E+03 0.  0.
         25    1    4    4    0    0  0.14825923950E+02  0.30215774863E+02 -0.14580979694E+02  0.13035687224E+03  0.12509000000E+03 0.  0.
<mgrwt>
<rscale>  2 0.44689905E+03</rscale>
<asrwt>0</asrwt>
<pdfrwt beam="1">  1       21 0.42096522E-01 0.44689905E+03</pdfrwt>
<pdfrwt beam="2">  1       21 0.25650440E-01 0.44689905E+03</pdfrwt>
<totfact> 0.72695587E+04</totfact>
</mgrwt>
</event>
<event>
 7    0  0.4725730E-002  0.4615424E+03  0.7546771E-02  0.1024335E+00
         21   -1    0    0  502  501  0.00000000000E+00  0.00000000000E+00  0.26089034078E+03  0.26089034078E+03  0.00000000000E+00 0. -1.
         21   -1    0    0  501  502 -0.00000000000E+00 -0.00000000000E+00 -0.20412925566E+03  0.20412925566E+03  0.00000000000E+00 0. -1.
      99926    2    1    2    0    0  0.71054273576E-14  0.14210854715E-13  0.56761085122E+02  0.46501959645E+03  0.46154241874E+03 0.  0.
      99925    2    3    3    0    0  0.38548279436E+02  0.11193365288E+03  0.49421221895E+02  0.29263486920E+03  0.26301634361E+03 0.  0.
         25    1    3    3    0    0 -0.38548279436E+02 -0.11193365288E+03  0.73398632270E+01  0.17238472725E+03  0.12509000000E+03 0.  0.
         25    1    4    4    0    0 -0.12982155963E+02  0.29411811763E+02  0.11331176587E+02  0.12965143542E+03  0.12509000000E+03 0.  0.
         25    1    4    4    0    0  0.51530435399E+02  0.82521841121E+02  0.38090045309E+02  0.16298343378E+03  0.12509000000E+03 0.  0.
<mgrwt>
<rscale>  2 0.46154242E+03</rscale>
<asrwt>0</asrwt>
<pdfrwt beam="1">  1       21 0.38366227E-01 0.46154242E+03</pdfrwt>
<pdfrwt beam="2">  1       21 0.30019008E-01 0.46154242E+03</pdfrwt>
<totfact> 0.64390504E+04</totfact>
</mgrwt>
</event>
<event>
 7    0  0.4725730E-002  0.4568772E+03  0.7546771E-02  0.1025691E+00
         21   -1    0    0  502  501  0.00000000000E+00  0.00000000000E+00  0.10286045028E+03  0.10286045028E+03  0.00000000000E+00 0.  1.
         21   -1    0    0  501  502 -0.00000000000E+00 -0.00000000000E+00 -0.50733005567E+03  0.50733005567E+03  0.00000000000E+00 0.  1.
      99926    2    1    2    0    0  0.00000000000E+00  0.00000000000E+00 -0.40446960539E+03  0.61019050595E+03  0.45687721750E+03 0.  0.
      99925    2    3    3    0    0  0.73866082585E+02  0.87113921793E+02 -0.27047996307E+03  0.39421419736E+03  0.26305966899E+03 0.  0.
         25    1    3    3    0    0 -0.73866082585E+02 -0.87113921793E+02 -0.13398964231E+03  0.21597630859E+03  0.12509000000E+03 0.  0.
         25    1    4    4    0    0  0.98984719573E+01  0.63426393911E+02 -0.16594462856E+03  0.21749945986E+03  0.12509000000E+03 0.  0.
         25    1    4    4    0    0  0.63967610628E+02  0.23687527882E+02 -0.10453533451E+03  0.17671473750E+03  0.12509000000E+03 0.  0.
<mgrwt>
<rscale>  2 0.45687722E+03</rscale>
<asrwt>0</asrwt>
<pdfrwt beam="1">  1       21 0.15126537E-01 0.45687722E+03</pdfrwt>
<pdfrwt beam="2">  1       21 0.74607361E-01 0.45687722E+03</pdfrwt>
<totfact> 0.57202429E+04</totfact>
</mgrwt>
</event>
<event>
 7    0  0.4725730E-002  0.4462876E+03  0.7546771E-02  0.1028835E+00
         21   -1    0    0  502  501  0.00000000000E+00  0.00000000000E+00  0.70704642586E+03  0.70704642586E+03  0.00000000000E+00 0. -1.
         21   -1    0    0  501  502 -0.00000000000E+00 -0.00000000000E+00 -0.70424153245E+02  0.70424153245E+02  0.00000000000E+00 0. -1.
      99926    2    1    2    0    0  0.71054273576E-14  0.00000000000E+00  0.63662227262E+03  0.77747057911E+03  0.44628755683E+03 0.  0.
      99925    2    3    3    0    0  0.40442176270E+02  0.96647617031E+02  0.40692597920E+03  0.49571851290E+03  0.26300524708E+03 0.  0.
         25    1    3    3    0    0 -0.40442176270E+02 -0.96647617031E+02  0.22969629342E+03  0.28175206620E+03  0.12509000000E+03 0.  0.
         25    1    4    4    0    0  0.49961363949E+02  0.73209586547E+02  0.19124817767E+03  0.24511049552E+03  0.12509000000E+03 0.  0.
         25    1    4    4    0    0 -0.95191876795E+01  0.23438030484E+02  0.21567780153E+03  0.25060801739E+03  0.12509000000E+03 0.  0.
<mgrwt>
<rscale>  2 0.44628756E+03</rscale>
<asrwt>0</asrwt>
<pdfrwt beam="1">  1       21 0.10397741E+00 0.44628756E+03</pdfrwt>
<pdfrwt beam="2">  1       21 0.10356494E-01 0.44628756E+03</pdfrwt>
<totfact> 0.52364194E+04</totfact>
</mgrwt>
</event>
<event>
 7    0  0.4725730E-002  0.4085702E+03  0.7546771E-02  0.1040852E+00
         21   -1    0    0  502  501  0.00000000000E+00  0.00000000000E+00  0.21101986884E+03  0.21101986884E+03  0.00000000000E+00 0.  1.
         21   -1    0    0  501  502 -0.00000000000E+00 -0.00000000000E+00 -0.19776531437E+03  0.19776531437E+03  0.00000000000E+00 0.  1.
      99926    2    1    2    0    0  0.88817841970E-15  0.71054273576E-14  0.13254554469E+02  0.40878518321E+03  0.40857024219E+03 0.  0.
      99925    2    3    3    0    0 -0.43007272931E+01  0.59798396243E+02  0.18161967954E+01  0.26959937728E+03  0.26284250267E+03 0.  0.
         25    1    4    4    0    0 -0.53868443246E+01 -0.68874154873E+01  0.18910659561E+02  0.12681315282E+03  0.12509000000E+03 0.  0.
         25    1    4    4    0    0  0.10861170315E+01  0.66685811730E+02 -0.17094462766E+02  0.14278622445E+03  0.12509000000E+03 0.  0.
         25    1    3    3    0    0  0.43007272931E+01 -0.59798396243E+02  0.11438357674E+02  0.13918580594E+03  0.12509000000E+03 0.  0.
<mgrwt>
<rscale>  2 0.40857024E+03</rscale>
<asrwt>0</asrwt>
<pdfrwt beam="1">  1       21 0.31032334E-01 0.40857024E+03</pdfrwt>
<pdfrwt beam="2">  1       21 0.29083135E-01 0.40857024E+03</pdfrwt>
<totfact> 0.10633623E+05</totfact>
</mgrwt>
</event>
<event>
 7    0  0.4725730E-002  0.4593577E+03  0.7546771E-02  0.1024968E+00
         21   -1    0    0  502  501  0.00000000000E+00  0.00000000000E+00  0.98445386953E+02  0.98445386953E+02  0.00000000000E+00 0. -1.
         21   -1    0    0  501  502 -0.00000000000E+00 -0.00000000000E+00 -0.53585417048E+03  0.53585417048E+03  0.00000000000E+00 0. -1.
      99926    2    1    2    0    0  0.00000000000E+00  0.00000000000E+00 -0.43740878353E+03  0.63429955743E+03  0.45935768705E+03 0.  0.
      99925    2    3    3    0    0 -0.50515392631E+02  0.73825598427E+02 -0.37882945852E+03  0.46973628907E+03  0.26294181628E+03 0.  0.
         25    1    4    4    0    0 -0.46724505805E+01  0.63168659379E+02 -0.23292559988E+03  0.27187120940E+03  0.12509000000E+03 0.  0.
         25    1    4    4    0    0 -0.45842942050E+02  0.10656939048E+02 -0.14590385864E+03  0.19786507967E+03  0.12509000000E+03 0.  0.
         25    1    3    3    0    0  0.50515392631E+02 -0.73825598427E+02 -0.58579325003E+02  0.16456326836E+03  0.12509000000E+03 0.  0.
<mgrwt>
<rscale>  2 0.45935769E+03</rscale>
<asrwt>0</asrwt>
<pdfrwt beam="1">  1       21 0.14477263E-01 0.45935769E+03</pdfrwt>
<pdfrwt beam="2">  1       21 0.78802084E-01 0.45935769E+03</pdfrwt>
<totfact> 0.54708971E+04</totfact>
</mgrwt>
</event>
<event>
 7    0  0.4725730E-002  0.4524064E+03  0.7546771E-02  0.1027007E+00
         21   -1    0    0  502  501  0.00000000000E+00  0.00000000000E+00  0.22309933491E+03  0.22309933491E+03  0.00000000000E+00 0.  1.
         21   -1    0    0  501  502 -0.00000000000E+00 -0.00000000000E+00 -0.22935027788E+03  0.22935027788E+03  0.00000000000E+00 0.  1.
      99926    2    1    2    0    0  0.00000000000E+00  0.00000000000E+00 -0.62509429647E+01  0.45244961279E+03  0.45240642991E+03 0.  0.
      99925    2    3    3    0    0  0.10433543302E+03  0.27449356211E+02 -0.29688354192E+02  0.28560786116E+03  0.26277576419E+03 0.  0.
         25    1    4    4    0    0  0.64855946344E+02 -0.16802139854E+02 -0.38067551942E+02  0.14691920327E+03  0.12509000000E+03 0.  0.
         25    1    4    4    0    0  0.39479486681E+02  0.44251496065E+02  0.83791977503E+01  0.13868865789E+03  0.12509000000E+03 0.  0.
         25    1    3    3    0    0 -0.10433543302E+03 -0.27449356211E+02  0.23437411227E+02  0.16684175163E+03  0.12509000000E+03 0.  0.
<mgrwt>
<rscale>  2 0.45240643E+03</rscale>
<asrwt>0</asrwt>
<pdfrwt beam="1">  1       21 0.32808726E-01 0.45240643E+03</pdfrwt>
<pdfrwt beam="2">  1       21 0.33727982E-01 0.45240643E+03</pdfrwt>
<totfact> 0.70174012E+04</totfact>
</mgrwt>
</event>
<event>
 7    0  0.4725730E-002  0.4493542E+03  0.7546771E-02  0.1027915E+00
         21   -1    0    0  502  501  0.00000000000E+00  0.00000000000E+00  0.15646400065E+03  0.15646400065E+03  0.00000000000E+00 0. -1.
         21   -1    0    0  501  502 -0.00000000000E+00 -0.00000000000E+00 -0.32262890144E+03  0.32262890144E+03  0.00000000000E+00 0. -1.
      99926    2    1    2    0    0  0.22204460493E-15  0.00000000000E+00 -0.16616490079E+03  0.47909290209E+03  0.44935424175E+03 0.  0.
      99925    2    3    3    0    0 -0.17170036471E+01 -0.28317113365E+02  0.56633402622E+01  0.26466981673E+03  0.26308407678E+03 0.  0.
         25    1    4    4    0    0 -0.65602939445E+01 -0.49940789569E+02 -0.16007336700E+02  0.13579713858E+03  0.12509000000E+03 0.  0.
         25    1    3    3    0    0  0.17170036471E+01  0.28317113365E+02 -0.17182824105E+03  0.21442308535E+03  0.12509000000E+03 0.  0.
         25    1    4    4    0    0  0.48432902974E+01  0.21623676204E+02  0.21670676963E+02  0.12887267815E+03  0.12509000000E+03 0.  0.
<mgrwt>
<rscale>  2 0.44935424E+03</rscale>
<asrwt>0</asrwt>
<pdfrwt beam="1">  1       21 0.23009412E-01 0.44935424E+03</pdfrwt>
<pdfrwt beam="2">  1       21 0.47445426E-01 0.44935424E+03</pdfrwt>
<totfact> 0.69844210E+04</totfact>
</mgrwt>
</event>
<event>
 7    0  0.4725730E-002  0.4473129E+03  0.7546771E-02  0.1028526E+00
         21   -1    0    0  502  501  0.00000000000E+00  0.00000000000E+00  0.87775081876E+03  0.87775081876E+03  0.00000000000E+00 0.  1.
         21   -1    0    0  501  502 -0.00000000000E+00 -0.00000000000E+00 -0.56989065186E+02  0.56989065186E+02  0.00000000000E+00 0.  1.
      99926    2    1    2    0    0  0.00000000000E+00  0.00000000000E+00  0.82076175357E+03  0.93473988395E+03  0.44731285976E+03 0.  0.
      99925    2    3    3    0    0  0.73286012690E+02  0.76417195969E+02  0.52365474102E+03  0.59543100917E+03  0.26289422091E+03 0.  0.
         25    1    4    4    0    0  0.49746082849E+02  0.77225551318E+02  0.31150392129E+03  0.34802393541E+03  0.12509000000E+03 0.  0.
         25    1    3    3    0    0 -0.73286012690E+02 -0.76417195969E+02  0.29710701255E+03  0.33930887478E+03  0.12509000000E+03 0.  0.
         25    1    4    4    0    0  0.23539929841E+02 -0.80835534964E+00  0.21215081972E+03  0.24740707376E+03  0.12509000000E+03 0.  0.
<mgrwt>
<rscale>  2 0.44731286E+03</rscale>
<asrwt>0</asrwt>
<pdfrwt beam="1">  1       21 0.12908099E+00 0.44731286E+03</pdfrwt>
<pdfrwt beam="2">  1       21 0.83807454E-02 0.44731286E+03</pdfrwt>
<totfact> 0.44373303E+04</totfact>
</mgrwt>
</event>
<event>
 7    0  0.4725730E-002  0.4529222E+03  0.7546771E-02  0.1026854E+00
         21   -1    0    0  502  501  0.00000000000E+00  0.00000000000E+00  0.48985886676E+02  0.48985886676E+02  0.00000000000E+00 0. -1.
         21   -1    0    0  501  502 -0.00000000000E+00 -0.00000000000E+00 -0.10469267540E+04  0.10469267540E+04  0.00000000000E+00 0. -1.
      99926    2    1    2    0    0  0.00000000000E+00 -0.71054273576E-14 -0.99794086730E+03  0.10959126407E+04  0.45292222435E+03 0.  0.
      99925    2    3    3    0    0  0.90081348149E+02 -0.62595701642E+02 -0.58532330713E+03  0.65101531518E+03  0.26302983782E+03 0.  0.
         25    1    4    4    0    0  0.33523468943E+02  0.89064011666E+01 -0.28401466314E+03  0.31227389249E+03  0.12509000000E+03 0.  0.
         25    1    3    3    0    0 -0.90081348149E+02  0.62595701642E+02 -0.41261756018E+03  0.44489732547E+03  0.12509000000E+03 0.  0.
         25    1    4    4    0    0  0.56557879205E+02 -0.71502102808E+02 -0.30130864398E+03  0.33874142269E+03  0.12509000000E+03 0.  0.
<mgrwt>
<rscale>  2 0.45292222E+03</rscale>
<asrwt>0</asrwt>
<pdfrwt beam="1">  1       21 0.72038066E-02 0.45292222E+03</pdfrwt>
<pdfrwt beam="2">  1       21 0.15395982E+00 0.45292222E+03</pdfrwt>
<totfact> 0.36219862E+04</totfact>
</mgrwt>
</event>
<event>
 7    0  0.4725730E-002  0.4580313E+03  0.7546771E-02  0.1025354E+00
         21   -1    0    0  502  501  0.00000000000E+00  0.00000000000E+00  0.77614536339E+03  0.77614536339E+03  0.00000000000E+00 0.  1.
         21   -1    0    0  501  502 -0.00000000000E+00 -0.00000000000E+00 -0.67575183654E+02  0.67575183654E+02  0.00000000000E+00 0.  1.
      99926    2    1    2    0    0  0.00000000000E+00  0.00000000000E+00  0.70857017973E+03  0.84372054704E+03  0.45803128921E+03 0.  0.
      99925    2    3    3    0    0 -0.75342260751E+02 -0.48436428423E+02  0.58036475993E+03  0.64345402058E+03  0.26303474710E+03 0.  0.
         25    1    4    4    0    0 -0.24624141554E+02  0.11669939270E+01  0.34294799063E+03  0.36588050317E+03  0.12509000000E+03 0.  0.
         25    1    3    3    0    0  0.75342260751E+02  0.48436428423E+02  0.12820541980E+03  0.20026652646E+03  0.12509000000E+03 0.  0.
         25    1    4    4    0    0 -0.50718119197E+02 -0.49603422350E+02  0.23741676930E+03  0.27757351741E+03  0.12509000000E+03 0.  0.
<mgrwt>
<rscale>  2 0.45803129E+03</rscale>
<asrwt>0</asrwt>
<pdfrwt beam="1">  1       21 0.11413902E+00 0.45803129E+03</pdfrwt>
<pdfrwt beam="2">  1       21 0.99375275E-02 0.45803129E+03</pdfrwt>
<totfact> 0.44650270E+04</totfact>
</mgrwt>
</event>
<event>
 7    0  0.4725730E-002  0.4585958E+03  0.7546771E-02  0.1025189E+00
         21   -1    0    0  502  501  0.00000000000E+00  0.00000000000E+00  0.13298378422E+04  0.13298378422E+04  0.00000000000E+00 0.  1.
         21   -1    0    0  501  502 -0.00000000000E+00 -0.00000000000E+00 -0.39536792582E+02  0.39536792582E+02  0.00000000000E+00 0.  1.
      99926    2    1    2    0    0  0.00000000000E+00  0.00000000000E+00  0.12903010496E+04  0.13693746348E+04  0.45859578252E+03 0.  0.
      99925    2    3    3    0    0 -0.78662833563E+02  0.76101979108E+02  0.69000961022E+03  0.74649689966E+03  0.26299240746E+03 0.  0.
         25    1    4    4    0    0 -0.37401845252E+02  0.14262339119E+01  0.37275766341E+03  0.39496419572E+03  0.12509000000E+03 0.  0.
         25    1    4    4    0    0 -0.41260988311E+02  0.74675745196E+02  0.31725194682E+03  0.35153270394E+03  0.12509000000E+03 0.  0.
         25    1    3    3    0    0  0.78662833563E+02 -0.76101979108E+02  0.60029143941E+03  0.62287773514E+03  0.12509000000E+03 0.  0.
<mgrwt>
<rscale>  2 0.45859578E+03</rscale>
<asrwt>0</asrwt>
<pdfrwt beam="1">  1       21 0.19556436E+00 0.45859578E+03</pdfrwt>
<pdfrwt beam="2">  1       21 0.58142351E-02 0.45859578E+03</pdfrwt>
<totfact> 0.26413728E+04</totfact>
</mgrwt>
</event>
<event>
 7    0  0.4725730E-002  0.4205752E+03  0.7546771E-02  0.1036879E+00
         21   -1    0    0  502  501  0.00000000000E+00  0.00000000000E+00  0.45222467313E+03  0.45222467313E+03  0.00000000000E+00 0.  1.
         21   -1    0    0  501  502 -0.00000000000E+00 -0.00000000000E+00 -0.97785177086E+02  0.97785177086E+02  0.00000000000E+00 0.  1.
      99926    2    1    2    0    0  0.14210854715E-13  0.35527136788E-14  0.35443949604E+03  0.55000985022E+03  0.42057517637E+03 0.  0.
      99925    2    3    3    0    0  0.65756040848E+02 -0.23259499102E+02  0.27185826168E+03  0.38468583631E+03  0.26308062833E+03 0.  0.
         25    1    4    4    0    0  0.40150661198E+02 -0.50444957119E+02  0.12541272429E+03  0.18850100479E+03  0.12509000000E+03 0.  0.
         25    1    4    4    0    0  0.25605379651E+02  0.27185458017E+02  0.14644553739E+03  0.19618483152E+03  0.12509000000E+03 0.  0.
         25    1    3    3    0    0 -0.65756040848E+02  0.23259499102E+02  0.82581234361E+02  0.16532401391E+03  0.12509000000E+03 0.  0.
<mgrwt>
<rscale>  2 0.42057518E+03</rscale>
<asrwt>0</asrwt>
<pdfrwt beam="1">  1       21 0.66503628E-01 0.42057518E+03</pdfrwt>
<pdfrwt beam="2">  1       21 0.14380173E-01 0.42057518E+03</pdfrwt>
<totfact> 0.82025973E+04</totfact>
</mgrwt>
</event>
<event>
 7    0  0.4725730E-002  0.4599046E+03  0.7546771E-02  0.1024809E+00
         21   -1    0    0  502  501  0.00000000000E+00  0.00000000000E+00  0.84957827369E+02  0.84957827369E+02  0.00000000000E+00 0. -1.
         21   -1    0    0  501  502 -0.00000000000E+00 -0.00000000000E+00 -0.62240368320E+03  0.62240368320E+03  0.00000000000E+00 0. -1.
      99926    2    1    2    0    0  0.00000000000E+00  0.00000000000E+00 -0.53744585583E+03  0.70736151057E+03  0.45990461912E+03 0.  0.
      99925    2    3    3    0    0  0.11089223319E+03 -0.37640900988E+02 -0.31708958557E+03  0.42822298089E+03  0.26289768215E+03 0.  0.
         25    1    4    4    0    0  0.15007371930E+02 -0.10466755802E+02 -0.11890995137E+03  0.17355650038E+03  0.12509000000E+03 0.  0.
         25    1    4    4    0    0  0.95884861255E+02 -0.27174145186E+02 -0.19817963420E+03  0.25466648051E+03  0.12509000000E+03 0.  0.
         25    1    3    3    0    0 -0.11089223319E+03  0.37640900988E+02 -0.22035627026E+03  0.27913852968E+03  0.12509000000E+03 0.  0.
<mgrwt>
<rscale>  2 0.45990462E+03</rscale>
<asrwt>0</asrwt>
<pdfrwt beam="1">  1       21 0.12493798E-01 0.45990462E+03</pdfrwt>
<pdfrwt beam="2">  1       21 0.91529954E-01 0.45990462E+03</pdfrwt>
<totfact> 0.50526793E+04</totfact>
</mgrwt>
</event>
<event>
 7    0  0.4725730E-002  0.4341398E+03  0.7546771E-02  0.1032560E+00
         21   -1    0    0  502  501  0.00000000000E+00  0.00000000000E+00  0.20754411401E+03  0.20754411401E+03  0.00000000000E+00 0.  1.
         21   -1    0    0  501  502 -0.00000000000E+00 -0.00000000000E+00 -0.22703291568E+03  0.22703291568E+03  0.00000000000E+00 0.  1.
      99926    2    1    2    0    0  0.00000000000E+00  0.00000000000E+00 -0.19488801673E+02  0.43457702970E+03  0.43413981774E+03 0.  0.
      99925    2    3    3    0    0  0.57787567661E+02 -0.63126534574E+02  0.20234322996E+02  0.27789328109E+03  0.26361123934E+03 0.  0.
         25    1    4    4    0    0  0.60882824165E+02 -0.81080871005E+01  0.22637833394E+02  0.14118228981E+03  0.12509000000E+03 0.  0.
         25    1    4    4    0    0 -0.30952565033E+01 -0.55018447474E+02 -0.24035103979E+01  0.13671099128E+03  0.12509000000E+03 0.  0.
         25    1    3    3    0    0 -0.57787567661E+02  0.63126534574E+02 -0.39723124670E+02  0.15668374861E+03  0.12509000000E+03 0.  0.
<mgrwt>
<rscale>  2 0.43413982E+03</rscale>
<asrwt>0</asrwt>
<pdfrwt beam="1">  1       21 0.30521193E-01 0.43413982E+03</pdfrwt>
<pdfrwt beam="2">  1       21 0.33387193E-01 0.43413982E+03</pdfrwt>
<totfact> 0.83055270E+04</totfact>
</mgrwt>
</event>
<event>
 7    0  0.4725730E-002  0.4541529E+03  0.7546771E-02  0.1026491E+00
         21   -1    0    0  502  501  0.00000000000E+00  0.00000000000E+00  0.96568852418E+02  0.96568852418E+02  0.00000000000E+00 0. -1.
         21   -1    0    0  501  502 -0.00000000000E+00 -0.00000000000E+00 -0.53395812907E+03  0.53395812907E+03  0.00000000000E+00 0. -1.
      99926    2    1    2    0    0 -0.14210854715E-13 -0.35527136788E-14 -0.43738927665E+03  0.63052698149E+03  0.45415294236E+03 0.  0.
      99925    2    3    3    0    0 -0.78818488549E+02 -0.15646453034E+02 -0.38439701952E+03  0.47268892193E+03  0.26309044579E+03 0.  0.
         25    1    4    4    0    0 -0.59843163983E+02 -0.42582797731E+02 -0.21964185066E+03  0.26321958438E+03  0.12509000000E+03 0.  0.
         25    1    4    4    0    0 -0.18975324567E+02  0.26936344697E+02 -0.16475516886E+03  0.20946933755E+03  0.12509000000E+03 0.  0.
         25    1    3    3    0    0  0.78818488549E+02  0.15646453034E+02 -0.52992257133E+02  0.15783805956E+03  0.12509000000E+03 0.  0.
<mgrwt>
<rscale>  2 0.45415294E+03</rscale>
<asrwt>0</asrwt>
<pdfrwt beam="1">  1       21 0.14201302E-01 0.45415294E+03</pdfrwt>
<pdfrwt beam="2">  1       21 0.78523253E-01 0.45415294E+03</pdfrwt>
<totfact> 0.57219158E+04</totfact>
</mgrwt>
</event>
<event>
 7    0  0.4725730E-002  0.4631207E+03  0.7546771E-02  0.1023880E+00
         21   -1    0    0  502  501  0.00000000000E+00  0.00000000000E+00  0.66625630931E+02  0.66625630931E+02  0.00000000000E+00 0.  1.
         21   -1    0    0  501  502 -0.00000000000E+00 -0.00000000000E+00 -0.80479823170E+03  0.80479823170E+03  0.00000000000E+00 0.  1.
      99926    2    1    2    0    0 -0.14210854715E-13  0.00000000000E+00 -0.73817260077E+03  0.87142386263E+03  0.46312067524E+03 0.  0.
      99925    2    3    3    0    0  0.10973581346E+03  0.26604787195E+02 -0.54112169041E+03  0.61214344912E+03  0.26297748004E+03 0.  0.
         25    1    4    4    0    0  0.78457377945E+02  0.39021953904E+02 -0.24181193442E+03  0.28600488242E+03  0.12509000000E+03 0.  0.
         25    1    3    3    0    0 -0.10973581346E+03 -0.26604787195E+02 -0.19705091036E+03  0.25928041351E+03  0.12509000000E+03 0.  0.
         25    1    4    4    0    0  0.31278435513E+02 -0.12417166710E+02 -0.29930975599E+03  0.32613856670E+03  0.12509000000E+03 0.  0.
<mgrwt>
<rscale>  2 0.46312068E+03</rscale>
<asrwt>0</asrwt>
<pdfrwt beam="1">  1       21 0.97978874E-02 0.46312068E+03</pdfrwt>
<pdfrwt beam="2">  1       21 0.11835268E+00 0.46312068E+03</pdfrwt>
<totfact> 0.41771034E+04</totfact>
</mgrwt>
</event>
<event>
 7    0  0.4725730E-002  0.4524013E+03  0.7546771E-02  0.1027008E+00
         21   -1    0    0  502  501  0.00000000000E+00  0.00000000000E+00  0.56699029828E+03  0.56699029828E+03  0.00000000000E+00 0. -1.
         21   -1    0    0  501  502 -0.00000000000E+00 -0.00000000000E+00 -0.90242680463E+02  0.90242680463E+02  0.00000000000E+00 0. -1.
      99926    2    1    2    0    0  0.00000000000E+00  0.00000000000E+00  0.47674761782E+03  0.65723297875E+03  0.45240125691E+03 0.  0.
      99925    2    3    3    0    0  0.26225325422E+02 -0.81228158814E+02  0.19799805466E+03  0.34000339541E+03  0.26289408089E+03 0.  0.
         25    1    3    3    0    0 -0.26225325422E+02  0.81228158814E+02  0.27874956316E+03  0.31722958333E+03  0.12509000000E+03 0.  0.
         25    1    4    4    0    0 -0.17904418901E+01 -0.29178940698E+02  0.13994337888E+03  0.18996387461E+03  0.12509000000E+03 0.  0.
         25    1    4    4    0    0  0.28015767312E+02 -0.52049218116E+02  0.58054675773E+02  0.15003952081E+03  0.12509000000E+03 0.  0.
<mgrwt>
<rscale>  2 0.45240126E+03</rscale>
<asrwt>0</asrwt>
<pdfrwt beam="1">  1       21 0.83380924E-01 0.45240126E+03</pdfrwt>
<pdfrwt beam="2">  1       21 0.13270983E-01 0.45240126E+03</pdfrwt>
<totfact> 0.56434294E+04</totfact>
</mgrwt>
</event>
<event>
 7    0  0.4725730E-002  0.4557467E+03  0.7546771E-02  0.1026022E+00
         21   -1    0    0  502  501  0.00000000000E+00  0.00000000000E+00  0.10574452879E+03  0.10574452879E+03  0.00000000000E+00 0. -1.
         21   -1    0    0  501  502 -0.00000000000E+00 -0.00000000000E+00 -0.49105393327E+03  0.49105393327E+03  0.00000000000E+00 0. -1.
      99926    2    1    2    0    0  0.71054273576E-14  0.00000000000E+00 -0.38530940449E+03  0.59679846206E+03  0.45574671379E+03 0.  0.
      99925    2    3    3    0    0 -0.54858219114E+02  0.67200998522E+02 -0.33910824101E+03  0.43771529509E+03  0.26282100758E+03 0.  0.
         25    1    3    3    0    0  0.54858219114E+02 -0.67200998522E+02 -0.46201163480E+02  0.15908316697E+03  0.12509000000E+03 0.  0.
         25    1    4    4    0    0  0.85788497753E+01  0.15604191173E+02 -0.17370675498E+03  0.21479905091E+03  0.12509000000E+03 0.  0.
         25    1    4    4    0    0 -0.63437068890E+02  0.51596807349E+02 -0.16540148603E+03  0.22291624418E+03  0.12509000000E+03 0.  0.
<mgrwt>
<rscale>  2 0.45574671E+03</rscale>
<asrwt>0</asrwt>
<pdfrwt beam="1">  1       21 0.15550666E-01 0.45574671E+03</pdfrwt>
<pdfrwt beam="2">  1       21 0.72213814E-01 0.45574671E+03</pdfrwt>
<totfact> 0.58529641E+04</totfact>
</mgrwt>
</event>
<event>
 7    0  0.4725730E-002  0.4547339E+03  0.7546771E-02  0.1026320E+00
         21   -1    0    0  502  501  0.00000000000E+00  0.00000000000E+00  0.70180017246E+02  0.70180017246E+02  0.00000000000E+00 0.  1.
         21   -1    0    0  501  502 -0.00000000000E+00 -0.00000000000E+00 -0.73661605227E+03  0.73661605227E+03  0.00000000000E+00 0.  1.
      99926    2    1    2    0    0  0.00000000000E+00 -0.17763568394E-14 -0.66643603502E+03  0.80679606952E+03  0.45473388812E+03 0.  0.
      99925    2    3    3    0    0 -0.65488227739E+02 -0.12147992308E+02 -0.25777044654E+03  0.37425548992E+03  0.26303096193E+03 0.  0.
         25    1    3    3    0    0  0.65488227739E+02  0.12147992308E+02 -0.40866558848E+03  0.43254057960E+03  0.12509000000E+03 0.  0.
         25    1    4    4    0    0  0.50252817176E+01 -0.14807856876E+02 -0.14115388357E+03  0.18925235277E+03  0.12509000000E+03 0.  0.
         25    1    4    4    0    0 -0.70513509457E+02  0.26598645676E+01 -0.11661656297E+03  0.18500313715E+03  0.12509000000E+03 0.  0.
<mgrwt>
<rscale>  2 0.45473389E+03</rscale>
<asrwt>0</asrwt>
<pdfrwt beam="1">  1       21 0.10320592E-01 0.45473389E+03</pdfrwt>
<pdfrwt beam="2">  1       21 0.10832588E+00 0.45473389E+03</pdfrwt>
<totfact> 0.47537041E+04</totfact>
</mgrwt>
</event>
<event>
 7    0  0.4725730E-002  0.4314911E+03  0.7546771E-02  0.1033390E+00
         21   -1    0    0  502  501  0.00000000000E+00  0.00000000000E+00  0.93936383198E+02  0.93936383198E+02  0.00000000000E+00 0.  1.
         21   -1    0    0  501  502 -0.00000000000E+00 -0.00000000000E+00 -0.49550699939E+03  0.49550699939E+03  0.00000000000E+00 0.  1.
      99926    2    1    2    0    0  0.00000000000E+00  0.00000000000E+00 -0.40157061619E+03  0.58944338259E+03  0.43149106768E+03 0.  0.
      99925    2    3    3    0    0 -0.25728408673E+02  0.70607155266E+02 -0.19319952825E+03  0.33505521506E+03  0.26322731248E+03 0.  0.
         25    1    4    4    0    0  0.46114334071E+01  0.69544286235E+02 -0.82378855120E+02  0.16520126191E+03  0.12509000000E+03 0.  0.
         25    1    4    4    0    0 -0.30339842080E+02  0.10628690306E+01 -0.11082067313E+03  0.16985395315E+03  0.12509000000E+03 0.  0.
         25    1    3    3    0    0  0.25728408673E+02 -0.70607155266E+02 -0.20837108795E+03  0.25438816753E+03  0.12509000000E+03 0.  0.
<mgrwt>
<rscale>  2 0.43149107E+03</rscale>
<asrwt>0</asrwt>
<pdfrwt beam="1">  1       21 0.13814174E-01 0.43149107E+03</pdfrwt>
<pdfrwt beam="2">  1       21 0.72868675E-01 0.43149107E+03</pdfrwt>
<totfact> 0.71765201E+04</totfact>
</mgrwt>
</event>
<event>
 7    0  0.4725730E-002  0.4253987E+03  0.7546771E-02  0.1035323E+00
         21   -1    0    0  502  501  0.00000000000E+00  0.00000000000E+00  0.65383382939E+02  0.65383382939E+02  0.00000000000E+00 0.  1.
         21   -1    0    0  501  502 -0.00000000000E+00 -0.00000000000E+00 -0.69193438646E+03  0.69193438646E+03  0.00000000000E+00 0.  1.
      99926    2    1    2    0    0 -0.35527136788E-14  0.00000000000E+00 -0.62655100352E+03  0.75731776940E+03  0.42539868810E+03 0.  0.
      99925    2    3    3    0    0  0.17062138773E+02 -0.37145821897E+02 -0.27869360676E+03  0.38539949176E+03  0.26304317732E+03 0.  0.
         25    1    3    3    0    0 -0.17062138773E+02  0.37145821897E+02 -0.34785739676E+03  0.37191827764E+03  0.12509000000E+03 0.  0.
         25    1    4    4    0    0 -0.20984208283E+02 -0.45761807885E+02 -0.15090354389E+03  0.20237061970E+03  0.12509000000E+03 0.  0.
         25    1    4    4    0    0  0.38046347056E+02  0.86159859881E+01 -0.12779006287E+03  0.18302887206E+03  0.12509000000E+03 0.  0.
<mgrwt>
<rscale>  2 0.42539869E+03</rscale>
<asrwt>0</asrwt>
<pdfrwt beam="1">  1       21 0.96152031E-02 0.42539869E+03</pdfrwt>
<pdfrwt beam="2">  1       21 0.10175506E+00 0.42539869E+03</pdfrwt>
<totfact> 0.63399011E+04</totfact>
</mgrwt>
</event>
<event>
 7    0  0.4725730E-002  0.4522106E+03  0.7546771E-02  0.1027065E+00
         21   -1    0    0  502  501  0.00000000000E+00  0.00000000000E+00  0.25438477178E+03  0.25438477178E+03  0.00000000000E+00 0. -1.
         21   -1    0    0  501  502 -0.00000000000E+00 -0.00000000000E+00 -0.20096959611E+03  0.20096959611E+03  0.00000000000E+00 0. -1.
      99926    2    1    2    0    0  0.71054273576E-14  0.00000000000E+00  0.53415175666E+02  0.45535436789E+03  0.45221059183E+03 0.  0.
      99925    2    3    3    0    0  0.60222798717E+02  0.92617084744E+02  0.37061672160E+02  0.28766520590E+03  0.26300759166E+03 0.  0.
         25    1    4    4    0    0  0.27963352363E+02  0.83377449320E+02  0.40232690662E+02  0.15811364782E+03  0.12509000000E+03 0.  0.
         25    1    4    4    0    0  0.32259446354E+02  0.92396354242E+01 -0.31710185022E+01  0.12955155808E+03  0.12509000000E+03 0.  0.
         25    1    3    3    0    0 -0.60222798717E+02 -0.92617084744E+02  0.16353503506E+02  0.16768916199E+03  0.12509000000E+03 0.  0.
<mgrwt>
<rscale>  2 0.45221059E+03</rscale>
<asrwt>0</asrwt>
<pdfrwt beam="1">  1       21 0.37409525E-01 0.45221059E+03</pdfrwt>
<pdfrwt beam="2">  1       21 0.29554352E-01 0.45221059E+03</pdfrwt>
<totfact> 0.70066122E+04</totfact>
</mgrwt>
</event>
<event>
 7    0  0.4725730E-002  0.4574522E+03  0.7546771E-02  0.1025523E+00
         21   -1    0    0  502  501  0.00000000000E+00  0.00000000000E+00  0.11275111054E+03  0.11275111054E+03  0.00000000000E+00 0. -1.
         21   -1    0    0  501  502 -0.00000000000E+00 -0.00000000000E+00 -0.46399221624E+03  0.46399221624E+03  0.00000000000E+00 0. -1.
      99926    2    1    2    0    0  0.00000000000E+00  0.17763568394E-14 -0.35124110570E+03  0.57674332678E+03  0.45745223866E+03 0.  0.
      99925    2    3    3    0    0  0.10745940601E+03  0.13469951702E+02 -0.27132222716E+03  0.39299486070E+03  0.26286925657E+03 0.  0.
         25    1    3    3    0    0 -0.10745940601E+03 -0.13469951702E+02 -0.79918878543E+02  0.18374846608E+03  0.12509000000E+03 0.  0.
         25    1    4    4    0    0  0.51998334382E+02 -0.33603471517E+02 -0.13595914352E+03  0.19484716288E+03  0.12509000000E+03 0.  0.
         25    1    4    4    0    0  0.55461071633E+02  0.47073423219E+02 -0.13536308363E+03  0.19814769782E+03  0.12509000000E+03 0.  0.
<mgrwt>
<rscale>  2 0.45745224E+03</rscale>
<asrwt>0</asrwt>
<pdfrwt beam="1">  1       21 0.16581046E-01 0.45745224E+03</pdfrwt>
<pdfrwt beam="2">  1       21 0.68234150E-01 0.45745224E+03</pdfrwt>
<totfact> 0.58981204E+04</totfact>
</mgrwt>
</event>
<event>
 7    0  0.4725730E-002  0.4555967E+03  0.7546771E-02  0.1026066E+00
         21   -1    0    0  502  501  0.00000000000E+00  0.00000000000E+00  0.49280367909E+03  0.49280367909E+03  0.00000000000E+00 0.  1.
         21   -1    0    0  501  502 -0.00000000000E+00 -0.00000000000E+00 -0.10529971976E+03  0.10529971976E+03  0.00000000000E+00 0.  1.
      99926    2    1    2    0    0  0.00000000000E+00  0.00000000000E+00  0.38750395932E+03  0.59810339885E+03  0.45559670458E+03 0.  0.
      99925    2    3    3    0    0  0.30441129139E+02 -0.10826906758E+03  0.26537142419E+03  0.39022671046E+03  0.26307040776E+03 0.  0.
         25    1    4    4    0    0 -0.73693555011E+01 -0.23184775157E+02  0.14635744191E+03  0.19406145960E+03  0.12509000000E+03 0.  0.
         25    1    3    3    0    0 -0.30441129139E+02  0.10826906758E+03  0.12213253513E+03  0.20787668839E+03  0.12509000000E+03 0.  0.
         25    1    4    4    0    0  0.37810484640E+02 -0.85084292428E+02  0.11901398228E+03  0.19616525086E+03  0.12509000000E+03 0.  0.
<mgrwt>
<rscale>  2 0.45559670E+03</rscale>
<asrwt>0</asrwt>
<pdfrwt beam="1">  1       21 0.72471128E-01 0.45559670E+03</pdfrwt>
<pdfrwt beam="2">  1       21 0.15485253E-01 0.45559670E+03</pdfrwt>
<totfact> 0.58518756E+04</totfact>
</mgrwt>
</event>
<event>
 7    0  0.4725730E-002  0.4491129E+03  0.7546771E-02  0.1027987E+00
         21   -1    0    0  502  501  0.00000000000E+00  0.00000000000E+00  0.47159015171E+02  0.47159015171E+02  0.00000000000E+00 0. -1.
         21   -1    0    0  501  502 -0.00000000000E+00 -0.00000000000E+00 -0.10692676739E+04  0.10692676739E+04  0.00000000000E+00 0. -1.
      99926    2    1    2    0    0  0.00000000000E+00 -0.17763568394E-14 -0.10221086588E+04  0.11164266891E+04  0.44911294997E+03 0.  0.
      99925    2    3    3    0    0  0.90993694484E+02  0.15426176309E+02 -0.51083259138E+03  0.58204055107E+03  0.26325547918E+03 0.  0.
         25    1    3    3    0    0 -0.90993694484E+02 -0.15426176309E+02 -0.51127606739E+03  0.53438613805E+03  0.12509000000E+03 0.  0.
         25    1    4    4    0    0  0.57060510182E+02  0.41642290495E+02 -0.30878930286E+03  0.34057058570E+03  0.12509000000E+03 0.  0.
         25    1    4    4    0    0  0.33933184303E+02 -0.26216114186E+02 -0.20204328852E+03  0.24146996537E+03  0.12509000000E+03 0.  0.
<mgrwt>
<rscale>  2 0.44911295E+03</rscale>
<asrwt>0</asrwt>
<pdfrwt beam="1">  1       21 0.69351496E-02 0.44911295E+03</pdfrwt>
<pdfrwt beam="2">  1       21 0.15724524E+00 0.44911295E+03</pdfrwt>
<totfact> 0.36573286E+04</totfact>
</mgrwt>
</event>
<event>
 7    0  0.4725730E-002  0.4588142E+03  0.7546771E-02  0.1025126E+00
         21   -1    0    0  502  501  0.00000000000E+00  0.00000000000E+00  0.42709474981E+03  0.42709474981E+03  0.00000000000E+00 0. -1.
         21   -1    0    0  501  502 -0.00000000000E+00 -0.00000000000E+00 -0.12322232347E+03  0.12322232347E+03  0.00000000000E+00 0. -1.
      99926    2    1    2    0    0  0.00000000000E+00  0.00000000000E+00  0.30387242634E+03  0.55031707328E+03  0.45881415589E+03 0.  0.
      99925    2    3    3    0    0  0.72472766672E+02  0.90280079603E+01  0.29962049076E+03  0.40540539710E+03  0.26314879949E+03 0.  0.
         25    1    4    4    0    0  0.64442067831E+02  0.35094610236E+02  0.15556780643E+03  0.21268112815E+03  0.12509000000E+03 0.  0.
         25    1    3    3    0    0 -0.72472766672E+02 -0.90280079603E+01  0.42519355815E+01  0.14491167618E+03  0.12509000000E+03 0.  0.
         25    1    4    4    0    0  0.80306988411E+01 -0.26066602275E+02  0.14405268433E+03  0.19272426895E+03  0.12509000000E+03 0.  0.
<mgrwt>
<rscale>  2 0.45881416E+03</rscale>
<asrwt>0</asrwt>
<pdfrwt beam="1">  1       21 0.62808051E-01 0.45881416E+03</pdfrwt>
<pdfrwt beam="2">  1       21 0.18120930E-01 0.45881416E+03</pdfrwt>
<totfact> 0.60013900E+04</totfact>
</mgrwt>
</event>
<event>
 7    0  0.4725730E-002  0.4576443E+03  0.7546771E-02  0.1025467E+00
         21   -1    0    0  502  501  0.00000000000E+00  0.00000000000E+00  0.20350300108E+03  0.20350300108E+03  0.00000000000E+00 0. -1.
         21   -1    0    0  501  502 -0.00000000000E+00 -0.00000000000E+00 -0.25729146836E+03  0.25729146836E+03  0.00000000000E+00 0. -1.
      99926    2    1    2    0    0 -0.17763568394E-14  0.14210854715E-13 -0.53788467280E+02  0.46079446944E+03  0.45764434210E+03 0.  0.
      99925    2    3    3    0    0 -0.10317027306E+02  0.11489925857E+03 -0.42204136881E+02  0.29023660395E+03  0.26295972397E+03 0.  0.
         25    1    4    4    0    0 -0.35236582364E+02  0.34814990298E+02 -0.37024446499E+02  0.13954217293E+03  0.12509000000E+03 0.  0.
         25    1    4    4    0    0  0.24919555058E+02  0.80084268268E+02 -0.51796903812E+01  0.15069443102E+03  0.12509000000E+03 0.  0.
         25    1    3    3    0    0  0.10317027306E+02 -0.11489925857E+03 -0.11584330399E+02  0.17055786550E+03  0.12509000000E+03 0.  0.
<mgrwt>
<rscale>  2 0.45764434E+03</rscale>
<asrwt>0</asrwt>
<pdfrwt beam="1">  1       21 0.29926912E-01 0.45764434E+03</pdfrwt>
<pdfrwt beam="2">  1       21 0.37836980E-01 0.45764434E+03</pdfrwt>
<totfact> 0.66704798E+04</totfact>
</mgrwt>
</event>
<event>
 7    0  0.4725730E-002  0.4529194E+03  0.7546771E-02  0.1026855E+00
         21   -1    0    0  502  501  0.00000000000E+00  0.00000000000E+00  0.12631375300E+03  0.12631375300E+03  0.00000000000E+00 0. -1.
         21   -1    0    0  501  502 -0.00000000000E+00 -0.00000000000E+00 -0.40600482136E+03  0.40600482136E+03  0.00000000000E+00 0. -1.
      99926    2    1    2    0    0  0.00000000000E+00 -0.26645352591E-14 -0.27969106836E+03  0.53231857436E+03  0.45291938674E+03 0.  0.
      99925    2    3    3    0    0 -0.60680406488E+02  0.12125235768E+01 -0.28592272556E+03  0.39314270146E+03  0.26291785176E+03 0.  0.
         25    1    4    4    0    0  0.27044015193E+01  0.24965048884E+02 -0.13301677918E+03  0.18431369753E+03  0.12509000000E+03 0.  0.
         25    1    4    4    0    0 -0.63384808008E+02 -0.23752525307E+02 -0.15290594638E+03  0.20882900393E+03  0.12509000000E+03 0.  0.
         25    1    3    3    0    0  0.60680406488E+02 -0.12125235768E+01  0.62316572058E+01  0.13917587290E+03  0.12509000000E+03 0.  0.
<mgrwt>
<rscale>  2 0.45291939E+03</rscale>
<asrwt>0</asrwt>
<pdfrwt beam="1">  1       21 0.18575552E-01 0.45291939E+03</pdfrwt>
<pdfrwt beam="2">  1       21 0.59706592E-01 0.45291939E+03</pdfrwt>
<totfact> 0.64099398E+04</totfact>
</mgrwt>
</event>
<event>
 7    0  0.4725730E-002  0.4514186E+03  0.7546771E-02  0.1027300E+00
         21   -1    0    0  502  501  0.00000000000E+00  0.00000000000E+00  0.68625940164E+03  0.68625940164E+03  0.00000000000E+00 0. -1.
         21   -1    0    0  501  502 -0.00000000000E+00 -0.00000000000E+00 -0.74235320043E+02  0.74235320043E+02  0.00000000000E+00 0. -1.
      99926    2    1    2    0    0  0.14210854715E-13  0.00000000000E+00  0.61202408160E+03  0.76049472169E+03  0.45141859206E+03 0.  0.
      99925    2    3    3    0    0  0.83710673300E+02  0.65832645506E+02  0.34270036013E+03  0.44502017582E+03  0.26316915857E+03 0.  0.
         25    1    3    3    0    0 -0.83710673300E+02 -0.65832645506E+02  0.26932372147E+03  0.31547454586E+03  0.12509000000E+03 0.  0.
         25    1    4    4    0    0  0.32538988470E+01  0.20236630905E+02  0.17737894810E+03  0.21801584441E+03  0.12509000000E+03 0.  0.
         25    1    4    4    0    0  0.80456774453E+02  0.45596014601E+02  0.16532141203E+03  0.22700433141E+03  0.12509000000E+03 0.  0.
<mgrwt>
<rscale>  2 0.45141859E+03</rscale>
<asrwt>0</asrwt>
<pdfrwt beam="1">  1       21 0.10092050E+00 0.45141859E+03</pdfrwt>
<pdfrwt beam="2">  1       21 0.10916959E-01 0.45141859E+03</pdfrwt>
<totfact> 0.51157965E+04</totfact>
</mgrwt>
</event>
<event>
 7    0  0.4725730E-002  0.4532464E+03  0.7546771E-02  0.1026758E+00
         21   -1    0    0  502  501  0.00000000000E+00  0.00000000000E+00  0.20806792009E+03  0.20806792009E+03  0.00000000000E+00 0.  1.
         21   -1    0    0  501  502 -0.00000000000E+00 -0.00000000000E+00 -0.24683316941E+03  0.24683316941E+03  0.00000000000E+00 0.  1.
      99926    2    1    2    0    0  0.00000000000E+00  0.14210854715E-13 -0.38765249322E+02  0.45490108950E+03  0.45324635318E+03 0.  0.
      99925    2    3    3    0    0 -0.10750327558E+02  0.88940768261E+02 -0.91431205797E+02  0.29227501264E+03  0.26275271230E+03 0.  0.
         25    1    4    4    0    0 -0.18266273065E+02  0.24410326438E+02 -0.78343790377E+02  0.15071422746E+03  0.12509000000E+03 0.  0.
         25    1    4    4    0    0  0.75159455072E+01  0.64530441822E+02 -0.13087415420E+02  0.14156078518E+03  0.12509000000E+03 0.  0.
         25    1    3    3    0    0  0.10750327558E+02 -0.88940768261E+02  0.52665956475E+02  0.16262607685E+03  0.12509000000E+03 0.  0.
<mgrwt>
<rscale>  2 0.45324635E+03</rscale>
<asrwt>0</asrwt>
<pdfrwt beam="1">  1       21 0.30598224E-01 0.45324635E+03</pdfrwt>
<pdfrwt beam="2">  1       21 0.36298995E-01 0.45324635E+03</pdfrwt>
<totfact> 0.69520702E+04</totfact>
</mgrwt>
</event>
<event>
 7    0  0.4725730E-002  0.4552509E+03  0.7546771E-02  0.1026168E+00
         21   -1    0    0  502  501  0.00000000000E+00  0.00000000000E+00  0.15893720484E+03  0.15893720484E+03  0.00000000000E+00 0.  1.
         21   -1    0    0  501  502 -0.00000000000E+00 -0.00000000000E+00 -0.32599878572E+03  0.32599878572E+03  0.00000000000E+00 0.  1.
      99926    2    1    2    0    0  0.00000000000E+00  0.14210854715E-13 -0.16706158088E+03  0.48493599055E+03  0.45525085736E+03 0.  0.
      99925    2    3    3    0    0  0.10009111155E+02  0.11139368437E+03 -0.86213172608E+02  0.29867620304E+03  0.26318439906E+03 0.  0.
         25    1    4    4    0    0  0.34341457542E+02  0.27059270390E+02 -0.50006795119E+02  0.14163236734E+03  0.12509000000E+03 0.  0.
         25    1    4    4    0    0 -0.24332346387E+02  0.84334413978E+02 -0.36206377489E+02  0.15704383570E+03  0.12509000000E+03 0.  0.
         25    1    3    3    0    0 -0.10009111155E+02 -0.11139368437E+03 -0.80848408274E+02  0.18625978751E+03  0.12509000000E+03 0.  0.
<mgrwt>
<rscale>  2 0.45525086E+03</rscale>
<asrwt>0</asrwt>
<pdfrwt beam="1">  1       21 0.23373119E-01 0.45525086E+03</pdfrwt>
<pdfrwt beam="2">  1       21 0.47940997E-01 0.45525086E+03</pdfrwt>
<totfact> 0.66210569E+04</totfact>
</mgrwt>
</event>
<event>
 7    0  0.4725730E-002  0.4542432E+03  0.7546771E-02  0.1026464E+00
         21   -1    0    0  502  501  0.00000000000E+00  0.00000000000E+00  0.30228409808E+03  0.30228409808E+03  0.00000000000E+00 0.  1.
         21   -1    0    0  501  502 -0.00000000000E+00 -0.00000000000E+00 -0.17064815519E+03  0.17064815519E+03  0.00000000000E+00 0.  1.
      99926    2    1    2    0    0  0.00000000000E+00  0.00000000000E+00  0.13163594288E+03  0.47293225327E+03  0.45424321098E+03 0.  0.
      99925    2    3    3    0    0 -0.10307189949E+03  0.22278465052E+02  0.12388260377E+03  0.30914040721E+03  0.26287020634E+03 0.  0.
         25    1    3    3    0    0  0.10307189949E+03 -0.22278465052E+02  0.77533391122E+01  0.16379184606E+03  0.12509000000E+03 0.  0.
         25    1    4    4    0    0 -0.79920829496E+02 -0.18620783146E+02  0.65841504080E+02  0.16345239158E+03  0.12509000000E+03 0.  0.
         25    1    4    4    0    0 -0.23151069992E+02  0.40899248198E+02  0.58041099692E+02  0.14568801563E+03  0.12509000000E+03 0.  0.
<mgrwt>
<rscale>  2 0.45424321E+03</rscale>
<asrwt>0</asrwt>
<pdfrwt beam="1">  1       21 0.44453544E-01 0.45424321E+03</pdfrwt>
<pdfrwt beam="2">  1       21 0.25095317E-01 0.45424321E+03</pdfrwt>
<totfact> 0.67623503E+04</totfact>
</mgrwt>
</event>
<event>
 7    0  0.4725730E-002  0.4331770E+03  0.7546771E-02  0.1032861E+00
         21   -1    0    0  502  501  0.00000000000E+00  0.00000000000E+00  0.65172582225E+03  0.65172582225E+03  0.00000000000E+00 0.  1.
         21   -1    0    0  501  502 -0.00000000000E+00 -0.00000000000E+00 -0.71979023719E+02  0.71979023719E+02  0.00000000000E+00 0.  1.
      99926    2    1    2    0    0  0.00000000000E+00  0.00000000000E+00  0.57974679853E+03  0.72370484597E+03  0.43317704657E+03 0.  0.
      99925    2    3    3    0    0  0.75387377252E+02 -0.88429409889E+01  0.45688627134E+03  0.53264550572E+03  0.26306789156E+03 0.  0.
         25    1    4    4    0    0  0.28823893574E+02  0.27074910631E+02  0.27012119592E+03  0.30029458239E+03  0.12509000000E+03 0.  0.
         25    1    4    4    0    0  0.46563483678E+02 -0.35917851620E+02  0.18676507542E+03  0.23235092333E+03  0.12509000000E+03 0.  0.
         25    1    3    3    0    0 -0.75387377252E+02  0.88429409889E+01  0.12286052719E+03  0.19105934025E+03  0.12509000000E+03 0.  0.
<mgrwt>
<rscale>  2 0.43317705E+03</rscale>
<asrwt>0</asrwt>
<pdfrwt beam="1">  1       21 0.95842029E-01 0.43317705E+03</pdfrwt>
<pdfrwt beam="2">  1       21 0.10585151E-01 0.43317705E+03</pdfrwt>
<totfact> 0.61535507E+04</totfact>
</mgrwt>
</event>
<event>
 7    0  0.4725730E-002  0.4609036E+03  0.7546771E-02  0.1024519E+00
         21   -1    0    0  502  501  0.00000000000E+00  0.00000000000E+00  0.87636616309E+02  0.87636616309E+02  0.00000000000E+00 0.  1.
         21   -1    0    0  501  502 -0.00000000000E+00 -0.00000000000E+00 -0.60600266858E+03  0.60600266858E+03  0.00000000000E+00 0.  1.
      99926    2    1    2    0    0  0.00000000000E+00  0.00000000000E+00 -0.51836605227E+03  0.69363928489E+03  0.46090356192E+03 0.  0.
      99925    2    3    3    0    0 -0.54899332411E+02  0.93012441850E+02 -0.25050262268E+03  0.37889561768E+03  0.26295450954E+03 0.  0.
         25    1    3    3    0    0  0.54899332411E+02 -0.93012441850E+02 -0.26786342959E+03  0.31474366721E+03  0.12509000000E+03 0.  0.
         25    1    4    4    0    0 -0.65462324801E+02  0.60046689637E+02 -0.11935356448E+03  0.19438030342E+03  0.12509000000E+03 0.  0.
         25    1    4    4    0    0  0.10562992390E+02  0.32965752213E+02 -0.13114905820E+03  0.18451531426E+03  0.12509000000E+03 0.  0.
<mgrwt>
<rscale>  2 0.46090356E+03</rscale>
<asrwt>0</asrwt>
<pdfrwt beam="1">  1       21 0.12887738E-01 0.46090356E+03</pdfrwt>
<pdfrwt beam="2">  1       21 0.89118041E-01 0.46090356E+03</pdfrwt>
<totfact> 0.50845457E+04</totfact>
</mgrwt>
</event>
<event>
 7    0  0.4725730E-002  0.4609623E+03  0.7546771E-02  0.1024502E+00
         21   -1    0    0  502  501  0.00000000000E+00  0.00000000000E+00  0.10837563080E+04  0.10837563080E+04  0.00000000000E+00 0.  1.
         21   -1    0    0  501  502 -0.00000000000E+00 -0.00000000000E+00 -0.49016147086E+02  0.49016147086E+02  0.00000000000E+00 0.  1.
      99926    2    1    2    0    0 -0.53290705182E-14  0.00000000000E+00  0.10347401609E+04  0.11327724550E+04  0.46096229172E+03 0.  0.
      99925    2    3    3    0    0  0.14928495563E+02 -0.84262422699E+02  0.84985274810E+03  0.89370367967E+03  0.26293261064E+03 0.  0.
         25    1    4    4    0    0  0.46977614981E+02 -0.40838071522E+02  0.45843545791E+03  0.47925486076E+03  0.12509000000E+03 0.  0.
         25    1    3    3    0    0 -0.14928495563E+02  0.84262422699E+02  0.18488741276E+03  0.23906877537E+03  0.12509000000E+03 0.  0.
         25    1    4    4    0    0 -0.32049119418E+02 -0.43424351177E+02  0.39141729019E+03  0.41444881891E+03  0.12509000000E+03 0.  0.
<mgrwt>
<rscale>  2 0.46096229E+03</rscale>
<asrwt>0</asrwt>
<pdfrwt beam="1">  1       21 0.15937591E+00 0.46096229E+03</pdfrwt>
<pdfrwt beam="2">  1       21 0.72082576E-02 0.46096229E+03</pdfrwt>
<totfact> 0.32811117E+04</totfact>
</mgrwt>
</event>
<event>
 7    0  0.4725730E-002  0.4479193E+03  0.7546771E-02  0.1028344E+00
         21   -1    0    0  502  501  0.00000000000E+00  0.00000000000E+00  0.26804598550E+03  0.26804598550E+03  0.00000000000E+00 0. -1.
         21   -1    0    0  501  502 -0.00000000000E+00 -0.00000000000E+00 -0.18712430917E+03  0.18712430917E+03  0.00000000000E+00 0. -1.
      99926    2    1    2    0    0  0.00000000000E+00  0.00000000000E+00  0.80921676326E+02  0.45517029468E+03  0.44791927783E+03 0.  0.
      99925    2    3    3    0    0 -0.35007411281E+02 -0.21833686925E+02  0.15093087968E+03  0.30600251872E+03  0.26297372928E+03 0.  0.
         25    1    4    4    0    0 -0.32860681558E+02 -0.24133317898E+02  0.36738322486E+02  0.13659961151E+03  0.12509000000E+03 0.  0.
         25    1    3    3    0    0  0.35007411281E+02  0.21833686925E+02 -0.70009203359E+02  0.14916777596E+03  0.12509000000E+03 0.  0.
         25    1    4    4    0    0 -0.21467297236E+01  0.22996309730E+01  0.11419255720E+03  0.16940290721E+03  0.12509000000E+03 0.  0.
<mgrwt>
<rscale>  2 0.44791928E+03</rscale>
<asrwt>0</asrwt>
<pdfrwt beam="1">  1       21 0.39418527E-01 0.44791928E+03</pdfrwt>
<pdfrwt beam="2">  1       21 0.27518281E-01 0.44791928E+03</pdfrwt>
<totfact> 0.72544134E+04</totfact>
</mgrwt>
</event>
<event>
 7    0  0.4725730E-002  0.4522306E+03  0.7546771E-02  0.1027059E+00
         21   -1    0    0  502  501  0.00000000000E+00  0.00000000000E+00  0.83843531701E+03  0.83843531701E+03  0.00000000000E+00 0.  1.
         21   -1    0    0  501  502 -0.00000000000E+00 -0.00000000000E+00 -0.60980400363E+02  0.60980400363E+02  0.00000000000E+00 0.  1.
      99926    2    1    2    0    0  0.00000000000E+00  0.00000000000E+00  0.77745491665E+03  0.89941571738E+03  0.45223056646E+03 0.  0.
      99925    2    3    3    0    0  0.10114710516E+03  0.17276742015E+02  0.40867061600E+03  0.49670168583E+03  0.26300507529E+03 0.  0.
         25    1    3    3    0    0 -0.10114710516E+03 -0.17276742015E+02  0.36878430066E+03  0.40271403155E+03  0.12509000000E+03 0.  0.
         25    1    4    4    0    0  0.41967887757E+02 -0.93988067406E+01  0.13573404115E+03  0.18952804330E+03  0.12509000000E+03 0.  0.
         25    1    4    4    0    0  0.59179217404E+02  0.26675548755E+02  0.27293657484E+03  0.30717364252E+03  0.12509000000E+03 0.  0.
<mgrwt>
<rscale>  2 0.45223057E+03</rscale>
<asrwt>0</asrwt>
<pdfrwt beam="1">  1       21 0.12329930E+00 0.45223057E+03</pdfrwt>
<pdfrwt beam="2">  1       21 0.89677064E-02 0.45223057E+03</pdfrwt>
<totfact> 0.44209807E+04</totfact>
</mgrwt>
</event>
<event>
 7    0  0.4725730E-002  0.4492430E+03  0.7546771E-02  0.1027948E+00
         21   -1    0    0  502  501  0.00000000000E+00  0.00000000000E+00  0.60556994044E+03  0.60556994044E+03  0.00000000000E+00 0.  1.
         21   -1    0    0  501  502 -0.00000000000E+00 -0.00000000000E+00 -0.83317919759E+02  0.83317919759E+02  0.00000000000E+00 0.  1.
      99926    2    1    2    0    0 -0.14210854715E-13  0.00000000000E+00  0.52225202068E+03  0.68888786020E+03  0.44924304204E+03 0.  0.
      99925    2    3    3    0    0 -0.80382941055E+02 -0.71477433155E+02  0.32150500378E+03  0.42904692125E+03  0.26295503895E+03 0.  0.
         25    1    4    4    0    0 -0.65700297985E+02 -0.69189371476E+02  0.19453776779E+03  0.25019222505E+03  0.12509000000E+03 0.  0.
         25    1    4    4    0    0 -0.14682643070E+02 -0.22880616793E+01  0.12696723599E+03  0.17885469619E+03  0.12509000000E+03 0.  0.
         25    1    3    3    0    0  0.80382941055E+02  0.71477433155E+02  0.20074701689E+03  0.25984093895E+03  0.12509000000E+03 0.  0.
<mgrwt>
<rscale>  2 0.44924304E+03</rscale>
<asrwt>0</asrwt>
<pdfrwt beam="1">  1       21 0.89054401E-01 0.44924304E+03</pdfrwt>
<pdfrwt beam="2">  1       21 0.12252636E-01 0.44924304E+03</pdfrwt>
<totfact> 0.56005876E+04</totfact>
</mgrwt>
</event>
<event>
 7    0  0.4725730E-002  0.4486852E+03  0.7546771E-02  0.1028115E+00
         21   -1    0    0  502  501  0.00000000000E+00  0.00000000000E+00  0.69578230751E+02  0.69578230751E+02  0.00000000000E+00 0. -1.
         21   -1    0    0  501  502 -0.00000000000E+00 -0.00000000000E+00 -0.72335286307E+03  0.72335286307E+03  0.00000000000E+00 0. -1.
      99926    2    1    2    0    0  0.00000000000E+00  0.00000000000E+00 -0.65377463231E+03  0.79293109382E+03  0.44868524567E+03 0.  0.
      99925    2    3    3    0    0  0.44884093692E+02  0.38308581696E+02 -0.57175917503E+03  0.63213254709E+03  0.26306058913E+03 0.  0.
         25    1    3    3    0    0 -0.44884093692E+02 -0.38308581696E+02 -0.82015457281E+02  0.16079854673E+03  0.12509000000E+03 0.  0.
         25    1    4    4    0    0  0.16294503326E+02 -0.17787856228E+02 -0.23267859280E+03  0.26527109589E+03  0.12509000000E+03 0.  0.
         25    1    4    4    0    0  0.28589590365E+02  0.56096437923E+02 -0.33908058223E+03  0.36686145119E+03  0.12509000000E+03 0.  0.
<mgrwt>
<rscale>  2 0.44868525E+03</rscale>
<asrwt>0</asrwt>
<pdfrwt beam="1">  1       21 0.10232093E-01 0.44868525E+03</pdfrwt>
<pdfrwt beam="2">  1       21 0.10637542E+00 0.44868525E+03</pdfrwt>
<totfact> 0.50568631E+04</totfact>
</mgrwt>
</event>
<event>
 7    0  0.4725730E-002  0.4501637E+03  0.7546771E-02  0.1027673E+00
         21   -1    0    0  502  501  0.00000000000E+00  0.00000000000E+00  0.65080452402E+02  0.65080452402E+02  0.00000000000E+00 0. -1.
         21   -1    0    0  501  502 -0.00000000000E+00 -0.00000000000E+00 -0.77844929124E+03  0.77844929124E+03  0.00000000000E+00 0. -1.
      99926    2    1    2    0    0 -0.14210854715E-13  0.22204460493E-15 -0.71336883884E+03  0.84352974364E+03  0.45016366822E+03 0.  0.
      99925    2    3    3    0    0 -0.10846519951E+03  0.15654571447E+01 -0.46277930511E+03  0.54318032600E+03  0.26289357383E+03 0.  0.
         25    1    3    3    0    0  0.10846519951E+03 -0.15654571447E+01 -0.25058953373E+03  0.30034941764E+03  0.12509000000E+03 0.  0.
         25    1    4    4    0    0 -0.84893191006E+02  0.70021741973E+01 -0.30414110195E+03  0.33971341204E+03  0.12509000000E+03 0.  0.
         25    1    4    4    0    0 -0.23572008504E+02 -0.54367170527E+01 -0.15863820316E+03  0.20346691397E+03  0.12509000000E+03 0.  0.
<mgrwt>
<rscale>  2 0.45016367E+03</rscale>
<asrwt>0</asrwt>
<pdfrwt beam="1">  1       21 0.95706557E-02 0.45016367E+03</pdfrwt>
<pdfrwt beam="2">  1       21 0.11447783E+00 0.45016367E+03</pdfrwt>
<totfact> 0.47507208E+04</totfact>
</mgrwt>
</event>
<event>
 7    0  0.4725730E-002  0.4518658E+03  0.7546771E-02  0.1027167E+00
         21   -1    0    0  502  501  0.00000000000E+00  0.00000000000E+00  0.30178210659E+03  0.30178210659E+03  0.00000000000E+00 0. -1.
         21   -1    0    0  501  502 -0.00000000000E+00 -0.00000000000E+00 -0.16914745800E+03  0.16914745800E+03  0.00000000000E+00 0. -1.
      99926    2    1    2    0    0  0.35527136788E-14  0.00000000000E+00  0.13263464859E+03  0.47092956459E+03  0.45186580397E+03 0.  0.
      99925    2    3    3    0    0 -0.24062454325E+02 -0.96192927859E+02  0.33173257439E+02  0.28285469251E+03  0.26281976902E+03 0.  0.
         25    1    4    4    0    0  0.62639511364E+01 -0.51733925979E+02 -0.19381350068E+02  0.13688966729E+03  0.12509000000E+03 0.  0.
         25    1    3    3    0    0  0.24062454325E+02  0.96192927859E+02  0.99461391147E+02  0.18807487208E+03  0.12509000000E+03 0.  0.
         25    1    4    4    0    0 -0.30326405461E+02 -0.44459001880E+02  0.52554607507E+02  0.14596502522E+03  0.12509000000E+03 0.  0.
<mgrwt>
<rscale>  2 0.45186580E+03</rscale>
<asrwt>0</asrwt>
<pdfrwt beam="1">  1       21 0.44379722E-01 0.45186580E+03</pdfrwt>
<pdfrwt beam="2">  1       21 0.24874626E-01 0.45186580E+03</pdfrwt>
<totfact> 0.69068341E+04</totfact>
</mgrwt>
</event>
<event>
 7    0  0.4725730E-002  0.4505934E+03  0.7546771E-02  0.1027545E+00
         21   -1    0    0  502  501  0.00000000000E+00  0.00000000000E+00  0.67226952740E+02  0.67226952740E+02  0.00000000000E+00 0.  1.
         21   -1    0    0  501  502 -0.00000000000E+00 -0.00000000000E+00 -0.75503341950E+03  0.75503341950E+03  0.00000000000E+00 0.  1.
      99926    2    1    2    0    0  0.00000000000E+00 -0.71054273576E-14 -0.68780646676E+03  0.82226037224E+03  0.45059336884E+03 0.  0.
      99925    2    3    3    0    0 -0.42514765048E+02  0.48824162620E+02 -0.59438160573E+03  0.65324257182E+03  0.26314456160E+03 0.  0.
         25    1    4    4    0    0 -0.14497792182E+00  0.58072517344E+02 -0.32642091691E+03  0.35435936757E+03  0.12509000000E+03 0.  0.
         25    1    4    4    0    0 -0.42369787126E+02 -0.92483547239E+01 -0.26796068882E+03  0.29888320424E+03  0.12509000000E+03 0.  0.
         25    1    3    3    0    0  0.42514765048E+02 -0.48824162620E+02 -0.93424861033E+02  0.16901780043E+03  0.12509000000E+03 0.  0.
<mgrwt>
<rscale>  2 0.45059337E+03</rscale>
<asrwt>0</asrwt>
<pdfrwt beam="1">  1       21 0.98863164E-02 0.45059337E+03</pdfrwt>
<pdfrwt beam="2">  1       21 0.11103433E+00 0.45059337E+03</pdfrwt>
<totfact> 0.48357365E+04</totfact>
</mgrwt>
</event>
<event>
 7    0  0.4725730E-002  0.4579438E+03  0.7546771E-02  0.1025379E+00
         21   -1    0    0  502  501  0.00000000000E+00  0.00000000000E+00  0.84976195233E+02  0.84976195233E+02  0.00000000000E+00 0. -1.
         21   -1    0    0  501  502 -0.00000000000E+00 -0.00000000000E+00 -0.61697423501E+03  0.61697423501E+03  0.00000000000E+00 0. -1.
      99926    2    1    2    0    0  0.35527136788E-14  0.00000000000E+00 -0.53199803977E+03  0.70195043024E+03  0.45794376532E+03 0.  0.
      99925    2    3    3    0    0  0.26673554357E+02 -0.90065360207E+02 -0.22971063223E+03  0.36158528445E+03  0.26297090287E+03 0.  0.
         25    1    4    4    0    0 -0.15334760786E+02 -0.61347933500E+02 -0.86315156662E+02  0.16461026153E+03  0.12509000000E+03 0.  0.
         25    1    4    4    0    0  0.42008315143E+02 -0.28717426708E+02 -0.14339547557E+03  0.19697502291E+03  0.12509000000E+03 0.  0.
         25    1    3    3    0    0 -0.26673554357E+02  0.90065360207E+02 -0.30228740754E+03  0.34036514579E+03  0.12509000000E+03 0.  0.
<mgrwt>
<rscale>  2 0.45794377E+03</rscale>
<asrwt>0</asrwt>
<pdfrwt beam="1">  1       21 0.12496499E-01 0.45794377E+03</pdfrwt>
<pdfrwt beam="2">  1       21 0.90731507E-01 0.45794377E+03</pdfrwt>
<totfact> 0.51591595E+04</totfact>
</mgrwt>
</event>
<event>
 7    0  0.4725730E-002  0.4543272E+03  0.7546771E-02  0.1026439E+00
         21   -1    0    0  502  501  0.00000000000E+00  0.00000000000E+00  0.39214460216E+03  0.39214460216E+03  0.00000000000E+00 0.  1.
         21   -1    0    0  501  502 -0.00000000000E+00 -0.00000000000E+00 -0.13159255324E+03  0.13159255324E+03  0.00000000000E+00 0.  1.
      99926    2    1    2    0    0  0.00000000000E+00  0.00000000000E+00  0.26055204891E+03  0.52373715540E+03  0.45432723642E+03 0.  0.
      99925    2    3    3    0    0  0.90196623632E+02  0.60872199735E+02  0.13121006889E+03  0.31345707666E+03  0.26305588972E+03 0.  0.
         25    1    4    4    0    0  0.51245512956E+02  0.67120956533E+02  0.91137974263E+02  0.17630928466E+03  0.12509000000E+03 0.  0.
         25    1    3    3    0    0 -0.90196623632E+02 -0.60872199735E+02  0.12934198003E+03  0.21028007874E+03  0.12509000000E+03 0.  0.
         25    1    4    4    0    0  0.38951110676E+02 -0.62487567983E+01  0.40072094622E+02  0.13714779200E+03  0.12509000000E+03 0.  0.
<mgrwt>
<rscale>  2 0.45432724E+03</rscale>
<asrwt>0</asrwt>
<pdfrwt beam="1">  1       21 0.57668324E-01 0.45432724E+03</pdfrwt>
<pdfrwt beam="2">  1       21 0.19351846E-01 0.45432724E+03</pdfrwt>
<totfact> 0.63972957E+04</totfact>
</mgrwt>
</event>
<event>
 7    0  0.4725730E-002  0.4571879E+03  0.7546771E-02  0.1025600E+00
         21   -1    0    0  502  501  0.00000000000E+00  0.00000000000E+00  0.17504658184E+03  0.17504658184E+03  0.00000000000E+00 0.  1.
         21   -1    0    0  501  502 -0.00000000000E+00 -0.00000000000E+00 -0.29852162930E+03  0.29852162930E+03  0.00000000000E+00 0.  1.
      99926    2    1    2    0    0  0.00000000000E+00 -0.71054273576E-14 -0.12347504746E+03  0.47356821114E+03  0.45718788616E+03 0.  0.
      99925    2    3    3    0    0  0.78078226802E+02 -0.63005159240E+02 -0.13649221971E+03  0.31268684346E+03  0.26282518228E+03 0.  0.
         25    1    4    4    0    0  0.17911041498E+02 -0.47029066643E+02 -0.33010917729E+02  0.13881558740E+03  0.12509000000E+03 0.  0.
         25    1    3    3    0    0 -0.78078226802E+02  0.63005159240E+02  0.13017172252E+02  0.16088136767E+03  0.12509000000E+03 0.  0.
         25    1    4    4    0    0  0.60167185305E+02 -0.15976092597E+02 -0.10348130199E+03  0.17387125606E+03  0.12509000000E+03 0.  0.
<mgrwt>
<rscale>  2 0.45718789E+03</rscale>
<asrwt>0</asrwt>
<pdfrwt beam="1">  1       21 0.25742145E-01 0.45718789E+03</pdfrwt>
<pdfrwt beam="2">  1       21 0.43900239E-01 0.45718789E+03</pdfrwt>
<totfact> 0.66017878E+04</totfact>
</mgrwt>
</event>
<event>
 7    0  0.4725730E-002  0.4531636E+03  0.7546771E-02  0.1026783E+00
         21   -1    0    0  502  501  0.00000000000E+00  0.00000000000E+00  0.27317793621E+03  0.27317793621E+03  0.00000000000E+00 0. -1.
         21   -1    0    0  501  502 -0.00000000000E+00 -0.00000000000E+00 -0.18793360789E+03  0.18793360789E+03  0.00000000000E+00 0. -1.
      99926    2    1    2    0    0 -0.14210854715E-13 -0.71054273576E-14  0.85244328327E+02  0.46111154410E+03  0.45316361349E+03 0.  0.
      99925    2    3    3    0    0 -0.87025788707E+02 -0.52087822054E+02  0.65294518973E+01  0.28186264179E+03  0.26290166601E+03 0.  0.
         25    1    4    4    0    0 -0.53779145211E+02  0.11951737232E+02  0.13056999265E+02  0.13730635023E+03  0.12509000000E+03 0.  0.
         25    1    4    4    0    0 -0.33246643495E+02 -0.64039559286E+02 -0.65275473682E+01  0.14455629157E+03  0.12509000000E+03 0.  0.
         25    1    3    3    0    0  0.87025788707E+02  0.52087822054E+02  0.78714876430E+02  0.17924890231E+03  0.12509000000E+03 0.  0.
<mgrwt>
<rscale>  2 0.45316361E+03</rscale>
<asrwt>0</asrwt>
<pdfrwt beam="1">  1       21 0.40173226E-01 0.45316361E+03</pdfrwt>
<pdfrwt beam="2">  1       21 0.27637295E-01 0.45316361E+03</pdfrwt>
<totfact> 0.69103054E+04</totfact>
</mgrwt>
</event>
<event>
 7    0  0.4725730E-002  0.4561531E+03  0.7546771E-02  0.1025903E+00
         21   -1    0    0  502  501  0.00000000000E+00  0.00000000000E+00  0.46420788609E+02  0.46420788609E+02  0.00000000000E+00 0. -1.
         21   -1    0    0  501  502 -0.00000000000E+00 -0.00000000000E+00 -0.11205953692E+04  0.11205953692E+04  0.00000000000E+00 0. -1.
      99926    2    1    2    0    0  0.00000000000E+00 -0.17763568394E-14 -0.10741745806E+04  0.11670161578E+04  0.45615313547E+03 0.  0.
      99925    2    3    3    0    0 -0.95380558294E+02 -0.15026109427E+02 -0.83125565606E+03  0.87722252976E+03  0.26307825094E+03 0.  0.
         25    1    4    4    0    0 -0.11440846218E+02  0.98170353398E+01 -0.33019587576E+03  0.35341772963E+03  0.12509000000E+03 0.  0.
         25    1    3    3    0    0  0.95380558294E+02  0.15026109427E+02 -0.24291892453E+03  0.28979362805E+03  0.12509000000E+03 0.  0.
         25    1    4    4    0    0 -0.83939712076E+02 -0.24843144766E+02 -0.50105978030E+03  0.52380480013E+03  0.12509000000E+03 0.  0.
<mgrwt>
<rscale>  2 0.45615314E+03</rscale>
<asrwt>0</asrwt>
<pdfrwt beam="1">  1       21 0.68265859E-02 0.45615314E+03</pdfrwt>
<pdfrwt beam="2">  1       21 0.16479345E+00 0.45615314E+03</pdfrwt>
<totfact> 0.32922457E+04</totfact>
</mgrwt>
</event>
<event>
 7    0  0.4725730E-002  0.4606385E+03  0.7546771E-02  0.1024596E+00
         21   -1    0    0  502  501  0.00000000000E+00  0.00000000000E+00  0.13314381825E+03  0.13314381825E+03  0.00000000000E+00 0. -1.
         21   -1    0    0  501  502 -0.00000000000E+00 -0.00000000000E+00 -0.39841841468E+03  0.39841841468E+03  0.00000000000E+00 0. -1.
      99926    2    1    2    0    0  0.14210854715E-13  0.00000000000E+00 -0.26527459643E+03  0.53156223293E+03  0.46063846557E+03 0.  0.
      99925    2    3    3    0    0  0.88430405796E+02  0.47402655436E+02 -0.93628677025E+02  0.29666485499E+03  0.26301474981E+03 0.  0.
         25    1    4    4    0    0  0.47147266770E+01  0.30539447543E+02 -0.29477584236E+02  0.13217913064E+03  0.12509000000E+03 0.  0.
         25    1    4    4    0    0  0.83715679119E+02  0.16863207893E+02 -0.64151092789E+02  0.16448572436E+03  0.12509000000E+03 0.  0.
         25    1    3    3    0    0 -0.88430405796E+02 -0.47402655436E+02 -0.17164591941E+03  0.23489737793E+03  0.12509000000E+03 0.  0.
<mgrwt>
<rscale>  2 0.46063847E+03</rscale>
<asrwt>0</asrwt>
<pdfrwt beam="1">  1       21 0.19579974E-01 0.46063847E+03</pdfrwt>
<pdfrwt beam="2">  1       21 0.58590942E-01 0.46063847E+03</pdfrwt>
<totfact> 0.60357886E+04</totfact>
</mgrwt>
</event>
<event>
 7    0  0.4725730E-002  0.4540753E+03  0.7546771E-02  0.1026514E+00
         21   -1    0    0  502  501  0.00000000000E+00  0.00000000000E+00  0.18767994222E+04  0.18767994222E+04  0.00000000000E+00 0.  1.
         21   -1    0    0  501  502 -0.00000000000E+00 -0.00000000000E+00 -0.27464886763E+02  0.27464886763E+02  0.00000000000E+00 0.  1.
      99926    2    1    2    0    0 -0.14210854715E-13  0.00000000000E+00  0.18493345355E+04  0.19042643090E+04  0.45407525195E+03 0.  0.
      99925    2    3    3    0    0 -0.10758489037E+03  0.32578479022E+02  0.11549358266E+04  0.11897904180E+04  0.26284712149E+03 0.  0.
         25    1    4    4    0    0 -0.11143594723E+02  0.76353943236E+01  0.48953538440E+03  0.50544522911E+03  0.12509000000E+03 0.  0.
         25    1    4    4    0    0 -0.96441295648E+02  0.24943084698E+02  0.66540044222E+03  0.68434518892E+03  0.12509000000E+03 0.  0.
         25    1    3    3    0    0  0.10758489037E+03 -0.32578479022E+02  0.69439870885E+03  0.71447389098E+03  0.12509000000E+03 0.  0.
<mgrwt>
<rscale>  2 0.45407525E+03</rscale>
<asrwt>0</asrwt>
<pdfrwt beam="1">  1       21 0.27599983E+00 0.45407525E+03</pdfrwt>
<pdfrwt beam="2">  1       21 0.40389552E-02 0.45407525E+03</pdfrwt>
<totfact> 0.15446956E+04</totfact>
</mgrwt>
</event>
<event>
 7    0  0.4725730E-002  0.4438979E+03  0.7546771E-02  0.1029558E+00
         21   -1    0    0  502  501  0.00000000000E+00  0.00000000000E+00  0.31021011786E+02  0.31021011786E+02  0.00000000000E+00 0. -1.
         21   -1    0    0  501  502 -0.00000000000E+00 -0.00000000000E+00 -0.15879989968E+04  0.15879989968E+04  0.00000000000E+00 0. -1.
      99926    2    1    2    0    0  0.14210854715E-13  0.00000000000E+00 -0.15569779850E+04  0.16190200085E+04  0.44389789634E+03 0.  0.
      99925    2    3    3    0    0  0.78624692458E+02 -0.42869270201E+02 -0.11684975529E+04  0.12011873019E+04  0.26352378709E+03 0.  0.
         25    1    4    4    0    0  0.27318201336E+02 -0.58640558416E+02 -0.65373388230E+03  0.66873051088E+03  0.12509000000E+03 0.  0.
         25    1    4    4    0    0  0.51306491122E+02  0.15771288215E+02 -0.51476367064E+03  0.53245679100E+03  0.12509000000E+03 0.  0.
         25    1    3    3    0    0 -0.78624692458E+02  0.42869270201E+02 -0.38848043203E+03  0.41783270667E+03  0.12509000000E+03 0.  0.
<mgrwt>
<rscale>  2 0.44389790E+03</rscale>
<asrwt>0</asrwt>
<pdfrwt beam="1">  1       21 0.45619131E-02 0.44389790E+03</pdfrwt>
<pdfrwt beam="2">  1       21 0.23352929E+00 0.44389790E+03</pdfrwt>
<totfact> 0.22916140E+04</totfact>
</mgrwt>
</event>
<event>
 7    0  0.4725730E-002  0.4491755E+03  0.7546771E-02  0.1027968E+00
         21   -1    0    0  502  501  0.00000000000E+00  0.00000000000E+00  0.21782989026E+02  0.21782989026E+02  0.00000000000E+00 0.  1.
         21   -1    0    0  501  502 -0.00000000000E+00 -0.00000000000E+00 -0.23155529807E+04  0.23155529807E+04  0.00000000000E+00 0.  1.
      99926    2    1    2    0    0 -0.71054273576E-14  0.00000000000E+00 -0.22937699916E+04  0.23373359697E+04  0.44917553436E+03 0.  0.
      99925    2    3    3    0    0  0.62269884246E+02  0.83134156444E+02 -0.13142737686E+04  0.13444365864E+04  0.26344898814E+03 0.  0.
         25    1    4    4    0    0  0.24055844107E+02  0.30973927046E+02 -0.82318984057E+03  0.83356288876E+03  0.12509000000E+03 0.  0.
         25    1    3    3    0    0 -0.62269884246E+02 -0.83134156444E+02 -0.97949622299E+03  0.99289938332E+03  0.12509000000E+03 0.  0.
         25    1    4    4    0    0  0.38214040140E+02  0.52160229398E+02 -0.49108392808E+03  0.51087369761E+03  0.12509000000E+03 0.  0.
<mgrwt>
<rscale>  2 0.44917553E+03</rscale>
<asrwt>0</asrwt>
<pdfrwt beam="1">  1       21 0.32033835E-02 0.44917553E+03</pdfrwt>
<pdfrwt beam="2">  1       21 0.34052220E+00 0.44917553E+03</pdfrwt>
<totfact> 0.93592716E+03</totfact>
</mgrwt>
</event>
<event>
 7    0  0.4725730E-002  0.4601050E+03  0.7546771E-02  0.1024751E+00
         21   -1    0    0  502  501  0.00000000000E+00  0.00000000000E+00  0.46497255939E+03  0.46497255939E+03  0.00000000000E+00 0.  1.
         21   -1    0    0  501  502 -0.00000000000E+00 -0.00000000000E+00 -0.11382212386E+03  0.11382212386E+03  0.00000000000E+00 0.  1.
      99926    2    1    2    0    0  0.00000000000E+00  0.00000000000E+00  0.35115043553E+03  0.57879468325E+03  0.46010504994E+03 0.  0.
      99925    2    3    3    0    0  0.10381955856E+03 -0.37013151655E+02  0.16729509855E+03  0.33060369394E+03  0.26298798131E+03 0.  0.
         25    1    4    4    0    0  0.54245212176E+02 -0.59125146773E+02  0.93074312793E+02  0.17535296355E+03  0.12509000000E+03 0.  0.
         25    1    3    3    0    0 -0.10381955856E+03  0.37013151655E+02  0.18385533698E+03  0.24819098930E+03  0.12509000000E+03 0.  0.
         25    1    4    4    0    0  0.49574346386E+02  0.22111995118E+02  0.74220785761E+02  0.15525073039E+03  0.12509000000E+03 0.  0.
<mgrwt>
<rscale>  2 0.46010505E+03</rscale>
<asrwt>0</asrwt>
<pdfrwt beam="1">  1       21 0.68378317E-01 0.46010505E+03</pdfrwt>
<pdfrwt beam="2">  1       21 0.16738548E-01 0.46010505E+03</pdfrwt>
<totfact> 0.57640954E+04</totfact>
</mgrwt>
</event>
<event>
 7    0  0.4725730E-002  0.4573910E+03  0.7546771E-02  0.1025541E+00
         21   -1    0    0  502  501  0.00000000000E+00  0.00000000000E+00  0.18304423752E+03  0.18304423752E+03  0.00000000000E+00 0.  1.
         21   -1    0    0  501  502 -0.00000000000E+00 -0.00000000000E+00 -0.28573222665E+03  0.28573222665E+03  0.00000000000E+00 0.  1.
      99926    2    1    2    0    0 -0.35527136788E-14  0.00000000000E+00 -0.10268798914E+03  0.46877646417E+03  0.45739102554E+03 0.  0.
      99925    2    3    3    0    0 -0.25392834747E+02 -0.59939390838E+02 -0.16220785011E+03  0.31571553323E+03  0.26292087147E+03 0.  0.
         25    1    4    4    0    0 -0.20086521282E+02 -0.57871892276E+02 -0.11916656519E+03  0.18330521709E+03  0.12509000000E+03 0.  0.
         25    1    3    3    0    0  0.25392834747E+02  0.59939390838E+02  0.59519860971E+02  0.15306093094E+03  0.12509000000E+03 0.  0.
         25    1    4    4    0    0 -0.53063134649E+01 -0.20674985614E+01 -0.43041284921E+02  0.13241031614E+03  0.12509000000E+03 0.  0.
<mgrwt>
<rscale>  2 0.45739103E+03</rscale>
<asrwt>0</asrwt>
<pdfrwt beam="1">  1       21 0.26918270E-01 0.45739103E+03</pdfrwt>
<pdfrwt beam="2">  1       21 0.42019445E-01 0.45739103E+03</pdfrwt>
<totfact> 0.66261475E+04</totfact>
</mgrwt>
</event>
<event>
 7    0  0.4725730E-002  0.4551526E+03  0.7546771E-02  0.1026197E+00
         21   -1    0    0  502  501  0.00000000000E+00  0.00000000000E+00  0.73272467381E+03  0.73272467381E+03  0.00000000000E+00 0.  1.
         21   -1    0    0  501  502 -0.00000000000E+00 -0.00000000000E+00 -0.70682731528E+02  0.70682731528E+02  0.00000000000E+00 0.  1.
      99926    2    1    2    0    0  0.00000000000E+00  0.00000000000E+00  0.66204194228E+03  0.80340740534E+03  0.45515263990E+03 0.  0.
      99925    2    3    3    0    0  0.48510368233E+02  0.67660776824E+01  0.23535771990E+03  0.35607534818E+03  0.26267348863E+03 0.  0.
         25    1    4    4    0    0  0.34520270035E+02  0.47093815471E+01  0.67767375015E+02  0.14647099554E+03  0.12509000000E+03 0.  0.
         25    1    3    3    0    0 -0.48510368233E+02 -0.67660776824E+01  0.42668422238E+03  0.44733205716E+03  0.12509000000E+03 0.  0.
         25    1    4    4    0    0  0.13990098198E+02  0.20566961352E+01  0.16759034488E+03  0.20960435264E+03  0.12509000000E+03 0.  0.
<mgrwt>
<rscale>  2 0.45515264E+03</rscale>
<asrwt>0</asrwt>
<pdfrwt beam="1">  1       21 0.10775362E+00 0.45515264E+03</pdfrwt>
<pdfrwt beam="2">  1       21 0.10394520E-01 0.45515264E+03</pdfrwt>
<totfact> 0.47543461E+04</totfact>
</mgrwt>
</event>
<event>
 7    0  0.4725730E-002  0.4512473E+03  0.7546771E-02  0.1027351E+00
         21   -1    0    0  502  501  0.00000000000E+00  0.00000000000E+00  0.58632593873E+03  0.58632593873E+03  0.00000000000E+00 0. -1.
         21   -1    0    0  501  502 -0.00000000000E+00 -0.00000000000E+00 -0.86822076953E+02  0.86822076953E+02  0.00000000000E+00 0. -1.
      99926    2    1    2    0    0  0.14210854715E-13  0.71054273576E-14  0.49950386177E+03  0.67314801568E+03  0.45124731920E+03 0.  0.
      99925    2    3    3    0    0 -0.99169978759E+02 -0.33019213443E+02  0.36478256979E+03  0.46167156839E+03  0.26296266027E+03 0.  0.
         25    1    4    4    0    0 -0.39326576067E+02  0.21491039666E+02  0.15172760341E+03  0.20168593929E+03  0.12509000000E+03 0.  0.
         25    1    4    4    0    0 -0.59843402692E+02 -0.54510253108E+02  0.21305496639E+03  0.25998562911E+03  0.12509000000E+03 0.  0.
         25    1    3    3    0    0  0.99169978759E+02  0.33019213443E+02  0.13472129198E+03  0.21147644728E+03  0.12509000000E+03 0.  0.
<mgrwt>
<rscale>  2 0.45124732E+03</rscale>
<asrwt>0</asrwt>
<pdfrwt beam="1">  1       21 0.86224401E-01 0.45124732E+03</pdfrwt>
<pdfrwt beam="2">  1       21 0.12767953E-01 0.45124732E+03</pdfrwt>
<totfact> 0.56023536E+04</totfact>
</mgrwt>
</event>
<event>
 7    0  0.4725730E-002  0.4565616E+03  0.7546771E-02  0.1025783E+00
         21   -1    0    0  502  501  0.00000000000E+00  0.00000000000E+00  0.14387081735E+04  0.14387081735E+04  0.00000000000E+00 0.  1.
         21   -1    0    0  501  502 -0.00000000000E+00 -0.00000000000E+00 -0.36221461811E+02  0.36221461811E+02  0.00000000000E+00 0.  1.
      99926    2    1    2    0    0  0.00000000000E+00  0.00000000000E+00  0.14024867117E+04  0.14749296353E+04  0.45656155407E+03 0.  0.
      99925    2    3    3    0    0  0.40316480145E+02 -0.10258969970E+03  0.77968896357E+03  0.83020131406E+03  0.26300052643E+03 0.  0.
         25    1    4    4    0    0  0.13073884534E+02 -0.56329045871E+02  0.50741036688E+03  0.52579147615E+03  0.12509000000E+03 0.  0.
         25    1    3    3    0    0 -0.40316480145E+02  0.10258969970E+03  0.62279774814E+03  0.64472832127E+03  0.12509000000E+03 0.  0.
         25    1    4    4    0    0  0.27242595611E+02 -0.46260653832E+02  0.27227859668E+03  0.30440983792E+03  0.12509000000E+03 0.  0.
<mgrwt>
<rscale>  2 0.45656155E+03</rscale>
<asrwt>0</asrwt>
<pdfrwt beam="1">  1       21 0.21157469E+00 0.45656155E+03</pdfrwt>
<pdfrwt beam="2">  1       21 0.53266865E-02 0.45656155E+03</pdfrwt>
<totfact> 0.24106557E+04</totfact>
</mgrwt>
</event>
<event>
 7    0  0.4725730E-002  0.4528956E+03  0.7546771E-02  0.1026862E+00
         21   -1    0    0  502  501  0.00000000000E+00  0.00000000000E+00  0.91610455000E+02  0.91610455000E+02  0.00000000000E+00 0.  1.
         21   -1    0    0  501  502 -0.00000000000E+00 -0.00000000000E+00 -0.55974624916E+03  0.55974624916E+03  0.00000000000E+00 0.  1.
      99926    2    1    2    0    0  0.14210854715E-13  0.00000000000E+00 -0.46813579416E+03  0.65135670416E+03  0.45289561080E+03 0.  0.
      99925    2    3    3    0    0  0.10627304502E+03  0.20330523773E+02 -0.33241804619E+03  0.43740786563E+03  0.26290034840E+03 0.  0.
         25    1    3    3    0    0 -0.10627304502E+03 -0.20330523773E+02 -0.13571774797E+03  0.21394883853E+03  0.12509000000E+03 0.  0.
         25    1    4    4    0    0  0.28621014572E+02 -0.18556919214E+02 -0.12507844576E+03  0.18015450985E+03  0.12509000000E+03 0.  0.
         25    1    4    4    0    0  0.77652030444E+02  0.38887442988E+02 -0.20733960043E+03  0.25725335578E+03  0.12509000000E+03 0.  0.
<mgrwt>
<rscale>  2 0.45289561E+03</rscale>
<asrwt>0</asrwt>
<pdfrwt beam="1">  1       21 0.13472126E-01 0.45289561E+03</pdfrwt>
<pdfrwt beam="2">  1       21 0.82315623E-01 0.45289561E+03</pdfrwt>
<totfact> 0.56556428E+04</totfact>
</mgrwt>
</event>
<event>
 7    0  0.4725730E-002  0.4266910E+03  0.7546771E-02  0.1034910E+00
         21   -1    0    0  502  501  0.00000000000E+00  0.00000000000E+00  0.82466356853E+03  0.82466356853E+03  0.00000000000E+00 0.  1.
         21   -1    0    0  501  502 -0.00000000000E+00 -0.00000000000E+00 -0.55193783252E+02  0.55193783252E+02  0.00000000000E+00 0.  1.
      99926    2    1    2    0    0  0.00000000000E+00  0.00000000000E+00  0.76946978527E+03  0.87985735178E+03  0.42669099947E+03 0.  0.
      99925    2    3    3    0    0  0.64569609626E+02  0.49557828148E+02  0.53953519716E+03  0.60573578070E+03  0.26304447196E+03 0.  0.
         25    1    4    4    0    0  0.69014469007E+01 -0.90497186540E+01  0.25194545237E+03  0.28152006402E+03  0.12509000000E+03 0.  0.
         25    1    3    3    0    0 -0.64569609626E+02 -0.49557828148E+02  0.22993458812E+03  0.27412157108E+03  0.12509000000E+03 0.  0.
         25    1    4    4    0    0  0.57668162725E+02  0.58607546802E+02  0.28758974479E+03  0.32421571668E+03  0.12509000000E+03 0.  0.
<mgrwt>
<rscale>  2 0.42669100E+03</rscale>
<asrwt>0</asrwt>
<pdfrwt beam="1">  1       21 0.12127405E+00 0.42669100E+03</pdfrwt>
<pdfrwt beam="2">  1       21 0.81167333E-02 0.42669100E+03</pdfrwt>
<totfact> 0.55414077E+04</totfact>
</mgrwt>
</event>
<event>
 7    0  0.4725730E-002  0.4567590E+03  0.7546771E-02  0.1025725E+00
         21   -1    0    0  502  501  0.00000000000E+00  0.00000000000E+00  0.34352610299E+03  0.34352610299E+03  0.00000000000E+00 0.  1.
         21   -1    0    0  501  502 -0.00000000000E+00 -0.00000000000E+00 -0.15182891735E+03  0.15182891735E+03  0.00000000000E+00 0.  1.
      99926    2    1    2    0    0  0.00000000000E+00 -0.71054273576E-14  0.19169718565E+03  0.49535502034E+03  0.45675900122E+03 0.  0.
      99925    2    3    3    0    0  0.82707375774E+02  0.52795554620E+02  0.55880156402E+02  0.28625778428E+03  0.26304571197E+03 0.  0.
         25    1    4    4    0    0  0.11601974489E+02  0.10943870305E+02 -0.63619880929E+00  0.12610427018E+03  0.12509000000E+03 0.  0.
         25    1    4    4    0    0  0.71105401285E+02  0.41851684315E+02  0.56516355211E+02  0.16015351410E+03  0.12509000000E+03 0.  0.
         25    1    3    3    0    0 -0.82707375774E+02 -0.52795554620E+02  0.13581702925E+03  0.20909723606E+03  0.12509000000E+03 0.  0.
<mgrwt>
<rscale>  2 0.45675900E+03</rscale>
<asrwt>0</asrwt>
<pdfrwt beam="1">  1       21 0.50518545E-01 0.45675900E+03</pdfrwt>
<pdfrwt beam="2">  1       21 0.22327782E-01 0.45675900E+03</pdfrwt>
<totfact> 0.64690166E+04</totfact>
</mgrwt>
</event>
<event>
 7    0  0.4725730E-002  0.4414557E+03  0.7546771E-02  0.1030301E+00
         21   -1    0    0  502  501  0.00000000000E+00  0.00000000000E+00  0.42697926931E+03  0.42697926931E+03  0.00000000000E+00 0.  1.
         21   -1    0    0  501  502 -0.00000000000E+00 -0.00000000000E+00 -0.11410572077E+03  0.11410572077E+03  0.00000000000E+00 0.  1.
      99926    2    1    2    0    0  0.00000000000E+00 -0.71054273576E-14  0.31287354854E+03  0.54108499008E+03  0.44145567061E+03 0.  0.
      99925    2    3    3    0    0  0.19256305300E+02  0.59934281789E+02  0.10424426352E+03  0.28981499566E+03  0.26298848227E+03 0.  0.
         25    1    4    4    0    0  0.16701634901E+02  0.70609359676E+02  0.61839148694E+02  0.15727750854E+03  0.12509000000E+03 0.  0.
         25    1    4    4    0    0  0.25546703993E+01 -0.10675077887E+02  0.42405114826E+02  0.13253748712E+03  0.12509000000E+03 0.  0.
         25    1    3    3    0    0 -0.19256305300E+02 -0.59934281789E+02  0.20862928502E+03  0.25126999442E+03  0.12509000000E+03 0.  0.
<mgrwt>
<rscale>  2 0.44145567E+03</rscale>
<asrwt>0</asrwt>
<pdfrwt beam="1">  1       21 0.62791069E-01 0.44145567E+03</pdfrwt>
<pdfrwt beam="2">  1       21 0.16780253E-01 0.44145567E+03</pdfrwt>
<totfact> 0.69627720E+04</totfact>
</mgrwt>
</event>
<event>
 7    0  0.4725730E-002  0.4514554E+03  0.7546771E-02  0.1027289E+00
         21   -1    0    0  502  501  0.00000000000E+00  0.00000000000E+00  0.17150556438E+03  0.17150556438E+03  0.00000000000E+00 0.  1.
         21   -1    0    0  501  502 -0.00000000000E+00 -0.00000000000E+00 -0.29709232446E+03  0.29709232446E+03  0.00000000000E+00 0.  1.
      99926    2    1    2    0    0  0.00000000000E+00  0.00000000000E+00 -0.12558676008E+03  0.46859788884E+03  0.45145536559E+03 0.  0.
      99925    2    3    3    0    0  0.46481083232E+02 -0.47782946081E+02 -0.16987342434E+03  0.32009698727E+03  0.26298555080E+03 0.  0.
         25    1    4    4    0    0 -0.15043320682E+02 -0.23452419472E+02 -0.98322628296E+02  0.16152759768E+03  0.12509000000E+03 0.  0.
         25    1    4    4    0    0  0.61524403914E+02 -0.24330526609E+02 -0.71550796048E+02  0.15856938960E+03  0.12509000000E+03 0.  0.
         25    1    3    3    0    0 -0.46481083232E+02  0.47782946081E+02  0.44286664262E+02  0.14850090157E+03  0.12509000000E+03 0.  0.
<mgrwt>
<rscale>  2 0.45145537E+03</rscale>
<asrwt>0</asrwt>
<pdfrwt beam="1">  1       21 0.25221407E-01 0.45145537E+03</pdfrwt>
<pdfrwt beam="2">  1       21 0.43690047E-01 0.45145537E+03</pdfrwt>
<totfact> 0.69473348E+04</totfact>
</mgrwt>
</event>
<event>
 7    0  0.4725730E-002  0.4348104E+03  0.7546771E-02  0.1032351E+00
         21   -1    0    0  502  501  0.00000000000E+00  0.00000000000E+00  0.20817786551E+03  0.20817786551E+03  0.00000000000E+00 0. -1.
         21   -1    0    0  501  502 -0.00000000000E+00 -0.00000000000E+00 -0.22704150063E+03  0.22704150063E+03  0.00000000000E+00 0. -1.
      99926    2    1    2    0    0  0.00000000000E+00  0.00000000000E+00 -0.18863635124E+02  0.43521936614E+03  0.43481037239E+03 0.  0.
      99925    2    3    3    0    0 -0.58855144227E+02  0.59698717559E+02 -0.52402350773E+02  0.28094617201E+03  0.26297695778E+03 0.  0.
         25    1    4    4    0    0 -0.31839160462E+02 -0.11109495819E+02 -0.19240360759E+02  0.13097653461E+03  0.12509000000E+03 0.  0.
         25    1    3    3    0    0  0.58855144227E+02 -0.59698717559E+02  0.33538715649E+02  0.15427319413E+03  0.12509000000E+03 0.  0.
         25    1    4    4    0    0 -0.27015983765E+02  0.70808213378E+02 -0.33161990014E+02  0.14996963740E+03  0.12509000000E+03 0.  0.
<mgrwt>
<rscale>  2 0.43481037E+03</rscale>
<asrwt>0</asrwt>
<pdfrwt beam="1">  1       21 0.30614392E-01 0.43481037E+03</pdfrwt>
<pdfrwt beam="2">  1       21 0.33388456E-01 0.43481037E+03</pdfrwt>
<totfact> 0.82535632E+04</totfact>
</mgrwt>
</event>
<event>
 7    0  0.4725730E-002  0.4544166E+03  0.7546771E-02  0.1026413E+00
         21   -1    0    0  502  501  0.00000000000E+00  0.00000000000E+00  0.81569948458E+03  0.81569948458E+03  0.00000000000E+00 0. -1.
         21   -1    0    0  501  502 -0.00000000000E+00 -0.00000000000E+00 -0.63287525381E+02  0.63287525381E+02  0.00000000000E+00 0. -1.
      99926    2    1    2    0    0  0.00000000000E+00  0.35527136788E-14  0.75241195920E+03  0.87898700997E+03  0.45441655706E+03 0.  0.
      99925    2    3    3    0    0  0.10267699554E+03  0.17299846305E+02  0.39130309770E+03  0.48289488930E+03  0.26311121175E+03 0.  0.
         25    1    3    3    0    0 -0.10267699554E+03 -0.17299846305E+02  0.36110886150E+03  0.39609212066E+03  0.12509000000E+03 0.  0.
         25    1    4    4    0    0  0.38026819780E+02 -0.26395131960E+02  0.15632122736E+03  0.20549106121E+03  0.12509000000E+03 0.  0.
         25    1    4    4    0    0  0.64650175761E+02  0.43694978266E+02  0.23498187034E+03  0.27740382809E+03  0.12509000000E+03 0.  0.
<mgrwt>
<rscale>  2 0.45441656E+03</rscale>
<asrwt>0</asrwt>
<pdfrwt beam="1">  1       21 0.11995580E+00 0.45441656E+03</pdfrwt>
<pdfrwt beam="2">  1       21 0.93069895E-02 0.45441656E+03</pdfrwt>
<totfact> 0.44357065E+04</totfact>
</mgrwt>
</event>
<event>
 7    0  0.4725730E-002  0.4463477E+03  0.7546771E-02  0.1028817E+00
         21   -1    0    0  502  501  0.00000000000E+00  0.00000000000E+00  0.20864411901E+03  0.20864411901E+03  0.00000000000E+00 0.  1.
         21   -1    0    0  501  502 -0.00000000000E+00 -0.00000000000E+00 -0.23871542592E+03  0.23871542592E+03  0.00000000000E+00 0.  1.
      99926    2    1    2    0    0  0.00000000000E+00  0.00000000000E+00 -0.30071306916E+02  0.44735954493E+03  0.44634771081E+03 0.  0.
      99925    2    3    3    0    0 -0.90791868667E+02  0.37748951784E+02  0.17679209230E+02  0.28123980899E+03  0.26289756360E+03 0.  0.
         25    1    3    3    0    0  0.90791868667E+02 -0.37748951784E+02 -0.47750516146E+02  0.16611973594E+03  0.12509000000E+03 0.  0.
         25    1    4    4    0    0 -0.75824262097E+02  0.24140262648E+01  0.31559667044E+02  0.14966184193E+03  0.12509000000E+03 0.  0.
         25    1    4    4    0    0 -0.14967606569E+02  0.35334925519E+02 -0.13880457813E+02  0.13157796707E+03  0.12509000000E+03 0.  0.
<mgrwt>
<rscale>  2 0.44634771E+03</rscale>
<asrwt>0</asrwt>
<pdfrwt beam="1">  1       21 0.30682959E-01 0.44634771E+03</pdfrwt>
<pdfrwt beam="2">  1       21 0.35105210E-01 0.44634771E+03</pdfrwt>
<totfact> 0.74093658E+04</totfact>
</mgrwt>
</event>
<event>
 7    0  0.4725730E-002  0.4570409E+03  0.7546771E-02  0.1025643E+00
         21   -1    0    0  502  501  0.00000000000E+00  0.00000000000E+00  0.72122692647E+02  0.72122692647E+02  0.00000000000E+00 0. -1.
         21   -1    0    0  501  502 -0.00000000000E+00 -0.00000000000E+00 -0.72406620728E+03  0.72406620728E+03  0.00000000000E+00 0. -1.
      99926    2    1    2    0    0  0.14210854715E-13  0.17763568394E-14 -0.65194351463E+03  0.79618889992E+03  0.45704093700E+03 0.  0.
      99925    2    3    3    0    0  0.10219415090E+03 -0.13392799433E+02 -0.49858952954E+03  0.57305673192E+03  0.26301993742E+03 0.  0.
         25    1    3    3    0    0 -0.10219415090E+03  0.13392799433E+02 -0.15335398509E+03  0.22313216800E+03  0.12509000000E+03 0.  0.
         25    1    4    4    0    0  0.88874881602E+02 -0.24527382530E+02 -0.25335794653E+03  0.29721725092E+03  0.12509000000E+03 0.  0.
         25    1    4    4    0    0  0.13319269294E+02  0.11134583097E+02 -0.24523158301E+03  0.27583948100E+03  0.12509000000E+03 0.  0.
<mgrwt>
<rscale>  2 0.45704094E+03</rscale>
<asrwt>0</asrwt>
<pdfrwt beam="1">  1       21 0.10606279E-01 0.45704094E+03</pdfrwt>
<pdfrwt beam="2">  1       21 0.10648032E+00 0.45704094E+03</pdfrwt>
<totfact> 0.47189306E+04</totfact>
</mgrwt>
</event>
<event>
 7    0  0.4725730E-002  0.4462588E+03  0.7546771E-02  0.1028844E+00
         21   -1    0    0  502  501  0.00000000000E+00  0.00000000000E+00  0.84685292854E+02  0.84685292854E+02  0.00000000000E+00 0. -1.
         21   -1    0    0  501  502 -0.00000000000E+00 -0.00000000000E+00 -0.58790279501E+03  0.58790279501E+03  0.00000000000E+00 0. -1.
      99926    2    1    2    0    0  0.00000000000E+00  0.00000000000E+00 -0.50321750216E+03  0.67258808787E+03  0.44625876066E+03 0.  0.
      99925    2    3    3    0    0 -0.65378315140E+02 -0.80885399962E+02 -0.29967463736E+03  0.41202335901E+03  0.26294788090E+03 0.  0.
         25    1    4    4    0    0 -0.17301384958E+02 -0.48076106457E+02 -0.94948266289E+02  0.16514639356E+03  0.12509000000E+03 0.  0.
         25    1    4    4    0    0 -0.48076930182E+02 -0.32809293505E+02 -0.20472637107E+03  0.24687696545E+03  0.12509000000E+03 0.  0.
         25    1    3    3    0    0  0.65378315140E+02  0.80885399962E+02 -0.20354286480E+03  0.26056472886E+03  0.12509000000E+03 0.  0.
<mgrwt>
<rscale>  2 0.44625876E+03</rscale>
<asrwt>0</asrwt>
<pdfrwt beam="1">  1       21 0.12453720E-01 0.44625876E+03</pdfrwt>
<pdfrwt beam="2">  1       21 0.86456288E-01 0.44625876E+03</pdfrwt>
<totfact> 0.58330623E+04</totfact>
</mgrwt>
</event>
<event>
 7    0  0.4725730E-002  0.4557764E+03  0.7546771E-02  0.1026013E+00
         21   -1    0    0  502  501  0.00000000000E+00  0.00000000000E+00  0.43790786941E+02  0.43790786941E+02  0.00000000000E+00 0. -1.
         21   -1    0    0  501  502 -0.00000000000E+00 -0.00000000000E+00 -0.11859349748E+04  0.11859349748E+04  0.00000000000E+00 0. -1.
      99926    2    1    2    0    0  0.71054273576E-14  0.14210854715E-13 -0.11421441879E+04  0.12297257617E+04  0.45577637415E+03 0.  0.
      99925    2    3    3    0    0  0.35068337221E+02  0.10662741746E+03 -0.66540418770E+03  0.72422825405E+03  0.26295367753E+03 0.  0.
         25    1    4    4    0    0  0.58465167840E+01  0.40644418386E+02 -0.41245062570E+03  0.43295401286E+03  0.12509000000E+03 0.  0.
         25    1    3    3    0    0 -0.35068337221E+02 -0.10662741746E+03 -0.47674000016E+03  0.50549750770E+03  0.12509000000E+03 0.  0.
         25    1    4    4    0    0  0.29221820437E+02  0.65982999077E+02 -0.25295356199E+03  0.29127424119E+03  0.12509000000E+03 0.  0.
<mgrwt>
<rscale>  2 0.45577637E+03</rscale>
<asrwt>0</asrwt>
<pdfrwt beam="1">  1       21 0.64398212E-02 0.45577637E+03</pdfrwt>
<pdfrwt beam="2">  1       21 0.17440221E+00 0.45577637E+03</pdfrwt>
<totfact> 0.31037797E+04</totfact>
</mgrwt>
</event>
<event>
 7    0  0.4725730E-002  0.4352885E+03  0.7546771E-02  0.1032202E+00
         21   -1    0    0  502  501  0.00000000000E+00  0.00000000000E+00  0.38743947246E+03  0.38743947246E+03  0.00000000000E+00 0. -1.
         21   -1    0    0  501  502 -0.00000000000E+00 -0.00000000000E+00 -0.12226170954E+03  0.12226170954E+03  0.00000000000E+00 0. -1.
      99926    2    1    2    0    0  0.83266726847E-15  0.17763568394E-14  0.26517776292E+03  0.50970118200E+03  0.43528846641E+03 0.  0.
      99925    2    3    3    0    0  0.30502154426E+00 -0.13758053227E+02  0.61689987102E+02  0.27044366368E+03  0.26295388122E+03 0.  0.
         25    1    4    4    0    0 -0.26779393695E+02 -0.36826898912E+02  0.35660795563E+02  0.13781348573E+03  0.12509000000E+03 0.  0.
         25    1    4    4    0    0  0.27084415239E+02  0.23068845685E+02  0.26029191540E+02  0.13263017795E+03  0.12509000000E+03 0.  0.
         25    1    3    3    0    0 -0.30502154426E+00  0.13758053227E+02  0.20348777582E+03  0.23925751832E+03  0.12509000000E+03 0.  0.
<mgrwt>
<rscale>  2 0.43528847E+03</rscale>
<asrwt>0</asrwt>
<pdfrwt beam="1">  1       21 0.56976393E-01 0.43528847E+03</pdfrwt>
<pdfrwt beam="2">  1       21 0.17979663E-01 0.43528847E+03</pdfrwt>
<totfact> 0.75762809E+04</totfact>
</mgrwt>
</event>
<event>
 7    0  0.4725730E-002  0.4552146E+03  0.7546771E-02  0.1026178E+00
         21   -1    0    0  502  501  0.00000000000E+00  0.00000000000E+00  0.85215991921E+03  0.85215991921E+03  0.00000000000E+00 0. -1.
         21   -1    0    0  501  502 -0.00000000000E+00 -0.00000000000E+00 -0.60792685197E+02  0.60792685197E+02  0.00000000000E+00 0. -1.
      99926    2    1    2    0    0 -0.14210854715E-13  0.00000000000E+00  0.79136723402E+03  0.91295260441E+03  0.45521462941E+03 0.  0.
      99925    2    3    3    0    0  0.98725947335E+02 -0.24862199601E+01  0.38622774081E+03  0.47759239605E+03  0.26300120728E+03 0.  0.
         25    1    4    4    0    0  0.92422352673E+02  0.11907902259E+01  0.22006326394E+03  0.26947849170E+03  0.12509000000E+03 0.  0.
         25    1    4    4    0    0  0.63035946615E+01 -0.36770101860E+01  0.16616447688E+03  0.20811390435E+03  0.12509000000E+03 0.  0.
         25    1    3    3    0    0 -0.98725947335E+02  0.24862199601E+01  0.40513949320E+03  0.43536020836E+03  0.12509000000E+03 0.  0.
<mgrwt>
<rscale>  2 0.45521463E+03</rscale>
<asrwt>0</asrwt>
<pdfrwt beam="1">  1       21 0.12531763E+00 0.45521463E+03</pdfrwt>
<pdfrwt beam="2">  1       21 0.89401013E-02 0.45521463E+03</pdfrwt>
<totfact> 0.42606851E+04</totfact>
</mgrwt>
</event>
<event>
 7    0  0.4725730E-002  0.4612849E+03  0.7546771E-02  0.1024409E+00
         21   -1    0    0  502  501  0.00000000000E+00  0.00000000000E+00  0.84881950709E+03  0.84881950709E+03  0.00000000000E+00 0.  1.
         21   -1    0    0  501  502 -0.00000000000E+00 -0.00000000000E+00 -0.62670487373E+02  0.62670487373E+02  0.00000000000E+00 0.  1.
      99926    2    1    2    0    0 -0.71054273576E-14 -0.14210854715E-13  0.78614901971E+03  0.91148999446E+03  0.46128486730E+03 0.  0.
      99925    2    3    3    0    0  0.61911774633E+02  0.82270126638E+02  0.60982928347E+03  0.67203728709E+03  0.26294660807E+03 0.  0.
         25    1    4    4    0    0  0.64646965430E+02  0.45486820320E+02  0.26735762103E+03  0.30557468250E+03  0.12509000000E+03 0.  0.
         25    1    3    3    0    0 -0.61911774633E+02 -0.82270126638E+02  0.17631973625E+03  0.23945270737E+03  0.12509000000E+03 0.  0.
         25    1    4    4    0    0 -0.27351907969E+01  0.36783306318E+02  0.34247166244E+03  0.36646260460E+03  0.12509000000E+03 0.  0.
<mgrwt>
<rscale>  2 0.46128487E+03</rscale>
<asrwt>0</asrwt>
<pdfrwt beam="1">  1       21 0.12482639E+00 0.46128487E+03</pdfrwt>
<pdfrwt beam="2">  1       21 0.92162487E-02 0.46128487E+03</pdfrwt>
<totfact> 0.40700955E+04</totfact>
</mgrwt>
</event>
<event>
 7    0  0.4725730E-002  0.4559485E+03  0.7546771E-02  0.1025963E+00
         21   -1    0    0  502  501  0.00000000000E+00  0.00000000000E+00  0.34119264317E+03  0.34119264317E+03  0.00000000000E+00 0. -1.
         21   -1    0    0  501  502 -0.00000000000E+00 -0.00000000000E+00 -0.15232529385E+03  0.15232529385E+03  0.00000000000E+00 0. -1.
      99926    2    1    2    0    0  0.00000000000E+00 -0.14210854715E-13  0.18886734932E+03  0.49351793702E+03  0.45594854811E+03 0.  0.
      99925    2    3    3    0    0  0.44407424308E+02  0.10337872756E+03  0.97682353151E+02  0.30215077089E+03  0.26285750054E+03 0.  0.
         25    1    4    4    0    0  0.41295384465E+02  0.14685434463E+02  0.44414797061E+02  0.13978967437E+03  0.12509000000E+03 0.  0.
         25    1    3    3    0    0 -0.44407424308E+02 -0.10337872756E+03  0.91184996165E+02  0.19136716612E+03  0.12509000000E+03 0.  0.
         25    1    4    4    0    0  0.31120398430E+01  0.88693293093E+02  0.53267556090E+02  0.16236109652E+03  0.12509000000E+03 0.  0.
<mgrwt>
<rscale>  2 0.45594855E+03</rscale>
<asrwt>0</asrwt>
<pdfrwt beam="1">  1       21 0.50175389E-01 0.45594855E+03</pdfrwt>
<pdfrwt beam="2">  1       21 0.22400779E-01 0.45594855E+03</pdfrwt>
<totfact> 0.65235858E+04</totfact>
</mgrwt>
</event>
<event>
 7    0  0.4725730E-002  0.4543324E+03  0.7546771E-02  0.1026438E+00
         21   -1    0    0  502  501  0.00000000000E+00  0.00000000000E+00  0.33517776160E+02  0.33517776160E+02  0.00000000000E+00 0.  1.
         21   -1    0    0  501  502 -0.00000000000E+00 -0.00000000000E+00 -0.15396155906E+04  0.15396155906E+04  0.00000000000E+00 0.  1.
      99926    2    1    2    0    0  0.00000000000E+00  0.00000000000E+00 -0.15060978145E+04  0.15731333668E+04  0.45433243661E+03 0.  0.
      99925    2    3    3    0    0  0.21323818916E+02 -0.10680130689E+03 -0.10491783062E+04  0.10870426658E+04  0.26272688245E+03 0.  0.
         25    1    3    3    0    0 -0.21323818916E+02  0.10680130689E+03 -0.45691950830E+03  0.48609070098E+03  0.12509000000E+03 0.  0.
         25    1    4    4    0    0 -0.79109403422E+01 -0.44667222269E+02 -0.64027718079E+03  0.65395727694E+03  0.12509000000E+03 0.  0.
         25    1    4    4    0    0  0.29234759258E+02 -0.62134084626E+02 -0.40890112538E+03  0.43308538888E+03  0.12509000000E+03 0.  0.
<mgrwt>
<rscale>  2 0.45433244E+03</rscale>
<asrwt>0</asrwt>
<pdfrwt beam="1">  1       21 0.49290842E-02 0.45433244E+03</pdfrwt>
<pdfrwt beam="2">  1       21 0.22641408E+00 0.45433244E+03</pdfrwt>
<totfact> 0.22156953E+04</totfact>
</mgrwt>
</event>
<event>
 7    0  0.4725730E-002  0.4168190E+03  0.7546771E-02  0.1038107E+00
         21   -1    0    0  502  501  0.00000000000E+00  0.00000000000E+00  0.11099682709E+02  0.11099682709E+02  0.00000000000E+00 0. -1.
         21   -1    0    0  501  502 -0.00000000000E+00 -0.00000000000E+00 -0.39131312755E+04  0.39131312755E+04  0.00000000000E+00 0. -1.
      99926    2    1    2    0    0  0.00000000000E+00  0.00000000000E+00 -0.39020315928E+04  0.39242309582E+04  0.41681898016E+03 0.  0.
      99925    2    3    3    0    0  0.38750402986E+02  0.31390104083E+02 -0.30376007231E+04  0.30493737305E+04  0.26301152577E+03 0.  0.
         25    1    4    4    0    0  0.42328322868E+02  0.29747869907E+02 -0.12247247426E+04  0.12321829515E+04  0.12509000000E+03 0.  0.
         25    1    3    3    0    0 -0.38750402986E+02 -0.31390104083E+02 -0.86443086968E+03  0.87485722773E+03  0.12509000000E+03 0.  0.
         25    1    4    4    0    0 -0.35779198818E+01  0.16422341758E+01 -0.18128759805E+04  0.18171907790E+04  0.12509000000E+03 0.  0.
<mgrwt>
<rscale>  2 0.41681898E+03</rscale>
<asrwt>0</asrwt>
<pdfrwt beam="1">  1       21 0.16323062E-02 0.41681898E+03</pdfrwt>
<pdfrwt beam="2">  1       21 0.57546052E+00 0.41681898E+03</pdfrwt>
<totfact> 0.72432521E+02</totfact>
</mgrwt>
</event>
<event>
 7    0  0.4725730E-002  0.4582886E+03  0.7546771E-02  0.1025279E+00
         21   -1    0    0  502  501  0.00000000000E+00  0.00000000000E+00  0.14997550126E+04  0.14997550126E+04  0.00000000000E+00 0.  1.
         21   -1    0    0  501  502 -0.00000000000E+00 -0.00000000000E+00 -0.35010451135E+02  0.35010451135E+02  0.00000000000E+00 0.  1.
      99926    2    1    2    0    0  0.00000000000E+00  0.00000000000E+00  0.14647445615E+04  0.15347654638E+04  0.45828855357E+03 0.  0.
      99925    2    3    3    0    0 -0.11493807201E+02 -0.93817296078E+02  0.11456145451E+04  0.11792021528E+04  0.26296623083E+03 0.  0.
         25    1    3    3    0    0  0.11493807201E+02  0.93817296078E+02  0.31913001641E+03  0.35556331099E+03  0.12509000000E+03 0.  0.
         25    1    4    4    0    0  0.30665509330E+02 -0.40841252832E+02  0.63019313026E+03  0.64451475617E+03  0.12509000000E+03 0.  0.
         25    1    4    4    0    0 -0.42159316531E+02 -0.52976043246E+02  0.51542141482E+03  0.53468739660E+03  0.12509000000E+03 0.  0.
<mgrwt>
<rscale>  2 0.45828855E+03</rscale>
<asrwt>0</asrwt>
<pdfrwt beam="1">  1       21 0.22055216E+00 0.45828855E+03</pdfrwt>
<pdfrwt beam="2">  1       21 0.51485968E-02 0.45828855E+03</pdfrwt>
<totfact> 0.22363161E+04</totfact>
</mgrwt>
</event>
<event>
 7    0  0.4725730E-002  0.4449591E+03  0.7546771E-02  0.1029236E+00
         21   -1    0    0  502  501  0.00000000000E+00  0.00000000000E+00  0.48789912882E+03  0.48789912882E+03  0.00000000000E+00 0.  1.
         21   -1    0    0  501  502 -0.00000000000E+00 -0.00000000000E+00 -0.10144955822E+03  0.10144955822E+03  0.00000000000E+00 0.  1.
      99926    2    1    2    0    0  0.71054273576E-14  0.00000000000E+00  0.38644957060E+03  0.58934868703E+03  0.44495910406E+03 0.  0.
      99925    2    3    3    0    0 -0.51792326734E+02  0.47686316998E+02  0.34587592618E+03  0.44018381631E+03  0.26301179800E+03 0.  0.
         25    1    4    4    0    0 -0.55226107469E+02  0.49255003924E+02  0.21077148454E+03  0.25602364178E+03  0.12509000000E+03 0.  0.
         25    1    3    3    0    0  0.51792326734E+02 -0.47686316998E+02  0.40573644420E+02  0.14916487073E+03  0.12509000000E+03 0.  0.
         25    1    4    4    0    0  0.34337807347E+01 -0.15686869253E+01  0.13510444165E+03  0.18416017453E+03  0.12509000000E+03 0.  0.
<mgrwt>
<rscale>  2 0.44495910E+03</rscale>
<asrwt>0</asrwt>
<pdfrwt beam="1">  1       21 0.71749871E-01 0.44495910E+03</pdfrwt>
<pdfrwt beam="2">  1       21 0.14919053E-01 0.44495910E+03</pdfrwt>
<totfact> 0.64290732E+04</totfact>
</mgrwt>
</event>
<event>
 7    0  0.4725730E-002  0.4507482E+03  0.7546771E-02  0.1027499E+00
         21   -1    0    0  502  501  0.00000000000E+00  0.00000000000E+00  0.19586949261E+03  0.19586949261E+03  0.00000000000E+00 0.  1.
         21   -1    0    0  501  502 -0.00000000000E+00 -0.00000000000E+00 -0.25932312993E+03  0.25932312993E+03  0.00000000000E+00 0.  1.
      99926    2    1    2    0    0  0.00000000000E+00  0.00000000000E+00 -0.63453637322E+02  0.45519262254E+03  0.45074822188E+03 0.  0.
      99925    2    3    3    0    0 -0.90653141726E+02  0.14583300186E+02 -0.99709000462E+02  0.29584198964E+03  0.26296374904E+03 0.  0.
         25    1    4    4    0    0 -0.40573918858E+02 -0.32568787996E+02 -0.55415614347E+02  0.14637406620E+03  0.12509000000E+03 0.  0.
         25    1    3    3    0    0  0.90653141726E+02 -0.14583300186E+02  0.36255363141E+02  0.15935063290E+03  0.12509000000E+03 0.  0.
         25    1    4    4    0    0 -0.50079222868E+02  0.47152088183E+02 -0.44293386115E+02  0.14946792344E+03  0.12509000000E+03 0.  0.
<mgrwt>
<rscale>  2 0.45074822E+03</rscale>
<asrwt>0</asrwt>
<pdfrwt beam="1">  1       21 0.28804337E-01 0.45074822E+03</pdfrwt>
<pdfrwt beam="2">  1       21 0.38135754E-01 0.45074822E+03</pdfrwt>
<totfact> 0.70906228E+04</totfact>
</mgrwt>
</event>
<event>
 7    0  0.4725730E-002  0.4608714E+03  0.7546771E-02  0.1024529E+00
         21   -1    0    0  502  501  0.00000000000E+00  0.00000000000E+00  0.17749193111E+02  0.17749193111E+02  0.00000000000E+00 0. -1.
         21   -1    0    0  501  502 -0.00000000000E+00 -0.00000000000E+00 -0.29917197701E+04  0.29917197701E+04  0.00000000000E+00 0. -1.
      99926    2    1    2    0    0  0.00000000000E+00 -0.71054273576E-14 -0.29739705770E+04  0.30094689633E+04  0.46087140044E+03 0.  0.
      99925    2    3    3    0    0 -0.28065035742E+02  0.60425603739E+02 -0.25025245923E+04  0.25171807098E+04  0.26292677910E+03 0.  0.
         25    1    4    4    0    0 -0.15737762663E+02 -0.32654065336E+01 -0.96359528373E+03  0.97181362358E+03  0.12509000000E+03 0.  0.
         25    1    3    3    0    0  0.28065035742E+02 -0.60425603739E+02 -0.47144598474E+03  0.49228825341E+03  0.12509000000E+03 0.  0.
         25    1    4    4    0    0 -0.12327273078E+02  0.63691010273E+02 -0.15389293086E+04  0.15453670863E+04  0.12509000000E+03 0.  0.
<mgrwt>
<rscale>  2 0.46087140E+03</rscale>
<asrwt>0</asrwt>
<pdfrwt beam="1">  1       21 0.26101759E-02 0.46087140E+03</pdfrwt>
<pdfrwt beam="2">  1       21 0.43995871E+00 0.46087140E+03</pdfrwt>
<totfact> 0.30531680E+03</totfact>
</mgrwt>
</event>
<event>
 7    0  0.4725730E-002  0.4560668E+03  0.7546771E-02  0.1025928E+00
         21   -1    0    0  502  501  0.00000000000E+00  0.00000000000E+00  0.10684348417E+04  0.10684348417E+04  0.00000000000E+00 0.  1.
         21   -1    0    0  501  502 -0.00000000000E+00 -0.00000000000E+00 -0.48668603332E+02  0.48668603332E+02  0.00000000000E+00 0.  1.
      99926    2    1    2    0    0  0.71054273576E-14  0.00000000000E+00  0.10197662383E+04  0.11171034450E+04  0.45606679991E+03 0.  0.
      99925    2    3    3    0    0 -0.37522568434E+02  0.10443442423E+03  0.57549183037E+03  0.64240169676E+03  0.26301064822E+03 0.  0.
         25    1    3    3    0    0  0.37522568434E+02 -0.10443442423E+03  0.44427440797E+03  0.47470174824E+03  0.12509000000E+03 0.  0.
         25    1    4    4    0    0  0.16820831023E+02  0.41578298134E+02  0.31198376970E+03  0.33910628995E+03  0.12509000000E+03 0.  0.
         25    1    4    4    0    0 -0.54343399457E+02  0.62856126091E+02  0.26350806067E+03  0.30329540681E+03  0.12509000000E+03 0.  0.
<mgrwt>
<rscale>  2 0.45606680E+03</rscale>
<asrwt>0</asrwt>
<pdfrwt beam="1">  1       21 0.15712276E+00 0.45606680E+03</pdfrwt>
<pdfrwt beam="2">  1       21 0.71571482E-02 0.45606680E+03</pdfrwt>
<totfact> 0.34611091E+04</totfact>
</mgrwt>
</event>
<event>
 7    0  0.4725730E-002  0.4574390E+03  0.7546771E-02  0.1025527E+00
         21   -1    0    0  502  501  0.00000000000E+00  0.00000000000E+00  0.42901092498E+03  0.42901092498E+03  0.00000000000E+00 0. -1.
         21   -1    0    0  501  502 -0.00000000000E+00 -0.00000000000E+00 -0.12193769101E+03  0.12193769101E+03  0.00000000000E+00 0. -1.
      99926    2    1    2    0    0  0.00000000000E+00  0.00000000000E+00  0.30707323396E+03  0.55094861599E+03  0.45743896472E+03 0.  0.
      99925    2    3    3    0    0  0.77600841357E+02 -0.86477731478E+02  0.20061249763E+03  0.34974800689E+03  0.26187402601E+03 0.  0.
         25    1    3    3    0    0 -0.77600841357E+02  0.86477731478E+02  0.10646073633E+03  0.20120060910E+03  0.12509000000E+03 0.  0.
         25    1    4    4    0    0  0.54465120508E+02 -0.75588507350E+02  0.85658659373E+02  0.17794658137E+03  0.12509000000E+03 0.  0.
         25    1    4    4    0    0  0.23135720849E+02 -0.10889224128E+02  0.11495383826E+03  0.17180142552E+03  0.12509000000E+03 0.  0.
<mgrwt>
<rscale>  2 0.45743896E+03</rscale>
<asrwt>0</asrwt>
<pdfrwt beam="1">  1       21 0.63089841E-01 0.45743896E+03</pdfrwt>
<pdfrwt beam="2">  1       21 0.17932014E-01 0.45743896E+03</pdfrwt>
<totfact> 0.60625514E+04</totfact>
</mgrwt>
</event>
<event>
 7    0  0.4725730E-002  0.4487670E+03  0.7546771E-02  0.1028090E+00
         21   -1    0    0  502  501  0.00000000000E+00  0.00000000000E+00  0.37613279411E+03  0.37613279411E+03  0.00000000000E+00 0.  1.
         21   -1    0    0  501  502 -0.00000000000E+00 -0.00000000000E+00 -0.13385684183E+03  0.13385684183E+03  0.00000000000E+00 0.  1.
      99926    2    1    2    0    0  0.00000000000E+00 -0.17763568394E-14  0.24227595229E+03  0.50998963594E+03  0.44876696816E+03 0.  0.
      99925    2    3    3    0    0  0.55682120791E+02  0.15218216267E+02  0.50827892403E+02  0.27412535205E+03  0.26311431225E+03 0.  0.
         25    1    4    4    0    0  0.40947814787E+02  0.46090802612E+02  0.32001072710E+02  0.14308271166E+03  0.12509000000E+03 0.  0.
         25    1    4    4    0    0  0.14734306005E+02 -0.30872586344E+02  0.18826819692E+02  0.13104264039E+03  0.12509000000E+03 0.  0.
         25    1    3    3    0    0 -0.55682120791E+02 -0.15218216267E+02  0.19144805988E+03  0.23586428389E+03  0.12509000000E+03 0.  0.
<mgrwt>
<rscale>  2 0.44876697E+03</rscale>
<asrwt>0</asrwt>
<pdfrwt beam="1">  1       21 0.55313646E-01 0.44876697E+03</pdfrwt>
<pdfrwt beam="2">  1       21 0.19684830E-01 0.44876697E+03</pdfrwt>
<totfact> 0.67869747E+04</totfact>
</mgrwt>
</event>
<event>
 7    0  0.4725730E-002  0.4569352E+03  0.7546771E-02  0.1025674E+00
         21   -1    0    0  502  501  0.00000000000E+00  0.00000000000E+00  0.16945762198E+03  0.16945762198E+03  0.00000000000E+00 0. -1.
         21   -1    0    0  501  502 -0.00000000000E+00 -0.00000000000E+00 -0.30802652880E+03  0.30802652880E+03  0.00000000000E+00 0. -1.
      99926    2    1    2    0    0  0.00000000000E+00  0.00000000000E+00 -0.13856890682E+03  0.47748415079E+03  0.45693519488E+03 0.  0.
      99925    2    3    3    0    0 -0.71185831970E+02  0.36788118827E+02 -0.17321857576E+03  0.32494269407E+03  0.26298724509E+03 0.  0.
         25    1    4    4    0    0 -0.33976221551E+02  0.55502663685E+02 -0.10939523054E+03  0.17846499341E+03  0.12509000000E+03 0.  0.
         25    1    3    3    0    0  0.71185831970E+02 -0.36788118827E+02  0.34649668939E+02  0.15254145672E+03  0.12509000000E+03 0.  0.
         25    1    4    4    0    0 -0.37209610419E+02 -0.18714544858E+02 -0.63823345218E+02  0.14647770066E+03  0.12509000000E+03 0.  0.
<mgrwt>
<rscale>  2 0.45693519E+03</rscale>
<asrwt>0</asrwt>
<pdfrwt beam="1">  1       21 0.24920239E-01 0.45693519E+03</pdfrwt>
<pdfrwt beam="2">  1       21 0.45298019E-01 0.45693519E+03</pdfrwt>
<totfact> 0.65866268E+04</totfact>
</mgrwt>
</event>
<event>
 7    0  0.4725730E-002  0.4588134E+03  0.7546771E-02  0.1025126E+00
         21   -1    0    0  502  501  0.00000000000E+00  0.00000000000E+00  0.47894243606E+03  0.47894243606E+03  0.00000000000E+00 0.  1.
         21   -1    0    0  501  502 -0.00000000000E+00 -0.00000000000E+00 -0.10988256780E+03  0.10988256780E+03  0.00000000000E+00 0.  1.
      99926    2    1    2    0    0  0.00000000000E+00  0.00000000000E+00  0.36905986826E+03  0.58882500386E+03  0.45881335944E+03 0.  0.
      99925    2    3    3    0    0 -0.10334879545E+03  0.37542171341E+02  0.18141275763E+03  0.33792794453E+03  0.26304813041E+03 0.  0.
         25    1    3    3    0    0  0.10334879545E+03 -0.37542171341E+02  0.18764711063E+03  0.25089705933E+03  0.12509000000E+03 0.  0.
         25    1    4    4    0    0 -0.86078771557E+01  0.17096878561E+02  0.72753370904E+02  0.14596903741E+03  0.12509000000E+03 0.  0.
         25    1    4    4    0    0 -0.94740918298E+02  0.20445292780E+02  0.10865938672E+03  0.19195890711E+03  0.12509000000E+03 0.  0.
<mgrwt>
<rscale>  2 0.45881336E+03</rscale>
<asrwt>0</asrwt>
<pdfrwt beam="1">  1       21 0.70432710E-01 0.45881336E+03</pdfrwt>
<pdfrwt beam="2">  1       21 0.16159201E-01 0.45881336E+03</pdfrwt>
<totfact> 0.57615161E+04</totfact>
</mgrwt>
</event>
<event>
 7    0  0.4725730E-002  0.4491731E+03  0.7546771E-02  0.1027969E+00
         21   -1    0    0  502  501  0.00000000000E+00  0.00000000000E+00  0.13819719885E+04  0.13819719885E+04  0.00000000000E+00 0.  1.
         21   -1    0    0  501  502 -0.00000000000E+00 -0.00000000000E+00 -0.36497935765E+02  0.36497935765E+02  0.00000000000E+00 0.  1.
      99926    2    1    2    0    0  0.00000000000E+00  0.00000000000E+00  0.13454740527E+04  0.14184699242E+04  0.44917312860E+03 0.  0.
      99925    2    3    3    0    0 -0.97295727963E+02  0.44576517652E+02  0.78650580056E+03  0.83576370356E+03  0.26164110776E+03 0.  0.
         25    1    4    4    0    0 -0.66621871490E+02 -0.46877196586E+01  0.45918306005E+03  0.48057989888E+03  0.12509000000E+03 0.  0.
         25    1    4    4    0    0 -0.30673856474E+02  0.49264237310E+02  0.32732274051E+03  0.35518380468E+03  0.12509000000E+03 0.  0.
         25    1    3    3    0    0  0.97295727963E+02 -0.44576517652E+02  0.55896825215E+03  0.58270622068E+03  0.12509000000E+03 0.  0.
<mgrwt>
<rscale>  2 0.44917313E+03</rscale>
<asrwt>0</asrwt>
<pdfrwt beam="1">  1       21 0.20323114E+00 0.44917313E+03</pdfrwt>
<pdfrwt beam="2">  1       21 0.53673444E-02 0.44917313E+03</pdfrwt>
<totfact> 0.27048082E+04</totfact>
</mgrwt>
</event>
<event>
 7    0  0.4725730E-002  0.4558509E+03  0.7546771E-02  0.1025991E+00
         21   -1    0    0  502  501  0.00000000000E+00  0.00000000000E+00  0.10330339120E+04  0.10330339120E+04  0.00000000000E+00 0. -1.
         21   -1    0    0  501  502 -0.00000000000E+00 -0.00000000000E+00 -0.50288786607E+02  0.50288786607E+02  0.00000000000E+00 0. -1.
      99926    2    1    2    0    0 -0.14210854715E-13  0.44408920985E-14  0.98274512536E+03  0.10833226986E+04  0.45585094914E+03 0.  0.
      99925    2    3    3    0    0 -0.77669637088E+02  0.30571484462E+01  0.81618041222E+03  0.86098684801E+03  0.26288014089E+03 0.  0.
         25    1    4    4    0    0 -0.37789946831E+02 -0.38358684665E+02  0.42510427128E+03  0.44638617623E+03  0.12509000000E+03 0.  0.
         25    1    4    4    0    0 -0.39879690257E+02  0.41415833111E+02  0.39107614094E+03  0.41460067178E+03  0.12509000000E+03 0.  0.
         25    1    3    3    0    0  0.77669637088E+02 -0.30571484462E+01  0.16656471314E+03  0.22233585056E+03  0.12509000000E+03 0.  0.
<mgrwt>
<rscale>  2 0.45585095E+03</rscale>
<asrwt>0</asrwt>
<pdfrwt beam="1">  1       21 0.15191674E+00 0.45585095E+03</pdfrwt>
<pdfrwt beam="2">  1       21 0.73954104E-02 0.45585095E+03</pdfrwt>
<totfact> 0.35839366E+04</totfact>
</mgrwt>
</event>
<event>
 7    0  0.4725730E-002  0.4559067E+03  0.7546771E-02  0.1025975E+00
         21   -1    0    0  502  501  0.00000000000E+00  0.00000000000E+00  0.19777253929E+03  0.19777253929E+03  0.00000000000E+00 0.  1.
         21   -1    0    0  501  502 -0.00000000000E+00 -0.00000000000E+00 -0.26273985444E+03  0.26273985444E+03  0.00000000000E+00 0.  1.
      99926    2    1    2    0    0  0.00000000000E+00  0.17763568394E-14 -0.64967315148E+02  0.46051239373E+03  0.45590669302E+03 0.  0.
      99925    2    3    3    0    0  0.38931700785E+02  0.13431477251E+02  0.66493358321E+02  0.27443311311E+03  0.26305148728E+03 0.  0.
         25    1    4    4    0    0  0.26536083017E+02  0.10275855122E+02  0.74653323102E+02  0.14842635767E+03  0.12509000000E+03 0.  0.
         25    1    3    3    0    0 -0.38931700785E+02 -0.13431477251E+02 -0.13146067347E+03  0.18607928062E+03  0.12509000000E+03 0.  0.
         25    1    4    4    0    0  0.12395617768E+02  0.31556221284E+01 -0.81599647811E+01  0.12600675544E+03  0.12509000000E+03 0.  0.
<mgrwt>
<rscale>  2 0.45590669E+03</rscale>
<asrwt>0</asrwt>
<pdfrwt beam="1">  1       21 0.29084197E-01 0.45590669E+03</pdfrwt>
<pdfrwt beam="2">  1       21 0.38638214E-01 0.45590669E+03</pdfrwt>
<totfact> 0.67652753E+04</totfact>
</mgrwt>
</event>
<event>
 7    0  0.4725730E-002  0.4205280E+03  0.7546771E-02  0.1036895E+00
         21   -1    0    0  502  501  0.00000000000E+00  0.00000000000E+00  0.82787461655E+02  0.82787461655E+02  0.00000000000E+00 0.  1.
         21   -1    0    0  501  502 -0.00000000000E+00 -0.00000000000E+00 -0.53402962511E+03  0.53402962511E+03  0.00000000000E+00 0.  1.
      99926    2    1    2    0    0  0.00000000000E+00  0.00000000000E+00 -0.45124216346E+03  0.61681708677E+03  0.42052803527E+03 0.  0.
      99925    2    3    3    0    0 -0.22016967792E+02  0.50670164051E+02 -0.37155065551E+03  0.45854372535E+03  0.26298335699E+03 0.  0.
         25    1    3    3    0    0  0.22016967792E+02 -0.50670164051E+02 -0.79691507948E+02  0.15827336142E+03  0.12509000000E+03 0.  0.
         25    1    4    4    0    0  0.27351260491E+01 -0.26580725542E+01 -0.22242222434E+03  0.25521304874E+03  0.12509000000E+03 0.  0.
         25    1    4    4    0    0 -0.24752093842E+02  0.53328236605E+02 -0.14912843117E+03  0.20333067661E+03  0.12509000000E+03 0.  0.
<mgrwt>
<rscale>  2 0.42052804E+03</rscale>
<asrwt>0</asrwt>
<pdfrwt beam="1">  1       21 0.12174626E-01 0.42052804E+03</pdfrwt>
<pdfrwt beam="2">  1       21 0.78533773E-01 0.42052804E+03</pdfrwt>
<totfact> 0.76422509E+04</totfact>
</mgrwt>
</event>
<event>
 6    0  0.4725730E-002  0.4585416E+03  0.7546771E-02  0.1025205E+00
         21   -1    0    0  502  501  0.00000000000E+00  0.00000000000E+00  0.11781290051E+04  0.11781290051E+04  0.00000000000E+00 0.  1.
         21   -1    0    0  501  502 -0.00000000000E+00 -0.00000000000E+00 -0.44617430072E+02  0.44617430072E+02  0.00000000000E+00 0.  1.
      99926    2    1    2    0    0  0.14210854715E-13 -0.35527136788E-14  0.11335115750E+04  0.12227464352E+04  0.45854155101E+03 0.  0.
         25    1    3    3    0    0 -0.87416893966E+02  0.90501366328E+01  0.28602674345E+03  0.32431839971E+03  0.12509000000E+03 0.  0.
         25    1    3    3    0    0 -0.25206674256E+02  0.10703905778E+02  0.33446719992E+03  0.35814210301E+03  0.12509000000E+03 0.  0.
         25    1    3    3    0    0  0.11262356822E+03 -0.19754042411E+02  0.51301763165E+03  0.54028593244E+03  0.12509000000E+03 0.  0.
<mgrwt>
<rscale>  2 0.45854155E+03</rscale>
<asrwt>0</asrwt>
<pdfrwt beam="1">  1       21 0.17325425E+00 0.45854155E+03</pdfrwt>
<pdfrwt beam="2">  1       21 0.65613875E-02 0.45854155E+03</pdfrwt>
<totfact> 0.30590666E+04</totfact>
</mgrwt>
</event>
<event>
 7    0  0.4725730E-002  0.4448934E+03  0.7546771E-02  0.1029256E+00
         21   -1    0    0  502  501  0.00000000000E+00  0.00000000000E+00  0.12883689169E+04  0.12883689169E+04  0.00000000000E+00 0.  1.
         21   -1    0    0  501  502 -0.00000000000E+00 -0.00000000000E+00 -0.38407124128E+02  0.38407124128E+02  0.00000000000E+00 0.  1.
      99926    2    1    2    0    0  0.00000000000E+00  0.00000000000E+00  0.12499617927E+04  0.13267760410E+04  0.44489344752E+03 0.  0.
      99925    2    3    3    0    0 -0.50403544601E+02 -0.89168159655E+02  0.83898288549E+03  0.88513971062E+03  0.26284700334E+03 0.  0.
         25    1    3    3    0    0  0.50403544601E+02  0.89168159655E+02  0.41097890724E+03  0.44163633037E+03  0.12509000000E+03 0.  0.
         25    1    4    4    0    0 -0.34096644119E+02 -0.40262080503E+02  0.54276123275E+03  0.55948268976E+03  0.12509000000E+03 0.  0.
         25    1    4    4    0    0 -0.16306900482E+02 -0.48906079151E+02  0.29622165274E+03  0.32565702086E+03  0.12509000000E+03 0.  0.
<mgrwt>
<rscale>  2 0.44489345E+03</rscale>
<asrwt>0</asrwt>
<pdfrwt beam="1">  1       21 0.18946599E+00 0.44489345E+03</pdfrwt>
<pdfrwt beam="2">  1       21 0.56481073E-02 0.44489345E+03</pdfrwt>
<totfact> 0.30688662E+04</totfact>
</mgrwt>
</event>
<event>
 7    0  0.4725730E-002  0.4535118E+03  0.7546771E-02  0.1026680E+00
         21   -1    0    0  502  501  0.00000000000E+00  0.00000000000E+00  0.49140893874E+02  0.49140893874E+02  0.00000000000E+00 0.  1.
         21   -1    0    0  501  502 -0.00000000000E+00 -0.00000000000E+00 -0.10463432138E+04  0.10463432138E+04  0.00000000000E+00 0.  1.
      99926    2    1    2    0    0  0.00000000000E+00  0.71054273576E-14 -0.99720231996E+03  0.10954841077E+04  0.45351181165E+03 0.  0.
      99925    2    3    3    0    0  0.92829666213E+02 -0.59530586991E+02 -0.67405650390E+03  0.73184697504E+03  0.26284327405E+03 0.  0.
         25    1    4    4    0    0  0.13265276126E+02 -0.23142755383E+01 -0.31514432668E+03  0.33932989577E+03  0.12509000000E+03 0.  0.
         25    1    4    4    0    0  0.79564390087E+02 -0.57216311452E+02 -0.35891217722E+03  0.39251707927E+03  0.12509000000E+03 0.  0.
         25    1    3    3    0    0 -0.92829666213E+02  0.59530586991E+02 -0.32314581606E+03  0.36363713267E+03  0.12509000000E+03 0.  0.
<mgrwt>
<rscale>  2 0.45351181E+03</rscale>
<asrwt>0</asrwt>
<pdfrwt beam="1">  1       21 0.72266019E-02 0.45351181E+03</pdfrwt>
<pdfrwt beam="2">  1       21 0.15387400E+00 0.45351181E+03</pdfrwt>
<totfact> 0.36068176E+04</totfact>
</mgrwt>
</event>
<event>
 7    0  0.4725730E-002  0.4540383E+03  0.7546771E-02  0.1026525E+00
         21   -1    0    0  502  501  0.00000000000E+00  0.00000000000E+00  0.28280492816E+03  0.28280492816E+03  0.00000000000E+00 0. -1.
         21   -1    0    0  501  502 -0.00000000000E+00 -0.00000000000E+00 -0.18223760937E+03  0.18223760937E+03  0.00000000000E+00 0. -1.
      99926    2    1    2    0    0  0.00000000000E+00  0.00000000000E+00  0.10056731879E+03  0.46504253752E+03  0.45403829805E+03 0.  0.
      99925    2    3    3    0    0  0.68140071311E+02  0.26957953608E+02 -0.23301772218E+02  0.27435729849E+03  0.26336126151E+03 0.  0.
         25    1    4    4    0    0  0.10876208021E+02  0.54797079732E+01 -0.44880514481E+02  0.13345444084E+03  0.12509000000E+03 0.  0.
         25    1    3    3    0    0 -0.68140071311E+02 -0.26957953608E+02  0.12386909100E+03  0.19068523904E+03  0.12509000000E+03 0.  0.
         25    1    4    4    0    0  0.57263863290E+02  0.21478245635E+02  0.21578742263E+02  0.14090285764E+03  0.12509000000E+03 0.  0.
<mgrwt>
<rscale>  2 0.45403830E+03</rscale>
<asrwt>0</asrwt>
<pdfrwt beam="1">  1       21 0.41588960E-01 0.45403830E+03</pdfrwt>
<pdfrwt beam="2">  1       21 0.26799648E-01 0.45403830E+03</pdfrwt>
<totfact> 0.68326386E+04</totfact>
</mgrwt>
</event>
<event>
 7    0  0.4725730E-002  0.4703757E+03  0.7546771E-02  0.1021814E+00
         21   -1    0    0  502  501  0.00000000000E+00  0.00000000000E+00  0.16182219442E+04  0.16182219442E+04  0.00000000000E+00 0. -1.
         21   -1    0    0  501  502 -0.00000000000E+00 -0.00000000000E+00 -0.34181550963E+02  0.34181550963E+02  0.00000000000E+00 0. -1.
      99926    2    1    2    0    0  0.00000000000E+00  0.00000000000E+00  0.15840403933E+04  0.16524034952E+04  0.47037574706E+03 0.  0.
      99925    2    3    3    0    0 -0.98001351327E+02  0.47732573045E+02  0.12128828320E+04  0.12458470947E+04  0.26299725443E+03 0.  0.
         25    1    4    4    0    0 -0.11603632610E+02  0.16140212768E+02  0.46000074540E+03  0.47711984304E+03  0.12509000000E+03 0.  0.
         25    1    4    4    0    0 -0.86397718717E+02  0.31592360276E+02  0.75288208656E+03  0.76872725162E+03  0.12509000000E+03 0.  0.
         25    1    3    3    0    0  0.98001351327E+02 -0.47732573045E+02  0.37115756130E+03  0.40655640052E+03  0.12509000000E+03 0.  0.
<mgrwt>
<rscale>  2 0.47037575E+03</rscale>
<asrwt>0</asrwt>
<pdfrwt beam="1">  1       21 0.23797376E+00 0.47037575E+03</pdfrwt>
<pdfrwt beam="2">  1       21 0.50266997E-02 0.47037575E+03</pdfrwt>
<totfact> 0.18021729E+04</totfact>
</mgrwt>
</event>
<event>
 7    0  0.4725730E-002  0.4552426E+03  0.7546771E-02  0.1026170E+00
         21   -1    0    0  502  501  0.00000000000E+00  0.00000000000E+00  0.34351662066E+02  0.34351662066E+02  0.00000000000E+00 0. -1.
         21   -1    0    0  501  502 -0.00000000000E+00 -0.00000000000E+00 -0.15082666587E+04  0.15082666587E+04  0.00000000000E+00 0. -1.
      99926    2    1    2    0    0  0.00000000000E+00  0.00000000000E+00 -0.14739149967E+04  0.15426183208E+04  0.45524264548E+03 0.  0.
      99925    2    3    3    0    0  0.79867782046E+02 -0.76622128196E+02 -0.83738037433E+03  0.88453500794E+03  0.26257660941E+03 0.  0.
         25    1    4    4    0    0  0.55180337660E+02 -0.12295522696E+01 -0.39029745298E+03  0.41355288823E+03  0.12509000000E+03 0.  0.
         25    1    4    4    0    0  0.24687444387E+02 -0.75392575927E+02 -0.44708292136E+03  0.47098211971E+03  0.12509000000E+03 0.  0.
         25    1    3    3    0    0 -0.79867782046E+02  0.76622128196E+02 -0.63653462234E+03  0.65808331287E+03  0.12509000000E+03 0.  0.
<mgrwt>
<rscale>  2 0.45524265E+03</rscale>
<asrwt>0</asrwt>
<pdfrwt beam="1">  1       21 0.50517148E-02 0.45524265E+03</pdfrwt>
<pdfrwt beam="2">  1       21 0.22180393E+00 0.45524265E+03</pdfrwt>
<totfact> 0.22710866E+04</totfact>
</mgrwt>
</event>
<event>
 7    0  0.4725730E-002  0.4632074E+03  0.7546771E-02  0.1023855E+00
         21   -1    0    0  502  501  0.00000000000E+00  0.00000000000E+00  0.10469142060E+03  0.10469142060E+03  0.00000000000E+00 0. -1.
         21   -1    0    0  501  502 -0.00000000000E+00 -0.00000000000E+00 -0.51236555001E+03  0.51236555001E+03  0.00000000000E+00 0. -1.
      99926    2    1    2    0    0  0.00000000000E+00  0.00000000000E+00 -0.40767412941E+03  0.61705697061E+03  0.46320741487E+03 0.  0.
      99925    2    3    3    0    0 -0.87584606550E+02  0.36697418984E+02 -0.35415217715E+03  0.45113569006E+03  0.26283432502E+03 0.  0.
         25    1    4    4    0    0 -0.76702194811E+02 -0.53228338851E+01 -0.19526500011E+03  0.24431022823E+03  0.12509000000E+03 0.  0.
         25    1    4    4    0    0 -0.10882411739E+02  0.42020252869E+02 -0.15888717704E+03  0.20682546184E+03  0.12509000000E+03 0.  0.
         25    1    3    3    0    0  0.87584606550E+02 -0.36697418984E+02 -0.53521952263E+02  0.16592128055E+03  0.12509000000E+03 0.  0.
<mgrwt>
<rscale>  2 0.46320741E+03</rscale>
<asrwt>0</asrwt>
<pdfrwt beam="1">  1       21 0.15395798E-01 0.46320741E+03</pdfrwt>
<pdfrwt beam="2">  1       21 0.75347873E-01 0.46320741E+03</pdfrwt>
<totfact> 0.54050802E+04</totfact>
</mgrwt>
</event>
<event>
 7    0  0.4725730E-002  0.4487329E+03  0.7546771E-02  0.1028101E+00
         21   -1    0    0  502  501  0.00000000000E+00  0.00000000000E+00  0.10224489268E+04  0.10224489268E+04  0.00000000000E+00 0. -1.
         21   -1    0    0  501  502 -0.00000000000E+00 -0.00000000000E+00 -0.49235028832E+02  0.49235028832E+02  0.00000000000E+00 0. -1.
      99926    2    1    2    0    0  0.00000000000E+00  0.00000000000E+00  0.97321389796E+03  0.10716839556E+04  0.44873289333E+03 0.  0.
      99925    2    3    3    0    0 -0.69043711381E+02 -0.77513590312E+02  0.67947562630E+03  0.73596819623E+03  0.26303358791E+03 0.  0.
         25    1    4    4    0    0 -0.43159810359E+02 -0.59399311967E+02  0.26791486677E+03  0.30465871304E+03  0.12509000000E+03 0.  0.
         25    1    3    3    0    0  0.69043711381E+02  0.77513590312E+02  0.29373827166E+03  0.33571575939E+03  0.12509000000E+03 0.  0.
         25    1    4    4    0    0 -0.25883901021E+02 -0.18114278345E+02  0.41156075952E+03  0.43130948319E+03  0.12509000000E+03 0.  0.
<mgrwt>
<rscale>  2 0.44873289E+03</rscale>
<asrwt>0</asrwt>
<pdfrwt beam="1">  1       21 0.15036012E+00 0.44873289E+03</pdfrwt>
<pdfrwt beam="2">  1       21 0.72404461E-02 0.44873289E+03</pdfrwt>
<totfact> 0.38332270E+04</totfact>
</mgrwt>
</event>
<event>
 7    0  0.4725730E-002  0.4597017E+03  0.7546771E-02  0.1024868E+00
         21   -1    0    0  502  501  0.00000000000E+00  0.00000000000E+00  0.45171313866E+03  0.45171313866E+03  0.00000000000E+00 0.  1.
         21   -1    0    0  501  502 -0.00000000000E+00 -0.00000000000E+00 -0.11695790997E+03  0.11695790997E+03  0.00000000000E+00 0.  1.
      99926    2    1    2    0    0 -0.71054273576E-14  0.00000000000E+00  0.33475522869E+03  0.56867104863E+03  0.45970174942E+03 0.  0.
      99925    2    3    3    0    0  0.43409306362E+02  0.80376796550E+02  0.11852371927E+03  0.30268538912E+03  0.26310791598E+03 0.  0.
         25    1    4    4    0    0  0.23689448258E+01  0.48071407965E+02  0.20933847943E+02  0.13565473178E+03  0.12509000000E+03 0.  0.
         25    1    3    3    0    0 -0.43409306362E+02 -0.80376796550E+02  0.21623150942E+03  0.26598565951E+03  0.12509000000E+03 0.  0.
         25    1    4    4    0    0  0.41040361537E+02  0.32305388584E+02  0.97589871328E+02  0.16703065734E+03  0.12509000000E+03 0.  0.
<mgrwt>
<rscale>  2 0.45970175E+03</rscale>
<asrwt>0</asrwt>
<pdfrwt beam="1">  1       21 0.66428403E-01 0.45970175E+03</pdfrwt>
<pdfrwt beam="2">  1       21 0.17199693E-01 0.45970175E+03</pdfrwt>
<totfact> 0.58445660E+04</totfact>
</mgrwt>
</event>
<event>
 7    0  0.4725730E-002  0.4547247E+03  0.7546771E-02  0.1026322E+00
         21   -1    0    0  502  501  0.00000000000E+00  0.00000000000E+00  0.42285104591E+02  0.42285104591E+02  0.00000000000E+00 0. -1.
         21   -1    0    0  501  502 -0.00000000000E+00 -0.00000000000E+00 -0.12225022450E+04  0.12225022450E+04  0.00000000000E+00 0. -1.
      99926    2    1    2    0    0 -0.14210854715E-13 -0.17763568394E-14 -0.11802171404E+04  0.12647873496E+04  0.45472468722E+03 0.  0.
      99925    2    3    3    0    0 -0.10982233261E+03  0.10723302378E+02 -0.67599891914E+03  0.73369464892E+03  0.26297787969E+03 0.  0.
         25    1    4    4    0    0 -0.18261229986E+02 -0.17464265250E+02 -0.30590691670E+03  0.33145893089E+03  0.12509000000E+03 0.  0.
         25    1    4    4    0    0 -0.91561102625E+02  0.28187567628E+02 -0.37009200245E+03  0.40223571803E+03  0.12509000000E+03 0.  0.
         25    1    3    3    0    0  0.10982233261E+03 -0.10723302378E+02 -0.50421822123E+03  0.53109270064E+03  0.12509000000E+03 0.  0.
<mgrwt>
<rscale>  2 0.45472469E+03</rscale>
<asrwt>0</asrwt>
<pdfrwt beam="1">  1       21 0.62183985E-02 0.45472469E+03</pdfrwt>
<pdfrwt beam="2">  1       21 0.17977972E+00 0.45472469E+03</pdfrwt>
<totfact> 0.30219441E+04</totfact>
</mgrwt>
</event>
<event>
 7    0  0.4725730E-002  0.4526233E+03  0.7546771E-02  0.1026943E+00
         21   -1    0    0  502  501  0.00000000000E+00  0.00000000000E+00  0.66606262605E+02  0.66606262605E+02  0.00000000000E+00 0.  1.
         21   -1    0    0  501  502 -0.00000000000E+00 -0.00000000000E+00 -0.76895125283E+03  0.76895125283E+03  0.00000000000E+00 0.  1.
      99926    2    1    2    0    0  0.00000000000E+00  0.00000000000E+00 -0.70234499022E+03  0.83555751543E+03  0.45262332718E+03 0.  0.
      99925    2    3    3    0    0  0.75114063051E+02  0.77379557021E+02 -0.49141326738E+03  0.56765936667E+03  0.26290766229E+03 0.  0.
         25    1    3    3    0    0 -0.75114063051E+02 -0.77379557021E+02 -0.21093172284E+03  0.26789814877E+03  0.12509000000E+03 0.  0.
         25    1    4    4    0    0  0.10156032758E+02  0.74187157704E+01 -0.24310267076E+03  0.27368704568E+03  0.12509000000E+03 0.  0.
         25    1    4    4    0    0  0.64958030293E+02  0.69960841250E+02 -0.24831059663E+03  0.29397232099E+03  0.12509000000E+03 0.  0.
<mgrwt>
<rscale>  2 0.45262333E+03</rscale>
<asrwt>0</asrwt>
<pdfrwt beam="1">  1       21 0.97950386E-02 0.45262333E+03</pdfrwt>
<pdfrwt beam="2">  1       21 0.11308107E+00 0.45262333E+03</pdfrwt>
<totfact> 0.46962091E+04</totfact>
</mgrwt>
</event>
<event>
 7    0  0.4725730E-002  0.4543669E+03  0.7546771E-02  0.1026428E+00
         21   -1    0    0  502  501  0.00000000000E+00  0.00000000000E+00  0.20889527625E+03  0.20889527625E+03  0.00000000000E+00 0. -1.
         21   -1    0    0  501  502 -0.00000000000E+00 -0.00000000000E+00 -0.24707266342E+03  0.24707266342E+03  0.00000000000E+00 0. -1.
      99926    2    1    2    0    0  0.00000000000E+00  0.00000000000E+00 -0.38177387175E+02  0.45596793967E+03  0.45436686622E+03 0.  0.
      99925    2    3    3    0    0 -0.18690203599E+02  0.68732134747E+02  0.63472863152E+02  0.27974730652E+03  0.26297589450E+03 0.  0.
         25    1    3    3    0    0  0.18690203599E+02 -0.68732134747E+02 -0.10165025033E+03  0.17622063315E+03  0.12509000000E+03 0.  0.
         25    1    4    4    0    0 -0.47522709591E+02  0.25239368729E+02  0.42121313528E+02  0.14253822931E+03  0.12509000000E+03 0.  0.
         25    1    4    4    0    0  0.28832505992E+02  0.43492766018E+02  0.21351549623E+02  0.13720907721E+03  0.12509000000E+03 0.  0.
<mgrwt>
<rscale>  2 0.45436687E+03</rscale>
<asrwt>0</asrwt>
<pdfrwt beam="1">  1       21 0.30719894E-01 0.45436687E+03</pdfrwt>
<pdfrwt beam="2">  1       21 0.36334215E-01 0.45436687E+03</pdfrwt>
<totfact> 0.68821971E+04</totfact>
</mgrwt>
</event>
<event>
 7    0  0.4725730E-002  0.4879387E+03  0.7546771E-02  0.1016976E+00
         21   -1    0    0  502  501  0.00000000000E+00  0.00000000000E+00  0.29370092363E+04  0.29370092363E+04  0.00000000000E+00 0.  1.
         21   -1    0    0  501  502 -0.00000000000E+00 -0.00000000000E+00 -0.20265866476E+02  0.20265866476E+02  0.00000000000E+00 0.  1.
      99926    2    1    2    0    0 -0.14210854715E-13  0.00000000000E+00  0.29167433698E+04  0.29572751027E+04  0.48793867246E+03 0.  0.
      99925    2    3    3    0    0 -0.64033644165E+02  0.11087264511E+03  0.14176062175E+04  0.14474894356E+04  0.26310687460E+03 0.  0.
         25    1    3    3    0    0  0.64033644165E+02 -0.11087264511E+03  0.14991371523E+04  0.15097856671E+04  0.12509000000E+03 0.  0.
         25    1    4    4    0    0 -0.43613496421E+01  0.24474748355E+02  0.70111480365E+03  0.71262017279E+03  0.12509000000E+03 0.  0.
         25    1    4    4    0    0 -0.59672294523E+02  0.86397896754E+02  0.71649141380E+03  0.73486926283E+03  0.12509000000E+03 0.  0.
<mgrwt>
<rscale>  2 0.48793867E+03</rscale>
<asrwt>0</asrwt>
<pdfrwt beam="1">  1       21 0.43191283E+00 0.48793867E+03</pdfrwt>
<pdfrwt beam="2">  1       21 0.29802765E-02 0.48793867E+03</pdfrwt>
<totfact> 0.27246273E+03</totfact>
</mgrwt>
</event>
<event>
 7    0  0.4725730E-002  0.4676346E+03  0.7546771E-02  0.1022590E+00
         21   -1    0    0  502  501  0.00000000000E+00  0.00000000000E+00  0.67471802125E+03  0.67471802125E+03  0.00000000000E+00 0.  1.
         21   -1    0    0  501  502 -0.00000000000E+00 -0.00000000000E+00 -0.81027218674E+02  0.81027218674E+02  0.00000000000E+00 0.  1.
      99926    2    1    2    0    0  0.00000000000E+00  0.00000000000E+00  0.59369080257E+03  0.75574523992E+03  0.46763457807E+03 0.  0.
      99925    2    3    3    0    0 -0.11881190500E+03 -0.33289624269E+02  0.39779150670E+03  0.49259412349E+03  0.26303311549E+03 0.  0.
         25    1    4    4    0    0 -0.10351969616E+03 -0.13317705870E+02  0.21975338156E+03  0.27355574494E+03  0.12509000000E+03 0.  0.
         25    1    3    3    0    0  0.11881190500E+03  0.33289624269E+02  0.19589929587E+03  0.26315111643E+03  0.12509000000E+03 0.  0.
         25    1    4    4    0    0 -0.15292208840E+02 -0.19971918399E+02  0.17803812514E+03  0.21903837855E+03  0.12509000000E+03 0.  0.
<mgrwt>
<rscale>  2 0.46763458E+03</rscale>
<asrwt>0</asrwt>
<pdfrwt beam="1">  1       21 0.99223235E-01 0.46763458E+03</pdfrwt>
<pdfrwt beam="2">  1       21 0.11915768E-01 0.46763458E+03</pdfrwt>
<totfact> 0.45309561E+04</totfact>
</mgrwt>
</event>
<event>
 7    0  0.4725730E-002  0.4536836E+03  0.7546771E-02  0.1026629E+00
         21   -1    0    0  502  501  0.00000000000E+00  0.00000000000E+00  0.24254698062E+03  0.24254698062E+03  0.00000000000E+00 0. -1.
         21   -1    0    0  501  502 -0.00000000000E+00 -0.00000000000E+00 -0.21215357505E+03  0.21215357505E+03  0.00000000000E+00 0. -1.
      99926    2    1    2    0    0  0.17763568394E-14  0.00000000000E+00  0.30393405576E+02  0.45470055567E+03  0.45368363010E+03 0.  0.
      99925    2    3    3    0    0 -0.11949657962E+02  0.41466782985E+02  0.12267734961E+03  0.29337441754E+03  0.26297628855E+03 0.  0.
         25    1    4    4    0    0  0.30699461616E+02  0.29676835462E+01  0.60037708314E+02  0.14213830803E+03  0.12509000000E+03 0.  0.
         25    1    4    4    0    0 -0.42649119577E+02  0.38499099439E+02  0.62639641300E+02  0.15123610951E+03  0.12509000000E+03 0.  0.
         25    1    3    3    0    0  0.11949657962E+02 -0.41466782985E+02 -0.92283944038E+02  0.16132613813E+03  0.12509000000E+03 0.  0.
<mgrwt>
<rscale>  2 0.45368363E+03</rscale>
<asrwt>0</asrwt>
<pdfrwt beam="1">  1       21 0.35668674E-01 0.45368363E+03</pdfrwt>
<pdfrwt beam="2">  1       21 0.31199055E-01 0.45368363E+03</pdfrwt>
<totfact> 0.69292699E+04</totfact>
</mgrwt>
</event>
<event>
 7    0  0.4725730E-002  0.4529350E+03  0.7546771E-02  0.1026850E+00
         21   -1    0    0  502  501  0.00000000000E+00  0.00000000000E+00  0.13258100400E+03  0.13258100400E+03  0.00000000000E+00 0.  1.
         21   -1    0    0  501  502 -0.00000000000E+00 -0.00000000000E+00 -0.38683914997E+03  0.38683914997E+03  0.00000000000E+00 0.  1.
      99926    2    1    2    0    0  0.00000000000E+00  0.35527136788E-14 -0.25425814596E+03  0.51942015397E+03  0.45293497498E+03 0.  0.
      99925    2    3    3    0    0  0.27086379214E+02 -0.22758444614E+02 -0.28124499306E+03  0.38665187178E+03  0.26296255453E+03 0.  0.
         25    1    3    3    0    0 -0.27086379214E+02  0.22758444614E+02  0.26986847099E+02  0.13276828219E+03  0.12509000000E+03 0.  0.
         25    1    4    4    0    0 -0.84235942052E+01 -0.28465221802E+02 -0.18268119707E+03  0.22338566125E+03  0.12509000000E+03 0.  0.
         25    1    4    4    0    0  0.35509973419E+02  0.57067771885E+01 -0.98563795995E+02  0.16326621052E+03  0.12509000000E+03 0.  0.
<mgrwt>
<rscale>  2 0.45293497E+03</rscale>
<asrwt>0</asrwt>
<pdfrwt beam="1">  1       21 0.19497206E-01 0.45293497E+03</pdfrwt>
<pdfrwt beam="2">  1       21 0.56888110E-01 0.45293497E+03</pdfrwt>
<totfact> 0.64984931E+04</totfact>
</mgrwt>
</event>
<event>
 7    0  0.4725730E-002  0.4638181E+03  0.7546771E-02  0.1023680E+00
         21   -1    0    0  502  501  0.00000000000E+00  0.00000000000E+00  0.50689671510E+03  0.50689671510E+03  0.00000000000E+00 0. -1.
         21   -1    0    0  501  502 -0.00000000000E+00 -0.00000000000E+00 -0.10610014297E+03  0.10610014297E+03  0.00000000000E+00 0. -1.
      99926    2    1    2    0    0  0.00000000000E+00 -0.14210854715E-13  0.40079657213E+03  0.61299685807E+03  0.46381812790E+03 0.  0.
      99925    2    3    3    0    0  0.79713280516E+02  0.82489257729E+02  0.30225152820E+03  0.41673856266E+03  0.26297596578E+03 0.  0.
         25    1    4    4    0    0  0.86528545040E+01  0.29583052364E+02  0.10068196806E+03  0.16350656155E+03  0.12509000000E+03 0.  0.
         25    1    3    3    0    0 -0.79713280516E+02 -0.82489257729E+02  0.98545043933E+02  0.19625829540E+03  0.12509000000E+03 0.  0.
         25    1    4    4    0    0  0.71060426012E+02  0.52906205364E+02  0.20156956014E+03  0.25323200111E+03  0.12509000000E+03 0.  0.
<mgrwt>
<rscale>  2 0.46381813E+03</rscale>
<asrwt>0</asrwt>
<pdfrwt beam="1">  1       21 0.74543633E-01 0.46381813E+03</pdfrwt>
<pdfrwt beam="2">  1       21 0.15602962E-01 0.46381813E+03</pdfrwt>
<totfact> 0.54023081E+04</totfact>
</mgrwt>
</event>
<event>
 7    0  0.4725730E-002  0.4577356E+03  0.7546771E-02  0.1025440E+00
         21   -1    0    0  502  501  0.00000000000E+00  0.00000000000E+00  0.33138888319E+03  0.33138888319E+03  0.00000000000E+00 0. -1.
         21   -1    0    0  501  502 -0.00000000000E+00 -0.00000000000E+00 -0.15806344787E+03  0.15806344787E+03  0.00000000000E+00 0. -1.
      99926    2    1    2    0    0  0.00000000000E+00  0.00000000000E+00  0.17332543532E+03  0.48945233106E+03  0.45773559819E+03 0.  0.
      99925    2    3    3    0    0  0.12004408058E+02 -0.31609773460E+02  0.22715040993E+03  0.34913868388E+03  0.26297761932E+03 0.  0.
         25    1    4    4    0    0  0.46560871123E+02 -0.15818073194E+02  0.11460503233E+03  0.17663506927E+03  0.12509000000E+03 0.  0.
         25    1    4    4    0    0 -0.34556463065E+02 -0.15791700266E+02  0.11254537760E+03  0.17250361462E+03  0.12509000000E+03 0.  0.
         25    1    3    3    0    0 -0.12004408058E+02  0.31609773460E+02 -0.53824974608E+02  0.14031364717E+03  0.12509000000E+03 0.  0.
<mgrwt>
<rscale>  2 0.45773560E+03</rscale>
<asrwt>0</asrwt>
<pdfrwt beam="1">  1       21 0.48733659E-01 0.45773560E+03</pdfrwt>
<pdfrwt beam="2">  1       21 0.23244625E-01 0.45773560E+03</pdfrwt>
<totfact> 0.64603782E+04</totfact>
</mgrwt>
</event>
<event>
 7    0  0.4725730E-002  0.4540342E+03  0.7546771E-02  0.1026526E+00
         21   -1    0    0  502  501  0.00000000000E+00  0.00000000000E+00  0.37148726810E+03  0.37148726810E+03  0.00000000000E+00 0.  1.
         21   -1    0    0  501  502 -0.00000000000E+00 -0.00000000000E+00 -0.13873093149E+03  0.13873093149E+03  0.00000000000E+00 0.  1.
      99926    2    1    2    0    0  0.00000000000E+00 -0.14210854715E-13  0.23275633660E+03  0.51021819959E+03  0.45403424867E+03 0.  0.
      99925    2    3    3    0    0 -0.76936623878E+02  0.81862084368E+02  0.14305068241E+03  0.31965257455E+03  0.26285666385E+03 0.  0.
         25    1    3    3    0    0  0.76936623878E+02 -0.81862084368E+02  0.89705654196E+02  0.19056562504E+03  0.12509000000E+03 0.  0.
         25    1    4    4    0    0 -0.31628703097E+02  0.89228678309E-01  0.75610657045E+02  0.14954886285E+03  0.12509000000E+03 0.  0.
         25    1    4    4    0    0 -0.45307920781E+02  0.81772855690E+02  0.67440025362E+02  0.17010371170E+03  0.12509000000E+03 0.  0.
<mgrwt>
<rscale>  2 0.45403425E+03</rscale>
<asrwt>0</asrwt>
<pdfrwt beam="1">  1       21 0.54630480E-01 0.45403425E+03</pdfrwt>
<pdfrwt beam="2">  1       21 0.20401608E-01 0.45403425E+03</pdfrwt>
<totfact> 0.65055779E+04</totfact>
</mgrwt>
</event>
<event>
 7    0  0.4725730E-002  0.4539676E+03  0.7546771E-02  0.1026545E+00
         21   -1    0    0  502  501  0.00000000000E+00  0.00000000000E+00  0.44140354557E+02  0.44140354557E+02  0.00000000000E+00 0.  1.
         21   -1    0    0  501  502 -0.00000000000E+00 -0.00000000000E+00 -0.11672231186E+04  0.11672231186E+04  0.00000000000E+00 0.  1.
      99926    2    1    2    0    0 -0.14210854715E-13  0.00000000000E+00 -0.11230827641E+04  0.12113634732E+04  0.45396758608E+03 0.  0.
      99925    2    3    3    0    0  0.98299665024E+02 -0.48932122708E+02 -0.65779556944E+03  0.71720068790E+03  0.26386481154E+03 0.  0.
         25    1    4    4    0    0  0.91502339635E+02 -0.30392502068E+02 -0.39772690499E+03  0.42793759053E+03  0.12509000000E+03 0.  0.
         25    1    4    4    0    0  0.67973253891E+01 -0.18539620640E+02 -0.26006866446E+03  0.28926309737E+03  0.12509000000E+03 0.  0.
         25    1    3    3    0    0 -0.98299665024E+02  0.48932122708E+02 -0.46528719462E+03  0.49416278528E+03  0.12509000000E+03 0.  0.
<mgrwt>
<rscale>  2 0.45396759E+03</rscale>
<asrwt>0</asrwt>
<pdfrwt beam="1">  1       21 0.64912285E-02 0.45396759E+03</pdfrwt>
<pdfrwt beam="2">  1       21 0.17165046E+00 0.45396759E+03</pdfrwt>
<totfact> 0.32054848E+04</totfact>
</mgrwt>
</event>
<event>
 7    0  0.4725730E-002  0.4644660E+03  0.7546771E-02  0.1023494E+00
         21   -1    0    0  502  501  0.00000000000E+00  0.00000000000E+00  0.10617922973E+04  0.10617922973E+04  0.00000000000E+00 0.  1.
         21   -1    0    0  501  502 -0.00000000000E+00 -0.00000000000E+00 -0.50793515361E+02  0.50793515361E+02  0.00000000000E+00 0.  1.
      99926    2    1    2    0    0  0.14210854715E-13  0.00000000000E+00  0.10109987820E+04  0.11125858127E+04  0.46446598741E+03 0.  0.
      99925    2    3    3    0    0  0.71349752366E+02  0.64732920419E+02  0.45244541831E+03  0.53214588789E+03  0.26304229945E+03 0.  0.
         25    1    4    4    0    0  0.55172408619E+02  0.32574905106E+01  0.18417483974E+03  0.22939591455E+03  0.12509000000E+03 0.  0.
         25    1    4    4    0    0  0.16177343746E+02  0.61475429908E+02  0.26827057857E+03  0.30274997334E+03  0.12509000000E+03 0.  0.
         25    1    3    3    0    0 -0.71349752366E+02 -0.64732920419E+02  0.55855336365E+03  0.58043992479E+03  0.12509000000E+03 0.  0.
<mgrwt>
<rscale>  2 0.46446599E+03</rscale>
<asrwt>0</asrwt>
<pdfrwt beam="1">  1       21 0.15614591E+00 0.46446599E+03</pdfrwt>
<pdfrwt beam="2">  1       21 0.74696353E-02 0.46446599E+03</pdfrwt>
<totfact> 0.32584180E+04</totfact>
</mgrwt>
</event>
<event>
 7    0  0.4725730E-002  0.4534223E+03  0.7546771E-02  0.1026706E+00
         21   -1    0    0  502  501  0.00000000000E+00  0.00000000000E+00  0.26118010872E+04  0.26118010872E+04  0.00000000000E+00 0.  1.
         21   -1    0    0  501  502 -0.00000000000E+00 -0.00000000000E+00 -0.19679118021E+02  0.19679118021E+02  0.00000000000E+00 0.  1.
      99926    2    1    2    0    0  0.00000000000E+00  0.00000000000E+00  0.25921219692E+04  0.26314802052E+04  0.45342228372E+03 0.  0.
      99925    2    3    3    0    0 -0.17690703269E+02  0.78442885710E+02  0.11841733162E+04  0.12157001500E+04  0.26304783701E+03 0.  0.
         25    1    3    3    0    0  0.17690703269E+02 -0.78442885710E+02  0.14079486529E+04  0.14157800552E+04  0.12509000000E+03 0.  0.
         25    1    4    4    0    0 -0.37725457781E+02  0.15418288327E+02  0.49760768032E+03  0.51470559098E+03  0.12509000000E+03 0.  0.
         25    1    4    4    0    0  0.20034754511E+02  0.63024597383E+02  0.68656563590E+03  0.70099455901E+03  0.12509000000E+03 0.  0.
<mgrwt>
<rscale>  2 0.45342228E+03</rscale>
<asrwt>0</asrwt>
<pdfrwt beam="1">  1       21 0.38408816E+00 0.45342228E+03</pdfrwt>
<pdfrwt beam="2">  1       21 0.28939897E-02 0.45342228E+03</pdfrwt>
<totfact> 0.59506507E+03</totfact>
</mgrwt>
</event>
<event>
 7    0  0.4725730E-002  0.4521054E+03  0.7546771E-02  0.1027096E+00
         21   -1    0    0  502  501  0.00000000000E+00  0.00000000000E+00  0.10044082360E+03  0.10044082360E+03  0.00000000000E+00 0. -1.
         21   -1    0    0  501  502 -0.00000000000E+00 -0.00000000000E+00 -0.50875550152E+03  0.50875550152E+03  0.00000000000E+00 0. -1.
      99926    2    1    2    0    0  0.35527136788E-14 -0.14210854715E-13 -0.40831467792E+03  0.60919632512E+03  0.45210539295E+03 0.  0.
      99925    2    3    3    0    0 -0.29687437206E+02  0.89842411832E+02 -0.18089572898E+03  0.33293577902E+03  0.26300183517E+03 0.  0.
         25    1    4    4    0    0 -0.36927740548E+02  0.78550297989E+02 -0.11578313635E+03  0.19127741660E+03  0.12509000000E+03 0.  0.
         25    1    3    3    0    0  0.29687437206E+02 -0.89842411832E+02 -0.22741894894E+03  0.27626054610E+03  0.12509000000E+03 0.  0.
         25    1    4    4    0    0  0.72403033422E+01  0.11292113843E+02 -0.65112592626E+02  0.14165836243E+03  0.12509000000E+03 0.  0.
<mgrwt>
<rscale>  2 0.45210539E+03</rscale>
<asrwt>0</asrwt>
<pdfrwt beam="1">  1       21 0.14770710E-01 0.45210539E+03</pdfrwt>
<pdfrwt beam="2">  1       21 0.74816984E-01 0.45210539E+03</pdfrwt>
<totfact> 0.59463742E+04</totfact>
</mgrwt>
</event>
<event>
 7    0  0.4725730E-002  0.4341869E+03  0.7546771E-02  0.1032545E+00
         21   -1    0    0  502  501  0.00000000000E+00  0.00000000000E+00  0.49339145024E+03  0.49339145024E+03  0.00000000000E+00 0.  1.
         21   -1    0    0  501  502 -0.00000000000E+00 -0.00000000000E+00 -0.95521669451E+02  0.95521669451E+02  0.00000000000E+00 0.  1.
      99926    2    1    2    0    0 -0.14210854715E-13  0.35527136788E-14  0.39786978079E+03  0.58891311969E+03  0.43418694140E+03 0.  0.
      99925    2    3    3    0    0 -0.81543381224E+02  0.19153776174E+02  0.30784819340E+03  0.41350620860E+03  0.26306022924E+03 0.  0.
         25    1    4    4    0    0 -0.74746249832E+02 -0.52406196336E+01  0.19238501702E+03  0.24140001830E+03  0.12509000000E+03 0.  0.
         25    1    3    3    0    0  0.81543381224E+02 -0.19153776174E+02  0.90021587394E+02  0.17540691110E+03  0.12509000000E+03 0.  0.
         25    1    4    4    0    0 -0.67971313920E+01  0.24394395808E+02  0.11546317637E+03  0.17210619030E+03  0.12509000000E+03 0.  0.
<mgrwt>
<rscale>  2 0.43418694E+03</rscale>
<asrwt>0</asrwt>
<pdfrwt beam="1">  1       21 0.72557565E-01 0.43418694E+03</pdfrwt>
<pdfrwt beam="2">  1       21 0.14047305E-01 0.43418694E+03</pdfrwt>
<totfact> 0.70223467E+04</totfact>
</mgrwt>
</event>
<event>
 7    0  0.4725730E-002  0.4521248E+03  0.7546771E-02  0.1027090E+00
         21   -1    0    0  502  501  0.00000000000E+00  0.00000000000E+00  0.39965017996E+03  0.39965017996E+03  0.00000000000E+00 0. -1.
         21   -1    0    0  501  502 -0.00000000000E+00 -0.00000000000E+00 -0.12787233358E+03  0.12787233358E+03  0.00000000000E+00 0. -1.
      99926    2    1    2    0    0 -0.14210854715E-13  0.00000000000E+00  0.27177784638E+03  0.52752251354E+03  0.45212476653E+03 0.  0.
      99925    2    3    3    0    0 -0.72812870697E+02 -0.48189617616E+02  0.25267711072E+03  0.37378149888E+03  0.26123348415E+03 0.  0.
         25    1    3    3    0    0  0.72812870697E+02  0.48189617616E+02  0.19100735657E+02  0.15374101466E+03  0.12509000000E+03 0.  0.
         25    1    4    4    0    0 -0.62411215078E+02 -0.12414869996E+02  0.96874381780E+02  0.17053282004E+03  0.12509000000E+03 0.  0.
         25    1    4    4    0    0 -0.10401655620E+02 -0.35774747620E+02  0.15580272894E+03  0.20324867885E+03  0.12509000000E+03 0.  0.
<mgrwt>
<rscale>  2 0.45212477E+03</rscale>
<asrwt>0</asrwt>
<pdfrwt beam="1">  1       21 0.58772085E-01 0.45212477E+03</pdfrwt>
<pdfrwt beam="2">  1       21 0.18804755E-01 0.45212477E+03</pdfrwt>
<totfact> 0.64839676E+04</totfact>
</mgrwt>
</event>
<event>
 7    0  0.4725730E-002  0.4572269E+03  0.7546771E-02  0.1025589E+00
         21   -1    0    0  502  501  0.00000000000E+00  0.00000000000E+00  0.20283696452E+02  0.20283696452E+02  0.00000000000E+00 0.  1.
         21   -1    0    0  501  502 -0.00000000000E+00 -0.00000000000E+00 -0.25766563451E+04  0.25766563451E+04  0.00000000000E+00 0.  1.
      99926    2    1    2    0    0  0.00000000000E+00  0.71054273576E-14 -0.25563726486E+04  0.25969400415E+04  0.45722692468E+03 0.  0.
      99925    2    3    3    0    0 -0.33693687185E+02 -0.55676538666E+02 -0.10671067543E+04  0.11010137219E+04  0.26320951603E+03 0.  0.
         25    1    3    3    0    0  0.33693687185E+02  0.55676538666E+02 -0.14892658944E+04  0.14959263196E+04  0.12509000000E+03 0.  0.
         25    1    4    4    0    0 -0.55584953454E+02 -0.32867055311E+02 -0.50199882321E+03  0.52136384318E+03  0.12509000000E+03 0.  0.
         25    1    4    4    0    0  0.21891266269E+02 -0.22809483356E+02 -0.56510793108E+03  0.57964987875E+03  0.12509000000E+03 0.  0.
<mgrwt>
<rscale>  2 0.45722692E+03</rscale>
<asrwt>0</asrwt>
<pdfrwt beam="1">  1       21 0.29828969E-02 0.45722692E+03</pdfrwt>
<pdfrwt beam="2">  1       21 0.37892001E+00 0.45722692E+03</pdfrwt>
<totfact> 0.60839711E+03</totfact>
</mgrwt>
</event>
<event>
 6    0  0.4725730E-002  0.4682926E+03  0.7546771E-02  0.1022403E+00
         21   -1    0    0  502  501  0.00000000000E+00  0.00000000000E+00  0.84016680792E+02  0.84016680792E+02  0.00000000000E+00 0.  1.
         21   -1    0    0  501  502 -0.00000000000E+00 -0.00000000000E+00 -0.65254304186E+03  0.65254304186E+03  0.00000000000E+00 0.  1.
      99926    2    1    2    0    0  0.14210854715E-13 -0.14210854715E-13 -0.56852636107E+03  0.73655972265E+03  0.46829264547E+03 0.  0.
         25    1    3    3    0    0 -0.73177622370E+02  0.41745162540E+02 -0.13224245799E+03  0.20058214977E+03  0.12509000000E+03 0.  0.
         25    1    3    3    0    0 -0.74654845571E+00  0.54072986208E+02 -0.21310981206E+03  0.25295799111E+03  0.12509000000E+03 0.  0.
         25    1    3    3    0    0  0.73924170826E+02 -0.95818148748E+02 -0.22317409102E+03  0.28301958177E+03  0.12509000000E+03 0.  0.
<mgrwt>
<rscale>  2 0.46829265E+03</rscale>
<asrwt>0</asrwt>
<pdfrwt beam="1">  1       21 0.12355394E-01 0.46829265E+03</pdfrwt>
<pdfrwt beam="2">  1       21 0.95962212E-01 0.46829265E+03</pdfrwt>
<totfact> 0.45966742E+04</totfact>
</mgrwt>
</event>
<event>
 7    0  0.4725730E-002  0.4496930E+03  0.7546771E-02  0.1027814E+00
         21   -1    0    0  502  501  0.00000000000E+00  0.00000000000E+00  0.18656386088E+03  0.18656386088E+03  0.00000000000E+00 0.  1.
         21   -1    0    0  501  502 -0.00000000000E+00 -0.00000000000E+00 -0.27098471310E+03  0.27098471310E+03  0.00000000000E+00 0.  1.
      99926    2    1    2    0    0 -0.35527136788E-14  0.00000000000E+00 -0.84420852216E+02  0.45754857398E+03  0.44969302559E+03 0.  0.
      99925    2    3    3    0    0  0.23018961810E+02  0.67023478016E+02  0.29606951168E+02  0.27404961689E+03  0.26306767523E+03 0.  0.
         25    1    4    4    0    0  0.39349549103E+02  0.64643815857E+02  0.12777161252E+02  0.14675821576E+03  0.12509000000E+03 0.  0.
         25    1    4    4    0    0 -0.16330587293E+02  0.23796621585E+01  0.16829789915E+02  0.12729140113E+03  0.12509000000E+03 0.  0.
         25    1    3    3    0    0 -0.23018961810E+02 -0.67023478016E+02 -0.11402780338E+03  0.18349895709E+03  0.12509000000E+03 0.  0.
<mgrwt>
<rscale>  2 0.44969303E+03</rscale>
<asrwt>0</asrwt>
<pdfrwt beam="1">  1       21 0.27435862E-01 0.44969303E+03</pdfrwt>
<pdfrwt beam="2">  1       21 0.39850693E-01 0.44969303E+03</pdfrwt>
<totfact> 0.71328877E+04</totfact>
</mgrwt>
</event>
<event>
 7    0  0.4725730E-002  0.4442048E+03  0.7546771E-02  0.1029464E+00
         21   -1    0    0  502  501  0.00000000000E+00  0.00000000000E+00  0.11266232616E+03  0.11266232616E+03  0.00000000000E+00 0. -1.
         21   -1    0    0  501  502 -0.00000000000E+00 -0.00000000000E+00 -0.43785244172E+03  0.43785244172E+03  0.00000000000E+00 0. -1.
      99926    2    1    2    0    0  0.14210854715E-13  0.00000000000E+00 -0.32519011556E+03  0.55051476788E+03  0.44420479331E+03 0.  0.
      99925    2    3    3    0    0 -0.64200382492E+02  0.74635014607E+02 -0.17057276278E+03  0.32860012574E+03  0.26304163304E+03 0.  0.
         25    1    4    4    0    0 -0.70970276183E+02  0.39821830330E+02 -0.10860796318E+03  0.18456910911E+03  0.12509000000E+03 0.  0.
         25    1    4    4    0    0  0.67698936909E+01  0.34813184277E+02 -0.61964799597E+02  0.14403101662E+03  0.12509000000E+03 0.  0.
         25    1    3    3    0    0  0.64200382492E+02 -0.74635014607E+02 -0.15461735277E+03  0.22191464214E+03  0.12509000000E+03 0.  0.
<mgrwt>
<rscale>  2 0.44420479E+03</rscale>
<asrwt>0</asrwt>
<pdfrwt beam="1">  1       21 0.16567989E-01 0.44420479E+03</pdfrwt>
<pdfrwt beam="2">  1       21 0.64390065E-01 0.44420479E+03</pdfrwt>
<totfact> 0.67407838E+04</totfact>
</mgrwt>
</event>
<event>
 7    0  0.4725730E-002  0.4203474E+03  0.7546771E-02  0.1036953E+00
         21   -1    0    0  502  501  0.00000000000E+00  0.00000000000E+00  0.93402030130E+03  0.93402030130E+03  0.00000000000E+00 0.  1.
         21   -1    0    0  501  502 -0.00000000000E+00 -0.00000000000E+00 -0.47293385066E+02  0.47293385066E+02  0.00000000000E+00 0.  1.
      99926    2    1    2    0    0 -0.35527136788E-14  0.00000000000E+00  0.88672691624E+03  0.98131368637E+03  0.42034738857E+03 0.  0.
      99925    2    3    3    0    0  0.18452977004E+02 -0.73603162977E+02  0.55986991260E+03  0.62320623478E+03  0.26300903800E+03 0.  0.
         25    1    3    3    0    0 -0.18452977004E+02  0.73603162977E+02  0.32685700364E+03  0.35810745159E+03  0.12509000000E+03 0.  0.
         25    1    4    4    0    0  0.42677537704E+01 -0.65351006398E+01  0.32607038748E+03  0.34932839414E+03  0.12509000000E+03 0.  0.
         25    1    4    4    0    0  0.14185223234E+02 -0.67068062337E+02  0.23379952512E+03  0.27387784064E+03  0.12509000000E+03 0.  0.
<mgrwt>
<rscale>  2 0.42034739E+03</rscale>
<asrwt>0</asrwt>
<pdfrwt beam="1">  1       21 0.13735592E+00 0.42034739E+03</pdfrwt>
<pdfrwt beam="2">  1       21 0.69549101E-02 0.42034739E+03</pdfrwt>
<totfact> 0.52813958E+04</totfact>
</mgrwt>
</event>
<event>
 7    0  0.4725730E-002  0.4578384E+03  0.7546771E-02  0.1025410E+00
         21   -1    0    0  502  501  0.00000000000E+00  0.00000000000E+00  0.12282623328E+04  0.12282623328E+04  0.00000000000E+00 0. -1.
         21   -1    0    0  501  502 -0.00000000000E+00 -0.00000000000E+00 -0.42665144082E+02  0.42665144082E+02  0.00000000000E+00 0. -1.
      99926    2    1    2    0    0  0.00000000000E+00  0.00000000000E+00  0.11855971888E+04  0.12709274769E+04  0.45783835314E+03 0.  0.
      99925    2    3    3    0    0 -0.96846703827E+02  0.55331930621E+02  0.83093745963E+03  0.87866233935E+03  0.26296299776E+03 0.  0.
         25    1    4    4    0    0 -0.39576680421E+02  0.31893847941E+02  0.28807783341E+03  0.31815071487E+03  0.12509000000E+03 0.  0.
         25    1    3    3    0    0  0.96846703827E+02 -0.55331930621E+02  0.35465972913E+03  0.39226513757E+03  0.12509000000E+03 0.  0.
         25    1    4    4    0    0 -0.57270023406E+02  0.23438082680E+02  0.54285962621E+03  0.56051162447E+03  0.12509000000E+03 0.  0.
<mgrwt>
<rscale>  2 0.45783835E+03</rscale>
<asrwt>0</asrwt>
<pdfrwt beam="1">  1       21 0.18062679E+00 0.45783835E+03</pdfrwt>
<pdfrwt beam="2">  1       21 0.62742867E-02 0.45783835E+03</pdfrwt>
<totfact> 0.29317848E+04</totfact>
</mgrwt>
</event>
<event>
 7    0  0.4725730E-002  0.4567774E+03  0.7546771E-02  0.1025720E+00
         21   -1    0    0  502  501  0.00000000000E+00  0.00000000000E+00  0.23549530668E+03  0.23549530668E+03  0.00000000000E+00 0. -1.
         21   -1    0    0  501  502 -0.00000000000E+00 -0.00000000000E+00 -0.22149651485E+03  0.22149651485E+03  0.00000000000E+00 0. -1.
      99926    2    1    2    0    0  0.00000000000E+00  0.00000000000E+00  0.13998791828E+02  0.45699182152E+03  0.45677736236E+03 0.  0.
      99925    2    3    3    0    0 -0.41121696976E+02  0.85747608823E+02 -0.55609115102E+02  0.28513020513E+03  0.26298899942E+03 0.  0.
         25    1    4    4    0    0 -0.38833656278E+02  0.61191187594E+01 -0.31879629135E+02  0.13494189612E+03  0.12509000000E+03 0.  0.
         25    1    3    3    0    0  0.41121696976E+02 -0.85747608823E+02  0.69607906930E+02  0.17186161639E+03  0.12509000000E+03 0.  0.
         25    1    4    4    0    0 -0.22880406989E+01  0.79628490064E+02 -0.23729485966E+02  0.15018830901E+03  0.12509000000E+03 0.  0.
<mgrwt>
<rscale>  2 0.45677736E+03</rscale>
<asrwt>0</asrwt>
<pdfrwt beam="1">  1       21 0.34631663E-01 0.45677736E+03</pdfrwt>
<pdfrwt beam="2">  1       21 0.32573017E-01 0.45677736E+03</pdfrwt>
<totfact> 0.67438666E+04</totfact>
</mgrwt>
</event>
<event>
 7    0  0.4725730E-002  0.4541406E+03  0.7546771E-02  0.1026494E+00
         21   -1    0    0  502  501  0.00000000000E+00  0.00000000000E+00  0.15808890580E+03  0.15808890580E+03  0.00000000000E+00 0. -1.
         21   -1    0    0  501  502 -0.00000000000E+00 -0.00000000000E+00 -0.32615138293E+03  0.32615138293E+03  0.00000000000E+00 0. -1.
      99926    2    1    2    0    0  0.71054273576E-14  0.14210854715E-13 -0.16806247714E+03  0.48424028873E+03  0.45414057407E+03 0.  0.
      99925    2    3    3    0    0 -0.53073744210E+02 -0.89323839868E+02 -0.60200533916E+02  0.28910628968E+03  0.26298815896E+03 0.  0.
         25    1    3    3    0    0  0.53073744210E+02  0.89323839868E+02 -0.10786194322E+03  0.19513399906E+03  0.12509000000E+03 0.  0.
         25    1    4    4    0    0 -0.62725882699E+02 -0.63008854148E+02 -0.20035340547E+02  0.15476942538E+03  0.12509000000E+03 0.  0.
         25    1    4    4    0    0  0.96521384891E+01 -0.26314985720E+02 -0.40165193369E+02  0.13433686430E+03  0.12509000000E+03 0.  0.
<mgrwt>
<rscale>  2 0.45414057E+03</rscale>
<asrwt>0</asrwt>
<pdfrwt beam="1">  1       21 0.23248369E-01 0.45414057E+03</pdfrwt>
<pdfrwt beam="2">  1       21 0.47963438E-01 0.45414057E+03</pdfrwt>
<totfact> 0.66847613E+04</totfact>
</mgrwt>
</event>
<event>
 7    0  0.4725730E-002  0.4521348E+03  0.7546771E-02  0.1027087E+00
         21   -1    0    0  502  501  0.00000000000E+00  0.00000000000E+00  0.71283141318E+03  0.71283141318E+03  0.00000000000E+00 0. -1.
         21   -1    0    0  501  502 -0.00000000000E+00 -0.00000000000E+00 -0.71695033569E+02  0.71695033569E+02  0.00000000000E+00 0. -1.
      99926    2    1    2    0    0  0.71054273576E-14  0.00000000000E+00  0.64113637961E+03  0.78452644675E+03  0.45213481218E+03 0.  0.
      99925    2    3    3    0    0  0.40449887014E+02 -0.10057641733E+03  0.36246973015E+03  0.46040545283E+03  0.26236818906E+03 0.  0.
         25    1    4    4    0    0  0.57573816586E+02 -0.66390412013E+02  0.18656132880E+03  0.24119508425E+03  0.12509000000E+03 0.  0.
         25    1    3    3    0    0 -0.40449887014E+02  0.10057641733E+03  0.27866664945E+03  0.32412099392E+03  0.12509000000E+03 0.  0.
         25    1    4    4    0    0 -0.17123929572E+02 -0.34186005317E+02  0.17590840135E+03  0.21921036857E+03  0.12509000000E+03 0.  0.
<mgrwt>
<rscale>  2 0.45213481E+03</rscale>
<asrwt>0</asrwt>
<pdfrwt beam="1">  1       21 0.10482815E+00 0.45213481E+03</pdfrwt>
<pdfrwt beam="2">  1       21 0.10543388E-01 0.45213481E+03</pdfrwt>
<totfact> 0.49629096E+04</totfact>
</mgrwt>
</event>
<event>
 7    0  0.4725730E-002  0.4531020E+03  0.7546771E-02  0.1026801E+00
         21   -1    0    0  502  501  0.00000000000E+00  0.00000000000E+00  0.43691027865E+03  0.43691027865E+03  0.00000000000E+00 0. -1.
         21   -1    0    0  501  502 -0.00000000000E+00 -0.00000000000E+00 -0.11747343549E+03  0.11747343549E+03  0.00000000000E+00 0. -1.
      99926    2    1    2    0    0 -0.14210854715E-13  0.35527136788E-14  0.31943684316E+03  0.55438371414E+03  0.45310198160E+03 0.  0.
      99925    2    3    3    0    0  0.99596734381E+02 -0.26523075399E+02  0.14959454910E+03  0.31961383536E+03  0.26296671197E+03 0.  0.
         25    1    4    4    0    0  0.74652235365E+02  0.18774670347E+02  0.83987717582E+02  0.16919482645E+03  0.12509000000E+03 0.  0.
         25    1    3    3    0    0 -0.99596734381E+02  0.26523075399E+02  0.16984229406E+03  0.23476987877E+03  0.12509000000E+03 0.  0.
         25    1    4    4    0    0  0.24944499015E+02 -0.45297745746E+02  0.65606831521E+02  0.15041900892E+03  0.12509000000E+03 0.  0.
<mgrwt>
<rscale>  2 0.45310198E+03</rscale>
<asrwt>0</asrwt>
<pdfrwt beam="1">  1       21 0.64251511E-01 0.45310198E+03</pdfrwt>
<pdfrwt beam="2">  1       21 0.17275505E-01 0.45310198E+03</pdfrwt>
<totfact> 0.62511101E+04</totfact>
</mgrwt>
</event>
<event>
 7    0  0.4725730E-002  0.4562531E+03  0.7546771E-02  0.1025874E+00
         21   -1    0    0  502  501  0.00000000000E+00  0.00000000000E+00  0.42796812946E+02  0.42796812946E+02  0.00000000000E+00 0.  1.
         21   -1    0    0  501  502 -0.00000000000E+00 -0.00000000000E+00 -0.12160184893E+04  0.12160184893E+04  0.00000000000E+00 0.  1.
      99926    2    1    2    0    0  0.00000000000E+00  0.00000000000E+00 -0.11732216764E+04  0.12588153023E+04  0.45625306936E+03 0.  0.
      99925    2    3    3    0    0  0.14422731330E+02 -0.10933550546E+03 -0.82155631017E+03  0.86961316221E+03  0.26288783385E+03 0.  0.
         25    1    4    4    0    0  0.62589363911E+01 -0.96264149970E+02 -0.41903093970E+03  0.44781737057E+03  0.12509000000E+03 0.  0.
         25    1    3    3    0    0 -0.14422731330E+02  0.10933550546E+03 -0.35166536620E+03  0.38920214005E+03  0.12509000000E+03 0.  0.
         25    1    4    4    0    0  0.81637949386E+01 -0.13071355485E+02 -0.40252537046E+03  0.42179579164E+03  0.12509000000E+03 0.  0.
<mgrwt>
<rscale>  2 0.45625307E+03</rscale>
<asrwt>0</asrwt>
<pdfrwt beam="1">  1       21 0.62936487E-02 0.45625307E+03</pdfrwt>
<pdfrwt beam="2">  1       21 0.17882626E+00 0.45625307E+03</pdfrwt>
<totfact> 0.30040543E+04</totfact>
</mgrwt>
</event>
<event>
 7    0  0.4725730E-002  0.4440838E+03  0.7546771E-02  0.1029501E+00
         21   -1    0    0  502  501  0.00000000000E+00  0.00000000000E+00  0.76347589872E+02  0.76347589872E+02  0.00000000000E+00 0.  1.
         21   -1    0    0  501  502 -0.00000000000E+00 -0.00000000000E+00 -0.64576505199E+03  0.64576505199E+03  0.00000000000E+00 0.  1.
      99926    2    1    2    0    0  0.00000000000E+00  0.00000000000E+00 -0.56941746211E+03  0.72211264186E+03  0.44408379994E+03 0.  0.
      99925    2    3    3    0    0  0.51544644934E+02 -0.82853436091E+02 -0.41347541684E+03  0.49965596770E+03  0.26300688856E+03 0.  0.
         25    1    4    4    0    0  0.31691878721E+02 -0.14400480439E+02 -0.14232438831E+03  0.19265380511E+03  0.12509000000E+03 0.  0.
         25    1    4    4    0    0  0.19852766213E+02 -0.68452955653E+02 -0.27115102853E+03  0.30700216259E+03  0.12509000000E+03 0.  0.
         25    1    3    3    0    0 -0.51544644934E+02  0.82853436091E+02 -0.15594204527E+03  0.22245667416E+03  0.12509000000E+03 0.  0.
<mgrwt>
<rscale>  2 0.44408380E+03</rscale>
<asrwt>0</asrwt>
<pdfrwt beam="1">  1       21 0.11227587E-01 0.44408380E+03</pdfrwt>
<pdfrwt beam="2">  1       21 0.94965449E-01 0.44408380E+03</pdfrwt>
<totfact> 0.56408032E+04</totfact>
</mgrwt>
</event>
<event>
 7    0  0.4725730E-002  0.4605647E+03  0.7546771E-02  0.1024618E+00
         21   -1    0    0  502  501  0.00000000000E+00  0.00000000000E+00  0.61261754966E+02  0.61261754966E+02  0.00000000000E+00 0.  1.
         21   -1    0    0  501  502 -0.00000000000E+00 -0.00000000000E+00 -0.86562933456E+03  0.86562933456E+03  0.00000000000E+00 0.  1.
      99926    2    1    2    0    0 -0.35527136788E-14  0.00000000000E+00 -0.80436757959E+03  0.92689108952E+03  0.46056474978E+03 0.  0.
      99925    2    3    3    0    0  0.17612561272E+02 -0.58133090804E+02 -0.29964920506E+03  0.40336668298E+03  0.26310715741E+03 0.  0.
         25    1    4    4    0    0 -0.23655506109E+02 -0.32172552283E+02 -0.18473173580E+03  0.22664504936E+03  0.12509000000E+03 0.  0.
         25    1    4    4    0    0  0.41268067381E+02 -0.25960538520E+02 -0.11491746926E+03  0.17672163362E+03  0.12509000000E+03 0.  0.
         25    1    3    3    0    0 -0.17612561272E+02  0.58133090804E+02 -0.50471837453E+03  0.52352440655E+03  0.12509000000E+03 0.  0.
<mgrwt>
<rscale>  2 0.46056475E+03</rscale>
<asrwt>0</asrwt>
<pdfrwt beam="1">  1       21 0.90090814E-02 0.46056475E+03</pdfrwt>
<pdfrwt beam="2">  1       21 0.12729843E+00 0.46056475E+03</pdfrwt>
<totfact> 0.40307241E+04</totfact>
</mgrwt>
</event>
<event>
 7    0  0.4725730E-002  0.4533165E+03  0.7546771E-02  0.1026738E+00
         21   -1    0    0  502  501  0.00000000000E+00  0.00000000000E+00  0.27227243545E+03  0.27227243545E+03  0.00000000000E+00 0.  1.
         21   -1    0    0  501  502 -0.00000000000E+00 -0.00000000000E+00 -0.18868588502E+03  0.18868588502E+03  0.00000000000E+00 0.  1.
      99926    2    1    2    0    0 -0.53290705182E-14  0.00000000000E+00  0.83586550434E+02  0.46095832046E+03  0.45331651392E+03 0.  0.
      99925    2    3    3    0    0  0.31517018716E+01  0.87329831272E+02  0.12315381941E+03  0.30332104845E+03  0.26305961785E+03 0.  0.
         25    1    4    4    0    0  0.41952016572E+02  0.45759655400E+02  0.57277792326E+02  0.15093764060E+03  0.12509000000E+03 0.  0.
         25    1    3    3    0    0 -0.31517018716E+01 -0.87329831272E+02 -0.39567268974E+02  0.15763727202E+03  0.12509000000E+03 0.  0.
         25    1    4    4    0    0 -0.38800314700E+02  0.41570175872E+02  0.65876027082E+02  0.15238340785E+03  0.12509000000E+03 0.  0.
<mgrwt>
<rscale>  2 0.45331651E+03</rscale>
<asrwt>0</asrwt>
<pdfrwt beam="1">  1       21 0.40040064E-01 0.45331651E+03</pdfrwt>
<pdfrwt beam="2">  1       21 0.27747924E-01 0.45331651E+03</pdfrwt>
<totfact> 0.69030407E+04</totfact>
</mgrwt>
</event>
<event>
 7    0  0.4725730E-002  0.4387077E+03  0.7546771E-02  0.1031144E+00
         21   -1    0    0  502  501  0.00000000000E+00  0.00000000000E+00  0.11415358263E+04  0.11415358263E+04  0.00000000000E+00 0. -1.
         21   -1    0    0  501  502 -0.00000000000E+00 -0.00000000000E+00 -0.42150331439E+02  0.42150331439E+02  0.00000000000E+00 0. -1.
      99926    2    1    2    0    0  0.14210854715E-13  0.35527136788E-14  0.10993854949E+04  0.11836861577E+04  0.43870770875E+03 0.  0.
      99925    2    3    3    0    0 -0.62364238023E+02 -0.23663261249E+02  0.51257600857E+03  0.57999573259E+03  0.26308104672E+03 0.  0.
         25    1    4    4    0    0  0.32217602443E+01 -0.21025066494E+02  0.28758164056E+03  0.31432966969E+03  0.12509000000E+03 0.  0.
         25    1    3    3    0    0  0.62364238023E+02  0.23663261249E+02  0.58680948630E+03  0.60369042515E+03  0.12509000000E+03 0.  0.
         25    1    4    4    0    0 -0.65585998268E+02 -0.26381947552E+01  0.22499436801E+03  0.26566606290E+03  0.12509000000E+03 0.  0.
<mgrwt>
<rscale>  2 0.43870771E+03</rscale>
<asrwt>0</asrwt>
<pdfrwt beam="1">  1       21 0.16787290E+00 0.43870771E+03</pdfrwt>
<pdfrwt beam="2">  1       21 0.61985789E-02 0.43870771E+03</pdfrwt>
<totfact> 0.37176907E+04</totfact>
</mgrwt>
</event>
<event>
 7    0  0.5336946E-002  0.4094588E+03  0.7546771E-02  0.1040553E+00
         21   -1    0    0  502  501  0.00000000000E+00  0.00000000000E+00  0.43586624126E+03  0.43586624126E+03  0.00000000000E+00 0.  1.
         21   -1    0    0  501  502 -0.00000000000E+00 -0.00000000000E+00 -0.96162808060E+02  0.96162808060E+02  0.00000000000E+00 0.  1.
      99926    2    1    2    0    0  0.71054273576E-14 -0.53151927304E-14  0.33970343320E+03  0.53202904932E+03  0.40945877300E+03 0.  0.
      99925    2    3    3    0    0  0.58946420175E+02 -0.83948665849E-01  0.22718513958E+03  0.35375240475E+03  0.26467525144E+03 0.  0.
         25    1    3    3    0    0 -0.58946420175E+02  0.83948665849E-01  0.11251829361E+03  0.17827664456E+03  0.12509000000E+03 0.  0.
         25    1    4    4    0    0  0.36901330723E+02  0.36800523023E+02  0.14278709545E+03  0.19685438637E+03  0.12509000000E+03 0.  0.
         25    1    4    4    0    0  0.22045089452E+02 -0.36884471689E+02  0.84398044128E+02  0.15689801839E+03  0.12509000000E+03 0.  0.
<mgrwt>
<rscale>  2 0.40945877E+03</rscale>
<asrwt>0</asrwt>
<pdfrwt beam="1">  1       21 0.64097976E-01 0.40945877E+03</pdfrwt>
<pdfrwt beam="2">  1       21 0.14141590E-01 0.40945877E+03</pdfrwt>
<totfact> 0.92020744E+04</totfact>
</mgrwt>
</event>
<event>
 6    0  0.4725730E-002  0.4547927E+03  0.7546771E-02  0.1026302E+00
         21   -1    0    0  502  501  0.00000000000E+00  0.00000000000E+00  0.53655182233E+03  0.53655182233E+03  0.00000000000E+00 0.  1.
         21   -1    0    0  501  502 -0.00000000000E+00 -0.00000000000E+00 -0.96372967709E+02  0.96372967709E+02  0.00000000000E+00 0.  1.
      99926    2    1    2    0    0 -0.17763568394E-14  0.00000000000E+00  0.44017885462E+03  0.63292479004E+03  0.45479266242E+03 0.  0.
         25    1    3    3    0    0 -0.40118326100E+02 -0.64423231885E+02  0.14291687306E+03  0.20453012884E+03  0.12509000000E+03 0.  0.
         25    1    3    3    0    0  0.26769436949E+02 -0.50923896004E+02  0.12697695671E+03  0.18729789527E+03  0.12509000000E+03 0.  0.
         25    1    3    3    0    0  0.13348889151E+02  0.11534712789E+03  0.17028502485E+03  0.24109676593E+03  0.12509000000E+03 0.  0.
<mgrwt>
<rscale>  2 0.45479266E+03</rscale>
<asrwt>0</asrwt>
<pdfrwt beam="1">  1       21 0.78904678E-01 0.45479266E+03</pdfrwt>
<pdfrwt beam="2">  1       21 0.14172496E-01 0.45479266E+03</pdfrwt>
<totfact> 0.56788958E+04</totfact>
</mgrwt>
</event>
<event>
 7    0  0.4725730E-002  0.4610549E+03  0.7546771E-02  0.1024476E+00
         21   -1    0    0  502  501  0.00000000000E+00  0.00000000000E+00  0.31524821767E+03  0.31524821767E+03  0.00000000000E+00 0. -1.
         21   -1    0    0  501  502 -0.00000000000E+00 -0.00000000000E+00 -0.16857477796E+03  0.16857477796E+03  0.00000000000E+00 0. -1.
      99926    2    1    2    0    0  0.17763568394E-14  0.00000000000E+00  0.14667343971E+03  0.48382299562E+03  0.46105487003E+03 0.  0.
      99925    2    3    3    0    0 -0.59391993471E+01 -0.38452879897E+02  0.20950480698E+03  0.33853298608E+03  0.26305592648E+03 0.  0.
         25    1    4    4    0    0  0.23962115745E+02 -0.17556522439E+02  0.14280102337E+03  0.19215112502E+03  0.12509000000E+03 0.  0.
         25    1    4    4    0    0 -0.29901315092E+02 -0.20896357459E+02  0.66703783610E+02  0.14638186106E+03  0.12509000000E+03 0.  0.
         25    1    3    3    0    0  0.59391993471E+01  0.38452879897E+02 -0.62831367265E+02  0.14529000955E+03  0.12509000000E+03 0.  0.
<mgrwt>
<rscale>  2 0.46105487E+03</rscale>
<asrwt>0</asrwt>
<pdfrwt beam="1">  1       21 0.46360032E-01 0.46105487E+03</pdfrwt>
<pdfrwt beam="2">  1       21 0.24790409E-01 0.46105487E+03</pdfrwt>
<totfact> 0.63324289E+04</totfact>
</mgrwt>
</event>
<event>
 7    0  0.4725730E-002  0.4481624E+03  0.7546771E-02  0.1028271E+00
         21   -1    0    0  502  501  0.00000000000E+00  0.00000000000E+00  0.75158920481E+03  0.75158920481E+03  0.00000000000E+00 0. -1.
         21   -1    0    0  501  502 -0.00000000000E+00 -0.00000000000E+00 -0.66808283386E+02  0.66808283386E+02  0.00000000000E+00 0. -1.
      99926    2    1    2    0    0  0.00000000000E+00  0.00000000000E+00  0.68478092142E+03  0.81839748820E+03  0.44816240175E+03 0.  0.
      99925    2    3    3    0    0  0.53835901491E+02  0.66204346484E+02  0.55037746740E+03  0.61592991959E+03  0.26300758439E+03 0.  0.
         25    1    3    3    0    0 -0.53835901491E+02 -0.66204346484E+02  0.13440345402E+03  0.20246756860E+03  0.12509000000E+03 0.  0.
         25    1    4    4    0    0  0.27829893175E+02  0.74563369244E+02  0.28351852810E+03  0.31994446840E+03  0.12509000000E+03 0.  0.
         25    1    4    4    0    0  0.26006008315E+02 -0.83590227605E+01  0.26685893930E+03  0.29598545119E+03  0.12509000000E+03 0.  0.
<mgrwt>
<rscale>  2 0.44816240E+03</rscale>
<asrwt>0</asrwt>
<pdfrwt beam="1">  1       21 0.11052782E+00 0.44816240E+03</pdfrwt>
<pdfrwt beam="2">  1       21 0.98247480E-02 0.44816240E+03</pdfrwt>
<totfact> 0.49490135E+04</totfact>
</mgrwt>
</event>
<event>
 7    0  0.4725730E-002  0.4567635E+03  0.7546771E-02  0.1025724E+00
         21   -1    0    0  502  501  0.00000000000E+00  0.00000000000E+00  0.18489946054E+02  0.18489946054E+02  0.00000000000E+00 0.  1.
         21   -1    0    0  501  502 -0.00000000000E+00 -0.00000000000E+00 -0.28208965152E+04  0.28208965152E+04  0.00000000000E+00 0.  1.
      99926    2    1    2    0    0  0.00000000000E+00  0.00000000000E+00 -0.28024065691E+04  0.28393864612E+04  0.45676350288E+03 0.  0.
      99925    2    3    3    0    0  0.52028774622E+02 -0.15818757775E+02 -0.11325935353E+04  0.11640117860E+04  0.26305530823E+03 0.  0.
         25    1    4    4    0    0  0.14530378407E+02 -0.24684290866E+01 -0.72322914701E+03  0.73411520364E+03  0.12509000000E+03 0.  0.
         25    1    4    4    0    0  0.37498396215E+02 -0.13350328688E+02 -0.40936438833E+03  0.42989658236E+03  0.12509000000E+03 0.  0.
         25    1    3    3    0    0 -0.52028774622E+02  0.15818757775E+02 -0.16698130338E+04  0.16753746752E+04  0.12509000000E+03 0.  0.
<mgrwt>
<rscale>  2 0.45676350E+03</rscale>
<asrwt>0</asrwt>
<pdfrwt beam="1">  1       21 0.27191093E-02 0.45676350E+03</pdfrwt>
<pdfrwt beam="2">  1       21 0.41483778E+00 0.45676350E+03</pdfrwt>
<totfact> 0.41877273E+03</totfact>
</mgrwt>
</event>
<event>
 7    0  0.4725730E-002  0.4585844E+03  0.7546771E-02  0.1025193E+00
         21   -1    0    0  502  501  0.00000000000E+00  0.00000000000E+00  0.65901765728E+03  0.65901765728E+03  0.00000000000E+00 0.  1.
         21   -1    0    0  501  502 -0.00000000000E+00 -0.00000000000E+00 -0.79777698410E+02  0.79777698410E+02  0.00000000000E+00 0.  1.
      99926    2    1    2    0    0 -0.88817841970E-15  0.00000000000E+00  0.57923995887E+03  0.73879535569E+03  0.45858439533E+03 0.  0.
      99925    2    3    3    0    0  0.56396003823E+01 -0.10713752602E+03  0.29000664589E+03  0.40590848000E+03  0.26295928372E+03 0.  0.
         25    1    4    4    0    0  0.25741488673E+02 -0.53756462179E+02  0.19324844058E+03  0.23779160908E+03  0.12509000000E+03 0.  0.
         25    1    3    3    0    0 -0.56396003823E+01  0.10713752602E+03  0.28923331298E+03  0.33288687570E+03  0.12509000000E+03 0.  0.
         25    1    4    4    0    0 -0.20101888291E+02 -0.53381063840E+02  0.96758205318E+02  0.16811687091E+03  0.12509000000E+03 0.  0.
<mgrwt>
<rscale>  2 0.45858440E+03</rscale>
<asrwt>0</asrwt>
<pdfrwt beam="1">  1       21 0.96914359E-01 0.45858440E+03</pdfrwt>
<pdfrwt beam="2">  1       21 0.11732015E-01 0.45858440E+03</pdfrwt>
<totfact> 0.49438757E+04</totfact>
</mgrwt>
</event>
<event>
 7    0  0.4725730E-002  0.4546261E+03  0.7546771E-02  0.1026351E+00
         21   -1    0    0  502  501  0.00000000000E+00  0.00000000000E+00  0.18370549709E+03  0.18370549709E+03  0.00000000000E+00 0. -1.
         21   -1    0    0  501  502 -0.00000000000E+00 -0.00000000000E+00 -0.28127204433E+03  0.28127204433E+03  0.00000000000E+00 0. -1.
      99926    2    1    2    0    0  0.00000000000E+00  0.00000000000E+00 -0.97566547244E+02  0.46497754143E+03  0.45462609130E+03 0.  0.
      99925    2    3    3    0    0 -0.10380158202E+03 -0.16137282565E+02 -0.10336457933E+03  0.30152630835E+03  0.26305645410E+03 0.  0.
         25    1    3    3    0    0  0.10380158202E+03  0.16137282565E+02  0.57980320907E+01  0.16345123308E+03  0.12509000000E+03 0.  0.
         25    1    4    4    0    0 -0.19629608814E+02 -0.13611662252E+00 -0.19066757970E+02  0.12804838706E+03  0.12509000000E+03 0.  0.
         25    1    4    4    0    0 -0.84171973210E+02 -0.16001165943E+02 -0.84297821365E+02  0.17347792128E+03  0.12509000000E+03 0.  0.
<mgrwt>
<rscale>  2 0.45462609E+03</rscale>
<asrwt>0</asrwt>
<pdfrwt beam="1">  1       21 0.27015515E-01 0.45462609E+03</pdfrwt>
<pdfrwt beam="2">  1       21 0.41363535E-01 0.45462609E+03</pdfrwt>
<totfact> 0.68013187E+04</totfact>
</mgrwt>
</event>
<event>
 7    0  0.4725730E-002  0.4614074E+03  0.7546771E-02  0.1024374E+00
         21   -1    0    0  502  501  0.00000000000E+00  0.00000000000E+00  0.50242969778E+03  0.50242969778E+03  0.00000000000E+00 0. -1.
         21   -1    0    0  501  502 -0.00000000000E+00 -0.00000000000E+00 -0.10593363904E+03  0.10593363904E+03  0.00000000000E+00 0. -1.
      99926    2    1    2    0    0  0.14210854715E-13 -0.35527136788E-14  0.39649605874E+03  0.60836333683E+03  0.46140743926E+03 0.  0.
      99925    2    3    3    0    0 -0.77107300841E+02  0.27122941483E+02  0.13393020434E+03  0.30625486989E+03  0.26300866127E+03 0.  0.
         25    1    3    3    0    0  0.77107300841E+02 -0.27122941483E+02  0.26256585440E+03  0.30210846693E+03  0.12509000000E+03 0.  0.
         25    1    4    4    0    0 -0.27273173742E+02  0.10274514707E+02  0.10862367697E+03  0.16821415801E+03  0.12509000000E+03 0.  0.
         25    1    4    4    0    0 -0.49834127099E+02  0.16848426776E+02  0.25306527374E+02  0.13804071188E+03  0.12509000000E+03 0.  0.
<mgrwt>
<rscale>  2 0.46140744E+03</rscale>
<asrwt>0</asrwt>
<pdfrwt beam="1">  1       21 0.73886719E-01 0.46140744E+03</pdfrwt>
<pdfrwt beam="2">  1       21 0.15578477E-01 0.46140744E+03</pdfrwt>
<totfact> 0.55313061E+04</totfact>
</mgrwt>
</event>
<event>
 7    0  0.4725730E-002  0.4556478E+03  0.7546771E-02  0.1026051E+00
         21   -1    0    0  502  501  0.00000000000E+00  0.00000000000E+00  0.80650145122E+02  0.80650145122E+02  0.00000000000E+00 0. -1.
         21   -1    0    0  501  502 -0.00000000000E+00 -0.00000000000E+00 -0.64356661013E+03  0.64356661013E+03  0.00000000000E+00 0. -1.
      99926    2    1    2    0    0  0.00000000000E+00 -0.17763568394E-14 -0.56291646501E+03  0.72421675525E+03  0.45564784868E+03 0.  0.
      99925    2    3    3    0    0  0.37952318602E+02 -0.93625180900E+01 -0.52389857568E+03  0.58747634783E+03  0.26292718847E+03 0.  0.
         25    1    4    4    0    0 -0.56333599116E+01  0.26419845329E+02 -0.27306117833E+03  0.30156203041E+03  0.12509000000E+03 0.  0.
         25    1    3    3    0    0 -0.37952318602E+02  0.93625180900E+01 -0.39017889329E+02  0.13674040741E+03  0.12509000000E+03 0.  0.
         25    1    4    4    0    0  0.43585678514E+02 -0.35782363419E+02 -0.25083739735E+03  0.28591431743E+03  0.12509000000E+03 0.  0.
<mgrwt>
<rscale>  2 0.45564785E+03</rscale>
<asrwt>0</asrwt>
<pdfrwt beam="1">  1       21 0.11860316E-01 0.45564785E+03</pdfrwt>
<pdfrwt beam="2">  1       21 0.94642144E-01 0.45564785E+03</pdfrwt>
<totfact> 0.51345719E+04</totfact>
</mgrwt>
</event>
<event>
 7    0  0.4725730E-002  0.4579160E+03  0.7546771E-02  0.1025387E+00
         21   -1    0    0  502  501  0.00000000000E+00  0.00000000000E+00  0.33316362123E+03  0.33316362123E+03  0.00000000000E+00 0. -1.
         21   -1    0    0  501  502 -0.00000000000E+00 -0.00000000000E+00 -0.15734542924E+03  0.15734542924E+03  0.00000000000E+00 0. -1.
      99926    2    1    2    0    0  0.00000000000E+00  0.00000000000E+00  0.17581819200E+03  0.49050905047E+03  0.45791603156E+03 0.  0.
      99925    2    3    3    0    0  0.10932920164E+03  0.32890906469E+02  0.13148664081E+03  0.31544483200E+03  0.26302475028E+03 0.  0.
         25    1    4    4    0    0  0.51361826169E+02 -0.17576243578E+02  0.88129329498E+02  0.16236147432E+03  0.12509000000E+03 0.  0.
         25    1    3    3    0    0 -0.10932920164E+03 -0.32890906469E+02  0.44331551182E+02  0.17506421848E+03  0.12509000000E+03 0.  0.
         25    1    4    4    0    0  0.57967375474E+02  0.50467150047E+02  0.43357311315E+02  0.15308335768E+03  0.12509000000E+03 0.  0.
<mgrwt>
<rscale>  2 0.45791603E+03</rscale>
<asrwt>0</asrwt>
<pdfrwt beam="1">  1       21 0.48994650E-01 0.45791603E+03</pdfrwt>
<pdfrwt beam="2">  1       21 0.23139034E-01 0.45791603E+03</pdfrwt>
<totfact> 0.64438042E+04</totfact>
</mgrwt>
</event>
<event>
 7    0  0.4725730E-002  0.4652069E+03  0.7546771E-02  0.1023282E+00
         21   -1    0    0  502  501  0.00000000000E+00  0.00000000000E+00  0.84297239820E+03  0.84297239820E+03  0.00000000000E+00 0. -1.
         21   -1    0    0  501  502 -0.00000000000E+00 -0.00000000000E+00 -0.64182829596E+02  0.64182829596E+02  0.00000000000E+00 0. -1.
      99926    2    1    2    0    0  0.00000000000E+00  0.00000000000E+00  0.77878956861E+03  0.90715522780E+03  0.46520685200E+03 0.  0.
      99925    2    3    3    0    0  0.33961994040E+02  0.46806882870E+02  0.69629926948E+03  0.74654246718E+03  0.26296136846E+03 0.  0.
         25    1    4    4    0    0  0.21405214689E+02  0.64291578818E+02  0.36062895699E+03  0.38767556415E+03  0.12509000000E+03 0.  0.
         25    1    4    4    0    0  0.12556779351E+02 -0.17484695948E+02  0.33567031249E+03  0.35886690303E+03  0.12509000000E+03 0.  0.
         25    1    3    3    0    0 -0.33961994040E+02 -0.46806882870E+02  0.82490299126E+02  0.16061276062E+03  0.12509000000E+03 0.  0.
<mgrwt>
<rscale>  2 0.46520685E+03</rscale>
<asrwt>0</asrwt>
<pdfrwt beam="1">  1       21 0.12396652E+00 0.46520685E+03</pdfrwt>
<pdfrwt beam="2">  1       21 0.94386519E-02 0.46520685E+03</pdfrwt>
<totfact> 0.39660374E+04</totfact>
</mgrwt>
</event>
<event>
 7    0  0.4725730E-002  0.4611366E+03  0.7546771E-02  0.1024452E+00
         21   -1    0    0  502  501  0.00000000000E+00  0.00000000000E+00  0.98590827366E+02  0.98590827366E+02  0.00000000000E+00 0. -1.
         21   -1    0    0  501  502 -0.00000000000E+00 -0.00000000000E+00 -0.53921582078E+03  0.53921582078E+03  0.00000000000E+00 0. -1.
      99926    2    1    2    0    0  0.00000000000E+00 -0.44408920985E-15 -0.44062499342E+03  0.63780664815E+03  0.46113656936E+03 0.  0.
      99925    2    3    3    0    0 -0.52027091998E+02 -0.32967594386E+01 -0.12776387419E+03  0.29685610196E+03  0.26283502582E+03 0.  0.
         25    1    3    3    0    0  0.52027091998E+02  0.32967594386E+01 -0.31286111923E+03  0.34095054619E+03  0.12509000000E+03 0.  0.
         25    1    4    4    0    0  0.17874198239E+01  0.18048700519E+02 -0.85815925634E+02  0.15277706520E+03  0.12509000000E+03 0.  0.
         25    1    4    4    0    0 -0.53814511822E+02 -0.21345459958E+02 -0.41947948557E+02  0.14407903675E+03  0.12509000000E+03 0.  0.
<mgrwt>
<rscale>  2 0.46113657E+03</rscale>
<asrwt>0</asrwt>
<pdfrwt beam="1">  1       21 0.14498651E-01 0.46113657E+03</pdfrwt>
<pdfrwt beam="2">  1       21 0.79296444E-01 0.46113657E+03</pdfrwt>
<totfact> 0.53758123E+04</totfact>
</mgrwt>
</event>
<event>
 7    0  0.4725730E-002  0.4552630E+03  0.7546771E-02  0.1026164E+00
         21   -1    0    0  502  501  0.00000000000E+00  0.00000000000E+00  0.22253933665E+03  0.22253933665E+03  0.00000000000E+00 0.  1.
         21   -1    0    0  501  502 -0.00000000000E+00 -0.00000000000E+00 -0.23284016562E+03  0.23284016562E+03  0.00000000000E+00 0.  1.
      99926    2    1    2    0    0  0.00000000000E+00  0.00000000000E+00 -0.10300828963E+02  0.45537950227E+03  0.45526298335E+03 0.  0.
      99925    2    3    3    0    0  0.81163064263E+02  0.46804798660E+02  0.57319257648E+02  0.28509116916E+03  0.26308429307E+03 0.  0.
         25    1    4    4    0    0  0.59045037212E+02  0.34436131671E+02  0.66164140482E+02  0.15715395372E+03  0.12509000000E+03 0.  0.
         25    1    4    4    0    0  0.22118027051E+02  0.12368666989E+02 -0.88448828332E+01  0.12793721545E+03  0.12509000000E+03 0.  0.
         25    1    3    3    0    0 -0.81163064263E+02 -0.46804798660E+02 -0.67620086611E+02  0.17028833310E+03  0.12509000000E+03 0.  0.
<mgrwt>
<rscale>  2 0.45526298E+03</rscale>
<asrwt>0</asrwt>
<pdfrwt beam="1">  1       21 0.32726373E-01 0.45526298E+03</pdfrwt>
<pdfrwt beam="2">  1       21 0.34241201E-01 0.45526298E+03</pdfrwt>
<totfact> 0.68374419E+04</totfact>
</mgrwt>
</event>
<event>
 7    0  0.4725730E-002  0.4441063E+03  0.7546771E-02  0.1029494E+00
         21   -1    0    0  502  501  0.00000000000E+00  0.00000000000E+00  0.31850201538E+03  0.31850201538E+03  0.00000000000E+00 0.  1.
         21   -1    0    0  501  502 -0.00000000000E+00 -0.00000000000E+00 -0.15481097673E+03  0.15481097673E+03  0.00000000000E+00 0.  1.
      99926    2    1    2    0    0  0.00000000000E+00 -0.35527136788E-14  0.16369103865E+03  0.47331299212E+03  0.44410633003E+03 0.  0.
      99925    2    3    3    0    0 -0.54378041726E+02  0.11491431271E+02  0.19593742166E+03  0.33268453933E+03  0.26305608735E+03 0.  0.
         25    1    4    4    0    0 -0.47764566838E+02  0.39361714786E+02  0.11616048408E+03  0.18158073851E+03  0.12509000000E+03 0.  0.
         25    1    3    3    0    0  0.54378041726E+02 -0.11491431271E+02 -0.32246383010E+02  0.14062845278E+03  0.12509000000E+03 0.  0.
         25    1    4    4    0    0 -0.66134748889E+01 -0.27870283515E+02  0.79776937579E+02  0.15110380082E+03  0.12509000000E+03 0.  0.
<mgrwt>
<rscale>  2 0.44410633E+03</rscale>
<asrwt>0</asrwt>
<pdfrwt beam="1">  1       21 0.46838532E-01 0.44410633E+03</pdfrwt>
<pdfrwt beam="2">  1       21 0.22766320E-01 0.44410633E+03</pdfrwt>
<totfact> 0.73328403E+04</totfact>
</mgrwt>
</event>
<event>
 7    0  0.4725730E-002  0.4496868E+03  0.7546771E-02  0.1027815E+00
         21   -1    0    0  502  501  0.00000000000E+00  0.00000000000E+00  0.23769930206E+03  0.23769930206E+03  0.00000000000E+00 0. -1.
         21   -1    0    0  501  502 -0.00000000000E+00 -0.00000000000E+00 -0.21268276540E+03  0.21268276540E+03  0.00000000000E+00 0. -1.
      99926    2    1    2    0    0  0.00000000000E+00  0.17763568394E-14  0.25016536655E+02  0.45038206746E+03  0.44968675718E+03 0.  0.
      99925    2    3    3    0    0  0.96001208239E+02  0.15840204857E+02  0.59828851202E+02  0.28812748534E+03  0.26451996579E+03 0.  0.
         25    1    3    3    0    0 -0.96001208239E+02 -0.15840204857E+02 -0.34812314546E+02  0.16225458212E+03  0.12509000000E+03 0.  0.
         25    1    4    4    0    0  0.75806216358E+02  0.14151017279E+02  0.66358734536E+02  0.16123840572E+03  0.12509000000E+03 0.  0.
         25    1    4    4    0    0  0.20194991881E+02  0.16891875774E+01 -0.65298833339E+01  0.12688907963E+03  0.12509000000E+03 0.  0.
<mgrwt>
<rscale>  2 0.44968676E+03</rscale>
<asrwt>0</asrwt>
<pdfrwt beam="1">  1       21 0.34955780E-01 0.44968676E+03</pdfrwt>
<pdfrwt beam="2">  1       21 0.31276877E-01 0.44968676E+03</pdfrwt>
<totfact> 0.71884920E+04</totfact>
</mgrwt>
</event>
<event>
 7    0  0.4725730E-002  0.4531907E+03  0.7546771E-02  0.1026775E+00
         21   -1    0    0  502  501  0.00000000000E+00  0.00000000000E+00  0.10879943522E+04  0.10879943522E+04  0.00000000000E+00 0.  1.
         21   -1    0    0  501  502 -0.00000000000E+00 -0.00000000000E+00 -0.47192752425E+02  0.47192752425E+02  0.00000000000E+00 0.  1.
      99926    2    1    2    0    0  0.00000000000E+00  0.00000000000E+00  0.10408015997E+04  0.11351871046E+04  0.45319067996E+03 0.  0.
      99925    2    3    3    0    0  0.38595632659E+02  0.73590414397E+02  0.84201081275E+03  0.88604767165E+03  0.26304580532E+03 0.  0.
         25    1    3    3    0    0 -0.38595632659E+02 -0.73590414397E+02  0.19879078698E+03  0.24913943292E+03  0.12509000000E+03 0.  0.
         25    1    4    4    0    0  0.42626170596E+02  0.83619397993E+01  0.46498274606E+03  0.48347013836E+03  0.12509000000E+03 0.  0.
         25    1    4    4    0    0 -0.40305379368E+01  0.65228474598E+02  0.37702806670E+03  0.40257753329E+03  0.12509000000E+03 0.  0.
<mgrwt>
<rscale>  2 0.45319068E+03</rscale>
<asrwt>0</asrwt>
<pdfrwt beam="1">  1       21 0.15999915E+00 0.45319068E+03</pdfrwt>
<pdfrwt beam="2">  1       21 0.69401113E-02 0.45319068E+03</pdfrwt>
<totfact> 0.34768583E+04</totfact>
</mgrwt>
</event>
<event>
 7    0  0.4725730E-002  0.4560031E+03  0.7546771E-02  0.1025947E+00
         21   -1    0    0  502  501  0.00000000000E+00  0.00000000000E+00  0.44541988631E+03  0.44541988631E+03  0.00000000000E+00 0.  1.
         21   -1    0    0  501  502 -0.00000000000E+00 -0.00000000000E+00 -0.11670943062E+03  0.11670943062E+03  0.00000000000E+00 0.  1.
      99926    2    1    2    0    0  0.00000000000E+00  0.00000000000E+00  0.32871045568E+03  0.56212931693E+03  0.45600307595E+03 0.  0.
      99925    2    3    3    0    0 -0.88952279739E+02 -0.54517873291E+02  0.26361694666E+03  0.38671728885E+03  0.26300505765E+03 0.  0.
         25    1    4    4    0    0 -0.31548423395E+02 -0.19148617045E+00  0.16258031027E+03  0.20754566985E+03  0.12509000000E+03 0.  0.
         25    1    3    3    0    0  0.88952279739E+02  0.54517873291E+02  0.65093509019E+02  0.17541202808E+03  0.12509000000E+03 0.  0.
         25    1    4    4    0    0 -0.57403856344E+02 -0.54326387121E+02  0.10103663639E+03  0.17917161900E+03  0.12509000000E+03 0.  0.
<mgrwt>
<rscale>  2 0.45600308E+03</rscale>
<asrwt>0</asrwt>
<pdfrwt beam="1">  1       21 0.65502924E-01 0.45600308E+03</pdfrwt>
<pdfrwt beam="2">  1       21 0.17163152E-01 0.45600308E+03</pdfrwt>
<totfact> 0.60589902E+04</totfact>
</mgrwt>
</event>
<event>
 7    0  0.4725730E-002  0.4560610E+03  0.7546771E-02  0.1025930E+00
         21   -1    0    0  502  501  0.00000000000E+00  0.00000000000E+00  0.15047570180E+03  0.15047570180E+03  0.00000000000E+00 0.  1.
         21   -1    0    0  501  502 -0.00000000000E+00 -0.00000000000E+00 -0.34555678937E+03  0.34555678937E+03  0.00000000000E+00 0.  1.
      99926    2    1    2    0    0  0.00000000000E+00  0.00000000000E+00 -0.19508108756E+03  0.49603249117E+03  0.45606096256E+03 0.  0.
      99925    2    3    3    0    0  0.52185356217E+02 -0.94295224666E+02 -0.16357260453E+03  0.32793967931E+03  0.26300862251E+03 0.  0.
         25    1    4    4    0    0 -0.12105366391E+02 -0.57221188747E+02 -0.68206077764E+02  0.15401422493E+03  0.12509000000E+03 0.  0.
         25    1    3    3    0    0 -0.52185356217E+02  0.94295224666E+02 -0.31508483035E+02  0.16809281187E+03  0.12509000000E+03 0.  0.
         25    1    4    4    0    0  0.64290722608E+02 -0.37074035919E+02 -0.95366526765E+02  0.17392545438E+03  0.12509000000E+03 0.  0.
<mgrwt>
<rscale>  2 0.45606096E+03</rscale>
<asrwt>0</asrwt>
<pdfrwt beam="1">  1       21 0.22128780E-01 0.45606096E+03</pdfrwt>
<pdfrwt beam="2">  1       21 0.50817174E-01 0.45606096E+03</pdfrwt>
<totfact> 0.65001098E+04</totfact>
</mgrwt>
</event>
<event>
 7    0  0.4725730E-002  0.4606697E+03  0.7546771E-02  0.1024587E+00
         21   -1    0    0  502  501  0.00000000000E+00  0.00000000000E+00  0.35100133036E+03  0.35100133036E+03  0.00000000000E+00 0.  1.
         21   -1    0    0  501  502 -0.00000000000E+00 -0.00000000000E+00 -0.15115083883E+03  0.15115083883E+03  0.00000000000E+00 0.  1.
      99926    2    1    2    0    0  0.00000000000E+00  0.00000000000E+00  0.19985049153E+03  0.50215216919E+03  0.46066971037E+03 0.  0.
      99925    2    3    3    0    0 -0.74087472815E+02  0.86733834432E+02  0.90490722775E+02  0.30061115900E+03  0.26299579149E+03 0.  0.
         25    1    4    4    0    0 -0.41989223083E+02  0.79162185429E+02  0.72162348199E+02  0.16995487358E+03  0.12509000000E+03 0.  0.
         25    1    3    3    0    0  0.74087472815E+02 -0.86733834432E+02  0.10935976876E+03  0.20154101018E+03  0.12509000000E+03 0.  0.
         25    1    4    4    0    0 -0.32098249732E+02  0.75716490033E+01  0.18328374575E+02  0.13065628542E+03  0.12509000000E+03 0.  0.
<mgrwt>
<rscale>  2 0.46066971E+03</rscale>
<asrwt>0</asrwt>
<pdfrwt beam="1">  1       21 0.51617843E-01 0.46066971E+03</pdfrwt>
<pdfrwt beam="2">  1       21 0.22228065E-01 0.46066971E+03</pdfrwt>
<totfact> 0.62269608E+04</totfact>
</mgrwt>
</event>
<event>
 7    0  0.4725730E-002  0.4579827E+03  0.7546771E-02  0.1025368E+00
         21   -1    0    0  502  501  0.00000000000E+00  0.00000000000E+00  0.30451806729E+02  0.30451806729E+02  0.00000000000E+00 0. -1.
         21   -1    0    0  501  502 -0.00000000000E+00 -0.00000000000E+00 -0.17219680446E+04  0.17219680446E+04  0.00000000000E+00 0. -1.
      99926    2    1    2    0    0 -0.71054273576E-14  0.14210854715E-13 -0.16915162379E+04  0.17524198513E+04  0.45798269875E+03 0.  0.
      99925    2    3    3    0    0  0.47308218349E+02 -0.73171125925E+02 -0.13525086201E+04  0.13807133082E+04  0.26362395722E+03 0.  0.
         25    1    4    4    0    0  0.84981653871E+01 -0.31773015066E+01 -0.50840329976E+03  0.52364466708E+03  0.12509000000E+03 0.  0.
         25    1    3    3    0    0 -0.47308218349E+02  0.73171125925E+02 -0.33900761776E+03  0.37170654311E+03  0.12509000000E+03 0.  0.
         25    1    4    4    0    0  0.38810052962E+02 -0.69993824419E+02 -0.84410532037E+03  0.85706864115E+03  0.12509000000E+03 0.  0.
<mgrwt>
<rscale>  2 0.45798270E+03</rscale>
<asrwt>0</asrwt>
<pdfrwt beam="1">  1       21 0.44782085E-02 0.45798270E+03</pdfrwt>
<pdfrwt beam="2">  1       21 0.25323051E+00 0.45798270E+03</pdfrwt>
<totfact> 0.17776677E+04</totfact>
</mgrwt>
</event>
<event>
 7    0  0.4725730E-002  0.4238470E+03  0.7546771E-02  0.1035821E+00
         21   -1    0    0  502  501  0.00000000000E+00  0.00000000000E+00  0.21394263263E+03  0.21394263263E+03  0.00000000000E+00 0.  1.
         21   -1    0    0  501  502 -0.00000000000E+00 -0.00000000000E+00 -0.20992340570E+03  0.20992340570E+03  0.00000000000E+00 0.  1.
      99926    2    1    2    0    0 -0.53290705182E-14  0.00000000000E+00  0.40192269280E+01  0.42386603833E+03  0.42384698213E+03 0.  0.
      99925    2    3    3    0    0  0.14294816194E+01 -0.45502986697E+02 -0.63915138937E+02  0.27441654391E+03  0.26295765699E+03 0.  0.
         25    1    4    4    0    0 -0.36486610228E+02 -0.22270422742E+02 -0.48313138282E+02  0.14074413624E+03  0.12509000000E+03 0.  0.
         25    1    3    3    0    0 -0.14294816194E+01  0.45502986697E+02  0.67934365865E+02  0.14944949442E+03  0.12509000000E+03 0.  0.
         25    1    4    4    0    0  0.37916091847E+02 -0.23232563955E+02 -0.15602000655E+02  0.13367240767E+03  0.12509000000E+03 0.  0.
<mgrwt>
<rscale>  2 0.42384698E+03</rscale>
<asrwt>0</asrwt>
<pdfrwt beam="1">  1       21 0.31462152E-01 0.42384698E+03</pdfrwt>
<pdfrwt beam="2">  1       21 0.30871089E-01 0.42384698E+03</pdfrwt>
<totfact> 0.91635516E+04</totfact>
</mgrwt>
</event>
<event>
 7    0  0.4725730E-002  0.4546157E+03  0.7546771E-02  0.1026354E+00
         21   -1    0    0  502  501  0.00000000000E+00  0.00000000000E+00  0.22825939558E+04  0.22825939558E+04  0.00000000000E+00 0. -1.
         21   -1    0    0  501  502 -0.00000000000E+00 -0.00000000000E+00 -0.22636029326E+02  0.22636029326E+02  0.00000000000E+00 0. -1.
      99926    2    1    2    0    0  0.00000000000E+00  0.71054273576E-14  0.22599579264E+04  0.23052299851E+04  0.45461572221E+03 0.  0.
      99925    2    3    3    0    0 -0.33237533067E+02 -0.52850825604E+02  0.94585409399E+03  0.98371027887E+03  0.26296007732E+03 0.  0.
         25    1    3    3    0    0  0.33237533067E+02  0.52850825604E+02  0.13141038324E+04  0.13215197062E+04  0.12509000000E+03 0.  0.
         25    1    4    4    0    0 -0.37399883889E+02 -0.22388829373E+02  0.60490121627E+03  0.61923581981E+03  0.12509000000E+03 0.  0.
         25    1    4    4    0    0  0.41623508229E+01 -0.30461996230E+02  0.34095287772E+03  0.36447445906E+03  0.12509000000E+03 0.  0.
<mgrwt>
<rscale>  2 0.45461572E+03</rscale>
<asrwt>0</asrwt>
<pdfrwt beam="1">  1       21 0.33567542E+00 0.45461572E+03</pdfrwt>
<pdfrwt beam="2">  1       21 0.33288294E-02 0.45461572E+03</pdfrwt>
<totfact> 0.93637612E+03</totfact>
</mgrwt>
</event>
<event>
 7    0  0.4725730E-002  0.4514823E+03  0.7546771E-02  0.1027281E+00
         21   -1    0    0  502  501  0.00000000000E+00  0.00000000000E+00  0.10000903273E+03  0.10000903273E+03  0.00000000000E+00 0. -1.
         21   -1    0    0  501  502 -0.00000000000E+00 -0.00000000000E+00 -0.50954462809E+03  0.50954462809E+03  0.00000000000E+00 0. -1.
      99926    2    1    2    0    0  0.00000000000E+00  0.00000000000E+00 -0.40953559536E+03  0.60955366082E+03  0.45148229373E+03 0.  0.
      99925    2    3    3    0    0  0.10322982225E+03  0.19103858583E+02 -0.30180616447E+03  0.41391498368E+03  0.26309180752E+03 0.  0.
         25    1    4    4    0    0  0.13913446817E+02  0.91166226643E+01 -0.10611561785E+03  0.16487792230E+03  0.12509000000E+03 0.  0.
         25    1    4    4    0    0  0.89316375432E+02  0.99872359191E+01 -0.19569054662E+03  0.24903706137E+03  0.12509000000E+03 0.  0.
         25    1    3    3    0    0 -0.10322982225E+03 -0.19103858583E+02 -0.10772943089E+03  0.19563867714E+03  0.12509000000E+03 0.  0.
<mgrwt>
<rscale>  2 0.45148229E+03</rscale>
<asrwt>0</asrwt>
<pdfrwt beam="1">  1       21 0.14707211E-01 0.45148229E+03</pdfrwt>
<pdfrwt beam="2">  1       21 0.74933033E-01 0.45148229E+03</pdfrwt>
<totfact> 0.59736653E+04</totfact>
</mgrwt>
</event>
<event>
 7    0  0.4725730E-002  0.4334018E+03  0.7546771E-02  0.1032791E+00
         21   -1    0    0  502  501  0.00000000000E+00  0.00000000000E+00  0.38927678302E+03  0.38927678302E+03  0.00000000000E+00 0. -1.
         21   -1    0    0  501  502 -0.00000000000E+00 -0.00000000000E+00 -0.12063212166E+03  0.12063212166E+03  0.00000000000E+00 0. -1.
      99926    2    1    2    0    0  0.00000000000E+00  0.00000000000E+00  0.26864466136E+03  0.50990890468E+03  0.43340181933E+03 0.  0.
      99925    2    3    3    0    0 -0.42879595226E+02  0.33711881042E+02  0.25906200994E+03  0.37310800586E+03  0.26290931599E+03 0.  0.
         25    1    3    3    0    0  0.42879595226E+02 -0.33711881042E+02  0.95826514173E+01  0.13680089882E+03  0.12509000000E+03 0.  0.
         25    1    4    4    0    0 -0.17516028901E+02 -0.22479183973E+02  0.13813633638E+03  0.18852395208E+03  0.12509000000E+03 0.  0.
         25    1    4    4    0    0 -0.25363566325E+02  0.56191065014E+02  0.12092567356E+03  0.18458405378E+03  0.12509000000E+03 0.  0.
<mgrwt>
<rscale>  2 0.43340182E+03</rscale>
<asrwt>0</asrwt>
<pdfrwt beam="1">  1       21 0.57246586E-01 0.43340182E+03</pdfrwt>
<pdfrwt beam="2">  1       21 0.17740018E-01 0.43340182E+03</pdfrwt>
<totfact> 0.76935634E+04</totfact>
</mgrwt>
</event>
<event>
 7    0  0.4725730E-002  0.4537555E+03  0.7546771E-02  0.1026608E+00
         21   -1    0    0  502  501  0.00000000000E+00  0.00000000000E+00  0.69174250681E+03  0.69174250681E+03  0.00000000000E+00 0. -1.
         21   -1    0    0  501  502 -0.00000000000E+00 -0.00000000000E+00 -0.74411385399E+02  0.74411385399E+02  0.00000000000E+00 0. -1.
      99926    2    1    2    0    0  0.00000000000E+00  0.00000000000E+00  0.61733112141E+03  0.76615389221E+03  0.45375552127E+03 0.  0.
      99925    2    3    3    0    0 -0.18555278948E+02  0.91144176818E+02  0.49427998229E+03  0.56755718961E+03  0.26297700135E+03 0.  0.
         25    1    4    4    0    0 -0.14360826476E+01  0.78685124462E+02  0.31480201111E+03  0.34776604987E+03  0.12509000000E+03 0.  0.
         25    1    4    4    0    0 -0.17119196300E+02  0.12459052356E+02  0.17947797119E+03  0.21979113974E+03  0.12509000000E+03 0.  0.
         25    1    3    3    0    0  0.18555278948E+02 -0.91144176818E+02  0.12305113912E+03  0.19859670260E+03  0.12509000000E+03 0.  0.
<mgrwt>
<rscale>  2 0.45375552E+03</rscale>
<asrwt>0</asrwt>
<pdfrwt beam="1">  1       21 0.10172684E+00 0.45375552E+03</pdfrwt>
<pdfrwt beam="2">  1       21 0.10942851E-01 0.45375552E+03</pdfrwt>
<totfact> 0.49931356E+04</totfact>
</mgrwt>
</event>
<event>
 7    0  0.4725730E-002  0.4425518E+03  0.7546771E-02  0.1029967E+00
         21   -1    0    0  502  501  0.00000000000E+00  0.00000000000E+00  0.35921637162E+03  0.35921637162E+03  0.00000000000E+00 0.  1.
         21   -1    0    0  501  502 -0.00000000000E+00 -0.00000000000E+00 -0.13630509606E+03  0.13630509606E+03  0.00000000000E+00 0.  1.
      99926    2    1    2    0    0  0.00000000000E+00 -0.71054273576E-14  0.22291127556E+03  0.49552146768E+03  0.44255179150E+03 0.  0.
      99925    2    3    3    0    0 -0.93943524853E+02 -0.32709466997E+02  0.16161568564E+03  0.32434917864E+03  0.26303510173E+03 0.  0.
         25    1    3    3    0    0  0.93943524853E+02  0.32709466997E+02  0.61295589918E+02  0.17117228904E+03  0.12509000000E+03 0.  0.
         25    1    4    4    0    0 -0.57947005867E+02 -0.54520336733E+02  0.71917525531E+02  0.16477245275E+03  0.12509000000E+03 0.  0.
         25    1    4    4    0    0 -0.35996518986E+02  0.21810869736E+02  0.89698160108E+02  0.15957672589E+03  0.12509000000E+03 0.  0.
<mgrwt>
<rscale>  2 0.44255179E+03</rscale>
<asrwt>0</asrwt>
<pdfrwt beam="1">  1       21 0.52825937E-01 0.44255179E+03</pdfrwt>
<pdfrwt beam="2">  1       21 0.20044867E-01 0.44255179E+03</pdfrwt>
<totfact> 0.72488519E+04</totfact>
</mgrwt>
</event>
<event>
 7    0  0.4725730E-002  0.4637160E+03  0.7546771E-02  0.1023709E+00
         21   -1    0    0  502  501  0.00000000000E+00  0.00000000000E+00  0.43430476853E+03  0.43430476853E+03  0.00000000000E+00 0.  1.
         21   -1    0    0  501  502 -0.00000000000E+00 -0.00000000000E+00 -0.12377974676E+03  0.12377974676E+03  0.00000000000E+00 0.  1.
      99926    2    1    2    0    0  0.71054273576E-14  0.00000000000E+00  0.31052502177E+03  0.55808451529E+03  0.46371600905E+03 0.  0.
      99925    2    3    3    0    0 -0.46650311738E+02 -0.19540514689E+02  0.62437272908E+02  0.27567856185E+03  0.26370850027E+03 0.  0.
         25    1    3    3    0    0  0.46650311738E+02  0.19540514689E+02  0.24808774887E+03  0.28240595344E+03  0.12509000000E+03 0.  0.
         25    1    4    4    0    0 -0.37955947395E+02 -0.43671371480E+02  0.11855451760E+02  0.13833257919E+03  0.12509000000E+03 0.  0.
         25    1    4    4    0    0 -0.86943643434E+01  0.24130856791E+02  0.50581821149E+02  0.13734598266E+03  0.12509000000E+03 0.  0.
<mgrwt>
<rscale>  2 0.46371601E+03</rscale>
<asrwt>0</asrwt>
<pdfrwt beam="1">  1       21 0.63868348E-01 0.46371601E+03</pdfrwt>
<pdfrwt beam="2">  1       21 0.18202904E-01 0.46371601E+03</pdfrwt>
<totfact> 0.57282571E+04</totfact>
</mgrwt>
</event>
<event>
 7    0  0.4725730E-002  0.4545119E+03  0.7546771E-02  0.1026385E+00
         21   -1    0    0  502  501  0.00000000000E+00  0.00000000000E+00  0.13128215469E+03  0.13128215469E+03  0.00000000000E+00 0. -1.
         21   -1    0    0  501  502 -0.00000000000E+00 -0.00000000000E+00 -0.39339130817E+03  0.39339130817E+03  0.00000000000E+00 0. -1.
      99926    2    1    2    0    0 -0.14210854715E-13  0.00000000000E+00 -0.26210915348E+03  0.52467346287E+03  0.45451186376E+03 0.  0.
      99925    2    3    3    0    0 -0.10093421547E+03 -0.49317728052E+02 -0.15312098199E+03  0.32430908535E+03  0.26288855731E+03 0.  0.
         25    1    4    4    0    0 -0.14501053387E+02 -0.99961359593E+01 -0.89730631269E+02  0.15494933873E+03  0.12509000000E+03 0.  0.
         25    1    3    3    0    0  0.10093421547E+03  0.49317728052E+02 -0.10898817149E+03  0.20036437752E+03  0.12509000000E+03 0.  0.
         25    1    4    4    0    0 -0.86433162085E+02 -0.39321592093E+02 -0.63390350717E+02  0.16935974662E+03  0.12509000000E+03 0.  0.
<mgrwt>
<rscale>  2 0.45451186E+03</rscale>
<asrwt>0</asrwt>
<pdfrwt beam="1">  1       21 0.19306199E-01 0.45451186E+03</pdfrwt>
<pdfrwt beam="2">  1       21 0.57851664E-01 0.45451186E+03</pdfrwt>
<totfact> 0.63815111E+04</totfact>
</mgrwt>
</event>
<event>
 7    0  0.4725730E-002  0.4700278E+03  0.7546771E-02  0.1021912E+00
         21   -1    0    0  502  501  0.00000000000E+00  0.00000000000E+00  0.18785389952E+03  0.18785389952E+03  0.00000000000E+00 0.  1.
         21   -1    0    0  501  502 -0.00000000000E+00 -0.00000000000E+00 -0.29401320565E+03  0.29401320565E+03  0.00000000000E+00 0.  1.
      99926    2    1    2    0    0  0.71054273576E-14  0.00000000000E+00 -0.10615930613E+03  0.48186710517E+03  0.47002777447E+03 0.  0.
      99925    2    3    3    0    0 -0.59491737117E+02  0.11177167801E+03 -0.71600803074E+02  0.30055529358E+03  0.26301071216E+03 0.  0.
         25    1    4    4    0    0  0.10141473946E+02  0.61576582423E+02 -0.42194002371E+02  0.14602180294E+03  0.12509000000E+03 0.  0.
         25    1    3    3    0    0  0.59491737117E+02 -0.11177167801E+03 -0.34558503052E+02  0.18131181159E+03  0.12509000000E+03 0.  0.
         25    1    4    4    0    0 -0.69633211063E+02  0.50195095584E+02 -0.29406800703E+02  0.15453349065E+03  0.12509000000E+03 0.  0.
<mgrwt>
<rscale>  2 0.47002777E+03</rscale>
<asrwt>0</asrwt>
<pdfrwt beam="1">  1       21 0.27625574E-01 0.47002777E+03</pdfrwt>
<pdfrwt beam="2">  1       21 0.43237236E-01 0.47002777E+03</pdfrwt>
<totfact> 0.59184263E+04</totfact>
</mgrwt>
</event>
<event>
 7    0  0.4725730E-002  0.4505210E+03  0.7546771E-02  0.1027567E+00
         21   -1    0    0  502  501  0.00000000000E+00  0.00000000000E+00  0.38860563846E+02  0.38860563846E+02  0.00000000000E+00 0.  1.
         21   -1    0    0  501  502 -0.00000000000E+00 -0.00000000000E+00 -0.13057529736E+04  0.13057529736E+04  0.00000000000E+00 0.  1.
      99926    2    1    2    0    0  0.00000000000E+00  0.00000000000E+00 -0.12668924097E+04  0.13446135374E+04  0.45052101748E+03 0.  0.
      99925    2    3    3    0    0 -0.33735332113E+02 -0.98882677435E+02 -0.70760558398E+03  0.76206300907E+03  0.26290399537E+03 0.  0.
         25    1    3    3    0    0  0.33735332113E+02  0.98882677435E+02 -0.55928682576E+03  0.58255052836E+03  0.12509000000E+03 0.  0.
         25    1    4    4    0    0 -0.43692099270E+02 -0.20951259870E+02 -0.36950835557E+03  0.39310544103E+03  0.12509000000E+03 0.  0.
         25    1    4    4    0    0  0.99567671574E+01 -0.77931417566E+02 -0.33809722841E+03  0.36895756804E+03  0.12509000000E+03 0.  0.
<mgrwt>
<rscale>  2 0.45052102E+03</rscale>
<asrwt>0</asrwt>
<pdfrwt beam="1">  1       21 0.57147884E-02 0.45052102E+03</pdfrwt>
<pdfrwt beam="2">  1       21 0.19202251E+00 0.45052102E+03</pdfrwt>
<totfact> 0.28837057E+04</totfact>
</mgrwt>
</event>
<event>
 7    0  0.4725730E-002  0.4543009E+03  0.7546771E-02  0.1026447E+00
         21   -1    0    0  502  501  0.00000000000E+00  0.00000000000E+00  0.17031871995E+03  0.17031871995E+03  0.00000000000E+00 0. -1.
         21   -1    0    0  501  502 -0.00000000000E+00 -0.00000000000E+00 -0.30294576185E+03  0.30294576185E+03  0.00000000000E+00 0. -1.
      99926    2    1    2    0    0 -0.71054273576E-14  0.00000000000E+00 -0.13262704190E+03  0.47326448180E+03  0.45430093274E+03 0.  0.
      99925    2    3    3    0    0 -0.37026771700E+02 -0.66467489810E+02 -0.17000439848E+03  0.32215695747E+03  0.26285870867E+03 0.  0.
         25    1    3    3    0    0  0.37026771700E+02  0.66467489810E+02  0.37377356576E+02  0.15110752433E+03  0.12509000000E+03 0.  0.
         25    1    4    4    0    0 -0.40482795021E+02 -0.45709861230E+01 -0.60884105752E+02  0.14496252288E+03  0.12509000000E+03 0.  0.
         25    1    4    4    0    0  0.34560233205E+01 -0.61896503687E+02 -0.10912029273E+03  0.17719443459E+03  0.12509000000E+03 0.  0.
<mgrwt>
<rscale>  2 0.45430093E+03</rscale>
<asrwt>0</asrwt>
<pdfrwt beam="1">  1       21 0.25046871E-01 0.45430093E+03</pdfrwt>
<pdfrwt beam="2">  1       21 0.44550847E-01 0.45430093E+03</pdfrwt>
<totfact> 0.67567826E+04</totfact>
</mgrwt>
</event>
<event>
 7    0  0.4725730E-002  0.4630227E+03  0.7546771E-02  0.1023908E+00
         21   -1    0    0  502  501  0.00000000000E+00  0.00000000000E+00  0.27993222155E+03  0.27993222155E+03  0.00000000000E+00 0. -1.
         21   -1    0    0  501  502 -0.00000000000E+00 -0.00000000000E+00 -0.19146603646E+03  0.19146603646E+03  0.00000000000E+00 0. -1.
      99926    2    1    2    0    0 -0.71054273576E-14  0.00000000000E+00  0.88466185082E+02  0.47139825801E+03  0.46302273352E+03 0.  0.
      99925    2    3    3    0    0 -0.61388075080E+02 -0.92056221587E+02  0.66617641382E+01  0.28543504907E+03  0.26303221179E+03 0.  0.
         25    1    4    4    0    0  0.75398048605E+01 -0.59191816649E+02  0.86889647274E+01  0.13886513610E+03  0.12509000000E+03 0.  0.
         25    1    3    3    0    0  0.61388075080E+02  0.92056221587E+02  0.81804420944E+02  0.18596320894E+03  0.12509000000E+03 0.  0.
         25    1    4    4    0    0 -0.68927879940E+02 -0.32864404938E+02 -0.20272005892E+01  0.14656991297E+03  0.12509000000E+03 0.  0.
<mgrwt>
<rscale>  2 0.46302273E+03</rscale>
<asrwt>0</asrwt>
<pdfrwt beam="1">  1       21 0.41166503E-01 0.46302273E+03</pdfrwt>
<pdfrwt beam="2">  1       21 0.28156770E-01 0.46302273E+03</pdfrwt>
<totfact> 0.63209489E+04</totfact>
</mgrwt>
</event>
<event>
 7    0  0.4725730E-002  0.4583668E+03  0.7546771E-02  0.1025256E+00
         21   -1    0    0  502  501  0.00000000000E+00  0.00000000000E+00  0.66736007898E+02  0.66736007898E+02  0.00000000000E+00 0.  1.
         21   -1    0    0  501  502 -0.00000000000E+00 -0.00000000000E+00 -0.78705697681E+03  0.78705697681E+03  0.00000000000E+00 0.  1.
      99926    2    1    2    0    0 -0.71054273576E-14  0.00000000000E+00 -0.72032096892E+03  0.85379298471E+03  0.45836684270E+03 0.  0.
      99925    2    3    3    0    0 -0.58042799417E+02 -0.72382056507E+02 -0.32184589538E+03  0.42596355492E+03  0.26315782542E+03 0.  0.
         25    1    4    4    0    0 -0.60457671417E+02 -0.40586421489E+02 -0.12890634266E+03  0.19382141502E+03  0.12509000000E+03 0.  0.
         25    1    3    3    0    0  0.58042799417E+02  0.72382056507E+02 -0.39847507353E+03  0.42782942979E+03  0.12509000000E+03 0.  0.
         25    1    4    4    0    0  0.24148720006E+01 -0.31795635019E+02 -0.19293955272E+03  0.23214213990E+03  0.12509000000E+03 0.  0.
<mgrwt>
<rscale>  2 0.45836684E+03</rscale>
<asrwt>0</asrwt>
<pdfrwt beam="1">  1       21 0.98141192E-02 0.45836684E+03</pdfrwt>
<pdfrwt beam="2">  1       21 0.11574367E+00 0.45836684E+03</pdfrwt>
<totfact> 0.44094046E+04</totfact>
</mgrwt>
</event>
<event>
 7    0  0.4725730E-002  0.4540750E+03  0.7546771E-02  0.1026514E+00
         21   -1    0    0  502  501  0.00000000000E+00  0.00000000000E+00  0.74606988956E+03  0.74606988956E+03  0.00000000000E+00 0.  1.
         21   -1    0    0  501  502 -0.00000000000E+00 -0.00000000000E+00 -0.69090081114E+02  0.69090081114E+02  0.00000000000E+00 0.  1.
      99926    2    1    2    0    0  0.14210854715E-13 -0.71054273576E-14  0.67697980845E+03  0.81515997068E+03  0.45407501225E+03 0.  0.
      99925    2    3    3    0    0 -0.91586898671E+02  0.52275315569E+02  0.49510791983E+03  0.57052603886E+03  0.26314870342E+03 0.  0.
         25    1    4    4    0    0 -0.17649958313E+02  0.12750842379E+01  0.26593762361E+03  0.29442057438E+03  0.12509000000E+03 0.  0.
         25    1    3    3    0    0  0.91586898671E+02 -0.52275315569E+02  0.18187188862E+03  0.24463393181E+03  0.12509000000E+03 0.  0.
         25    1    4    4    0    0 -0.73936940358E+02  0.51000231331E+02  0.22917029622E+03  0.27610546448E+03  0.12509000000E+03 0.  0.
<mgrwt>
<rscale>  2 0.45407501E+03</rscale>
<asrwt>0</asrwt>
<pdfrwt beam="1">  1       21 0.10971616E+00 0.45407501E+03</pdfrwt>
<pdfrwt beam="2">  1       21 0.10160306E-01 0.45407501E+03</pdfrwt>
<totfact> 0.47383259E+04</totfact>
</mgrwt>
</event>
<event>
 7    0  0.4725730E-002  0.4689333E+03  0.7546771E-02  0.1022222E+00
         21   -1    0    0  502  501  0.00000000000E+00  0.00000000000E+00  0.16070525185E+04  0.16070525185E+04  0.00000000000E+00 0.  1.
         21   -1    0    0  501  502 -0.00000000000E+00 -0.00000000000E+00 -0.34208344947E+02  0.34208344947E+02  0.00000000000E+00 0.  1.
      99926    2    1    2    0    0  0.00000000000E+00 -0.88817841970E-15  0.15728441735E+04  0.16412608634E+04  0.46893328694E+03 0.  0.
      99925    2    3    3    0    0 -0.12261711562E+03 -0.48533194983E+01  0.10753824720E+04  0.11138386755E+04  0.26292702818E+03 0.  0.
         25    1    4    4    0    0 -0.61840340926E+02 -0.42826382625E+02  0.53380815229E+03  0.55340489550E+03  0.12509000000E+03 0.  0.
         25    1    4    4    0    0 -0.60776774695E+02  0.37973063127E+02  0.54157431970E+03  0.56043377996E+03  0.12509000000E+03 0.  0.
         25    1    3    3    0    0  0.12261711562E+03  0.48533194983E+01  0.49746170156E+03  0.52742218798E+03  0.12509000000E+03 0.  0.
<mgrwt>
<rscale>  2 0.46893329E+03</rscale>
<asrwt>0</asrwt>
<pdfrwt beam="1">  1       21 0.23633120E+00 0.46893329E+03</pdfrwt>
<pdfrwt beam="2">  1       21 0.50306400E-02 0.46893329E+03</pdfrwt>
<totfact> 0.18436619E+04</totfact>
</mgrwt>
</event>
<event>
 7    0  0.4725730E-002  0.4509084E+03  0.7546771E-02  0.1027452E+00
         21   -1    0    0  502  501  0.00000000000E+00  0.00000000000E+00  0.57968633900E+02  0.57968633900E+02  0.00000000000E+00 0. -1.
         21   -1    0    0  501  502 -0.00000000000E+00 -0.00000000000E+00 -0.87684648638E+03  0.87684648638E+03  0.00000000000E+00 0. -1.
      99926    2    1    2    0    0  0.00000000000E+00  0.71054273576E-14 -0.81887785248E+03  0.93481512028E+03  0.45090838517E+03 0.  0.
      99925    2    3    3    0    0  0.95331995945E+02  0.55386569413E+02 -0.50968987038E+03  0.58353093633E+03  0.26185631204E+03 0.  0.
         25    1    3    3    0    0 -0.95331995945E+02 -0.55386569413E+02 -0.30918798209E+03  0.35128418395E+03  0.12509000000E+03 0.  0.
         25    1    4    4    0    0  0.37190843134E+02 -0.95328562942E+01 -0.25756413697E+03  0.28889587556E+03  0.12509000000E+03 0.  0.
         25    1    4    4    0    0  0.58141152811E+02  0.64919425707E+02 -0.25212573342E+03  0.29463506077E+03  0.12509000000E+03 0.  0.
<mgrwt>
<rscale>  2 0.45090839E+03</rscale>
<asrwt>0</asrwt>
<pdfrwt beam="1">  1       21 0.85247997E-02 0.45090839E+03</pdfrwt>
<pdfrwt beam="2">  1       21 0.12894800E+00 0.45090839E+03</pdfrwt>
<totfact> 0.43125481E+04</totfact>
</mgrwt>
</event>
<event>
 7    0  0.4725730E-002  0.4507023E+03  0.7546771E-02  0.1027513E+00
         21   -1    0    0  502  501  0.00000000000E+00  0.00000000000E+00  0.74244481569E+02  0.74244481569E+02  0.00000000000E+00 0. -1.
         21   -1    0    0  501  502 -0.00000000000E+00 -0.00000000000E+00 -0.68399877074E+03  0.68399877074E+03  0.00000000000E+00 0. -1.
      99926    2    1    2    0    0  0.00000000000E+00 -0.71054273576E-14 -0.60975428917E+03  0.75824325230E+03  0.45070227036E+03 0.  0.
      99925    2    3    3    0    0 -0.90502660958E+02 -0.53574307493E+02 -0.43369487102E+03  0.51802384243E+03  0.26305231820E+03 0.  0.
         25    1    3    3    0    0  0.90502660958E+02  0.53574307493E+02 -0.17605941814E+03  0.24021940988E+03  0.12509000000E+03 0.  0.
         25    1    4    4    0    0 -0.65226034659E+02 -0.45283654251E+02 -0.17391324004E+03  0.22846962183E+03  0.12509000000E+03 0.  0.
         25    1    4    4    0    0 -0.25276626299E+02 -0.82906532416E+01 -0.25978163098E+03  0.28955422059E+03  0.12509000000E+03 0.  0.
<mgrwt>
<rscale>  2 0.45070227E+03</rscale>
<asrwt>0</asrwt>
<pdfrwt beam="1">  1       21 0.10918307E-01 0.45070227E+03</pdfrwt>
<pdfrwt beam="2">  1       21 0.10058805E+00 0.45070227E+03</pdfrwt>
<totfact> 0.51568509E+04</totfact>
</mgrwt>
</event>
<event>
 7    0  0.4725730E-002  0.4639585E+03  0.7546771E-02  0.1023639E+00
         21   -1    0    0  502  501  0.00000000000E+00  0.00000000000E+00  0.91062172859E+03  0.91062172859E+03  0.00000000000E+00 0.  1.
         21   -1    0    0  501  502 -0.00000000000E+00 -0.00000000000E+00 -0.59096288686E+02  0.59096288686E+02  0.00000000000E+00 0.  1.
      99926    2    1    2    0    0  0.00000000000E+00  0.00000000000E+00  0.85152543990E+03  0.96971801727E+03  0.46395846606E+03 0.  0.
      99925    2    3    3    0    0  0.44301682457E+02  0.71479549615E+02  0.71460898027E+03  0.76608700269E+03  0.26296641597E+03 0.  0.
         25    1    3    3    0    0 -0.44301682457E+02 -0.71479549615E+02  0.13691645963E+03  0.20363101458E+03  0.12509000000E+03 0.  0.
         25    1    4    4    0    0 -0.11616072755E+02  0.11831334835E+02  0.34932800435E+03  0.37141954224E+03  0.12509000000E+03 0.  0.
         25    1    4    4    0    0  0.55917755212E+02  0.59648214780E+02  0.36528097592E+03  0.39466746046E+03  0.12509000000E+03 0.  0.
<mgrwt>
<rscale>  2 0.46395847E+03</rscale>
<asrwt>0</asrwt>
<pdfrwt beam="1">  1       21 0.13391495E+00 0.46395847E+03</pdfrwt>
<pdfrwt beam="2">  1       21 0.86906312E-02 0.46395847E+03</pdfrwt>
<totfact> 0.37645884E+04</totfact>
</mgrwt>
</event>
<event>
 7    0  0.4725730E-002  0.4617005E+03  0.7546771E-02  0.1024289E+00
         21   -1    0    0  502  501  0.00000000000E+00  0.00000000000E+00  0.10784882646E+04  0.10784882646E+04  0.00000000000E+00 0.  1.
         21   -1    0    0  501  502 -0.00000000000E+00 -0.00000000000E+00 -0.49413456937E+02  0.49413456937E+02  0.00000000000E+00 0.  1.
      99926    2    1    2    0    0  0.14210854715E-13 -0.17763568394E-14  0.10290748076E+04  0.11279017215E+04  0.46170048047E+03 0.  0.
      99925    2    3    3    0    0  0.11482260187E+03 -0.13750360540E+02  0.57136524717E+03  0.63951780269E+03  0.26296667464E+03 0.  0.
         25    1    3    3    0    0 -0.11482260187E+03  0.13750360540E+02  0.45770956044E+03  0.48838391879E+03  0.12509000000E+03 0.  0.
         25    1    4    4    0    0  0.79472188217E+02  0.16611934387E+02  0.35822920075E+03  0.38803022232E+03  0.12509000000E+03 0.  0.
         25    1    4    4    0    0  0.35350413653E+02 -0.30362294927E+02  0.21313604642E+03  0.25148758038E+03  0.12509000000E+03 0.  0.
<mgrwt>
<rscale>  2 0.46170048E+03</rscale>
<asrwt>0</asrwt>
<pdfrwt beam="1">  1       21 0.15860120E+00 0.46170048E+03</pdfrwt>
<pdfrwt beam="2">  1       21 0.72666855E-02 0.46170048E+03</pdfrwt>
<totfact> 0.32782682E+04</totfact>
</mgrwt>
</event>
<event>
 7    0  0.4725730E-002  0.4564301E+03  0.7546771E-02  0.1025822E+00
         21   -1    0    0  502  501  0.00000000000E+00  0.00000000000E+00  0.98232932865E+02  0.98232932865E+02  0.00000000000E+00 0.  1.
         21   -1    0    0  501  502 -0.00000000000E+00 -0.00000000000E+00 -0.53018987907E+03  0.53018987907E+03  0.00000000000E+00 0.  1.
      99926    2    1    2    0    0  0.00000000000E+00  0.00000000000E+00 -0.43195694620E+03  0.62842281194E+03  0.45643009014E+03 0.  0.
      99925    2    3    3    0    0 -0.66314311050E+02  0.30177503515E+02 -0.14980466157E+03  0.31130187382E+03  0.26298127395E+03 0.  0.
         25    1    3    3    0    0  0.66314311050E+02 -0.30177503515E+02 -0.28215228463E+03  0.31712093811E+03  0.12509000000E+03 0.  0.
         25    1    4    4    0    0 -0.25727193409E+02  0.48440263178E+02 -0.10088448789E+03  0.16980440387E+03  0.12509000000E+03 0.  0.
         25    1    4    4    0    0 -0.40587117640E+02 -0.18262759663E+02 -0.48920173687E+02  0.14149746995E+03  0.12509000000E+03 0.  0.
<mgrwt>
<rscale>  2 0.45643009E+03</rscale>
<asrwt>0</asrwt>
<pdfrwt beam="1">  1       21 0.14446020E-01 0.45643009E+03</pdfrwt>
<pdfrwt beam="2">  1       21 0.77969099E-01 0.45643009E+03</pdfrwt>
<totfact> 0.56323421E+04</totfact>
</mgrwt>
</event>
<event>
 7    0  0.4725730E-002  0.4512134E+03  0.7546771E-02  0.1027361E+00
         21   -1    0    0  502  501  0.00000000000E+00  0.00000000000E+00  0.10983007208E+03  0.10983007208E+03  0.00000000000E+00 0. -1.
         21   -1    0    0  501  502 -0.00000000000E+00 -0.00000000000E+00 -0.46342839604E+03  0.46342839604E+03  0.00000000000E+00 0. -1.
      99926    2    1    2    0    0 -0.14210854715E-13  0.00000000000E+00 -0.35359832396E+03  0.57325846812E+03  0.45121336035E+03 0.  0.
      99925    2    3    3    0    0  0.85049197081E+02  0.69251175541E+02 -0.22715789417E+03  0.36429966447E+03  0.26283920067E+03 0.  0.
         25    1    3    3    0    0 -0.85049197081E+02 -0.69251175541E+02 -0.12644042979E+03  0.20895880365E+03  0.12509000000E+03 0.  0.
         25    1    4    4    0    0  0.78374806298E+02  0.58906881635E+02 -0.12047358382E+03  0.19943425850E+03  0.12509000000E+03 0.  0.
         25    1    4    4    0    0  0.66743907832E+01  0.10344293907E+02 -0.10668431036E+03  0.16486540597E+03  0.12509000000E+03 0.  0.
<mgrwt>
<rscale>  2 0.45121336E+03</rscale>
<asrwt>0</asrwt>
<pdfrwt beam="1">  1       21 0.16151481E-01 0.45121336E+03</pdfrwt>
<pdfrwt beam="2">  1       21 0.68151235E-01 0.45121336E+03</pdfrwt>
<totfact> 0.62196657E+04</totfact>
</mgrwt>
</event>
<event>
 7    0  0.4725730E-002  0.4516557E+03  0.7546771E-02  0.1027229E+00
         21   -1    0    0  502  501  0.00000000000E+00  0.00000000000E+00  0.18163968902E+03  0.18163968902E+03  0.00000000000E+00 0. -1.
         21   -1    0    0  501  502 -0.00000000000E+00 -0.00000000000E+00 -0.28076587646E+03  0.28076587646E+03  0.00000000000E+00 0. -1.
      99926    2    1    2    0    0 -0.35527136788E-14  0.00000000000E+00 -0.99126187435E+02  0.46240556548E+03  0.45165573831E+03 0.  0.
      99925    2    3    3    0    0  0.20601175400E+02 -0.28914526848E+02 -0.16916974528E+03  0.31470970777E+03  0.26298923771E+03 0.  0.
         25    1    4    4    0    0 -0.12199563122E+02 -0.31226880620E+02 -0.11932989178E+03  0.17609962688E+03  0.12509000000E+03 0.  0.
         25    1    4    4    0    0  0.32800738521E+02  0.23123537719E+01 -0.49839853499E+02  0.13861008089E+03  0.12509000000E+03 0.  0.
         25    1    3    3    0    0 -0.20601175400E+02  0.28914526848E+02  0.70043557843E+02  0.14769585771E+03  0.12509000000E+03 0.  0.
<mgrwt>
<rscale>  2 0.45165574E+03</rscale>
<asrwt>0</asrwt>
<pdfrwt beam="1">  1       21 0.26711720E-01 0.45165574E+03</pdfrwt>
<pdfrwt beam="2">  1       21 0.41289099E-01 0.45165574E+03</pdfrwt>
<totfact> 0.69839545E+04</totfact>
</mgrwt>
</event>
<event>
 6    0  0.4725730E-002  0.4555979E+03  0.7546771E-02  0.1026066E+00
         21   -1    0    0  502  501  0.00000000000E+00  0.00000000000E+00  0.33399888172E+02  0.33399888172E+02  0.00000000000E+00 0.  1.
         21   -1    0    0  501  502 -0.00000000000E+00 -0.00000000000E+00 -0.15536684741E+04  0.15536684741E+04  0.00000000000E+00 0.  1.
      99926    2    1    2    0    0 -0.71054273576E-14  0.00000000000E+00 -0.15202685859E+04  0.15870683623E+04  0.45559786343E+03 0.  0.
         25    1    3    3    0    0  0.34500496079E+02  0.46607868976E+01 -0.43699098898E+03  0.45587349091E+03  0.12509000000E+03 0.  0.
         25    1    3    3    0    0 -0.50452914498E+02 -0.74826479800E+02 -0.33066252749E+03  0.36486944767E+03  0.12509000000E+03 0.  0.
         25    1    3    3    0    0  0.15952418419E+02  0.70165692902E+02 -0.75261506945E+03  0.76632542368E+03  0.12509000000E+03 0.  0.
<mgrwt>
<rscale>  2 0.45559786E+03</rscale>
<asrwt>0</asrwt>
<pdfrwt beam="1">  1       21 0.49117465E-02 0.45559786E+03</pdfrwt>
<pdfrwt beam="2">  1       21 0.22848074E+00 0.45559786E+03</pdfrwt>
<totfact> 0.21622934E+04</totfact>
</mgrwt>
</event>
<event>
 7    0  0.4725730E-002  0.4395674E+03  0.7546771E-02  0.1030880E+00
         21   -1    0    0  502  501  0.00000000000E+00  0.00000000000E+00  0.91520891309E+02  0.91520891309E+02  0.00000000000E+00 0. -1.
         21   -1    0    0  501  502 -0.00000000000E+00 -0.00000000000E+00 -0.52780171227E+03  0.52780171227E+03  0.00000000000E+00 0. -1.
      99926    2    1    2    0    0 -0.14210854715E-13  0.00000000000E+00 -0.43628082096E+03  0.61932260357E+03  0.43956743802E+03 0.  0.
      99925    2    3    3    0    0 -0.75206707479E+02 -0.58021295979E+02 -0.31193300828E+03  0.41899186141E+03  0.26311491527E+03 0.  0.
         25    1    3    3    0    0  0.75206707479E+02  0.58021295979E+02 -0.12434781268E+03  0.20033074216E+03  0.12509000000E+03 0.  0.
         25    1    4    4    0    0 -0.35936539571E+01 -0.10348706015E+02 -0.16842743164E+03  0.21008407340E+03  0.12509000000E+03 0.  0.
         25    1    4    4    0    0 -0.71613053522E+02 -0.47672589964E+02 -0.14350557663E+03  0.20890778802E+03  0.12509000000E+03 0.  0.
<mgrwt>
<rscale>  2 0.43956744E+03</rscale>
<asrwt>0</asrwt>
<pdfrwt beam="1">  1       21 0.13458955E-01 0.43956744E+03</pdfrwt>
<pdfrwt beam="2">  1       21 0.77617899E-01 0.43956744E+03</pdfrwt>
<totfact> 0.65079384E+04</totfact>
</mgrwt>
</event>
<event>
 7    0  0.4725730E-002  0.4492294E+03  0.7546771E-02  0.1027952E+00
         21   -1    0    0  502  501  0.00000000000E+00  0.00000000000E+00  0.22451955084E+03  0.22451955084E+03  0.00000000000E+00 0. -1.
         21   -1    0    0  501  502 -0.00000000000E+00 -0.00000000000E+00 -0.22470992353E+03  0.22470992353E+03  0.00000000000E+00 0. -1.
      99926    2    1    2    0    0  0.00000000000E+00  0.17763568394E-14 -0.19037269298E+00  0.44922947437E+03  0.44922943403E+03 0.  0.
      99925    2    3    3    0    0  0.41372235169E+02  0.15091353270E+02 -0.98312988559E+02  0.28425988132E+03  0.26305669660E+03 0.  0.
         25    1    3    3    0    0 -0.41372235169E+02 -0.15091353270E+02  0.98122615866E+02  0.16496959305E+03  0.12509000000E+03 0.  0.
         25    1    4    4    0    0 -0.18176704954E+02  0.20576170099E+02 -0.47507520063E+02  0.13659518272E+03  0.12509000000E+03 0.  0.
         25    1    4    4    0    0  0.59548940123E+02 -0.54848168293E+01 -0.50805468496E+02  0.14766469861E+03  0.12509000000E+03 0.  0.
<mgrwt>
<rscale>  2 0.44922943E+03</rscale>
<asrwt>0</asrwt>
<pdfrwt beam="1">  1       21 0.33017581E-01 0.44922943E+03</pdfrwt>
<pdfrwt beam="2">  1       21 0.33045577E-01 0.44922943E+03</pdfrwt>
<totfact> 0.72239911E+04</totfact>
</mgrwt>
</event>
<event>
 7    0  0.4725730E-002  0.4534826E+03  0.7546771E-02  0.1026689E+00
         21   -1    0    0  502  501  0.00000000000E+00  0.00000000000E+00  0.56727509944E+03  0.56727509944E+03  0.00000000000E+00 0. -1.
         21   -1    0    0  501  502 -0.00000000000E+00 -0.00000000000E+00 -0.90629066528E+02  0.90629066528E+02  0.00000000000E+00 0. -1.
      99926    2    1    2    0    0  0.00000000000E+00  0.00000000000E+00  0.47664603291E+03  0.65790416597E+03  0.45348258060E+03 0.  0.
      99925    2    3    3    0    0  0.53750246102E+02  0.24964160142E+02  0.43769418708E+03  0.51410898997E+03  0.26309609255E+03 0.  0.
         25    1    4    4    0    0  0.47016332932E+02  0.47091991582E+02  0.21093817913E+03  0.25410748661E+03  0.12509000000E+03 0.  0.
         25    1    4    4    0    0  0.67339131705E+01 -0.22127831440E+02  0.22675600794E+03  0.26000150336E+03  0.12509000000E+03 0.  0.
         25    1    3    3    0    0 -0.53750246102E+02 -0.24964160142E+02  0.38951845838E+02  0.14379517600E+03  0.12509000000E+03 0.  0.
<mgrwt>
<rscale>  2 0.45348258E+03</rscale>
<asrwt>0</asrwt>
<pdfrwt beam="1">  1       21 0.83422807E-01 0.45348258E+03</pdfrwt>
<pdfrwt beam="2">  1       21 0.13327804E-01 0.45348258E+03</pdfrwt>
<totfact> 0.55914318E+04</totfact>
</mgrwt>
</event>
<event>
 7    0  0.4725730E-002  0.4362732E+03  0.7546771E-02  0.1031896E+00
         21   -1    0    0  502  501  0.00000000000E+00  0.00000000000E+00  0.39620345615E+02  0.39620345615E+02  0.00000000000E+00 0.  1.
         21   -1    0    0  501  502 -0.00000000000E+00 -0.00000000000E+00 -0.12009881831E+04  0.12009881831E+04  0.00000000000E+00 0.  1.
      99926    2    1    2    0    0  0.00000000000E+00  0.00000000000E+00 -0.11613678374E+04  0.12406085287E+04  0.43627315706E+03 0.  0.
      99925    2    3    3    0    0  0.72930694436E+02  0.59325354106E+02 -0.77019065648E+03  0.81929453788E+03  0.26308080249E+03 0.  0.
         25    1    3    3    0    0 -0.72930694436E+02 -0.59325354106E+02 -0.39117718097E+03  0.42131399080E+03  0.12509000000E+03 0.  0.
         25    1    4    4    0    0  0.60530974952E+02  0.32386517751E+02 -0.30604685978E+03  0.33767598958E+03  0.12509000000E+03 0.  0.
         25    1    4    4    0    0  0.12399719485E+02  0.26938836355E+02 -0.46414379670E+03  0.48161854830E+03  0.12509000000E+03 0.  0.
<mgrwt>
<rscale>  2 0.43627316E+03</rscale>
<asrwt>0</asrwt>
<pdfrwt beam="1">  1       21 0.58265212E-02 0.43627316E+03</pdfrwt>
<pdfrwt beam="2">  1       21 0.17661592E+00 0.43627316E+03</pdfrwt>
<totfact> 0.35834189E+04</totfact>
</mgrwt>
</event>
<event>
 7    0  0.4725730E-002  0.4636356E+03  0.7546771E-02  0.1023732E+00
         21   -1    0    0  502  501  0.00000000000E+00  0.00000000000E+00  0.30780026799E+03  0.30780026799E+03  0.00000000000E+00 0. -1.
         21   -1    0    0  501  502 -0.00000000000E+00 -0.00000000000E+00 -0.17459211853E+03  0.17459211853E+03  0.00000000000E+00 0. -1.
      99926    2    1    2    0    0  0.00000000000E+00  0.14210854715E-13  0.13320814946E+03  0.48239238652E+03  0.46363563656E+03 0.  0.
      99925    2    3    3    0    0 -0.83579081457E+02 -0.81938440203E+02  0.11557238354E+03  0.31017769731E+03  0.26297120989E+03 0.  0.
         25    1    3    3    0    0  0.83579081457E+02  0.81938440203E+02  0.17635765915E+02  0.17221468921E+03  0.12509000000E+03 0.  0.
         25    1    4    4    0    0 -0.78557777768E+02 -0.58279023033E+02  0.80496436278E+02  0.17803076511E+03  0.12509000000E+03 0.  0.
         25    1    4    4    0    0 -0.50213036887E+01 -0.23659417170E+02  0.35075947266E+02  0.13214693219E+03  0.12509000000E+03 0.  0.
<mgrwt>
<rscale>  2 0.46363564E+03</rscale>
<asrwt>0</asrwt>
<pdfrwt beam="1">  1       21 0.45264745E-01 0.46363564E+03</pdfrwt>
<pdfrwt beam="2">  1       21 0.25675311E-01 0.46363564E+03</pdfrwt>
<totfact> 0.62155846E+04</totfact>
</mgrwt>
</event>
<event>
 7    0  0.4725730E-002  0.4593122E+03  0.7546771E-02  0.1024981E+00
         21   -1    0    0  502  501  0.00000000000E+00  0.00000000000E+00  0.35567630625E+03  0.35567630625E+03  0.00000000000E+00 0.  1.
         21   -1    0    0  501  502 -0.00000000000E+00 -0.00000000000E+00 -0.14828630332E+03  0.14828630332E+03  0.00000000000E+00 0.  1.
      99926    2    1    2    0    0  0.00000000000E+00  0.00000000000E+00  0.20739000293E+03  0.50396260957E+03  0.45931220159E+03 0.  0.
      99925    2    3    3    0    0  0.50626752853E+02 -0.92633992785E+02  0.73832472962E+02  0.29270625668E+03  0.26283377620E+03 0.  0.
         25    1    4    4    0    0 -0.15337299793E+01 -0.20556515012E+02  0.54480521758E+02  0.13798752838E+03  0.12509000000E+03 0.  0.
         25    1    4    4    0    0  0.52160482833E+02 -0.72077477773E+02  0.19351951204E+02  0.15471872830E+03  0.12509000000E+03 0.  0.
         25    1    3    3    0    0 -0.50626752853E+02  0.92633992785E+02  0.13355752997E+03  0.21125635289E+03  0.12509000000E+03 0.  0.
<mgrwt>
<rscale>  2 0.45931220E+03</rscale>
<asrwt>0</asrwt>
<pdfrwt beam="1">  1       21 0.52305339E-01 0.45931220E+03</pdfrwt>
<pdfrwt beam="2">  1       21 0.21806809E-01 0.45931220E+03</pdfrwt>
<totfact> 0.62815329E+04</totfact>
</mgrwt>
</event>
<event>
 7    0  0.4725730E-002  0.5166038E+03  0.7546771E-02  0.1009534E+00
         21   -1    0    0  502  501  0.00000000000E+00  0.00000000000E+00  0.98137172802E+02  0.98137172802E+02  0.00000000000E+00 0.  1.
         21   -1    0    0  501  502 -0.00000000000E+00 -0.00000000000E+00 -0.67986349814E+03  0.67986349814E+03  0.00000000000E+00 0.  1.
      99926    2    1    2    0    0 -0.35527136788E-14  0.28421709430E-13 -0.58172632533E+03  0.77800067094E+03  0.51660383893E+03 0.  0.
      99925    2    3    3    0    0  0.28701161577E+02 -0.14050277611E+03 -0.46986622724E+03  0.55726332381E+03  0.26306530329E+03 0.  0.
         25    1    4    4    0    0 -0.19414985162E+02 -0.88056528738E+02 -0.27068974384E+03  0.31153063962E+03  0.12509000000E+03 0.  0.
         25    1    3    3    0    0 -0.28701161577E+02  0.14050277611E+03 -0.11186009810E+03  0.22073734713E+03  0.12509000000E+03 0.  0.
         25    1    4    4    0    0  0.48116146739E+02 -0.52446247374E+02 -0.19917648340E+03  0.24573268419E+03  0.12509000000E+03 0.  0.
<mgrwt>
<rscale>  2 0.51660384E+03</rscale>
<asrwt>0</asrwt>
<pdfrwt beam="1">  1       21 0.14431936E-01 0.51660384E+03</pdfrwt>
<pdfrwt beam="2">  1       21 0.99979931E-01 0.51660384E+03</pdfrwt>
<totfact> 0.30941319E+04</totfact>
</mgrwt>
</event>
<event>
 7    0  0.4725730E-002  0.4352192E+03  0.7546771E-02  0.1032224E+00
         21   -1    0    0  502  501  0.00000000000E+00  0.00000000000E+00  0.69169271620E+02  0.69169271620E+02  0.00000000000E+00 0.  1.
         21   -1    0    0  501  502 -0.00000000000E+00 -0.00000000000E+00 -0.68460935339E+03  0.68460935339E+03  0.00000000000E+00 0.  1.
      99926    2    1    2    0    0  0.00000000000E+00  0.00000000000E+00 -0.61544008177E+03  0.75377862501E+03  0.43521916464E+03 0.  0.
      99925    2    3    3    0    0  0.22105008910E+02  0.23383628275E+02 -0.54666275657E+03  0.60744594222E+03  0.26289727615E+03 0.  0.
         25    1    4    4    0    0  0.13418993670E+02 -0.15775247792E+02 -0.20084735407E+03  0.23752072661E+03  0.12509000000E+03 0.  0.
         25    1    4    4    0    0  0.86860152402E+01  0.39158876067E+02 -0.34581540250E+03  0.36992521561E+03  0.12509000000E+03 0.  0.
         25    1    3    3    0    0 -0.22105008910E+02 -0.23383628275E+02 -0.68777325196E+02  0.14633268279E+03  0.12509000000E+03 0.  0.
<mgrwt>
<rscale>  2 0.43521916E+03</rscale>
<asrwt>0</asrwt>
<pdfrwt beam="1">  1       21 0.10171951E-01 0.43521916E+03</pdfrwt>
<pdfrwt beam="2">  1       21 0.10067785E+00 0.43521916E+03</pdfrwt>
<totfact> 0.58677934E+04</totfact>
</mgrwt>
</event>
<event>
 7    0  0.4725730E-002  0.4492774E+03  0.7546771E-02  0.1027938E+00
         21   -1    0    0  502  501  0.00000000000E+00  0.00000000000E+00  0.13385270403E+03  0.13385270403E+03  0.00000000000E+00 0.  1.
         21   -1    0    0  501  502 -0.00000000000E+00 -0.00000000000E+00 -0.37700059924E+03  0.37700059924E+03  0.00000000000E+00 0.  1.
      99926    2    1    2    0    0  0.00000000000E+00  0.35527136788E-14 -0.24314789521E+03  0.51085330327E+03  0.44927741822E+03 0.  0.
      99925    2    3    3    0    0  0.10146886978E+03 -0.11817752088E+02 -0.11484880818E+03  0.30459192873E+03  0.26296464307E+03 0.  0.
         25    1    4    4    0    0  0.64685198217E+02  0.21069466783E+02 -0.29780477279E+02  0.14547330417E+03  0.12509000000E+03 0.  0.
         25    1    3    3    0    0 -0.10146886978E+03  0.11817752088E+02 -0.12829908702E+03  0.20626137455E+03  0.12509000000E+03 0.  0.
         25    1    4    4    0    0  0.36783671562E+02 -0.32887218871E+02 -0.85068330904E+02  0.15911862456E+03  0.12509000000E+03 0.  0.
<mgrwt>
<rscale>  2 0.44927742E+03</rscale>
<asrwt>0</asrwt>
<pdfrwt beam="1">  1       21 0.19684222E-01 0.44927742E+03</pdfrwt>
<pdfrwt beam="2">  1       21 0.55441263E-01 0.44927742E+03</pdfrwt>
<totfact> 0.67529544E+04</totfact>
</mgrwt>
</event>
<event>
 7    0  0.4725730E-002  0.4847717E+03  0.7546771E-02  0.1017832E+00
         21   -1    0    0  502  501  0.00000000000E+00  0.00000000000E+00  0.20506030856E+03  0.20506030856E+03  0.00000000000E+00 0. -1.
         21   -1    0    0  501  502 -0.00000000000E+00 -0.00000000000E+00 -0.28650551294E+03  0.28650551294E+03  0.00000000000E+00 0. -1.
      99926    2    1    2    0    0 -0.71054273576E-14 -0.28421709430E-13 -0.81445204381E+02  0.49156582150E+03  0.48477173551E+03 0.  0.
      99925    2    3    3    0    0  0.52252099164E+02 -0.12836146492E+03 -0.60182266252E+02  0.30366540058E+03  0.26340809174E+03 0.  0.
         25    1    4    4    0    0  0.42954039259E+02 -0.10729480779E+03 -0.29801296833E+02  0.17289549057E+03  0.12509000000E+03 0.  0.
         25    1    4    4    0    0  0.92980599049E+01 -0.21066657126E+02 -0.30380969419E+02  0.13076991001E+03  0.12509000000E+03 0.  0.
         25    1    3    3    0    0 -0.52252099164E+02  0.12836146492E+03 -0.21262938129E+02  0.18790042092E+03  0.12509000000E+03 0.  0.
<mgrwt>
<rscale>  2 0.48477174E+03</rscale>
<asrwt>0</asrwt>
<pdfrwt beam="1">  1       21 0.30155928E-01 0.48477174E+03</pdfrwt>
<pdfrwt beam="2">  1       21 0.42133163E-01 0.48477174E+03</pdfrwt>
<totfact> 0.52351495E+04</totfact>
</mgrwt>
</event>
<event>
 7    0  0.4725730E-002  0.4524771E+03  0.7546771E-02  0.1026986E+00
         21   -1    0    0  502  501  0.00000000000E+00  0.00000000000E+00  0.41252046875E+03  0.41252046875E+03  0.00000000000E+00 0. -1.
         21   -1    0    0  501  502 -0.00000000000E+00 -0.00000000000E+00 -0.12407598025E+03  0.12407598025E+03  0.00000000000E+00 0. -1.
      99926    2    1    2    0    0 -0.35527136788E-14  0.00000000000E+00  0.28844448850E+03  0.53659644900E+03  0.45247710012E+03 0.  0.
      99925    2    3    3    0    0  0.17677626178E+02  0.20425835928E+02  0.54488894710E+02  0.26992728842E+03  0.26298666914E+03 0.  0.
         25    1    4    4    0    0 -0.28934367590E+02  0.18319697522E+02  0.39526097679E+02  0.13558255582E+03  0.12509000000E+03 0.  0.
         25    1    3    3    0    0 -0.17677626178E+02 -0.20425835928E+02  0.23395559379E+03  0.26666916059E+03  0.12509000000E+03 0.  0.
         25    1    4    4    0    0  0.46611993768E+02  0.21061384056E+01  0.14962797031E+02  0.13434473260E+03  0.12509000000E+03 0.  0.
<mgrwt>
<rscale>  2 0.45247710E+03</rscale>
<asrwt>0</asrwt>
<pdfrwt beam="1">  1       21 0.60664775E-01 0.45247710E+03</pdfrwt>
<pdfrwt beam="2">  1       21 0.18246468E-01 0.45247710E+03</pdfrwt>
<totfact> 0.64029997E+04</totfact>
</mgrwt>
</event>
<event>
 7    0  0.4725730E-002  0.4563889E+03  0.7546771E-02  0.1025834E+00
         21   -1    0    0  502  501  0.00000000000E+00  0.00000000000E+00  0.20020403706E+03  0.20020403706E+03  0.00000000000E+00 0.  1.
         21   -1    0    0  501  502 -0.00000000000E+00 -0.00000000000E+00 -0.26009816128E+03  0.26009816128E+03  0.00000000000E+00 0.  1.
      99926    2    1    2    0    0  0.00000000000E+00  0.00000000000E+00 -0.59894124220E+02  0.46030219834E+03  0.45638887769E+03 0.  0.
      99925    2    3    3    0    0  0.70004032999E+02 -0.69146992948E+02  0.21336024944E+02  0.28161891288E+03  0.26300592172E+03 0.  0.
         25    1    3    3    0    0 -0.70004032999E+02  0.69146992948E+02 -0.81230149164E+02  0.17868328546E+03  0.12509000000E+03 0.  0.
         25    1    4    4    0    0  0.43550273398E+02  0.25174317674E+01  0.25857358247E+02  0.13497805322E+03  0.12509000000E+03 0.  0.
         25    1    4    4    0    0  0.26453759601E+02 -0.71664424716E+02 -0.45213333034E+01  0.14664085966E+03  0.12509000000E+03 0.  0.
<mgrwt>
<rscale>  2 0.45638888E+03</rscale>
<asrwt>0</asrwt>
<pdfrwt beam="1">  1       21 0.29441770E-01 0.45638888E+03</pdfrwt>
<pdfrwt beam="2">  1       21 0.38249729E-01 0.45638888E+03</pdfrwt>
<totfact> 0.67408816E+04</totfact>
</mgrwt>
</event>
<event>
 7    0  0.4725730E-002  0.4536964E+03  0.7546771E-02  0.1026625E+00
         21   -1    0    0  502  501  0.00000000000E+00  0.00000000000E+00  0.19442690393E+03  0.19442690393E+03  0.00000000000E+00 0. -1.
         21   -1    0    0  501  502 -0.00000000000E+00 -0.00000000000E+00 -0.26467585620E+03  0.26467585620E+03  0.00000000000E+00 0. -1.
      99926    2    1    2    0    0  0.00000000000E+00  0.17763568394E-14 -0.70248952274E+02  0.45910276013E+03  0.45369640627E+03 0.  0.
      99925    2    3    3    0    0  0.37805441000E+02  0.14171173323E+02  0.61385454772E+02  0.27307803397E+03  0.26300829846E+03 0.  0.
         25    1    3    3    0    0 -0.37805441000E+02 -0.14171173323E+02 -0.13163440705E+03  0.18602472615E+03  0.12509000000E+03 0.  0.
         25    1    4    4    0    0 -0.64944246386E+01  0.31539470596E+02  0.50893923482E+02  0.13883304831E+03  0.12509000000E+03 0.  0.
         25    1    4    4    0    0  0.44299865639E+02 -0.17368297272E+02  0.10491531290E+02  0.13424498566E+03  0.12509000000E+03 0.  0.
<mgrwt>
<rscale>  2 0.45369641E+03</rscale>
<asrwt>0</asrwt>
<pdfrwt beam="1">  1       21 0.28592192E-01 0.45369641E+03</pdfrwt>
<pdfrwt beam="2">  1       21 0.38922920E-01 0.45369641E+03</pdfrwt>
<totfact> 0.68960093E+04</totfact>
</mgrwt>
</event>
<event>
 7    0  0.4725730E-002  0.4532773E+03  0.7546771E-02  0.1026749E+00
         21   -1    0    0  502  501  0.00000000000E+00  0.00000000000E+00  0.14206144186E+03  0.14206144186E+03  0.00000000000E+00 0.  1.
         21   -1    0    0  501  502 -0.00000000000E+00 -0.00000000000E+00 -0.36156939765E+03  0.36156939765E+03  0.00000000000E+00 0.  1.
      99926    2    1    2    0    0  0.00000000000E+00  0.00000000000E+00 -0.21950795579E+03  0.50363083952E+03  0.45327726598E+03 0.  0.
      99925    2    3    3    0    0 -0.99733334702E+02 -0.37735755789E+02 -0.17479039203E+03  0.33328444559E+03  0.26297550306E+03 0.  0.
         25    1    4    4    0    0 -0.17463747166E+02 -0.13115301907E+02 -0.11112001938E+03  0.16873695628E+03  0.12509000000E+03 0.  0.
         25    1    4    4    0    0 -0.82269587536E+02 -0.24620453882E+02 -0.63670372655E+02  0.16454748931E+03  0.12509000000E+03 0.  0.
         25    1    3    3    0    0  0.99733334702E+02  0.37735755789E+02 -0.44717563758E+02  0.17034639393E+03  0.12509000000E+03 0.  0.
<mgrwt>
<rscale>  2 0.45327727E+03</rscale>
<asrwt>0</asrwt>
<pdfrwt beam="1">  1       21 0.20891389E-01 0.45327727E+03</pdfrwt>
<pdfrwt beam="2">  1       21 0.53171970E-01 0.45327727E+03</pdfrwt>
<totfact> 0.65913022E+04</totfact>
</mgrwt>
</event>
<event>
 7    0  0.4725730E-002  0.4537904E+03  0.7546771E-02  0.1026598E+00
         21   -1    0    0  502  501  0.00000000000E+00  0.00000000000E+00  0.22144437175E+03  0.22144437175E+03  0.00000000000E+00 0. -1.
         21   -1    0    0  501  502 -0.00000000000E+00 -0.00000000000E+00 -0.23248023639E+03  0.23248023639E+03  0.00000000000E+00 0. -1.
      99926    2    1    2    0    0  0.00000000000E+00  0.44408920985E-15 -0.11035864641E+02  0.45392460815E+03  0.45379043575E+03 0.  0.
      99925    2    3    3    0    0  0.60347209829E+02 -0.27350064852E+01  0.87369400073E+02  0.28368838927E+03  0.26305213199E+03 0.  0.
         25    1    4    4    0    0 -0.64084110569E+00  0.47280807118E+00  0.70164605331E+02  0.14342668568E+03  0.12509000000E+03 0.  0.
         25    1    4    4    0    0  0.60988050934E+02 -0.32078145563E+01  0.17204794741E+02  0.14026170359E+03  0.12509000000E+03 0.  0.
         25    1    3    3    0    0 -0.60347209829E+02  0.27350064852E+01 -0.98405264713E+02  0.17023621888E+03  0.12509000000E+03 0.  0.
<mgrwt>
<rscale>  2 0.45379044E+03</rscale>
<asrwt>0</asrwt>
<pdfrwt beam="1">  1       21 0.32565349E-01 0.45379044E+03</pdfrwt>
<pdfrwt beam="2">  1       21 0.34188270E-01 0.45379044E+03</pdfrwt>
<totfact> 0.69290971E+04</totfact>
</mgrwt>
</event>
<event>
 7    0  0.4725730E-002  0.4502078E+03  0.7546771E-02  0.1027660E+00
         21   -1    0    0  502  501  0.00000000000E+00  0.00000000000E+00  0.27804412704E+03  0.27804412704E+03  0.00000000000E+00 0.  1.
         21   -1    0    0  501  502 -0.00000000000E+00 -0.00000000000E+00 -0.18224357963E+03  0.18224357963E+03  0.00000000000E+00 0.  1.
      99926    2    1    2    0    0  0.00000000000E+00  0.00000000000E+00  0.95800547410E+02  0.46028770666E+03  0.45020776095E+03 0.  0.
      99925    2    3    3    0    0 -0.74152519402E+02 -0.77724933123E+02  0.44656186520E+02  0.28765220882E+03  0.26307766322E+03 0.  0.
         25    1    4    4    0    0 -0.58711193086E+02 -0.27624765994E+02  0.55801431256E+02  0.15156331918E+03  0.12509000000E+03 0.  0.
         25    1    4    4    0    0 -0.15441326316E+02 -0.50100167129E+02 -0.11145244736E+02  0.13608888965E+03  0.12509000000E+03 0.  0.
         25    1    3    3    0    0  0.74152519402E+02  0.77724933123E+02  0.51144360890E+02  0.17263549784E+03  0.12509000000E+03 0.  0.
<mgrwt>
<rscale>  2 0.45020776E+03</rscale>
<asrwt>0</asrwt>
<pdfrwt beam="1">  1       21 0.40888842E-01 0.45020776E+03</pdfrwt>
<pdfrwt beam="2">  1       21 0.26800526E-01 0.45020776E+03</pdfrwt>
<totfact> 0.70819480E+04</totfact>
</mgrwt>
</event>
<event>
 7    0  0.4725730E-002  0.4529920E+03  0.7546771E-02  0.1026834E+00
         21   -1    0    0  502  501  0.00000000000E+00  0.00000000000E+00  0.15826100332E+03  0.15826100332E+03  0.00000000000E+00 0. -1.
         21   -1    0    0  501  502 -0.00000000000E+00 -0.00000000000E+00 -0.32415086490E+03  0.32415086490E+03  0.00000000000E+00 0. -1.
      99926    2    1    2    0    0  0.00000000000E+00  0.53290705182E-14 -0.16588986158E+03  0.48241186822E+03  0.45299201365E+03 0.  0.
      99925    2    3    3    0    0  0.66329403633E+02 -0.86241352941E+01 -0.19926551219E+03  0.33668813080E+03  0.26301746629E+03 0.  0.
         25    1    4    4    0    0  0.42090888733E+02 -0.42267020646E+02 -0.87532579655E+02  0.16391340564E+03  0.12509000000E+03 0.  0.
         25    1    4    4    0    0  0.24238514900E+02  0.33642885352E+02 -0.11173293253E+03  0.17277472515E+03  0.12509000000E+03 0.  0.
         25    1    3    3    0    0 -0.66329403633E+02  0.86241352941E+01  0.33375650613E+02  0.14572373743E+03  0.12509000000E+03 0.  0.
<mgrwt>
<rscale>  2 0.45299201E+03</rscale>
<asrwt>0</asrwt>
<pdfrwt beam="1">  1       21 0.23273677E-01 0.45299201E+03</pdfrwt>
<pdfrwt beam="2">  1       21 0.47669244E-01 0.45299201E+03</pdfrwt>
<totfact> 0.67596005E+04</totfact>
</mgrwt>
</event>
<event>
 7    0  0.4725730E-002  0.4557199E+03  0.7546771E-02  0.1026030E+00
         21   -1    0    0  502  501  0.00000000000E+00  0.00000000000E+00  0.12782936864E+03  0.12782936864E+03  0.00000000000E+00 0.  1.
         21   -1    0    0  501  502 -0.00000000000E+00 -0.00000000000E+00 -0.40616770306E+03  0.40616770306E+03  0.00000000000E+00 0.  1.
      99926    2    1    2    0    0 -0.14210854715E-13 -0.71054273576E-14 -0.27833833442E+03  0.53399707171E+03  0.45571991857E+03 0.  0.
      99925    2    3    3    0    0 -0.10772856595E+03 -0.36000570891E+02 -0.16563567622E+03  0.33089393955E+03  0.26297174177E+03 0.  0.
         25    1    3    3    0    0  0.10772856595E+03  0.36000570891E+02 -0.11270265820E+03  0.20310313216E+03  0.12509000000E+03 0.  0.
         25    1    4    4    0    0 -0.24218883301E+02  0.97360384851E+01 -0.57734054193E+02  0.14022151713E+03  0.12509000000E+03 0.  0.
         25    1    4    4    0    0 -0.83509682653E+02 -0.45736609377E+02 -0.10790162203E+03  0.19067242242E+03  0.12509000000E+03 0.  0.
<mgrwt>
<rscale>  2 0.45571992E+03</rscale>
<asrwt>0</asrwt>
<pdfrwt beam="1">  1       21 0.18798437E-01 0.45571992E+03</pdfrwt>
<pdfrwt beam="2">  1       21 0.59730544E-01 0.45571992E+03</pdfrwt>
<totfact> 0.62578886E+04</totfact>
</mgrwt>
</event>
<event>
 7    0  0.4725730E-002  0.4303597E+03  0.7546771E-02  0.1033746E+00
         21   -1    0    0  502  501  0.00000000000E+00  0.00000000000E+00  0.11083941488E+04  0.11083941488E+04  0.00000000000E+00 0. -1.
         21   -1    0    0  501  502 -0.00000000000E+00 -0.00000000000E+00 -0.41774271762E+02  0.41774271762E+02  0.00000000000E+00 0. -1.
      99926    2    1    2    0    0 -0.35527136788E-14  0.00000000000E+00  0.10666198771E+04  0.11501684206E+04  0.43035965607E+03 0.  0.
      99925    2    3    3    0    0 -0.22311300639E+02 -0.74123390352E+02  0.79984436553E+03  0.84552313047E+03  0.26299483639E+03 0.  0.
         25    1    3    3    0    0  0.22311300639E+02  0.74123390352E+02  0.26677551154E+03  0.30464529012E+03  0.12509000000E+03 0.  0.
         25    1    4    4    0    0 -0.50434640922E+02 -0.27407432232E+02  0.41055195068E+03  0.43300719700E+03  0.12509000000E+03 0.  0.
         25    1    4    4    0    0  0.28123340283E+02 -0.46715958120E+02  0.38929241485E+03  0.41251593348E+03  0.12509000000E+03 0.  0.
<mgrwt>
<rscale>  2 0.43035966E+03</rscale>
<asrwt>0</asrwt>
<pdfrwt beam="1">  1       21 0.16299912E+00 0.43035966E+03</pdfrwt>
<pdfrwt beam="2">  1       21 0.61432760E-02 0.43035966E+03</pdfrwt>
<totfact> 0.41124667E+04</totfact>
</mgrwt>
</event>
<event>
 7    0  0.4725730E-002  0.4544334E+03  0.7546771E-02  0.1026408E+00
         21   -1    0    0  502  501  0.00000000000E+00  0.00000000000E+00  0.73809780297E+02  0.73809780297E+02  0.00000000000E+00 0. -1.
         21   -1    0    0  501  502 -0.00000000000E+00 -0.00000000000E+00 -0.69946583725E+03  0.69946583725E+03  0.00000000000E+00 0. -1.
      99926    2    1    2    0    0  0.00000000000E+00  0.14210854715E-13 -0.62565605695E+03  0.77327561755E+03  0.45443336045E+03 0.  0.
      99925    2    3    3    0    0 -0.86600850359E+02  0.67086472680E+02 -0.42972643088E+03  0.51630046588E+03  0.26438809272E+03 0.  0.
         25    1    4    4    0    0 -0.78377271957E+02  0.10792771477E+02 -0.24151447280E+03  0.28326000308E+03  0.12509000000E+03 0.  0.
         25    1    4    4    0    0 -0.82235784025E+01  0.56293701203E+02 -0.18821195808E+03  0.23304046280E+03  0.12509000000E+03 0.  0.
         25    1    3    3    0    0  0.86600850359E+02 -0.67086472680E+02 -0.19592962607E+03  0.25697515166E+03  0.12509000000E+03 0.  0.
<mgrwt>
<rscale>  2 0.45443336E+03</rscale>
<asrwt>0</asrwt>
<pdfrwt beam="1">  1       21 0.10854379E-01 0.45443336E+03</pdfrwt>
<pdfrwt beam="2">  1       21 0.10286263E+00 0.45443336E+03</pdfrwt>
<totfact> 0.49303535E+04</totfact>
</mgrwt>
</event>
<event>
 7    0  0.4725730E-002  0.4677603E+03  0.7546771E-02  0.1022554E+00
         21   -1    0    0  502  501  0.00000000000E+00  0.00000000000E+00  0.55560820293E+03  0.55560820293E+03  0.00000000000E+00 0. -1.
         21   -1    0    0  501  502 -0.00000000000E+00 -0.00000000000E+00 -0.98450524752E+02  0.98450524752E+02  0.00000000000E+00 0. -1.
      99926    2    1    2    0    0  0.00000000000E+00  0.00000000000E+00  0.45715767818E+03  0.65405872768E+03  0.46776027679E+03 0.  0.
      99925    2    3    3    0    0  0.77390735932E+02 -0.86616981903E+02  0.34807854222E+03  0.45148135095E+03  0.26303024758E+03 0.  0.
         25    1    4    4    0    0  0.26435211740E+02 -0.22114385369E+02  0.21540085668E+03  0.25146153507E+03  0.12509000000E+03 0.  0.
         25    1    4    4    0    0  0.50955524192E+02 -0.64502596533E+02  0.13267768554E+03  0.20001981588E+03  0.12509000000E+03 0.  0.
         25    1    3    3    0    0 -0.77390735932E+02  0.86616981903E+02  0.10907913596E+03  0.20257737673E+03  0.12509000000E+03 0.  0.
<mgrwt>
<rscale>  2 0.46776028E+03</rscale>
<asrwt>0</asrwt>
<pdfrwt beam="1">  1       21 0.81707087E-01 0.46776028E+03</pdfrwt>
<pdfrwt beam="2">  1       21 0.14478019E-01 0.46776028E+03</pdfrwt>
<totfact> 0.50218919E+04</totfact>
</mgrwt>
</event>
<event>
 7    0  0.4725730E-002  0.4550960E+03  0.7546771E-02  0.1026213E+00
         21   -1    0    0  502  501  0.00000000000E+00  0.00000000000E+00  0.28170459250E+03  0.28170459250E+03  0.00000000000E+00 0. -1.
         21   -1    0    0  501  502 -0.00000000000E+00 -0.00000000000E+00 -0.18380280664E+03  0.18380280664E+03  0.00000000000E+00 0. -1.
      99926    2    1    2    0    0  0.00000000000E+00  0.00000000000E+00  0.97901785861E+02  0.46550739915E+03  0.45509601073E+03 0.  0.
      99925    2    3    3    0    0  0.10896340260E+03  0.30206839146E+02  0.54694909189E+02  0.29143896855E+03  0.26298224857E+03 0.  0.
         25    1    4    4    0    0  0.58077129414E+02  0.37239049700E+02 -0.65181156695E+01  0.14300242556E+03  0.12509000000E+03 0.  0.
         25    1    3    3    0    0 -0.10896340260E+03 -0.30206839146E+02  0.43206876672E+02  0.17406843059E+03  0.12509000000E+03 0.  0.
         25    1    4    4    0    0  0.50886273185E+02 -0.70322105534E+01  0.61213024859E+02  0.14843654299E+03  0.12509000000E+03 0.  0.
<mgrwt>
<rscale>  2 0.45509601E+03</rscale>
<asrwt>0</asrwt>
<pdfrwt beam="1">  1       21 0.41427146E-01 0.45509601E+03</pdfrwt>
<pdfrwt beam="2">  1       21 0.27029824E-01 0.45509601E+03</pdfrwt>
<totfact> 0.67720314E+04</totfact>
</mgrwt>
</event>
<event>
 7    0  0.4725730E-002  0.4513513E+03  0.7546771E-02  0.1027320E+00
         21   -1    0    0  502  501  0.00000000000E+00  0.00000000000E+00  0.33113343613E+04  0.33113343613E+04  0.00000000000E+00 0. -1.
         21   -1    0    0  501  502 -0.00000000000E+00 -0.00000000000E+00 -0.15380355305E+02  0.15380355305E+02  0.00000000000E+00 0. -1.
      99926    2    1    2    0    0  0.00000000000E+00  0.00000000000E+00  0.32959540060E+04  0.33267147166E+04  0.45135130004E+03 0.  0.
      99925    2    3    3    0    0 -0.73028470475E+02 -0.63666383513E+02  0.24605117843E+04  0.24764219554E+04  0.26298458995E+03 0.  0.
         25    1    3    3    0    0  0.73028470475E+02  0.63666383513E+02  0.83544222164E+03  0.85029276116E+03  0.12509000000E+03 0.  0.
         25    1    4    4    0    0 -0.33570112352E+02 -0.52197268835E+00  0.13974704916E+04  0.14034594786E+04  0.12509000000E+03 0.  0.
         25    1    4    4    0    0 -0.39458358123E+02 -0.63144410825E+02  0.10630412927E+04  0.10729624768E+04  0.12509000000E+03 0.  0.
<mgrwt>
<rscale>  2 0.45135130E+03</rscale>
<asrwt>0</asrwt>
<pdfrwt beam="1">  1       21 0.48696044E+00 0.45135130E+03</pdfrwt>
<pdfrwt beam="2">  1       21 0.22618192E-02 0.45135130E+03</pdfrwt>
<totfact> 0.18536235E+03</totfact>
</mgrwt>
</event>
<event>
 7    0  0.4725730E-002  0.4362891E+03  0.7546771E-02  0.1031892E+00
         21   -1    0    0  502  501  0.00000000000E+00  0.00000000000E+00  0.17092560446E+03  0.17092560446E+03  0.00000000000E+00 0.  1.
         21   -1    0    0  501  502 -0.00000000000E+00 -0.00000000000E+00 -0.27840788323E+03  0.27840788323E+03  0.00000000000E+00 0.  1.
      99926    2    1    2    0    0  0.35527136788E-14  0.00000000000E+00 -0.10748227877E+03  0.44933348768E+03  0.43628905889E+03 0.  0.
      99925    2    3    3    0    0 -0.25466371672E+02 -0.17250414923E+02  0.23157680613E+02  0.26586572488E+03  0.26306309622E+03 0.  0.
         25    1    4    4    0    0 -0.28993326690E+02  0.26488470795E+02  0.24061298046E+02  0.13329931073E+03  0.12509000000E+03 0.  0.
         25    1    3    3    0    0  0.25466371672E+02  0.17250414923E+02 -0.13063995938E+03  0.18346776281E+03  0.12509000000E+03 0.  0.
         25    1    4    4    0    0  0.35269550182E+01 -0.43738885718E+02 -0.90361743248E+00  0.13256641415E+03  0.12509000000E+03 0.  0.
<mgrwt>
<rscale>  2 0.43628906E+03</rscale>
<asrwt>0</asrwt>
<pdfrwt beam="1">  1       21 0.25136118E-01 0.43628906E+03</pdfrwt>
<pdfrwt beam="2">  1       21 0.40942336E-01 0.43628906E+03</pdfrwt>
<totfact> 0.80272258E+04</totfact>
</mgrwt>
</event>
<event>
 7    0  0.4725730E-002  0.4660022E+03  0.7546771E-02  0.1023055E+00
         21   -1    0    0  502  501  0.00000000000E+00  0.00000000000E+00  0.17389290490E+03  0.17389290490E+03  0.00000000000E+00 0. -1.
         21   -1    0    0  501  502 -0.00000000000E+00 -0.00000000000E+00 -0.31220080533E+03  0.31220080533E+03  0.00000000000E+00 0. -1.
      99926    2    1    2    0    0  0.00000000000E+00  0.00000000000E+00 -0.13830790043E+03  0.48609371023E+03  0.46600216716E+03 0.  0.
      99925    2    3    3    0    0  0.12684132853E+02 -0.23773980127E+02 -0.21177931637E+03  0.33854152821E+03  0.26274283649E+03 0.  0.
         25    1    4    4    0    0  0.11577682211E+02 -0.38577901318E+02 -0.14600141074E+03  0.19643374769E+03  0.12509000000E+03 0.  0.
         25    1    4    4    0    0  0.11064506421E+01  0.14803921191E+02 -0.65777905630E+02  0.14210778052E+03  0.12509000000E+03 0.  0.
         25    1    3    3    0    0 -0.12684132853E+02  0.23773980127E+02  0.73471415933E+02  0.14755218201E+03  0.12509000000E+03 0.  0.
<mgrwt>
<rscale>  2 0.46600217E+03</rscale>
<asrwt>0</asrwt>
<pdfrwt beam="1">  1       21 0.25572486E-01 0.46600217E+03</pdfrwt>
<pdfrwt beam="2">  1       21 0.45911883E-01 0.46600217E+03</pdfrwt>
<totfact> 0.60775803E+04</totfact>
</mgrwt>
</event>
<event>
 7    0  0.4725730E-002  0.4607935E+03  0.7546771E-02  0.1024551E+00
         21   -1    0    0  502  501  0.00000000000E+00  0.00000000000E+00  0.18571800288E+03  0.18571800288E+03  0.00000000000E+00 0. -1.
         21   -1    0    0  501  502 -0.00000000000E+00 -0.00000000000E+00 -0.28582399988E+03  0.28582399988E+03  0.00000000000E+00 0. -1.
      99926    2    1    2    0    0  0.00000000000E+00  0.00000000000E+00 -0.10010599700E+03  0.47154200276E+03  0.46079350010E+03 0.  0.
      99925    2    3    3    0    0  0.81184879052E+02 -0.81300000001E+02 -0.92377817387E+02  0.30151874716E+03  0.26301942733E+03 0.  0.
         25    1    4    4    0    0  0.29155400462E+02 -0.53093641910E+01 -0.64036004396E+02  0.14361874767E+03  0.12509000000E+03 0.  0.
         25    1    4    4    0    0  0.52029478591E+02 -0.75990635810E+02 -0.28341812991E+02  0.15789999948E+03  0.12509000000E+03 0.  0.
         25    1    3    3    0    0 -0.81184879052E+02  0.81300000001E+02 -0.77281796112E+01  0.17002325561E+03  0.12509000000E+03 0.  0.
<mgrwt>
<rscale>  2 0.46079350E+03</rscale>
<asrwt>0</asrwt>
<pdfrwt beam="1">  1       21 0.27311471E-01 0.46079350E+03</pdfrwt>
<pdfrwt beam="2">  1       21 0.42032941E-01 0.46079350E+03</pdfrwt>
<totfact> 0.64314218E+04</totfact>
</mgrwt>
</event>
<event>
 7    0  0.4725730E-002  0.4357369E+03  0.7546771E-02  0.1032063E+00
         21   -1    0    0  502  501  0.00000000000E+00  0.00000000000E+00  0.80368754533E+02  0.80368754533E+02  0.00000000000E+00 0.  1.
         21   -1    0    0  501  502 -0.00000000000E+00 -0.00000000000E+00 -0.59061094419E+03  0.59061094419E+03  0.00000000000E+00 0.  1.
      99926    2    1    2    0    0  0.14210854715E-13 -0.71054273576E-14 -0.51024218966E+03  0.67097969872E+03  0.43573692062E+03 0.  0.
      99925    2    3    3    0    0  0.71988279964E+02 -0.58282385163E+02 -0.30202259227E+03  0.41101420542E+03  0.26293703037E+03 0.  0.
         25    1    4    4    0    0  0.33852073336E+02 -0.48513724494E+02 -0.10228264573E+03  0.17207205482E+03  0.12509000000E+03 0.  0.
         25    1    4    4    0    0  0.38136206628E+02 -0.97686606689E+01 -0.19973994654E+03  0.23894215060E+03  0.12509000000E+03 0.  0.
         25    1    3    3    0    0 -0.71988279964E+02  0.58282385163E+02 -0.20821959739E+03  0.25996549330E+03  0.12509000000E+03 0.  0.
<mgrwt>
<rscale>  2 0.43573692E+03</rscale>
<asrwt>0</asrwt>
<pdfrwt beam="1">  1       21 0.11818934E-01 0.43573692E+03</pdfrwt>
<pdfrwt beam="2">  1       21 0.86854552E-01 0.43573692E+03</pdfrwt>
<totfact> 0.63625176E+04</totfact>
</mgrwt>
</event>
<event>
 7    0  0.4725730E-002  0.4588644E+03  0.7546771E-02  0.1025111E+00
         21   -1    0    0  502  501  0.00000000000E+00  0.00000000000E+00  0.33686530466E+02  0.33686530466E+02  0.00000000000E+00 0. -1.
         21   -1    0    0  501  502 -0.00000000000E+00 -0.00000000000E+00 -0.15626167257E+04  0.15626167257E+04  0.00000000000E+00 0. -1.
      99926    2    1    2    0    0  0.00000000000E+00  0.17763568394E-14 -0.15289301953E+04  0.15963032562E+04  0.45886440671E+03 0.  0.
      99925    2    3    3    0    0 -0.55238525643E+02 -0.12040869621E+02 -0.60277807507E+03  0.66003324434E+03  0.26288057858E+03 0.  0.
         25    1    3    3    0    0  0.55238525643E+02  0.12040869621E+02 -0.92615212019E+03  0.93627001185E+03  0.12509000000E+03 0.  0.
         25    1    4    4    0    0 -0.11916503061E+01  0.16215004328E+02 -0.34062417499E+03  0.36323089501E+03  0.12509000000E+03 0.  0.
         25    1    4    4    0    0 -0.54046875337E+02 -0.28255873949E+02 -0.26215390007E+03  0.29680234933E+03  0.12509000000E+03 0.  0.
<mgrwt>
<rscale>  2 0.45886441E+03</rscale>
<asrwt>0</asrwt>
<pdfrwt beam="1">  1       21 0.49539020E-02 0.45886441E+03</pdfrwt>
<pdfrwt beam="2">  1       21 0.22979656E+00 0.45886441E+03</pdfrwt>
<totfact> 0.20879851E+04</totfact>
</mgrwt>
</event>
<event>
 7    0  0.4725730E-002  0.4638208E+03  0.7546771E-02  0.1023679E+00
         21   -1    0    0  502  501  0.00000000000E+00  0.00000000000E+00  0.13182613959E+03  0.13182613959E+03  0.00000000000E+00 0. -1.
         21   -1    0    0  501  502 -0.00000000000E+00 -0.00000000000E+00 -0.40797997769E+03  0.40797997769E+03  0.00000000000E+00 0. -1.
      99926    2    1    2    0    0 -0.88817841970E-15  0.00000000000E+00 -0.27615383810E+03  0.53980611728E+03  0.46382076491E+03 0.  0.
      99925    2    3    3    0    0 -0.55707384831E+01 -0.12085445116E+03 -0.16425510346E+03  0.33291081428E+03  0.26308371246E+03 0.  0.
         25    1    4    4    0    0  0.31393031303E+02 -0.58885855576E+02 -0.10675840413E+03  0.17747656564E+03  0.12509000000E+03 0.  0.
         25    1    3    3    0    0  0.55707384831E+01  0.12085445116E+03 -0.11189873464E+03  0.20689530300E+03  0.12509000000E+03 0.  0.
         25    1    4    4    0    0 -0.36963769786E+02 -0.61968595580E+02 -0.57496699333E+02  0.15543424864E+03  0.12509000000E+03 0.  0.
<mgrwt>
<rscale>  2 0.46382076E+03</rscale>
<asrwt>0</asrwt>
<pdfrwt beam="1">  1       21 0.19386197E-01 0.46382076E+03</pdfrwt>
<pdfrwt beam="2">  1       21 0.59997055E-01 0.46382076E+03</pdfrwt>
<totfact> 0.58359902E+04</totfact>
</mgrwt>
</event>
<event>
 7    0  0.4725730E-002  0.4542423E+03  0.7546771E-02  0.1026464E+00
         21   -1    0    0  502  501  0.00000000000E+00  0.00000000000E+00  0.31527383968E+02  0.31527383968E+02  0.00000000000E+00 0. -1.
         21   -1    0    0  501  502 -0.00000000000E+00 -0.00000000000E+00 -0.16361653662E+04  0.16361653662E+04  0.00000000000E+00 0. -1.
      99926    2    1    2    0    0  0.00000000000E+00 -0.71054273576E-14 -0.16046379822E+04  0.16676927502E+04  0.45424228661E+03 0.  0.
      99925    2    3    3    0    0  0.28973222450E+01 -0.44580678792E+02 -0.13893810711E+04  0.14147522882E+04  0.26296091897E+03 0.  0.
         25    1    3    3    0    0 -0.28973222450E+01  0.44580678792E+02 -0.21525691111E+03  0.25294046192E+03  0.12509000000E+03 0.  0.
         25    1    4    4    0    0  0.81767379025E+01  0.11568912141E+02 -0.54949604799E+03  0.56373230671E+03  0.12509000000E+03 0.  0.
         25    1    4    4    0    0 -0.52794156574E+01 -0.56149590933E+02 -0.83988502313E+03  0.85101998153E+03  0.12509000000E+03 0.  0.
<mgrwt>
<rscale>  2 0.45424229E+03</rscale>
<asrwt>0</asrwt>
<pdfrwt beam="1">  1       21 0.46363777E-02 0.45424229E+03</pdfrwt>
<pdfrwt beam="2">  1       21 0.24061267E+00 0.45424229E+03</pdfrwt>
<totfact> 0.20060201E+04</totfact>
</mgrwt>
</event>
<event>
 7    0  0.4725730E-002  0.4569397E+03  0.7546771E-02  0.1025673E+00
         21   -1    0    0  502  501  0.00000000000E+00  0.00000000000E+00  0.95380313578E+02  0.95380313578E+02  0.00000000000E+00 0. -1.
         21   -1    0    0  501  502 -0.00000000000E+00 -0.00000000000E+00 -0.54726670411E+03  0.54726670411E+03  0.00000000000E+00 0. -1.
      99926    2    1    2    0    0 -0.71054273576E-14  0.00000000000E+00 -0.45188639054E+03  0.64264701769E+03  0.45693968901E+03 0.  0.
      99925    2    3    3    0    0  0.58467299272E+02  0.94934904333E+02 -0.32343814950E+03  0.43151312683E+03  0.26298342330E+03 0.  0.
         25    1    3    3    0    0 -0.58467299272E+02 -0.94934904333E+02 -0.12844824103E+03  0.21113389086E+03  0.12509000000E+03 0.  0.
         25    1    4    4    0    0  0.10125372657E+02  0.20261613805E+02 -0.18716497641E+03  0.22625492848E+03  0.12509000000E+03 0.  0.
         25    1    4    4    0    0  0.48341926615E+02  0.74673290529E+02 -0.13627317309E+03  0.20525819835E+03  0.12509000000E+03 0.  0.
<mgrwt>
<rscale>  2 0.45693969E+03</rscale>
<asrwt>0</asrwt>
<pdfrwt beam="1">  1       21 0.14026517E-01 0.45693969E+03</pdfrwt>
<pdfrwt beam="2">  1       21 0.80480397E-01 0.45693969E+03</pdfrwt>
<totfact> 0.55276161E+04</totfact>
</mgrwt>
</event>
<event>
 7    0  0.4725730E-002  0.4453435E+03  0.7546771E-02  0.1029120E+00
         21   -1    0    0  502  501  0.00000000000E+00  0.00000000000E+00  0.13295686940E+03  0.13295686940E+03  0.00000000000E+00 0. -1.
         21   -1    0    0  501  502 -0.00000000000E+00 -0.00000000000E+00 -0.37292320816E+03  0.37292320816E+03  0.00000000000E+00 0. -1.
      99926    2    1    2    0    0  0.00000000000E+00  0.00000000000E+00 -0.23996633876E+03  0.50588007756E+03  0.44534347322E+03 0.  0.
      99925    2    3    3    0    0  0.56527410780E+02  0.14995583492E+02 -0.24992960905E+03  0.36743517680E+03  0.26291364357E+03 0.  0.
         25    1    4    4    0    0  0.18076120168E+02 -0.31698091481E+02 -0.11624004872E+03  0.17461607071E+03  0.12509000000E+03 0.  0.
         25    1    4    4    0    0  0.38451290612E+02  0.46693674973E+02 -0.13368956032E+03  0.19281910608E+03  0.12509000000E+03 0.  0.
         25    1    3    3    0    0 -0.56527410780E+02 -0.14995583492E+02  0.99632702882E+01  0.13844490077E+03  0.12509000000E+03 0.  0.
<mgrwt>
<rscale>  2 0.44534347E+03</rscale>
<asrwt>0</asrwt>
<pdfrwt beam="1">  1       21 0.19552481E-01 0.44534347E+03</pdfrwt>
<pdfrwt beam="2">  1       21 0.54841647E-01 0.44534347E+03</pdfrwt>
<totfact> 0.70077791E+04</totfact>
</mgrwt>
</event>
<event>
 7    0  0.4725730E-002  0.4518641E+03  0.7546771E-02  0.1027168E+00
         21   -1    0    0  502  501  0.00000000000E+00  0.00000000000E+00  0.21190859838E+02  0.21190859838E+02  0.00000000000E+00 0.  1.
         21   -1    0    0  501  502 -0.00000000000E+00 -0.00000000000E+00 -0.24088349281E+04  0.24088349281E+04  0.00000000000E+00 0.  1.
      99926    2    1    2    0    0  0.00000000000E+00  0.00000000000E+00 -0.23876440683E+04  0.24300257880E+04  0.45186406512E+03 0.  0.
      99925    2    3    3    0    0 -0.22948563763E+02 -0.62578368260E+02 -0.10339235442E+04  0.10689051268E+04  0.26290223685E+03 0.  0.
         25    1    4    4    0    0  0.10738522337E+02 -0.11232531912E+02 -0.38218897272E+03  0.40243931792E+03  0.12509000000E+03 0.  0.
         25    1    4    4    0    0 -0.33687086099E+02 -0.51345836348E+02 -0.65173457147E+03  0.66646580890E+03  0.12509000000E+03 0.  0.
         25    1    3    3    0    0  0.22948563763E+02  0.62578368260E+02 -0.13537205241E+04  0.13611206612E+04  0.12509000000E+03 0.  0.
<mgrwt>
<rscale>  2 0.45186407E+03</rscale>
<asrwt>0</asrwt>
<pdfrwt beam="1">  1       21 0.31163047E-02 0.45186407E+03</pdfrwt>
<pdfrwt beam="2">  1       21 0.35424023E+00 0.45186407E+03</pdfrwt>
<totfact> 0.80694087E+03</totfact>
</mgrwt>
</event>
<event>
 7    0  0.4725730E-002  0.4573067E+03  0.7546771E-02  0.1025565E+00
         21   -1    0    0  502  501  0.00000000000E+00  0.00000000000E+00  0.50756983848E+03  0.50756983848E+03  0.00000000000E+00 0.  1.
         21   -1    0    0  501  502 -0.00000000000E+00 -0.00000000000E+00 -0.10300523178E+03  0.10300523178E+03  0.00000000000E+00 0.  1.
      99926    2    1    2    0    0 -0.14210854715E-13  0.71054273576E-14  0.40456460670E+03  0.61057507025E+03  0.45730667546E+03 0.  0.
      99925    2    3    3    0    0 -0.87417172529E+02  0.55818311274E+02  0.18694321388E+03  0.33897973775E+03  0.26306282797E+03 0.  0.
         25    1    4    4    0    0 -0.17911801148E+02 -0.60764476724E+01  0.75448537013E+02  0.14730154675E+03  0.12509000000E+03 0.  0.
         25    1    4    4    0    0 -0.69505371381E+02  0.61894758946E+02  0.11149467687E+03  0.19167819100E+03  0.12509000000E+03 0.  0.
         25    1    3    3    0    0  0.87417172529E+02 -0.55818311274E+02  0.21762139282E+03  0.27159533250E+03  0.12509000000E+03 0.  0.
<mgrwt>
<rscale>  2 0.45730668E+03</rscale>
<asrwt>0</asrwt>
<pdfrwt beam="1">  1       21 0.74642622E-01 0.45730668E+03</pdfrwt>
<pdfrwt beam="2">  1       21 0.15147828E-01 0.45730668E+03</pdfrwt>
<totfact> 0.56986598E+04</totfact>
</mgrwt>
</event>
<event>
 7    0  0.4725730E-002  0.4508931E+03  0.7546771E-02  0.1027456E+00
         21   -1    0    0  502  501  0.00000000000E+00  0.00000000000E+00  0.60812836034E+02  0.60812836034E+02  0.00000000000E+00 0. -1.
         21   -1    0    0  501  502 -0.00000000000E+00 -0.00000000000E+00 -0.83577975455E+03  0.83577975455E+03  0.00000000000E+00 0. -1.
      99926    2    1    2    0    0  0.35527136788E-14  0.00000000000E+00 -0.77496691852E+03  0.89659259058E+03  0.45089305683E+03 0.  0.
      99925    2    3    3    0    0  0.15399608704E+02  0.88548602991E+02 -0.61292277976E+03  0.67302198866E+03  0.26307082740E+03 0.  0.
         25    1    4    4    0    0 -0.15270832165E+02  0.29543253308E+02 -0.36773186657E+03  0.38984642608E+03  0.12509000000E+03 0.  0.
         25    1    4    4    0    0  0.30670440869E+02  0.59005349683E+02 -0.24519091319E+03  0.28317556259E+03  0.12509000000E+03 0.  0.
         25    1    3    3    0    0 -0.15399608704E+02 -0.88548602991E+02 -0.16204413875E+03  0.22357060192E+03  0.12509000000E+03 0.  0.
<mgrwt>
<rscale>  2 0.45089306E+03</rscale>
<asrwt>0</asrwt>
<pdfrwt beam="1">  1       21 0.89430646E-02 0.45089306E+03</pdfrwt>
<pdfrwt beam="2">  1       21 0.12290878E+00 0.45089306E+03</pdfrwt>
<totfact> 0.44804827E+04</totfact>
</mgrwt>
</event>
<event>
 7    0  0.4725730E-002  0.4600023E+03  0.7546771E-02  0.1024781E+00
         21   -1    0    0  502  501  0.00000000000E+00  0.00000000000E+00  0.54228216156E+03  0.54228216156E+03  0.00000000000E+00 0.  1.
         21   -1    0    0  501  502 -0.00000000000E+00 -0.00000000000E+00 -0.97551654891E+02  0.97551654891E+02  0.00000000000E+00 0.  1.
      99926    2    1    2    0    0  0.00000000000E+00  0.00000000000E+00  0.44473050667E+03  0.63983381645E+03  0.46000227077E+03 0.  0.
      99925    2    3    3    0    0  0.85734763792E+02  0.64937815233E+02  0.21249754284E+03  0.35497064376E+03  0.26321394842E+03 0.  0.
         25    1    4    4    0    0  0.10506232529E+02  0.35213454447E+02  0.13248960977E+03  0.18587999649E+03  0.12509000000E+03 0.  0.
         25    1    4    4    0    0  0.75228531264E+02  0.29724360786E+02  0.80007933072E+02  0.16909064727E+03  0.12509000000E+03 0.  0.
         25    1    3    3    0    0 -0.85734763792E+02 -0.64937815233E+02  0.23223296382E+03  0.28486317269E+03  0.12509000000E+03 0.  0.
<mgrwt>
<rscale>  2 0.46000227E+03</rscale>
<asrwt>0</asrwt>
<pdfrwt beam="1">  1       21 0.79747375E-01 0.46000227E+03</pdfrwt>
<pdfrwt beam="2">  1       21 0.14345832E-01 0.46000227E+03</pdfrwt>
<totfact> 0.54122523E+04</totfact>
</mgrwt>
</event>
<event>
 7    0  0.4725730E-002  0.4470842E+03  0.7546771E-02  0.1028595E+00
         21   -1    0    0  502  501  0.00000000000E+00  0.00000000000E+00  0.28398905106E+03  0.28398905106E+03  0.00000000000E+00 0. -1.
         21   -1    0    0  501  502 -0.00000000000E+00 -0.00000000000E+00 -0.17596128089E+03  0.17596128089E+03  0.00000000000E+00 0. -1.
      99926    2    1    2    0    0  0.00000000000E+00  0.00000000000E+00  0.10802777017E+03  0.45995033195E+03  0.44708423002E+03 0.  0.
      99925    2    3    3    0    0 -0.81069618214E+02  0.67597134484E+02  0.66705890901E+02  0.29114079017E+03  0.26300499660E+03 0.  0.
         25    1    4    4    0    0 -0.59631001626E+02  0.30251195190E+02 -0.24508411117E+01  0.14186086806E+03  0.12509000000E+03 0.  0.
         25    1    3    3    0    0  0.81069618214E+02 -0.67597134484E+02  0.41321879265E+02  0.16880954177E+03  0.12509000000E+03 0.  0.
         25    1    4    4    0    0 -0.21438616588E+02  0.37345939294E+02  0.69156732013E+02  0.14927992211E+03  0.12509000000E+03 0.  0.
<mgrwt>
<rscale>  2 0.44708423E+03</rscale>
<asrwt>0</asrwt>
<pdfrwt beam="1">  1       21 0.41763096E-01 0.44708423E+03</pdfrwt>
<pdfrwt beam="2">  1       21 0.25876659E-01 0.44708423E+03</pdfrwt>
<totfact> 0.72645994E+04</totfact>
</mgrwt>
</event>
<event>
 7    0  0.4725730E-002  0.4536945E+03  0.7546771E-02  0.1026626E+00
         21   -1    0    0  502  501  0.00000000000E+00  0.00000000000E+00  0.34357381214E+03  0.34357381214E+03  0.00000000000E+00 0. -1.
         21   -1    0    0  501  502 -0.00000000000E+00 -0.00000000000E+00 -0.14977763337E+03  0.14977763337E+03  0.00000000000E+00 0. -1.
      99926    2    1    2    0    0  0.35527136788E-14  0.00000000000E+00  0.19379617877E+03  0.49335144551E+03  0.45369448958E+03 0.  0.
      99925    2    3    3    0    0  0.24374335683E+02  0.10870710179E+03  0.11005032119E+03  0.30607566229E+03  0.26298269074E+03 0.  0.
         25    1    4    4    0    0 -0.10706719062E+02  0.49404031788E+02  0.17865086982E+02  0.13609578106E+03  0.12509000000E+03 0.  0.
         25    1    4    4    0    0  0.35081054744E+02  0.59303070005E+02  0.92185234212E+02  0.16997988122E+03  0.12509000000E+03 0.  0.
         25    1    3    3    0    0 -0.24374335683E+02 -0.10870710179E+03  0.83745857573E+02  0.18727578322E+03  0.12509000000E+03 0.  0.
<mgrwt>
<rscale>  2 0.45369449E+03</rscale>
<asrwt>0</asrwt>
<pdfrwt beam="1">  1       21 0.50525561E-01 0.45369449E+03</pdfrwt>
<pdfrwt beam="2">  1       21 0.22026123E-01 0.45369449E+03</pdfrwt>
<totfact> 0.66426076E+04</totfact>
</mgrwt>
</event>
<event>
 7    0  0.4725730E-002  0.4521469E+03  0.7546771E-02  0.1027084E+00
         21   -1    0    0  502  501  0.00000000000E+00  0.00000000000E+00  0.48501889928E+03  0.48501889928E+03  0.00000000000E+00 0. -1.
         21   -1    0    0  501  502 -0.00000000000E+00 -0.00000000000E+00 -0.10537569653E+03  0.10537569653E+03  0.00000000000E+00 0. -1.
      99926    2    1    2    0    0  0.00000000000E+00  0.00000000000E+00  0.37964320275E+03  0.59039459581E+03  0.45214689800E+03 0.  0.
      99925    2    3    3    0    0  0.42001131821E+02  0.10090108924E+03  0.21864357678E+03  0.35906471761E+03  0.26301584150E+03 0.  0.
         25    1    4    4    0    0  0.34645975928E+02  0.82457931753E+02  0.88322265552E+02  0.17733579686E+03  0.12509000000E+03 0.  0.
         25    1    3    3    0    0 -0.42001131821E+02 -0.10090108924E+03  0.16099962597E+03  0.23132987820E+03  0.12509000000E+03 0.  0.
         25    1    4    4    0    0  0.73551558931E+01  0.18443157490E+02  0.13032131123E+03  0.18172892075E+03  0.12509000000E+03 0.  0.
<mgrwt>
<rscale>  2 0.45214690E+03</rscale>
<asrwt>0</asrwt>
<pdfrwt beam="1">  1       21 0.71326308E-01 0.45214690E+03</pdfrwt>
<pdfrwt beam="2">  1       21 0.15496426E-01 0.45214690E+03</pdfrwt>
<totfact> 0.60629037E+04</totfact>
</mgrwt>
</event>
<event>
 7    0  0.4725730E-002  0.4521944E+03  0.7546771E-02  0.1027070E+00
         21   -1    0    0  502  501  0.00000000000E+00  0.00000000000E+00  0.11449669379E+03  0.11449669379E+03  0.00000000000E+00 0.  1.
         21   -1    0    0  501  502 -0.00000000000E+00 -0.00000000000E+00 -0.44647520960E+03  0.44647520960E+03  0.00000000000E+00 0.  1.
      99926    2    1    2    0    0  0.35527136788E-14  0.00000000000E+00 -0.33197851582E+03  0.56097190339E+03  0.45219436245E+03 0.  0.
      99925    2    3    3    0    0  0.30833905025E+02 -0.38818439125E+02 -0.86957197047E+02  0.28143558077E+03  0.26303389723E+03 0.  0.
         25    1    4    4    0    0  0.14330208352E+02  0.20960004583E+02 -0.49269769996E+02  0.13681993641E+03  0.12509000000E+03 0.  0.
         25    1    4    4    0    0  0.16503696673E+02 -0.59778443709E+02 -0.37687427050E+02  0.14461564436E+03  0.12509000000E+03 0.  0.
         25    1    3    3    0    0 -0.30833905025E+02  0.38818439125E+02 -0.24502131877E+03  0.27953632262E+03  0.12509000000E+03 0.  0.
<mgrwt>
<rscale>  2 0.45219436E+03</rscale>
<asrwt>0</asrwt>
<pdfrwt beam="1">  1       21 0.16837750E-01 0.45219436E+03</pdfrwt>
<pdfrwt beam="2">  1       21 0.65658117E-01 0.45219436E+03</pdfrwt>
<totfact> 0.62523231E+04</totfact>
</mgrwt>
</event>
<event>
 7    0  0.4725730E-002  0.4481763E+03  0.7546771E-02  0.1028267E+00
         21   -1    0    0  502  501  0.00000000000E+00  0.00000000000E+00  0.20564921074E+03  0.20564921074E+03  0.00000000000E+00 0. -1.
         21   -1    0    0  501  502 -0.00000000000E+00 -0.00000000000E+00 -0.24418032335E+03  0.24418032335E+03  0.00000000000E+00 0. -1.
      99926    2    1    2    0    0  0.00000000000E+00  0.00000000000E+00 -0.38531112616E+02  0.44982953409E+03  0.44817626343E+03 0.  0.
      99925    2    3    3    0    0  0.84524253744E+02 -0.11009319674E+02  0.40187562735E+02  0.27921390602E+03  0.26283038357E+03 0.  0.
         25    1    3    3    0    0 -0.84524253744E+02  0.11009319674E+02 -0.78718675352E+02  0.17061562806E+03  0.12509000000E+03 0.  0.
         25    1    4    4    0    0  0.66971935446E+02  0.16846772673E+02  0.44907479012E+02  0.14977731356E+03  0.12509000000E+03 0.  0.
         25    1    4    4    0    0  0.17552318298E+02 -0.27856092348E+02 -0.47199162766E+01  0.12943659246E+03  0.12509000000E+03 0.  0.
<mgrwt>
<rscale>  2 0.44817626E+03</rscale>
<asrwt>0</asrwt>
<pdfrwt beam="1">  1       21 0.30242531E-01 0.44817626E+03</pdfrwt>
<pdfrwt beam="2">  1       21 0.35908871E-01 0.44817626E+03</pdfrwt>
<totfact> 0.72810363E+04</totfact>
</mgrwt>
</event>
<event>
 6    0  0.4725730E-002  0.4538311E+03  0.7546771E-02  0.1026586E+00
         21   -1    0    0  502  501  0.00000000000E+00  0.00000000000E+00  0.12305879536E+03  0.12305879536E+03  0.00000000000E+00 0. -1.
         21   -1    0    0  501  502 -0.00000000000E+00 -0.00000000000E+00 -0.41842328855E+03  0.41842328855E+03  0.00000000000E+00 0. -1.
      99926    2    1    2    0    0  0.00000000000E+00 -0.71054273576E-14 -0.29536449319E+03  0.54148208391E+03  0.45383109562E+03 0.  0.
         25    1    3    3    0    0  0.27651482911E+02 -0.59039422686E+02 -0.56384679264E+02  0.15191115197E+03  0.12509000000E+03 0.  0.
         25    1    3    3    0    0 -0.37541366648E+02  0.53301306371E+02 -0.22170723793E+03  0.26277745513E+03  0.12509000000E+03 0.  0.
         25    1    3    3    0    0  0.98898837364E+01  0.57381163149E+01 -0.17272575993E+02  0.12679347681E+03  0.12509000000E+03 0.  0.
<mgrwt>
<rscale>  2 0.45383110E+03</rscale>
<asrwt>0</asrwt>
<pdfrwt beam="1">  1       21 0.18096881E-01 0.45383110E+03</pdfrwt>
<pdfrwt beam="2">  1       21 0.61532838E-01 0.45383110E+03</pdfrwt>
<totfact> 0.63013790E+04</totfact>
</mgrwt>
</event>
<event>
 7    0  0.4725730E-002  0.4764684E+03  0.7546771E-02  0.1020110E+00
         21   -1    0    0  502  501  0.00000000000E+00  0.00000000000E+00  0.33816026465E+03  0.33816026465E+03  0.00000000000E+00 0.  1.
         21   -1    0    0  501  502 -0.00000000000E+00 -0.00000000000E+00 -0.16783616765E+03  0.16783616765E+03  0.00000000000E+00 0.  1.
      99926    2    1    2    0    0  0.00000000000E+00  0.17763568394E-14  0.17032409700E+03  0.50599643231E+03  0.47646835308E+03 0.  0.
      99925    2    3    3    0    0  0.12826992169E+03  0.12434096801E+02  0.13711194738E+03  0.32335379064E+03  0.26296427177E+03 0.  0.
         25    1    4    4    0    0  0.41032584868E+02  0.39978947636E+02  0.71636569440E+02  0.15511703793E+03  0.12509000000E+03 0.  0.
         25    1    4    4    0    0  0.87237336827E+02 -0.27544850835E+02  0.65475377945E+02  0.16823675271E+03  0.12509000000E+03 0.  0.
         25    1    3    3    0    0 -0.12826992169E+03 -0.12434096801E+02  0.33212149614E+02  0.18264264167E+03  0.12509000000E+03 0.  0.
<mgrwt>
<rscale>  2 0.47646835E+03</rscale>
<asrwt>0</asrwt>
<pdfrwt beam="1">  1       21 0.49729451E-01 0.47646835E+03</pdfrwt>
<pdfrwt beam="2">  1       21 0.24681789E-01 0.47646835E+03</pdfrwt>
<totfact> 0.54884324E+04</totfact>
</mgrwt>
</event>
<event>
 7    0  0.4725730E-002  0.4749484E+03  0.7546771E-02  0.1020533E+00
         21   -1    0    0  502  501  0.00000000000E+00  0.00000000000E+00  0.37826478898E+03  0.37826478898E+03  0.00000000000E+00 0. -1.
         21   -1    0    0  501  502 -0.00000000000E+00 -0.00000000000E+00 -0.14908604790E+03  0.14908604790E+03  0.00000000000E+00 0. -1.
      99926    2    1    2    0    0  0.00000000000E+00  0.00000000000E+00  0.22917874109E+03  0.52735083688E+03  0.47494842856E+03 0.  0.
      99925    2    3    3    0    0  0.38525685851E+02 -0.10210877568E+03  0.61826810126E+02  0.29162937533E+03  0.26327686485E+03 0.  0.
         25    1    4    4    0    0  0.29184062196E+02 -0.89785908584E+02  0.52352260226E+02  0.16523161355E+03  0.12509000000E+03 0.  0.
         25    1    3    3    0    0 -0.38525685851E+02  0.10210877568E+03  0.16735193096E+03  0.23572146155E+03  0.12509000000E+03 0.  0.
         25    1    4    4    0    0  0.93416236552E+01 -0.12322867091E+02  0.94745498995E+01  0.12639776177E+03  0.12509000000E+03 0.  0.
<mgrwt>
<rscale>  2 0.47494843E+03</rscale>
<asrwt>0</asrwt>
<pdfrwt beam="1">  1       21 0.55627174E-01 0.47494843E+03</pdfrwt>
<pdfrwt beam="2">  1       21 0.21924419E-01 0.47494843E+03</pdfrwt>
<totfact> 0.54275560E+04</totfact>
</mgrwt>
</event>
<event>
 7    0  0.4725730E-002  0.4554978E+03  0.7546771E-02  0.1026095E+00
         21   -1    0    0  502  501  0.00000000000E+00  0.00000000000E+00  0.62386419300E+02  0.62386419300E+02  0.00000000000E+00 0.  1.
         21   -1    0    0  501  502 -0.00000000000E+00 -0.00000000000E+00 -0.83142408682E+03  0.83142408682E+03  0.00000000000E+00 0.  1.
      99926    2    1    2    0    0 -0.14210854715E-13 -0.71054273576E-14 -0.76903766752E+03  0.89381050612E+03  0.45549784498E+03 0.  0.
      99925    2    3    3    0    0 -0.95568815303E+02 -0.61204333247E+02 -0.47468412663E+03  0.55444214578E+03  0.26306216770E+03 0.  0.
         25    1    3    3    0    0  0.95568815303E+02  0.61204333247E+02 -0.29435354089E+03  0.33936836034E+03  0.12509000000E+03 0.  0.
         25    1    4    4    0    0 -0.20495789104E+02 -0.38241923024E+02 -0.28320474668E+03  0.31262590854E+03  0.12509000000E+03 0.  0.
         25    1    4    4    0    0 -0.75073026199E+02 -0.22962410223E+02 -0.19147937995E+03  0.24181623724E+03  0.12509000000E+03 0.  0.
<mgrwt>
<rscale>  2 0.45549784E+03</rscale>
<asrwt>0</asrwt>
<pdfrwt beam="1">  1       21 0.91744741E-02 0.45549784E+03</pdfrwt>
<pdfrwt beam="2">  1       21 0.12226824E+00 0.45549784E+03</pdfrwt>
<totfact> 0.43333210E+04</totfact>
</mgrwt>
</event>
<event>
 7    0  0.4725730E-002  0.4685714E+03  0.7546771E-02  0.1022324E+00
         21   -1    0    0  502  501  0.00000000000E+00  0.00000000000E+00  0.55865368021E+03  0.55865368021E+03  0.00000000000E+00 0.  1.
         21   -1    0    0  501  502 -0.00000000000E+00 -0.00000000000E+00 -0.98253682998E+02  0.98253682998E+02  0.00000000000E+00 0.  1.
      99926    2    1    2    0    0  0.00000000000E+00  0.00000000000E+00  0.46039999721E+03  0.65690736321E+03  0.46857136746E+03 0.  0.
      99925    2    3    3    0    0  0.10489322503E+03 -0.35713064452E+02  0.20372401050E+03  0.35062631272E+03  0.26297780722E+03 0.  0.
         25    1    4    4    0    0  0.83200828688E+02 -0.19549170042E+02  0.74776054050E+02  0.16894825925E+03  0.12509000000E+03 0.  0.
         25    1    3    3    0    0 -0.10489322503E+03  0.35713064452E+02  0.25667598672E+03  0.30628105049E+03  0.12509000000E+03 0.  0.
         25    1    4    4    0    0  0.21692396347E+02 -0.16163894410E+02  0.12894795645E+03  0.18167805347E+03  0.12509000000E+03 0.  0.
<mgrwt>
<rscale>  2 0.46857137E+03</rscale>
<asrwt>0</asrwt>
<pdfrwt beam="1">  1       21 0.82154952E-01 0.46857137E+03</pdfrwt>
<pdfrwt beam="2">  1       21 0.14449071E-01 0.46857137E+03</pdfrwt>
<totfact> 0.49760501E+04</totfact>
</mgrwt>
</event>
<event>
 7    0  0.4725730E-002  0.4538651E+03  0.7546771E-02  0.1026576E+00
         21   -1    0    0  502  501  0.00000000000E+00  0.00000000000E+00  0.50371410562E+02  0.50371410562E+02  0.00000000000E+00 0.  1.
         21   -1    0    0  501  502 -0.00000000000E+00 -0.00000000000E+00 -0.10223730432E+04  0.10223730432E+04  0.00000000000E+00 0.  1.
      99926    2    1    2    0    0  0.00000000000E+00  0.14210854715E-13 -0.97200163259E+03  0.10727444537E+04  0.45386505617E+03 0.  0.
      99925    2    3    3    0    0  0.36851762244E+02 -0.81263232234E+02 -0.45132035086E+03  0.52986484410E+03  0.26287816306E+03 0.  0.
         25    1    3    3    0    0 -0.36851762244E+02  0.81263232234E+02 -0.52068128173E+03  0.54287960962E+03  0.12509000000E+03 0.  0.
         25    1    4    4    0    0 -0.16585526902E+02 -0.27714187556E+02 -0.17850814570E+03  0.22035385651E+03  0.12509000000E+03 0.  0.
         25    1    4    4    0    0  0.53437289146E+02 -0.53549044678E+02 -0.27281220516E+03  0.30951098759E+03  0.12509000000E+03 0.  0.
<mgrwt>
<rscale>  2 0.45386506E+03</rscale>
<asrwt>0</asrwt>
<pdfrwt beam="1">  1       21 0.74075601E-02 0.45386506E+03</pdfrwt>
<pdfrwt beam="2">  1       21 0.15034898E+00 0.45386506E+03</pdfrwt>
<totfact> 0.36778386E+04</totfact>
</mgrwt>
</event>
<event>
 7    0  0.4725730E-002  0.4518652E+03  0.7546771E-02  0.1027167E+00
         21   -1    0    0  502  501  0.00000000000E+00  0.00000000000E+00  0.99458789690E+02  0.99458789690E+02  0.00000000000E+00 0. -1.
         21   -1    0    0  501  502 -0.00000000000E+00 -0.00000000000E+00 -0.51323296277E+03  0.51323296277E+03  0.00000000000E+00 0. -1.
      99926    2    1    2    0    0  0.00000000000E+00  0.00000000000E+00 -0.41377417308E+03  0.61269175246E+03  0.45186515381E+03 0.  0.
      99925    2    3    3    0    0  0.35423204253E+02  0.72339143314E+02 -0.15934678140E+03  0.31795702293E+03  0.26309222077E+03 0.  0.
         25    1    3    3    0    0 -0.35423204253E+02 -0.72339143314E+02 -0.25442739168E+03  0.29473472953E+03  0.12509000000E+03 0.  0.
         25    1    4    4    0    0  0.39922531638E+02  0.61472067028E+02 -0.11381196984E+03  0.18431846391E+03  0.12509000000E+03 0.  0.
         25    1    4    4    0    0 -0.44993273853E+01  0.10867076286E+02 -0.45534811557E+02  0.13363855902E+03  0.12509000000E+03 0.  0.
<mgrwt>
<rscale>  2 0.45186515E+03</rscale>
<asrwt>0</asrwt>
<pdfrwt beam="1">  1       21 0.14626293E-01 0.45186515E+03</pdfrwt>
<pdfrwt beam="2">  1       21 0.75475436E-01 0.45186515E+03</pdfrwt>
<totfact> 0.59359905E+04</totfact>
</mgrwt>
</event>
<event>
 7    0  0.4725730E-002  0.4374572E+03  0.7546771E-02  0.1031530E+00
         21   -1    0    0  502  501  0.00000000000E+00  0.00000000000E+00  0.12181185704E+03  0.12181185704E+03  0.00000000000E+00 0. -1.
         21   -1    0    0  501  502 -0.00000000000E+00 -0.00000000000E+00 -0.39275480894E+03  0.39275480894E+03  0.00000000000E+00 0. -1.
      99926    2    1    2    0    0  0.35527136788E-14  0.71054273576E-14 -0.27094295190E+03  0.51456666598E+03  0.43745716425E+03 0.  0.
      99925    2    3    3    0    0  0.31544666673E+02  0.35049034450E+02 -0.75500385307E+02  0.27777814061E+03  0.26312902996E+03 0.  0.
         25    1    4    4    0    0 -0.13380945422E+02 -0.73678519219E+01 -0.51857599819E+02  0.13627198429E+03  0.12509000000E+03 0.  0.
         25    1    4    4    0    0  0.44925612095E+02  0.42416886372E+02 -0.23642785488E+02  0.14150615632E+03  0.12509000000E+03 0.  0.
         25    1    3    3    0    0 -0.31544666673E+02 -0.35049034450E+02 -0.19544256659E+03  0.23678852537E+03  0.12509000000E+03 0.  0.
<mgrwt>
<rscale>  2 0.43745716E+03</rscale>
<asrwt>0</asrwt>
<pdfrwt beam="1">  1       21 0.17913509E-01 0.43745716E+03</pdfrwt>
<pdfrwt beam="2">  1       21 0.57758059E-01 0.43745716E+03</pdfrwt>
<totfact> 0.74031232E+04</totfact>
</mgrwt>
</event>
<event>
 7    0  0.4725730E-002  0.4697438E+03  0.7546771E-02  0.1021993E+00
         21   -1    0    0  502  501  0.00000000000E+00  0.00000000000E+00  0.52083975329E+02  0.52083975329E+02  0.00000000000E+00 0. -1.
         21   -1    0    0  501  502 -0.00000000000E+00 -0.00000000000E+00 -0.10591514046E+04  0.10591514046E+04  0.00000000000E+00 0. -1.
      99926    2    1    2    0    0  0.00000000000E+00 -0.71054273576E-14 -0.10070674293E+04  0.11112353799E+04  0.46974382647E+03 0.  0.
      99925    2    3    3    0    0  0.10533939076E+03 -0.37226438211E+02 -0.48492789082E+03  0.56282002579E+03  0.26292418524E+03 0.  0.
         25    1    4    4    0    0  0.56938065092E+02  0.16905612805E+02 -0.19967595907E+03  0.24299329154E+03  0.12509000000E+03 0.  0.
         25    1    4    4    0    0  0.48401325667E+02 -0.54132051017E+02 -0.28525193175E+03  0.31982673425E+03  0.12509000000E+03 0.  0.
         25    1    3    3    0    0 -0.10533939076E+03  0.37226438211E+02 -0.52213953844E+03  0.54841535413E+03  0.12509000000E+03 0.  0.
<mgrwt>
<rscale>  2 0.46974383E+03</rscale>
<asrwt>0</asrwt>
<pdfrwt beam="1">  1       21 0.76594082E-02 0.46974383E+03</pdfrwt>
<pdfrwt beam="2">  1       21 0.15575756E+00 0.46974383E+03</pdfrwt>
<totfact> 0.31342152E+04</totfact>
</mgrwt>
</event>
<event>
 7    0  0.4725730E-002  0.4548880E+03  0.7546771E-02  0.1026274E+00
         21   -1    0    0  502  501  0.00000000000E+00  0.00000000000E+00  0.20585087937E+03  0.20585087937E+03  0.00000000000E+00 0.  1.
         21   -1    0    0  501  502 -0.00000000000E+00 -0.00000000000E+00 -0.25130216283E+03  0.25130216283E+03  0.00000000000E+00 0.  1.
      99926    2    1    2    0    0  0.00000000000E+00  0.00000000000E+00 -0.45451283456E+02  0.45715304220E+03  0.45488799151E+03 0.  0.
      99925    2    3    3    0    0  0.75128774912E+02 -0.78061485081E+02  0.56783883989E+01  0.28394888602E+03  0.26240578786E+03 0.  0.
         25    1    4    4    0    0  0.60151347785E+02 -0.65750625098E+02  0.25916215179E+02  0.15575778520E+03  0.12509000000E+03 0.  0.
         25    1    3    3    0    0 -0.75128774912E+02  0.78061485081E+02 -0.51129671855E+02  0.17320415618E+03  0.12509000000E+03 0.  0.
         25    1    4    4    0    0  0.14977427127E+02 -0.12310859983E+02 -0.20237826780E+02  0.12819110082E+03  0.12509000000E+03 0.  0.
<mgrwt>
<rscale>  2 0.45488799E+03</rscale>
<asrwt>0</asrwt>
<pdfrwt beam="1">  1       21 0.30272188E-01 0.45488799E+03</pdfrwt>
<pdfrwt beam="2">  1       21 0.36956200E-01 0.45488799E+03</pdfrwt>
<totfact> 0.68449491E+04</totfact>
</mgrwt>
</event>
<event>
 7    0  0.4725730E-002  0.4499237E+03  0.7546771E-02  0.1027745E+00
         21   -1    0    0  502  501  0.00000000000E+00  0.00000000000E+00  0.12728459743E+03  0.12728459743E+03  0.00000000000E+00 0. -1.
         21   -1    0    0  501  502 -0.00000000000E+00 -0.00000000000E+00 -0.39759591322E+03  0.39759591322E+03  0.00000000000E+00 0. -1.
      99926    2    1    2    0    0 -0.14210854715E-13  0.14210854715E-13 -0.27031131579E+03  0.52488051065E+03  0.44992370800E+03 0.  0.
      99925    2    3    3    0    0  0.71424277212E+02 -0.75498179366E+02 -0.20667652239E+03  0.35024289302E+03  0.26297052446E+03 0.  0.
         25    1    4    4    0    0 -0.28445294293E+00 -0.13640147779E+02 -0.89206435074E+02  0.15424471046E+03  0.12509000000E+03 0.  0.
         25    1    4    4    0    0  0.71708730155E+02 -0.61858031587E+02 -0.11747008732E+03  0.19599818256E+03  0.12509000000E+03 0.  0.
         25    1    3    3    0    0 -0.71424277212E+02  0.75498179366E+02 -0.63634793399E+02  0.17463761764E+03  0.12509000000E+03 0.  0.
<mgrwt>
<rscale>  2 0.44992371E+03</rscale>
<asrwt>0</asrwt>
<pdfrwt beam="1">  1       21 0.18718324E-01 0.44992371E+03</pdfrwt>
<pdfrwt beam="2">  1       21 0.58469986E-01 0.44992371E+03</pdfrwt>
<totfact> 0.66177300E+04</totfact>
</mgrwt>
</event>
<event>
 7    0  0.4725730E-002  0.4495376E+03  0.7546771E-02  0.1027860E+00
         21   -1    0    0  502  501  0.00000000000E+00  0.00000000000E+00  0.10252938890E+04  0.10252938890E+04  0.00000000000E+00 0. -1.
         21   -1    0    0  501  502 -0.00000000000E+00 -0.00000000000E+00 -0.49274674167E+02  0.49274674167E+02  0.00000000000E+00 0. -1.
      99926    2    1    2    0    0  0.00000000000E+00 -0.53290705182E-14  0.97601921479E+03  0.10745685631E+04  0.44953763938E+03 0.  0.
      99925    2    3    3    0    0 -0.33017338708E+02  0.15222066692E+02  0.37421461341E+03  0.45882661855E+03  0.26298941619E+03 0.  0.
         25    1    4    4    0    0 -0.51527234207E+01  0.46278275093E+02  0.18053508518E+03  0.22451871723E+03  0.12509000000E+03 0.  0.
         25    1    4    4    0    0 -0.27864615288E+02 -0.31056208401E+02  0.19367952823E+03  0.23430790132E+03  0.12509000000E+03 0.  0.
         25    1    3    3    0    0  0.33017338708E+02 -0.15222066692E+02  0.60180460138E+03  0.61574194458E+03  0.12509000000E+03 0.  0.
<mgrwt>
<rscale>  2 0.44953764E+03</rscale>
<asrwt>0</asrwt>
<pdfrwt beam="1">  1       21 0.15077850E+00 0.44953764E+03</pdfrwt>
<pdfrwt beam="2">  1       21 0.72462763E-02 0.44953764E+03</pdfrwt>
<totfact> 0.37981905E+04</totfact>
</mgrwt>
</event>
<event>
 7    0  0.4725730E-002  0.4570602E+03  0.7546771E-02  0.1025637E+00
         21   -1    0    0  502  501  0.00000000000E+00  0.00000000000E+00  0.19937779959E+03  0.19937779959E+03  0.00000000000E+00 0.  1.
         21   -1    0    0  501  502 -0.00000000000E+00 -0.00000000000E+00 -0.26194494112E+03  0.26194494112E+03  0.00000000000E+00 0.  1.
      99926    2    1    2    0    0 -0.14210854715E-13 -0.88817841970E-15 -0.62567141532E+02  0.46132274071E+03  0.45706019723E+03 0.  0.
      99925    2    3    3    0    0 -0.11512209750E+03 -0.30053775760E+00 -0.39335696098E+02  0.28974070257E+03  0.26296233586E+03 0.  0.
         25    1    4    4    0    0 -0.26800535506E+02  0.28795212052E+02 -0.20945348364E+02  0.13279174921E+03  0.12509000000E+03 0.  0.
         25    1    4    4    0    0 -0.88321561992E+02 -0.29095749809E+02 -0.18390347734E+02  0.15694895336E+03  0.12509000000E+03 0.  0.
         25    1    3    3    0    0  0.11512209750E+03  0.30053775760E+00 -0.23231445433E+02  0.17158203814E+03  0.12509000000E+03 0.  0.
<mgrwt>
<rscale>  2 0.45706020E+03</rscale>
<asrwt>0</asrwt>
<pdfrwt beam="1">  1       21 0.29320265E-01 0.45706020E+03</pdfrwt>
<pdfrwt beam="2">  1       21 0.38521314E-01 0.45706020E+03</pdfrwt>
<totfact> 0.66977089E+04</totfact>
</mgrwt>
</event>
<event>
 7    0  0.4725730E-002  0.4312369E+03  0.7546771E-02  0.1033470E+00
         21   -1    0    0  502  501  0.00000000000E+00  0.00000000000E+00  0.14750546157E+03  0.14750546157E+03  0.00000000000E+00 0.  1.
         21   -1    0    0  501  502 -0.00000000000E+00 -0.00000000000E+00 -0.31518372189E+03  0.31518372189E+03  0.00000000000E+00 0.  1.
      99926    2    1    2    0    0  0.14210854715E-13 -0.71054273576E-14 -0.16767826032E+03  0.46268918347E+03  0.43123692040E+03 0.  0.
      99925    2    3    3    0    0 -0.69575107183E+02  0.24773390455E+02 -0.54551546681E+02  0.27857080347E+03  0.26300457199E+03 0.  0.
         25    1    4    4    0    0 -0.47421725926E+02 -0.67105873247E+01  0.66037127314E+01  0.13410805044E+03  0.12509000000E+03 0.  0.
         25    1    3    3    0    0  0.69575107183E+02 -0.24773390455E+02 -0.11312671364E+03  0.18411838000E+03  0.12509000000E+03 0.  0.
         25    1    4    4    0    0 -0.22153381257E+02  0.31483977780E+02 -0.61155259413E+02  0.14446275303E+03  0.12509000000E+03 0.  0.
<mgrwt>
<rscale>  2 0.43123692E+03</rscale>
<asrwt>0</asrwt>
<pdfrwt beam="1">  1       21 0.21691980E-01 0.43123692E+03</pdfrwt>
<pdfrwt beam="2">  1       21 0.46350546E-01 0.43123692E+03</pdfrwt>
<totfact> 0.82473272E+04</totfact>
</mgrwt>
</event>
<event>
 7    0  0.4725730E-002  0.4586010E+03  0.7546771E-02  0.1025188E+00
         21   -1    0    0  502  501  0.00000000000E+00  0.00000000000E+00  0.13432359148E+03  0.13432359148E+03  0.00000000000E+00 0. -1.
         21   -1    0    0  501  502 -0.00000000000E+00 -0.00000000000E+00 -0.39143321697E+03  0.39143321697E+03  0.00000000000E+00 0. -1.
      99926    2    1    2    0    0 -0.71054273576E-14 -0.71054273576E-14 -0.25710962549E+03  0.52575680845E+03  0.45860098355E+03 0.  0.
      99925    2    3    3    0    0  0.52494335542E+02  0.37197458814E+02 -0.27231098484E+03  0.38427219574E+03  0.26338667724E+03 0.  0.
         25    1    4    4    0    0  0.46948163548E+02  0.49880720360E+02 -0.11769663018E+03  0.18491138737E+03  0.12509000000E+03 0.  0.
         25    1    3    3    0    0 -0.52494335542E+02 -0.37197458814E+02  0.15201359352E+02  0.14148461271E+03  0.12509000000E+03 0.  0.
         25    1    4    4    0    0  0.55461719939E+01 -0.12683261546E+02 -0.15461435466E+03  0.19936080837E+03  0.12509000000E+03 0.  0.
<mgrwt>
<rscale>  2 0.45860098E+03</rscale>
<asrwt>0</asrwt>
<pdfrwt beam="1">  1       21 0.19753469E-01 0.45860098E+03</pdfrwt>
<pdfrwt beam="2">  1       21 0.57563709E-01 0.45860098E+03</pdfrwt>
<totfact> 0.61713991E+04</totfact>
</mgrwt>
</event>
<event>
 7    0  0.4725730E-002  0.4430185E+03  0.7546771E-02  0.1029825E+00
         21   -1    0    0  502  501  0.00000000000E+00  0.00000000000E+00  0.12927425815E+03  0.12927425815E+03  0.00000000000E+00 0.  1.
         21   -1    0    0  501  502 -0.00000000000E+00 -0.00000000000E+00 -0.37955228267E+03  0.37955228267E+03  0.00000000000E+00 0.  1.
      99926    2    1    2    0    0  0.00000000000E+00  0.00000000000E+00 -0.25027802452E+03  0.50882654082E+03  0.44301846359E+03 0.  0.
      99925    2    3    3    0    0  0.52129785480E+02  0.28599789855E+02 -0.25373916922E+03  0.37028069954E+03  0.26303757895E+03 0.  0.
         25    1    4    4    0    0  0.17119122957E+02 -0.87634514868E+01 -0.16754295300E+03  0.20997145437E+03  0.12509000000E+03 0.  0.
         25    1    4    4    0    0  0.35010662524E+02  0.37363241341E+02 -0.86196216220E+02  0.16030924516E+03  0.12509000000E+03 0.  0.
         25    1    3    3    0    0 -0.52129785480E+02 -0.28599789855E+02  0.34611446918E+01  0.13854584128E+03  0.12509000000E+03 0.  0.
<mgrwt>
<rscale>  2 0.44301846E+03</rscale>
<asrwt>0</asrwt>
<pdfrwt beam="1">  1       21 0.19010920E-01 0.44301846E+03</pdfrwt>
<pdfrwt beam="2">  1       21 0.55816513E-01 0.44301846E+03</pdfrwt>
<totfact> 0.71185697E+04</totfact>
</mgrwt>
</event>
<event>
 7    0  0.4725730E-002  0.4570083E+03  0.7546771E-02  0.1025652E+00
         21   -1    0    0  502  501  0.00000000000E+00  0.00000000000E+00  0.14767820538E+03  0.14767820538E+03  0.00000000000E+00 0. -1.
         21   -1    0    0  501  502 -0.00000000000E+00 -0.00000000000E+00 -0.35356699432E+03  0.35356699432E+03  0.00000000000E+00 0. -1.
      99926    2    1    2    0    0  0.00000000000E+00  0.00000000000E+00 -0.20588878895E+03  0.50124519970E+03  0.45700826777E+03 0.  0.
      99925    2    3    3    0    0  0.21984844964E+02 -0.24975908022E+02 -0.25021103581E+03  0.36442744114E+03  0.26285864647E+03 0.  0.
         25    1    3    3    0    0 -0.21984844964E+02  0.24975908022E+02  0.44322246869E+02  0.13681775856E+03  0.12509000000E+03 0.  0.
         25    1    4    4    0    0 -0.25562410820E+02  0.32540224229E+00 -0.13758884284E+03  0.18770120007E+03  0.12509000000E+03 0.  0.
         25    1    4    4    0    0  0.47547255784E+02 -0.25301310265E+02 -0.11262219297E+03  0.17672624107E+03  0.12509000000E+03 0.  0.
<mgrwt>
<rscale>  2 0.45700827E+03</rscale>
<asrwt>0</asrwt>
<pdfrwt beam="1">  1       21 0.21717383E-01 0.45700827E+03</pdfrwt>
<pdfrwt beam="2">  1       21 0.51995146E-01 0.45700827E+03</pdfrwt>
<totfact> 0.64154424E+04</totfact>
</mgrwt>
</event>
<event>
 7    0  0.4725730E-002  0.4529050E+03  0.7546771E-02  0.1026859E+00
         21   -1    0    0  502  501  0.00000000000E+00  0.00000000000E+00  0.92469967259E+03  0.92469967259E+03  0.00000000000E+00 0. -1.
         21   -1    0    0  501  502 -0.00000000000E+00 -0.00000000000E+00 -0.55456649427E+02  0.55456649427E+02  0.00000000000E+00 0. -1.
      99926    2    1    2    0    0  0.00000000000E+00  0.00000000000E+00  0.86924302316E+03  0.98015632201E+03  0.45290504774E+03 0.  0.
      99925    2    3    3    0    0  0.72983564048E+01  0.13719049077E+02  0.78625399142E+03  0.82923857686E+03  0.26305854864E+03 0.  0.
         25    1    4    4    0    0 -0.22669032015E+02 -0.22197685551E+02  0.35189561678E+03  0.37481282724E+03  0.12509000000E+03 0.  0.
         25    1    4    4    0    0  0.29967388419E+02  0.35916734628E+02  0.43435837464E+03  0.45442574962E+03  0.12509000000E+03 0.  0.
         25    1    3    3    0    0 -0.72983564048E+01 -0.13719049077E+02  0.82989031743E+02  0.15091774516E+03  0.12509000000E+03 0.  0.
<mgrwt>
<rscale>  2 0.45290505E+03</rscale>
<asrwt>0</asrwt>
<pdfrwt beam="1">  1       21 0.13598524E+00 0.45290505E+03</pdfrwt>
<pdfrwt beam="2">  1       21 0.81553902E-02 0.45290505E+03</pdfrwt>
<totfact> 0.40603942E+04</totfact>
</mgrwt>
</event>
<event>
 7    0  0.4725730E-002  0.4403852E+03  0.7546771E-02  0.1030629E+00
         21   -1    0    0  502  501  0.00000000000E+00  0.00000000000E+00  0.11760910473E+03  0.11760910473E+03  0.00000000000E+00 0. -1.
         21   -1    0    0  501  502 -0.00000000000E+00 -0.00000000000E+00 -0.41225358220E+03  0.41225358220E+03  0.00000000000E+00 0. -1.
      99926    2    1    2    0    0  0.00000000000E+00 -0.14210854715E-13 -0.29464447747E+03  0.52986268693E+03  0.44038517107E+03 0.  0.
      99925    2    3    3    0    0 -0.16088745142E+02 -0.89898944551E+02 -0.14258735737E+03  0.31281535609E+03  0.26302399999E+03 0.  0.
         25    1    4    4    0    0 -0.10833711625E+02 -0.36630628468E+02 -0.25380597846E+02  0.13323233503E+03  0.12509000000E+03 0.  0.
         25    1    3    3    0    0  0.16088745142E+02  0.89898944551E+02 -0.15205712010E+03  0.21704733084E+03  0.12509000000E+03 0.  0.
         25    1    4    4    0    0 -0.52550335167E+01 -0.53268316084E+02 -0.11720675953E+03  0.17958302106E+03  0.12509000000E+03 0.  0.
<mgrwt>
<rscale>  2 0.44038517E+03</rscale>
<asrwt>0</asrwt>
<pdfrwt beam="1">  1       21 0.17295457E-01 0.44038517E+03</pdfrwt>
<pdfrwt beam="2">  1       21 0.60625526E-01 0.44038517E+03</pdfrwt>
<totfact> 0.71091504E+04</totfact>
</mgrwt>
</event>
<event>
 7    0  0.4725730E-002  0.4443254E+03  0.7546771E-02  0.1029428E+00
         21   -1    0    0  502  501  0.00000000000E+00  0.00000000000E+00  0.14470333759E+03  0.14470333759E+03  0.00000000000E+00 0. -1.
         21   -1    0    0  501  502 -0.00000000000E+00 -0.00000000000E+00 -0.34108585945E+03  0.34108585945E+03  0.00000000000E+00 0. -1.
      99926    2    1    2    0    0  0.71054273576E-14  0.71054273576E-14 -0.19638252185E+03  0.48578919704E+03  0.44432538648E+03 0.  0.
      99925    2    3    3    0    0 -0.36501723892E+02  0.45835132928E+02 -0.32638432419E+02  0.27156298440E+03  0.26315005599E+03 0.  0.
         25    1    3    3    0    0  0.36501723892E+02 -0.45835132928E+02 -0.16374408943E+03  0.21422621264E+03  0.12509000000E+03 0.  0.
         25    1    4    4    0    0 -0.39530698317E+02  0.17330664766E+02  0.18109930638E+02  0.13356086904E+03  0.12509000000E+03 0.  0.
         25    1    4    4    0    0  0.30289744254E+01  0.28504468162E+02 -0.50748363057E+02  0.13800211536E+03  0.12509000000E+03 0.  0.
<mgrwt>
<rscale>  2 0.44432539E+03</rscale>
<asrwt>0</asrwt>
<pdfrwt beam="1">  1       21 0.21279903E-01 0.44432539E+03</pdfrwt>
<pdfrwt beam="2">  1       21 0.50159685E-01 0.44432539E+03</pdfrwt>
<totfact> 0.72208874E+04</totfact>
</mgrwt>
</event>
<event>
 7    0  0.4725730E-002  0.4615052E+03  0.7546771E-02  0.1024346E+00
         21   -1    0    0  502  501  0.00000000000E+00  0.00000000000E+00  0.58545874084E+02  0.58545874084E+02  0.00000000000E+00 0.  1.
         21   -1    0    0  501  502 -0.00000000000E+00 -0.00000000000E+00 -0.90948803320E+03  0.90948803320E+03  0.00000000000E+00 0.  1.
      99926    2    1    2    0    0  0.00000000000E+00 -0.14210854715E-13 -0.85094215911E+03  0.96803390728E+03  0.46150524102E+03 0.  0.
      99925    2    3    3    0    0  0.34149902368E+02  0.91608570313E+02 -0.67506822926E+03  0.73110038646E+03  0.26312034308E+03 0.  0.
         25    1    4    4    0    0  0.15653719005E+02  0.13167442821E+02 -0.24207341234E+03  0.27324982256E+03  0.12509000000E+03 0.  0.
         25    1    4    4    0    0  0.18496183363E+02  0.78441127492E+02 -0.43299481692E+03  0.45785056390E+03  0.12509000000E+03 0.  0.
         25    1    3    3    0    0 -0.34149902368E+02 -0.91608570313E+02 -0.17587392985E+03  0.23693352082E+03  0.12509000000E+03 0.  0.
<mgrwt>
<rscale>  2 0.46150524E+03</rscale>
<asrwt>0</asrwt>
<pdfrwt beam="1">  1       21 0.86096871E-02 0.46150524E+03</pdfrwt>
<pdfrwt beam="2">  1       21 0.13374824E+00 0.46150524E+03</pdfrwt>
<totfact> 0.38427144E+04</totfact>
</mgrwt>
</event>
<event>
 7    0  0.4725730E-002  0.4535140E+03  0.7546771E-02  0.1026679E+00
         21   -1    0    0  502  501  0.00000000000E+00  0.00000000000E+00  0.43927552317E+02  0.43927552317E+02  0.00000000000E+00 0.  1.
         21   -1    0    0  501  502 -0.00000000000E+00 -0.00000000000E+00 -0.11705349958E+04  0.11705349958E+04  0.00000000000E+00 0.  1.
      99926    2    1    2    0    0  0.35527136788E-14  0.00000000000E+00 -0.11266074435E+04  0.12144625482E+04  0.45351400097E+03 0.  0.
      99925    2    3    3    0    0 -0.21501068183E+02  0.40541485969E+02 -0.43693651675E+03  0.51203859971E+03  0.26299068406E+03 0.  0.
         25    1    3    3    0    0  0.21501068183E+02 -0.40541485969E+02 -0.68967092677E+03  0.70242394844E+03  0.12509000000E+03 0.  0.
         25    1    4    4    0    0  0.45453964536E+00  0.28917990975E+02 -0.14627261187E+03  0.19462693003E+03  0.12509000000E+03 0.  0.
         25    1    4    4    0    0 -0.21955607828E+02  0.11623494994E+02 -0.29066390487E+03  0.31741166968E+03  0.12509000000E+03 0.  0.
<mgrwt>
<rscale>  2 0.45351400E+03</rscale>
<asrwt>0</asrwt>
<pdfrwt beam="1">  1       21 0.64599343E-02 0.45351400E+03</pdfrwt>
<pdfrwt beam="2">  1       21 0.17213750E+00 0.45351400E+03</pdfrwt>
<totfact> 0.32070482E+04</totfact>
</mgrwt>
</event>
<event>
 7    0  0.4725730E-002  0.4554656E+03  0.7546771E-02  0.1026105E+00
         21   -1    0    0  502  501  0.00000000000E+00  0.00000000000E+00  0.75978851348E+02  0.75978851348E+02  0.00000000000E+00 0. -1.
         21   -1    0    0  501  502 -0.00000000000E+00 -0.00000000000E+00 -0.68258768356E+03  0.68258768356E+03  0.00000000000E+00 0. -1.
      99926    2    1    2    0    0  0.00000000000E+00  0.71054273576E-14 -0.60660883221E+03  0.75856653491E+03  0.45546559976E+03 0.  0.
      99925    2    3    3    0    0 -0.34868377404E+02  0.63995355258E+02 -0.52682848239E+03  0.59326795187E+03  0.26288287052E+03 0.  0.
         25    1    3    3    0    0  0.34868377404E+02 -0.63995355258E+02 -0.79780349817E+02  0.16529858304E+03  0.12509000000E+03 0.  0.
         25    1    4    4    0    0 -0.24812909763E+02  0.32057209866E+02 -0.17893254041E+03  0.22205338843E+03  0.12509000000E+03 0.  0.
         25    1    4    4    0    0 -0.10055467641E+02  0.31938145392E+02 -0.34789594198E+03  0.37121456344E+03  0.12509000000E+03 0.  0.
<mgrwt>
<rscale>  2 0.45546560E+03</rscale>
<asrwt>0</asrwt>
<pdfrwt beam="1">  1       21 0.11173361E-01 0.45546560E+03</pdfrwt>
<pdfrwt beam="2">  1       21 0.10038054E+00 0.45546560E+03</pdfrwt>
<totfact> 0.49651876E+04</totfact>
</mgrwt>
</event>
<event>
 7    0  0.4725730E-002  0.4519606E+03  0.7546771E-02  0.1027139E+00
         21   -1    0    0  502  501  0.00000000000E+00  0.00000000000E+00  0.52400411641E+03  0.52400411641E+03  0.00000000000E+00 0.  1.
         21   -1    0    0  501  502 -0.00000000000E+00 -0.00000000000E+00 -0.97455523919E+02  0.97455523919E+02  0.00000000000E+00 0.  1.
      99926    2    1    2    0    0 -0.14210854715E-13  0.71054273576E-14  0.42654859249E+03  0.62145964032E+03  0.45196059872E+03 0.  0.
      99925    2    3    3    0    0  0.10240673206E+03 -0.38751480811E+02  0.28793345194E+03  0.40500992024E+03  0.26294209764E+03 0.  0.
         25    1    3    3    0    0 -0.10240673206E+03  0.38751480811E+02  0.13861514055E+03  0.21644972008E+03  0.12509000000E+03 0.  0.
         25    1    4    4    0    0  0.16846750972E+02 -0.37916118731E+02  0.11344148376E+03  0.17389055010E+03  0.12509000000E+03 0.  0.
         25    1    4    4    0    0  0.85559981084E+02 -0.83536208010E+00  0.17449196818E+03  0.23111937014E+03  0.12509000000E+03 0.  0.
<mgrwt>
<rscale>  2 0.45196060E+03</rscale>
<asrwt>0</asrwt>
<pdfrwt beam="1">  1       21 0.77059428E-01 0.45196060E+03</pdfrwt>
<pdfrwt beam="2">  1       21 0.14331695E-01 0.45196060E+03</pdfrwt>
<totfact> 0.58774324E+04</totfact>
</mgrwt>
</event>
<event>
 7    0  0.4725730E-002  0.4462532E+03  0.7546771E-02  0.1028845E+00
         21   -1    0    0  502  501  0.00000000000E+00  0.00000000000E+00  0.66949949726E+03  0.66949949726E+03  0.00000000000E+00 0.  1.
         21   -1    0    0  501  502 -0.00000000000E+00 -0.00000000000E+00 -0.74362227661E+02  0.74362227661E+02  0.00000000000E+00 0.  1.
      99926    2    1    2    0    0  0.00000000000E+00  0.00000000000E+00  0.59513726960E+03  0.74386172492E+03  0.44625317493E+03 0.  0.
      99925    2    3    3    0    0 -0.10704531941E+02  0.84798479491E+02  0.27653417861E+03  0.39107169273E+03  0.26298393066E+03 0.  0.
         25    1    4    4    0    0 -0.20475593735E+01  0.13311330119E+02  0.17087206526E+03  0.21219367284E+03  0.12509000000E+03 0.  0.
         25    1    4    4    0    0 -0.86569725674E+01  0.71487149372E+02  0.10566211335E+03  0.17887801988E+03  0.12509000000E+03 0.  0.
         25    1    3    3    0    0  0.10704531941E+02 -0.84798479491E+02  0.31860309099E+03  0.35279003220E+03  0.12509000000E+03 0.  0.
<mgrwt>
<rscale>  2 0.44625317E+03</rscale>
<asrwt>0</asrwt>
<pdfrwt beam="1">  1       21 0.98455805E-01 0.44625317E+03</pdfrwt>
<pdfrwt beam="2">  1       21 0.10935622E-01 0.44625317E+03</pdfrwt>
<totfact> 0.54218140E+04</totfact>
</mgrwt>
</event>
<event>
 7    0  0.4725730E-002  0.4590310E+03  0.7546771E-02  0.1025063E+00
         21   -1    0    0  502  501  0.00000000000E+00  0.00000000000E+00  0.41803290445E+03  0.41803290445E+03  0.00000000000E+00 0. -1.
         21   -1    0    0  501  502 -0.00000000000E+00 -0.00000000000E+00 -0.12601247780E+03  0.12601247780E+03  0.00000000000E+00 0. -1.
      99926    2    1    2    0    0  0.00000000000E+00  0.00000000000E+00  0.29202042665E+03  0.54404538224E+03  0.45903098845E+03 0.  0.
      99925    2    3    3    0    0  0.73502373732E+02 -0.80020646175E+02  0.23426576123E+03  0.36857740159E+03  0.26298850035E+03 0.  0.
         25    1    3    3    0    0 -0.73502373732E+02  0.80020646175E+02  0.57754665422E+02  0.17546798066E+03  0.12509000000E+03 0.  0.
         25    1    4    4    0    0  0.65798132725E+02 -0.68447566444E+02  0.11020354434E+03  0.19185096535E+03  0.12509000000E+03 0.  0.
         25    1    4    4    0    0  0.77042410067E+01 -0.11573079732E+02  0.12406221689E+03  0.17672643623E+03  0.12509000000E+03 0.  0.
<mgrwt>
<rscale>  2 0.45903099E+03</rscale>
<asrwt>0</asrwt>
<pdfrwt beam="1">  1       21 0.61475427E-01 0.45903099E+03</pdfrwt>
<pdfrwt beam="2">  1       21 0.18531247E-01 0.45903099E+03</pdfrwt>
<totfact> 0.60314658E+04</totfact>
</mgrwt>
</event>
<event>
 7    0  0.4725730E-002  0.4624589E+03  0.7546771E-02  0.1024070E+00
         21   -1    0    0  502  501  0.00000000000E+00  0.00000000000E+00  0.17400102255E+03  0.17400102255E+03  0.00000000000E+00 0. -1.
         21   -1    0    0  501  502 -0.00000000000E+00 -0.00000000000E+00 -0.30728017828E+03  0.30728017828E+03  0.00000000000E+00 0. -1.
      99926    2    1    2    0    0 -0.35527136788E-14 -0.14210854715E-13 -0.13327915573E+03  0.48128120082E+03  0.46245892889E+03 0.  0.
      99925    2    3    3    0    0 -0.30892997613E+02 -0.89717287569E+02 -0.15972217574E+03  0.32206339278E+03  0.26307809972E+03 0.  0.
         25    1    3    3    0    0  0.30892997613E+02  0.89717287569E+02  0.26443020011E+02  0.15921780804E+03  0.12509000000E+03 0.  0.
         25    1    4    4    0    0  0.13591526868E+02 -0.73960037197E+02 -0.81551406778E+02  0.16719137763E+03  0.12509000000E+03 0.  0.
         25    1    4    4    0    0 -0.44484524481E+02 -0.15757250372E+02 -0.78170768963E+02  0.15487201515E+03  0.12509000000E+03 0.  0.
<mgrwt>
<rscale>  2 0.46245893E+03</rscale>
<asrwt>0</asrwt>
<pdfrwt beam="1">  1       21 0.25588386E-01 0.46245893E+03</pdfrwt>
<pdfrwt beam="2">  1       21 0.45188261E-01 0.46245893E+03</pdfrwt>
<totfact> 0.62805832E+04</totfact>
</mgrwt>
</event>
<event>
 7    0  0.4725730E-002  0.4434456E+03  0.7546771E-02  0.1029695E+00
         21   -1    0    0  502  501  0.00000000000E+00  0.00000000000E+00  0.23182845940E+02  0.23182845940E+02  0.00000000000E+00 0.  1.
         21   -1    0    0  501  502 -0.00000000000E+00 -0.00000000000E+00 -0.21205761027E+04  0.21205761027E+04  0.00000000000E+00 0.  1.
      99926    2    1    2    0    0  0.00000000000E+00  0.00000000000E+00 -0.20973932567E+04  0.21437589486E+04  0.44344555062E+03 0.  0.
      99925    2    3    3    0    0 -0.50097857576E+02 -0.66766587113E+02 -0.16144936106E+04  0.16379851367E+04  0.26351113235E+03 0.  0.
         25    1    4    4    0    0 -0.30844663948E+02 -0.60576112698E+02 -0.66463475239E+03  0.67971149829E+03  0.12509000000E+03 0.  0.
         25    1    3    3    0    0  0.50097857576E+02  0.66766587113E+02 -0.48289964615E+03  0.50577381193E+03  0.12509000000E+03 0.  0.
         25    1    4    4    0    0 -0.19253193628E+02 -0.61904744141E+01 -0.94985885821E+03  0.95827363840E+03  0.12509000000E+03 0.  0.
<mgrwt>
<rscale>  2 0.44344555E+03</rscale>
<asrwt>0</asrwt>
<pdfrwt beam="1">  1       21 0.34092410E-02 0.44344555E+03</pdfrwt>
<pdfrwt beam="2">  1       21 0.31184952E+00 0.44344555E+03</pdfrwt>
<totfact> 0.12594196E+04</totfact>
</mgrwt>
</event>
<event>
 7    0  0.4725730E-002  0.4591192E+03  0.7546771E-02  0.1025037E+00
         21   -1    0    0  502  501  0.00000000000E+00  0.00000000000E+00  0.18239127588E+03  0.18239127588E+03  0.00000000000E+00 0.  1.
         21   -1    0    0  501  502 -0.00000000000E+00 -0.00000000000E+00 -0.28892617108E+03  0.28892617108E+03  0.00000000000E+00 0.  1.
      99926    2    1    2    0    0  0.00000000000E+00  0.71054273576E-14 -0.10653489520E+03  0.47131744695E+03  0.45911921318E+03 0.  0.
      99925    2    3    3    0    0 -0.10592821740E+03  0.38533469597E+02 -0.99211953983E+02  0.30277442844E+03  0.26291391592E+03 0.  0.
         25    1    4    4    0    0 -0.22598261939E+02  0.38394127669E+02 -0.68307095247E+02  0.14932567711E+03  0.12509000000E+03 0.  0.
         25    1    4    4    0    0 -0.83329955462E+02  0.13934192825E+00 -0.30904858736E+02  0.15344875134E+03  0.12509000000E+03 0.  0.
         25    1    3    3    0    0  0.10592821740E+03 -0.38533469597E+02 -0.73229412203E+01  0.16854301851E+03  0.12509000000E+03 0.  0.
<mgrwt>
<rscale>  2 0.45911921E+03</rscale>
<asrwt>0</asrwt>
<pdfrwt beam="1">  1       21 0.26822247E-01 0.45911921E+03</pdfrwt>
<pdfrwt beam="2">  1       21 0.42489143E-01 0.45911921E+03</pdfrwt>
<totfact> 0.65181961E+04</totfact>
</mgrwt>
</event>
<event>
 7    0  0.4725730E-002  0.4560632E+03  0.7546771E-02  0.1025929E+00
         21   -1    0    0  502  501  0.00000000000E+00  0.00000000000E+00  0.76083602121E+02  0.76083602121E+02  0.00000000000E+00 0. -1.
         21   -1    0    0  501  502 -0.00000000000E+00 -0.00000000000E+00 -0.68343771027E+03  0.68343771027E+03  0.00000000000E+00 0. -1.
      99926    2    1    2    0    0  0.00000000000E+00  0.71054273576E-14 -0.60735410815E+03  0.75952131239E+03  0.45606316590E+03 0.  0.
      99925    2    3    3    0    0  0.98626621721E+02 -0.57413228201E+02 -0.37138221136E+03  0.46908417038E+03  0.26285304393E+03 0.  0.
         25    1    4    4    0    0  0.73991746300E+02 -0.87781740870E+01 -0.15012793147E+03  0.20913569463E+03  0.12509000000E+03 0.  0.
         25    1    3    3    0    0 -0.98626621721E+02  0.57413228201E+02 -0.23597189679E+03  0.29043714201E+03  0.12509000000E+03 0.  0.
         25    1    4    4    0    0  0.24634875421E+02 -0.48635054114E+02 -0.22125427989E+03  0.25994847575E+03  0.12509000000E+03 0.  0.
<mgrwt>
<rscale>  2 0.45606317E+03</rscale>
<asrwt>0</asrwt>
<pdfrwt beam="1">  1       21 0.11188764E-01 0.45606317E+03</pdfrwt>
<pdfrwt beam="2">  1       21 0.10050555E+00 0.45606317E+03</pdfrwt>
<totfact> 0.49371136E+04</totfact>
</mgrwt>
</event>
<event>
 7    0  0.4725730E-002  0.4557842E+03  0.7546771E-02  0.1026011E+00
         21   -1    0    0  502  501  0.00000000000E+00  0.00000000000E+00  0.13437667579E+04  0.13437667579E+04  0.00000000000E+00 0.  1.
         21   -1    0    0  501  502 -0.00000000000E+00 -0.00000000000E+00 -0.38648676082E+02  0.38648676082E+02  0.00000000000E+00 0.  1.
      99926    2    1    2    0    0  0.00000000000E+00  0.00000000000E+00  0.13051180818E+04  0.13824154340E+04  0.45578418645E+03 0.  0.
      99925    2    3    3    0    0  0.82503011371E+02 -0.46938114057E+02  0.62992475699E+03  0.68920300808E+03  0.26303165862E+03 0.  0.
         25    1    4    4    0    0  0.32779808834E+02 -0.38529454672E+02  0.22445860382E+03  0.26189350445E+03  0.12509000000E+03 0.  0.
         25    1    3    3    0    0 -0.82503011371E+02  0.46938114057E+02  0.67519332482E+03  0.69321242590E+03  0.12509000000E+03 0.  0.
         25    1    4    4    0    0  0.49723202537E+02 -0.84086593856E+01  0.40546615317E+03  0.42730950363E+03  0.12509000000E+03 0.  0.
<mgrwt>
<rscale>  2 0.45578419E+03</rscale>
<asrwt>0</asrwt>
<pdfrwt beam="1">  1       21 0.19761273E+00 0.45578419E+03</pdfrwt>
<pdfrwt beam="2">  1       21 0.56836297E-02 0.45578419E+03</pdfrwt>
<totfact> 0.26641658E+04</totfact>
</mgrwt>
</event>
<event>
 7    0  0.4725730E-002  0.4588368E+03  0.7546771E-02  0.1025119E+00
         21   -1    0    0  502  501  0.00000000000E+00  0.00000000000E+00  0.52683448751E+02  0.52683448751E+02  0.00000000000E+00 0.  1.
         21   -1    0    0  501  502 -0.00000000000E+00 -0.00000000000E+00 -0.99903859915E+03  0.99903859915E+03  0.00000000000E+00 0.  1.
      99926    2    1    2    0    0  0.00000000000E+00  0.00000000000E+00 -0.94635515040E+03  0.10517220479E+04  0.45883678509E+03 0.  0.
      99925    2    3    3    0    0  0.84054532045E+02 -0.79606208394E+02 -0.62695603021E+03  0.68969218885E+03  0.26305729179E+03 0.  0.
         25    1    4    4    0    0  0.81974019349E+01 -0.62573898804E+02 -0.30211639931E+03  0.33302329805E+03  0.12509000000E+03 0.  0.
         25    1    3    3    0    0 -0.84054532045E+02  0.79606208394E+02 -0.31939912018E+03  0.36202985905E+03  0.12509000000E+03 0.  0.
         25    1    4    4    0    0  0.75857130110E+02 -0.17032309591E+02 -0.32483963090E+03  0.35666889080E+03  0.12509000000E+03 0.  0.
<mgrwt>
<rscale>  2 0.45883679E+03</rscale>
<asrwt>0</asrwt>
<pdfrwt beam="1">  1       21 0.77475654E-02 0.45883679E+03</pdfrwt>
<pdfrwt beam="2">  1       21 0.14691745E+00 0.45883679E+03</pdfrwt>
<totfact> 0.36120390E+04</totfact>
</mgrwt>
</event>
<event>
 7    0  0.4725730E-002  0.4556521E+03  0.7546771E-02  0.1026050E+00
         21   -1    0    0  502  501  0.00000000000E+00  0.00000000000E+00  0.41916927451E+02  0.41916927451E+02  0.00000000000E+00 0.  1.
         21   -1    0    0  501  502 -0.00000000000E+00 -0.00000000000E+00 -0.12382757121E+04  0.12382757121E+04  0.00000000000E+00 0.  1.
      99926    2    1    2    0    0  0.14210854715E-13 -0.35527136788E-14 -0.11963587846E+04  0.12801926395E+04  0.45565211813E+03 0.  0.
      99925    2    3    3    0    0 -0.10672804255E+03  0.18207720923E+02 -0.85083103972E+03  0.89710084013E+03  0.26297160122E+03 0.  0.
         25    1    4    4    0    0 -0.60550839473E+02 -0.21043360030E+02 -0.34538502545E+03  0.37289080314E+03  0.12509000000E+03 0.  0.
         25    1    4    4    0    0 -0.46177203073E+02  0.39251080952E+02 -0.50544601427E+03  0.52421003699E+03  0.12509000000E+03 0.  0.
         25    1    3    3    0    0  0.10672804255E+03 -0.18207720923E+02 -0.34552774492E+03  0.38309179942E+03  0.12509000000E+03 0.  0.
<mgrwt>
<rscale>  2 0.45565212E+03</rscale>
<asrwt>0</asrwt>
<pdfrwt beam="1">  1       21 0.61642553E-02 0.45565212E+03</pdfrwt>
<pdfrwt beam="2">  1       21 0.18209933E+00 0.45565212E+03</pdfrwt>
<totfact> 0.29545285E+04</totfact>
</mgrwt>
</event>
<event>
 7    0  0.4725730E-002  0.4555016E+03  0.7546771E-02  0.1026094E+00
         21   -1    0    0  502  501  0.00000000000E+00  0.00000000000E+00  0.24371535536E+03  0.24371535536E+03  0.00000000000E+00 0. -1.
         21   -1    0    0  501  502 -0.00000000000E+00 -0.00000000000E+00 -0.21283198551E+03  0.21283198551E+03  0.00000000000E+00 0. -1.
      99926    2    1    2    0    0  0.26645352591E-14  0.00000000000E+00  0.30883369843E+02  0.45654734087E+03  0.45550158279E+03 0.  0.
      99925    2    3    3    0    0  0.46050925424E+01  0.89809734241E+02 -0.50255972531E+02  0.28242641673E+03  0.26296772207E+03 0.  0.
         25    1    3    3    0    0 -0.46050925424E+01 -0.89809734241E+02  0.81139342373E+02  0.17412092414E+03  0.12509000000E+03 0.  0.
         25    1    4    4    0    0 -0.37760505285E+02  0.44831568887E+02 -0.18913399158E+02  0.13943080756E+03  0.12509000000E+03 0.  0.
         25    1    4    4    0    0  0.42365597827E+02  0.44978165353E+02 -0.31342573373E+02  0.14299560918E+03  0.12509000000E+03 0.  0.
<mgrwt>
<rscale>  2 0.45550158E+03</rscale>
<asrwt>0</asrwt>
<pdfrwt beam="1">  1       21 0.35840493E-01 0.45550158E+03</pdfrwt>
<pdfrwt beam="2">  1       21 0.31298821E-01 0.45550158E+03</pdfrwt>
<totfact> 0.68159437E+04</totfact>
</mgrwt>
</event>
<event>
 7    0  0.4725730E-002  0.4474586E+03  0.7546771E-02  0.1028483E+00
         21   -1    0    0  502  501  0.00000000000E+00  0.00000000000E+00  0.33651796825E+02  0.33651796825E+02  0.00000000000E+00 0.  1.
         21   -1    0    0  501  502 -0.00000000000E+00 -0.00000000000E+00 -0.14874334699E+04  0.14874334699E+04  0.00000000000E+00 0.  1.
      99926    2    1    2    0    0  0.00000000000E+00  0.00000000000E+00 -0.14537816731E+04  0.15210852667E+04  0.44745864131E+03 0.  0.
      99925    2    3    3    0    0  0.81070291804E+02 -0.60534441182E+02 -0.81451122140E+03  0.86188042051E+03  0.26300668946E+03 0.  0.
         25    1    4    4    0    0  0.26383797183E+02  0.45792619776E+01 -0.31544722603E+03  0.34039908182E+03  0.12509000000E+03 0.  0.
         25    1    3    3    0    0 -0.81070291804E+02  0.60534441182E+02 -0.63927045170E+03  0.65920484624E+03  0.12509000000E+03 0.  0.
         25    1    4    4    0    0  0.54686494621E+02 -0.65113703160E+02 -0.49906399537E+03  0.52148133869E+03  0.12509000000E+03 0.  0.
<mgrwt>
<rscale>  2 0.44745864E+03</rscale>
<asrwt>0</asrwt>
<pdfrwt beam="1">  1       21 0.49487943E-02 0.44745864E+03</pdfrwt>
<pdfrwt beam="2">  1       21 0.21874019E+00 0.44745864E+03</pdfrwt>
<totfact> 0.24681394E+04</totfact>
</mgrwt>
</event>
<event>
 7    0  0.4725730E-002  0.4551744E+03  0.7546771E-02  0.1026190E+00
         21   -1    0    0  502  501  0.00000000000E+00  0.00000000000E+00  0.17488150924E+03  0.17488150924E+03  0.00000000000E+00 0.  1.
         21   -1    0    0  501  502 -0.00000000000E+00 -0.00000000000E+00 -0.29617730638E+03  0.29617730638E+03  0.00000000000E+00 0.  1.
      99926    2    1    2    0    0  0.71054273576E-14  0.00000000000E+00 -0.12129579714E+03  0.47105881563E+03  0.45517440325E+03 0.  0.
      99925    2    3    3    0    0  0.51904320585E+02 -0.99731007393E+02 -0.91287900121E+02  0.30021293679E+03  0.26297147065E+03 0.  0.
         25    1    4    4    0    0  0.44923767306E+02 -0.27944355762E+02 -0.74328648042E+02  0.15482663824E+03  0.12509000000E+03 0.  0.
         25    1    4    4    0    0  0.69805532791E+01 -0.71786651630E+02 -0.16959252080E+02  0.14538629855E+03  0.12509000000E+03 0.  0.
         25    1    3    3    0    0 -0.51904320585E+02  0.99731007393E+02 -0.30007897022E+02  0.17084587883E+03  0.12509000000E+03 0.  0.
<mgrwt>
<rscale>  2 0.45517440E+03</rscale>
<asrwt>0</asrwt>
<pdfrwt beam="1">  1       21 0.25717869E-01 0.45517440E+03</pdfrwt>
<pdfrwt beam="2">  1       21 0.43555485E-01 0.45517440E+03</pdfrwt>
<totfact> 0.67263930E+04</totfact>
</mgrwt>
</event>
<event>
 7    0  0.4725730E-002  0.4492375E+03  0.7546771E-02  0.1027950E+00
         21   -1    0    0  502  501  0.00000000000E+00  0.00000000000E+00  0.34335366849E+03  0.34335366849E+03  0.00000000000E+00 0.  1.
         21   -1    0    0  501  502 -0.00000000000E+00 -0.00000000000E+00 -0.14694346023E+03  0.14694346023E+03  0.00000000000E+00 0.  1.
      99926    2    1    2    0    0  0.35527136788E-14  0.00000000000E+00  0.19641020826E+03  0.49029712873E+03  0.44923747009E+03 0.  0.
      99925    2    3    3    0    0  0.19453242957E+02 -0.10028727074E+03  0.16152693084E+03  0.32506905461E+03  0.26295051920E+03 0.  0.
         25    1    3    3    0    0 -0.19453242957E+02  0.10028727074E+03  0.34883277424E+02  0.16522807412E+03  0.12509000000E+03 0.  0.
         25    1    4    4    0    0 -0.30128645045E+02 -0.42206094077E+02  0.82437919365E+02  0.15853267259E+03  0.12509000000E+03 0.  0.
         25    1    4    4    0    0  0.49581888002E+02 -0.58081176661E+02  0.79089011470E+02  0.16653638202E+03  0.12509000000E+03 0.  0.
<mgrwt>
<rscale>  2 0.44923747E+03</rscale>
<asrwt>0</asrwt>
<pdfrwt beam="1">  1       21 0.50493187E-01 0.44923747E+03</pdfrwt>
<pdfrwt beam="2">  1       21 0.21609332E-01 0.44923747E+03</pdfrwt>
<totfact> 0.69063589E+04</totfact>
</mgrwt>
</event>
<event>
 7    0  0.4725730E-002  0.4538297E+03  0.7546771E-02  0.1026586E+00
         21   -1    0    0  502  501  0.00000000000E+00  0.00000000000E+00  0.12505201514E+04  0.12505201514E+04  0.00000000000E+00 0. -1.
         21   -1    0    0  501  502 -0.00000000000E+00 -0.00000000000E+00 -0.41175150027E+02  0.41175150027E+02  0.00000000000E+00 0. -1.
      99926    2    1    2    0    0  0.00000000000E+00  0.35527136788E-14  0.12093450013E+04  0.12916953014E+04  0.45382972509E+03 0.  0.
      99925    2    3    3    0    0  0.82407001013E+02 -0.18104308318E+02  0.55215974436E+03  0.61741149624E+03  0.26305492317E+03 0.  0.
         25    1    4    4    0    0  0.50291647782E+02  0.27605400302E+02  0.31027218073E+03  0.33942251280E+03  0.12509000000E+03 0.  0.
         25    1    4    4    0    0  0.32115353232E+02 -0.45709708620E+02  0.24188756363E+03  0.27798898344E+03  0.12509000000E+03 0.  0.
         25    1    3    3    0    0 -0.82407001013E+02  0.18104308318E+02  0.65718525698E+03  0.67428380515E+03  0.12509000000E+03 0.  0.
<mgrwt>
<rscale>  2 0.45382973E+03</rscale>
<asrwt>0</asrwt>
<pdfrwt beam="1">  1       21 0.18390000E+00 0.45382973E+03</pdfrwt>
<pdfrwt beam="2">  1       21 0.60551699E-02 0.45382973E+03</pdfrwt>
<totfact> 0.29625601E+04</totfact>
</mgrwt>
</event>
<event>
 7    0  0.4725730E-002  0.4401088E+03  0.7546771E-02  0.1030713E+00
         21   -1    0    0  502  501  0.00000000000E+00  0.00000000000E+00  0.23128810271E+03  0.23128810271E+03  0.00000000000E+00 0. -1.
         21   -1    0    0  501  502 -0.00000000000E+00 -0.00000000000E+00 -0.20936631337E+03  0.20936631337E+03  0.00000000000E+00 0. -1.
      99926    2    1    2    0    0  0.00000000000E+00 -0.35527136788E-14  0.21921789339E+02  0.44065441608E+03  0.44010879287E+03 0.  0.
      99925    2    3    3    0    0 -0.96904538218E+02 -0.15226541021E+02  0.67266158986E+01  0.28096490961E+03  0.26319896655E+03 0.  0.
         25    1    4    4    0    0 -0.30968150063E+02  0.28843063150E+02  0.13188857094E+02  0.13271172767E+03  0.12509000000E+03 0.  0.
         25    1    3    3    0    0  0.96904538218E+02  0.15226541021E+02  0.15195173441E+02  0.15968950646E+03  0.12509000000E+03 0.  0.
         25    1    4    4    0    0 -0.65936388154E+02 -0.44069604171E+02 -0.64622411951E+01  0.14825318194E+03  0.12509000000E+03 0.  0.
<mgrwt>
<rscale>  2 0.44010879E+03</rscale>
<asrwt>0</asrwt>
<pdfrwt beam="1">  1       21 0.34012957E-01 0.44010879E+03</pdfrwt>
<pdfrwt beam="2">  1       21 0.30789163E-01 0.44010879E+03</pdfrwt>
<totfact> 0.78534206E+04</totfact>
</mgrwt>
</event>
<event>
 7    0  0.4725730E-002  0.4601614E+03  0.7546771E-02  0.1024734E+00
         21   -1    0    0  502  501  0.00000000000E+00  0.00000000000E+00  0.47503467688E+03  0.47503467688E+03  0.00000000000E+00 0. -1.
         21   -1    0    0  501  502 -0.00000000000E+00 -0.00000000000E+00 -0.11143843471E+03  0.11143843471E+03  0.00000000000E+00 0. -1.
      99926    2    1    2    0    0 -0.17763568394E-14  0.00000000000E+00  0.36359624217E+03  0.58647311159E+03  0.46016136659E+03 0.  0.
      99925    2    3    3    0    0 -0.72620332879E+01 -0.24063664671E+02  0.81294549074E+02  0.27667712855E+03  0.26326722672E+03 0.  0.
         25    1    4    4    0    0 -0.29941122397E+02  0.48088154819E+01  0.68170917534E+02  0.14565156235E+03  0.12509000000E+03 0.  0.
         25    1    3    3    0    0  0.72620332879E+01  0.24063664671E+02  0.28230169310E+03  0.30979598305E+03  0.12509000000E+03 0.  0.
         25    1    4    4    0    0  0.22679089109E+02 -0.28872480153E+02  0.13123631539E+02  0.13102556620E+03  0.12509000000E+03 0.  0.
<mgrwt>
<rscale>  2 0.46016137E+03</rscale>
<asrwt>0</asrwt>
<pdfrwt beam="1">  1       21 0.69858040E-01 0.46016137E+03</pdfrwt>
<pdfrwt beam="2">  1       21 0.16388005E-01 0.46016137E+03</pdfrwt>
<totfact> 0.57151129E+04</totfact>
</mgrwt>
</event>
<event>
 7    0  0.4725730E-002  0.4563788E+03  0.7546771E-02  0.1025837E+00
         21   -1    0    0  502  501  0.00000000000E+00  0.00000000000E+00  0.13606692244E+04  0.13606692244E+04  0.00000000000E+00 0. -1.
         21   -1    0    0  501  502 -0.00000000000E+00 -0.00000000000E+00 -0.38268225151E+02  0.38268225151E+02  0.00000000000E+00 0. -1.
      99926    2    1    2    0    0  0.00000000000E+00  0.00000000000E+00  0.13224009993E+04  0.13989374496E+04  0.45637877355E+03 0.  0.
      99925    2    3    3    0    0  0.64870182642E+02  0.84246143630E+02  0.70099062818E+03  0.75620584874E+03  0.26297123713E+03 0.  0.
         25    1    3    3    0    0 -0.64870182642E+02 -0.84246143630E+02  0.62141037108E+03  0.64273160082E+03  0.12509000000E+03 0.  0.
         25    1    4    4    0    0  0.60224593116E+02  0.48159276794E+02  0.29071280233E+03  0.32574185960E+03  0.12509000000E+03 0.  0.
         25    1    4    4    0    0  0.46455895258E+01  0.36086866836E+02  0.41027782584E+03  0.43046398913E+03  0.12509000000E+03 0.  0.
<mgrwt>
<rscale>  2 0.45637877E+03</rscale>
<asrwt>0</asrwt>
<pdfrwt beam="1">  1       21 0.20009838E+00 0.45637877E+03</pdfrwt>
<pdfrwt beam="2">  1       21 0.56276811E-02 0.45637877E+03</pdfrwt>
<totfact> 0.26079773E+04</totfact>
</mgrwt>
</event>
<event>
 7    0  0.4725730E-002  0.4452738E+03  0.7546771E-02  0.1029141E+00
         21   -1    0    0  502  501  0.00000000000E+00  0.00000000000E+00  0.23470178950E+03  0.23470178950E+03  0.00000000000E+00 0. -1.
         21   -1    0    0  501  502 -0.00000000000E+00 -0.00000000000E+00 -0.21119217205E+03  0.21119217205E+03  0.00000000000E+00 0. -1.
      99926    2    1    2    0    0  0.00000000000E+00  0.00000000000E+00  0.23509617450E+02  0.44589396155E+03  0.44527376167E+03 0.  0.
      99925    2    3    3    0    0  0.72564617657E+02  0.74081173206E+02  0.15987347683E+02  0.28323561839E+03  0.26308397191E+03 0.  0.
         25    1    3    3    0    0 -0.72564617657E+02 -0.74081173206E+02  0.75222697672E+01  0.16265834317E+03  0.12509000000E+03 0.  0.
         25    1    4    4    0    0  0.31375798120E+02  0.31297988901E+02  0.47981004748E+02  0.14111587343E+03  0.12509000000E+03 0.  0.
         25    1    4    4    0    0  0.41188819537E+02  0.42783184306E+02 -0.31993657065E+02  0.14211974496E+03  0.12509000000E+03 0.  0.
<mgrwt>
<rscale>  2 0.44527376E+03</rscale>
<asrwt>0</asrwt>
<pdfrwt beam="1">  1       21 0.34514969E-01 0.44527376E+03</pdfrwt>
<pdfrwt beam="2">  1       21 0.31057672E-01 0.44527376E+03</pdfrwt>
<totfact> 0.74861172E+04</totfact>
</mgrwt>
</event>
<event>
 7    0  0.4725730E-002  0.4489488E+03  0.7546771E-02  0.1028036E+00
         21   -1    0    0  502  501  0.00000000000E+00  0.00000000000E+00  0.33318005930E+03  0.33318005930E+03  0.00000000000E+00 0.  1.
         21   -1    0    0  501  502 -0.00000000000E+00 -0.00000000000E+00 -0.15123582974E+03  0.15123582974E+03  0.00000000000E+00 0.  1.
      99926    2    1    2    0    0 -0.17763568394E-14  0.00000000000E+00  0.18194422956E+03  0.48441588903E+03  0.44894882879E+03 0.  0.
      99925    2    3    3    0    0 -0.90510123885E+01  0.70133101939E+02  0.20196287381E+03  0.33933375012E+03  0.26335872639E+03 0.  0.
         25    1    4    4    0    0 -0.41549294098E+02  0.50449623901E+02  0.11795811308E+03  0.18393785074E+03  0.12509000000E+03 0.  0.
         25    1    4    4    0    0  0.32498281710E+02  0.19683478038E+02  0.84004760722E+02  0.15539589939E+03  0.12509000000E+03 0.  0.
         25    1    3    3    0    0  0.90510123885E+01 -0.70133101939E+02 -0.20018644245E+02  0.14508213891E+03  0.12509000000E+03 0.  0.
<mgrwt>
<rscale>  2 0.44894883E+03</rscale>
<asrwt>0</asrwt>
<pdfrwt beam="1">  1       21 0.48997068E-01 0.44894883E+03</pdfrwt>
<pdfrwt beam="2">  1       21 0.22240563E-01 0.44894883E+03</pdfrwt>
<totfact> 0.69667019E+04</totfact>
</mgrwt>
</event>
<event>
 7    0  0.4725730E-002  0.4492547E+03  0.7546771E-02  0.1027945E+00
         21   -1    0    0  502  501  0.00000000000E+00  0.00000000000E+00  0.14602061514E+03  0.14602061514E+03  0.00000000000E+00 0. -1.
         21   -1    0    0  501  502 -0.00000000000E+00 -0.00000000000E+00 -0.34555015860E+03  0.34555015860E+03  0.00000000000E+00 0. -1.
      99926    2    1    2    0    0  0.53290705182E-14 -0.71054273576E-14 -0.19952954346E+03  0.49157077375E+03  0.44925470157E+03 0.  0.
      99925    2    3    3    0    0 -0.14260794951E+02  0.61900083782E+02 -0.30928747790E+02  0.27223375670E+03  0.26290614333E+03 0.  0.
         25    1    4    4    0    0  0.28769764472E+02  0.43041926839E+02 -0.13967271622E+01  0.13538746530E+03  0.12509000000E+03 0.  0.
         25    1    3    3    0    0  0.14260794951E+02 -0.61900083782E+02 -0.16860079567E+03  0.21933701704E+03  0.12509000000E+03 0.  0.
         25    1    4    4    0    0 -0.43030559423E+02  0.18858156943E+02 -0.29532020628E+02  0.13684629140E+03  0.12509000000E+03 0.  0.
<mgrwt>
<rscale>  2 0.44925470E+03</rscale>
<asrwt>0</asrwt>
<pdfrwt beam="1">  1       21 0.21473620E-01 0.44925470E+03</pdfrwt>
<pdfrwt beam="2">  1       21 0.50816199E-01 0.44925470E+03</pdfrwt>
<totfact> 0.68958891E+04</totfact>
</mgrwt>
</event>
<event>
 7    0  0.4725730E-002  0.4894929E+03  0.7546771E-02  0.1016558E+00
         21   -1    0    0  502  501  0.00000000000E+00  0.00000000000E+00  0.24081204492E+02  0.24081204492E+02  0.00000000000E+00 0.  1.
         21   -1    0    0  501  502 -0.00000000000E+00 -0.00000000000E+00 -0.24874509208E+04  0.24874509208E+04  0.00000000000E+00 0.  1.
      99926    2    1    2    0    0  0.00000000000E+00  0.14210854715E-13 -0.24633697163E+04  0.25115321253E+04  0.48949285710E+03 0.  0.
      99925    2    3    3    0    0 -0.64057402275E+02 -0.11944612818E+03 -0.12696828769E+04  0.13036801033E+04  0.26290012469E+03 0.  0.
         25    1    4    4    0    0 -0.14831411231E+02 -0.24272276789E+02 -0.64605324762E+03  0.65866639587E+03  0.12509000000E+03 0.  0.
         25    1    4    4    0    0 -0.49225991044E+02 -0.95173851391E+02 -0.62362962930E+03  0.64501370747E+03  0.12509000000E+03 0.  0.
         25    1    3    3    0    0  0.64057402275E+02  0.11944612818E+03 -0.11936868394E+04  0.12078520220E+04  0.12509000000E+03 0.  0.
<mgrwt>
<rscale>  2 0.48949286E+03</rscale>
<asrwt>0</asrwt>
<pdfrwt beam="1">  1       21 0.35413535E-02 0.48949286E+03</pdfrwt>
<pdfrwt beam="2">  1       21 0.36580162E+00 0.48949286E+03</pdfrwt>
<totfact> 0.54113629E+03</totfact>
</mgrwt>
</event>
<event>
 7    0  0.4725730E-002  0.4651719E+03  0.7546771E-02  0.1023292E+00
         21   -1    0    0  502  501  0.00000000000E+00  0.00000000000E+00  0.18550176436E+03  0.18550176436E+03  0.00000000000E+00 0.  1.
         21   -1    0    0  501  502 -0.00000000000E+00 -0.00000000000E+00 -0.29162106173E+03  0.29162106173E+03  0.00000000000E+00 0.  1.
      99926    2    1    2    0    0  0.00000000000E+00  0.71054273576E-14 -0.10611929737E+03  0.47712282609E+03  0.46517188855E+03 0.  0.
      99925    2    3    3    0    0 -0.11511007833E+03 -0.38771523057E+02 -0.74548300457E+02  0.29992859063E+03  0.26390556879E+03 0.  0.
         25    1    4    4    0    0 -0.71814180608E+02  0.12829331008E+02 -0.61269560736E+02  0.15723655886E+03  0.12509000000E+03 0.  0.
         25    1    4    4    0    0 -0.43295897726E+02 -0.51600854065E+02 -0.13278739721E+02  0.14269203176E+03  0.12509000000E+03 0.  0.
         25    1    3    3    0    0  0.11511007833E+03  0.38771523057E+02 -0.31570996914E+02  0.17719423546E+03  0.12509000000E+03 0.  0.
<mgrwt>
<rscale>  2 0.46517189E+03</rscale>
<asrwt>0</asrwt>
<pdfrwt beam="1">  1       21 0.27279672E-01 0.46517189E+03</pdfrwt>
<pdfrwt beam="2">  1       21 0.42885449E-01 0.46517189E+03</pdfrwt>
<totfact> 0.61772178E+04</totfact>
</mgrwt>
</event>
<event>
 7    0  0.4725730E-002  0.4563300E+03  0.7546771E-02  0.1025851E+00
         21   -1    0    0  502  501  0.00000000000E+00  0.00000000000E+00  0.55425846176E+02  0.55425846176E+02  0.00000000000E+00 0. -1.
         21   -1    0    0  501  502 -0.00000000000E+00 -0.00000000000E+00 -0.93925978184E+03  0.93925978184E+03  0.00000000000E+00 0. -1.
      99926    2    1    2    0    0 -0.71054273576E-14  0.00000000000E+00 -0.88383393567E+03  0.99468562802E+03  0.45633000422E+03 0.  0.
      99925    2    3    3    0    0 -0.37663512318E+02  0.84529885166E+02 -0.40881041947E+03  0.49482695731E+03  0.26299033626E+03 0.  0.
         25    1    4    4    0    0  0.11428190653E+02  0.64819401579E+02 -0.23515985848E+03  0.27437169224E+03  0.12509000000E+03 0.  0.
         25    1    3    3    0    0  0.37663512318E+02 -0.84529885166E+02 -0.47502351619E+03  0.49985867071E+03  0.12509000000E+03 0.  0.
         25    1    4    4    0    0 -0.49091702970E+02  0.19710483587E+02 -0.17365056099E+03  0.22045526507E+03  0.12509000000E+03 0.  0.
<mgrwt>
<rscale>  2 0.45633000E+03</rscale>
<asrwt>0</asrwt>
<pdfrwt beam="1">  1       21 0.81508604E-02 0.45633000E+03</pdfrwt>
<pdfrwt beam="2">  1       21 0.13812643E+00 0.45633000E+03</pdfrwt>
<totfact> 0.38967761E+04</totfact>
</mgrwt>
</event>
<event>
 7    0  0.4725730E-002  0.4463095E+03  0.7546771E-02  0.1028828E+00
         21   -1    0    0  502  501  0.00000000000E+00  0.00000000000E+00  0.64146222429E+03  0.64146222429E+03  0.00000000000E+00 0. -1.
         21   -1    0    0  501  502 -0.00000000000E+00 -0.00000000000E+00 -0.77632077605E+02  0.77632077605E+02  0.00000000000E+00 0. -1.
      99926    2    1    2    0    0 -0.71054273576E-14  0.00000000000E+00  0.56383014669E+03  0.71909430190E+03  0.44630951223E+03 0.  0.
      99925    2    3    3    0    0  0.37662913867E+02 -0.95771554379E+02  0.32628568076E+03  0.43157809870E+03  0.26307151898E+03 0.  0.
         25    1    4    4    0    0  0.54231880990E+02 -0.63860992127E+02  0.19893392466E+03  0.24948253989E+03  0.12509000000E+03 0.  0.
         25    1    3    3    0    0 -0.37662913867E+02  0.95771554379E+02  0.23754446593E+03  0.28751620320E+03  0.12509000000E+03 0.  0.
         25    1    4    4    0    0 -0.16568967122E+02 -0.31910562252E+02  0.12735175610E+03  0.18209555880E+03  0.12509000000E+03 0.  0.
<mgrwt>
<rscale>  2 0.44630951E+03</rscale>
<asrwt>0</asrwt>
<pdfrwt beam="1">  1       21 0.94332677E-01 0.44630951E+03</pdfrwt>
<pdfrwt beam="2">  1       21 0.11416482E-01 0.44630951E+03</pdfrwt>
<totfact> 0.55581562E+04</totfact>
</mgrwt>
</event>
<event>
 7    0  0.4725730E-002  0.4561263E+03  0.7546771E-02  0.1025911E+00
         21   -1    0    0  502  501  0.00000000000E+00  0.00000000000E+00  0.24442413753E+03  0.24442413753E+03  0.00000000000E+00 0. -1.
         21   -1    0    0  501  502 -0.00000000000E+00 -0.00000000000E+00 -0.21279734795E+03  0.21279734795E+03  0.00000000000E+00 0. -1.
      99926    2    1    2    0    0  0.00000000000E+00 -0.71054273576E-14  0.31626789580E+02  0.45722148547E+03  0.45612633443E+03 0.  0.
      99925    2    3    3    0    0 -0.70651078281E+02  0.51442099401E+02 -0.53669687225E+02  0.28240483435E+03  0.26312390748E+03 0.  0.
         25    1    4    4    0    0 -0.24870307875E+02  0.65031029329E+02 -0.33109482208E+02  0.14693982749E+03  0.12509000000E+03 0.  0.
         25    1    4    4    0    0 -0.45780770405E+02 -0.13588929928E+02 -0.20560205017E+02  0.13546500687E+03  0.12509000000E+03 0.  0.
         25    1    3    3    0    0  0.70651078281E+02 -0.51442099401E+02  0.85296476804E+02  0.17481665112E+03  0.12509000000E+03 0.  0.
<mgrwt>
<rscale>  2 0.45612633E+03</rscale>
<asrwt>0</asrwt>
<pdfrwt beam="1">  1       21 0.35944726E-01 0.45612633E+03</pdfrwt>
<pdfrwt beam="2">  1       21 0.31293727E-01 0.45612633E+03</pdfrwt>
<totfact> 0.67772286E+04</totfact>
</mgrwt>
</event>
<event>
 7    0  0.4725730E-002  0.4619652E+03  0.7546771E-02  0.1024213E+00
         21   -1    0    0  502  501  0.00000000000E+00  0.00000000000E+00  0.69409266749E+02  0.69409266749E+02  0.00000000000E+00 0.  1.
         21   -1    0    0  501  502 -0.00000000000E+00 -0.00000000000E+00 -0.76867216034E+03  0.76867216034E+03  0.00000000000E+00 0.  1.
      99926    2    1    2    0    0  0.00000000000E+00  0.00000000000E+00 -0.69926289359E+03  0.83808142709E+03  0.46196524120E+03 0.  0.
      99925    2    3    3    0    0 -0.34172533378E+02 -0.11336356148E+03 -0.46630227122E+03  0.54836222029E+03  0.26314303600E+03 0.  0.
         25    1    4    4    0    0 -0.27065277526E+02 -0.43400876785E+02 -0.15542495524E+03  0.20596259409E+03  0.12509000000E+03 0.  0.
         25    1    4    4    0    0 -0.71072558515E+01 -0.69962684693E+02 -0.31087731597E+03  0.34239962620E+03  0.12509000000E+03 0.  0.
         25    1    3    3    0    0  0.34172533378E+02  0.11336356148E+03 -0.23296062237E+03  0.28971920679E+03  0.12509000000E+03 0.  0.
<mgrwt>
<rscale>  2 0.46196524E+03</rscale>
<asrwt>0</asrwt>
<pdfrwt beam="1">  1       21 0.10207245E-01 0.46196524E+03</pdfrwt>
<pdfrwt beam="2">  1       21 0.11304002E+00 0.46196524E+03</pdfrwt>
<totfact> 0.43548345E+04</totfact>
</mgrwt>
</event>
<event>
 7    0  0.4725730E-002  0.4646714E+03  0.7546771E-02  0.1023435E+00
         21   -1    0    0  502  501  0.00000000000E+00  0.00000000000E+00  0.14878732197E+03  0.14878732197E+03  0.00000000000E+00 0.  1.
         21   -1    0    0  501  502 -0.00000000000E+00 -0.00000000000E+00 -0.36279886809E+03  0.36279886809E+03  0.00000000000E+00 0.  1.
      99926    2    1    2    0    0  0.00000000000E+00 -0.14210854715E-13 -0.21401154611E+03  0.51158619006E+03  0.46467137634E+03 0.  0.
      99925    2    3    3    0    0 -0.11556252079E+02 -0.11945931281E+03 -0.15651814618E+03  0.32894700063E+03  0.26325676584E+03 0.  0.
         25    1    3    3    0    0  0.11556252079E+02  0.11945931281E+03 -0.57493399933E+02  0.18263918943E+03  0.12509000000E+03 0.  0.
         25    1    4    4    0    0 -0.20647286988E+02 -0.93994844585E+02 -0.11167346806E+03  0.19333859635E+03  0.12509000000E+03 0.  0.
         25    1    4    4    0    0  0.90910349087E+01 -0.25464468227E+02 -0.44844678120E+02  0.13560840429E+03  0.12509000000E+03 0.  0.
<mgrwt>
<rscale>  2 0.46467138E+03</rscale>
<asrwt>0</asrwt>
<pdfrwt beam="1">  1       21 0.21880489E-01 0.46467138E+03</pdfrwt>
<pdfrwt beam="2">  1       21 0.53352774E-01 0.46467138E+03</pdfrwt>
<totfact> 0.59744578E+04</totfact>
</mgrwt>
</event>
<event>
 7    0  0.4725730E-002  0.4625421E+03  0.7546771E-02  0.1024047E+00
         21   -1    0    0  502  501  0.00000000000E+00  0.00000000000E+00  0.37243439778E+02  0.37243439778E+02  0.00000000000E+00 0. -1.
         21   -1    0    0  501  502 -0.00000000000E+00 -0.00000000000E+00 -0.14361265255E+04  0.14361265255E+04  0.00000000000E+00 0. -1.
      99926    2    1    2    0    0  0.00000000000E+00  0.00000000000E+00 -0.13988830857E+04  0.14733699653E+04  0.46254207059E+03 0.  0.
      99925    2    3    3    0    0 -0.28567366437E+02  0.79947639251E+02 -0.11439252248E+04  0.11769602178E+04  0.26355780187E+03 0.  0.
         25    1    4    4    0    0  0.18510196776E+02  0.27436744162E+02 -0.64130973989E+03  0.65423320987E+03  0.12509000000E+03 0.  0.
         25    1    4    4    0    0 -0.47077563213E+02  0.52510895090E+02 -0.50261548494E+03  0.52272700797E+03  0.12509000000E+03 0.  0.
         25    1    3    3    0    0  0.28567366437E+02 -0.79947639251E+02 -0.25495786090E+03  0.29640974745E+03  0.12509000000E+03 0.  0.
<mgrwt>
<rscale>  2 0.46254207E+03</rscale>
<asrwt>0</asrwt>
<pdfrwt beam="1">  1       21 0.54769776E-02 0.46254207E+03</pdfrwt>
<pdfrwt beam="2">  1       21 0.21119503E+00 0.46254207E+03</pdfrwt>
<totfact> 0.23058601E+04</totfact>
</mgrwt>
</event>
<event>
 7    0  0.4725730E-002  0.4567697E+03  0.7546771E-02  0.1025722E+00
         21   -1    0    0  502  501  0.00000000000E+00  0.00000000000E+00  0.19042045528E+03  0.19042045528E+03  0.00000000000E+00 0. -1.
         21   -1    0    0  501  502 -0.00000000000E+00 -0.00000000000E+00 -0.27391828386E+03  0.27391828386E+03  0.00000000000E+00 0. -1.
      99926    2    1    2    0    0  0.00000000000E+00  0.00000000000E+00 -0.83497828582E+02  0.46433873914E+03  0.45676972020E+03 0.  0.
      99925    2    3    3    0    0 -0.59115168540E+02  0.43361971051E+02  0.37419626978E+02  0.27554413423E+03  0.26296288282E+03 0.  0.
         25    1    3    3    0    0  0.59115168540E+02 -0.43361971051E+02 -0.12091745556E+03  0.18879460491E+03  0.12509000000E+03 0.  0.
         25    1    4    4    0    0 -0.55653659103E+02  0.43877672525E+02 -0.37117616886E+01  0.14381886244E+03  0.12509000000E+03 0.  0.
         25    1    4    4    0    0 -0.34615094380E+01 -0.51570147377E+00  0.41131388666E+02  0.13172527179E+03  0.12509000000E+03 0.  0.
<mgrwt>
<rscale>  2 0.45676972E+03</rscale>
<asrwt>0</asrwt>
<pdfrwt beam="1">  1       21 0.28003008E-01 0.45676972E+03</pdfrwt>
<pdfrwt beam="2">  1       21 0.40282100E-01 0.45676972E+03</pdfrwt>
<totfact> 0.66912951E+04</totfact>
</mgrwt>
</event>
<event>
 7    0  0.4725730E-002  0.4666719E+03  0.7546771E-02  0.1022864E+00
         21   -1    0    0  502  501  0.00000000000E+00  0.00000000000E+00  0.17258933023E+03  0.17258933023E+03  0.00000000000E+00 0.  1.
         21   -1    0    0  501  502 -0.00000000000E+00 -0.00000000000E+00 -0.31546371502E+03  0.31546371502E+03  0.00000000000E+00 0.  1.
      99926    2    1    2    0    0 -0.35527136788E-14  0.00000000000E+00 -0.14287438479E+03  0.48805304525E+03  0.46667192454E+03 0.  0.
      99925    2    3    3    0    0 -0.30165783445E+02  0.28953444357E+02 -0.21080153324E+03  0.33969576694E+03  0.26307347116E+03 0.  0.
         25    1    4    4    0    0 -0.29875544463E+02 -0.13099657764E+02 -0.71176472771E+02  0.14757285511E+03  0.12509000000E+03 0.  0.
         25    1    3    3    0    0  0.30165783445E+02 -0.28953444357E+02  0.67927148451E+02  0.14835727831E+03  0.12509000000E+03 0.  0.
         25    1    4    4    0    0 -0.29023898218E+00  0.42053102121E+02 -0.13962506047E+03  0.19212291183E+03  0.12509000000E+03 0.  0.
<mgrwt>
<rscale>  2 0.46667192E+03</rscale>
<asrwt>0</asrwt>
<pdfrwt beam="1">  1       21 0.25380784E-01 0.46667192E+03</pdfrwt>
<pdfrwt beam="2">  1       21 0.46391723E-01 0.46667192E+03</pdfrwt>
<totfact> 0.60332033E+04</totfact>
</mgrwt>
</event>
<event>
 7    0  0.4725730E-002  0.4549042E+03  0.7546771E-02  0.1026270E+00
         21   -1    0    0  502  501  0.00000000000E+00  0.00000000000E+00  0.46476931721E+03  0.46476931721E+03  0.00000000000E+00 0. -1.
         21   -1    0    0  501  502 -0.00000000000E+00 -0.00000000000E+00 -0.11131213411E+03  0.11131213411E+03  0.00000000000E+00 0. -1.
      99926    2    1    2    0    0  0.00000000000E+00 -0.71054273576E-14  0.35345718310E+03  0.57608145132E+03  0.45490422978E+03 0.  0.
      99925    2    3    3    0    0 -0.96943278482E+02 -0.36565330277E+02  0.27967907299E+03  0.39768374883E+03  0.26305314595E+03 0.  0.
         25    1    4    4    0    0 -0.89390460286E+02 -0.10244805765E+02  0.13998875734E+03  0.20818254182E+03  0.12509000000E+03 0.  0.
         25    1    3    3    0    0  0.96943278482E+02  0.36565330277E+02  0.73778110106E+02  0.17839770249E+03  0.12509000000E+03 0.  0.
         25    1    4    4    0    0 -0.75528181959E+01 -0.26320524512E+02  0.13969031565E+03  0.18950120701E+03  0.12509000000E+03 0.  0.
<mgrwt>
<rscale>  2 0.45490423E+03</rscale>
<asrwt>0</asrwt>
<pdfrwt beam="1">  1       21 0.68348428E-01 0.45490423E+03</pdfrwt>
<pdfrwt beam="2">  1       21 0.16369432E-01 0.45490423E+03</pdfrwt>
<totfact> 0.60220799E+04</totfact>
</mgrwt>
</event>
<event>
 7    0  0.4725730E-002  0.4615190E+03  0.7546771E-02  0.1024342E+00
         21   -1    0    0  502  501  0.00000000000E+00  0.00000000000E+00  0.55710686265E+03  0.55710686265E+03  0.00000000000E+00 0. -1.
         21   -1    0    0  501  502 -0.00000000000E+00 -0.00000000000E+00 -0.95583000034E+02  0.95583000034E+02  0.00000000000E+00 0. -1.
      99926    2    1    2    0    0  0.00000000000E+00  0.17763568394E-14  0.46152386262E+03  0.65268986269E+03  0.46151899320E+03 0.  0.
      99925    2    3    3    0    0 -0.82725895432E+02  0.14007469634E+02  0.40848563364E+03  0.49300158881E+03  0.26296439055E+03 0.  0.
         25    1    3    3    0    0  0.82725895432E+02 -0.14007469634E+02  0.53038228979E+02  0.15968827388E+03  0.12509000000E+03 0.  0.
         25    1    4    4    0    0 -0.43785833008E+02 -0.69300199250E+01  0.27204865412E+03  0.30269324845E+03  0.12509000000E+03 0.  0.
         25    1    4    4    0    0 -0.38940062424E+02  0.20937489559E+02  0.13643697952E+03  0.19030834036E+03  0.12509000000E+03 0.  0.
<mgrwt>
<rscale>  2 0.46151899E+03</rscale>
<asrwt>0</asrwt>
<pdfrwt beam="1">  1       21 0.81927479E-01 0.46151899E+03</pdfrwt>
<pdfrwt beam="2">  1       21 0.14056324E-01 0.46151899E+03</pdfrwt>
<totfact> 0.52779701E+04</totfact>
</mgrwt>
</event>
<event>
 7    0  0.4725730E-002  0.4544726E+03  0.7546771E-02  0.1026397E+00
         21   -1    0    0  502  501  0.00000000000E+00  0.00000000000E+00  0.17789454819E+02  0.17789454819E+02  0.00000000000E+00 0. -1.
         21   -1    0    0  501  502 -0.00000000000E+00 -0.00000000000E+00 -0.29026373420E+04  0.29026373420E+04  0.00000000000E+00 0. -1.
      99926    2    1    2    0    0  0.00000000000E+00  0.00000000000E+00 -0.28848478871E+04  0.29204267968E+04  0.45447259918E+03 0.  0.
      99925    2    3    3    0    0 -0.96550359325E+02  0.58025214223E+02 -0.17958003337E+04  0.18184463164E+04  0.26298150079E+03 0.  0.
         25    1    4    4    0    0 -0.88666707598E+02  0.31065351011E+02 -0.10768530686E+04  0.10881575623E+04  0.12509000000E+03 0.  0.
         25    1    4    4    0    0 -0.78836517266E+01  0.26959863212E+02 -0.71894726516E+03  0.73028875410E+03  0.12509000000E+03 0.  0.
         25    1    3    3    0    0  0.96550359325E+02 -0.58025214223E+02 -0.10890475534E+04  0.11019804804E+04  0.12509000000E+03 0.  0.
<mgrwt>
<rscale>  2 0.45447260E+03</rscale>
<asrwt>0</asrwt>
<pdfrwt beam="1">  1       21 0.26160961E-02 0.45447260E+03</pdfrwt>
<pdfrwt beam="2">  1       21 0.42685846E+00 0.45447260E+03</pdfrwt>
<totfact> 0.37304913E+03</totfact>
</mgrwt>
</event>
<event>
 7    0  0.4725730E-002  0.4520455E+03  0.7546771E-02  0.1027114E+00
         21   -1    0    0  502  501  0.00000000000E+00  0.00000000000E+00  0.30615923796E+03  0.30615923796E+03  0.00000000000E+00 0. -1.
         21   -1    0    0  501  502 -0.00000000000E+00 -0.00000000000E+00 -0.16686181250E+03  0.16686181250E+03  0.00000000000E+00 0. -1.
      99926    2    1    2    0    0  0.00000000000E+00 -0.17763568394E-14  0.13929742545E+03  0.47302105046E+03  0.45204550815E+03 0.  0.
      99925    2    3    3    0    0 -0.67715014389E+02  0.99093929274E+01  0.17851564306E+03  0.32513901661E+03  0.26299054368E+03 0.  0.
         25    1    4    4    0    0 -0.23481384441E+02  0.43396262996E+02  0.97707879607E+02  0.16621958036E+03  0.12509000000E+03 0.  0.
         25    1    3    3    0    0  0.67715014389E+02 -0.99093929274E+01 -0.39218217603E+02  0.14788203384E+03  0.12509000000E+03 0.  0.
         25    1    4    4    0    0 -0.44233629947E+02 -0.33486870069E+02  0.80807763450E+02  0.15891943625E+03  0.12509000000E+03 0.  0.
<mgrwt>
<rscale>  2 0.45204551E+03</rscale>
<asrwt>0</asrwt>
<pdfrwt beam="1">  1       21 0.45023418E-01 0.45204551E+03</pdfrwt>
<pdfrwt beam="2">  1       21 0.24538502E-01 0.45204551E+03</pdfrwt>
<totfact> 0.68810989E+04</totfact>
</mgrwt>
</event>
<event>
 7    0  0.4725730E-002  0.4635476E+03  0.7546771E-02  0.1023757E+00
         21   -1    0    0  502  501  0.00000000000E+00  0.00000000000E+00  0.27729022545E+03  0.27729022545E+03  0.00000000000E+00 0. -1.
         21   -1    0    0  501  502 -0.00000000000E+00 -0.00000000000E+00 -0.19372873271E+03  0.19372873271E+03  0.00000000000E+00 0. -1.
      99926    2    1    2    0    0  0.00000000000E+00  0.00000000000E+00  0.83561492744E+02  0.47101895816E+03  0.46354755514E+03 0.  0.
      99925    2    3    3    0    0  0.12885685170E+02  0.11301249093E+03  0.94159884436E+02  0.30161500899E+03  0.26299746353E+03 0.  0.
         25    1    3    3    0    0 -0.12885685170E+02 -0.11301249093E+03 -0.10598391693E+02  0.16940394917E+03  0.12509000000E+03 0.  0.
         25    1    4    4    0    0  0.41743433828E+02  0.75605979254E+02  0.61446125077E+02  0.16395704545E+03  0.12509000000E+03 0.  0.
         25    1    4    4    0    0 -0.28857748658E+02  0.37406511674E+02  0.32713759359E+02  0.13765796354E+03  0.12509000000E+03 0.  0.
<mgrwt>
<rscale>  2 0.46354756E+03</rscale>
<asrwt>0</asrwt>
<pdfrwt beam="1">  1       21 0.40777975E-01 0.46354756E+03</pdfrwt>
<pdfrwt beam="2">  1       21 0.28489519E-01 0.46354756E+03</pdfrwt>
<totfact> 0.62976579E+04</totfact>
</mgrwt>
</event>
<event>
 7    0  0.4725730E-002  0.4601720E+03  0.7546771E-02  0.1024731E+00
         21   -1    0    0  502  501  0.00000000000E+00  0.00000000000E+00  0.11305276588E+03  0.11305276588E+03  0.00000000000E+00 0. -1.
         21   -1    0    0  501  502 -0.00000000000E+00 -0.00000000000E+00 -0.46827311221E+03  0.46827311221E+03  0.00000000000E+00 0. -1.
      99926    2    1    2    0    0  0.00000000000E+00  0.14210854715E-13 -0.35522034633E+03  0.58132587809E+03  0.46017201359E+03 0.  0.
      99925    2    3    3    0    0 -0.80656323064E+02  0.64779384139E+02 -0.15082013041E+03  0.32031099838E+03  0.26296504119E+03 0.  0.
         25    1    3    3    0    0  0.80656323064E+02 -0.64779384139E+02 -0.20440021593E+03  0.26101487971E+03  0.12509000000E+03 0.  0.
         25    1    4    4    0    0 -0.58818359774E+02  0.34672707871E+02 -0.11979319028E+03  0.18617119180E+03  0.12509000000E+03 0.  0.
         25    1    4    4    0    0 -0.21837963290E+02  0.30106676268E+02 -0.31026940123E+02  0.13413980658E+03  0.12509000000E+03 0.  0.
<mgrwt>
<rscale>  2 0.46017201E+03</rscale>
<asrwt>0</asrwt>
<pdfrwt beam="1">  1       21 0.16625407E-01 0.46017201E+03</pdfrwt>
<pdfrwt beam="2">  1       21 0.68863691E-01 0.46017201E+03</pdfrwt>
<totfact> 0.57457112E+04</totfact>
</mgrwt>
</event>
<event>
 7    0  0.4725730E-002  0.4515407E+03  0.7546771E-02  0.1027264E+00
         21   -1    0    0  502  501  0.00000000000E+00  0.00000000000E+00  0.26689410319E+03  0.26689410319E+03  0.00000000000E+00 0.  1.
         21   -1    0    0  501  502 -0.00000000000E+00 -0.00000000000E+00 -0.19098302305E+03  0.19098302305E+03  0.00000000000E+00 0.  1.
      99926    2    1    2    0    0  0.00000000000E+00  0.00000000000E+00  0.75911080142E+02  0.45787712625E+03  0.45154066334E+03 0.  0.
      99925    2    3    3    0    0 -0.44231173630E+02  0.74799948483E+02  0.11602502807E+03  0.30037136149E+03  0.26307740049E+03 0.  0.
         25    1    4    4    0    0 -0.41464588632E+02  0.46035311852E+02  0.98387478471E+02  0.17078104716E+03  0.12509000000E+03 0.  0.
         25    1    3    3    0    0  0.44231173630E+02 -0.74799948483E+02 -0.40113947925E+02  0.15750576476E+03  0.12509000000E+03 0.  0.
         25    1    4    4    0    0 -0.27665849983E+01  0.28764636631E+02  0.17637549596E+02  0.12959031433E+03  0.12509000000E+03 0.  0.
<mgrwt>
<rscale>  2 0.45154066E+03</rscale>
<asrwt>0</asrwt>
<pdfrwt beam="1">  1       21 0.39249133E-01 0.45154066E+03</pdfrwt>
<pdfrwt beam="2">  1       21 0.28085739E-01 0.45154066E+03</pdfrwt>
<totfact> 0.70253585E+04</totfact>
</mgrwt>
</event>
<event>
 7    0  0.4725730E-002  0.4537850E+03  0.7546771E-02  0.1026599E+00
         21   -1    0    0  502  501  0.00000000000E+00  0.00000000000E+00  0.47748459559E+02  0.47748459559E+02  0.00000000000E+00 0.  1.
         21   -1    0    0  501  502 -0.00000000000E+00 -0.00000000000E+00 -0.10781544536E+04  0.10781544536E+04  0.00000000000E+00 0.  1.
      99926    2    1    2    0    0  0.00000000000E+00  0.00000000000E+00 -0.10304059940E+04  0.11259029131E+04  0.45378503424E+03 0.  0.
      99925    2    3    3    0    0  0.85607668133E+02  0.50242044222E+02 -0.77393941810E+03  0.82378447855E+03  0.26416984757E+03 0.  0.
         25    1    4    4    0    0  0.37172658336E+02  0.26290921353E+02 -0.50560109851E+03  0.52283171096E+03  0.12509000000E+03 0.  0.
         25    1    3    3    0    0 -0.85607668133E+02 -0.50242044222E+02 -0.25646657592E+03  0.30211843458E+03  0.12509000000E+03 0.  0.
         25    1    4    4    0    0  0.48435009797E+02  0.23951122868E+02 -0.26833831959E+03  0.30095276759E+03  0.12509000000E+03 0.  0.
<mgrwt>
<rscale>  2 0.45378503E+03</rscale>
<asrwt>0</asrwt>
<pdfrwt beam="1">  1       21 0.70218332E-02 0.45378503E+03</pdfrwt>
<pdfrwt beam="2">  1       21 0.15855211E+00 0.45378503E+03</pdfrwt>
<totfact> 0.34926817E+04</totfact>
</mgrwt>
</event>
<event>
 7    0  0.4725730E-002  0.4601440E+03  0.7546771E-02  0.1024739E+00
         21   -1    0    0  502  501  0.00000000000E+00  0.00000000000E+00  0.13159576276E+03  0.13159576276E+03  0.00000000000E+00 0.  1.
         21   -1    0    0  501  502 -0.00000000000E+00 -0.00000000000E+00 -0.40224041879E+03  0.40224041879E+03  0.00000000000E+00 0.  1.
      99926    2    1    2    0    0  0.00000000000E+00  0.00000000000E+00 -0.27064465603E+03  0.53383618155E+03  0.46014404146E+03 0.  0.
      99925    2    3    3    0    0 -0.53704801261E+02 -0.23610572425E+02 -0.28828889857E+03  0.39455053188E+03  0.26290296378E+03 0.  0.
         25    1    4    4    0    0 -0.52079726335E+02 -0.26597363935E+01 -0.10400620615E+03  0.17083375284E+03  0.12509000000E+03 0.  0.
         25    1    3    3    0    0  0.53704801261E+02  0.23610572425E+02  0.17644242534E+02  0.13928564967E+03  0.12509000000E+03 0.  0.
         25    1    4    4    0    0 -0.16250749261E+01 -0.20950836031E+02 -0.18428269241E+03  0.22371677904E+03  0.12509000000E+03 0.  0.
<mgrwt>
<rscale>  2 0.46014404E+03</rscale>
<asrwt>0</asrwt>
<pdfrwt beam="1">  1       21 0.19352318E-01 0.46014404E+03</pdfrwt>
<pdfrwt beam="2">  1       21 0.59153002E-01 0.46014404E+03</pdfrwt>
<totfact> 0.60445322E+04</totfact>
</mgrwt>
</event>
<event>
 7    0  0.4725730E-002  0.4574628E+03  0.7546771E-02  0.1025520E+00
         21   -1    0    0  502  501  0.00000000000E+00  0.00000000000E+00  0.84435871597E+03  0.84435871597E+03  0.00000000000E+00 0.  1.
         21   -1    0    0  501  502 -0.00000000000E+00 -0.00000000000E+00 -0.61961881767E+02  0.61961881767E+02  0.00000000000E+00 0.  1.
      99926    2    1    2    0    0  0.00000000000E+00 -0.71054273576E-14  0.78239683420E+03  0.90632059773E+03  0.45746280691E+03 0.  0.
      99925    2    3    3    0    0  0.80184801433E+02 -0.47639651241E+02  0.35838131908E+03  0.45450669366E+03  0.26351475474E+03 0.  0.
         25    1    3    3    0    0 -0.80184801433E+02  0.47639651241E+02  0.42401551512E+03  0.45181390407E+03  0.12509000000E+03 0.  0.
         25    1    4    4    0    0  0.74365422234E+02 -0.47973913735E+02  0.21691835178E+03  0.26558010442E+03  0.12509000000E+03 0.  0.
         25    1    4    4    0    0  0.58193791982E+01  0.33426249336E+00  0.14146296729E+03  0.18892658924E+03  0.12509000000E+03 0.  0.
<mgrwt>
<rscale>  2 0.45746281E+03</rscale>
<asrwt>0</asrwt>
<pdfrwt beam="1">  1       21 0.12417039E+00 0.45746281E+03</pdfrwt>
<pdfrwt beam="2">  1       21 0.91120419E-02 0.45746281E+03</pdfrwt>
<totfact> 0.42143113E+04</totfact>
</mgrwt>
</event>
<event>
 7    0  0.4725730E-002  0.4554939E+03  0.7546771E-02  0.1026096E+00
         21   -1    0    0  502  501  0.00000000000E+00  0.00000000000E+00  0.13658743929E+03  0.13658743929E+03  0.00000000000E+00 0.  1.
         21   -1    0    0  501  502 -0.00000000000E+00 -0.00000000000E+00 -0.37974709747E+03  0.37974709747E+03  0.00000000000E+00 0.  1.
      99926    2    1    2    0    0 -0.14210854715E-13 -0.35527136788E-14 -0.24315965818E+03  0.51633453676E+03  0.45549394561E+03 0.  0.
      99925    2    3    3    0    0  0.10611208226E+03  0.25101779138E+02 -0.18915941073E+03  0.34182548787E+03  0.26300857053E+03 0.  0.
         25    1    4    4    0    0  0.36908660259E+02 -0.78944110043E+01 -0.12788277425E+03  0.18282801475E+03  0.12509000000E+03 0.  0.
         25    1    3    3    0    0 -0.10611208226E+03 -0.25101779138E+02 -0.54000247449E+02  0.17450904889E+03  0.12509000000E+03 0.  0.
         25    1    4    4    0    0  0.69203422006E+02  0.32996190142E+02 -0.61276636482E+02  0.15899747312E+03  0.12509000000E+03 0.  0.
<mgrwt>
<rscale>  2 0.45549395E+03</rscale>
<asrwt>0</asrwt>
<pdfrwt beam="1">  1       21 0.20086388E-01 0.45549395E+03</pdfrwt>
<pdfrwt beam="2">  1       21 0.55845161E-01 0.45549395E+03</pdfrwt>
<totfact> 0.63886928E+04</totfact>
</mgrwt>
</event>
<event>
 7    0  0.4725730E-002  0.4622724E+03  0.7546771E-02  0.1024124E+00
         21   -1    0    0  502  501  0.00000000000E+00  0.00000000000E+00  0.23053276790E+03  0.23053276790E+03  0.00000000000E+00 0.  1.
         21   -1    0    0  501  502 -0.00000000000E+00 -0.00000000000E+00 -0.23174118313E+03  0.23174118313E+03  0.00000000000E+00 0.  1.
      99926    2    1    2    0    0  0.00000000000E+00  0.00000000000E+00 -0.12084152321E+01  0.46227395103E+03  0.46227237158E+03 0.  0.
      99925    2    3    3    0    0 -0.36193550364E+02  0.10876544457E+03 -0.35979487486E+02  0.28907917458E+03  0.26293031517E+03 0.  0.
         25    1    4    4    0    0 -0.26877595303E+02  0.27342016471E+02 -0.47260519935E+02  0.13910807251E+03  0.12509000000E+03 0.  0.
         25    1    3    3    0    0  0.36193550364E+02 -0.10876544457E+03  0.34771072254E+02  0.17319477644E+03  0.12509000000E+03 0.  0.
         25    1    4    4    0    0 -0.93159550612E+01  0.81423428103E+02  0.11281032449E+02  0.14997110207E+03  0.12509000000E+03 0.  0.
<mgrwt>
<rscale>  2 0.46227237E+03</rscale>
<asrwt>0</asrwt>
<pdfrwt beam="1">  1       21 0.33901878E-01 0.46227237E+03</pdfrwt>
<pdfrwt beam="2">  1       21 0.34079586E-01 0.46227237E+03</pdfrwt>
<totfact> 0.64208716E+04</totfact>
</mgrwt>
</event>
<event>
 7    0  0.4725730E-002  0.4473095E+03  0.7546771E-02  0.1028527E+00
         21   -1    0    0  502  501  0.00000000000E+00  0.00000000000E+00  0.46830631896E+03  0.46830631896E+03  0.00000000000E+00 0.  1.
         21   -1    0    0  501  502 -0.00000000000E+00 -0.00000000000E+00 -0.10681352793E+03  0.10681352793E+03  0.00000000000E+00 0.  1.
      99926    2    1    2    0    0 -0.71054273576E-14 -0.88817841970E-15  0.36149279103E+03  0.57511984689E+03  0.44730951290E+03 0.  0.
      99925    2    3    3    0    0 -0.38069157879E+02 -0.67921850132E+01  0.10261827958E+03  0.28501828651E+03  0.26307701873E+03 0.  0.
         25    1    4    4    0    0 -0.20201859251E+02  0.32461018371E+02  0.30448435250E+02  0.13429984415E+03  0.12509000000E+03 0.  0.
         25    1    4    4    0    0 -0.17867298628E+02 -0.39253203384E+02  0.72169844331E+02  0.15071844236E+03  0.12509000000E+03 0.  0.
         25    1    3    3    0    0  0.38069157879E+02  0.67921850132E+01  0.25887451145E+03  0.29010156038E+03  0.12509000000E+03 0.  0.
<mgrwt>
<rscale>  2 0.44730951E+03</rscale>
<asrwt>0</asrwt>
<pdfrwt beam="1">  1       21 0.68868575E-01 0.44730951E+03</pdfrwt>
<pdfrwt beam="2">  1       21 0.15707872E-01 0.44730951E+03</pdfrwt>
<totfact> 0.64042658E+04</totfact>
</mgrwt>
</event>
<event>
 7    0  0.4725730E-002  0.4361600E+03  0.7546771E-02  0.1031932E+00
         21   -1    0    0  502  501  0.00000000000E+00  0.00000000000E+00  0.14992563989E+03  0.14992563989E+03  0.00000000000E+00 0. -1.
         21   -1    0    0  501  502 -0.00000000000E+00 -0.00000000000E+00 -0.31721652285E+03  0.31721652285E+03  0.00000000000E+00 0. -1.
      99926    2    1    2    0    0 -0.14210854715E-13  0.00000000000E+00 -0.16729088297E+03  0.46714216274E+03  0.43616001729E+03 0.  0.
      99925    2    3    3    0    0 -0.75282507762E+02 -0.51213105276E+02 -0.80493138084E+02  0.28973981004E+03  0.26302048231E+03 0.  0.
         25    1    4    4    0    0 -0.44573833718E+01 -0.47555589264E+02 -0.48632698734E+02  0.14245718593E+03  0.12509000000E+03 0.  0.
         25    1    4    4    0    0 -0.70825124390E+02 -0.36575160122E+01 -0.31860439350E+02  0.14728262411E+03  0.12509000000E+03 0.  0.
         25    1    3    3    0    0  0.75282507762E+02  0.51213105276E+02 -0.86797744881E+02  0.17740235270E+03  0.12509000000E+03 0.  0.
<mgrwt>
<rscale>  2 0.43616002E+03</rscale>
<asrwt>0</asrwt>
<pdfrwt beam="1">  1       21 0.22047889E-01 0.43616002E+03</pdfrwt>
<pdfrwt beam="2">  1       21 0.46649488E-01 0.43616002E+03</pdfrwt>
<totfact> 0.78786508E+04</totfact>
</mgrwt>
</event>
<event>
 7    0  0.4725730E-002  0.4749110E+03  0.7546771E-02  0.1020543E+00
         21   -1    0    0  502  501  0.00000000000E+00  0.00000000000E+00  0.15211563232E+03  0.15211563232E+03  0.00000000000E+00 0.  1.
         21   -1    0    0  501  502 -0.00000000000E+00 -0.00000000000E+00 -0.37067263849E+03  0.37067263849E+03  0.00000000000E+00 0.  1.
      99926    2    1    2    0    0  0.00000000000E+00  0.35527136788E-14 -0.21855700617E+03  0.52278827081E+03  0.47491095075E+03 0.  0.
      99925    2    3    3    0    0 -0.55123993978E+02  0.28691535899E+02 -0.26209999941E+03  0.37648256585E+03  0.26302253468E+03 0.  0.
         25    1    3    3    0    0  0.55123993978E+02 -0.28691535899E+02  0.43542993235E+02  0.14630570496E+03  0.12509000000E+03 0.  0.
         25    1    4    4    0    0 -0.33803531159E+02 -0.25871025118E+02 -0.12733586258E+03  0.18350454670E+03  0.12509000000E+03 0.  0.
         25    1    4    4    0    0 -0.21320462819E+02  0.54562561018E+02 -0.13476413683E+03  0.19297801915E+03  0.12509000000E+03 0.  0.
<mgrwt>
<rscale>  2 0.47491095E+03</rscale>
<asrwt>0</asrwt>
<pdfrwt beam="1">  1       21 0.22369946E-01 0.47491095E+03</pdfrwt>
<pdfrwt beam="2">  1       21 0.54510682E-01 0.47491095E+03</pdfrwt>
<totfact> 0.54554292E+04</totfact>
</mgrwt>
</event>
<event>
 7    0  0.4725730E-002  0.4252422E+03  0.7546771E-02  0.1035374E+00
         21   -1    0    0  502  501  0.00000000000E+00  0.00000000000E+00  0.93987692606E+03  0.93987692606E+03  0.00000000000E+00 0. -1.
         21   -1    0    0  501  502 -0.00000000000E+00 -0.00000000000E+00 -0.48099624412E+02  0.48099624412E+02  0.00000000000E+00 0. -1.
      99926    2    1    2    0    0  0.71054273576E-14  0.00000000000E+00  0.89177730165E+03  0.98797655047E+03  0.42524217635E+03 0.  0.
      99925    2    3    3    0    0  0.49365007758E+02 -0.22316693326E+02  0.72404176070E+03  0.77183386938E+03  0.26183222089E+03 0.  0.
         25    1    4    4    0    0  0.34494222925E+02 -0.48825454898E+02  0.37256053143E+03  0.39752060845E+03  0.12509000000E+03 0.  0.
         25    1    4    4    0    0  0.14870784833E+02  0.26508761572E+02  0.35148122927E+03  0.37431326093E+03  0.12509000000E+03 0.  0.
         25    1    3    3    0    0 -0.49365007758E+02  0.22316693326E+02  0.16773554094E+03  0.21614268109E+03  0.12509000000E+03 0.  0.
<mgrwt>
<rscale>  2 0.42524218E+03</rscale>
<asrwt>0</asrwt>
<pdfrwt beam="1">  1       21 0.13821718E+00 0.42524218E+03</pdfrwt>
<pdfrwt beam="2">  1       21 0.70734748E-02 0.42524218E+03</pdfrwt>
<totfact> 0.50364969E+04</totfact>
</mgrwt>
</event>
<event>
 7    0  0.4725730E-002  0.4580257E+03  0.7546771E-02  0.1025355E+00
         21   -1    0    0  502  501  0.00000000000E+00  0.00000000000E+00  0.14664461438E+03  0.14664461438E+03  0.00000000000E+00 0.  1.
         21   -1    0    0  501  502 -0.00000000000E+00 -0.00000000000E+00 -0.35764625113E+03  0.35764625113E+03  0.00000000000E+00 0.  1.
      99926    2    1    2    0    0  0.26645352591E-14 -0.15543122345E-14 -0.21100163675E+03  0.50429086551E+03  0.45802574854E+03 0.  0.
      99925    2    3    3    0    0  0.49434301648E+01 -0.11404641169E+01 -0.25997938083E+03  0.36985848222E+03  0.26302144448E+03 0.  0.
         25    1    4    4    0    0  0.24743997958E+02 -0.21890914589E+02 -0.93371784396E+02  0.15955336348E+03  0.12509000000E+03 0.  0.
         25    1    4    4    0    0 -0.19800567793E+02  0.20750450472E+02 -0.16660759643E+03  0.21030511874E+03  0.12509000000E+03 0.  0.
         25    1    3    3    0    0 -0.49434301648E+01  0.11404641169E+01  0.48977744080E+02  0.13443238328E+03  0.12509000000E+03 0.  0.
<mgrwt>
<rscale>  2 0.45802575E+03</rscale>
<asrwt>0</asrwt>
<pdfrwt beam="1">  1       21 0.21565384E-01 0.45802575E+03</pdfrwt>
<pdfrwt beam="2">  1       21 0.52595037E-01 0.45802575E+03</pdfrwt>
<totfact> 0.63433011E+04</totfact>
</mgrwt>
</event>
<event>
 7    0  0.4725730E-002  0.4585920E+03  0.7546771E-02  0.1025190E+00
         21   -1    0    0  502  501  0.00000000000E+00  0.00000000000E+00  0.98960611991E+03  0.98960611991E+03  0.00000000000E+00 0.  1.
         21   -1    0    0  501  502 -0.00000000000E+00 -0.00000000000E+00 -0.53128881489E+02  0.53128881489E+02  0.00000000000E+00 0.  1.
      99926    2    1    2    0    0  0.00000000000E+00  0.35527136788E-14  0.93647723842E+03  0.10427350014E+04  0.45859204645E+03 0.  0.
      99925    2    3    3    0    0  0.60432088754E+02  0.25910860241E+02  0.80604517182E+03  0.85042420574E+03  0.26303821141E+03 0.  0.
         25    1    3    3    0    0 -0.60432088754E+02 -0.25910860241E+02  0.13043206660E+03  0.19231079566E+03  0.12509000000E+03 0.  0.
         25    1    4    4    0    0  0.38839397460E+02  0.30661768124E+02  0.52576294798E+03  0.54269957470E+03  0.12509000000E+03 0.  0.
         25    1    4    4    0    0  0.21592691295E+02 -0.47509078828E+01  0.28028222384E+03  0.30772463104E+03  0.12509000000E+03 0.  0.
<mgrwt>
<rscale>  2 0.45859205E+03</rscale>
<asrwt>0</asrwt>
<pdfrwt beam="1">  1       21 0.14553030E+00 0.45859205E+03</pdfrwt>
<pdfrwt beam="2">  1       21 0.78130714E-02 0.45859205E+03</pdfrwt>
<totfact> 0.36510585E+04</totfact>
</mgrwt>
</event>
<event>
 7    0  0.4725730E-002  0.4432666E+03  0.7546771E-02  0.1029749E+00
         21   -1    0    0  502  501  0.00000000000E+00  0.00000000000E+00  0.11166187753E+03  0.11166187753E+03  0.00000000000E+00 0.  1.
         21   -1    0    0  501  502 -0.00000000000E+00 -0.00000000000E+00 -0.43991132180E+03  0.43991132180E+03  0.00000000000E+00 0.  1.
      99926    2    1    2    0    0  0.00000000000E+00 -0.71054273576E-14 -0.32824944428E+03  0.55157319933E+03  0.44326662017E+03 0.  0.
      99925    2    3    3    0    0  0.67708881121E+02  0.50457774653E+02 -0.27951837266E+03  0.39297715573E+03  0.26300198605E+03 0.  0.
         25    1    4    4    0    0  0.26414529868E+02  0.60504485165E+02 -0.17167490921E+03  0.22243718814E+03  0.12509000000E+03 0.  0.
         25    1    4    4    0    0  0.41294351253E+02 -0.10046710511E+02 -0.10784346345E+03  0.17053996759E+03  0.12509000000E+03 0.  0.
         25    1    3    3    0    0 -0.67708881121E+02 -0.50457774653E+02 -0.48731071614E+02  0.15859604360E+03  0.12509000000E+03 0.  0.
<mgrwt>
<rscale>  2 0.44326662E+03</rscale>
<asrwt>0</asrwt>
<pdfrwt beam="1">  1       21 0.16420864E-01 0.44326662E+03</pdfrwt>
<pdfrwt beam="2">  1       21 0.64692841E-01 0.44326662E+03</pdfrwt>
<totfact> 0.67844617E+04</totfact>
</mgrwt>
</event>
<event>
 7    0  0.4725730E-002  0.4436486E+03  0.7546771E-02  0.1029633E+00
         21   -1    0    0  502  501  0.00000000000E+00  0.00000000000E+00  0.95751992063E+02  0.95751992063E+02  0.00000000000E+00 0. -1.
         21   -1    0    0  501  502 -0.00000000000E+00 -0.00000000000E+00 -0.51389019916E+03  0.51389019916E+03  0.00000000000E+00 0. -1.
      99926    2    1    2    0    0  0.00000000000E+00 -0.66613381478E-15 -0.41813820710E+03  0.60964219122E+03  0.44364855582E+03 0.  0.
      99925    2    3    3    0    0 -0.17730432335E+02  0.17005843338E+01 -0.40414700400E+03  0.48251814912E+03  0.26300513905E+03 0.  0.
         25    1    4    4    0    0 -0.46722520149E+02 -0.55867545278E+01 -0.23027165773E+03  0.26624565756E+03  0.12509000000E+03 0.  0.
         25    1    3    3    0    0  0.17730432335E+02 -0.17005843338E+01 -0.13991203099E+02  0.12712404211E+03  0.12509000000E+03 0.  0.
         25    1    4    4    0    0  0.28992087815E+02  0.72873388616E+01 -0.17387534627E+03  0.21627249156E+03  0.12509000000E+03 0.  0.
<mgrwt>
<rscale>  2 0.44364856E+03</rscale>
<asrwt>0</asrwt>
<pdfrwt beam="1">  1       21 0.14081175E-01 0.44364856E+03</pdfrwt>
<pdfrwt beam="2">  1       21 0.75572088E-01 0.44364856E+03</pdfrwt>
<totfact> 0.63602242E+04</totfact>
</mgrwt>
</event>
<event>
 7    0  0.4725730E-002  0.4528440E+03  0.7546771E-02  0.1026877E+00
         21   -1    0    0  502  501  0.00000000000E+00  0.00000000000E+00  0.30237890786E+04  0.30237890786E+04  0.00000000000E+00 0.  1.
         21   -1    0    0  501  502 -0.00000000000E+00 -0.00000000000E+00 -0.16954530355E+02  0.16954530355E+02  0.00000000000E+00 0.  1.
      99926    2    1    2    0    0  0.00000000000E+00  0.17763568394E-14  0.30068345482E+04  0.30407436090E+04  0.45284400723E+03 0.  0.
      99925    2    3    3    0    0  0.89678542349E+02  0.11769221534E+02  0.23294321475E+04  0.23459758232E+04  0.26299748581E+03 0.  0.
         25    1    4    4    0    0  0.74730094561E+01  0.10747666182E+02  0.90441552639E+03  0.91311900137E+03  0.12509000000E+03 0.  0.
         25    1    3    3    0    0 -0.89678542349E+02 -0.11769221534E+02  0.67740240075E+03  0.69476778579E+03  0.12509000000E+03 0.  0.
         25    1    4    4    0    0  0.82205532892E+02  0.10215553520E+01  0.14250166211E+04  0.14328568218E+04  0.12509000000E+03 0.  0.
<mgrwt>
<rscale>  2 0.45284401E+03</rscale>
<asrwt>0</asrwt>
<pdfrwt beam="1">  1       21 0.44467449E+00 0.45284401E+03</pdfrwt>
<pdfrwt beam="2">  1       21 0.24933154E-02 0.45284401E+03</pdfrwt>
<totfact> 0.30782249E+03</totfact>
</mgrwt>
</event>
<event>
 7    0  0.4725730E-002  0.4583052E+03  0.7546771E-02  0.1025274E+00
         21   -1    0    0  502  501  0.00000000000E+00  0.00000000000E+00  0.62822659697E+02  0.62822659697E+02  0.00000000000E+00 0.  1.
         21   -1    0    0  501  502 -0.00000000000E+00 -0.00000000000E+00 -0.83585958405E+03  0.83585958405E+03  0.00000000000E+00 0.  1.
      99926    2    1    2    0    0  0.00000000000E+00 -0.71054273576E-14 -0.77303692435E+03  0.89868224374E+03  0.45830523542E+03 0.  0.
      99925    2    3    3    0    0 -0.76306129392E+02  0.43306036523E+02 -0.33559556073E+03  0.43532439835E+03  0.26303025156E+03 0.  0.
         25    1    3    3    0    0  0.76306129392E+02 -0.43306036523E+02 -0.43744136362E+03  0.46335784539E+03  0.12509000000E+03 0.  0.
         25    1    4    4    0    0 -0.26968658616E+02  0.42972556364E+02 -0.21943849366E+03  0.25763289725E+03  0.12509000000E+03 0.  0.
         25    1    4    4    0    0 -0.49337470776E+02  0.33348015994E+00 -0.11615706707E+03  0.17769150110E+03  0.12509000000E+03 0.  0.
<mgrwt>
<rscale>  2 0.45830524E+03</rscale>
<asrwt>0</asrwt>
<pdfrwt beam="1">  1       21 0.92386269E-02 0.45830524E+03</pdfrwt>
<pdfrwt beam="2">  1       21 0.12292052E+00 0.45830524E+03</pdfrwt>
<totfact> 0.42188282E+04</totfact>
</mgrwt>
</event>
<event>
 7    0  0.4725730E-002  0.4638651E+03  0.7546771E-02  0.1023666E+00
         21   -1    0    0  502  501  0.00000000000E+00  0.00000000000E+00  0.42940897328E+03  0.42940897328E+03  0.00000000000E+00 0.  1.
         21   -1    0    0  501  502 -0.00000000000E+00 -0.00000000000E+00 -0.12527147685E+03  0.12527147685E+03  0.00000000000E+00 0.  1.
      99926    2    1    2    0    0  0.14210854715E-13  0.35527136788E-14  0.30413749643E+03  0.55468045012E+03  0.46386505043E+03 0.  0.
      99925    2    3    3    0    0 -0.95561403109E+02 -0.28305974124E+02  0.10997790362E+03  0.30312793967E+03  0.26430701578E+03 0.  0.
         25    1    4    4    0    0 -0.69984601325E+02  0.13891351700E+02  0.82205987268E+02  0.16581962042E+03  0.12509000000E+03 0.  0.
         25    1    3    3    0    0  0.95561403109E+02  0.28305974124E+02  0.19415959281E+03  0.25155251045E+03  0.12509000000E+03 0.  0.
         25    1    4    4    0    0 -0.25576801784E+02 -0.42197325824E+02  0.27771916354E+02  0.13730831925E+03  0.12509000000E+03 0.  0.
<mgrwt>
<rscale>  2 0.46386505E+03</rscale>
<asrwt>0</asrwt>
<pdfrwt beam="1">  1       21 0.63148378E-01 0.46386505E+03</pdfrwt>
<pdfrwt beam="2">  1       21 0.18422276E-01 0.46386505E+03</pdfrwt>
<totfact> 0.57423770E+04</totfact>
</mgrwt>
</event>
<event>
 7    0  0.4725730E-002  0.4556622E+03  0.7546771E-02  0.1026047E+00
         21   -1    0    0  502  501  0.00000000000E+00  0.00000000000E+00  0.35188393391E+02  0.35188393391E+02  0.00000000000E+00 0. -1.
         21   -1    0    0  501  502 -0.00000000000E+00 -0.00000000000E+00 -0.14751170587E+04  0.14751170587E+04  0.00000000000E+00 0. -1.
      99926    2    1    2    0    0  0.00000000000E+00 -0.35527136788E-14 -0.14399286653E+04  0.15103054521E+04  0.45566215274E+03 0.  0.
      99925    2    3    3    0    0 -0.10435924351E+03 -0.23794542643E+01 -0.75585763074E+03  0.80710050193E+03  0.26304742680E+03 0.  0.
         25    1    4    4    0    0 -0.59137057701E+02 -0.32782082406E+02 -0.45607270464E+03  0.47772552427E+03  0.12509000000E+03 0.  0.
         25    1    3    3    0    0  0.10435924351E+03  0.23794542643E+01 -0.68407103459E+03  0.70320495019E+03  0.12509000000E+03 0.  0.
         25    1    4    4    0    0 -0.45222185807E+02  0.30402628142E+02 -0.29978492611E+03  0.32937497766E+03  0.12509000000E+03 0.  0.
<mgrwt>
<rscale>  2 0.45566215E+03</rscale>
<asrwt>0</asrwt>
<pdfrwt beam="1">  1       21 0.51747645E-02 0.45566215E+03</pdfrwt>
<pdfrwt beam="2">  1       21 0.21692895E+00 0.45566215E+03</pdfrwt>
<totfact> 0.23407063E+04</totfact>
</mgrwt>
</event>
<event>
 7    0  0.4725730E-002  0.4502954E+03  0.7546771E-02  0.1027634E+00
         21   -1    0    0  502  501  0.00000000000E+00  0.00000000000E+00  0.62322228109E+02  0.62322228109E+02  0.00000000000E+00 0.  1.
         21   -1    0    0  501  502 -0.00000000000E+00 -0.00000000000E+00 -0.81337723274E+03  0.81337723274E+03  0.00000000000E+00 0.  1.
      99926    2    1    2    0    0  0.39968028887E-14  0.00000000000E+00 -0.75105500463E+03  0.87569946085E+03  0.45029537611E+03 0.  0.
      99925    2    3    3    0    0  0.22941189054E+01 -0.10810946420E+03 -0.45129192155E+03  0.53335703971E+03  0.26289240027E+03 0.  0.
         25    1    4    4    0    0  0.36370912943E+02 -0.47569519705E+02 -0.25741272414E+03  0.29239446158E+03  0.12509000000E+03 0.  0.
         25    1    4    4    0    0 -0.34076794038E+02 -0.60539944497E+02 -0.19387919741E+03  0.24096257813E+03  0.12509000000E+03 0.  0.
         25    1    3    3    0    0 -0.22941189054E+01  0.10810946420E+03 -0.29976308308E+03  0.34234242114E+03  0.12509000000E+03 0.  0.
<mgrwt>
<rscale>  2 0.45029538E+03</rscale>
<asrwt>0</asrwt>
<pdfrwt beam="1">  1       21 0.91650343E-02 0.45029538E+03</pdfrwt>
<pdfrwt beam="2">  1       21 0.11961429E+00 0.45029538E+03</pdfrwt>
<totfact> 0.45971808E+04</totfact>
</mgrwt>
</event>
<event>
 7    0  0.4725730E-002  0.4648003E+03  0.7546771E-02  0.1023398E+00
         21   -1    0    0  502  501  0.00000000000E+00  0.00000000000E+00  0.10348615188E+03  0.10348615188E+03  0.00000000000E+00 0. -1.
         21   -1    0    0  501  502 -0.00000000000E+00 -0.00000000000E+00 -0.52190401929E+03  0.52190401929E+03  0.00000000000E+00 0. -1.
      99926    2    1    2    0    0  0.14210854715E-13  0.35527136788E-14 -0.41841786740E+03  0.62539017117E+03  0.46480033825E+03 0.  0.
      99925    2    3    3    0    0 -0.10798046358E+03 -0.31920910448E+02 -0.32394136429E+03  0.43238228849E+03  0.26332054774E+03 0.  0.
         25    1    3    3    0    0  0.10798046358E+03  0.31920910448E+02 -0.94476503116E+02  0.19300788269E+03  0.12509000000E+03 0.  0.
         25    1    4    4    0    0 -0.16317527469E+02 -0.36218756040E+02 -0.14837309350E+03  0.19809124909E+03  0.12509000000E+03 0.  0.
         25    1    4    4    0    0 -0.91662936108E+02  0.42978455920E+01 -0.17556827079E+03  0.23429103939E+03  0.12509000000E+03 0.  0.
<mgrwt>
<rscale>  2 0.46480034E+03</rscale>
<asrwt>0</asrwt>
<pdfrwt beam="1">  1       21 0.15218552E-01 0.46480034E+03</pdfrwt>
<pdfrwt beam="2">  1       21 0.76750592E-01 0.46480034E+03</pdfrwt>
<totfact> 0.52926115E+04</totfact>
</mgrwt>
</event>
<event>
 7    0  0.4725730E-002  0.4520749E+03  0.7546771E-02  0.1027105E+00
         21   -1    0    0  502  501  0.00000000000E+00  0.00000000000E+00  0.24780345493E+03  0.24780345493E+03  0.00000000000E+00 0.  1.
         21   -1    0    0  501  502 -0.00000000000E+00 -0.00000000000E+00 -0.20618332024E+03  0.20618332024E+03  0.00000000000E+00 0.  1.
      99926    2    1    2    0    0  0.00000000000E+00  0.00000000000E+00  0.41620134687E+02  0.45398677517E+03  0.45207494558E+03 0.  0.
      99925    2    3    3    0    0 -0.60086207080E+02  0.90753818044E+02  0.45019665188E+02  0.28813843277E+03  0.26296459536E+03 0.  0.
         25    1    3    3    0    0  0.60086207080E+02 -0.90753818044E+02 -0.33995305010E+01  0.16584834241E+03  0.12509000000E+03 0.  0.
         25    1    4    4    0    0 -0.43120677777E+02  0.78331291196E+02  0.48549351253E+02  0.16124432281E+03  0.12509000000E+03 0.  0.
         25    1    4    4    0    0 -0.16965529303E+02  0.12422526848E+02 -0.35296860651E+01  0.12689410996E+03  0.12509000000E+03 0.  0.
<mgrwt>
<rscale>  2 0.45207495E+03</rscale>
<asrwt>0</asrwt>
<pdfrwt beam="1">  1       21 0.36441685E-01 0.45207495E+03</pdfrwt>
<pdfrwt beam="2">  1       21 0.30321076E-01 0.45207495E+03</pdfrwt>
<totfact> 0.70245214E+04</totfact>
</mgrwt>
</event>
<event>
 7    0  0.4725730E-002  0.4539812E+03  0.7546771E-02  0.1026541E+00
         21   -1    0    0  502  501  0.00000000000E+00  0.00000000000E+00  0.12342361667E+03  0.12342361667E+03  0.00000000000E+00 0. -1.
         21   -1    0    0  501  502 -0.00000000000E+00 -0.00000000000E+00 -0.41746250785E+03  0.41746250785E+03  0.00000000000E+00 0. -1.
      99926    2    1    2    0    0  0.00000000000E+00  0.00000000000E+00 -0.29403889117E+03  0.54088612452E+03  0.45398120024E+03 0.  0.
      99925    2    3    3    0    0  0.26679600442E+02 -0.10518975917E+03 -0.21886443228E+03  0.35901970682E+03  0.26309090379E+03 0.  0.
         25    1    4    4    0    0  0.51503740814E+02 -0.45982215456E+02 -0.94458561307E+02  0.17128025969E+03  0.12509000000E+03 0.  0.
         25    1    4    4    0    0 -0.24824140372E+02 -0.59207543717E+02 -0.12440587097E+03  0.18773944713E+03  0.12509000000E+03 0.  0.
         25    1    3    3    0    0 -0.26679600442E+02  0.10518975917E+03 -0.75174458899E+02  0.18186641770E+03  0.12509000000E+03 0.  0.
<mgrwt>
<rscale>  2 0.45398120E+03</rscale>
<asrwt>0</asrwt>
<pdfrwt beam="1">  1       21 0.18150532E-01 0.45398120E+03</pdfrwt>
<pdfrwt beam="2">  1       21 0.61391546E-01 0.45398120E+03</pdfrwt>
<totfact> 0.62979046E+04</totfact>
</mgrwt>
</event>
<event>
 7    0  0.4725730E-002  0.4511501E+03  0.7546771E-02  0.1027380E+00
         21   -1    0    0  502  501  0.00000000000E+00  0.00000000000E+00  0.40768764155E+03  0.40768764155E+03  0.00000000000E+00 0. -1.
         21   -1    0    0  501  502 -0.00000000000E+00 -0.00000000000E+00 -0.12481150568E+03  0.12481150568E+03  0.00000000000E+00 0. -1.
      99926    2    1    2    0    0  0.00000000000E+00  0.00000000000E+00  0.28287613586E+03  0.53249914723E+03  0.45115012309E+03 0.  0.
      99925    2    3    3    0    0 -0.91663179532E+02 -0.59576084014E+02  0.18635637160E+03  0.34036632530E+03  0.26300017091E+03 0.  0.
         25    1    4    4    0    0 -0.27976808820E+02 -0.61620853799E+02  0.72616717839E+02  0.15968884515E+03  0.12509000000E+03 0.  0.
         25    1    4    4    0    0 -0.63686370712E+02  0.20447697851E+01  0.11373965376E+03  0.18067748016E+03  0.12509000000E+03 0.  0.
         25    1    3    3    0    0  0.91663179532E+02  0.59576084014E+02  0.96519764263E+02  0.19213282193E+03  0.12509000000E+03 0.  0.
<mgrwt>
<rscale>  2 0.45115012E+03</rscale>
<asrwt>0</asrwt>
<pdfrwt beam="1">  1       21 0.59954065E-01 0.45115012E+03</pdfrwt>
<pdfrwt beam="2">  1       21 0.18354633E-01 0.45115012E+03</pdfrwt>
<totfact> 0.64996120E+04</totfact>
</mgrwt>
</event>
<event>
 7    0  0.4725730E-002  0.4575582E+03  0.7546771E-02  0.1025492E+00
         21   -1    0    0  502  501  0.00000000000E+00  0.00000000000E+00  0.33340018440E+03  0.33340018440E+03  0.00000000000E+00 0.  1.
         21   -1    0    0  501  502 -0.00000000000E+00 -0.00000000000E+00 -0.15698811787E+03  0.15698811787E+03  0.00000000000E+00 0.  1.
      99926    2    1    2    0    0  0.00000000000E+00 -0.35527136788E-14  0.17641206653E+03  0.49038830227E+03  0.45755816000E+03 0.  0.
      99925    2    3    3    0    0  0.99776600875E+02 -0.23044511041E+02  0.53410225890E+02  0.28725440438E+03  0.26301334763E+03 0.  0.
         25    1    4    4    0    0  0.13763242182E+02 -0.32940844264E+02  0.26705595176E+02  0.13279767682E+03  0.12509000000E+03 0.  0.
         25    1    3    3    0    0 -0.99776600875E+02  0.23044511041E+02  0.12300184064E+03  0.20313389789E+03  0.12509000000E+03 0.  0.
         25    1    4    4    0    0  0.86013358693E+02  0.98963332231E+01  0.26704630714E+02  0.15445672755E+03  0.12509000000E+03 0.  0.
<mgrwt>
<rscale>  2 0.45755816E+03</rscale>
<asrwt>0</asrwt>
<pdfrwt beam="1">  1       21 0.49029439E-01 0.45755816E+03</pdfrwt>
<pdfrwt beam="2">  1       21 0.23086488E-01 0.45755816E+03</pdfrwt>
<totfact> 0.64628820E+04</totfact>
</mgrwt>
</event>
<event>
 7    0  0.4725730E-002  0.4538500E+03  0.7546771E-02  0.1026580E+00
         21   -1    0    0  502  501  0.00000000000E+00  0.00000000000E+00  0.74522612068E+03  0.74522612068E+03  0.00000000000E+00 0.  1.
         21   -1    0    0  501  502 -0.00000000000E+00 -0.00000000000E+00 -0.69099770738E+02  0.69099770738E+02  0.00000000000E+00 0.  1.
      99926    2    1    2    0    0  0.00000000000E+00  0.00000000000E+00  0.67612634994E+03  0.81432589142E+03  0.45384999322E+03 0.  0.
      99925    2    3    3    0    0  0.45464246153E+02 -0.88915114347E+02  0.33399258428E+03  0.43660123383E+03  0.26286250360E+03 0.  0.
         25    1    4    4    0    0 -0.38644452736E+01 -0.67282070518E+02  0.13914323839E+03  0.19887221988E+03  0.12509000000E+03 0.  0.
         25    1    3    3    0    0 -0.45464246153E+02  0.88915114347E+02  0.34213376567E+03  0.37772465759E+03  0.12509000000E+03 0.  0.
         25    1    4    4    0    0  0.49328691427E+02 -0.21633043829E+02  0.19484934589E+03  0.23772901395E+03  0.12509000000E+03 0.  0.
<mgrwt>
<rscale>  2 0.45384999E+03</rscale>
<asrwt>0</asrwt>
<pdfrwt beam="1">  1       21 0.10959207E+00 0.45384999E+03</pdfrwt>
<pdfrwt beam="2">  1       21 0.10161731E-01 0.45384999E+03</pdfrwt>
<totfact> 0.47506940E+04</totfact>
</mgrwt>
</event>
<event>
 7    0  0.4725730E-002  0.4552085E+03  0.7546771E-02  0.1026180E+00
         21   -1    0    0  502  501  0.00000000000E+00  0.00000000000E+00  0.31517993351E+03  0.31517993351E+03  0.00000000000E+00 0. -1.
         21   -1    0    0  501  502 -0.00000000000E+00 -0.00000000000E+00 -0.16436227867E+03  0.16436227867E+03  0.00000000000E+00 0. -1.
      99926    2    1    2    0    0  0.00000000000E+00  0.44408920985E-15  0.15081765484E+03  0.47954221217E+03  0.45520848877E+03 0.  0.
      99925    2    3    3    0    0 -0.95001378443E+02 -0.84537886537E+00  0.29811580908E+02  0.28125970008E+03  0.26304431559E+03 0.  0.
         25    1    4    4    0    0 -0.76203007272E+02 -0.15247954192E+02  0.42612118477E+02  0.15330590062E+03  0.12509000000E+03 0.  0.
         25    1    4    4    0    0 -0.18798371171E+02  0.14402575326E+02 -0.12800537570E+02  0.12795379946E+03  0.12509000000E+03 0.  0.
         25    1    3    3    0    0  0.95001378443E+02  0.84537886537E+00  0.12100607394E+03  0.19828251209E+03  0.12509000000E+03 0.  0.
<mgrwt>
<rscale>  2 0.45520849E+03</rscale>
<asrwt>0</asrwt>
<pdfrwt beam="1">  1       21 0.46349990E-01 0.45520849E+03</pdfrwt>
<pdfrwt beam="2">  1       21 0.24170923E-01 0.45520849E+03</pdfrwt>
<totfact> 0.66623116E+04</totfact>
</mgrwt>
</event>
<event>
 7    0  0.4725730E-002  0.4500399E+03  0.7546771E-02  0.1027710E+00
         21   -1    0    0  502  501  0.00000000000E+00  0.00000000000E+00  0.30887904904E+03  0.30887904904E+03  0.00000000000E+00 0.  1.
         21   -1    0    0  501  502 -0.00000000000E+00 -0.00000000000E+00 -0.16392819189E+03  0.16392819189E+03  0.00000000000E+00 0.  1.
      99926    2    1    2    0    0  0.00000000000E+00  0.00000000000E+00  0.14495085715E+03  0.47280724093E+03  0.45003992721E+03 0.  0.
      99925    2    3    3    0    0  0.50616494706E+02  0.59216402992E+02  0.13063826687E+02  0.27504397633E+03  0.26345761220E+03 0.  0.
         25    1    3    3    0    0 -0.50616494706E+02 -0.59216402992E+02  0.13188703047E+03  0.19776326460E+03  0.12509000000E+03 0.  0.
         25    1    4    4    0    0  0.64195565027E+02  0.31890415573E+02 -0.88112152123E+01  0.14444104260E+03  0.12509000000E+03 0.  0.
         25    1    4    4    0    0 -0.13579070321E+02  0.27325987419E+02  0.21875041899E+02  0.13060293372E+03  0.12509000000E+03 0.  0.
<mgrwt>
<rscale>  2 0.45003993E+03</rscale>
<asrwt>0</asrwt>
<pdfrwt beam="1">  1       21 0.45423390E-01 0.45003993E+03</pdfrwt>
<pdfrwt beam="2">  1       21 0.24107087E-01 0.45003993E+03</pdfrwt>
<totfact> 0.69940348E+04</totfact>
</mgrwt>
</event>
<event>
 7    0  0.4725730E-002  0.4296597E+03  0.7546771E-02  0.1033968E+00
         21   -1    0    0  502  501  0.00000000000E+00  0.00000000000E+00  0.50556163269E+03  0.50556163269E+03  0.00000000000E+00 0. -1.
         21   -1    0    0  501  502 -0.00000000000E+00 -0.00000000000E+00 -0.91288324924E+02  0.91288324924E+02  0.00000000000E+00 0. -1.
      99926    2    1    2    0    0  0.00000000000E+00  0.14210854715E-13  0.41427330777E+03  0.59684995761E+03  0.42965974722E+03 0.  0.
      99925    2    3    3    0    0  0.23263652696E+02 -0.83572663748E+02  0.25632491602E+03  0.37748544312E+03  0.26318664391E+03 0.  0.
         25    1    4    4    0    0  0.22604891311E+01 -0.60659257363E+01  0.88924529571E+02  0.15361310271E+03  0.12509000000E+03 0.  0.
         25    1    3    3    0    0 -0.23263652696E+02  0.83572663748E+02  0.15794839175E+03  0.21936451449E+03  0.12509000000E+03 0.  0.
         25    1    4    4    0    0  0.21003163565E+02 -0.77506738012E+02  0.16740038645E+03  0.22387234041E+03  0.12509000000E+03 0.  0.
<mgrwt>
<rscale>  2 0.42965975E+03</rscale>
<asrwt>0</asrwt>
<pdfrwt beam="1">  1       21 0.74347298E-01 0.42965975E+03</pdfrwt>
<pdfrwt beam="2">  1       21 0.13424754E-01 0.42965975E+03</pdfrwt>
<totfact> 0.72296030E+04</totfact>
</mgrwt>
</event>
<event>
 7    0  0.4725730E-002  0.4555363E+03  0.7546771E-02  0.1026084E+00
         21   -1    0    0  502  501  0.00000000000E+00  0.00000000000E+00  0.89871229011E+03  0.89871229011E+03  0.00000000000E+00 0. -1.
         21   -1    0    0  501  502 -0.00000000000E+00 -0.00000000000E+00 -0.57725182328E+02  0.57725182328E+02  0.00000000000E+00 0. -1.
      99926    2    1    2    0    0 -0.71054273576E-14  0.00000000000E+00  0.84098710778E+03  0.95643747244E+03  0.45553630287E+03 0.  0.
      99925    2    3    3    0    0 -0.44731926091E+02  0.49201804392E+02  0.33537550843E+03  0.43135427878E+03  0.26299813573E+03 0.  0.
         25    1    4    4    0    0  0.14919798835E+02  0.37496274113E+02  0.14688048090E+03  0.19710391863E+03  0.12509000000E+03 0.  0.
         25    1    3    3    0    0  0.44731926091E+02 -0.49201804392E+02  0.50561159935E+03  0.52508319366E+03  0.12509000000E+03 0.  0.
         25    1    4    4    0    0 -0.59651724926E+02  0.11705530280E+02  0.18849502753E+03  0.23425036015E+03  0.12509000000E+03 0.  0.
<mgrwt>
<rscale>  2 0.45553630E+03</rscale>
<asrwt>0</asrwt>
<pdfrwt beam="1">  1       21 0.13216356E+00 0.45553630E+03</pdfrwt>
<pdfrwt beam="2">  1       21 0.84889979E-02 0.45553630E+03</pdfrwt>
<totfact> 0.40710263E+04</totfact>
</mgrwt>
</event>
<event>
 7    0  0.4725730E-002  0.4572547E+03  0.7546771E-02  0.1025580E+00
         21   -1    0    0  502  501  0.00000000000E+00  0.00000000000E+00  0.14722221016E+03  0.14722221016E+03  0.00000000000E+00 0. -1.
         21   -1    0    0  501  502 -0.00000000000E+00 -0.00000000000E+00 -0.35504469820E+03  0.35504469820E+03  0.00000000000E+00 0. -1.
      99926    2    1    2    0    0  0.14210854715E-13  0.00000000000E+00 -0.20782248804E+03  0.50226690835E+03  0.45725470002E+03 0.  0.
      99925    2    3    3    0    0 -0.68851607090E+02 -0.80307634375E+02 -0.80437965634E+02  0.29474778975E+03  0.26308959179E+03 0.  0.
         25    1    3    3    0    0  0.68851607090E+02  0.80307634375E+02 -0.12738452240E+03  0.20751911860E+03  0.12509000000E+03 0.  0.
         25    1    4    4    0    0 -0.40189769871E+02 -0.81922312722E+02 -0.36354554547E+02  0.15904604572E+03  0.12509000000E+03 0.  0.
         25    1    4    4    0    0 -0.28661837219E+02  0.16146783471E+01 -0.44083411087E+02  0.13570174403E+03  0.12509000000E+03 0.  0.
<mgrwt>
<rscale>  2 0.45725470E+03</rscale>
<asrwt>0</asrwt>
<pdfrwt beam="1">  1       21 0.21650326E-01 0.45725470E+03</pdfrwt>
<pdfrwt beam="2">  1       21 0.52212454E-01 0.45725470E+03</pdfrwt>
<totfact> 0.63959290E+04</totfact>
</mgrwt>
</event>
<event>
 7    0  0.4725730E-002  0.4567568E+03  0.7546771E-02  0.1025726E+00
         21   -1    0    0  502  501  0.00000000000E+00  0.00000000000E+00  0.29494790423E+03  0.29494790423E+03  0.00000000000E+00 0. -1.
         21   -1    0    0  501  502 -0.00000000000E+00 -0.00000000000E+00 -0.17683356820E+03  0.17683356820E+03  0.00000000000E+00 0. -1.
      99926    2    1    2    0    0 -0.35527136788E-14  0.00000000000E+00  0.11811433603E+03  0.47178147243E+03  0.45675678577E+03 0.  0.
      99925    2    3    3    0    0 -0.11673477440E+02  0.32362116203E+02  0.18738607239E+03  0.32471122323E+03  0.26294535882E+03 0.  0.
         25    1    3    3    0    0  0.11673477440E+02 -0.32362116203E+02 -0.69271736357E+02  0.14707024920E+03  0.12509000000E+03 0.  0.
         25    1    4    4    0    0 -0.21307284590E+02  0.50629925334E+02  0.78359890664E+02  0.15749657228E+03  0.12509000000E+03 0.  0.
         25    1    4    4    0    0  0.96338071499E+01 -0.18267809132E+02  0.10902618173E+03  0.16721465095E+03  0.12509000000E+03 0.  0.
<mgrwt>
<rscale>  2 0.45675679E+03</rscale>
<asrwt>0</asrwt>
<pdfrwt beam="1">  1       21 0.43374692E-01 0.45675679E+03</pdfrwt>
<pdfrwt beam="2">  1       21 0.26004936E-01 0.45675679E+03</pdfrwt>
<totfact> 0.66373569E+04</totfact>
</mgrwt>
</event>
<event>
 7    0  0.4725730E-002  0.4391609E+03  0.7546771E-02  0.1031005E+00
         21   -1    0    0  502  501  0.00000000000E+00  0.00000000000E+00  0.50670893547E+03  0.50670893547E+03  0.00000000000E+00 0. -1.
         21   -1    0    0  501  502 -0.00000000000E+00 -0.00000000000E+00 -0.95154359274E+02  0.95154359274E+02  0.00000000000E+00 0. -1.
      99926    2    1    2    0    0  0.35527136788E-14 -0.14210854715E-13  0.41155457619E+03  0.60186329474E+03  0.43916085478E+03 0.  0.
      99925    2    3    3    0    0  0.23298846366E+02  0.94397492326E+02  0.27600029833E+03  0.39335383897E+03  0.26286375778E+03 0.  0.
         25    1    3    3    0    0 -0.23298846366E+02 -0.94397492326E+02  0.13555427786E+03  0.20850945577E+03  0.12509000000E+03 0.  0.
         25    1    4    4    0    0  0.22759213479E+02  0.83483462333E+02  0.12432997190E+03  0.19645080884E+03  0.12509000000E+03 0.  0.
         25    1    4    4    0    0  0.53963288684E+00  0.10914029993E+02  0.15167032643E+03  0.19690303013E+03  0.12509000000E+03 0.  0.
<mgrwt>
<rscale>  2 0.43916085E+03</rscale>
<asrwt>0</asrwt>
<pdfrwt beam="1">  1       21 0.74516019E-01 0.43916085E+03</pdfrwt>
<pdfrwt beam="2">  1       21 0.13993288E-01 0.43916085E+03</pdfrwt>
<totfact> 0.66502837E+04</totfact>
</mgrwt>
</event>
<event>
 7    0  0.4725730E-002  0.4565879E+03  0.7546771E-02  0.1025775E+00
         21   -1    0    0  502  501  0.00000000000E+00  0.00000000000E+00  0.61554480052E+02  0.61554480052E+02  0.00000000000E+00 0. -1.
         21   -1    0    0  501  502 -0.00000000000E+00 -0.00000000000E+00 -0.84669920078E+03  0.84669920078E+03  0.00000000000E+00 0. -1.
      99926    2    1    2    0    0  0.00000000000E+00  0.00000000000E+00 -0.78514472073E+03  0.90825368083E+03  0.45658790638E+03 0.  0.
      99925    2    3    3    0    0 -0.40000411786E+01  0.10768125305E+03 -0.41501521901E+03  0.50297031240E+03  0.26292632153E+03 0.  0.
         25    1    4    4    0    0 -0.55089702506E+01  0.23956064740E+02 -0.13922682305E+03  0.18877462262E+03  0.12509000000E+03 0.  0.
         25    1    3    3    0    0  0.40000411786E+01 -0.10768125305E+03 -0.37012950172E+03  0.40528336843E+03  0.12509000000E+03 0.  0.
         25    1    4    4    0    0  0.15089290720E+01  0.83725188309E+02 -0.27578839596E+03  0.31419568977E+03  0.12509000000E+03 0.  0.
<mgrwt>
<rscale>  2 0.45658791E+03</rscale>
<asrwt>0</asrwt>
<pdfrwt beam="1">  1       21 0.90521299E-02 0.45658791E+03</pdfrwt>
<pdfrwt beam="2">  1       21 0.12451458E+00 0.45658791E+03</pdfrwt>
<totfact> 0.42349878E+04</totfact>
</mgrwt>
</event>
<event>
 7    0  0.4725730E-002  0.4567206E+03  0.7546771E-02  0.1025737E+00
         21   -1    0    0  502  501  0.00000000000E+00  0.00000000000E+00  0.43285800216E+03  0.43285800216E+03  0.00000000000E+00 0. -1.
         21   -1    0    0  501  502 -0.00000000000E+00 -0.00000000000E+00 -0.12047467626E+03  0.12047467626E+03  0.00000000000E+00 0. -1.
      99926    2    1    2    0    0  0.14210854715E-13  0.26645352591E-14  0.31238332590E+03  0.55333267842E+03  0.45672060464E+03 0.  0.
      99925    2    3    3    0    0 -0.11067825373E+03 -0.69683331729E+01  0.23155595923E+03  0.36764798648E+03  0.26315137505E+03 0.  0.
         25    1    4    4    0    0 -0.86127358517E+02 -0.24417146568E+02  0.15267030140E+03  0.21672528224E+03  0.12509000000E+03 0.  0.
         25    1    3    3    0    0  0.11067825373E+03  0.69683331729E+01  0.80827366667E+02  0.18568469193E+03  0.12509000000E+03 0.  0.
         25    1    4    4    0    0 -0.24550895215E+02  0.17448813395E+02  0.78885657830E+02  0.15092270424E+03  0.12509000000E+03 0.  0.
<mgrwt>
<rscale>  2 0.45672060E+03</rscale>
<asrwt>0</asrwt>
<pdfrwt beam="1">  1       21 0.63655588E-01 0.45672060E+03</pdfrwt>
<pdfrwt beam="2">  1       21 0.17716864E-01 0.45672060E+03</pdfrwt>
<totfact> 0.60814765E+04</totfact>
</mgrwt>
</event>
<event>
 7    0  0.4725730E-002  0.4581963E+03  0.7546771E-02  0.1025306E+00
         21   -1    0    0  502  501  0.00000000000E+00  0.00000000000E+00  0.65369067981E+02  0.65369067981E+02  0.00000000000E+00 0. -1.
         21   -1    0    0  501  502 -0.00000000000E+00 -0.00000000000E+00 -0.80291741515E+03  0.80291741515E+03  0.00000000000E+00 0. -1.
      99926    2    1    2    0    0  0.00000000000E+00  0.17763568394E-14 -0.73754834717E+03  0.86828648313E+03  0.45819630332E+03 0.  0.
      99925    2    3    3    0    0 -0.10429521812E+03 -0.96652292287E+01 -0.55781278462E+03  0.62554528407E+03  0.26302260465E+03 0.  0.
         25    1    4    4    0    0 -0.84758055890E+02 -0.19028175385E+02 -0.25223556113E+03  0.29464603492E+03  0.12509000000E+03 0.  0.
         25    1    3    3    0    0  0.10429521812E+03  0.96652292287E+01 -0.17973556255E+03  0.24274119906E+03  0.12509000000E+03 0.  0.
         25    1    4    4    0    0 -0.19537162228E+02  0.93629461564E+01 -0.30557722349E+03  0.33089924915E+03  0.12509000000E+03 0.  0.
<mgrwt>
<rscale>  2 0.45819630E+03</rscale>
<asrwt>0</asrwt>
<pdfrwt beam="1">  1       21 0.96130979E-02 0.45819630E+03</pdfrwt>
<pdfrwt beam="2">  1       21 0.11807609E+00 0.45819630E+03</pdfrwt>
<totfact> 0.43530468E+04</totfact>
</mgrwt>
</event>
<event>
 7    0  0.4725730E-002  0.4603308E+03  0.7546771E-02  0.1024685E+00
         21   -1    0    0  502  501  0.00000000000E+00  0.00000000000E+00  0.45648430818E+02  0.45648430818E+02  0.00000000000E+00 0.  1.
         21   -1    0    0  501  502 -0.00000000000E+00 -0.00000000000E+00 -0.11605242863E+04  0.11605242863E+04  0.00000000000E+00 0.  1.
      99926    2    1    2    0    0  0.00000000000E+00  0.14210854715E-13 -0.11148758554E+04  0.12061727171E+04  0.46033080538E+03 0.  0.
      99925    2    3    3    0    0 -0.12133296014E+02 -0.93181926804E+02 -0.51170119874E+03  0.58303768922E+03  0.26318195589E+03 0.  0.
         25    1    4    4    0    0 -0.12028593375E+02 -0.75997017565E+02 -0.33580634749E+03  0.36651554517E+03  0.12509000000E+03 0.  0.
         25    1    4    4    0    0 -0.10470263938E+00 -0.17184909239E+02 -0.17589485125E+03  0.21652214405E+03  0.12509000000E+03 0.  0.
         25    1    3    3    0    0  0.12133296014E+02  0.93181926804E+02 -0.60317465671E+03  0.62313502787E+03  0.12509000000E+03 0.  0.
<mgrwt>
<rscale>  2 0.46033081E+03</rscale>
<asrwt>0</asrwt>
<pdfrwt beam="1">  1       21 0.67130048E-02 0.46033081E+03</pdfrwt>
<pdfrwt beam="2">  1       21 0.17066533E+00 0.46033081E+03</pdfrwt>
<totfact> 0.30667542E+04</totfact>
</mgrwt>
</event>
<event>
 7    0  0.4725730E-002  0.4708491E+03  0.7546771E-02  0.1021681E+00
         21   -1    0    0  502  501  0.00000000000E+00  0.00000000000E+00  0.20978637507E+03  0.20978637507E+03  0.00000000000E+00 0.  1.
         21   -1    0    0  501  502 -0.00000000000E+00 -0.00000000000E+00 -0.26419597717E+03  0.26419597717E+03  0.00000000000E+00 0.  1.
      99926    2    1    2    0    0  0.35527136788E-14  0.00000000000E+00 -0.54409602097E+02  0.47398235224E+03  0.47084908987E+03 0.  0.
      99925    2    3    3    0    0  0.19095268634E+02 -0.68232047147E+02  0.73209631491E+02  0.28174703180E+03  0.26268136258E+03 0.  0.
         25    1    4    4    0    0  0.29042150454E+02  0.13919160690E+01  0.39069246672E+02  0.13423597904E+03  0.12509000000E+03 0.  0.
         25    1    3    3    0    0 -0.19095268634E+02  0.68232047147E+02 -0.12761923359E+03  0.19223532044E+03  0.12509000000E+03 0.  0.
         25    1    4    4    0    0 -0.99468818201E+01 -0.69623963216E+02  0.34140384819E+02  0.14751105276E+03  0.12509000000E+03 0.  0.
<mgrwt>
<rscale>  2 0.47084909E+03</rscale>
<asrwt>0</asrwt>
<pdfrwt beam="1">  1       21 0.30850938E-01 0.47084909E+03</pdfrwt>
<pdfrwt beam="2">  1       21 0.38852349E-01 0.47084909E+03</pdfrwt>
<totfact> 0.59314109E+04</totfact>
</mgrwt>
</event>
<event>
 7    0  0.4725730E-002  0.4580091E+03  0.7546771E-02  0.1025360E+00
         21   -1    0    0  502  501  0.00000000000E+00  0.00000000000E+00  0.48574937575E+03  0.48574937575E+03  0.00000000000E+00 0. -1.
         21   -1    0    0  501  502 -0.00000000000E+00 -0.00000000000E+00 -0.10796327492E+03  0.10796327492E+03  0.00000000000E+00 0. -1.
      99926    2    1    2    0    0  0.14210854715E-13  0.71054273576E-14  0.37778610084E+03  0.59371265067E+03  0.45800914137E+03 0.  0.
      99925    2    3    3    0    0  0.10474787041E+03  0.43334002077E+02  0.20529419579E+03  0.35236038219E+03  0.26298703394E+03 0.  0.
         25    1    3    3    0    0 -0.10474787041E+03 -0.43334002077E+02  0.17249190505E+03  0.24135226848E+03  0.12509000000E+03 0.  0.
         25    1    4    4    0    0  0.38303589600E+02  0.57747847780E+02  0.88140992338E+02  0.16798309894E+03  0.12509000000E+03 0.  0.
         25    1    4    4    0    0  0.66444280810E+02 -0.14413845704E+02  0.11715320345E+03  0.18437728325E+03  0.12509000000E+03 0.  0.
<mgrwt>
<rscale>  2 0.45800914E+03</rscale>
<asrwt>0</asrwt>
<pdfrwt beam="1">  1       21 0.71433731E-01 0.45800914E+03</pdfrwt>
<pdfrwt beam="2">  1       21 0.15876952E-01 0.45800914E+03</pdfrwt>
<totfact> 0.57682924E+04</totfact>
</mgrwt>
</event>
<event>
 7    0  0.4725730E-002  0.4559502E+03  0.7546771E-02  0.1025962E+00
         21   -1    0    0  502  501  0.00000000000E+00  0.00000000000E+00  0.29904339679E+04  0.29904339679E+04  0.00000000000E+00 0.  1.
         21   -1    0    0  501  502 -0.00000000000E+00 -0.00000000000E+00 -0.17379633037E+02  0.17379633037E+02  0.00000000000E+00 0.  1.
      99926    2    1    2    0    0 -0.14210854715E-13  0.35527136788E-14  0.29730543349E+04  0.30078136010E+04  0.45595019457E+03 0.  0.
      99925    2    3    3    0    0 -0.11108458945E+03  0.20054689190E+02  0.17746378295E+04  0.17976104754E+04  0.26329074973E+03 0.  0.
         25    1    3    3    0    0  0.11108458945E+03 -0.20054689190E+02  0.11984165054E+04  0.12102031256E+04  0.12509000000E+03 0.  0.
         25    1    4    4    0    0 -0.32333656102E+02 -0.25453002441E+02  0.79002493935E+03  0.80092461165E+03  0.12509000000E+03 0.  0.
         25    1    4    4    0    0 -0.78750933349E+02  0.45507691631E+02  0.98461289013E+03  0.99668586376E+03  0.12509000000E+03 0.  0.
<mgrwt>
<rscale>  2 0.45595019E+03</rscale>
<asrwt>0</asrwt>
<pdfrwt beam="1">  1       21 0.43976934E+00 0.45595019E+03</pdfrwt>
<pdfrwt beam="2">  1       21 0.25558305E-02 0.45595019E+03</pdfrwt>
<totfact> 0.31805202E+03</totfact>
</mgrwt>
</event>
<event>
 7    0  0.4725730E-002  0.5089439E+03  0.7546771E-02  0.1011470E+00
         21   -1    0    0  502  501  0.00000000000E+00  0.00000000000E+00  0.61425491201E+03  0.61425491201E+03  0.00000000000E+00 0. -1.
         21   -1    0    0  501  502 -0.00000000000E+00 -0.00000000000E+00 -0.10542198838E+03  0.10542198838E+03  0.00000000000E+00 0. -1.
      99926    2    1    2    0    0  0.14210854715E-13 -0.14210854715E-13  0.50883292363E+03  0.71967690039E+03  0.50894390338E+03 0.  0.
      99925    2    3    3    0    0  0.11084488986E+03 -0.11200550672E+03  0.33100981166E+03  0.45116174180E+03  0.26295930997E+03 0.  0.
         25    1    4    4    0    0  0.86245332955E+02 -0.39184634901E+02  0.14033327228E+03  0.21051039993E+03  0.12509000000E+03 0.  0.
         25    1    3    3    0    0 -0.11084488986E+03  0.11200550672E+03  0.17782311197E+03  0.26851515860E+03  0.12509000000E+03 0.  0.
         25    1    4    4    0    0  0.24599556909E+02 -0.72820871823E+02  0.19067653938E+03  0.24065134187E+03  0.12509000000E+03 0.  0.
<mgrwt>
<rscale>  2 0.50894390E+03</rscale>
<asrwt>0</asrwt>
<pdfrwt beam="1">  1       21 0.90331603E-01 0.50894390E+03</pdfrwt>
<pdfrwt beam="2">  1       21 0.15503234E-01 0.50894390E+03</pdfrwt>
<totfact> 0.34628343E+04</totfact>
</mgrwt>
</event>
<event>
 7    0  0.4725730E-002  0.4545020E+03  0.7546771E-02  0.1026388E+00
         21   -1    0    0  502  501  0.00000000000E+00  0.00000000000E+00  0.98931072440E+03  0.98931072440E+03  0.00000000000E+00 0. -1.
         21   -1    0    0  501  502 -0.00000000000E+00 -0.00000000000E+00 -0.52200997921E+02  0.52200997921E+02  0.00000000000E+00 0. -1.
      99926    2    1    2    0    0  0.00000000000E+00  0.00000000000E+00  0.93710972648E+03  0.10415117223E+04  0.45450195629E+03 0.  0.
      99925    2    3    3    0    0  0.64599896674E+02  0.36929775161E+02  0.78388496341E+03  0.83017717460E+03  0.26302385904E+03 0.  0.
         25    1    4    4    0    0  0.44250285403E+01  0.39597466920E+02  0.31766135610E+03  0.34372050495E+03  0.12509000000E+03 0.  0.
         25    1    4    4    0    0  0.60174868134E+02 -0.26676917591E+01  0.46622360730E+03  0.48645666964E+03  0.12509000000E+03 0.  0.
         25    1    3    3    0    0 -0.64599896674E+02 -0.36929775161E+02  0.15322476308E+03  0.21133454773E+03  0.12509000000E+03 0.  0.
<mgrwt>
<rscale>  2 0.45450196E+03</rscale>
<asrwt>0</asrwt>
<pdfrwt beam="1">  1       21 0.14548686E+00 0.45450196E+03</pdfrwt>
<pdfrwt beam="2">  1       21 0.76766179E-02 0.45450196E+03</pdfrwt>
<totfact> 0.37736900E+04</totfact>
</mgrwt>
</event>
<event>
 6    0  0.5902871E-002  0.3953466E+03  0.7546771E-02  0.1045403E+00
         21   -1    0    0  502  501  0.00000000000E+00  0.00000000000E+00  0.24698882845E+03  0.24698882845E+03  0.00000000000E+00 0.  1.
         21   -1    0    0  501  502 -0.00000000000E+00 -0.00000000000E+00 -0.15820442277E+03  0.15820442277E+03  0.00000000000E+00 0.  1.
      99926    2    1    2    0    0 -0.35527136788E-14  0.00000000000E+00  0.88784405678E+02  0.40519325123E+03  0.39534655702E+03 0.  0.
         25    1    3    3    0    0 -0.14692773025E+02  0.16729694612E+02 -0.92077950334E-01  0.12705619560E+03  0.12509000000E+03 0.  0.
         25    1    3    3    0    0  0.35171282455E+02  0.17728508872E+02  0.56834761540E+02  0.14293011354E+03  0.12509000000E+03 0.  0.
         25    1    3    3    0    0 -0.20478509429E+02 -0.34458203484E+02  0.32041722088E+02  0.13520694209E+03  0.12509000000E+03 0.  0.
<mgrwt>
<rscale>  2 0.39534656E+03</rscale>
<asrwt>0</asrwt>
<pdfrwt beam="1">  1       21 0.36321887E-01 0.39534656E+03</pdfrwt>
<pdfrwt beam="2">  1       21 0.23265356E-01 0.39534656E+03</pdfrwt>
<totfact> 0.12010126E+05</totfact>
</mgrwt>
</event>
<event>
 7    0  0.4725730E-002  0.4613293E+03  0.7546771E-02  0.1024396E+00
         21   -1    0    0  502  501  0.00000000000E+00  0.00000000000E+00  0.64479107002E+02  0.64479107002E+02  0.00000000000E+00 0.  1.
         21   -1    0    0  501  502 -0.00000000000E+00 -0.00000000000E+00 -0.82516917036E+03  0.82516917036E+03  0.00000000000E+00 0.  1.
      99926    2    1    2    0    0 -0.35527136788E-14  0.00000000000E+00 -0.76069006336E+03  0.88964827737E+03  0.46132925869E+03 0.  0.
      99925    2    3    3    0    0  0.16583834070E+02 -0.82885793331E+02 -0.31393575444E+03  0.41807431824E+03  0.26284101538E+03 0.  0.
         25    1    4    4    0    0  0.22464549117E+02 -0.65795109511E+02 -0.21158813283E+03  0.25544216264E+03  0.12509000000E+03 0.  0.
         25    1    3    3    0    0 -0.16583834070E+02  0.82885793331E+02 -0.44675430892E+03  0.47157395913E+03  0.12509000000E+03 0.  0.
         25    1    4    4    0    0 -0.58807150471E+01 -0.17090683820E+02 -0.10234762161E+03  0.16263215559E+03  0.12509000000E+03 0.  0.
<mgrwt>
<rscale>  2 0.46132926E+03</rscale>
<asrwt>0</asrwt>
<pdfrwt beam="1">  1       21 0.94822216E-02 0.46132926E+03</pdfrwt>
<pdfrwt beam="2">  1       21 0.12134841E+00 0.46132926E+03</pdfrwt>
<totfact> 0.41584611E+04</totfact>
</mgrwt>
</event>
<event>
 7    0  0.4725730E-002  0.4498318E+03  0.7546771E-02  0.1027772E+00
         21   -1    0    0  502  501  0.00000000000E+00  0.00000000000E+00  0.24364121200E+03  0.24364121200E+03  0.00000000000E+00 0. -1.
         21   -1    0    0  501  502 -0.00000000000E+00 -0.00000000000E+00 -0.20762974451E+03  0.20762974451E+03  0.00000000000E+00 0. -1.
      99926    2    1    2    0    0  0.00000000000E+00  0.71054273576E-14  0.36011467486E+02  0.45127095651E+03  0.44983180234E+03 0.  0.
      99925    2    3    3    0    0 -0.46983408481E+01 -0.44324061723E+02  0.12156593695E+03  0.29330332629E+03  0.26317649464E+03 0.  0.
         25    1    3    3    0    0  0.46983408481E+01  0.44324061723E+02 -0.85554469460E+02  0.15796763022E+03  0.12509000000E+03 0.  0.
         25    1    4    4    0    0 -0.12067613806E+02 -0.16605687091E+02  0.17274807897E+02  0.12793476164E+03  0.12509000000E+03 0.  0.
         25    1    4    4    0    0  0.73692729580E+01 -0.27718374632E+02  0.10429112905E+03  0.16536856465E+03  0.12509000000E+03 0.  0.
<mgrwt>
<rscale>  2 0.44983180E+03</rscale>
<asrwt>0</asrwt>
<pdfrwt beam="1">  1       21 0.35829590E-01 0.44983180E+03</pdfrwt>
<pdfrwt beam="2">  1       21 0.30533786E-01 0.44983180E+03</pdfrwt>
<totfact> 0.71732482E+04</totfact>
</mgrwt>
</event>
<event>
 7    0  0.4725730E-002  0.4749178E+03  0.7546771E-02  0.1020541E+00
         21   -1    0    0  502  501  0.00000000000E+00  0.00000000000E+00  0.55563963906E+03  0.55563963906E+03  0.00000000000E+00 0. -1.
         21   -1    0    0  501  502 -0.00000000000E+00 -0.00000000000E+00 -0.10148074306E+03  0.10148074306E+03  0.00000000000E+00 0. -1.
      99926    2    1    2    0    0  0.00000000000E+00  0.00000000000E+00  0.45415889600E+03  0.65712038212E+03  0.47491777581E+03 0.  0.
      99925    2    3    3    0    0  0.76300520630E+02 -0.99608416354E+02  0.33409011244E+03  0.44309321809E+03  0.26262480962E+03 0.  0.
         25    1    4    4    0    0  0.44661784461E+02 -0.13120046864E+02  0.18203754735E+03  0.22572546902E+03  0.12509000000E+03 0.  0.
         25    1    3    3    0    0 -0.76300520630E+02  0.99608416354E+02  0.12006878356E+03  0.21402716403E+03  0.12509000000E+03 0.  0.
         25    1    4    4    0    0  0.31638736169E+02 -0.86488369490E+02  0.15205256509E+03  0.21736774907E+03  0.12509000000E+03 0.  0.
<mgrwt>
<rscale>  2 0.47491778E+03</rscale>
<asrwt>0</asrwt>
<pdfrwt beam="1">  1       21 0.81711710E-01 0.47491778E+03</pdfrwt>
<pdfrwt beam="2">  1       21 0.14923639E-01 0.47491778E+03</pdfrwt>
<totfact> 0.47395606E+04</totfact>
</mgrwt>
</event>
<event>
 7    0  0.4725730E-002  0.4634122E+03  0.7546771E-02  0.1023796E+00
         21   -1    0    0  502  501  0.00000000000E+00  0.00000000000E+00  0.20833464677E+03  0.20833464677E+03  0.00000000000E+00 0.  1.
         21   -1    0    0  501  502 -0.00000000000E+00 -0.00000000000E+00 -0.25769936798E+03  0.25769936798E+03  0.00000000000E+00 0.  1.
      99926    2    1    2    0    0  0.00000000000E+00  0.00000000000E+00 -0.49364721219E+02  0.46603401475E+03  0.46341215694E+03 0.  0.
      99925    2    3    3    0    0 -0.67583350418E+02  0.39475374443E+02  0.61843932866E+02  0.28126202747E+03  0.26297878550E+03 0.  0.
         25    1    3    3    0    0  0.67583350418E+02 -0.39475374443E+02 -0.11120865409E+03  0.18477198728E+03  0.12509000000E+03 0.  0.
         25    1    4    4    0    0 -0.28524838443E+02  0.29921692864E+02  0.70800328870E+02  0.14956326013E+03  0.12509000000E+03 0.  0.
         25    1    4    4    0    0 -0.39058511975E+02  0.95536815788E+01 -0.89563960038E+01  0.13169876734E+03  0.12509000000E+03 0.  0.
<mgrwt>
<rscale>  2 0.46341216E+03</rscale>
<asrwt>0</asrwt>
<pdfrwt beam="1">  1       21 0.30637448E-01 0.46341216E+03</pdfrwt>
<pdfrwt beam="2">  1       21 0.37896966E-01 0.46341216E+03</pdfrwt>
<totfact> 0.63382795E+04</totfact>
</mgrwt>
</event>
<event>
 7    0  0.4725730E-002  0.4541090E+03  0.7546771E-02  0.1026504E+00
         21   -1    0    0  502  501  0.00000000000E+00  0.00000000000E+00  0.80214468445E+03  0.80214468445E+03  0.00000000000E+00 0. -1.
         21   -1    0    0  501  502 -0.00000000000E+00 -0.00000000000E+00 -0.64269874394E+02  0.64269874394E+02  0.00000000000E+00 0. -1.
      99926    2    1    2    0    0  0.00000000000E+00 -0.14210854715E-13  0.73787481005E+03  0.86641455884E+03  0.45410896540E+03 0.  0.
      99925    2    3    3    0    0 -0.87174647256E+01 -0.85218860993E+02  0.32585763176E+03  0.42738846421E+03  0.26294382423E+03 0.  0.
         25    1    4    4    0    0 -0.78707332275E+01 -0.40812551182E+02  0.22464820827E+03  0.26046485051E+03  0.12509000000E+03 0.  0.
         25    1    4    4    0    0 -0.84673149813E+00 -0.44406309811E+02  0.10120942350E+03  0.16692361370E+03  0.12509000000E+03 0.  0.
         25    1    3    3    0    0  0.87174647256E+01  0.85218860993E+02  0.41201717829E+03  0.43902609463E+03  0.12509000000E+03 0.  0.
<mgrwt>
<rscale>  2 0.45410897E+03</rscale>
<asrwt>0</asrwt>
<pdfrwt beam="1">  1       21 0.11796245E+00 0.45410897E+03</pdfrwt>
<pdfrwt beam="2">  1       21 0.94514526E-02 0.45410897E+03</pdfrwt>
<totfact> 0.45027520E+04</totfact>
</mgrwt>
</event>
<event>
 7    0  0.4725730E-002  0.4531424E+03  0.7546771E-02  0.1026789E+00
         21   -1    0    0  502  501  0.00000000000E+00  0.00000000000E+00  0.35962733354E+03  0.35962733354E+03  0.00000000000E+00 0. -1.
         21   -1    0    0  501  502 -0.00000000000E+00 -0.00000000000E+00 -0.14274360153E+03  0.14274360153E+03  0.00000000000E+00 0. -1.
      99926    2    1    2    0    0 -0.14210854715E-13  0.00000000000E+00  0.21688373202E+03  0.50237093507E+03  0.45314236525E+03 0.  0.
      99925    2    3    3    0    0  0.89807092626E+02  0.34333564143E+02  0.74226893051E+02  0.28966788075E+03  0.26297099074E+03 0.  0.
         25    1    3    3    0    0 -0.89807092626E+02 -0.34333564143E+02  0.14265683897E+03  0.21270305432E+03  0.12509000000E+03 0.  0.
         25    1    4    4    0    0  0.58415648671E+02 -0.36368977383E+01  0.44042779015E+01  0.13817568816E+03  0.12509000000E+03 0.  0.
         25    1    4    4    0    0  0.31391443955E+02  0.37970461882E+02  0.69822615149E+02  0.15149219259E+03  0.12509000000E+03 0.  0.
<mgrwt>
<rscale>  2 0.45314237E+03</rscale>
<asrwt>0</asrwt>
<pdfrwt beam="1">  1       21 0.52886372E-01 0.45314237E+03</pdfrwt>
<pdfrwt beam="2">  1       21 0.20991706E-01 0.45314237E+03</pdfrwt>
<totfact> 0.66073311E+04</totfact>
</mgrwt>
</event>
<event>
 7    0  0.4725730E-002  0.4685899E+03  0.7546771E-02  0.1022319E+00
         21   -1    0    0  502  501  0.00000000000E+00  0.00000000000E+00  0.15236319939E+03  0.15236319939E+03  0.00000000000E+00 0. -1.
         21   -1    0    0  501  502 -0.00000000000E+00 -0.00000000000E+00 -0.36028463772E+03  0.36028463772E+03  0.00000000000E+00 0. -1.
      99926    2    1    2    0    0  0.00000000000E+00  0.00000000000E+00 -0.20792143833E+03  0.51264783712E+03  0.46858988506E+03 0.  0.
      99925    2    3    3    0    0  0.92957860770E+02  0.49551439267E+02 -0.54724501103E+02  0.28856455196E+03  0.26301752910E+03 0.  0.
         25    1    4    4    0    0  0.49911014912E+02  0.11070610256E+02  0.11653202397E+02  0.13563544171E+03  0.12509000000E+03 0.  0.
         25    1    3    3    0    0 -0.92957860770E+02 -0.49551439267E+02 -0.15319693723E+03  0.22408328516E+03  0.12509000000E+03 0.  0.
         25    1    4    4    0    0  0.43046845858E+02  0.38480829011E+02 -0.66377703499E+02  0.15292911025E+03  0.12509000000E+03 0.  0.
<mgrwt>
<rscale>  2 0.46858989E+03</rscale>
<asrwt>0</asrwt>
<pdfrwt beam="1">  1       21 0.22406353E-01 0.46858989E+03</pdfrwt>
<pdfrwt beam="2">  1       21 0.52983034E-01 0.46858989E+03</pdfrwt>
<totfact> 0.57889989E+04</totfact>
</mgrwt>
</event>
<event>
 7    0  0.4725730E-002  0.4525480E+03  0.7546771E-02  0.1026965E+00
         21   -1    0    0  502  501  0.00000000000E+00  0.00000000000E+00  0.19995615174E+03  0.19995615174E+03  0.00000000000E+00 0.  1.
         21   -1    0    0  501  502 -0.00000000000E+00 -0.00000000000E+00 -0.25605571599E+03  0.25605571599E+03  0.00000000000E+00 0.  1.
      99926    2    1    2    0    0  0.00000000000E+00  0.71054273576E-14 -0.56099564248E+02  0.45601186773E+03  0.45254796696E+03 0.  0.
      99925    2    3    3    0    0 -0.77830174394E+02 -0.57231337681E+02 -0.90256131275E+02  0.29431109089E+03  0.26294464614E+03 0.  0.
         25    1    4    4    0    0 -0.74271974989E+02 -0.33803053347E+02 -0.71625918918E+02  0.16564043300E+03  0.12509000000E+03 0.  0.
         25    1    3    3    0    0  0.77830174394E+02  0.57231337681E+02  0.34156567027E+02  0.16170077684E+03  0.12509000000E+03 0.  0.
         25    1    4    4    0    0 -0.35581994050E+01 -0.23428284334E+02 -0.18630212357E+02  0.12867065789E+03  0.12509000000E+03 0.  0.
<mgrwt>
<rscale>  2 0.45254797E+03</rscale>
<asrwt>0</asrwt>
<pdfrwt beam="1">  1       21 0.29405317E-01 0.45254797E+03</pdfrwt>
<pdfrwt beam="2">  1       21 0.37655252E-01 0.45254797E+03</pdfrwt>
<totfact> 0.69827661E+04</totfact>
</mgrwt>
</event>
<event>
 7    0  0.4725730E-002  0.4596291E+03  0.7546771E-02  0.1024889E+00
         21   -1    0    0  502  501  0.00000000000E+00  0.00000000000E+00  0.48101962890E+02  0.48101962890E+02  0.00000000000E+00 0. -1.
         21   -1    0    0  501  502 -0.00000000000E+00 -0.00000000000E+00 -0.10979743776E+04  0.10979743776E+04  0.00000000000E+00 0. -1.
      99926    2    1    2    0    0  0.71054273576E-14  0.00000000000E+00 -0.10498724147E+04  0.11460763405E+04  0.45962907987E+03 0.  0.
      99925    2    3    3    0    0  0.46393286558E+02 -0.75416341857E+02 -0.46371946991E+03  0.54021930747E+03  0.26260463008E+03 0.  0.
         25    1    3    3    0    0 -0.46393286558E+02  0.75416341857E+02 -0.58615294482E+03  0.60585703303E+03  0.12509000000E+03 0.  0.
         25    1    4    4    0    0 -0.40234529426E+01 -0.10594112486E+02 -0.24326823217E+03  0.27377977332E+03  0.12509000000E+03 0.  0.
         25    1    4    4    0    0  0.50416739500E+02 -0.64822229371E+02 -0.22045123773E+03  0.26643953416E+03  0.12509000000E+03 0.  0.
<mgrwt>
<rscale>  2 0.45962908E+03</rscale>
<asrwt>0</asrwt>
<pdfrwt beam="1">  1       21 0.70738187E-02 0.45962908E+03</pdfrwt>
<pdfrwt beam="2">  1       21 0.16146680E+00 0.45962908E+03</pdfrwt>
<totfact> 0.32717201E+04</totfact>
</mgrwt>
</event>
<event>
 7    0  0.4725730E-002  0.4665482E+03  0.7546771E-02  0.1022899E+00
         21   -1    0    0  502  501  0.00000000000E+00  0.00000000000E+00  0.16223984086E+03  0.16223984086E+03  0.00000000000E+00 0. -1.
         21   -1    0    0  501  502 -0.00000000000E+00 -0.00000000000E+00 -0.33540959688E+03  0.33540959688E+03  0.00000000000E+00 0. -1.
      99926    2    1    2    0    0 -0.35527136788E-14 -0.71054273576E-14 -0.17316975602E+03  0.49764943775E+03  0.46654817381E+03 0.  0.
      99925    2    3    3    0    0  0.26719211292E+02  0.60653792709E+02 -0.21925087445E+03  0.34877440157E+03  0.26302060455E+03 0.  0.
         25    1    4    4    0    0 -0.41402397180E+01  0.33447893377E+02 -0.15573398347E+03  0.20257464023E+03  0.12509000000E+03 0.  0.
         25    1    3    3    0    0 -0.26719211292E+02 -0.60653792709E+02  0.46081118429E+02  0.14887503618E+03  0.12509000000E+03 0.  0.
         25    1    4    4    0    0  0.30859451010E+02  0.27205899332E+02 -0.63516890985E+02  0.14619976134E+03  0.12509000000E+03 0.  0.
<mgrwt>
<rscale>  2 0.46654817E+03</rscale>
<asrwt>0</asrwt>
<pdfrwt beam="1">  1       21 0.23858800E-01 0.46654817E+03</pdfrwt>
<pdfrwt beam="2">  1       21 0.49324940E-01 0.46654817E+03</pdfrwt>
<totfact> 0.59766167E+04</totfact>
</mgrwt>
</event>
<event>
 7    0  0.4725730E-002  0.4523180E+03  0.7546771E-02  0.1027033E+00
         21   -1    0    0  502  501  0.00000000000E+00  0.00000000000E+00  0.24914691454E+03  0.24914691454E+03  0.00000000000E+00 0.  1.
         21   -1    0    0  501  502 -0.00000000000E+00 -0.00000000000E+00 -0.20529205707E+03  0.20529205707E+03  0.00000000000E+00 0.  1.
      99926    2    1    2    0    0  0.14210854715E-13  0.00000000000E+00  0.43854857471E+02  0.45443897161E+03  0.45231795276E+03 0.  0.
      99925    2    3    3    0    0 -0.90275915951E+02  0.51518560931E+02 -0.10311183805E+02  0.28301735322E+03  0.26303725704E+03 0.  0.
         25    1    4    4    0    0 -0.89068464644E+01  0.31807496750E+02 -0.25032059447E+02  0.13177693601E+03  0.12509000000E+03 0.  0.
         25    1    3    3    0    0  0.90275915951E+02 -0.51518560931E+02  0.54166041276E+02  0.17142161838E+03  0.12509000000E+03 0.  0.
         25    1    4    4    0    0 -0.81369069487E+02  0.19711064181E+02  0.14720875641E+02  0.15124041722E+03  0.12509000000E+03 0.  0.
<mgrwt>
<rscale>  2 0.45231795E+03</rscale>
<asrwt>0</asrwt>
<pdfrwt beam="1">  1       21 0.36639252E-01 0.45231795E+03</pdfrwt>
<pdfrwt beam="2">  1       21 0.30190008E-01 0.45231795E+03</pdfrwt>
<totfact> 0.70074469E+04</totfact>
</mgrwt>
</event>
<event>
 7    0  0.4725730E-002  0.4627020E+03  0.7546771E-02  0.1024000E+00
         21   -1    0    0  502  501  0.00000000000E+00  0.00000000000E+00  0.32816945258E+03  0.32816945258E+03  0.00000000000E+00 0.  1.
         21   -1    0    0  501  502 -0.00000000000E+00 -0.00000000000E+00 -0.16309648409E+03  0.16309648409E+03  0.00000000000E+00 0.  1.
      99926    2    1    2    0    0  0.00000000000E+00  0.00000000000E+00  0.16507296849E+03  0.49126593668E+03  0.46270199439E+03 0.  0.
      99925    2    3    3    0    0  0.39628259397E+02  0.11326849167E+03  0.11191045538E+03  0.30995429599E+03  0.26295924671E+03 0.  0.
         25    1    3    3    0    0 -0.39628259397E+02 -0.11326849167E+03  0.53162513118E+02  0.18131164069E+03  0.12509000000E+03 0.  0.
         25    1    4    4    0    0  0.23228221221E+02  0.73685389098E+02  0.98675768220E+02  0.17706920162E+03  0.12509000000E+03 0.  0.
         25    1    4    4    0    0  0.16400038175E+02  0.39583102573E+02  0.13234687155E+02  0.13288509437E+03  0.12509000000E+03 0.  0.
<mgrwt>
<rscale>  2 0.46270199E+03</rscale>
<asrwt>0</asrwt>
<pdfrwt beam="1">  1       21 0.48260214E-01 0.46270199E+03</pdfrwt>
<pdfrwt beam="2">  1       21 0.23984777E-01 0.46270199E+03</pdfrwt>
<totfact> 0.62009694E+04</totfact>
</mgrwt>
</event>
<event>
 7    0  0.4725730E-002  0.4500687E+03  0.7546771E-02  0.1027702E+00
         21   -1    0    0  502  501  0.00000000000E+00  0.00000000000E+00  0.28526984985E+03  0.28526984985E+03  0.00000000000E+00 0. -1.
         21   -1    0    0  501  502 -0.00000000000E+00 -0.00000000000E+00 -0.17751773530E+03  0.17751773530E+03  0.00000000000E+00 0. -1.
      99926    2    1    2    0    0 -0.71054273576E-14 -0.14210854715E-13  0.10775211455E+03  0.46278758516E+03  0.45006869563E+03 0.  0.
      99925    2    3    3    0    0 -0.47875357582E+02 -0.83423710060E+02  0.11974682602E+03  0.30453795177E+03  0.26296862258E+03 0.  0.
         25    1    4    4    0    0  0.16459106403E+02 -0.36742497247E+02  0.48266689121E+02  0.13999319507E+03  0.12509000000E+03 0.  0.
         25    1    4    4    0    0 -0.64334463985E+02 -0.46681212813E+02  0.71480136900E+02  0.16454475670E+03  0.12509000000E+03 0.  0.
         25    1    3    3    0    0  0.47875357582E+02  0.83423710060E+02 -0.11994711473E+02  0.15824963339E+03  0.12509000000E+03 0.  0.
<mgrwt>
<rscale>  2 0.45006870E+03</rscale>
<asrwt>0</asrwt>
<pdfrwt beam="1">  1       21 0.41951449E-01 0.45006870E+03</pdfrwt>
<pdfrwt beam="2">  1       21 0.26105549E-01 0.45006870E+03</pdfrwt>
<totfact> 0.70701456E+04</totfact>
</mgrwt>
</event>
<event>
 7    0  0.4725730E-002  0.4531075E+03  0.7546771E-02  0.1026799E+00
         21   -1    0    0  502  501  0.00000000000E+00  0.00000000000E+00  0.31871839529E+02  0.31871839529E+02  0.00000000000E+00 0.  1.
         21   -1    0    0  501  502 -0.00000000000E+00 -0.00000000000E+00 -0.16104062576E+04  0.16104062576E+04  0.00000000000E+00 0.  1.
      99926    2    1    2    0    0  0.17763568394E-14  0.00000000000E+00 -0.15785344181E+04  0.16422780971E+04  0.45310753611E+03 0.  0.
      99925    2    3    3    0    0  0.11929117959E+02  0.52634416108E+02 -0.64159391732E+03  0.69548472175E+03  0.26295162641E+03 0.  0.
         25    1    4    4    0    0 -0.11166283708E+02 -0.16916548387E+01 -0.24241196296E+03  0.27301761019E+03  0.12509000000E+03 0.  0.
         25    1    4    4    0    0  0.23095401667E+02  0.54326070947E+02 -0.39918195436E+03  0.42246711155E+03  0.12509000000E+03 0.  0.
         25    1    3    3    0    0 -0.11929117959E+02 -0.52634416108E+02 -0.93694050077E+03  0.94679337539E+03  0.12509000000E+03 0.  0.
<mgrwt>
<rscale>  2 0.45310754E+03</rscale>
<asrwt>0</asrwt>
<pdfrwt beam="1">  1       21 0.46870352E-02 0.45310754E+03</pdfrwt>
<pdfrwt beam="2">  1       21 0.23682445E+00 0.45310754E+03</pdfrwt>
<totfact> 0.20794919E+04</totfact>
</mgrwt>
</event>
<event>
 7    0  0.4725730E-002  0.4655175E+03  0.7546771E-02  0.1023193E+00
         21   -1    0    0  502  501  0.00000000000E+00  0.00000000000E+00  0.90382894587E+03  0.90382894587E+03  0.00000000000E+00 0.  1.
         21   -1    0    0  501  502 -0.00000000000E+00 -0.00000000000E+00 -0.59941237968E+02  0.59941237968E+02  0.00000000000E+00 0.  1.
      99926    2    1    2    0    0  0.00000000000E+00  0.00000000000E+00  0.84388770790E+03  0.96377018384E+03  0.46551745801E+03 0.  0.
      99925    2    3    3    0    0 -0.32403209734E+02  0.11477363968E+03  0.46567490476E+03  0.54793922188E+03  0.26298539424E+03 0.  0.
         25    1    4    4    0    0 -0.22924701126E+02  0.72638891610E+02  0.17254088293E+03  0.22631795085E+03  0.12509000000E+03 0.  0.
         25    1    3    3    0    0  0.32403209734E+02 -0.11477363968E+03  0.37821280314E+03  0.41583096196E+03  0.12509000000E+03 0.  0.
         25    1    4    4    0    0 -0.94785086084E+01  0.42134748068E+02  0.29313402184E+03  0.32162127103E+03  0.12509000000E+03 0.  0.
<mgrwt>
<rscale>  2 0.46551746E+03</rscale>
<asrwt>0</asrwt>
<pdfrwt beam="1">  1       21 0.13291601E+00 0.46551746E+03</pdfrwt>
<pdfrwt beam="2">  1       21 0.88148885E-02 0.46551746E+03</pdfrwt>
<totfact> 0.37415347E+04</totfact>
</mgrwt>
</event>
<event>
 7    0  0.4725730E-002  0.4478707E+03  0.7546771E-02  0.1028359E+00
         21   -1    0    0  502  501  0.00000000000E+00  0.00000000000E+00  0.58565805008E+03  0.58565805008E+03  0.00000000000E+00 0.  1.
         21   -1    0    0  501  502 -0.00000000000E+00 -0.00000000000E+00 -0.85625136230E+02  0.85625136230E+02  0.00000000000E+00 0.  1.
      99926    2    1    2    0    0  0.00000000000E+00  0.00000000000E+00  0.50003291385E+03  0.67128318631E+03  0.44787074172E+03 0.  0.
      99925    2    3    3    0    0 -0.14702565402E+02 -0.66533806796E+02  0.44013838553E+03  0.51675883386E+03  0.26205911753E+03 0.  0.
         25    1    3    3    0    0  0.14702565402E+02  0.66533806796E+02  0.59894528319E+02  0.15452435245E+03  0.12509000000E+03 0.  0.
         25    1    4    4    0    0  0.11929806298E+02  0.19632740042E+01  0.20129553638E+03  0.23730481620E+03  0.12509000000E+03 0.  0.
         25    1    4    4    0    0 -0.26632371701E+02 -0.68497080800E+02  0.23884284915E+03  0.27945401767E+03  0.12509000000E+03 0.  0.
<mgrwt>
<rscale>  2 0.44787074E+03</rscale>
<asrwt>0</asrwt>
<pdfrwt beam="1">  1       21 0.86126181E-01 0.44787074E+03</pdfrwt>
<pdfrwt beam="2">  1       21 0.12591932E-01 0.44787074E+03</pdfrwt>
<totfact> 0.57661027E+04</totfact>
</mgrwt>
</event>
<event>
 7    0  0.4725730E-002  0.4573058E+03  0.7546771E-02  0.1025566E+00
         21   -1    0    0  502  501  0.00000000000E+00  0.00000000000E+00  0.15475702938E+03  0.15475702938E+03  0.00000000000E+00 0. -1.
         21   -1    0    0  501  502 -0.00000000000E+00 -0.00000000000E+00 -0.33783377720E+03  0.33783377720E+03  0.00000000000E+00 0. -1.
      99926    2    1    2    0    0  0.00000000000E+00  0.00000000000E+00 -0.18307674782E+03  0.49259080658E+03  0.45730581358E+03 0.  0.
      99925    2    3    3    0    0 -0.31331846692E+02 -0.94751862405E+02 -0.53294977547E+02  0.28655581916E+03  0.26327605819E+03 0.  0.
         25    1    3    3    0    0  0.31331846692E+02  0.94751862405E+02 -0.12978177028E+03  0.20603498742E+03  0.12509000000E+03 0.  0.
         25    1    4    4    0    0 -0.18467017995E+02 -0.38701635732E+02  0.14617015526E+02  0.13304139433E+03  0.12509000000E+03 0.  0.
         25    1    4    4    0    0 -0.12864828697E+02 -0.56050226672E+02 -0.67911993072E+02  0.15351442483E+03  0.12509000000E+03 0.  0.
<mgrwt>
<rscale>  2 0.45730581E+03</rscale>
<asrwt>0</asrwt>
<pdfrwt beam="1">  1       21 0.22758387E-01 0.45730581E+03</pdfrwt>
<pdfrwt beam="2">  1       21 0.49681438E-01 0.45730581E+03</pdfrwt>
<totfact> 0.64603673E+04</totfact>
</mgrwt>
</event>
<event>
 7    0  0.4725730E-002  0.4537020E+03  0.7546771E-02  0.1026624E+00
         21   -1    0    0  502  501  0.00000000000E+00  0.00000000000E+00  0.13926378750E+04  0.13926378750E+04  0.00000000000E+00 0.  1.
         21   -1    0    0  501  502 -0.00000000000E+00 -0.00000000000E+00 -0.36952449264E+02  0.36952449264E+02  0.00000000000E+00 0.  1.
      99926    2    1    2    0    0  0.00000000000E+00  0.00000000000E+00  0.13556854257E+04  0.14295903243E+04  0.45370201860E+03 0.  0.
      99925    2    3    3    0    0 -0.10465492226E+03 -0.13544387750E+02  0.96800137739E+03  0.10087785699E+04  0.26357434097E+03 0.  0.
         25    1    3    3    0    0  0.10465492226E+03  0.13544387750E+02  0.38768404835E+03  0.42081175440E+03  0.12509000000E+03 0.  0.
         25    1    4    4    0    0 -0.12807542656E+02 -0.43334564142E+01  0.50211469162E+03  0.51763837148E+03  0.12509000000E+03 0.  0.
         25    1    4    4    0    0 -0.91847379599E+02 -0.92109313356E+01  0.46588668577E+03  0.49114019839E+03  0.12509000000E+03 0.  0.
<mgrwt>
<rscale>  2 0.45370202E+03</rscale>
<asrwt>0</asrwt>
<pdfrwt beam="1">  1       21 0.20479965E+00 0.45370202E+03</pdfrwt>
<pdfrwt beam="2">  1       21 0.54341846E-02 0.45370202E+03</pdfrwt>
<totfact> 0.25813423E+04</totfact>
</mgrwt>
</event>
<event>
 7    0  0.4725730E-002  0.4436565E+03  0.7546771E-02  0.1029631E+00
         21   -1    0    0  502  501  0.00000000000E+00  0.00000000000E+00  0.48040777388E+03  0.48040777388E+03  0.00000000000E+00 0.  1.
         21   -1    0    0  501  502 -0.00000000000E+00 -0.00000000000E+00 -0.10242916272E+03  0.10242916272E+03  0.00000000000E+00 0.  1.
      99926    2    1    2    0    0 -0.19984014443E-14  0.00000000000E+00  0.37797861115E+03  0.58283693660E+03  0.44365647090E+03 0.  0.
      99925    2    3    3    0    0 -0.18582339263E+01 -0.86305833697E+02  0.16895704861E+03  0.32439995845E+03  0.26312867348E+03 0.  0.
         25    1    3    3    0    0  0.18582339263E+01  0.86305833697E+02  0.20902156255E+03  0.25843697815E+03  0.12509000000E+03 0.  0.
         25    1    4    4    0    0  0.17284884427E+02 -0.75990852041E+02  0.68612751387E+02  0.16256873800E+03  0.12509000000E+03 0.  0.
         25    1    4    4    0    0 -0.19143118353E+02 -0.10314981656E+02  0.10034429722E+03  0.16183122045E+03  0.12509000000E+03 0.  0.
<mgrwt>
<rscale>  2 0.44365647E+03</rscale>
<asrwt>0</asrwt>
<pdfrwt beam="1">  1       21 0.70648201E-01 0.44365647E+03</pdfrwt>
<pdfrwt beam="2">  1       21 0.15063112E-01 0.44365647E+03</pdfrwt>
<totfact> 0.65418939E+04</totfact>
</mgrwt>
</event>
<event>
 7    0  0.4725730E-002  0.4598222E+03  0.7546771E-02  0.1024833E+00
         21   -1    0    0  502  501  0.00000000000E+00  0.00000000000E+00  0.15390248849E+03  0.15390248849E+03  0.00000000000E+00 0. -1.
         21   -1    0    0  501  502 -0.00000000000E+00 -0.00000000000E+00 -0.34345853042E+03  0.34345853042E+03  0.00000000000E+00 0. -1.
      99926    2    1    2    0    0 -0.22204460493E-15  0.00000000000E+00 -0.18955604193E+03  0.49736101892E+03  0.45982223751E+03 0.  0.
      99925    2    3    3    0    0 -0.13522674297E+01  0.11358658075E+03 -0.15167569917E+03  0.32419587109E+03  0.26304696379E+03 0.  0.
         25    1    4    4    0    0  0.26983980507E+02  0.30072340319E+02 -0.50999045032E+02  0.14099961543E+03  0.12509000000E+03 0.  0.
         25    1    3    3    0    0  0.13522674297E+01 -0.11358658075E+03 -0.37880342759E+02  0.17316514782E+03  0.12509000000E+03 0.  0.
         25    1    4    4    0    0 -0.28336247937E+02  0.83514240428E+02 -0.10067665414E+03  0.18319625567E+03  0.12509000000E+03 0.  0.
<mgrwt>
<rscale>  2 0.45982224E+03</rscale>
<asrwt>0</asrwt>
<pdfrwt beam="1">  1       21 0.22632719E-01 0.45982224E+03</pdfrwt>
<pdfrwt beam="2">  1       21 0.50508607E-01 0.45982224E+03</pdfrwt>
<totfact> 0.63009584E+04</totfact>
</mgrwt>
</event>
<event>
 7    0  0.4725730E-002  0.4433802E+03  0.7546771E-02  0.1029715E+00
         21   -1    0    0  502  501  0.00000000000E+00  0.00000000000E+00  0.15183540884E+03  0.15183540884E+03  0.00000000000E+00 0. -1.
         21   -1    0    0  501  502 -0.00000000000E+00 -0.00000000000E+00 -0.32368276874E+03  0.32368276874E+03  0.00000000000E+00 0. -1.
      99926    2    1    2    0    0  0.00000000000E+00  0.00000000000E+00 -0.17184735990E+03  0.47551817758E+03  0.44338022295E+03 0.  0.
      99925    2    3    3    0    0 -0.46842448605E+02  0.88367690870E+02 -0.13004246278E+03  0.30999409685E+03  0.26302515882E+03 0.  0.
         25    1    3    3    0    0  0.46842448605E+02 -0.88367690870E+02 -0.41804897119E+02  0.16552408074E+03  0.12509000000E+03 0.  0.
         25    1    4    4    0    0  0.94319868347E+01  0.37059440522E+02 -0.87929681962E+02  0.15761187004E+03  0.12509000000E+03 0.  0.
         25    1    4    4    0    0 -0.56274435440E+02  0.51308250349E+02 -0.42112780820E+02  0.15238222681E+03  0.12509000000E+03 0.  0.
<mgrwt>
<rscale>  2 0.44338022E+03</rscale>
<asrwt>0</asrwt>
<pdfrwt beam="1">  1       21 0.22328737E-01 0.44338022E+03</pdfrwt>
<pdfrwt beam="2">  1       21 0.47600407E-01 0.44338022E+03</pdfrwt>
<totfact> 0.73584283E+04</totfact>
</mgrwt>
</event>
<event>
 7    0  0.4725730E-002  0.4503241E+03  0.7546771E-02  0.1027625E+00
         21   -1    0    0  502  501  0.00000000000E+00  0.00000000000E+00  0.14851949378E+03  0.14851949378E+03  0.00000000000E+00 0. -1.
         21   -1    0    0  501  502 -0.00000000000E+00 -0.00000000000E+00 -0.34135553911E+03  0.34135553911E+03  0.00000000000E+00 0. -1.
      99926    2    1    2    0    0  0.00000000000E+00  0.35527136788E-14 -0.19283604532E+03  0.48987503289E+03  0.45032411380E+03 0.  0.
      99925    2    3    3    0    0  0.42419866633E+02  0.31636724591E+02 -0.18624670909E+02  0.26897361030E+03  0.26305816323E+03 0.  0.
         25    1    4    4    0    0  0.18998374950E+00  0.49838714896E+02 -0.20184042511E+01  0.13466816867E+03  0.12509000000E+03 0.  0.
         25    1    4    4    0    0  0.42229882883E+02 -0.18201990305E+02 -0.16606266658E+02  0.13430544163E+03  0.12509000000E+03 0.  0.
         25    1    3    3    0    0 -0.42419866633E+02 -0.31636724591E+02 -0.17421137441E+03  0.22090142259E+03  0.12509000000E+03 0.  0.
<mgrwt>
<rscale>  2 0.45032411E+03</rscale>
<asrwt>0</asrwt>
<pdfrwt beam="1">  1       21 0.21841102E-01 0.45032411E+03</pdfrwt>
<pdfrwt beam="2">  1       21 0.50199344E-01 0.45032411E+03</pdfrwt>
<totfact> 0.68495465E+04</totfact>
</mgrwt>
</event>
<event>
 7    0  0.4725730E-002  0.4538712E+03  0.7546771E-02  0.1026574E+00
         21   -1    0    0  502  501  0.00000000000E+00  0.00000000000E+00  0.18100467266E+03  0.18100467266E+03  0.00000000000E+00 0. -1.
         21   -1    0    0  501  502 -0.00000000000E+00 -0.00000000000E+00 -0.28452175023E+03  0.28452175023E+03  0.00000000000E+00 0. -1.
      99926    2    1    2    0    0  0.00000000000E+00 -0.14210854715E-13 -0.10351707756E+03  0.46552642289E+03  0.45387119875E+03 0.  0.
      99925    2    3    3    0    0  0.37221439252E+02  0.95224153557E+02 -0.18206162854E+02  0.28282848850E+03  0.26307302139E+03 0.  0.
         25    1    4    4    0    0  0.12627018576E+02  0.55715650399E+01  0.55982094219E+00  0.12585032950E+03  0.12509000000E+03 0.  0.
         25    1    4    4    0    0  0.24594420676E+02  0.89652588517E+02 -0.18765983797E+02  0.15697815900E+03  0.12509000000E+03 0.  0.
         25    1    3    3    0    0 -0.37221439252E+02 -0.95224153557E+02 -0.85310914709E+02  0.18269793439E+03  0.12509000000E+03 0.  0.
<mgrwt>
<rscale>  2 0.45387120E+03</rscale>
<asrwt>0</asrwt>
<pdfrwt beam="1">  1       21 0.26618335E-01 0.45387120E+03</pdfrwt>
<pdfrwt beam="2">  1       21 0.41841433E-01 0.45387120E+03</pdfrwt>
<totfact> 0.68380430E+04</totfact>
</mgrwt>
</event>
<event>
 7    0  0.4725730E-002  0.4755795E+03  0.7546771E-02  0.1020357E+00
         21   -1    0    0  502  501  0.00000000000E+00  0.00000000000E+00  0.34341229708E+03  0.34341229708E+03  0.00000000000E+00 0.  1.
         21   -1    0    0  501  502 -0.00000000000E+00 -0.00000000000E+00 -0.16465327683E+03  0.16465327683E+03  0.00000000000E+00 0.  1.
      99926    2    1    2    0    0 -0.14210854715E-13 -0.14210854715E-13  0.17875902025E+03  0.50806557391E+03  0.47557947818E+03 0.  0.
      99925    2    3    3    0    0  0.54876402080E+02  0.98545058318E+02  0.38321603897E+02  0.28876504031E+03  0.26304781914E+03 0.  0.
         25    1    3    3    0    0 -0.54876402080E+02 -0.98545058318E+02  0.14043741636E+03  0.21930053360E+03  0.12509000000E+03 0.  0.
         25    1    4    4    0    0  0.66425385388E+02  0.42486301016E+02  0.92008500584E+01  0.14815391098E+03  0.12509000000E+03 0.  0.
         25    1    4    4    0    0 -0.11548983308E+02  0.56058757302E+02  0.29120753839E+02  0.14061112932E+03  0.12509000000E+03 0.  0.
<mgrwt>
<rscale>  2 0.47557948E+03</rscale>
<asrwt>0</asrwt>
<pdfrwt beam="1">  1       21 0.50501808E-01 0.47557948E+03</pdfrwt>
<pdfrwt beam="2">  1       21 0.24213717E-01 0.47557948E+03</pdfrwt>
<totfact> 0.55134906E+04</totfact>
</mgrwt>
</event>
<event>
 7    0  0.4725730E-002  0.3967270E+03  0.7546771E-02  0.1044919E+00
         21   -1    0    0  502  501  0.00000000000E+00  0.00000000000E+00  0.11285439577E+03  0.11285439577E+03  0.00000000000E+00 0.  1.
         21   -1    0    0  501  502 -0.00000000000E+00 -0.00000000000E+00 -0.34866235733E+03  0.34866235733E+03  0.00000000000E+00 0.  1.
      99926    2    1    2    0    0  0.71054273576E-14 -0.44408920985E-15 -0.23580796156E+03  0.46151675309E+03  0.39672700771E+03 0.  0.
      99925    2    3    3    0    0  0.35600160995E+02 -0.37239743671E+01 -0.17434495369E+03  0.31761939771E+03  0.26306782297E+03 0.  0.
         25    1    4    4    0    0  0.56345094588E+02 -0.12113426431E+02 -0.79244079526E+02  0.15889819704E+03  0.12509000000E+03 0.  0.
         25    1    3    3    0    0 -0.35600160995E+02  0.37239743671E+01 -0.61463007874E+02  0.14389735538E+03  0.12509000000E+03 0.  0.
         25    1    4    4    0    0 -0.20744933593E+02  0.83894520639E+01 -0.95100874162E+02  0.15872120067E+03  0.12509000000E+03 0.  0.
<mgrwt>
<rscale>  2 0.39672701E+03</rscale>
<asrwt>0</asrwt>
<pdfrwt beam="1">  1       21 0.16596234E-01 0.39672701E+03</pdfrwt>
<pdfrwt beam="2">  1       21 0.51273877E-01 0.39672701E+03</pdfrwt>
<totfact> 0.11129549E+05</totfact>
</mgrwt>
</event>
<event>
 7    0  0.4725730E-002  0.4533664E+03  0.7546771E-02  0.1026723E+00
         21   -1    0    0  502  501  0.00000000000E+00  0.00000000000E+00  0.24528358403E+03  0.24528358403E+03  0.00000000000E+00 0.  1.
         21   -1    0    0  501  502 -0.00000000000E+00 -0.00000000000E+00 -0.20949328152E+03  0.20949328152E+03  0.00000000000E+00 0.  1.
      99926    2    1    2    0    0  0.00000000000E+00 -0.17763568394E-14  0.35790302510E+02  0.45477686555E+03  0.45336635483E+03 0.  0.
      99925    2    3    3    0    0  0.93711453384E+02  0.84682872921E+01 -0.37724131776E+02  0.28184500460E+03  0.26298279053E+03 0.  0.
         25    1    3    3    0    0 -0.93711453384E+02 -0.84682872921E+01  0.73514434286E+02  0.17293186096E+03  0.12509000000E+03 0.  0.
         25    1    4    4    0    0  0.56430780598E+02  0.35037698367E+02 -0.44530374813E+02  0.14846728827E+03  0.12509000000E+03 0.  0.
         25    1    4    4    0    0  0.37280672785E+02 -0.26569411075E+02  0.68062430372E+01  0.13337771633E+03  0.12509000000E+03 0.  0.
<mgrwt>
<rscale>  2 0.45336635E+03</rscale>
<asrwt>0</asrwt>
<pdfrwt beam="1">  1       21 0.36071115E-01 0.45336635E+03</pdfrwt>
<pdfrwt beam="2">  1       21 0.30807835E-01 0.45336635E+03</pdfrwt>
<totfact> 0.69463179E+04</totfact>
</mgrwt>
</event>
<event>
 7    0  0.4725730E-002  0.4538694E+03  0.7546771E-02  0.1026574E+00
         21   -1    0    0  502  501  0.00000000000E+00  0.00000000000E+00  0.12728200844E+03  0.12728200844E+03  0.00000000000E+00 0.  1.
         21   -1    0    0  501  502 -0.00000000000E+00 -0.00000000000E+00 -0.40460828672E+03  0.40460828672E+03  0.00000000000E+00 0.  1.
      99926    2    1    2    0    0  0.00000000000E+00  0.00000000000E+00 -0.27732627828E+03  0.53189029516E+03  0.45386938811E+03 0.  0.
      99925    2    3    3    0    0 -0.10598374398E+03  0.36035107191E+02 -0.17246838529E+03  0.33396665140E+03  0.26316781222E+03 0.  0.
         25    1    4    4    0    0 -0.69319792741E+02  0.42386050663E+02 -0.12656497178E+03  0.19562211311E+03  0.12509000000E+03 0.  0.
         25    1    3    3    0    0  0.10598374398E+03 -0.36035107191E+02 -0.10485789300E+03  0.19792364376E+03  0.12509000000E+03 0.  0.
         25    1    4    4    0    0 -0.36663951235E+02 -0.63509434724E+01 -0.45903413509E+02  0.13834453829E+03  0.12509000000E+03 0.  0.
<mgrwt>
<rscale>  2 0.45386939E+03</rscale>
<asrwt>0</asrwt>
<pdfrwt beam="1">  1       21 0.18717942E-01 0.45386939E+03</pdfrwt>
<pdfrwt beam="2">  1       21 0.59501219E-01 0.45386939E+03</pdfrwt>
<totfact> 0.63647002E+04</totfact>
</mgrwt>
</event>
<event>
 7    0  0.4725730E-002  0.4537178E+03  0.7546771E-02  0.1026619E+00
         21   -1    0    0  502  501  0.00000000000E+00  0.00000000000E+00  0.15631354826E+03  0.15631354826E+03  0.00000000000E+00 0. -1.
         21   -1    0    0  501  502 -0.00000000000E+00 -0.00000000000E+00 -0.32924182699E+03  0.32924182699E+03  0.00000000000E+00 0. -1.
      99926    2    1    2    0    0  0.00000000000E+00  0.00000000000E+00 -0.17292827873E+03  0.48555537524E+03  0.45371778987E+03 0.  0.
      99925    2    3    3    0    0  0.10865434221E+03 -0.23619082543E+02 -0.12310569114E+03  0.31093170710E+03  0.26298267652E+03 0.  0.
         25    1    4    4    0    0  0.64026889486E+02 -0.22989389414E+02 -0.10493465686E+03  0.17688059507E+03  0.12509000000E+03 0.  0.
         25    1    3    3    0    0 -0.10865434221E+03  0.23619082543E+02 -0.49822587588E+02  0.17462366814E+03  0.12509000000E+03 0.  0.
         25    1    4    4    0    0  0.44627452721E+02 -0.62969312961E+00 -0.18171034283E+02  0.13405111203E+03  0.12509000000E+03 0.  0.
<mgrwt>
<rscale>  2 0.45371779E+03</rscale>
<asrwt>0</asrwt>
<pdfrwt beam="1">  1       21 0.22987287E-01 0.45371779E+03</pdfrwt>
<pdfrwt beam="2">  1       21 0.48417914E-01 0.45371779E+03</pdfrwt>
<totfact> 0.66977038E+04</totfact>
</mgrwt>
</event>
<event>
 7    0  0.4725730E-002  0.4639949E+03  0.7546771E-02  0.1023629E+00
         21   -1    0    0  502  501  0.00000000000E+00  0.00000000000E+00  0.23690650078E+03  0.23690650078E+03  0.00000000000E+00 0.  1.
         21   -1    0    0  501  502 -0.00000000000E+00 -0.00000000000E+00 -0.22719010798E+03  0.22719010798E+03  0.00000000000E+00 0.  1.
      99926    2    1    2    0    0  0.00000000000E+00  0.00000000000E+00  0.97163927928E+01  0.46409660876E+03  0.46399488572E+03 0.  0.
      99925    2    3    3    0    0  0.94309599950E+02 -0.71858723322E+02 -0.20844093883E+02  0.28905539017E+03  0.26279377004E+03 0.  0.
         25    1    4    4    0    0  0.42759068893E+02 -0.18894648732E+02 -0.46718626588E+02  0.14147608948E+03  0.12509000000E+03 0.  0.
         25    1    3    3    0    0 -0.94309599950E+02  0.71858723322E+02  0.30560486675E+02  0.17504121859E+03  0.12509000000E+03 0.  0.
         25    1    4    4    0    0  0.51550531057E+02 -0.52964074590E+02  0.25874532706E+02  0.14757930069E+03  0.12509000000E+03 0.  0.
<mgrwt>
<rscale>  2 0.46399489E+03</rscale>
<asrwt>0</asrwt>
<pdfrwt beam="1">  1       21 0.34839191E-01 0.46399489E+03</pdfrwt>
<pdfrwt beam="2">  1       21 0.33410310E-01 0.46399489E+03</pdfrwt>
<totfact> 0.63223617E+04</totfact>
</mgrwt>
</event>
<event>
 7    0  0.4725730E-002  0.4545529E+03  0.7546771E-02  0.1026373E+00
         21   -1    0    0  502  501  0.00000000000E+00  0.00000000000E+00  0.44658260492E+03  0.44658260492E+03  0.00000000000E+00 0.  1.
         21   -1    0    0  501  502 -0.00000000000E+00 -0.00000000000E+00 -0.11566635639E+03  0.11566635639E+03  0.00000000000E+00 0.  1.
      99926    2    1    2    0    0 -0.14210854715E-13 -0.35527136788E-14  0.33091624853E+03  0.56224896131E+03  0.45455289125E+03 0.  0.
      99925    2    3    3    0    0  0.89734142836E+02  0.30165901971E+02  0.13261120716E+03  0.30939604840E+03  0.26301708018E+03 0.  0.
         25    1    4    4    0    0  0.10130853141E+02  0.18319079062E+02  0.87057896998E+02  0.15383370363E+03  0.12509000000E+03 0.  0.
         25    1    4    4    0    0  0.79603289695E+02  0.11846822908E+02  0.45553310162E+02  0.15556234477E+03  0.12509000000E+03 0.  0.
         25    1    3    3    0    0 -0.89734142836E+02 -0.30165901971E+02  0.19830504137E+03  0.25285291291E+03  0.12509000000E+03 0.  0.
<mgrwt>
<rscale>  2 0.45455289E+03</rscale>
<asrwt>0</asrwt>
<pdfrwt beam="1">  1       21 0.65673912E-01 0.45455289E+03</pdfrwt>
<pdfrwt beam="2">  1       21 0.17009758E-01 0.45455289E+03</pdfrwt>
<totfact> 0.61280699E+04</totfact>
</mgrwt>
</event>
<event>
 7    0  0.4725730E-002  0.4543283E+03  0.7546771E-02  0.1026439E+00
         21   -1    0    0  502  501  0.00000000000E+00  0.00000000000E+00  0.97830485056E+02  0.97830485056E+02  0.00000000000E+00 0. -1.
         21   -1    0    0  501  502 -0.00000000000E+00 -0.00000000000E+00 -0.52747929196E+03  0.52747929196E+03  0.00000000000E+00 0. -1.
      99926    2    1    2    0    0 -0.35527136788E-14  0.00000000000E+00 -0.42964880690E+03  0.62530977702E+03  0.45432831736E+03 0.  0.
      99925    2    3    3    0    0 -0.31807048289E+02 -0.10626120489E+03 -0.29658402560E+03  0.41163508008E+03  0.26301753350E+03 0.  0.
         25    1    4    4    0    0  0.88857600746E+01 -0.17351396119E+02 -0.13636562350E+03  0.18607288639E+03  0.12509000000E+03 0.  0.
         25    1    4    4    0    0 -0.40692808363E+02 -0.88909808775E+02 -0.16021840210E+03  0.22556219369E+03  0.12509000000E+03 0.  0.
         25    1    3    3    0    0  0.31807048289E+02  0.10626120489E+03 -0.13306478130E+03  0.21367469693E+03  0.12509000000E+03 0.  0.
<mgrwt>
<rscale>  2 0.45432832E+03</rscale>
<asrwt>0</asrwt>
<pdfrwt beam="1">  1       21 0.14386836E-01 0.45432832E+03</pdfrwt>
<pdfrwt beam="2">  1       21 0.77570483E-01 0.45432832E+03</pdfrwt>
<totfact> 0.57450875E+04</totfact>
</mgrwt>
</event>
<event>
 7    0  0.4725730E-002  0.4333298E+03  0.7546771E-02  0.1032813E+00
         21   -1    0    0  502  501  0.00000000000E+00  0.00000000000E+00  0.13819342050E+04  0.13819342050E+04  0.00000000000E+00 0.  1.
         21   -1    0    0  501  502 -0.00000000000E+00 -0.00000000000E+00 -0.33969544574E+02  0.33969544574E+02  0.00000000000E+00 0.  1.
      99926    2    1    2    0    0  0.00000000000E+00 -0.88817841970E-15  0.13479646604E+04  0.14159037496E+04  0.43332978469E+03 0.  0.
      99925    2    3    3    0    0 -0.14891166898E+01 -0.54470408581E+01  0.11643209974E+04  0.11936327645E+04  0.26283817049E+03 0.  0.
         25    1    3    3    0    0  0.14891166898E+01  0.54470408581E+01  0.18364366307E+03  0.22227098508E+03  0.12509000000E+03 0.  0.
         25    1    4    4    0    0 -0.76012663078E+01 -0.42363332676E+02  0.59697809764E+03  0.61145955579E+03  0.12509000000E+03 0.  0.
         25    1    4    4    0    0  0.61121496180E+01  0.36916291818E+02  0.56734289972E+03  0.58217320871E+03  0.12509000000E+03 0.  0.
<mgrwt>
<rscale>  2 0.43332978E+03</rscale>
<asrwt>0</asrwt>
<pdfrwt beam="1">  1       21 0.20322558E+00 0.43332978E+03</pdfrwt>
<pdfrwt beam="2">  1       21 0.49955222E-02 0.43332978E+03</pdfrwt>
<totfact> 0.30776899E+04</totfact>
</mgrwt>
</event>
<event>
 7    0  0.4725730E-002  0.4564106E+03  0.7546771E-02  0.1025827E+00
         21   -1    0    0  502  501  0.00000000000E+00  0.00000000000E+00  0.13691407607E+03  0.13691407607E+03  0.00000000000E+00 0. -1.
         21   -1    0    0  501  502 -0.00000000000E+00 -0.00000000000E+00 -0.38036740015E+03  0.38036740015E+03  0.00000000000E+00 0. -1.
      99926    2    1    2    0    0  0.71054273576E-14  0.71054273576E-14 -0.24345332408E+03  0.51728147621E+03  0.45641056586E+03 0.  0.
      99925    2    3    3    0    0 -0.60993237506E+02 -0.50372980310E+02 -0.59329142709E+02  0.28104677420E+03  0.26307742197E+03 0.  0.
         25    1    3    3    0    0  0.60993237506E+02  0.50372980310E+02 -0.18412418137E+03  0.23623470201E+03  0.12509000000E+03 0.  0.
         25    1    4    4    0    0 -0.21462092658E+02 -0.57537107031E+02 -0.66914679447E+01  0.13951137570E+03  0.12509000000E+03 0.  0.
         25    1    4    4    0    0 -0.39531144848E+02  0.71641267206E+01 -0.52637674764E+02  0.14153539850E+03  0.12509000000E+03 0.  0.
<mgrwt>
<rscale>  2 0.45641057E+03</rscale>
<asrwt>0</asrwt>
<pdfrwt beam="1">  1       21 0.20134423E-01 0.45641057E+03</pdfrwt>
<pdfrwt beam="2">  1       21 0.55936382E-01 0.45641057E+03</pdfrwt>
<totfact> 0.63360731E+04</totfact>
</mgrwt>
</event>
<event>
 7    0  0.4725730E-002  0.4374767E+03  0.7546771E-02  0.1031524E+00
         21   -1    0    0  502  501  0.00000000000E+00  0.00000000000E+00  0.34050007867E+03  0.34050007867E+03  0.00000000000E+00 0. -1.
         21   -1    0    0  501  502 -0.00000000000E+00 -0.00000000000E+00 -0.14051821689E+03  0.14051821689E+03  0.00000000000E+00 0. -1.
      99926    2    1    2    0    0 -0.71054273576E-14  0.00000000000E+00  0.19998186178E+03  0.48101829557E+03  0.43747669152E+03 0.  0.
      99925    2    3    3    0    0 -0.49683317403E+02 -0.77287875464E+02  0.97935658805E+02  0.29526904694E+03  0.26296495792E+03 0.  0.
         25    1    3    3    0    0  0.49683317403E+02  0.77287875464E+02  0.10204620298E+03  0.18574924862E+03  0.12509000000E+03 0.  0.
         25    1    4    4    0    0  0.36972312700E+01 -0.58858413233E+02  0.27496151847E+02  0.14100187514E+03  0.12509000000E+03 0.  0.
         25    1    4    4    0    0 -0.53380548673E+02 -0.18429462230E+02  0.70439506957E+02  0.15426717180E+03  0.12509000000E+03 0.  0.
<mgrwt>
<rscale>  2 0.43747669E+03</rscale>
<asrwt>0</asrwt>
<pdfrwt beam="1">  1       21 0.50073541E-01 0.43747669E+03</pdfrwt>
<pdfrwt beam="2">  1       21 0.20664444E-01 0.43747669E+03</pdfrwt>
<totfact> 0.76761267E+04</totfact>
</mgrwt>
</event>
<event>
 7    0  0.4725730E-002  0.4509502E+03  0.7546771E-02  0.1027439E+00
         21   -1    0    0  502  501  0.00000000000E+00  0.00000000000E+00  0.35121283844E+03  0.35121283844E+03  0.00000000000E+00 0. -1.
         21   -1    0    0  501  502 -0.00000000000E+00 -0.00000000000E+00 -0.14475274121E+03  0.14475274121E+03  0.00000000000E+00 0. -1.
      99926    2    1    2    0    0  0.00000000000E+00 -0.14210854715E-13  0.20646009722E+03  0.49596557965E+03  0.45095020174E+03 0.  0.
      99925    2    3    3    0    0 -0.32107298446E+02  0.10419497438E+03  0.13927490998E+03  0.31694371287E+03  0.26299875528E+03 0.  0.
         25    1    3    3    0    0  0.32107298446E+02 -0.10419497438E+03  0.67185187244E+02  0.17902186678E+03  0.12509000000E+03 0.  0.
         25    1    4    4    0    0 -0.94477363331E+01  0.79161233291E+02  0.10847402614E+03  0.18376583748E+03  0.12509000000E+03 0.  0.
         25    1    4    4    0    0 -0.22659562113E+02  0.25033741091E+02  0.30800883843E+02  0.13317787539E+03  0.12509000000E+03 0.  0.
<mgrwt>
<rscale>  2 0.45095020E+03</rscale>
<asrwt>0</asrwt>
<pdfrwt beam="1">  1       21 0.51648947E-01 0.45095020E+03</pdfrwt>
<pdfrwt beam="2">  1       21 0.21287168E-01 0.45095020E+03</pdfrwt>
<totfact> 0.67705608E+04</totfact>
</mgrwt>
</event>
<event>
 7    0  0.4725730E-002  0.4564914E+03  0.7546771E-02  0.1025804E+00
         21   -1    0    0  502  501  0.00000000000E+00  0.00000000000E+00  0.91012746552E+03  0.91012746552E+03  0.00000000000E+00 0.  1.
         21   -1    0    0  501  502 -0.00000000000E+00 -0.00000000000E+00 -0.57240441131E+02  0.57240441131E+02  0.00000000000E+00 0.  1.
      99926    2    1    2    0    0  0.71054273576E-14  0.00000000000E+00  0.85288702439E+03  0.96736790665E+03  0.45649139143E+03 0.  0.
      99925    2    3    3    0    0 -0.46952447136E+02 -0.10424952446E+03  0.54886582743E+03  0.61930341271E+03  0.26307893270E+03 0.  0.
         25    1    3    3    0    0  0.46952447136E+02  0.10424952446E+03  0.30402119695E+03  0.34806449394E+03  0.12509000000E+03 0.  0.
         25    1    4    4    0    0 -0.19699449378E+02 -0.45104959477E+02  0.18196549822E+03  0.22623323434E+03  0.12509000000E+03 0.  0.
         25    1    4    4    0    0 -0.27252997759E+02 -0.59144564982E+02  0.36690032921E+03  0.39307017837E+03  0.12509000000E+03 0.  0.
<mgrwt>
<rscale>  2 0.45649139E+03</rscale>
<asrwt>0</asrwt>
<pdfrwt beam="1">  1       21 0.13384227E+00 0.45649139E+03</pdfrwt>
<pdfrwt beam="2">  1       21 0.84177125E-02 0.45649139E+03</pdfrwt>
<totfact> 0.39977268E+04</totfact>
</mgrwt>
</event>
<event>
 7    0  0.4725730E-002  0.4516619E+03  0.7546771E-02  0.1027228E+00
         21   -1    0    0  502  501  0.00000000000E+00  0.00000000000E+00  0.38195402091E+03  0.38195402091E+03  0.00000000000E+00 0. -1.
         21   -1    0    0  501  502 -0.00000000000E+00 -0.00000000000E+00 -0.13352289918E+03  0.13352289918E+03  0.00000000000E+00 0. -1.
      99926    2    1    2    0    0  0.00000000000E+00  0.00000000000E+00  0.24843112174E+03  0.51547692009E+03  0.45166185681E+03 0.  0.
      99925    2    3    3    0    0  0.62730648279E+02  0.87936438931E+02  0.13301714492E+03  0.31389357338E+03  0.26299745824E+03 0.  0.
         25    1    4    4    0    0  0.50405019372E+02  0.23271065159E+02  0.33133235241E+02  0.14081025470E+03  0.12509000000E+03 0.  0.
         25    1    4    4    0    0  0.12325628907E+02  0.64665373772E+02  0.99883909675E+02  0.17308331868E+03  0.12509000000E+03 0.  0.
         25    1    3    3    0    0 -0.62730648279E+02 -0.87936438931E+02  0.11541397682E+03  0.20158334671E+03  0.12509000000E+03 0.  0.
<mgrwt>
<rscale>  2 0.45166186E+03</rscale>
<asrwt>0</asrwt>
<pdfrwt beam="1">  1       21 0.56169709E-01 0.45166186E+03</pdfrwt>
<pdfrwt beam="2">  1       21 0.19635721E-01 0.45166186E+03</pdfrwt>
<totfact> 0.65925372E+04</totfact>
</mgrwt>
</event>
<event>
 7    0  0.4725730E-002  0.4942585E+03  0.7546771E-02  0.1015288E+00
         21   -1    0    0  502  501  0.00000000000E+00  0.00000000000E+00  0.43079694484E+03  0.43079694484E+03  0.00000000000E+00 0.  1.
         21   -1    0    0  501  502 -0.00000000000E+00 -0.00000000000E+00 -0.14176716065E+03  0.14176716065E+03  0.00000000000E+00 0.  1.
      99926    2    1    2    0    0  0.00000000000E+00  0.00000000000E+00  0.28902978419E+03  0.57256410549E+03  0.49425847363E+03 0.  0.
      99925    2    3    3    0    0 -0.20840845809E+02 -0.82355302618E+02  0.31509341954E+03  0.41912500385E+03  0.26299271680E+03 0.  0.
         25    1    4    4    0    0 -0.17215462537E+02 -0.19967995951E+01  0.16556255811E+03  0.20822782741E+03  0.12509000000E+03 0.  0.
         25    1    4    4    0    0 -0.36253832724E+01 -0.80358503023E+02  0.14953086144E+03  0.21089717645E+03  0.12509000000E+03 0.  0.
         25    1    3    3    0    0  0.20840845809E+02  0.82355302618E+02 -0.26063635357E+02  0.15343910164E+03  0.12509000000E+03 0.  0.
<mgrwt>
<rscale>  2 0.49425847E+03</rscale>
<asrwt>0</asrwt>
<pdfrwt beam="1">  1       21 0.63352492E-01 0.49425847E+03</pdfrwt>
<pdfrwt beam="2">  1       21 0.20848112E-01 0.49425847E+03</pdfrwt>
<totfact> 0.44779899E+04</totfact>
</mgrwt>
</event>
<event>
 7    0  0.4725730E-002  0.4600829E+03  0.7546771E-02  0.1024757E+00
         21   -1    0    0  502  501  0.00000000000E+00  0.00000000000E+00  0.71118507242E+02  0.71118507242E+02  0.00000000000E+00 0.  1.
         21   -1    0    0  501  502 -0.00000000000E+00 -0.00000000000E+00 -0.74409693007E+03  0.74409693007E+03  0.00000000000E+00 0.  1.
      99926    2    1    2    0    0  0.00000000000E+00  0.14210854715E-13 -0.67297842283E+03  0.81521543732E+03  0.46008287475E+03 0.  0.
      99925    2    3    3    0    0 -0.52930079988E+02 -0.94565295705E+02 -0.33964371018E+03  0.44305454834E+03  0.26304998465E+03 0.  0.
         25    1    4    4    0    0 -0.65519229995E+02 -0.61295688111E+02 -0.19726153840E+03  0.25021901109E+03  0.12509000000E+03 0.  0.
         25    1    4    4    0    0  0.12589150007E+02 -0.33269607594E+02 -0.14238217178E+03  0.19283553725E+03  0.12509000000E+03 0.  0.
         25    1    3    3    0    0  0.52930079988E+02  0.94565295705E+02 -0.33333471266E+03  0.37216088897E+03  0.12509000000E+03 0.  0.
<mgrwt>
<rscale>  2 0.46008287E+03</rscale>
<asrwt>0</asrwt>
<pdfrwt beam="1">  1       21 0.10458604E-01 0.46008287E+03</pdfrwt>
<pdfrwt beam="2">  1       21 0.10942602E+00 0.46008287E+03</pdfrwt>
<totfact> 0.45207401E+04</totfact>
</mgrwt>
</event>
<event>
 7    0  0.4725730E-002  0.4483761E+03  0.7546771E-02  0.1028207E+00
         21   -1    0    0  502  501  0.00000000000E+00  0.00000000000E+00  0.34082331275E+02  0.34082331275E+02  0.00000000000E+00 0. -1.
         21   -1    0    0  501  502 -0.00000000000E+00 -0.00000000000E+00 -0.14746724061E+04  0.14746724061E+04  0.00000000000E+00 0. -1.
      99926    2    1    2    0    0  0.00000000000E+00  0.00000000000E+00 -0.14405900748E+04  0.15087547374E+04  0.44837606299E+03 0.  0.
      99925    2    3    3    0    0  0.40091264654E+02 -0.72059756355E+02 -0.11382489915E+04  0.11713268832E+04  0.26381050535E+03 0.  0.
         25    1    4    4    0    0  0.13156587774E+02 -0.12415500237E+02 -0.39300063869E+03  0.41282472135E+03  0.12509000000E+03 0.  0.
         25    1    4    4    0    0  0.26934676880E+02 -0.59644256118E+02 -0.74524835280E+03  0.75850216187E+03  0.12509000000E+03 0.  0.
         25    1    3    3    0    0 -0.40091264654E+02  0.72059756355E+02 -0.30234108332E+03  0.33742785414E+03  0.12509000000E+03 0.  0.
<mgrwt>
<rscale>  2 0.44837606E+03</rscale>
<asrwt>0</asrwt>
<pdfrwt beam="1">  1       21 0.50121058E-02 0.44837606E+03</pdfrwt>
<pdfrwt beam="2">  1       21 0.21686366E+00 0.44837606E+03</pdfrwt>
<totfact> 0.24817880E+04</totfact>
</mgrwt>
</event>
<event>
 7    0  0.4725730E-002  0.4567361E+03  0.7546771E-02  0.1025732E+00
         21   -1    0    0  502  501  0.00000000000E+00  0.00000000000E+00  0.11871532184E+04  0.11871532184E+04  0.00000000000E+00 0. -1.
         21   -1    0    0  501  502 -0.00000000000E+00 -0.00000000000E+00 -0.43930278349E+02  0.43930278349E+02  0.00000000000E+00 0. -1.
      99926    2    1    2    0    0  0.00000000000E+00  0.14210854715E-13  0.11432229401E+04  0.12310834968E+04  0.45673612219E+03 0.  0.
      99925    2    3    3    0    0  0.64208366017E+02  0.92970327971E+02  0.66609754831E+03  0.72505746610E+03  0.26316570661E+03 0.  0.
         25    1    3    3    0    0 -0.64208366017E+02 -0.92970327971E+02  0.47712539175E+03  0.50602603066E+03  0.12509000000E+03 0.  0.
         25    1    4    4    0    0  0.50774911444E+02  0.10867844403E+02  0.29010489686E+03  0.32016333481E+03  0.12509000000E+03 0.  0.
         25    1    4    4    0    0  0.13433454573E+02  0.82102483568E+02  0.37599265145E+03  0.40489413129E+03  0.12509000000E+03 0.  0.
<mgrwt>
<rscale>  2 0.45673612E+03</rscale>
<asrwt>0</asrwt>
<pdfrwt beam="1">  1       21 0.17458134E+00 0.45673612E+03</pdfrwt>
<pdfrwt beam="2">  1       21 0.64603358E-02 0.45673612E+03</pdfrwt>
<totfact> 0.30765720E+04</totfact>
</mgrwt>
</event>
<event>
 7    0  0.4725730E-002  0.4487082E+03  0.7546771E-02  0.1028108E+00
         21   -1    0    0  502  501  0.00000000000E+00  0.00000000000E+00  0.72752713949E+03  0.72752713949E+03  0.00000000000E+00 0.  1.
         21   -1    0    0  501  502 -0.00000000000E+00 -0.00000000000E+00 -0.69186102669E+02  0.69186102669E+02  0.00000000000E+00 0.  1.
      99926    2    1    2    0    0  0.00000000000E+00  0.00000000000E+00  0.65834103682E+03  0.79671324216E+03  0.44870822309E+03 0.  0.
      99925    2    3    3    0    0  0.81088585267E+02  0.19070168117E+02  0.29715038469E+03  0.40550329180E+03  0.26305044871E+03 0.  0.
         25    1    3    3    0    0 -0.81088585267E+02 -0.19070168117E+02  0.36119065212E+03  0.39120995035E+03  0.12509000000E+03 0.  0.
         25    1    4    4    0    0  0.55315607938E+02  0.20855446806E+02  0.20771414126E+03  0.24957451537E+03  0.12509000000E+03 0.  0.
         25    1    4    4    0    0  0.25772977329E+02 -0.17852786885E+01  0.89436243432E+02  0.15592877643E+03  0.12509000000E+03 0.  0.
<mgrwt>
<rscale>  2 0.44870822E+03</rscale>
<asrwt>0</asrwt>
<pdfrwt beam="1">  1       21 0.10698928E+00 0.44870822E+03</pdfrwt>
<pdfrwt beam="2">  1       21 0.10174427E-01 0.44870822E+03</pdfrwt>
<totfact> 0.50365488E+04</totfact>
</mgrwt>
</event>
<event>
 7    0  0.4725730E-002  0.4608442E+03  0.7546771E-02  0.1024537E+00
         21   -1    0    0  502  501  0.00000000000E+00  0.00000000000E+00  0.38032909053E+03  0.38032909053E+03  0.00000000000E+00 0. -1.
         21   -1    0    0  501  502 -0.00000000000E+00 -0.00000000000E+00 -0.13960103950E+03  0.13960103950E+03  0.00000000000E+00 0. -1.
      99926    2    1    2    0    0  0.00000000000E+00  0.00000000000E+00  0.24072805102E+03  0.51993013003E+03  0.46084416625E+03 0.  0.
      99925    2    3    3    0    0  0.92833093678E+02 -0.68226312528E+02  0.11918645284E+03  0.31090218647E+03  0.26302461103E+03 0.  0.
         25    1    3    3    0    0 -0.92833093678E+02  0.68226312528E+02  0.12154159818E+03  0.20902794356E+03  0.12509000000E+03 0.  0.
         25    1    4    4    0    0  0.51872055686E+02 -0.50895908218E+02  0.10205026615E+03  0.17703917238E+03  0.12509000000E+03 0.  0.
         25    1    4    4    0    0  0.40961037992E+02 -0.17330404309E+02  0.17136186696E+02  0.13386301409E+03  0.12509000000E+03 0.  0.
<mgrwt>
<rscale>  2 0.46084417E+03</rscale>
<asrwt>0</asrwt>
<pdfrwt beam="1">  1       21 0.55930748E-01 0.46084417E+03</pdfrwt>
<pdfrwt beam="2">  1       21 0.20529565E-01 0.46084417E+03</pdfrwt>
<totfact> 0.61013272E+04</totfact>
</mgrwt>
</event>
<event>
 7    0  0.4725730E-002  0.4567133E+03  0.7546771E-02  0.1025739E+00
         21   -1    0    0  502  501  0.00000000000E+00  0.00000000000E+00  0.14412117763E+03  0.14412117763E+03  0.00000000000E+00 0. -1.
         21   -1    0    0  501  502 -0.00000000000E+00 -0.00000000000E+00 -0.36182579921E+03  0.36182579921E+03  0.00000000000E+00 0. -1.
      99926    2    1    2    0    0  0.00000000000E+00  0.00000000000E+00 -0.21770462158E+03  0.50594697684E+03  0.45671330298E+03 0.  0.
      99925    2    3    3    0    0  0.99584311818E+02  0.21301402424E+02 -0.19465862525E+03  0.34300707702E+03  0.26342188519E+03 0.  0.
         25    1    3    3    0    0 -0.99584311818E+02 -0.21301402424E+02 -0.23045996325E+02  0.16293989982E+03  0.12509000000E+03 0.  0.
         25    1    4    4    0    0  0.61252950414E+02 -0.21051363842E+02 -0.12737674859E+03  0.18991426496E+03  0.12509000000E+03 0.  0.
         25    1    4    4    0    0  0.38331361405E+02  0.42352766266E+02 -0.67281876660E+02  0.15309281206E+03  0.12509000000E+03 0.  0.
<mgrwt>
<rscale>  2 0.45671330E+03</rscale>
<asrwt>0</asrwt>
<pdfrwt beam="1">  1       21 0.21194291E-01 0.45671330E+03</pdfrwt>
<pdfrwt beam="2">  1       21 0.53209676E-01 0.45671330E+03</pdfrwt>
<totfact> 0.63980351E+04</totfact>
</mgrwt>
</event>
<event>
 7    0  0.4725730E-002  0.4506301E+03  0.7546771E-02  0.1027534E+00
         21   -1    0    0  502  501  0.00000000000E+00  0.00000000000E+00  0.16064303330E+03  0.16064303330E+03  0.00000000000E+00 0. -1.
         21   -1    0    0  501  502 -0.00000000000E+00 -0.00000000000E+00 -0.31602288216E+03  0.31602288216E+03  0.00000000000E+00 0. -1.
      99926    2    1    2    0    0  0.00000000000E+00 -0.71054273576E-14 -0.15537984886E+03  0.47666591546E+03  0.45063011165E+03 0.  0.
      99925    2    3    3    0    0 -0.89077181079E+02  0.53033000650E+02 -0.13369659320E+03  0.31276071413E+03  0.26305368639E+03 0.  0.
         25    1    4    4    0    0 -0.33217412226E+02  0.27454376895E+01 -0.98432914869E+02  0.16262681431E+03  0.12509000000E+03 0.  0.
         25    1    3    3    0    0  0.89077181079E+02 -0.53033000650E+02 -0.21683255661E+02  0.16390520133E+03  0.12509000000E+03 0.  0.
         25    1    4    4    0    0 -0.55859768853E+02  0.50287562961E+02 -0.35263678334E+02  0.15013389982E+03  0.12509000000E+03 0.  0.
<mgrwt>
<rscale>  2 0.45063011E+03</rscale>
<asrwt>0</asrwt>
<pdfrwt beam="1">  1       21 0.23623976E-01 0.45063011E+03</pdfrwt>
<pdfrwt beam="2">  1       21 0.46473953E-01 0.45063011E+03</pdfrwt>
<totfact> 0.69316822E+04</totfact>
</mgrwt>
</event>
<event>
 7    0  0.4725730E-002  0.4504501E+03  0.7546771E-02  0.1027588E+00
         21   -1    0    0  502  501  0.00000000000E+00  0.00000000000E+00  0.69605732438E+03  0.69605732438E+03  0.00000000000E+00 0. -1.
         21   -1    0    0  501  502 -0.00000000000E+00 -0.00000000000E+00 -0.72876642728E+02  0.72876642728E+02  0.00000000000E+00 0. -1.
      99926    2    1    2    0    0  0.00000000000E+00  0.00000000000E+00  0.62318068165E+03  0.76893396711E+03  0.45045009023E+03 0.  0.
      99925    2    3    3    0    0 -0.32029335429E+02  0.80501718848E+02  0.28110308473E+03  0.39453979584E+03  0.26293782761E+03 0.  0.
         25    1    4    4    0    0 -0.43968141176E+02  0.20245672659E+02  0.16854867532E+03  0.21540484849E+03  0.12509000000E+03 0.  0.
         25    1    4    4    0    0  0.11938805747E+02  0.60256046189E+02  0.11255440942E+03  0.17913494736E+03  0.12509000000E+03 0.  0.
         25    1    3    3    0    0  0.32029335429E+02 -0.80501718848E+02  0.34207759692E+03  0.37439417127E+03  0.12509000000E+03 0.  0.
<mgrwt>
<rscale>  2 0.45045009E+03</rscale>
<asrwt>0</asrwt>
<pdfrwt beam="1">  1       21 0.10236137E+00 0.45045009E+03</pdfrwt>
<pdfrwt beam="2">  1       21 0.10717154E-01 0.45045009E+03</pdfrwt>
<totfact> 0.51105146E+04</totfact>
</mgrwt>
</event>
<event>
 7    0  0.4725730E-002  0.4201374E+03  0.7546771E-02  0.1037022E+00
         21   -1    0    0  502  501  0.00000000000E+00  0.00000000000E+00  0.14368863068E+02  0.14368863068E+02  0.00000000000E+00 0.  1.
         21   -1    0    0  501  502 -0.00000000000E+00 -0.00000000000E+00 -0.30711447841E+04  0.30711447841E+04  0.00000000000E+00 0.  1.
      99926    2    1    2    0    0  0.00000000000E+00  0.66613381478E-15 -0.30567759210E+04  0.30855136471E+04  0.42013740069E+03 0.  0.
      99925    2    3    3    0    0 -0.50417948053E+02  0.45636369865E+00 -0.15726293037E+04  0.15952516341E+04  0.26291190824E+03 0.  0.
         25    1    4    4    0    0 -0.65944555488E+01  0.90319299671E+01 -0.97406244665E+03  0.98212535895E+03  0.12509000000E+03 0.  0.
         25    1    4    4    0    0 -0.43823492505E+02 -0.85755662685E+01 -0.59856685706E+03  0.61312627517E+03  0.12509000000E+03 0.  0.
         25    1    3    3    0    0  0.50417948053E+02 -0.45636369865E+00 -0.14841466173E+04  0.14902620130E+04  0.12509000000E+03 0.  0.
<mgrwt>
<rscale>  2 0.42013740E+03</rscale>
<asrwt>0</asrwt>
<pdfrwt beam="1">  1       21 0.21130696E-02 0.42013740E+03</pdfrwt>
<pdfrwt beam="2">  1       21 0.45163863E+00 0.42013740E+03</pdfrwt>
<totfact> 0.37066695E+03</totfact>
</mgrwt>
</event>
<event>
 7    0  0.4725730E-002  0.4529723E+03  0.7546771E-02  0.1026839E+00
         21   -1    0    0  502  501  0.00000000000E+00  0.00000000000E+00  0.53557739038E+02  0.53557739038E+02  0.00000000000E+00 0.  1.
         21   -1    0    0  501  502 -0.00000000000E+00 -0.00000000000E+00 -0.95776956329E+03  0.95776956329E+03  0.00000000000E+00 0.  1.
      99926    2    1    2    0    0  0.71054273576E-14  0.00000000000E+00 -0.90421182425E+03  0.10113273023E+04  0.45297228317E+03 0.  0.
      99925    2    3    3    0    0  0.57896334675E+02 -0.68186672769E+02 -0.42198968571E+03  0.50517800922E+03  0.26292226654E+03 0.  0.
         25    1    3    3    0    0 -0.57896334675E+02  0.68186672769E+02 -0.48222213854E+03  0.50614929311E+03  0.12509000000E+03 0.  0.
         25    1    4    4    0    0  0.65003641272E+02 -0.48672106288E+02 -0.19937677650E+03  0.24898404450E+03  0.12509000000E+03 0.  0.
         25    1    4    4    0    0 -0.71073065972E+01 -0.19514566481E+02 -0.22261290920E+03  0.25619396471E+03  0.12509000000E+03 0.  0.
<mgrwt>
<rscale>  2 0.45297228E+03</rscale>
<asrwt>0</asrwt>
<pdfrwt beam="1">  1       21 0.78761381E-02 0.45297228E+03</pdfrwt>
<pdfrwt beam="2">  1       21 0.14084847E+00 0.45297228E+03</pdfrwt>
<totfact> 0.39348416E+04</totfact>
</mgrwt>
</event>
<event>
 7    0  0.4725730E-002  0.4494401E+03  0.7546771E-02  0.1027889E+00
         21   -1    0    0  502  501  0.00000000000E+00  0.00000000000E+00  0.24306638204E+03  0.24306638204E+03  0.00000000000E+00 0.  1.
         21   -1    0    0  501  502 -0.00000000000E+00 -0.00000000000E+00 -0.20775847998E+03  0.20775847998E+03  0.00000000000E+00 0.  1.
      99926    2    1    2    0    0  0.00000000000E+00 -0.88817841970E-15  0.35307902061E+02  0.45082486203E+03  0.44944010533E+03 0.  0.
      99925    2    3    3    0    0  0.10079300124E+03 -0.60237582148E+01  0.59751166991E+02  0.28821952367E+03  0.26325800482E+03 0.  0.
         25    1    4    4    0    0  0.63973217429E+02 -0.28270296969E+02  0.61435852723E+02  0.15592836284E+03  0.12509000000E+03 0.  0.
         25    1    3    3    0    0 -0.10079300124E+03  0.60237582148E+01 -0.24443264930E+02  0.16260533836E+03  0.12509000000E+03 0.  0.
         25    1    4    4    0    0  0.36819783816E+02  0.22246538754E+02 -0.16846857323E+01  0.13229116083E+03  0.12509000000E+03 0.  0.
<mgrwt>
<rscale>  2 0.44944011E+03</rscale>
<asrwt>0</asrwt>
<pdfrwt beam="1">  1       21 0.35745056E-01 0.44944011E+03</pdfrwt>
<pdfrwt beam="2">  1       21 0.30552718E-01 0.44944011E+03</pdfrwt>
<totfact> 0.71993870E+04</totfact>
</mgrwt>
</event>
<event>
 7    0  0.4725730E-002  0.4532040E+03  0.7546771E-02  0.1026771E+00
         21   -1    0    0  502  501  0.00000000000E+00  0.00000000000E+00  0.25997941733E+03  0.25997941733E+03  0.00000000000E+00 0.  1.
         21   -1    0    0  501  502 -0.00000000000E+00 -0.00000000000E+00 -0.19750970639E+03  0.19750970639E+03  0.00000000000E+00 0.  1.
      99926    2    1    2    0    0 -0.35527136788E-14  0.00000000000E+00  0.62469710942E+02  0.45748912372E+03  0.45320396461E+03 0.  0.
      99925    2    3    3    0    0 -0.40202807996E+01  0.97606108968E+02 -0.14743973088E+02  0.28098819946E+03  0.26304727394E+03 0.  0.
         25    1    4    4    0    0  0.19065656417E+02  0.60675883771E+02  0.25342556536E+02  0.14260019424E+03  0.12509000000E+03 0.  0.
         25    1    3    3    0    0  0.40202807996E+01 -0.97606108968E+02  0.77213684030E+02  0.17650092427E+03  0.12509000000E+03 0.  0.
         25    1    4    4    0    0 -0.23085937217E+02  0.36930225197E+02 -0.40086529624E+02  0.13838800522E+03  0.12509000000E+03 0.  0.
<mgrwt>
<rscale>  2 0.45320396E+03</rscale>
<asrwt>0</asrwt>
<pdfrwt beam="1">  1       21 0.38232267E-01 0.45320396E+03</pdfrwt>
<pdfrwt beam="2">  1       21 0.29045545E-01 0.45320396E+03</pdfrwt>
<totfact> 0.69351962E+04</totfact>
</mgrwt>
</event>
<event>
 7    0  0.4725730E-002  0.4566562E+03  0.7546771E-02  0.1025756E+00
         21   -1    0    0  502  501  0.00000000000E+00  0.00000000000E+00  0.35965571759E+03  0.35965571759E+03  0.00000000000E+00 0. -1.
         21   -1    0    0  501  502 -0.00000000000E+00 -0.00000000000E+00 -0.14495449871E+03  0.14495449871E+03  0.00000000000E+00 0. -1.
      99926    2    1    2    0    0 -0.14210854715E-13  0.44408920985E-15  0.21470121888E+03  0.50461021630E+03  0.45665616935E+03 0.  0.
      99925    2    3    3    0    0 -0.10748218111E+03 -0.27904183484E+01  0.17901337251E+03  0.33584607268E+03  0.26303344142E+03 0.  0.
         25    1    3    3    0    0  0.10748218111E+03  0.27904183484E+01  0.35687846364E+02  0.16876414361E+03  0.12509000000E+03 0.  0.
         25    1    4    4    0    0 -0.52186542325E+02  0.45869959463E+01  0.41656139421E+02  0.14187042603E+03  0.12509000000E+03 0.  0.
         25    1    4    4    0    0 -0.55295638786E+02 -0.73774142947E+01  0.13735723309E+03  0.19397564665E+03  0.12509000000E+03 0.  0.
<mgrwt>
<rscale>  2 0.45665617E+03</rscale>
<asrwt>0</asrwt>
<pdfrwt beam="1">  1       21 0.52890547E-01 0.45665617E+03</pdfrwt>
<pdfrwt beam="2">  1       21 0.21316838E-01 0.45665617E+03</pdfrwt>
<totfact> 0.64101160E+04</totfact>
</mgrwt>
</event>
<event>
 7    0  0.4725730E-002  0.4544289E+03  0.7546771E-02  0.1026409E+00
         21   -1    0    0  502  501  0.00000000000E+00  0.00000000000E+00  0.43115165920E+02  0.43115165920E+02  0.00000000000E+00 0. -1.
         21   -1    0    0  501  502 -0.00000000000E+00 -0.00000000000E+00 -0.11974072744E+04  0.11974072744E+04  0.00000000000E+00 0. -1.
      99926    2    1    2    0    0  0.00000000000E+00 -0.35527136788E-14 -0.11542921085E+04  0.12405224403E+04  0.45442893090E+03 0.  0.
      99925    2    3    3    0    0  0.88356668536E+02 -0.12847905845E+02 -0.91432786567E+03  0.95556224049E+03  0.26292922993E+03 0.  0.
         25    1    4    4    0    0  0.26266554210E+02  0.30551160285E+02 -0.42747703653E+03  0.44722190256E+03  0.12509000000E+03 0.  0.
         25    1    4    4    0    0  0.62090114326E+02 -0.43399066130E+02 -0.48685082914E+03  0.50834033793E+03  0.12509000000E+03 0.  0.
         25    1    3    3    0    0 -0.88356668536E+02  0.12847905845E+02 -0.23996424282E+03  0.28496019983E+03  0.12509000000E+03 0.  0.
<mgrwt>
<rscale>  2 0.45442893E+03</rscale>
<asrwt>0</asrwt>
<pdfrwt beam="1">  1       21 0.63404650E-02 0.45442893E+03</pdfrwt>
<pdfrwt beam="2">  1       21 0.17608932E+00 0.45442893E+03</pdfrwt>
<totfact> 0.31029866E+04</totfact>
</mgrwt>
</event>
<event>
 7    0  0.4725730E-002  0.4523274E+03  0.7546771E-02  0.1027030E+00
         21   -1    0    0  502  501  0.00000000000E+00  0.00000000000E+00  0.27832846012E+03  0.27832846012E+03  0.00000000000E+00 0.  1.
         21   -1    0    0  501  502 -0.00000000000E+00 -0.00000000000E+00 -0.18377574139E+03  0.18377574139E+03  0.00000000000E+00 0.  1.
      99926    2    1    2    0    0  0.00000000000E+00  0.00000000000E+00  0.94552718728E+02  0.46210420150E+03  0.45232739960E+03 0.  0.
      99925    2    3    3    0    0  0.72744119172E+02 -0.64569584078E+02  0.11351629904E+03  0.30251703554E+03  0.26300127106E+03 0.  0.
         25    1    4    4    0    0  0.50301804105E+02 -0.14247123994E+01  0.30963595727E+02  0.13834216155E+03  0.12509000000E+03 0.  0.
         25    1    3    3    0    0 -0.72744119172E+02  0.64569584078E+02 -0.18963580316E+02  0.15958716596E+03  0.12509000000E+03 0.  0.
         25    1    4    4    0    0  0.22442315067E+02 -0.63144871679E+02  0.82552703317E+02  0.16417487399E+03  0.12509000000E+03 0.  0.
<mgrwt>
<rscale>  2 0.45232740E+03</rscale>
<asrwt>0</asrwt>
<pdfrwt beam="1">  1       21 0.40930656E-01 0.45232740E+03</pdfrwt>
<pdfrwt beam="2">  1       21 0.27025845E-01 0.45232740E+03</pdfrwt>
<totfact> 0.69489706E+04</totfact>
</mgrwt>
</event>
<event>
 7    0  0.4725730E-002  0.4542032E+03  0.7546771E-02  0.1026476E+00
         21   -1    0    0  502  501  0.00000000000E+00  0.00000000000E+00  0.52604211547E+02  0.52604211547E+02  0.00000000000E+00 0. -1.
         21   -1    0    0  501  502 -0.00000000000E+00 -0.00000000000E+00 -0.98043752867E+03  0.98043752867E+03  0.00000000000E+00 0. -1.
      99926    2    1    2    0    0  0.00000000000E+00  0.00000000000E+00 -0.92783331713E+03  0.10330417402E+04  0.45420322838E+03 0.  0.
      99925    2    3    3    0    0  0.90512239401E+02 -0.31425951614E+02 -0.45084592570E+03  0.53070267585E+03  0.26306505947E+03 0.  0.
         25    1    3    3    0    0 -0.90512239401E+02  0.31425951614E+02 -0.47698739143E+03  0.50233906437E+03  0.12509000000E+03 0.  0.
         25    1    4    4    0    0  0.27472630802E+02 -0.51724036083E+02 -0.21022023525E+03  0.25153563715E+03  0.12509000000E+03 0.  0.
         25    1    4    4    0    0  0.63039608599E+02  0.20298084470E+02 -0.24062569046E+03  0.27916703869E+03  0.12509000000E+03 0.  0.
<mgrwt>
<rscale>  2 0.45420323E+03</rscale>
<asrwt>0</asrwt>
<pdfrwt beam="1">  1       21 0.77359141E-02 0.45420323E+03</pdfrwt>
<pdfrwt beam="2">  1       21 0.14418198E+00 0.45420323E+03</pdfrwt>
<totfact> 0.38142567E+04</totfact>
</mgrwt>
</event>
<event>
 7    0  0.4725730E-002  0.4312837E+03  0.7546771E-02  0.1033455E+00
         21   -1    0    0  502  501  0.00000000000E+00  0.00000000000E+00  0.13288207298E+04  0.13288207298E+04  0.00000000000E+00 0. -1.
         21   -1    0    0  501  502 -0.00000000000E+00 -0.00000000000E+00 -0.34994487449E+02  0.34994487449E+02  0.00000000000E+00 0. -1.
      99926    2    1    2    0    0  0.35527136788E-14  0.00000000000E+00  0.12938262424E+04  0.13638152173E+04  0.43128366699E+03 0.  0.
      99925    2    3    3    0    0  0.26239312391E+02  0.10049361262E+02  0.56627799827E+03  0.62505717381E+03  0.26312774091E+03 0.  0.
         25    1    4    4    0    0  0.41360481638E+02 -0.64285724943E+01  0.22401440400E+03  0.25996533862E+03  0.12509000000E+03 0.  0.
         25    1    3    3    0    0 -0.26239312391E+02 -0.10049361262E+02  0.72754824413E+03  0.73875804348E+03  0.12509000000E+03 0.  0.
         25    1    4    4    0    0 -0.15121169248E+02  0.16477933756E+02  0.34226359427E+03  0.36509183519E+03  0.12509000000E+03 0.  0.
<mgrwt>
<rscale>  2 0.43128367E+03</rscale>
<asrwt>0</asrwt>
<pdfrwt beam="1">  1       21 0.19541478E+00 0.43128367E+03</pdfrwt>
<pdfrwt beam="2">  1       21 0.51462490E-02 0.43128367E+03</pdfrwt>
<totfact> 0.32987197E+04</totfact>
</mgrwt>
</event>
<event>
 7    0  0.4725730E-002  0.4596826E+03  0.7546771E-02  0.1024873E+00
         21   -1    0    0  502  501  0.00000000000E+00  0.00000000000E+00  0.69767496087E+02  0.69767496087E+02  0.00000000000E+00 0. -1.
         21   -1    0    0  501  502 -0.00000000000E+00 -0.00000000000E+00 -0.75718666892E+03  0.75718666892E+03  0.00000000000E+00 0. -1.
      99926    2    1    2    0    0  0.00000000000E+00  0.00000000000E+00 -0.68741917283E+03  0.82695416501E+03  0.45968257727E+03 0.  0.
      99925    2    3    3    0    0 -0.80661048496E+02  0.56328916465E+02 -0.54634172660E+03  0.61428186895E+03  0.26300908867E+03 0.  0.
         25    1    4    4    0    0 -0.30742403472E+02  0.67708362962E+02 -0.27420003994E+03  0.31042340084E+03  0.12509000000E+03 0.  0.
         25    1    4    4    0    0 -0.49918645024E+02 -0.11379446497E+02 -0.27214168666E+03  0.30385846811E+03  0.12509000000E+03 0.  0.
         25    1    3    3    0    0  0.80661048496E+02 -0.56328916465E+02 -0.14107744624E+03  0.21267229606E+03  0.12509000000E+03 0.  0.
<mgrwt>
<rscale>  2 0.45968258E+03</rscale>
<asrwt>0</asrwt>
<pdfrwt beam="1">  1       21 0.10259926E-01 0.45968258E+03</pdfrwt>
<pdfrwt beam="2">  1       21 0.11135098E+00 0.45968258E+03</pdfrwt>
<totfact> 0.44819028E+04</totfact>
</mgrwt>
</event>
<event>
 7    0  0.4725730E-002  0.4256017E+03  0.7546771E-02  0.1035258E+00
         21   -1    0    0  502  501  0.00000000000E+00  0.00000000000E+00  0.23011447389E+03  0.23011447389E+03  0.00000000000E+00 0.  1.
         21   -1    0    0  501  502 -0.00000000000E+00 -0.00000000000E+00 -0.19678991610E+03  0.19678991610E+03  0.00000000000E+00 0.  1.
      99926    2    1    2    0    0  0.71054273576E-14  0.71054273576E-14  0.33324557787E+02  0.42690438999E+03  0.42560172937E+03 0.  0.
      99925    2    3    3    0    0 -0.53716661685E+02 -0.62186410606E+02  0.30973897830E+02  0.27721917659E+03  0.26294193298E+03 0.  0.
         25    1    3    3    0    0  0.53716661685E+02  0.62186410606E+02  0.23506599571E+01  0.14968521339E+03  0.12509000000E+03 0.  0.
         25    1    4    4    0    0  0.11397338613E+02 -0.17796974810E+02  0.24683585144E+02  0.12924170811E+03  0.12509000000E+03 0.  0.
         25    1    4    4    0    0 -0.65114000298E+02 -0.44389435796E+02  0.62903126854E+01  0.14797746848E+03  0.12509000000E+03 0.  0.
<mgrwt>
<rscale>  2 0.42560173E+03</rscale>
<asrwt>0</asrwt>
<pdfrwt beam="1">  1       21 0.33840364E-01 0.42560173E+03</pdfrwt>
<pdfrwt beam="2">  1       21 0.28939693E-01 0.42560173E+03</pdfrwt>
<totfact> 0.89980055E+04</totfact>
</mgrwt>
</event>
<event>
 7    0  0.4725730E-002  0.4369133E+03  0.7546771E-02  0.1031698E+00
         21   -1    0    0  502  501  0.00000000000E+00  0.00000000000E+00  0.54153338950E+03  0.54153338950E+03  0.00000000000E+00 0. -1.
         21   -1    0    0  501  502 -0.00000000000E+00 -0.00000000000E+00 -0.88126254107E+02  0.88126254107E+02  0.00000000000E+00 0. -1.
      99926    2    1    2    0    0 -0.14210854715E-13  0.44408920985E-15  0.45340713539E+03  0.62965964361E+03  0.43691330532E+03 0.  0.
      99925    2    3    3    0    0  0.66705644610E+02 -0.13173221347E+01  0.38768827014E+03  0.47339750581E+03  0.26334696759E+03 0.  0.
         25    1    3    3    0    0 -0.66705644610E+02  0.13173221347E+01  0.65718865250E+02  0.15626213780E+03  0.12509000000E+03 0.  0.
         25    1    4    4    0    0 -0.40120736834E+00  0.22236562602E+02  0.19905717124E+03  0.23614802816E+03  0.12509000000E+03 0.  0.
         25    1    4    4    0    0  0.67106851978E+02 -0.23553884737E+02  0.18863109891E+03  0.23724947765E+03  0.12509000000E+03 0.  0.
<mgrwt>
<rscale>  2 0.43691331E+03</rscale>
<asrwt>0</asrwt>
<pdfrwt beam="1">  1       21 0.79637262E-01 0.43691331E+03</pdfrwt>
<pdfrwt beam="2">  1       21 0.12959743E-01 0.43691331E+03</pdfrwt>
<totfact> 0.65789822E+04</totfact>
</mgrwt>
</event>
<event>
 7    0  0.4725730E-002  0.4457156E+03  0.7546771E-02  0.1029007E+00
         21   -1    0    0  502  501  0.00000000000E+00  0.00000000000E+00  0.42952182201E+03  0.42952182201E+03  0.00000000000E+00 0. -1.
         21   -1    0    0  501  502 -0.00000000000E+00 -0.00000000000E+00 -0.11562998072E+03  0.11562998072E+03  0.00000000000E+00 0. -1.
      99926    2    1    2    0    0  0.00000000000E+00 -0.88817841970E-15  0.31389184129E+03  0.54515180272E+03  0.44571560437E+03 0.  0.
      99925    2    3    3    0    0 -0.23848128989E+02  0.77349464535E+01  0.32281125318E+03  0.41726268411E+03  0.26319665597E+03 0.  0.
         25    1    3    3    0    0  0.23848128989E+02 -0.77349464535E+01 -0.89194118847E+01  0.12788911862E+03  0.12509000000E+03 0.  0.
         25    1    4    4    0    0  0.13182710443E+02  0.12936988892E+02  0.20791486307E+03  0.24334594289E+03  0.12509000000E+03 0.  0.
         25    1    4    4    0    0 -0.37030839432E+02 -0.52020424386E+01  0.11489639011E+03  0.17391674121E+03  0.12509000000E+03 0.  0.
<mgrwt>
<rscale>  2 0.44571560E+03</rscale>
<asrwt>0</asrwt>
<pdfrwt beam="1">  1       21 0.63164973E-01 0.44571560E+03</pdfrwt>
<pdfrwt beam="2">  1       21 0.17004409E-01 0.44571560E+03</pdfrwt>
<totfact> 0.66974364E+04</totfact>
</mgrwt>
</event>
<event>
 7    0  0.4725730E-002  0.4571697E+03  0.7546771E-02  0.1025605E+00
         21   -1    0    0  502  501  0.00000000000E+00  0.00000000000E+00  0.95317168309E+03  0.95317168309E+03  0.00000000000E+00 0. -1.
         21   -1    0    0  501  502 -0.00000000000E+00 -0.00000000000E+00 -0.54818074699E+02  0.54818074699E+02  0.00000000000E+00 0. -1.
      99926    2    1    2    0    0  0.35527136788E-14  0.00000000000E+00  0.89835360839E+03  0.10079897578E+04  0.45716971258E+03 0.  0.
      99925    2    3    3    0    0 -0.28653459156E+02  0.66952739735E+02  0.36973816426E+03  0.45991541433E+03  0.26365164166E+03 0.  0.
         25    1    4    4    0    0  0.26321783742E+02  0.28722544430E+02  0.19304537382E+03  0.23330633363E+03  0.12509000000E+03 0.  0.
         25    1    4    4    0    0 -0.54975242898E+02  0.38230195306E+02  0.17669279044E+03  0.22660908071E+03  0.12509000000E+03 0.  0.
         25    1    3    3    0    0  0.28653459156E+02 -0.66952739735E+02  0.52861544413E+03  0.54807434345E+03  0.12509000000E+03 0.  0.
<mgrwt>
<rscale>  2 0.45716971E+03</rscale>
<asrwt>0</asrwt>
<pdfrwt beam="1">  1       21 0.14017230E+00 0.45716971E+03</pdfrwt>
<pdfrwt beam="2">  1       21 0.80614822E-02 0.45716971E+03</pdfrwt>
<totfact> 0.38206004E+04</totfact>
</mgrwt>
</event>
<event>
 7    0  0.4725730E-002  0.4436353E+03  0.7546771E-02  0.1029637E+00
         21   -1    0    0  502  501  0.00000000000E+00  0.00000000000E+00  0.19727274701E+04  0.19727274701E+04  0.00000000000E+00 0. -1.
         21   -1    0    0  501  502 -0.00000000000E+00 -0.00000000000E+00 -0.24941644948E+02  0.24941644948E+02  0.00000000000E+00 0. -1.
      99926    2    1    2    0    0  0.35527136788E-14  0.00000000000E+00  0.19477858252E+04  0.19976691151E+04  0.44363529228E+03 0.  0.
      99925    2    3    3    0    0  0.17762433328E+02  0.34249903795E+02  0.16646979056E+04  0.16857799709E+04  0.26295709425E+03 0.  0.
         25    1    3    3    0    0 -0.17762433328E+02 -0.34249903795E+02  0.28308791961E+03  0.31188914421E+03  0.12509000000E+03 0.  0.
         25    1    4    4    0    0 -0.99165186809E+00 -0.58859791551E+01  0.10127415161E+04  0.10204550528E+04  0.12509000000E+03 0.  0.
         25    1    4    4    0    0  0.18754085196E+02  0.40135882950E+02  0.65195638947E+03  0.66532491813E+03  0.12509000000E+03 0.  0.
<mgrwt>
<rscale>  2 0.44363529E+03</rscale>
<asrwt>0</asrwt>
<pdfrwt beam="1">  1       21 0.29010687E+00 0.44363529E+03</pdfrwt>
<pdfrwt beam="2">  1       21 0.36678903E-02 0.44363529E+03</pdfrwt>
<totfact> 0.15030653E+04</totfact>
</mgrwt>
</event>
<event>
 7    0  0.4725730E-002  0.4519040E+03  0.7546771E-02  0.1027156E+00
         21   -1    0    0  502  501  0.00000000000E+00  0.00000000000E+00  0.45440161285E+02  0.45440161285E+02  0.00000000000E+00 0.  1.
         21   -1    0    0  501  502 -0.00000000000E+00 -0.00000000000E+00 -0.11235500564E+04  0.11235500564E+04  0.00000000000E+00 0.  1.
      99926    2    1    2    0    0  0.00000000000E+00  0.00000000000E+00 -0.10781098952E+04  0.11689902177E+04  0.45190395341E+03 0.  0.
      99925    2    3    3    0    0 -0.16994574821E+02 -0.78774509647E+02 -0.48570915978E+03  0.55818715755E+03  0.26299292009E+03 0.  0.
         25    1    4    4    0    0 -0.96684428289E+01 -0.45376023712E+02 -0.16459114670E+03  0.21187311294E+03  0.12509000000E+03 0.  0.
         25    1    3    3    0    0  0.16994574821E+02  0.78774509647E+02 -0.59240073538E+03  0.61080306018E+03  0.12509000000E+03 0.  0.
         25    1    4    4    0    0 -0.73261319920E+01 -0.33398485935E+02 -0.32111801308E+03  0.34631404461E+03  0.12509000000E+03 0.  0.
<mgrwt>
<rscale>  2 0.45190395E+03</rscale>
<asrwt>0</asrwt>
<pdfrwt beam="1">  1       21 0.66823782E-02 0.45190395E+03</pdfrwt>
<pdfrwt beam="2">  1       21 0.16522791E+00 0.45190395E+03</pdfrwt>
<totfact> 0.33966701E+04</totfact>
</mgrwt>
</event>
<event>
 7    0  0.4725730E-002  0.4545019E+03  0.7546771E-02  0.1026388E+00
         21   -1    0    0  502  501  0.00000000000E+00  0.00000000000E+00  0.71137647223E+02  0.71137647223E+02  0.00000000000E+00 0. -1.
         21   -1    0    0  501  502 -0.00000000000E+00 -0.00000000000E+00 -0.72595870902E+03  0.72595870902E+03  0.00000000000E+00 0. -1.
      99926    2    1    2    0    0  0.00000000000E+00  0.00000000000E+00 -0.65482106179E+03  0.79709635624E+03  0.45450190116E+03 0.  0.
      99925    2    3    3    0    0  0.11066572740E+03  0.19985082385E+02 -0.39829797216E+03  0.49034252928E+03  0.26296048116E+03 0.  0.
         25    1    4    4    0    0  0.23950880005E+02 -0.15585508107E+02 -0.15583510576E+03  0.20186292627E+03  0.12509000000E+03 0.  0.
         25    1    4    4    0    0  0.86714847400E+02  0.35570590492E+02 -0.24246286641E+03  0.28847960301E+03  0.12509000000E+03 0.  0.
         25    1    3    3    0    0 -0.11066572740E+03 -0.19985082385E+02 -0.25652308963E+03  0.30675382696E+03  0.12509000000E+03 0.  0.
<mgrwt>
<rscale>  2 0.45450190E+03</rscale>
<asrwt>0</asrwt>
<pdfrwt beam="1">  1       21 0.10461420E-01 0.45450190E+03</pdfrwt>
<pdfrwt beam="2">  1       21 0.10675862E+00 0.45450190E+03</pdfrwt>
<totfact> 0.48093305E+04</totfact>
</mgrwt>
</event>
<event>
 7    0  0.4725730E-002  0.4544940E+03  0.7546771E-02  0.1026390E+00
         21   -1    0    0  502  501  0.00000000000E+00  0.00000000000E+00  0.18092764056E+03  0.18092764056E+03  0.00000000000E+00 0. -1.
         21   -1    0    0  501  502 -0.00000000000E+00 -0.00000000000E+00 -0.28542460131E+03  0.28542460131E+03  0.00000000000E+00 0. -1.
      99926    2    1    2    0    0  0.00000000000E+00  0.00000000000E+00 -0.10449696075E+03  0.46635224187E+03  0.45449400292E+03 0.  0.
      99925    2    3    3    0    0 -0.62548080420E+02  0.89779999585E+02 -0.37486178665E+02  0.28715775617E+03  0.26283388793E+03 0.  0.
         25    1    3    3    0    0  0.62548080420E+02 -0.89779999585E+02 -0.67010782084E+02  0.17919448570E+03  0.12509000000E+03 0.  0.
         25    1    4    4    0    0 -0.29235548957E+02  0.69473257497E+02  0.13253898558E+02  0.14664387051E+03  0.12509000000E+03 0.  0.
         25    1    4    4    0    0 -0.33312531463E+02  0.20306742088E+02 -0.50740077223E+02  0.14051388566E+03  0.12509000000E+03 0.  0.
<mgrwt>
<rscale>  2 0.45449400E+03</rscale>
<asrwt>0</asrwt>
<pdfrwt beam="1">  1       21 0.26607006E-01 0.45449400E+03</pdfrwt>
<pdfrwt beam="2">  1       21 0.41974206E-01 0.45449400E+03</pdfrwt>
<totfact> 0.67980707E+04</totfact>
</mgrwt>
</event>
<event>
 7    0  0.4725730E-002  0.4505076E+03  0.7546771E-02  0.1027571E+00
         21   -1    0    0  502  501  0.00000000000E+00  0.00000000000E+00  0.36527211342E+03  0.36527211342E+03  0.00000000000E+00 0.  1.
         21   -1    0    0  501  502 -0.00000000000E+00 -0.00000000000E+00 -0.13890812433E+03  0.13890812433E+03  0.00000000000E+00 0.  1.
      99926    2    1    2    0    0  0.00000000000E+00  0.17763568394E-14  0.22636398910E+03  0.50418023775E+03  0.45050755441E+03 0.  0.
      99925    2    3    3    0    0 -0.88743439441E+02  0.10410611812E+02  0.73337843755E+02  0.28727406416E+03  0.26299081682E+03 0.  0.
         25    1    3    3    0    0  0.88743439441E+02 -0.10410611812E+02  0.15302614534E+03  0.21690617359E+03  0.12509000000E+03 0.  0.
         25    1    4    4    0    0 -0.43897475660E+02  0.45452930062E+02  0.31827027004E+02  0.14371299513E+03  0.12509000000E+03 0.  0.
         25    1    4    4    0    0 -0.44845963781E+02 -0.35042318250E+02  0.41510816751E+02  0.14356106904E+03  0.12509000000E+03 0.  0.
<mgrwt>
<rscale>  2 0.45050755E+03</rscale>
<asrwt>0</asrwt>
<pdfrwt beam="1">  1       21 0.53716487E-01 0.45050755E+03</pdfrwt>
<pdfrwt beam="2">  1       21 0.20427665E-01 0.45050755E+03</pdfrwt>
<totfact> 0.67347493E+04</totfact>
</mgrwt>
</event>
<event>
 7    0  0.4725730E-002  0.4622602E+03  0.7546771E-02  0.1024128E+00
         21   -1    0    0  502  501  0.00000000000E+00  0.00000000000E+00  0.56987362844E+02  0.56987362844E+02  0.00000000000E+00 0.  1.
         21   -1    0    0  501  502 -0.00000000000E+00 -0.00000000000E+00 -0.93742071378E+03  0.93742071378E+03  0.00000000000E+00 0.  1.
      99926    2    1    2    0    0  0.00000000000E+00  0.00000000000E+00 -0.88043335093E+03  0.99440807662E+03  0.46226024858E+03 0.  0.
      99925    2    3    3    0    0  0.59216669005E+02 -0.88851788996E+02 -0.66743708606E+03  0.72530554738E+03  0.26304870065E+03 0.  0.
         25    1    4    4    0    0  0.60414492227E+02 -0.74943416979E+02 -0.38432590095E+03  0.41547603163E+03  0.12509000000E+03 0.  0.
         25    1    4    4    0    0 -0.11978232222E+01 -0.13908372016E+02 -0.28311118512E+03  0.30982951575E+03  0.12509000000E+03 0.  0.
         25    1    3    3    0    0 -0.59216669005E+02  0.88851788996E+02 -0.21299626487E+03  0.26910252924E+03  0.12509000000E+03 0.  0.
<mgrwt>
<rscale>  2 0.46226025E+03</rscale>
<asrwt>0</asrwt>
<pdfrwt beam="1">  1       21 0.83804949E-02 0.46226025E+03</pdfrwt>
<pdfrwt beam="2">  1       21 0.13785598E+00 0.46226025E+03</pdfrwt>
<totfact> 0.37228662E+04</totfact>
</mgrwt>
</event>
<event>
 7    0  0.4725730E-002  0.4572577E+03  0.7546771E-02  0.1025580E+00
         21   -1    0    0  502  501  0.00000000000E+00  0.00000000000E+00  0.32220247929E+03  0.32220247929E+03  0.00000000000E+00 0.  1.
         21   -1    0    0  501  502 -0.00000000000E+00 -0.00000000000E+00 -0.16223074041E+03  0.16223074041E+03  0.00000000000E+00 0.  1.
      99926    2    1    2    0    0  0.00000000000E+00  0.35527136788E-14  0.15997173888E+03  0.48443321970E+03  0.45725768130E+03 0.  0.
      99925    2    3    3    0    0  0.91248341417E+02 -0.21107632640E+02  0.17162830153E+03  0.32773230866E+03  0.26302167266E+03 0.  0.
         25    1    4    4    0    0  0.76602585961E+02 -0.50359233879E+01  0.59598010343E+02  0.15840690527E+03  0.12509000000E+03 0.  0.
         25    1    4    4    0    0  0.14645755456E+02 -0.16071709253E+02  0.11203029119E+03  0.16932540339E+03  0.12509000000E+03 0.  0.
         25    1    3    3    0    0 -0.91248341417E+02  0.21107632640E+02 -0.11656562650E+02  0.15670091104E+03  0.12509000000E+03 0.  0.
<mgrwt>
<rscale>  2 0.45725768E+03</rscale>
<asrwt>0</asrwt>
<pdfrwt beam="1">  1       21 0.47382717E-01 0.45725768E+03</pdfrwt>
<pdfrwt beam="2">  1       21 0.23857462E-01 0.45725768E+03</pdfrwt>
<totfact> 0.65202392E+04</totfact>
</mgrwt>
</event>
<event>
 7    0  0.4725730E-002  0.4560358E+03  0.7546771E-02  0.1025937E+00
         21   -1    0    0  502  501  0.00000000000E+00  0.00000000000E+00  0.11907517266E+03  0.11907517266E+03  0.00000000000E+00 0.  1.
         21   -1    0    0  501  502 -0.00000000000E+00 -0.00000000000E+00 -0.43663310232E+03  0.43663310232E+03  0.00000000000E+00 0.  1.
      99926    2    1    2    0    0  0.00000000000E+00  0.00000000000E+00 -0.31755792966E+03  0.55570827498E+03  0.45603579705E+03 0.  0.
      99925    2    3    3    0    0 -0.33161665184E+02 -0.44370865757E+02 -0.78164433631E+02  0.27998155556E+03  0.26308082979E+03 0.  0.
         25    1    4    4    0    0 -0.45685861526E+01 -0.59022672020E+02 -0.54204868470E+02  0.14862780244E+03  0.12509000000E+03 0.  0.
         25    1    4    4    0    0 -0.28593079032E+02  0.14651806263E+02 -0.23959565162E+02  0.13135375312E+03  0.12509000000E+03 0.  0.
         25    1    3    3    0    0  0.33161665184E+02  0.44370865757E+02 -0.23939349603E+03  0.27572671943E+03  0.12509000000E+03 0.  0.
<mgrwt>
<rscale>  2 0.45603580E+03</rscale>
<asrwt>0</asrwt>
<pdfrwt beam="1">  1       21 0.17511055E-01 0.45603580E+03</pdfrwt>
<pdfrwt beam="2">  1       21 0.64210751E-01 0.45603580E+03</pdfrwt>
<totfact> 0.60989589E+04</totfact>
</mgrwt>
</event>
<event>
 7    0  0.4725730E-002  0.4542937E+03  0.7546771E-02  0.1026449E+00
         21   -1    0    0  502  501  0.00000000000E+00  0.00000000000E+00  0.11182031687E+03  0.11182031687E+03  0.00000000000E+00 0.  1.
         21   -1    0    0  501  502 -0.00000000000E+00 -0.00000000000E+00 -0.46141601917E+03  0.46141601917E+03  0.00000000000E+00 0.  1.
      99926    2    1    2    0    0  0.00000000000E+00  0.14210854715E-13 -0.34959570230E+03  0.57323633604E+03  0.45429367362E+03 0.  0.
      99925    2    3    3    0    0  0.34476064944E+02 -0.89484773669E+02 -0.14578092022E+03  0.31558522064E+03  0.26295594881E+03 0.  0.
         25    1    4    4    0    0  0.12813012621E+02 -0.50389318837E+02 -0.28600897194E+02  0.13845134945E+03  0.12509000000E+03 0.  0.
         25    1    4    4    0    0  0.21663052323E+02 -0.39095454833E+02 -0.11718002303E+03  0.17713387119E+03  0.12509000000E+03 0.  0.
         25    1    3    3    0    0 -0.34476064944E+02  0.89484773669E+02 -0.20381478208E+03  0.25765111540E+03  0.12509000000E+03 0.  0.
<mgrwt>
<rscale>  2 0.45429367E+03</rscale>
<asrwt>0</asrwt>
<pdfrwt beam="1">  1       21 0.16444165E-01 0.45429367E+03</pdfrwt>
<pdfrwt beam="2">  1       21 0.67855295E-01 0.45429367E+03</pdfrwt>
<totfact> 0.60694917E+04</totfact>
</mgrwt>
</event>
<event>
 7    0  0.4725730E-002  0.4576174E+03  0.7546771E-02  0.1025475E+00
         21   -1    0    0  502  501  0.00000000000E+00  0.00000000000E+00  0.12744463186E+03  0.12744463186E+03  0.00000000000E+00 0.  1.
         21   -1    0    0  501  502 -0.00000000000E+00 -0.00000000000E+00 -0.41079342826E+03  0.41079342826E+03  0.00000000000E+00 0.  1.
      99926    2    1    2    0    0  0.00000000000E+00  0.17763568394E-14 -0.28334879640E+03  0.53823806012E+03  0.45761738269E+03 0.  0.
      99925    2    3    3    0    0  0.68165051648E+02  0.14244563117E+02 -0.70127153456E+02  0.28141057139E+03  0.26348569258E+03 0.  0.
         25    1    3    3    0    0 -0.68165051648E+02 -0.14244563117E+02 -0.21322164295E+03  0.25682748873E+03  0.12509000000E+03 0.  0.
         25    1    4    4    0    0  0.49615700931E+02  0.44628516962E+02 -0.26511802467E+02  0.14423524561E+03  0.12509000000E+03 0.  0.
         25    1    4    4    0    0  0.18549350717E+02 -0.30383953845E+02 -0.43615350989E+02  0.13717532579E+03  0.12509000000E+03 0.  0.
<mgrwt>
<rscale>  2 0.45761738E+03</rscale>
<asrwt>0</asrwt>
<pdfrwt beam="1">  1       21 0.18741857E-01 0.45761738E+03</pdfrwt>
<pdfrwt beam="2">  1       21 0.60410800E-01 0.45761738E+03</pdfrwt>
<totfact> 0.61369315E+04</totfact>
</mgrwt>
</event>
<event>
 7    0  0.4725730E-002  0.4509857E+03  0.7546771E-02  0.1027428E+00
         21   -1    0    0  502  501  0.00000000000E+00  0.00000000000E+00  0.79052972176E+02  0.79052972176E+02  0.00000000000E+00 0.  1.
         21   -1    0    0  501  502 -0.00000000000E+00 -0.00000000000E+00 -0.64320205024E+03  0.64320205024E+03  0.00000000000E+00 0.  1.
      99926    2    1    2    0    0  0.00000000000E+00  0.00000000000E+00 -0.56414907806E+03  0.72225502242E+03  0.45098573716E+03 0.  0.
      99925    2    3    3    0    0 -0.82868394981E+01 -0.43111481093E+02 -0.51669970693E+03  0.58144940310E+03  0.26301625370E+03 0.  0.
         25    1    4    4    0    0 -0.52803983890E+01 -0.40320329215E+02 -0.18558916615E+03  0.22747408259E+03  0.12509000000E+03 0.  0.
         25    1    3    3    0    0  0.82868394981E+01  0.43111481093E+02 -0.47449371134E+02  0.14080561932E+03  0.12509000000E+03 0.  0.
         25    1    4    4    0    0 -0.30064411091E+01 -0.27911518783E+01 -0.33111054078E+03  0.35397532051E+03  0.12509000000E+03 0.  0.
<mgrwt>
<rscale>  2 0.45098574E+03</rscale>
<asrwt>0</asrwt>
<pdfrwt beam="1">  1       21 0.11625437E-01 0.45098574E+03</pdfrwt>
<pdfrwt beam="2">  1       21 0.94588541E-01 0.45098574E+03</pdfrwt>
<totfact> 0.53376669E+04</totfact>
</mgrwt>
</event>
<event>
 7    0  0.4725730E-002  0.4521559E+03  0.7546771E-02  0.1027081E+00
         21   -1    0    0  502  501  0.00000000000E+00  0.00000000000E+00  0.32683855701E+03  0.32683855701E+03  0.00000000000E+00 0.  1.
         21   -1    0    0  501  502 -0.00000000000E+00 -0.00000000000E+00 -0.15638072329E+03  0.15638072329E+03  0.00000000000E+00 0.  1.
      99926    2    1    2    0    0 -0.35527136788E-14 -0.44408920985E-15  0.17045783371E+03  0.48321928030E+03  0.45215594630E+03 0.  0.
      99925    2    3    3    0    0  0.28215594491E+02 -0.19085650254E+01 -0.65753731391E+01  0.26461455295E+03  0.26301685061E+03 0.  0.
         25    1    3    3    0    0 -0.28215594491E+02  0.19085650254E+01  0.17703320685E+03  0.21860472735E+03  0.12509000000E+03 0.  0.
         25    1    4    4    0    0 -0.25822002477E+02 -0.89300793633E+01 -0.57545998307E+01  0.12816842688E+03  0.12509000000E+03 0.  0.
         25    1    4    4    0    0  0.54037596968E+02  0.70215143379E+01 -0.82077330836E+00  0.13644612607E+03  0.12509000000E+03 0.  0.
<mgrwt>
<rscale>  2 0.45215595E+03</rscale>
<asrwt>0</asrwt>
<pdfrwt beam="1">  1       21 0.48064494E-01 0.45215595E+03</pdfrwt>
<pdfrwt beam="2">  1       21 0.22997165E-01 0.45215595E+03</pdfrwt>
<totfact> 0.67988565E+04</totfact>
</mgrwt>
</event>
<event>
 7    0  0.4725730E-002  0.4561041E+03  0.7546771E-02  0.1025917E+00
         21   -1    0    0  502  501  0.00000000000E+00  0.00000000000E+00  0.14397524696E+04  0.14397524696E+04  0.00000000000E+00 0.  1.
         21   -1    0    0  501  502 -0.00000000000E+00 -0.00000000000E+00 -0.36122698669E+02  0.36122698669E+02  0.00000000000E+00 0.  1.
      99926    2    1    2    0    0  0.00000000000E+00  0.00000000000E+00  0.14036297709E+04  0.14758751682E+04  0.45610413117E+03 0.  0.
      99925    2    3    3    0    0 -0.52076190754E+02 -0.74280221749E+02  0.11070659289E+04  0.11414695740E+04  0.26292268142E+03 0.  0.
         25    1    4    4    0    0 -0.23949903017E+02  0.29202273697E+01  0.55938164809E+03  0.57370503039E+03  0.12509000000E+03 0.  0.
         25    1    3    3    0    0  0.52076190754E+02  0.74280221749E+02  0.29656384196E+03  0.33440559422E+03  0.12509000000E+03 0.  0.
         25    1    4    4    0    0 -0.28126287737E+02 -0.77200449119E+02  0.54768428086E+03  0.56776454363E+03  0.12509000000E+03 0.  0.
<mgrwt>
<rscale>  2 0.45610413E+03</rscale>
<asrwt>0</asrwt>
<pdfrwt beam="1">  1       21 0.21172827E+00 0.45610413E+03</pdfrwt>
<pdfrwt beam="2">  1       21 0.53121625E-02 0.45610413E+03</pdfrwt>
<totfact> 0.24168671E+04</totfact>
</mgrwt>
</event>
<event>
 6    0  0.4725730E-002  0.4578960E+03  0.7546771E-02  0.1025393E+00
         21   -1    0    0  502  501  0.00000000000E+00  0.00000000000E+00  0.45157132197E+03  0.45157132197E+03  0.00000000000E+00 0. -1.
         21   -1    0    0  501  502 -0.00000000000E+00 -0.00000000000E+00 -0.11607730706E+03  0.11607730706E+03  0.00000000000E+00 0. -1.
      99926    2    1    2    0    0 -0.71054273576E-14  0.00000000000E+00  0.33549401491E+03  0.56764862903E+03  0.45789598383E+03 0.  0.
         25    1    3    3    0    0  0.58592280482E+02  0.69435255338E+02  0.46647977908E+02  0.16148638320E+03  0.12509000000E+03 0.  0.
         25    1    3    3    0    0 -0.65062857047E+02 -0.14544887654E+02  0.19169825965E+03  0.23841237379E+03  0.12509000000E+03 0.  0.
         25    1    3    3    0    0  0.64705765647E+01 -0.54890367684E+02  0.97147777346E+02  0.16774987204E+03  0.12509000000E+03 0.  0.
<mgrwt>
<rscale>  2 0.45789598E+03</rscale>
<asrwt>0</asrwt>
<pdfrwt beam="1">  1       21 0.66407547E-01 0.45789598E+03</pdfrwt>
<pdfrwt beam="2">  1       21 0.17070192E-01 0.45789598E+03</pdfrwt>
<totfact> 0.59344265E+04</totfact>
</mgrwt>
</event>
<event>
 7    0  0.4725730E-002  0.4485577E+03  0.7546771E-02  0.1028153E+00
         21   -1    0    0  502  501  0.00000000000E+00  0.00000000000E+00  0.17206051925E+04  0.17206051925E+04  0.00000000000E+00 0. -1.
         21   -1    0    0  501  502 -0.00000000000E+00 -0.00000000000E+00 -0.29234482909E+02  0.29234482909E+02  0.00000000000E+00 0. -1.
      99926    2    1    2    0    0  0.00000000000E+00  0.00000000000E+00  0.16913707096E+04  0.17498396754E+04  0.44855770238E+03 0.  0.
      99925    2    3    3    0    0 -0.34064362689E+02  0.69423406112E+01  0.14655023051E+04  0.14893159315E+04  0.26297596967E+03 0.  0.
         25    1    3    3    0    0  0.34064362689E+02 -0.69423406112E+01  0.22586840447E+03  0.26052374390E+03  0.12509000000E+03 0.  0.
         25    1    4    4    0    0  0.14070788742E+02  0.29147140682E+02  0.74300820732E+03  0.75415929826E+03  0.12509000000E+03 0.  0.
         25    1    4    4    0    0 -0.48135151431E+02 -0.22204800071E+02  0.72249409777E+03  0.73515663321E+03  0.12509000000E+03 0.  0.
<mgrwt>
<rscale>  2 0.44855770E+03</rscale>
<asrwt>0</asrwt>
<pdfrwt beam="1">  1       21 0.25303011E+00 0.44855770E+03</pdfrwt>
<pdfrwt beam="2">  1       21 0.42991898E-02 0.44855770E+03</pdfrwt>
<totfact> 0.19185273E+04</totfact>
</mgrwt>
</event>
<event>
 7    0  0.4725730E-002  0.4530930E+03  0.7546771E-02  0.1026804E+00
         21   -1    0    0  502  501  0.00000000000E+00  0.00000000000E+00  0.26778338032E+03  0.26778338032E+03  0.00000000000E+00 0.  1.
         21   -1    0    0  501  502 -0.00000000000E+00 -0.00000000000E+00 -0.19165983847E+03  0.19165983847E+03  0.00000000000E+00 0.  1.
      99926    2    1    2    0    0  0.35527136788E-14 -0.71054273576E-14  0.76123541843E+02  0.45944321879E+03  0.45309301216E+03 0.  0.
      99925    2    3    3    0    0 -0.27923284955E+02  0.58662395466E+02  0.13972412268E+03  0.30480322245E+03  0.26298514686E+03 0.  0.
         25    1    4    4    0    0 -0.86382474973E+01  0.51641779091E+02  0.34163310509E+02  0.13984324278E+03  0.12509000000E+03 0.  0.
         25    1    4    4    0    0 -0.19285037458E+02  0.70206163749E+01  0.10556081217E+03  0.16495997966E+03  0.12509000000E+03 0.  0.
         25    1    3    3    0    0  0.27923284955E+02 -0.58662395466E+02 -0.63600580840E+02  0.15463999634E+03  0.12509000000E+03 0.  0.
<mgrwt>
<rscale>  2 0.45309301E+03</rscale>
<asrwt>0</asrwt>
<pdfrwt beam="1">  1       21 0.39379909E-01 0.45309301E+03</pdfrwt>
<pdfrwt beam="2">  1       21 0.28185270E-01 0.45309301E+03</pdfrwt>
<totfact> 0.69268470E+04</totfact>
</mgrwt>
</event>
<event>
 7    0  0.4725730E-002  0.4470696E+03  0.7546771E-02  0.1028600E+00
         21   -1    0    0  502  501  0.00000000000E+00  0.00000000000E+00  0.45227429085E+02  0.45227429085E+02  0.00000000000E+00 0.  1.
         21   -1    0    0  501  502 -0.00000000000E+00 -0.00000000000E+00 -0.11048119547E+04  0.11048119547E+04  0.00000000000E+00 0.  1.
      99926    2    1    2    0    0 -0.35527136788E-14  0.00000000000E+00 -0.10595845256E+04  0.11500393838E+04  0.44706958892E+03 0.  0.
      99925    2    3    3    0    0  0.28968270612E+02 -0.56820321017E+02 -0.88794119836E+03  0.92828129606E+03  0.26305680620E+03 0.  0.
         25    1    4    4    0    0  0.35359383166E+02 -0.64649148757E+02 -0.47678774005E+03  0.49840129973E+03  0.12509000000E+03 0.  0.
         25    1    3    3    0    0 -0.28968270612E+02  0.56820321017E+02 -0.17164332728E+03  0.22175808775E+03  0.12509000000E+03 0.  0.
         25    1    4    4    0    0 -0.63911125535E+01  0.78288277403E+01 -0.41115345831E+03  0.42987999633E+03  0.12509000000E+03 0.  0.
<mgrwt>
<rscale>  2 0.44706959E+03</rscale>
<asrwt>0</asrwt>
<pdfrwt beam="1">  1       21 0.66510933E-02 0.44706959E+03</pdfrwt>
<pdfrwt beam="2">  1       21 0.16247233E+00 0.44706959E+03</pdfrwt>
<totfact> 0.35952281E+04</totfact>
</mgrwt>
</event>
<event>
 7    0  0.4725730E-002  0.4544066E+03  0.7546771E-02  0.1026416E+00
         21   -1    0    0  502  501  0.00000000000E+00  0.00000000000E+00  0.47278897331E+03  0.47278897331E+03  0.00000000000E+00 0. -1.
         21   -1    0    0  501  502 -0.00000000000E+00 -0.00000000000E+00 -0.10918472130E+03  0.10918472130E+03  0.00000000000E+00 0. -1.
      99926    2    1    2    0    0  0.00000000000E+00  0.00000000000E+00  0.36360425201E+03  0.58197369461E+03  0.45440656810E+03 0.  0.
      99925    2    3    3    0    0  0.10196505178E+03  0.39391617996E+02  0.26308567943E+03  0.38780865428E+03  0.26312146674E+03 0.  0.
         25    1    3    3    0    0 -0.10196505178E+03 -0.39391617996E+02  0.10051857258E+03  0.19416504033E+03  0.12509000000E+03 0.  0.
         25    1    4    4    0    0  0.72253010181E+02  0.53642626631E+02  0.12330715084E+03  0.19735802598E+03  0.12509000000E+03 0.  0.
         25    1    4    4    0    0  0.29712041594E+02 -0.14251008635E+02  0.13977852859E+03  0.19045062830E+03  0.12509000000E+03 0.  0.
<mgrwt>
<rscale>  2 0.45440657E+03</rscale>
<asrwt>0</asrwt>
<pdfrwt beam="1">  1       21 0.69527789E-01 0.45440657E+03</pdfrwt>
<pdfrwt beam="2">  1       21 0.16056577E-01 0.45440657E+03</pdfrwt>
<totfact> 0.60083150E+04</totfact>
</mgrwt>
</event>
<event>
 7    0  0.4725730E-002  0.4526973E+03  0.7546771E-02  0.1026921E+00
         21   -1    0    0  502  501  0.00000000000E+00  0.00000000000E+00  0.12324653198E+03  0.12324653198E+03  0.00000000000E+00 0.  1.
         21   -1    0    0  501  502 -0.00000000000E+00 -0.00000000000E+00 -0.41570101166E+03  0.41570101166E+03  0.00000000000E+00 0.  1.
      99926    2    1    2    0    0  0.00000000000E+00  0.88817841970E-15 -0.29245447968E+03  0.53894754364E+03  0.45269728529E+03 0.  0.
      99925    2    3    3    0    0  0.88666259703E+02 -0.33609100376E+00 -0.10463707908E+03  0.29649197527E+03  0.26286261528E+03 0.  0.
         25    1    4    4    0    0  0.58266031544E+02 -0.26204151735E+02 -0.83759380928E+02  0.16353816066E+03  0.12509000000E+03 0.  0.
         25    1    3    3    0    0 -0.88666259703E+02  0.33609100376E+00 -0.18781740059E+03  0.24245556837E+03  0.12509000000E+03 0.  0.
         25    1    4    4    0    0  0.30400228159E+02  0.25868060731E+02 -0.20877698154E+02  0.13295381461E+03  0.12509000000E+03 0.  0.
<mgrwt>
<rscale>  2 0.45269729E+03</rscale>
<asrwt>0</asrwt>
<pdfrwt beam="1">  1       21 0.18124490E-01 0.45269729E+03</pdfrwt>
<pdfrwt beam="2">  1       21 0.61132501E-01 0.45269729E+03</pdfrwt>
<totfact> 0.63756807E+04</totfact>
</mgrwt>
</event>
<event>
 7    0  0.4725730E-002  0.4711757E+03  0.7546771E-02  0.1021589E+00
         21   -1    0    0  502  501  0.00000000000E+00  0.00000000000E+00  0.39317244173E+02  0.39317244173E+02  0.00000000000E+00 0. -1.
         21   -1    0    0  501  502 -0.00000000000E+00 -0.00000000000E+00 -0.14116361800E+04  0.14116361800E+04  0.00000000000E+00 0. -1.
      99926    2    1    2    0    0  0.00000000000E+00  0.00000000000E+00 -0.13723189358E+04  0.14509534242E+04  0.47117573950E+03 0.  0.
      99925    2    3    3    0    0 -0.10688779211E+03 -0.81143713759E+01 -0.63705720211E+03  0.69746276843E+03  0.26290985425E+03 0.  0.
         25    1    4    4    0    0 -0.56524285213E+02 -0.30529158301E+02 -0.39759302267E+03  0.42172828231E+03  0.12509000000E+03 0.  0.
         25    1    3    3    0    0  0.10688779211E+03  0.81143713759E+01 -0.73526173374E+03  0.75349065576E+03  0.12509000000E+03 0.  0.
         25    1    4    4    0    0 -0.50363506900E+02  0.22414786925E+02 -0.23946417944E+03  0.27573448612E+03  0.12509000000E+03 0.  0.
<mgrwt>
<rscale>  2 0.47117574E+03</rscale>
<asrwt>0</asrwt>
<pdfrwt beam="1">  1       21 0.57819475E-02 0.47117574E+03</pdfrwt>
<pdfrwt beam="2">  1       21 0.20759356E+00 0.47117574E+03</pdfrwt>
<totfact> 0.22095178E+04</totfact>
</mgrwt>
</event>
<event>
 7    0  0.4725730E-002  0.4478669E+03  0.7546771E-02  0.1028360E+00
         21   -1    0    0  502  501  0.00000000000E+00  0.00000000000E+00  0.16477486702E+04  0.16477486702E+04  0.00000000000E+00 0.  1.
         21   -1    0    0  501  502 -0.00000000000E+00 -0.00000000000E+00 -0.30433152326E+02  0.30433152326E+02  0.00000000000E+00 0.  1.
      99926    2    1    2    0    0  0.00000000000E+00  0.14210854715E-13  0.16173155179E+04  0.16781818225E+04  0.44786688324E+03 0.  0.
      99925    2    3    3    0    0  0.29986615182E+02 -0.10030255521E+03  0.95598130122E+03  0.99702820264E+03  0.26306879119E+03 0.  0.
         25    1    4    4    0    0 -0.70104726348E+01 -0.13672186228E+02  0.39669888621E+03  0.41623742002E+03  0.12509000000E+03 0.  0.
         25    1    3    3    0    0 -0.29986615182E+02  0.10030255521E+03  0.66133421666E+03  0.68115361990E+03  0.12509000000E+03 0.  0.
         25    1    4    4    0    0  0.36997087816E+02 -0.86630368977E+02  0.55928241501E+03  0.58079078262E+03  0.12509000000E+03 0.  0.
<mgrwt>
<rscale>  2 0.44786688E+03</rscale>
<asrwt>0</asrwt>
<pdfrwt beam="1">  1       21 0.24231592E+00 0.44786688E+03</pdfrwt>
<pdfrwt beam="2">  1       21 0.44754647E-02 0.44786688E+03</pdfrwt>
<totfact> 0.20850529E+04</totfact>
</mgrwt>
</event>
<event>
 7    0  0.4725730E-002  0.4453480E+03  0.7546771E-02  0.1029118E+00
         21   -1    0    0  502  501  0.00000000000E+00  0.00000000000E+00  0.10760700703E+03  0.10760700703E+03  0.00000000000E+00 0.  1.
         21   -1    0    0  501  502 -0.00000000000E+00 -0.00000000000E+00 -0.46078504244E+03  0.46078504244E+03  0.00000000000E+00 0.  1.
      99926    2    1    2    0    0 -0.35527136788E-14  0.00000000000E+00 -0.35317803541E+03  0.56839204947E+03  0.44534795072E+03 0.  0.
      99925    2    3    3    0    0 -0.29145490281E+02 -0.35521182672E+02 -0.10545411699E+03  0.28709885390E+03  0.26304746168E+03 0.  0.
         25    1    3    3    0    0  0.29145490281E+02  0.35521182672E+02 -0.24772391841E+03  0.28129319558E+03  0.12509000000E+03 0.  0.
         25    1    4    4    0    0  0.12769680738E+02  0.91738892033E+01 -0.66118250684E+02  0.14235995281E+03  0.12509000000E+03 0.  0.
         25    1    4    4    0    0 -0.41915171020E+02 -0.44695071875E+02 -0.39335866308E+02  0.14473890109E+03  0.12509000000E+03 0.  0.
<mgrwt>
<rscale>  2 0.44534795E+03</rscale>
<asrwt>0</asrwt>
<pdfrwt beam="1">  1       21 0.15824560E-01 0.44534795E+03</pdfrwt>
<pdfrwt beam="2">  1       21 0.67762507E-01 0.44534795E+03</pdfrwt>
<totfact> 0.65527451E+04</totfact>
</mgrwt>
</event>
<event>
 7    0  0.4725730E-002  0.4613554E+03  0.7546771E-02  0.1024389E+00
         21   -1    0    0  502  501  0.00000000000E+00  0.00000000000E+00  0.18677053321E+03  0.18677053321E+03  0.00000000000E+00 0. -1.
         21   -1    0    0  501  502 -0.00000000000E+00 -0.00000000000E+00 -0.28490682142E+03  0.28490682142E+03  0.00000000000E+00 0. -1.
      99926    2    1    2    0    0  0.71054273576E-14  0.14210854715E-13 -0.98136288204E+02  0.47167735463E+03  0.46135538992E+03 0.  0.
      99925    2    3    3    0    0 -0.35434689193E+02 -0.93299212972E+02 -0.12775389150E+03  0.30893500960E+03  0.26298179219E+03 0.  0.
         25    1    3    3    0    0  0.35434689193E+02  0.93299212972E+02  0.29617603299E+02  0.16274234503E+03  0.12509000000E+03 0.  0.
         25    1    4    4    0    0 -0.32590727093E+02 -0.87359911479E+02 -0.70308845297E+02  0.17112788041E+03  0.12509000000E+03 0.  0.
         25    1    4    4    0    0 -0.28439620996E+01 -0.59393014922E+01 -0.57445046206E+02  0.13780712919E+03  0.12509000000E+03 0.  0.
<mgrwt>
<rscale>  2 0.46135539E+03</rscale>
<asrwt>0</asrwt>
<pdfrwt beam="1">  1       21 0.27466255E-01 0.46135539E+03</pdfrwt>
<pdfrwt beam="2">  1       21 0.41898062E-01 0.46135539E+03</pdfrwt>
<totfact> 0.64021537E+04</totfact>
</mgrwt>
</event>
<event>
 7    0  0.4725730E-002  0.4505705E+03  0.7546771E-02  0.1027552E+00
         21   -1    0    0  502  501  0.00000000000E+00  0.00000000000E+00  0.54932394995E+03  0.54932394995E+03  0.00000000000E+00 0.  1.
         21   -1    0    0  501  502 -0.00000000000E+00 -0.00000000000E+00 -0.92392565980E+02  0.92392565980E+02  0.00000000000E+00 0.  1.
      99926    2    1    2    0    0  0.00000000000E+00  0.00000000000E+00  0.45693138397E+03  0.64171651593E+03  0.45057052407E+03 0.  0.
      99925    2    3    3    0    0 -0.76590667488E+02  0.77285743986E+02  0.29826834700E+03  0.41223735790E+03  0.26293804566E+03 0.  0.
         25    1    3    3    0    0  0.76590667488E+02 -0.77285743986E+02  0.15866303698E+03  0.22947915803E+03  0.12509000000E+03 0.  0.
         25    1    4    4    0    0 -0.46943261438E+02 -0.47107623154E+00  0.15497816251E+03  0.20462069950E+03  0.12509000000E+03 0.  0.
         25    1    4    4    0    0 -0.29647406050E+02  0.77756820217E+02  0.14329018448E+03  0.20761665840E+03  0.12509000000E+03 0.  0.
<mgrwt>
<rscale>  2 0.45057052E+03</rscale>
<asrwt>0</asrwt>
<pdfrwt beam="1">  1       21 0.80782932E-01 0.45057052E+03</pdfrwt>
<pdfrwt beam="2">  1       21 0.13587142E-01 0.45057052E+03</pdfrwt>
<totfact> 0.58188541E+04</totfact>
</mgrwt>
</event>
<event>
 7    0  0.4725730E-002  0.4524178E+03  0.7546771E-02  0.1027003E+00
         21   -1    0    0  502  501  0.00000000000E+00  0.00000000000E+00  0.36389291197E+03  0.36389291197E+03  0.00000000000E+00 0.  1.
         21   -1    0    0  501  502 -0.00000000000E+00 -0.00000000000E+00 -0.14061955183E+03  0.14061955183E+03  0.00000000000E+00 0.  1.
      99926    2    1    2    0    0  0.00000000000E+00  0.17763568394E-14  0.22327336014E+03  0.50451246379E+03  0.45241776355E+03 0.  0.
      99925    2    3    3    0    0 -0.10025558997E+03 -0.93331982692E+01  0.89637645664E+02  0.29560027125E+03  0.26307094277E+03 0.  0.
         25    1    4    4    0    0 -0.58785526428E+02 -0.44144538488E+02  0.39588907957E+02  0.15039703497E+03  0.12509000000E+03 0.  0.
         25    1    3    3    0    0  0.10025558997E+03  0.93331982692E+01  0.13363571448E+03  0.20891219255E+03  0.12509000000E+03 0.  0.
         25    1    4    4    0    0 -0.41470063543E+02  0.34811340219E+02  0.50048737708E+02  0.14520323627E+03  0.12509000000E+03 0.  0.
<mgrwt>
<rscale>  2 0.45241776E+03</rscale>
<asrwt>0</asrwt>
<pdfrwt beam="1">  1       21 0.53513663E-01 0.45241776E+03</pdfrwt>
<pdfrwt beam="2">  1       21 0.20679346E-01 0.45241776E+03</pdfrwt>
<totfact> 0.66303330E+04</totfact>
</mgrwt>
</event>
<event>
 7    0  0.4725730E-002  0.4635448E+03  0.7546771E-02  0.1023758E+00
         21   -1    0    0  502  501  0.00000000000E+00  0.00000000000E+00  0.77281306451E+03  0.77281306451E+03  0.00000000000E+00 0.  1.
         21   -1    0    0  501  502 -0.00000000000E+00 -0.00000000000E+00 -0.69510278175E+02  0.69510278175E+02  0.00000000000E+00 0.  1.
      99926    2    1    2    0    0 -0.26645352591E-14  0.00000000000E+00  0.70330278633E+03  0.84232334268E+03  0.46354482455E+03 0.  0.
      99925    2    3    3    0    0 -0.62500017841E+01 -0.15199313164E+02  0.65714531757E+03  0.70798011931E+03  0.26291785656E+03 0.  0.
         25    1    4    4    0    0 -0.33661172728E+02 -0.15259981648E+02  0.39969316717E+03  0.42043795924E+03  0.12509000000E+03 0.  0.
         25    1    4    4    0    0  0.27411170944E+02  0.60668484276E-01  0.25745215039E+03  0.28754216007E+03  0.12509000000E+03 0.  0.
         25    1    3    3    0    0  0.62500017841E+01  0.15199313164E+02  0.46157468766E+02  0.13434322337E+03  0.12509000000E+03 0.  0.
<mgrwt>
<rscale>  2 0.46354482E+03</rscale>
<asrwt>0</asrwt>
<pdfrwt beam="1">  1       21 0.11364898E+00 0.46354482E+03</pdfrwt>
<pdfrwt beam="2">  1       21 0.10222100E-01 0.46354482E+03</pdfrwt>
<totfact> 0.42839881E+04</totfact>
</mgrwt>
</event>
<event>
 7    0  0.4725730E-002  0.4533704E+03  0.7546771E-02  0.1026722E+00
         21   -1    0    0  502  501  0.00000000000E+00  0.00000000000E+00  0.15137283468E+03  0.15137283468E+03  0.00000000000E+00 0.  1.
         21   -1    0    0  501  502 -0.00000000000E+00 -0.00000000000E+00 -0.33946770140E+03  0.33946770140E+03  0.00000000000E+00 0.  1.
      99926    2    1    2    0    0  0.00000000000E+00 -0.14210854715E-13 -0.18809486672E+03  0.49084053607E+03  0.45337043680E+03 0.  0.
      99925    2    3    3    0    0 -0.29096917189E+02  0.10668083756E+03 -0.13354172875E+03  0.31519605237E+03  0.26322561885E+03 0.  0.
         25    1    3    3    0    0  0.29096917189E+02 -0.10668083756E+03 -0.54553137973E+02  0.17564448370E+03  0.12509000000E+03 0.  0.
         25    1    4    4    0    0  0.15632140792E+02  0.34328127566E+02 -0.37183006597E+02  0.13584133483E+03  0.12509000000E+03 0.  0.
         25    1    4    4    0    0 -0.44729057981E+02  0.72352709993E+02 -0.96358722148E+02  0.17935471754E+03  0.12509000000E+03 0.  0.
<mgrwt>
<rscale>  2 0.45337044E+03</rscale>
<asrwt>0</asrwt>
<pdfrwt beam="1">  1       21 0.22260712E-01 0.45337044E+03</pdfrwt>
<pdfrwt beam="2">  1       21 0.49921719E-01 0.45337044E+03</pdfrwt>
<totfact> 0.66778767E+04</totfact>
</mgrwt>
</event>
<event>
 7    0  0.4725730E-002  0.4500109E+03  0.7546771E-02  0.1027719E+00
         21   -1    0    0  502  501  0.00000000000E+00  0.00000000000E+00  0.10987026640E+04  0.10987026640E+04  0.00000000000E+00 0. -1.
         21   -1    0    0  501  502 -0.00000000000E+00 -0.00000000000E+00 -0.46079307299E+02  0.46079307299E+02  0.00000000000E+00 0. -1.
      99926    2    1    2    0    0  0.00000000000E+00 -0.71054273576E-14  0.10526233567E+04  0.11447819713E+04  0.45001092291E+03 0.  0.
      99925    2    3    3    0    0 -0.87505412752E+02 -0.51883802768E+02  0.76107894395E+03  0.81162318189E+03  0.26294848206E+03 0.  0.
         25    1    3    3    0    0  0.87505412752E+02  0.51883802768E+02  0.29154441276E+03  0.33315878941E+03  0.12509000000E+03 0.  0.
         25    1    4    4    0    0 -0.14410697440E+02 -0.32258297570E+01  0.28445701837E+03  0.31109705492E+03  0.12509000000E+03 0.  0.
         25    1    4    4    0    0 -0.73094715312E+02 -0.48657973011E+02  0.47662192558E+03  0.50052612697E+03  0.12509000000E+03 0.  0.
<mgrwt>
<rscale>  2 0.45001092E+03</rscale>
<asrwt>0</asrwt>
<pdfrwt beam="1">  1       21 0.16157390E+00 0.45001092E+03</pdfrwt>
<pdfrwt beam="2">  1       21 0.67763694E-02 0.45001092E+03</pdfrwt>
<totfact> 0.35310262E+04</totfact>
</mgrwt>
</event>
<event>
 7    0  0.4725730E-002  0.4345396E+03  0.7546771E-02  0.1032435E+00
         21   -1    0    0  502  501  0.00000000000E+00  0.00000000000E+00  0.41858044570E+03  0.41858044570E+03  0.00000000000E+00 0. -1.
         21   -1    0    0  501  502 -0.00000000000E+00 -0.00000000000E+00 -0.11277680229E+03  0.11277680229E+03  0.00000000000E+00 0. -1.
      99926    2    1    2    0    0  0.13322676296E-14  0.00000000000E+00  0.30580364341E+03  0.53135724799E+03  0.43453959160E+03 0.  0.
      99925    2    3    3    0    0  0.28745524264E+01  0.49805367228E+02  0.29181024165E+03  0.39596093693E+03  0.26295058240E+03 0.  0.
         25    1    4    4    0    0  0.12091062090E+02 -0.10766513332E+02  0.16420321413E+03  0.20705630931E+03  0.12509000000E+03 0.  0.
         25    1    4    4    0    0 -0.92165096633E+01  0.60571880560E+02  0.12760702752E+03  0.18890462762E+03  0.12509000000E+03 0.  0.
         25    1    3    3    0    0 -0.28745524264E+01 -0.49805367228E+02  0.13993401757E+02  0.13539631106E+03  0.12509000000E+03 0.  0.
<mgrwt>
<rscale>  2 0.43453959E+03</rscale>
<asrwt>0</asrwt>
<pdfrwt beam="1">  1       21 0.61555947E-01 0.43453959E+03</pdfrwt>
<pdfrwt beam="2">  1       21 0.16584824E-01 0.43453959E+03</pdfrwt>
<totfact> 0.74461937E+04</totfact>
</mgrwt>
</event>
<event>
 7    0  0.4725730E-002  0.4044924E+03  0.7546771E-02  0.1042235E+00
         21   -1    0    0  502  501  0.00000000000E+00  0.00000000000E+00  0.10385558627E+03  0.10385558627E+03  0.00000000000E+00 0. -1.
         21   -1    0    0  501  502 -0.00000000000E+00 -0.00000000000E+00 -0.39384994631E+03  0.39384994631E+03  0.00000000000E+00 0. -1.
      99926    2    1    2    0    0  0.00000000000E+00 -0.28865798640E-14 -0.28999436004E+03  0.49770553258E+03  0.40449235877E+03 0.  0.
      99925    2    3    3    0    0  0.37896588402E+01  0.11396421476E+01 -0.12645106296E+03  0.29176967262E+03  0.26291445422E+03 0.  0.
         25    1    4    4    0    0  0.61334529456E+01 -0.35934043632E+02 -0.44511838568E+02  0.13768691517E+03  0.12509000000E+03 0.  0.
         25    1    4    4    0    0 -0.23437941054E+01  0.37073685779E+02 -0.81939224389E+02  0.15408275744E+03  0.12509000000E+03 0.  0.
         25    1    3    3    0    0 -0.37896588402E+01 -0.11396421476E+01 -0.16354329708E+03  0.20593585996E+03  0.12509000000E+03 0.  0.
<mgrwt>
<rscale>  2 0.40449236E+03</rscale>
<asrwt>0</asrwt>
<pdfrwt beam="1">  1       21 0.15272880E-01 0.40449236E+03</pdfrwt>
<pdfrwt beam="2">  1       21 0.57919111E-01 0.40449236E+03</pdfrwt>
<totfact> 0.99790517E+04</totfact>
</mgrwt>
</event>
<event>
 7    0  0.4725730E-002  0.4487910E+03  0.7546771E-02  0.1028083E+00
         21   -1    0    0  502  501  0.00000000000E+00  0.00000000000E+00  0.23179603033E+03  0.23179603033E+03  0.00000000000E+00 0. -1.
         21   -1    0    0  501  502 -0.00000000000E+00 -0.00000000000E+00 -0.21723122785E+03  0.21723122785E+03  0.00000000000E+00 0. -1.
      99926    2    1    2    0    0  0.88817841970E-15  0.00000000000E+00  0.14564802486E+02  0.44902725818E+03  0.44879098154E+03 0.  0.
      99925    2    3    3    0    0 -0.31286020623E+01 -0.96224981506E+02 -0.37896725957E+02  0.28268798054E+03  0.26307279846E+03 0.  0.
         25    1    4    4    0    0 -0.33738429885E+02 -0.31670520799E+02 -0.37820330955E+02  0.13863328991E+03  0.12509000000E+03 0.  0.
         25    1    3    3    0    0  0.31286020623E+01  0.96224981506E+02  0.52461528442E+02  0.16633927763E+03  0.12509000000E+03 0.  0.
         25    1    4    4    0    0  0.30609827823E+02 -0.64554460707E+02 -0.76395001294E-01  0.14405469063E+03  0.12509000000E+03 0.  0.
<mgrwt>
<rscale>  2 0.44879098E+03</rscale>
<asrwt>0</asrwt>
<pdfrwt beam="1">  1       21 0.34087651E-01 0.44879098E+03</pdfrwt>
<pdfrwt beam="2">  1       21 0.31945769E-01 0.44879098E+03</pdfrwt>
<totfact> 0.72511891E+04</totfact>
</mgrwt>
</event>
<event>
 7    0  0.4725730E-002  0.4428541E+03  0.7546771E-02  0.1029875E+00
         21   -1    0    0  502  501  0.00000000000E+00  0.00000000000E+00  0.79419197551E+02  0.79419197551E+02  0.00000000000E+00 0.  1.
         21   -1    0    0  501  502 -0.00000000000E+00 -0.00000000000E+00 -0.61735630247E+03  0.61735630247E+03  0.00000000000E+00 0.  1.
      99926    2    1    2    0    0  0.00000000000E+00 -0.71054273576E-14 -0.53793710492E+03  0.69677550002E+03  0.44285411659E+03 0.  0.
      99925    2    3    3    0    0 -0.42018166227E+02 -0.54209587798E+02 -0.22474647879E+03  0.35262425115E+03  0.26292332926E+03 0.  0.
         25    1    3    3    0    0  0.42018166227E+02  0.54209587798E+02 -0.31319062613E+03  0.34415124887E+03  0.12509000000E+03 0.  0.
         25    1    4    4    0    0 -0.49770839713E+02 -0.49276955962E+02 -0.93934501450E+02  0.17139589708E+03  0.12509000000E+03 0.  0.
         25    1    4    4    0    0  0.77526734853E+01 -0.49326318364E+01 -0.13081197734E+03  0.18122835407E+03  0.12509000000E+03 0.  0.
<mgrwt>
<rscale>  2 0.44285412E+03</rscale>
<asrwt>0</asrwt>
<pdfrwt beam="1">  1       21 0.11679294E-01 0.44285412E+03</pdfrwt>
<pdfrwt beam="2">  1       21 0.90787691E-01 0.44285412E+03</pdfrwt>
<totfact> 0.58470412E+04</totfact>
</mgrwt>
</event>
<event>
 7    0  0.4725730E-002  0.4594044E+03  0.7546771E-02  0.1024954E+00
         21   -1    0    0  502  501  0.00000000000E+00  0.00000000000E+00  0.77317652452E+03  0.77317652452E+03  0.00000000000E+00 0.  1.
         21   -1    0    0  501  502 -0.00000000000E+00 -0.00000000000E+00 -0.68241981873E+02  0.68241981873E+02  0.00000000000E+00 0.  1.
      99926    2    1    2    0    0  0.00000000000E+00 -0.35527136788E-14  0.70493454265E+03  0.84141850640E+03  0.45940438993E+03 0.  0.
      99925    2    3    3    0    0 -0.10682332740E+03  0.14513293608E+02  0.52629540834E+03  0.59814642132E+03  0.26300271013E+03 0.  0.
         25    1    4    4    0    0 -0.82959649600E+02  0.37246891716E+02  0.29849873993E+03  0.33618245083E+03  0.12509000000E+03 0.  0.
         25    1    3    3    0    0  0.10682332740E+03 -0.14513293608E+02  0.17863913432E+03  0.24327208507E+03  0.12509000000E+03 0.  0.
         25    1    4    4    0    0 -0.23863677797E+02 -0.22733598108E+02  0.22779666840E+03  0.26196397049E+03  0.12509000000E+03 0.  0.
<mgrwt>
<rscale>  2 0.45940439E+03</rscale>
<asrwt>0</asrwt>
<pdfrwt beam="1">  1       21 0.11370242E+00 0.45940439E+03</pdfrwt>
<pdfrwt beam="2">  1       21 0.10035586E-01 0.45940439E+03</pdfrwt>
<totfact> 0.44275886E+04</totfact>
</mgrwt>
</event>
<event>
 7    0  0.4725730E-002  0.4568548E+03  0.7546771E-02  0.1025697E+00
         21   -1    0    0  502  501  0.00000000000E+00  0.00000000000E+00  0.47817926902E+02  0.47817926902E+02  0.00000000000E+00 0.  1.
         21   -1    0    0  501  502 -0.00000000000E+00 -0.00000000000E+00 -0.10912030853E+04  0.10912030853E+04  0.00000000000E+00 0.  1.
      99926    2    1    2    0    0  0.00000000000E+00  0.14210854715E-13 -0.10433851584E+04  0.11390210122E+04  0.45685476628E+03 0.  0.
      99925    2    3    3    0    0  0.51298159191E+02 -0.88028851963E+02 -0.52072386299E+03  0.59202657189E+03  0.26260529397E+03 0.  0.
         25    1    3    3    0    0 -0.51298159191E+02  0.88028851963E+02 -0.52266129541E+03  0.54699444031E+03  0.12509000000E+03 0.  0.
         25    1    4    4    0    0  0.59164414447E+02 -0.58513443517E+02 -0.32058608457E+03  0.35404406043E+03  0.12509000000E+03 0.  0.
         25    1    4    4    0    0 -0.78662552560E+01 -0.29515408446E+02 -0.20013777842E+03  0.23798251145E+03  0.12509000000E+03 0.  0.
<mgrwt>
<rscale>  2 0.45685477E+03</rscale>
<asrwt>0</asrwt>
<pdfrwt beam="1">  1       21 0.70320489E-02 0.45685477E+03</pdfrwt>
<pdfrwt beam="2">  1       21 0.16047102E+00 0.45685477E+03</pdfrwt>
<totfact> 0.33661769E+04</totfact>
</mgrwt>
</event>
<event>
 7    0  0.4725730E-002  0.4346474E+03  0.7546771E-02  0.1032402E+00
         21   -1    0    0  502  501  0.00000000000E+00  0.00000000000E+00  0.49386761473E+02  0.49386761473E+02  0.00000000000E+00 0. -1.
         21   -1    0    0  501  502 -0.00000000000E+00 -0.00000000000E+00 -0.95632097557E+03  0.95632097557E+03  0.00000000000E+00 0. -1.
      99926    2    1    2    0    0  0.71054273576E-14 -0.71054273576E-14 -0.90693421409E+03  0.10057077370E+04  0.43464742452E+03 0.  0.
      99925    2    3    3    0    0  0.48408064182E+02 -0.53313297581E+02 -0.71744208422E+03  0.76750525225E+03  0.26297437069E+03 0.  0.
         25    1    4    4    0    0  0.36338771685E+02  0.12000960278E+02 -0.32936325108E+03  0.35438988224E+03  0.12509000000E+03 0.  0.
         25    1    3    3    0    0 -0.48408064182E+02  0.53313297581E+02 -0.18949212987E+03  0.23820248479E+03  0.12509000000E+03 0.  0.
         25    1    4    4    0    0  0.12069292497E+02 -0.65314257859E+02 -0.38807883314E+03  0.41311537000E+03  0.12509000000E+03 0.  0.
<mgrwt>
<rscale>  2 0.43464742E+03</rscale>
<asrwt>0</asrwt>
<pdfrwt beam="1">  1       21 0.72627599E-02 0.43464742E+03</pdfrwt>
<pdfrwt beam="2">  1       21 0.14063542E+00 0.43464742E+03</pdfrwt>
<totfact> 0.45803705E+04</totfact>
</mgrwt>
</event>
<event>
 7    0  0.4725730E-002  0.4499151E+03  0.7546771E-02  0.1027747E+00
         21   -1    0    0  502  501  0.00000000000E+00  0.00000000000E+00  0.21994058691E+03  0.21994058691E+03  0.00000000000E+00 0.  1.
         21   -1    0    0  501  502 -0.00000000000E+00 -0.00000000000E+00 -0.23008899474E+03  0.23008899474E+03  0.00000000000E+00 0.  1.
      99926    2    1    2    0    0  0.00000000000E+00  0.00000000000E+00 -0.10148407824E+02  0.45002958165E+03  0.44991514109E+03 0.  0.
      99925    2    3    3    0    0  0.43321346030E+02 -0.34541652955E+02  0.86746188072E+02  0.28238133196E+03  0.26295332416E+03 0.  0.
         25    1    3    3    0    0 -0.43321346030E+02  0.34541652955E+02 -0.96894595896E+02  0.16764824969E+03  0.12509000000E+03 0.  0.
         25    1    4    4    0    0  0.35102723531E+02  0.72518390898E+01  0.12283660537E+02  0.13070266556E+03  0.12509000000E+03 0.  0.
         25    1    4    4    0    0  0.82186224988E+01 -0.41793492044E+02  0.74462527534E+02  0.15167866640E+03  0.12509000000E+03 0.  0.
<mgrwt>
<rscale>  2 0.44991514E+03</rscale>
<asrwt>0</asrwt>
<pdfrwt beam="1">  1       21 0.32344204E-01 0.44991514E+03</pdfrwt>
<pdfrwt beam="2">  1       21 0.33836617E-01 0.44991514E+03</pdfrwt>
<totfact> 0.71779798E+04</totfact>
</mgrwt>
</event>
<event>
 7    0  0.4725730E-002  0.4581997E+03  0.7546771E-02  0.1025305E+00
         21   -1    0    0  502  501  0.00000000000E+00  0.00000000000E+00  0.71692654246E+03  0.71692654246E+03  0.00000000000E+00 0.  1.
         21   -1    0    0  501  502 -0.00000000000E+00 -0.00000000000E+00 -0.73210763710E+02  0.73210763710E+02  0.00000000000E+00 0.  1.
      99926    2    1    2    0    0  0.00000000000E+00  0.00000000000E+00  0.64371577875E+03  0.79013730617E+03  0.45819969314E+03 0.  0.
      99925    2    3    3    0    0  0.36492126147E+02 -0.21169897804E+02  0.21746996267E+03  0.34391668398E+03  0.26306968851E+03 0.  0.
         25    1    4    4    0    0  0.25829924601E+01 -0.39151181558E+02  0.14025867389E+03  0.19198825633E+03  0.12509000000E+03 0.  0.
         25    1    4    4    0    0  0.33909133687E+02  0.17981283755E+02  0.77211288785E+02  0.15192842765E+03  0.12509000000E+03 0.  0.
         25    1    3    3    0    0 -0.36492126147E+02  0.21169897804E+02  0.42624581608E+03  0.44622062219E+03  0.12509000000E+03 0.  0.
<mgrwt>
<rscale>  2 0.45819969E+03</rscale>
<asrwt>0</asrwt>
<pdfrwt beam="1">  1       21 0.10543037E+00 0.45819969E+03</pdfrwt>
<pdfrwt beam="2">  1       21 0.10766289E-01 0.45819969E+03</pdfrwt>
<totfact> 0.47052791E+04</totfact>
</mgrwt>
</event>
<event>
 7    0  0.4725730E-002  0.4220420E+03  0.7546771E-02  0.1036404E+00
         21   -1    0    0  502  501  0.00000000000E+00  0.00000000000E+00  0.20025105414E+03  0.20025105414E+03  0.00000000000E+00 0.  1.
         21   -1    0    0  501  502 -0.00000000000E+00 -0.00000000000E+00 -0.22237013135E+03  0.22237013135E+03  0.00000000000E+00 0.  1.
      99926    2    1    2    0    0  0.71054273576E-14  0.26645352591E-14 -0.22119077212E+02  0.42262118549E+03  0.42204195626E+03 0.  0.
      99925    2    3    3    0    0 -0.56449144043E+02 -0.63962846904E+01  0.39675896405E+02  0.27197741633E+03  0.26300212911E+03 0.  0.
         25    1    4    4    0    0 -0.39063100047E+02  0.31245952552E+02  0.38780391026E+02  0.14019151959E+03  0.12509000000E+03 0.  0.
         25    1    3    3    0    0  0.56449144043E+02  0.63962846904E+01 -0.61794973617E+02  0.15064376916E+03  0.12509000000E+03 0.  0.
         25    1    4    4    0    0 -0.17386043996E+02 -0.37642237242E+02  0.89550537920E+00  0.13178589674E+03  0.12509000000E+03 0.  0.
<mgrwt>
<rscale>  2 0.42204196E+03</rscale>
<asrwt>0</asrwt>
<pdfrwt beam="1">  1       21 0.29448685E-01 0.42204196E+03</pdfrwt>
<pdfrwt beam="2">  1       21 0.32701490E-01 0.42204196E+03</pdfrwt>
<totfact> 0.93183426E+04</totfact>
</mgrwt>
</event>
<event>
 7    0  0.4725730E-002  0.4481570E+03  0.7546771E-02  0.1028273E+00
         21   -1    0    0  502  501  0.00000000000E+00  0.00000000000E+00  0.44104132201E+03  0.44104132201E+03  0.00000000000E+00 0.  1.
         21   -1    0    0  501  502 -0.00000000000E+00 -0.00000000000E+00 -0.11384689260E+03  0.11384689260E+03  0.00000000000E+00 0.  1.
      99926    2    1    2    0    0  0.00000000000E+00  0.00000000000E+00  0.32719442942E+03  0.55488821461E+03  0.44815704398E+03 0.  0.
      99925    2    3    3    0    0  0.82445620605E+02 -0.32446501887E+02  0.28051367138E+03  0.39464884020E+03  0.26307742471E+03 0.  0.
         25    1    4    4    0    0  0.34128634543E+02  0.21952886399E+02  0.11400520843E+03  0.17404421440E+03  0.12509000000E+03 0.  0.
         25    1    4    4    0    0  0.48316986062E+02 -0.54399388286E+02  0.16650846295E+03  0.22060462579E+03  0.12509000000E+03 0.  0.
         25    1    3    3    0    0 -0.82445620605E+02  0.32446501887E+02  0.46680758038E+02  0.16023937441E+03  0.12509000000E+03 0.  0.
<mgrwt>
<rscale>  2 0.44815704E+03</rscale>
<asrwt>0</asrwt>
<pdfrwt beam="1">  1       21 0.64859018E-01 0.44815704E+03</pdfrwt>
<pdfrwt beam="2">  1       21 0.16742190E-01 0.44815704E+03</pdfrwt>
<totfact> 0.64992082E+04</totfact>
</mgrwt>
</event>
<event>
 7    0  0.4725730E-002  0.4504608E+03  0.7546771E-02  0.1027585E+00
         21   -1    0    0  502  501  0.00000000000E+00  0.00000000000E+00  0.25697557699E+03  0.25697557699E+03  0.00000000000E+00 0.  1.
         21   -1    0    0  501  502 -0.00000000000E+00 -0.00000000000E+00 -0.19740678894E+03  0.19740678894E+03  0.00000000000E+00 0.  1.
      99926    2    1    2    0    0  0.00000000000E+00  0.35527136788E-14  0.59568788049E+02  0.45438236592E+03  0.45046075739E+03 0.  0.
      99925    2    3    3    0    0 -0.21987369793E+02 -0.23513660799E+02 -0.67329161583E+02  0.27331073812E+03  0.26292433683E+03 0.  0.
         25    1    3    3    0    0  0.21987369793E+02  0.23513660799E+02  0.12689794963E+03  0.18107162780E+03  0.12509000000E+03 0.  0.
         25    1    4    4    0    0 -0.12152517162E+02 -0.48008927571E+02 -0.15757191812E+02  0.13545603713E+03  0.12509000000E+03 0.  0.
         25    1    4    4    0    0 -0.98348526307E+01  0.24495266772E+02 -0.51571969770E+02  0.13785470100E+03  0.12509000000E+03 0.  0.
<mgrwt>
<rscale>  2 0.45046076E+03</rscale>
<asrwt>0</asrwt>
<pdfrwt beam="1">  1       21 0.37790526E-01 0.45046076E+03</pdfrwt>
<pdfrwt beam="2">  1       21 0.29030410E-01 0.45046076E+03</pdfrwt>
<totfact> 0.71132207E+04</totfact>
</mgrwt>
</event>
<event>
 7    0  0.4725730E-002  0.4583269E+03  0.7546771E-02  0.1025268E+00
         21   -1    0    0  502  501  0.00000000000E+00  0.00000000000E+00  0.51609325685E+02  0.51609325685E+02  0.00000000000E+00 0.  1.
         21   -1    0    0  501  502 -0.00000000000E+00 -0.00000000000E+00 -0.10175660381E+04  0.10175660381E+04  0.00000000000E+00 0.  1.
      99926    2    1    2    0    0  0.00000000000E+00  0.00000000000E+00 -0.96595671245E+03  0.10691753638E+04  0.45832694474E+03 0.  0.
      99925    2    3    3    0    0  0.35349991747E+02  0.65197715029E+01 -0.34862965607E+03  0.43827732770E+03  0.26315822151E+03 0.  0.
         25    1    4    4    0    0 -0.19336541836E+02 -0.14035494014E+02 -0.15900830035E+03  0.20372050614E+03  0.12509000000E+03 0.  0.
         25    1    3    3    0    0 -0.35349991747E+02 -0.65197715029E+01 -0.61732705638E+03  0.63089803611E+03  0.12509000000E+03 0.  0.
         25    1    4    4    0    0  0.54686533583E+02  0.20555265517E+02 -0.18962135572E+03  0.23455682157E+03  0.12509000000E+03 0.  0.
<mgrwt>
<rscale>  2 0.45832694E+03</rscale>
<asrwt>0</asrwt>
<pdfrwt beam="1">  1       21 0.75896078E-02 0.45832694E+03</pdfrwt>
<pdfrwt beam="2">  1       21 0.14964204E+00 0.45832694E+03</pdfrwt>
<totfact> 0.35647053E+04</totfact>
</mgrwt>
</event>
<event>
 7    0  0.4725730E-002  0.4370343E+03  0.7546771E-02  0.1031661E+00
         21   -1    0    0  502  501  0.00000000000E+00  0.00000000000E+00  0.54619143941E+03  0.54619143941E+03  0.00000000000E+00 0. -1.
         21   -1    0    0  501  502 -0.00000000000E+00 -0.00000000000E+00 -0.87423103118E+02  0.87423103118E+02  0.00000000000E+00 0. -1.
      99926    2    1    2    0    0  0.71054273576E-14  0.00000000000E+00  0.45876833630E+03  0.63361454253E+03  0.43703432602E+03 0.  0.
      99925    2    3    3    0    0 -0.54669581100E+02 -0.50233582473E+02  0.38056580159E+03  0.46846212675E+03  0.26289590896E+03 0.  0.
         25    1    3    3    0    0  0.54669581100E+02  0.50233582473E+02  0.78202534702E+02  0.16515241578E+03  0.12509000000E+03 0.  0.
         25    1    4    4    0    0 -0.59453889397E+02 -0.51875885836E+02  0.20011310152E+03  0.24883455145E+03  0.12509000000E+03 0.  0.
         25    1    4    4    0    0  0.47843082963E+01  0.16423033634E+01  0.18045270007E+03  0.21962757529E+03  0.12509000000E+03 0.  0.
<mgrwt>
<rscale>  2 0.43703433E+03</rscale>
<asrwt>0</asrwt>
<pdfrwt beam="1">  1       21 0.80322269E-01 0.43703433E+03</pdfrwt>
<pdfrwt beam="2">  1       21 0.12856339E-01 0.43703433E+03</pdfrwt>
<totfact> 0.65453519E+04</totfact>
</mgrwt>
</event>
<event>
 7    0  0.4725730E-002  0.4543088E+03  0.7546771E-02  0.1026445E+00
         21   -1    0    0  502  501  0.00000000000E+00  0.00000000000E+00  0.97148186612E+03  0.97148186612E+03  0.00000000000E+00 0.  1.
         21   -1    0    0  501  502 -0.00000000000E+00 -0.00000000000E+00 -0.53113824012E+02  0.53113824012E+02  0.00000000000E+00 0.  1.
      99926    2    1    2    0    0 -0.14210854715E-13  0.00000000000E+00  0.91836804211E+03  0.10245956901E+04  0.45430877988E+03 0.  0.
      99925    2    3    3    0    0  0.11056963537E+03 -0.90587134225E+01  0.62049961297E+03  0.68300995604E+03  0.26301164576E+03 0.  0.
         25    1    4    4    0    0  0.18541450338E+02 -0.26391433138E+02  0.27784570376E+03  0.30640828370E+03  0.12509000000E+03 0.  0.
         25    1    3    3    0    0 -0.11056963537E+03  0.90587134225E+01  0.29786842914E+03  0.34158573409E+03  0.12509000000E+03 0.  0.
         25    1    4    4    0    0  0.92028185036E+02  0.17332719716E+02  0.34265390920E+03  0.37660167234E+03  0.12509000000E+03 0.  0.
<mgrwt>
<rscale>  2 0.45430878E+03</rscale>
<asrwt>0</asrwt>
<pdfrwt beam="1">  1       21 0.14286497E+00 0.45430878E+03</pdfrwt>
<pdfrwt beam="2">  1       21 0.78108571E-02 0.45430878E+03</pdfrwt>
<totfact> 0.38430557E+04</totfact>
</mgrwt>
</event>
<event>
 7    0  0.4725730E-002  0.4509922E+03  0.7546771E-02  0.1027427E+00
         21   -1    0    0  502  501  0.00000000000E+00  0.00000000000E+00  0.10073606068E+03  0.10073606068E+03  0.00000000000E+00 0.  1.
         21   -1    0    0  501  502 -0.00000000000E+00 -0.00000000000E+00 -0.50476939235E+03  0.50476939235E+03  0.00000000000E+00 0.  1.
      99926    2    1    2    0    0  0.00000000000E+00  0.00000000000E+00 -0.40403333167E+03  0.60550545303E+03  0.45099215132E+03 0.  0.
      99925    2    3    3    0    0  0.83665609448E+02 -0.69957098027E+02 -0.26564278132E+03  0.38941893727E+03  0.26303439256E+03 0.  0.
         25    1    3    3    0    0 -0.83665609448E+02  0.69957098027E+02 -0.13839055035E+03  0.21608651577E+03  0.12509000000E+03 0.  0.
         25    1    4    4    0    0  0.73355663055E+02 -0.16107022226E+02 -0.16163310489E+03  0.21774585682E+03  0.12509000000E+03 0.  0.
         25    1    4    4    0    0  0.10309946393E+02 -0.53850075801E+02 -0.10400967643E+03  0.17167308044E+03  0.12509000000E+03 0.  0.
<mgrwt>
<rscale>  2 0.45099215E+03</rscale>
<asrwt>0</asrwt>
<pdfrwt beam="1">  1       21 0.14814127E-01 0.45099215E+03</pdfrwt>
<pdfrwt beam="2">  1       21 0.74230793E-01 0.45099215E+03</pdfrwt>
<totfact> 0.60224935E+04</totfact>
</mgrwt>
</event>
<event>
 7    0  0.4725730E-002  0.4547607E+03  0.7546771E-02  0.1026312E+00
         21   -1    0    0  502  501  0.00000000000E+00  0.00000000000E+00  0.17480620179E+04  0.17480620179E+04  0.00000000000E+00 0. -1.
         21   -1    0    0  501  502 -0.00000000000E+00 -0.00000000000E+00 -0.29576655777E+02  0.29576655777E+02  0.00000000000E+00 0. -1.
      99926    2    1    2    0    0 -0.71054273576E-14  0.00000000000E+00  0.17184853622E+04  0.17776386737E+04  0.45476072206E+03 0.  0.
      99925    2    3    3    0    0 -0.41248327178E+02 -0.10381547096E+03  0.11468193125E+04  0.11818797821E+04  0.26299469064E+03 0.  0.
         25    1    4    4    0    0 -0.55347203548E+02 -0.30848045518E+02  0.55725635446E+03  0.57462776433E+03  0.12509000000E+03 0.  0.
         25    1    3    3    0    0  0.41248327178E+02  0.10381547096E+03  0.57166604963E+03  0.59575889159E+03  0.12509000000E+03 0.  0.
         25    1    4    4    0    0  0.14098876370E+02 -0.72967425442E+02  0.58956295807E+03  0.60725201779E+03  0.12509000000E+03 0.  0.
<mgrwt>
<rscale>  2 0.45476072E+03</rscale>
<asrwt>0</asrwt>
<pdfrwt beam="1">  1       21 0.25706787E+00 0.45476072E+03</pdfrwt>
<pdfrwt beam="2">  1       21 0.43495094E-02 0.45476072E+03</pdfrwt>
<totfact> 0.17726006E+04</totfact>
</mgrwt>
</event>
<event>
 7    0  0.4725730E-002  0.4551436E+03  0.7546771E-02  0.1026199E+00
         21   -1    0    0  502  501  0.00000000000E+00  0.00000000000E+00  0.88543323008E+02  0.88543323008E+02  0.00000000000E+00 0.  1.
         21   -1    0    0  501  502 -0.00000000000E+00 -0.00000000000E+00 -0.58489930352E+03  0.58489930352E+03  0.00000000000E+00 0.  1.
      99926    2    1    2    0    0  0.00000000000E+00  0.00000000000E+00 -0.49635598051E+03  0.67344262653E+03  0.45514361671E+03 0.  0.
      99925    2    3    3    0    0  0.41018530980E+02  0.23361551438E+02 -0.15999881440E+03  0.31148692031E+03  0.26305170394E+03 0.  0.
         25    1    3    3    0    0 -0.41018530980E+02 -0.23361551438E+02 -0.33635716612E+03  0.36195570622E+03  0.12509000000E+03 0.  0.
         25    1    4    4    0    0  0.42098278544E+02  0.26825814713E+02 -0.46334360206E+02  0.14242987898E+03  0.12509000000E+03 0.  0.
         25    1    4    4    0    0 -0.10797475640E+01 -0.34642632755E+01 -0.11366445419E+03  0.16905704132E+03  0.12509000000E+03 0.  0.
<mgrwt>
<rscale>  2 0.45514362E+03</rscale>
<asrwt>0</asrwt>
<pdfrwt beam="1">  1       21 0.13021077E-01 0.45514362E+03</pdfrwt>
<pdfrwt beam="2">  1       21 0.86014604E-01 0.45514362E+03</pdfrwt>
<totfact> 0.54307497E+04</totfact>
</mgrwt>
</event>
<event>
 7    0  0.4725730E-002  0.4534043E+03  0.7546771E-02  0.1026712E+00
         21   -1    0    0  502  501  0.00000000000E+00  0.00000000000E+00  0.32174146914E+03  0.32174146914E+03  0.00000000000E+00 0. -1.
         21   -1    0    0  501  502 -0.00000000000E+00 -0.00000000000E+00 -0.15973655147E+03  0.15973655147E+03  0.00000000000E+00 0. -1.
      99926    2    1    2    0    0  0.00000000000E+00  0.00000000000E+00  0.16200491767E+03  0.48147802061E+03  0.45340433498E+03 0.  0.
      99925    2    3    3    0    0  0.22445034891E+02 -0.47757166911E+02  0.20564060194E+03  0.33887329550E+03  0.26412596740E+03 0.  0.
         25    1    3    3    0    0 -0.22445034891E+02  0.47757166911E+02 -0.43635684261E+02  0.14260472511E+03  0.12509000000E+03 0.  0.
         25    1    4    4    0    0  0.26776018750E+02 -0.61933215147E+02  0.92665961711E+02  0.16966781332E+03  0.12509000000E+03 0.  0.
         25    1    4    4    0    0 -0.43309838588E+01  0.14176048236E+02  0.11297464022E+03  0.16920548218E+03  0.12509000000E+03 0.  0.
<mgrwt>
<rscale>  2 0.45340433E+03</rscale>
<asrwt>0</asrwt>
<pdfrwt beam="1">  1       21 0.47314922E-01 0.45340433E+03</pdfrwt>
<pdfrwt beam="2">  1       21 0.23490669E-01 0.45340433E+03</pdfrwt>
<totfact> 0.67442883E+04</totfact>
</mgrwt>
</event>
<event>
 7    0  0.4725730E-002  0.4560001E+03  0.7546771E-02  0.1025948E+00
         21   -1    0    0  502  501  0.00000000000E+00  0.00000000000E+00  0.13210392385E+04  0.13210392385E+04  0.00000000000E+00 0. -1.
         21   -1    0    0  501  502 -0.00000000000E+00 -0.00000000000E+00 -0.39350853286E+02  0.39350853286E+02  0.00000000000E+00 0. -1.
      99926    2    1    2    0    0  0.14210854715E-13 -0.71054273576E-14  0.12816883852E+04  0.13603900918E+04  0.45600009325E+03 0.  0.
      99925    2    3    3    0    0 -0.77417132192E+02 -0.63862559716E+02  0.64376295494E+03  0.70261490103E+03  0.26299261986E+03 0.  0.
         25    1    3    3    0    0  0.77417132192E+02  0.63862559716E+02  0.63792543030E+03  0.65777519079E+03  0.12509000000E+03 0.  0.
         25    1    4    4    0    0 -0.43671338930E+02 -0.57159802489E+02  0.25787241242E+03  0.29549977673E+03  0.12509000000E+03 0.  0.
         25    1    4    4    0    0 -0.33745793262E+02 -0.67027572272E+01  0.38589054253E+03  0.40711512429E+03  0.12509000000E+03 0.  0.
<mgrwt>
<rscale>  2 0.45600009E+03</rscale>
<asrwt>0</asrwt>
<pdfrwt beam="1">  1       21 0.19427045E+00 0.45600009E+03</pdfrwt>
<pdfrwt beam="2">  1       21 0.57868911E-02 0.45600009E+03</pdfrwt>
<totfact> 0.27194919E+04</totfact>
</mgrwt>
</event>
<event>
 7    0  0.4725730E-002  0.4602559E+03  0.7546771E-02  0.1024707E+00
         21   -1    0    0  502  501  0.00000000000E+00  0.00000000000E+00  0.56664940624E+03  0.56664940624E+03  0.00000000000E+00 0. -1.
         21   -1    0    0  501  502 -0.00000000000E+00 -0.00000000000E+00 -0.93459666438E+02  0.93459666438E+02  0.00000000000E+00 0. -1.
      99926    2    1    2    0    0  0.00000000000E+00  0.66613381478E-15  0.47318973980E+03  0.66010907267E+03  0.46025586142E+03 0.  0.
      99925    2    3    3    0    0  0.18312473501E+02 -0.14374041739E+01  0.12917383218E+03  0.29359595475E+03  0.26301196343E+03 0.  0.
         25    1    3    3    0    0 -0.18312473501E+02  0.14374041739E+01  0.34401590762E+03  0.36651311793E+03  0.12509000000E+03 0.  0.
         25    1    4    4    0    0 -0.88063222129E+01  0.30320033217E+02  0.85087666807E+02  0.15454538126E+03  0.12509000000E+03 0.  0.
         25    1    4    4    0    0  0.27118795714E+02 -0.31757437391E+02  0.44086165370E+02  0.13905057349E+03  0.12509000000E+03 0.  0.
<mgrwt>
<rscale>  2 0.46025586E+03</rscale>
<asrwt>0</asrwt>
<pdfrwt beam="1">  1       21 0.83330793E-01 0.46025586E+03</pdfrwt>
<pdfrwt beam="2">  1       21 0.13744069E-01 0.46025586E+03</pdfrwt>
<totfact> 0.52895704E+04</totfact>
</mgrwt>
</event>
<event>
 7    0  0.4725730E-002  0.4535990E+03  0.7546771E-02  0.1026654E+00
         21   -1    0    0  502  501  0.00000000000E+00  0.00000000000E+00  0.15223142756E+03  0.15223142756E+03  0.00000000000E+00 0. -1.
         21   -1    0    0  501  502 -0.00000000000E+00 -0.00000000000E+00 -0.33789349253E+03  0.33789349253E+03  0.00000000000E+00 0. -1.
      99926    2    1    2    0    0 -0.71054273576E-14 -0.35527136788E-14 -0.18566206497E+03  0.49012492009E+03  0.45359898030E+03 0.  0.
      99925    2    3    3    0    0  0.58915507218E+02  0.16464107727E+02 -0.15749311276E+02  0.27044343293E+03  0.26296293613E+03 0.  0.
         25    1    3    3    0    0 -0.58915507218E+02 -0.16464107727E+02 -0.16991275369E+03  0.21968148716E+03  0.12509000000E+03 0.  0.
         25    1    4    4    0    0  0.60597015120E+02 -0.17607252544E+02 -0.27120645999E+01  0.14013164160E+03  0.12509000000E+03 0.  0.
         25    1    4    4    0    0 -0.16815079020E+01  0.34071360271E+02 -0.13037246676E+02  0.13031179133E+03  0.12509000000E+03 0.  0.
<mgrwt>
<rscale>  2 0.45359898E+03</rscale>
<asrwt>0</asrwt>
<pdfrwt beam="1">  1       21 0.22386975E-01 0.45359898E+03</pdfrwt>
<pdfrwt beam="2">  1       21 0.49690219E-01 0.45359898E+03</pdfrwt>
<totfact> 0.66709009E+04</totfact>
</mgrwt>
</event>
<event>
 7    0  0.4725730E-002  0.4643341E+03  0.7546771E-02  0.1023532E+00
         21   -1    0    0  502  501  0.00000000000E+00  0.00000000000E+00  0.22661475501E+03  0.22661475501E+03  0.00000000000E+00 0. -1.
         21   -1    0    0  501  502 -0.00000000000E+00 -0.00000000000E+00 -0.23785541966E+03  0.23785541966E+03  0.00000000000E+00 0. -1.
      99926    2    1    2    0    0  0.14210854715E-13  0.17763568394E-14 -0.11240664649E+02  0.46447017468E+03  0.46433413683E+03 0.  0.
      99925    2    3    3    0    0 -0.10814746225E+03 -0.13176300530E+02  0.47219885290E+02  0.28858773529E+03  0.26302789758E+03 0.  0.
         25    1    3    3    0    0  0.10814746225E+03  0.13176300530E+02 -0.58460549939E+02  0.17588243939E+03  0.12509000000E+03 0.  0.
         25    1    4    4    0    0 -0.55401257388E+02 -0.23413127002E+02  0.61276314460E+02  0.15172267019E+03  0.12509000000E+03 0.  0.
         25    1    4    4    0    0 -0.52746204859E+02  0.10236826472E+02 -0.14056429170E+02  0.13686506510E+03  0.12509000000E+03 0.  0.
<mgrwt>
<rscale>  2 0.46433414E+03</rscale>
<asrwt>0</asrwt>
<pdfrwt beam="1">  1       21 0.33325700E-01 0.46433414E+03</pdfrwt>
<pdfrwt beam="2">  1       21 0.34978738E-01 0.46433414E+03</pdfrwt>
<totfact> 0.63030772E+04</totfact>
</mgrwt>
</event>
<event>
 7    0  0.4725730E-002  0.4590101E+03  0.7546771E-02  0.1025069E+00
         21   -1    0    0  502  501  0.00000000000E+00  0.00000000000E+00  0.29244504646E+03  0.29244504646E+03  0.00000000000E+00 0.  1.
         21   -1    0    0  501  502 -0.00000000000E+00 -0.00000000000E+00 -0.18011096472E+03  0.18011096472E+03  0.00000000000E+00 0.  1.
      99926    2    1    2    0    0 -0.35527136788E-14  0.00000000000E+00  0.11233408173E+03  0.47255601118E+03  0.45901006284E+03 0.  0.
      99925    2    3    3    0    0 -0.24565955412E+02 -0.85251260070E+02  0.14983066545E+03  0.31468022013E+03  0.26211285570E+03 0.  0.
         25    1    3    3    0    0  0.24565955412E+02  0.85251260070E+02 -0.37496583720E+02  0.15787579105E+03  0.12509000000E+03 0.  0.
         25    1    4    4    0    0  0.16816377072E+02 -0.31761861756E+02  0.99528137412E+02  0.16384433050E+03  0.12509000000E+03 0.  0.
         25    1    4    4    0    0 -0.41382332484E+02 -0.53489398314E+02  0.50302528042E+02  0.15083588963E+03  0.12509000000E+03 0.  0.
<mgrwt>
<rscale>  2 0.45901006E+03</rscale>
<asrwt>0</asrwt>
<pdfrwt beam="1">  1       21 0.43006625E-01 0.45901006E+03</pdfrwt>
<pdfrwt beam="2">  1       21 0.26486907E-01 0.45901006E+03</pdfrwt>
<totfact> 0.65148840E+04</totfact>
</mgrwt>
</event>
<event>
 7    0  0.4725730E-002  0.4526540E+03  0.7546771E-02  0.1026934E+00
         21   -1    0    0  502  501  0.00000000000E+00  0.00000000000E+00  0.60977829437E+03  0.60977829437E+03  0.00000000000E+00 0.  1.
         21   -1    0    0  501  502 -0.00000000000E+00 -0.00000000000E+00 -0.84004143559E+02  0.84004143559E+02  0.00000000000E+00 0.  1.
      99926    2    1    2    0    0 -0.14210854715E-13  0.00000000000E+00  0.52577415081E+03  0.69378243793E+03  0.45265396664E+03 0.  0.
      99925    2    3    3    0    0  0.10964063210E+03  0.49677506271E+01  0.35651326305E+03  0.45641668012E+03  0.26299949127E+03 0.  0.
         25    1    3    3    0    0 -0.10964063210E+03 -0.49677506271E+01  0.16926088777E+03  0.23736575781E+03  0.12509000000E+03 0.  0.
         25    1    4    4    0    0  0.64030405383E+02  0.77838527056E+01  0.24575648887E+03  0.28320353299E+03  0.12509000000E+03 0.  0.
         25    1    4    4    0    0  0.45610226721E+02 -0.28161020785E+01  0.11075677418E+03  0.17321314713E+03  0.12509000000E+03 0.  0.
<mgrwt>
<rscale>  2 0.45265397E+03</rscale>
<asrwt>0</asrwt>
<pdfrwt beam="1">  1       21 0.89673277E-01 0.45265397E+03</pdfrwt>
<pdfrwt beam="2">  1       21 0.12353551E-01 0.45265397E+03</pdfrwt>
<totfact> 0.54236481E+04</totfact>
</mgrwt>
</event>
<event>
 7    0  0.4725730E-002  0.4527852E+03  0.7546771E-02  0.1026895E+00
         21   -1    0    0  502  501  0.00000000000E+00  0.00000000000E+00  0.15065179885E+04  0.15065179885E+04  0.00000000000E+00 0. -1.
         21   -1    0    0  501  502 -0.00000000000E+00 -0.00000000000E+00 -0.34021239549E+02  0.34021239549E+02  0.00000000000E+00 0. -1.
      99926    2    1    2    0    0 -0.17763568394E-14  0.00000000000E+00  0.14724967490E+04  0.15405392281E+04  0.45278520016E+03 0.  0.
      99925    2    3    3    0    0  0.12371754032E+02  0.26855729883E+02  0.56392378132E+03  0.62291913447E+03  0.26295232729E+03 0.  0.
         25    1    4    4    0    0 -0.15712847195E+02  0.75795145997E+01  0.35755584205E+03  0.37920710818E+03  0.12509000000E+03 0.  0.
         25    1    4    4    0    0  0.28084601226E+02  0.19276215283E+02  0.20636793927E+03  0.24371202629E+03  0.12509000000E+03 0.  0.
         25    1    3    3    0    0 -0.12371754032E+02 -0.26855729883E+02  0.90857296765E+03  0.91762009359E+03  0.12509000000E+03 0.  0.
<mgrwt>
<rscale>  2 0.45278520E+03</rscale>
<asrwt>0</asrwt>
<pdfrwt beam="1">  1       21 0.22154672E+00 0.45278520E+03</pdfrwt>
<pdfrwt beam="2">  1       21 0.50031244E-02 0.45278520E+03</pdfrwt>
<totfact> 0.23199355E+04</totfact>
</mgrwt>
</event>
<event>
 7    0  0.4725730E-002  0.4510702E+03  0.7546771E-02  0.1027403E+00
         21   -1    0    0  502  501  0.00000000000E+00  0.00000000000E+00  0.13954705449E+03  0.13954705449E+03  0.00000000000E+00 0. -1.
         21   -1    0    0  501  502 -0.00000000000E+00 -0.00000000000E+00 -0.36450838807E+03  0.36450838807E+03  0.00000000000E+00 0. -1.
      99926    2    1    2    0    0  0.00000000000E+00 -0.14210854715E-13 -0.22496133359E+03  0.50405544256E+03  0.45107015814E+03 0.  0.
      99925    2    3    3    0    0  0.36025556960E+02 -0.10105626124E+03 -0.16659442334E+03  0.32922863397E+03  0.26292124837E+03 0.  0.
         25    1    4    4    0    0  0.33374442864E+01 -0.89381237484E+02 -0.81906629811E+02  0.17423073281E+03  0.12509000000E+03 0.  0.
         25    1    4    4    0    0  0.32688112674E+02 -0.11675023757E+02 -0.84687793531E+02  0.15499790116E+03  0.12509000000E+03 0.  0.
         25    1    3    3    0    0 -0.36025556960E+02  0.10105626124E+03 -0.58366910244E+02  0.17482680859E+03  0.12509000000E+03 0.  0.
<mgrwt>
<rscale>  2 0.45107016E+03</rscale>
<asrwt>0</asrwt>
<pdfrwt beam="1">  1       21 0.20521626E-01 0.45107016E+03</pdfrwt>
<pdfrwt beam="2">  1       21 0.53604174E-01 0.45107016E+03</pdfrwt>
<totfact> 0.67053902E+04</totfact>
</mgrwt>
</event>
<event>
 7    0  0.4725730E-002  0.4693718E+03  0.7546771E-02  0.1022098E+00
         21   -1    0    0  502  501  0.00000000000E+00  0.00000000000E+00  0.74747955053E+02  0.74747955053E+02  0.00000000000E+00 0.  1.
         21   -1    0    0  501  502 -0.00000000000E+00 -0.00000000000E+00 -0.73684249882E+03  0.73684249882E+03  0.00000000000E+00 0.  1.
      99926    2    1    2    0    0  0.00000000000E+00  0.00000000000E+00 -0.66209454376E+03  0.81159045387E+03  0.46937179286E+03 0.  0.
      99925    2    3    3    0    0 -0.96337877449E+02 -0.19834581225E+02 -0.27452411429E+03  0.39262417462E+03  0.26289894623E+03 0.  0.
         25    1    4    4    0    0 -0.28965421274E+02 -0.45289386838E+02 -0.12582813228E+03  0.18539242477E+03  0.12509000000E+03 0.  0.
         25    1    4    4    0    0 -0.67372456175E+02  0.25454805614E+02 -0.14869598201E+03  0.20723174985E+03  0.12509000000E+03 0.  0.
         25    1    3    3    0    0  0.96337877449E+02  0.19834581225E+02 -0.38757042948E+03  0.41896627925E+03  0.12509000000E+03 0.  0.
<mgrwt>
<rscale>  2 0.46937179E+03</rscale>
<asrwt>0</asrwt>
<pdfrwt beam="1">  1       21 0.10992346E-01 0.46937179E+03</pdfrwt>
<pdfrwt beam="2">  1       21 0.10835919E+00 0.46937179E+03</pdfrwt>
<totfact> 0.42240233E+04</totfact>
</mgrwt>
</event>
<event>
 7    0  0.4725730E-002  0.4623208E+03  0.7546771E-02  0.1024110E+00
         21   -1    0    0  502  501  0.00000000000E+00  0.00000000000E+00  0.72273686898E+02  0.72273686898E+02  0.00000000000E+00 0.  1.
         21   -1    0    0  501  502 -0.00000000000E+00 -0.00000000000E+00 -0.73934420432E+03  0.73934420432E+03  0.00000000000E+00 0.  1.
      99926    2    1    2    0    0 -0.17763568394E-14  0.00000000000E+00 -0.66707051742E+03  0.81161789122E+03  0.46232080435E+03 0.  0.
      99925    2    3    3    0    0 -0.83800158766E+01 -0.78845754590E+02 -0.57535776175E+03  0.63741796201E+03  0.26263706250E+03 0.  0.
         25    1    4    4    0    0  0.29048877795E+02 -0.15923181812E+02 -0.27275461116E+03  0.30189397316E+03  0.12509000000E+03 0.  0.
         25    1    4    4    0    0 -0.37428893671E+02 -0.62922572778E+02 -0.30260315059E+03  0.33552398885E+03  0.12509000000E+03 0.  0.
         25    1    3    3    0    0  0.83800158766E+01  0.78845754590E+02 -0.91712755666E+02  0.17419992920E+03  0.12509000000E+03 0.  0.
<mgrwt>
<rscale>  2 0.46232080E+03</rscale>
<asrwt>0</asrwt>
<pdfrwt beam="1">  1       21 0.10628483E-01 0.46232080E+03</pdfrwt>
<pdfrwt beam="2">  1       21 0.10872709E+00 0.46232080E+03</pdfrwt>
<totfact> 0.44590660E+04</totfact>
</mgrwt>
</event>
<event>
 7    0  0.4725730E-002  0.4375112E+03  0.7546771E-02  0.1031513E+00
         21   -1    0    0  502  501  0.00000000000E+00  0.00000000000E+00  0.15798311898E+03  0.15798311898E+03  0.00000000000E+00 0.  1.
         21   -1    0    0  501  502 -0.00000000000E+00 -0.00000000000E+00 -0.30290580642E+03  0.30290580642E+03  0.00000000000E+00 0.  1.
      99926    2    1    2    0    0  0.88817841970E-15  0.00000000000E+00 -0.14492268743E+03  0.46088892540E+03  0.43751116126E+03 0.  0.
      99925    2    3    3    0    0  0.61116925430E+01 -0.93461351938E+02 -0.11285282731E+03  0.30136350072E+03  0.26327138440E+03 0.  0.
         25    1    4    4    0    0 -0.14657742557E+02 -0.74794671141E+02 -0.32352814197E+02  0.15001101604E+03  0.12509000000E+03 0.  0.
         25    1    3    3    0    0 -0.61116925430E+01  0.93461351938E+02 -0.32069860126E+02  0.15952542468E+03  0.12509000000E+03 0.  0.
         25    1    4    4    0    0  0.20769435100E+02 -0.18666680798E+02 -0.80500013108E+02  0.15135248467E+03  0.12509000000E+03 0.  0.
<mgrwt>
<rscale>  2 0.43751116E+03</rscale>
<asrwt>0</asrwt>
<pdfrwt beam="1">  1       21 0.23232812E-01 0.43751116E+03</pdfrwt>
<pdfrwt beam="2">  1       21 0.44544971E-01 0.43751116E+03</pdfrwt>
<totfact> 0.78453606E+04</totfact>
</mgrwt>
</event>
<event>
 7    0  0.4725730E-002  0.4451067E+03  0.7546771E-02  0.1029191E+00
         21   -1    0    0  502  501  0.00000000000E+00  0.00000000000E+00  0.37507378608E+02  0.37507378608E+02  0.00000000000E+00 0. -1.
         21   -1    0    0  501  502 -0.00000000000E+00 -0.00000000000E+00 -0.13205399199E+04  0.13205399199E+04  0.00000000000E+00 0. -1.
      99926    2    1    2    0    0  0.00000000000E+00  0.00000000000E+00 -0.12830325413E+04  0.13580472985E+04  0.44510668718E+03 0.  0.
      99925    2    3    3    0    0 -0.31978319523E+02  0.88815746702E+02 -0.68416666509E+03  0.73901685050E+03  0.26296583413E+03 0.  0.
         25    1    4    4    0    0  0.17129400377E+02  0.22440593072E+02 -0.28051910389E+03  0.30844038699E+03  0.12509000000E+03 0.  0.
         25    1    4    4    0    0 -0.49107719900E+02  0.66375153630E+02 -0.40364756120E+03  0.43057646352E+03  0.12509000000E+03 0.  0.
         25    1    3    3    0    0  0.31978319523E+02 -0.88815746702E+02 -0.59886587621E+03  0.61903044801E+03  0.12509000000E+03 0.  0.
<mgrwt>
<rscale>  2 0.44510669E+03</rscale>
<asrwt>0</asrwt>
<pdfrwt beam="1">  1       21 0.55157914E-02 0.44510669E+03</pdfrwt>
<pdfrwt beam="2">  1       21 0.19419703E+00 0.44510669E+03</pdfrwt>
<totfact> 0.29690134E+04</totfact>
</mgrwt>
</event>
<event>
 7    0  0.4725730E-002  0.4562674E+03  0.7546771E-02  0.1025869E+00
         21   -1    0    0  502  501  0.00000000000E+00  0.00000000000E+00  0.43917621678E+02  0.43917621678E+02  0.00000000000E+00 0.  1.
         21   -1    0    0  501  502 -0.00000000000E+00 -0.00000000000E+00 -0.11850594235E+04  0.11850594235E+04  0.00000000000E+00 0.  1.
      99926    2    1    2    0    0  0.88817841970E-15  0.71054273576E-14 -0.11411418018E+04  0.12289770452E+04  0.45626742784E+03 0.  0.
      99925    2    3    3    0    0 -0.55292353652E+01 -0.48846456935E+02 -0.99521656643E+03  0.10305879547E+04  0.26313298818E+03 0.  0.
         25    1    3    3    0    0  0.55292353652E+01  0.48846456935E+02 -0.14592523539E+03  0.19838909048E+03  0.12509000000E+03 0.  0.
         25    1    4    4    0    0 -0.20876531901E+02  0.11191166519E+02 -0.43570377758E+03  0.45392329935E+03  0.12509000000E+03 0.  0.
         25    1    4    4    0    0  0.15347296536E+02 -0.60037623453E+02 -0.55951278885E+03  0.57666465535E+03  0.12509000000E+03 0.  0.
<mgrwt>
<rscale>  2 0.45626743E+03</rscale>
<asrwt>0</asrwt>
<pdfrwt beam="1">  1       21 0.64584746E-02 0.45626743E+03</pdfrwt>
<pdfrwt beam="2">  1       21 0.17427342E+00 0.45626743E+03</pdfrwt>
<totfact> 0.30942638E+04</totfact>
</mgrwt>
</event>
<event>
 7    0  0.4725730E-002  0.4525643E+03  0.7546771E-02  0.1026960E+00
         21   -1    0    0  502  501  0.00000000000E+00  0.00000000000E+00  0.15907298364E+03  0.15907298364E+03  0.00000000000E+00 0. -1.
         21   -1    0    0  501  502 -0.00000000000E+00 -0.00000000000E+00 -0.32188755593E+03  0.32188755593E+03  0.00000000000E+00 0. -1.
      99926    2    1    2    0    0  0.71054273576E-14  0.00000000000E+00 -0.16281457230E+03  0.48096053957E+03  0.45256431109E+03 0.  0.
      99925    2    3    3    0    0 -0.48285445562E+02 -0.90339924626E+02 -0.14778521679E+03  0.31858389143E+03  0.26298752697E+03 0.  0.
         25    1    4    4    0    0 -0.18822938575E+02 -0.78277496917E+02 -0.10690232336E+03  0.18318647434E+03  0.12509000000E+03 0.  0.
         25    1    3    3    0    0  0.48285445562E+02  0.90339924626E+02 -0.15029355507E+02  0.16237664814E+03  0.12509000000E+03 0.  0.
         25    1    4    4    0    0 -0.29462506987E+02 -0.12062427709E+02 -0.40882893432E+02  0.13539741709E+03  0.12509000000E+03 0.  0.
<mgrwt>
<rscale>  2 0.45256431E+03</rscale>
<asrwt>0</asrwt>
<pdfrwt beam="1">  1       21 0.23393086E-01 0.45256431E+03</pdfrwt>
<pdfrwt beam="2">  1       21 0.47336404E-01 0.45256431E+03</pdfrwt>
<totfact> 0.67934244E+04</totfact>
</mgrwt>
</event>
<event>
 7    0  0.4725730E-002  0.4916694E+03  0.7546771E-02  0.1015976E+00
         21   -1    0    0  502  501  0.00000000000E+00  0.00000000000E+00  0.11497845670E+04  0.11497845670E+04  0.00000000000E+00 0. -1.
         21   -1    0    0  501  502 -0.00000000000E+00 -0.00000000000E+00 -0.52561758226E+02  0.52561758226E+02  0.00000000000E+00 0. -1.
      99926    2    1    2    0    0  0.00000000000E+00  0.00000000000E+00  0.10972228087E+04  0.12023463252E+04  0.49166939470E+03 0.  0.
      99925    2    3    3    0    0  0.80683604641E+02  0.65622872590E+02  0.91675069962E+03  0.95937740591E+03  0.26297710215E+03 0.  0.
         25    1    4    4    0    0  0.76694419051E+02  0.14260271717E+02  0.46586772541E+03  0.48863650595E+03  0.12509000000E+03 0.  0.
         25    1    4    4    0    0  0.39891855891E+01  0.51362600873E+02  0.45088297421E+03  0.47074089997E+03  0.12509000000E+03 0.  0.
         25    1    3    3    0    0 -0.80683604641E+02 -0.65622872590E+02  0.18047210911E+03  0.24296891927E+03  0.12509000000E+03 0.  0.
<mgrwt>
<rscale>  2 0.49166939E+03</rscale>
<asrwt>0</asrwt>
<pdfrwt beam="1">  1       21 0.16908595E+00 0.49166939E+03</pdfrwt>
<pdfrwt beam="2">  1       21 0.77296710E-02 0.49166939E+03</pdfrwt>
<totfact> 0.24346919E+04</totfact>
</mgrwt>
</event>
<event>
 7    0  0.4725730E-002  0.4602074E+03  0.7546771E-02  0.1024721E+00
         21   -1    0    0  502  501  0.00000000000E+00  0.00000000000E+00  0.32265683281E+03  0.32265683281E+03  0.00000000000E+00 0. -1.
         21   -1    0    0  501  502 -0.00000000000E+00 -0.00000000000E+00 -0.16409917578E+03  0.16409917578E+03  0.00000000000E+00 0. -1.
      99926    2    1    2    0    0  0.00000000000E+00 -0.26645352591E-14  0.15855765703E+03  0.48675600859E+03  0.46020743290E+03 0.  0.
      99925    2    3    3    0    0 -0.27247285355E+02  0.45812135216E+01  0.22057667561E+03  0.34442797607E+03  0.26308393870E+03 0.  0.
         25    1    3    3    0    0  0.27247285355E+02 -0.45812135216E+01 -0.62019018579E+02  0.14232803252E+03  0.12509000000E+03 0.  0.
         25    1    4    4    0    0  0.29896650975E+01 -0.21473996658E+02  0.71244422999E+02  0.14557934791E+03  0.12509000000E+03 0.  0.
         25    1    4    4    0    0 -0.30236950452E+02  0.26055210180E+02  0.14933225261E+03  0.19884862816E+03  0.12509000000E+03 0.  0.
<mgrwt>
<rscale>  2 0.46020743E+03</rscale>
<asrwt>0</asrwt>
<pdfrwt beam="1">  1       21 0.47449534E-01 0.46020743E+03</pdfrwt>
<pdfrwt beam="2">  1       21 0.24132232E-01 0.46020743E+03</pdfrwt>
<totfact> 0.63543859E+04</totfact>
</mgrwt>
</event>
<event>
 7    0  0.4725730E-002  0.4620041E+03  0.7546771E-02  0.1024202E+00
         21   -1    0    0  502  501  0.00000000000E+00  0.00000000000E+00  0.16177801217E+04  0.16177801217E+04  0.00000000000E+00 0. -1.
         21   -1    0    0  501  502 -0.00000000000E+00 -0.00000000000E+00 -0.32984671711E+02  0.32984671711E+02  0.00000000000E+00 0. -1.
      99926    2    1    2    0    0  0.00000000000E+00  0.71054273576E-14  0.15847954500E+04  0.16507647934E+04  0.46200409615E+03 0.  0.
      99925    2    3    3    0    0 -0.81166765482E+02  0.35346163004E+02  0.12786719950E+04  0.13084250895E+04  0.26293867930E+03 0.  0.
         25    1    3    3    0    0  0.81166765482E+02 -0.35346163004E+02  0.30612345504E+03  0.34233970392E+03  0.12509000000E+03 0.  0.
         25    1    4    4    0    0 -0.28987035882E+02  0.50508964810E+02  0.74016189033E+03  0.75291336538E+03  0.12509000000E+03 0.  0.
         25    1    4    4    0    0 -0.52179729600E+02 -0.15162801806E+02  0.53851010466E+03  0.55551172414E+03  0.12509000000E+03 0.  0.
<mgrwt>
<rscale>  2 0.46200410E+03</rscale>
<asrwt>0</asrwt>
<pdfrwt beam="1">  1       21 0.23790879E+00 0.46200410E+03</pdfrwt>
<pdfrwt beam="2">  1       21 0.48506881E-02 0.46200410E+03</pdfrwt>
<totfact> 0.19238855E+04</totfact>
</mgrwt>
</event>
<event>
 7    0  0.4725730E-002  0.4493592E+03  0.7546771E-02  0.1027913E+00
         21   -1    0    0  502  501  0.00000000000E+00  0.00000000000E+00  0.21113988983E+03  0.21113988983E+03  0.00000000000E+00 0.  1.
         21   -1    0    0  501  502 -0.00000000000E+00 -0.00000000000E+00 -0.23908754502E+03  0.23908754502E+03  0.00000000000E+00 0.  1.
      99926    2    1    2    0    0  0.00000000000E+00 -0.71054273576E-14 -0.27947655190E+02  0.45022743485E+03  0.44935917890E+03 0.  0.
      99925    2    3    3    0    0  0.79591713998E+01  0.46068340178E+02 -0.11502611647E+03  0.29080407742E+03  0.26296456719E+03 0.  0.
         25    1    4    4    0    0  0.15167739511E+02 -0.10030930687E+02 -0.32092302636E+02  0.13041512137E+03  0.12509000000E+03 0.  0.
         25    1    4    4    0    0 -0.72085681112E+01  0.56099270865E+02 -0.82933813836E+02  0.16038895605E+03  0.12509000000E+03 0.  0.
         25    1    3    3    0    0 -0.79591713998E+01 -0.46068340178E+02  0.87078461283E+02  0.15942335743E+03  0.12509000000E+03 0.  0.
<mgrwt>
<rscale>  2 0.44935918E+03</rscale>
<asrwt>0</asrwt>
<pdfrwt beam="1">  1       21 0.31049984E-01 0.44935918E+03</pdfrwt>
<pdfrwt beam="2">  1       21 0.35159933E-01 0.44935918E+03</pdfrwt>
<totfact> 0.72087085E+04</totfact>
</mgrwt>
</event>
<event>
 7    0  0.4725730E-002  0.4520315E+03  0.7546771E-02  0.1027118E+00
         21   -1    0    0  502  501  0.00000000000E+00  0.00000000000E+00  0.21740447248E+04  0.21740447248E+04  0.00000000000E+00 0.  1.
         21   -1    0    0  501  502 -0.00000000000E+00 -0.00000000000E+00 -0.23496807494E+02  0.23496807494E+02  0.00000000000E+00 0.  1.
      99926    2    1    2    0    0  0.14210854715E-13  0.00000000000E+00  0.21505479174E+04  0.21975415323E+04  0.45203146078E+03 0.  0.
      99925    2    3    3    0    0  0.72837189027E+02 -0.49551995125E+02  0.10366639641E+04  0.10731992242E+04  0.26329402606E+03 0.  0.
         25    1    3    3    0    0 -0.72837189027E+02  0.49551995125E+02  0.11138839533E+04  0.11243423081E+04  0.12509000000E+03 0.  0.
         25    1    4    4    0    0  0.27438571178E+02 -0.58099518488E+02  0.44485798716E+03  0.46655606959E+03  0.12509000000E+03 0.  0.
         25    1    4    4    0    0  0.45398617848E+02  0.85475233630E+01  0.59180597693E+03  0.60664315466E+03  0.12509000000E+03 0.  0.
<mgrwt>
<rscale>  2 0.45203146E+03</rscale>
<asrwt>0</asrwt>
<pdfrwt beam="1">  1       21 0.31971232E+00 0.45203146E+03</pdfrwt>
<pdfrwt beam="2">  1       21 0.34554143E-02 0.45203146E+03</pdfrwt>
<totfact> 0.10995987E+04</totfact>
</mgrwt>
</event>
<event>
 7    0  0.4725730E-002  0.4223438E+03  0.7546771E-02  0.1036306E+00
         21   -1    0    0  502  501  0.00000000000E+00  0.00000000000E+00  0.27735434036E+03  0.27735434036E+03  0.00000000000E+00 0.  1.
         21   -1    0    0  501  502 -0.00000000000E+00 -0.00000000000E+00 -0.16078196408E+03  0.16078196408E+03  0.00000000000E+00 0.  1.
      99926    2    1    2    0    0 -0.35527136788E-14  0.00000000000E+00  0.11657237628E+03  0.43813630443E+03  0.42234382007E+03 0.  0.
      99925    2    3    3    0    0  0.19936081958E+02 -0.48864507596E+01  0.15474456452E+03  0.30575069789E+03  0.26289976083E+03 0.  0.
         25    1    3    3    0    0 -0.19936081958E+02  0.48864507596E+01 -0.38172188246E+02  0.13238560655E+03  0.12509000000E+03 0.  0.
         25    1    4    4    0    0  0.40660146092E+02 -0.19036620475E+02  0.10270804762E+03  0.16796455443E+03  0.12509000000E+03 0.  0.
         25    1    4    4    0    0 -0.20724064134E+02  0.14150169715E+02  0.52036516907E+02  0.13778614346E+03  0.12509000000E+03 0.  0.
<mgrwt>
<rscale>  2 0.42234382E+03</rscale>
<asrwt>0</asrwt>
<pdfrwt beam="1">  1       21 0.40787403E-01 0.42234382E+03</pdfrwt>
<pdfrwt beam="2">  1       21 0.23644407E-01 0.42234382E+03</pdfrwt>
<totfact> 0.91346666E+04</totfact>
</mgrwt>
</event>
<event>
 7    0  0.4725730E-002  0.4644345E+03  0.7546771E-02  0.1023503E+00
         21   -1    0    0  502  501  0.00000000000E+00  0.00000000000E+00  0.67491122815E+02  0.67491122815E+02  0.00000000000E+00 0.  1.
         21   -1    0    0  501  502 -0.00000000000E+00 -0.00000000000E+00 -0.79899171655E+03  0.79899171655E+03  0.00000000000E+00 0.  1.
      99926    2    1    2    0    0 -0.71054273576E-14  0.00000000000E+00 -0.73150059373E+03  0.86648283937E+03  0.46443448653E+03 0.  0.
      99925    2    3    3    0    0  0.51764235512E+02 -0.65026153310E+02 -0.62262586719E+03  0.68098580200E+03  0.26300333711E+03 0.  0.
         25    1    3    3    0    0 -0.51764235512E+02  0.65026153310E+02 -0.10887472654E+03  0.18549703737E+03  0.12509000000E+03 0.  0.
         25    1    4    4    0    0  0.10433194569E+02  0.20307492845E-01 -0.34039554995E+03  0.36280227464E+03  0.12509000000E+03 0.  0.
         25    1    4    4    0    0  0.41331040943E+02 -0.65046460803E+02 -0.28223031724E+03  0.31818352736E+03  0.12509000000E+03 0.  0.
<mgrwt>
<rscale>  2 0.46443449E+03</rscale>
<asrwt>0</asrwt>
<pdfrwt beam="1">  1       21 0.99251657E-02 0.46443449E+03</pdfrwt>
<pdfrwt beam="2">  1       21 0.11749877E+00 0.46443449E+03</pdfrwt>
<totfact> 0.41549814E+04</totfact>
</mgrwt>
</event>
<event>
 7    0  0.4725730E-002  0.4560594E+03  0.7546771E-02  0.1025930E+00
         21   -1    0    0  502  501  0.00000000000E+00  0.00000000000E+00  0.17415106059E+03  0.17415106059E+03  0.00000000000E+00 0. -1.
         21   -1    0    0  501  502 -0.00000000000E+00 -0.00000000000E+00 -0.29857727507E+03  0.29857727507E+03  0.00000000000E+00 0. -1.
      99926    2    1    2    0    0  0.00000000000E+00  0.88817841970E-15 -0.12442621448E+03  0.47272833566E+03  0.45605942211E+03 0.  0.
      99925    2    3    3    0    0  0.76821262193E+02 -0.64630014715E+01 -0.16527827264E+03  0.32021710503E+03  0.26320868191E+03 0.  0.
         25    1    3    3    0    0 -0.76821262193E+02  0.64630014715E+01  0.40852058164E+02  0.15251123063E+03  0.12509000000E+03 0.  0.
         25    1    4    4    0    0  0.51481829962E+02 -0.10604875208E+02 -0.40312871753E+02  0.14154673406E+03  0.12509000000E+03 0.  0.
         25    1    4    4    0    0  0.25339432230E+02  0.41418737369E+01 -0.12496540089E+03  0.17867037097E+03  0.12509000000E+03 0.  0.
<mgrwt>
<rscale>  2 0.45605942E+03</rscale>
<asrwt>0</asrwt>
<pdfrwt beam="1">  1       21 0.25610450E-01 0.45605942E+03</pdfrwt>
<pdfrwt beam="2">  1       21 0.43908423E-01 0.45605942E+03</pdfrwt>
<totfact> 0.66671217E+04</totfact>
</mgrwt>
</event>
<event>
 7    0  0.4725730E-002  0.4518084E+03  0.7546771E-02  0.1027184E+00
         21   -1    0    0  502  501  0.00000000000E+00  0.00000000000E+00  0.50886952917E+03  0.50886952917E+03  0.00000000000E+00 0. -1.
         21   -1    0    0  501  502 -0.00000000000E+00 -0.00000000000E+00 -0.10028642050E+03  0.10028642050E+03  0.00000000000E+00 0. -1.
      99926    2    1    2    0    0  0.00000000000E+00 -0.71054273576E-14  0.40858310867E+03  0.60915594967E+03  0.45180838231E+03 0.  0.
      99925    2    3    3    0    0 -0.88251638093E+00  0.63599040516E+02  0.37894531533E+03  0.46572818498E+03  0.26316833678E+03 0.  0.
         25    1    4    4    0    0 -0.68986862649E+00  0.60387721910E+02  0.25032435124E+03  0.28628122851E+03  0.12509000000E+03 0.  0.
         25    1    3    3    0    0  0.88251638093E+00 -0.63599040516E+02  0.29637793336E+02  0.14342776469E+03  0.12509000000E+03 0.  0.
         25    1    4    4    0    0 -0.19264775444E+00  0.32113186059E+01  0.12862096410E+03  0.17944695647E+03  0.12509000000E+03 0.  0.
<mgrwt>
<rscale>  2 0.45180838E+03</rscale>
<asrwt>0</asrwt>
<pdfrwt beam="1">  1       21 0.74833753E-01 0.45180838E+03</pdfrwt>
<pdfrwt beam="2">  1       21 0.14748003E-01 0.45180838E+03</pdfrwt>
<totfact> 0.59606773E+04</totfact>
</mgrwt>
</event>
<event>
 7    0  0.4725730E-002  0.4522613E+03  0.7546771E-02  0.1027050E+00
         21   -1    0    0  502  501  0.00000000000E+00  0.00000000000E+00  0.95985391896E+02  0.95985391896E+02  0.00000000000E+00 0.  1.
         21   -1    0    0  501  502 -0.00000000000E+00 -0.00000000000E+00 -0.53273814746E+03  0.53273814746E+03  0.00000000000E+00 0.  1.
      99926    2    1    2    0    0 -0.17763568394E-14 -0.14210854715E-13 -0.43675275556E+03  0.62872353936E+03  0.45226133977E+03 0.  0.
      99925    2    3    3    0    0 -0.73652681769E+01 -0.10182810199E+03 -0.33461625468E+03  0.43766704917E+03  0.26298516784E+03 0.  0.
         25    1    3    3    0    0  0.73652681769E+01  0.10182810199E+03 -0.10213650089E+03  0.19105649019E+03  0.12509000000E+03 0.  0.
         25    1    4    4    0    0  0.13824987525E+02 -0.12037754916E+02 -0.14096149436E+03  0.18935070323E+03  0.12509000000E+03 0.  0.
         25    1    4    4    0    0 -0.21190255702E+02 -0.89790347072E+02 -0.19365476032E+03  0.24831634593E+03  0.12509000000E+03 0.  0.
<mgrwt>
<rscale>  2 0.45226134E+03</rscale>
<asrwt>0</asrwt>
<pdfrwt beam="1">  1       21 0.14115498E-01 0.45226134E+03</pdfrwt>
<pdfrwt beam="2">  1       21 0.78343847E-01 0.45226134E+03</pdfrwt>
<totfact> 0.58192114E+04</totfact>
</mgrwt>
</event>
<event>
 7    0  0.4725730E-002  0.4556430E+03  0.7546771E-02  0.1026052E+00
         21   -1    0    0  502  501  0.00000000000E+00  0.00000000000E+00  0.12503536183E+03  0.12503536183E+03  0.00000000000E+00 0. -1.
         21   -1    0    0  501  502 -0.00000000000E+00 -0.00000000000E+00 -0.41510373322E+03  0.41510373322E+03  0.00000000000E+00 0. -1.
      99926    2    1    2    0    0 -0.15543122345E-14 -0.14210854715E-13 -0.29006837139E+03  0.54013909505E+03  0.45564304221E+03 0.  0.
      99925    2    3    3    0    0 -0.95011952271E+00 -0.11411667007E+03 -0.17815779953E+03  0.33717357751E+03  0.26253057483E+03 0.  0.
         25    1    4    4    0    0 -0.24492689439E+02 -0.82139933897E+02 -0.69580613914E+02  0.16684073396E+03  0.12509000000E+03 0.  0.
         25    1    4    4    0    0  0.23542569917E+02 -0.31976736173E+02 -0.10857718562E+03  0.17033284355E+03  0.12509000000E+03 0.  0.
         25    1    3    3    0    0  0.95011952271E+00  0.11411667007E+03 -0.11191057185E+03  0.20296551753E+03  0.12509000000E+03 0.  0.
<mgrwt>
<rscale>  2 0.45564304E+03</rscale>
<asrwt>0</asrwt>
<pdfrwt beam="1">  1       21 0.18387553E-01 0.45564304E+03</pdfrwt>
<pdfrwt beam="2">  1       21 0.61044667E-01 0.45564304E+03</pdfrwt>
<totfact> 0.62205701E+04</totfact>
</mgrwt>
</event>
<event>
 7    0  0.4725730E-002  0.4533910E+03  0.7546771E-02  0.1026716E+00
         21   -1    0    0  502  501  0.00000000000E+00  0.00000000000E+00  0.12490001543E+04  0.12490001543E+04  0.00000000000E+00 0. -1.
         21   -1    0    0  501  502 -0.00000000000E+00 -0.00000000000E+00 -0.41145587890E+02  0.41145587890E+02  0.00000000000E+00 0. -1.
      99926    2    1    2    0    0  0.00000000000E+00  0.35527136788E-14  0.12078545664E+04  0.12901457422E+04  0.45339098192E+03 0.  0.
      99925    2    3    3    0    0  0.66770996890E+02 -0.29354814098E+02  0.52066327454E+03  0.58786413851E+03  0.26300937010E+03 0.  0.
         25    1    3    3    0    0 -0.66770996890E+02  0.29354814098E+02  0.68719129186E+03  0.70228160366E+03  0.12509000000E+03 0.  0.
         25    1    4    4    0    0  0.61430232334E+02  0.15415933877E+01  0.21634961135E+03  0.25735328322E+03  0.12509000000E+03 0.  0.
         25    1    4    4    0    0  0.53407645564E+01 -0.30896407486E+02  0.30431366319E+03  0.33051085529E+03  0.12509000000E+03 0.  0.
<mgrwt>
<rscale>  2 0.45339098E+03</rscale>
<asrwt>0</asrwt>
<pdfrwt beam="1">  1       21 0.18367647E+00 0.45339098E+03</pdfrwt>
<pdfrwt beam="2">  1       21 0.60508226E-02 0.45339098E+03</pdfrwt>
<totfact> 0.29773125E+04</totfact>
</mgrwt>
</event>
<event>
 7    0  0.4725730E-002  0.4617689E+03  0.7546771E-02  0.1024269E+00
         21   -1    0    0  502  501  0.00000000000E+00  0.00000000000E+00  0.57263670942E+02  0.57263670942E+02  0.00000000000E+00 0. -1.
         21   -1    0    0  501  502 -0.00000000000E+00 -0.00000000000E+00 -0.93091533143E+03  0.93091533143E+03  0.00000000000E+00 0. -1.
      99926    2    1    2    0    0 -0.14210854715E-13  0.00000000000E+00 -0.87365166048E+03  0.98817900237E+03  0.46176889983E+03 0.  0.
      99925    2    3    3    0    0  0.86314222814E+02  0.68408362068E+02 -0.44619146952E+03  0.52937667890E+03  0.26272227091E+03 0.  0.
         25    1    3    3    0    0 -0.86314222814E+02 -0.68408362068E+02 -0.42746019096E+03  0.45880232346E+03  0.12509000000E+03 0.  0.
         25    1    4    4    0    0  0.63934312982E+02  0.49062565350E+02 -0.29884763397E+03  0.33384449692E+03  0.12509000000E+03 0.  0.
         25    1    4    4    0    0  0.22379909832E+02  0.19345796718E+02 -0.14734383555E+03  0.19553218198E+03  0.12509000000E+03 0.  0.
<mgrwt>
<rscale>  2 0.46176890E+03</rscale>
<asrwt>0</asrwt>
<pdfrwt beam="1">  1       21 0.84211286E-02 0.46176890E+03</pdfrwt>
<pdfrwt beam="2">  1       21 0.13689930E+00 0.46176890E+03</pdfrwt>
<totfact> 0.37601838E+04</totfact>
</mgrwt>
</event>
<event>
 7    0  0.4725730E-002  0.4316990E+03  0.7546771E-02  0.1033325E+00
         21   -1    0    0  502  501  0.00000000000E+00  0.00000000000E+00  0.50403191066E+02  0.50403191066E+02  0.00000000000E+00 0. -1.
         21   -1    0    0  501  502 -0.00000000000E+00 -0.00000000000E+00 -0.92436617759E+03  0.92436617759E+03  0.00000000000E+00 0. -1.
      99926    2    1    2    0    0  0.00000000000E+00  0.00000000000E+00 -0.87396298653E+03  0.97476936866E+03  0.43169899265E+03 0.  0.
      99925    2    3    3    0    0  0.44412517604E+02 -0.23704178280E+02 -0.39528085229E+03  0.47745814465E+03  0.26303035550E+03 0.  0.
         25    1    4    4    0    0  0.42514721573E+02 -0.47436284212E+02 -0.21357498568E+03  0.25557676972E+03  0.12509000000E+03 0.  0.
         25    1    3    3    0    0 -0.44412517604E+02  0.23704178280E+02 -0.47868213423E+03  0.49731122401E+03  0.12509000000E+03 0.  0.
         25    1    4    4    0    0  0.18977960304E+01  0.23732105932E+02 -0.18170586661E+03  0.22188137493E+03  0.12509000000E+03 0.  0.
<mgrwt>
<rscale>  2 0.43169899E+03</rscale>
<asrwt>0</asrwt>
<pdfrwt beam="1">  1       21 0.74122337E-02 0.43169899E+03</pdfrwt>
<pdfrwt beam="2">  1       21 0.13593621E+00 0.43169899E+03</pdfrwt>
<totfact> 0.48383836E+04</totfact>
</mgrwt>
</event>
<event>
 6    0  0.4725730E-002  0.4531989E+03  0.7546771E-02  0.1026772E+00
         21   -1    0    0  502  501  0.00000000000E+00  0.00000000000E+00  0.97389908992E+02  0.97389908992E+02  0.00000000000E+00 0. -1.
         21   -1    0    0  501  502 -0.00000000000E+00 -0.00000000000E+00 -0.52723432059E+03  0.52723432059E+03  0.00000000000E+00 0. -1.
      99926    2    1    2    0    0 -0.14210854715E-13 -0.35527136788E-14 -0.42984441160E+03  0.62462422959E+03  0.45319886364E+03 0.  0.
         25    1    3    3    0    0  0.16344634354E+01  0.18978208867E+02 -0.20589108959E+03  0.24166400798E+03  0.12509000000E+03 0.  0.
         25    1    3    3    0    0 -0.77809751044E+02 -0.41926222553E+02 -0.16004231344E+03  0.22152475186E+03  0.12509000000E+03 0.  0.
         25    1    3    3    0    0  0.76175287608E+02  0.22948013685E+02 -0.63911008573E+02  0.16143546974E+03  0.12509000000E+03 0.  0.
<mgrwt>
<rscale>  2 0.45319886E+03</rscale>
<asrwt>0</asrwt>
<pdfrwt beam="1">  1       21 0.14322046E-01 0.45319886E+03</pdfrwt>
<pdfrwt beam="2">  1       21 0.77534455E-01 0.45319886E+03</pdfrwt>
<totfact> 0.58008131E+04</totfact>
</mgrwt>
</event>
<event>
 7    0  0.4725730E-002  0.4575972E+03  0.7546771E-02  0.1025480E+00
         21   -1    0    0  502  501  0.00000000000E+00  0.00000000000E+00  0.13240842662E+04  0.13240842662E+04  0.00000000000E+00 0. -1.
         21   -1    0    0  501  502 -0.00000000000E+00 -0.00000000000E+00 -0.39535857376E+02  0.39535857376E+02  0.00000000000E+00 0. -1.
      99926    2    1    2    0    0  0.88817841970E-15  0.22204460493E-15  0.12845484088E+04  0.13636201235E+04  0.45759723208E+03 0.  0.
      99925    2    3    3    0    0 -0.52147903806E+01 -0.14827909380E+01  0.11505194003E+04  0.11802061766E+04  0.26298733075E+03 0.  0.
         25    1    4    4    0    0  0.33589510786E+02 -0.76959364840E+01  0.64803130720E+03  0.66089300638E+03  0.12509000000E+03 0.  0.
         25    1    3    3    0    0  0.52147903806E+01  0.14827909380E+01  0.13402900844E+03  0.18341394688E+03  0.12509000000E+03 0.  0.
         25    1    4    4    0    0 -0.38804301166E+02  0.62131455460E+01  0.50248809313E+03  0.51931317026E+03  0.12509000000E+03 0.  0.
<mgrwt>
<rscale>  2 0.45759723E+03</rscale>
<asrwt>0</asrwt>
<pdfrwt beam="1">  1       21 0.19471825E+00 0.45759723E+03</pdfrwt>
<pdfrwt beam="2">  1       21 0.58140975E-02 0.45759723E+03</pdfrwt>
<totfact> 0.26773238E+04</totfact>
</mgrwt>
</event>
<event>
 7    0  0.4725730E-002  0.4317187E+03  0.7546771E-02  0.1033318E+00
         21   -1    0    0  502  501  0.00000000000E+00  0.00000000000E+00  0.10451904606E+03  0.10451904606E+03  0.00000000000E+00 0.  1.
         21   -1    0    0  501  502 -0.00000000000E+00 -0.00000000000E+00 -0.44580648403E+03  0.44580648403E+03  0.00000000000E+00 0.  1.
      99926    2    1    2    0    0  0.14210854715E-13  0.00000000000E+00 -0.34128743798E+03  0.55032553009E+03  0.43171874380E+03 0.  0.
      99925    2    3    3    0    0  0.78752611808E+02  0.34952664615E+02 -0.25117692219E+03  0.37371557627E+03  0.26296353945E+03 0.  0.
         25    1    4    4    0    0  0.77122201896E+02  0.69658855458E+01 -0.15291375326E+03  0.21219444296E+03  0.12509000000E+03 0.  0.
         25    1    3    3    0    0 -0.78752611808E+02 -0.34952664615E+02 -0.90110515785E+02  0.17660995381E+03  0.12509000000E+03 0.  0.
         25    1    4    4    0    0  0.16304099123E+01  0.27986779069E+02 -0.98263168931E+02  0.16152113332E+03  0.12509000000E+03 0.  0.
<mgrwt>
<rscale>  2 0.43171874E+03</rscale>
<asrwt>0</asrwt>
<pdfrwt beam="1">  1       21 0.15370449E-01 0.43171874E+03</pdfrwt>
<pdfrwt beam="2">  1       21 0.65559775E-01 0.43171874E+03</pdfrwt>
<totfact> 0.74678792E+04</totfact>
</mgrwt>
</event>
<event>
 7    0  0.4725730E-002  0.4379875E+03  0.7546771E-02  0.1031366E+00
         21   -1    0    0  502  501  0.00000000000E+00  0.00000000000E+00  0.42236641891E+02  0.42236641891E+02  0.00000000000E+00 0. -1.
         21   -1    0    0  501  502 -0.00000000000E+00 -0.00000000000E+00 -0.11354660212E+04  0.11354660212E+04  0.00000000000E+00 0. -1.
      99926    2    1    2    0    0  0.00000000000E+00  0.00000000000E+00 -0.10932293793E+04  0.11777026631E+04  0.43798754191E+03 0.  0.
      99925    2    3    3    0    0 -0.90264780956E+02 -0.11833133274E+01 -0.60749573364E+03  0.66806179586E+03  0.26288089659E+03 0.  0.
         25    1    4    4    0    0 -0.51818847059E+02 -0.17815183855E+02 -0.22223467973E+03  0.26084158921E+03  0.12509000000E+03 0.  0.
         25    1    4    4    0    0 -0.38445933897E+02  0.16631870528E+02 -0.38526105391E+03  0.40722020666E+03  0.12509000000E+03 0.  0.
         25    1    3    3    0    0  0.90264780956E+02  0.11833133274E+01 -0.48573364569E+03  0.50964086725E+03  0.12509000000E+03 0.  0.
<mgrwt>
<rscale>  2 0.43798754E+03</rscale>
<asrwt>0</asrwt>
<pdfrwt beam="1">  1       21 0.62112709E-02 0.43798754E+03</pdfrwt>
<pdfrwt beam="2">  1       21 0.16698030E+00 0.43798754E+03</pdfrwt>
<totfact> 0.37614826E+04</totfact>
</mgrwt>
</event>
<event>
 7    0  0.4725730E-002  0.4592383E+03  0.7546771E-02  0.1025002E+00
         21   -1    0    0  502  501  0.00000000000E+00  0.00000000000E+00  0.65268346395E+02  0.65268346395E+02  0.00000000000E+00 0. -1.
         21   -1    0    0  501  502 -0.00000000000E+00 -0.00000000000E+00 -0.80781828385E+03  0.80781828385E+03  0.00000000000E+00 0. -1.
      99926    2    1    2    0    0  0.00000000000E+00  0.00000000000E+00 -0.74254993746E+03  0.87308663024E+03  0.45923834149E+03 0.  0.
      99925    2    3    3    0    0 -0.59888235345E+02  0.93664960534E+02 -0.53541415919E+03  0.60679268682E+03  0.26300060334E+03 0.  0.
         25    1    4    4    0    0 -0.67018033245E+02  0.63074685526E+02 -0.32065153977E+03  0.35627903501E+03  0.12509000000E+03 0.  0.
         25    1    4    4    0    0  0.71297979001E+01  0.30590275007E+02 -0.21476261942E+03  0.25051365181E+03  0.12509000000E+03 0.  0.
         25    1    3    3    0    0  0.59888235345E+02 -0.93664960534E+02 -0.20713577827E+03  0.26629394342E+03  0.12509000000E+03 0.  0.
<mgrwt>
<rscale>  2 0.45923834E+03</rscale>
<asrwt>0</asrwt>
<pdfrwt beam="1">  1       21 0.95982860E-02 0.45923834E+03</pdfrwt>
<pdfrwt beam="2">  1       21 0.11879681E+00 0.45923834E+03</pdfrwt>
<totfact> 0.42973305E+04</totfact>
</mgrwt>
</event>
<event>
 7    0  0.4725730E-002  0.4772100E+03  0.7546771E-02  0.1019905E+00
         21   -1    0    0  502  501  0.00000000000E+00  0.00000000000E+00  0.44752376680E+03  0.44752376680E+03  0.00000000000E+00 0. -1.
         21   -1    0    0  501  502 -0.00000000000E+00 -0.00000000000E+00 -0.12721634442E+03  0.12721634442E+03  0.00000000000E+00 0. -1.
      99926    2    1    2    0    0  0.00000000000E+00  0.00000000000E+00  0.32030742238E+03  0.57474011122E+03  0.47720996491E+03 0.  0.
      99925    2    3    3    0    0 -0.26230212176E+02 -0.55990571468E+02  0.56166264651E+02  0.27600774365E+03  0.26306397919E+03 0.  0.
         25    1    3    3    0    0  0.26230212176E+02  0.55990571468E+02  0.26414115773E+03  0.29873236756E+03  0.12509000000E+03 0.  0.
         25    1    4    4    0    0 -0.19781556622E+01  0.55929309197E+01  0.43730358263E+01  0.12530692526E+03  0.12509000000E+03 0.  0.
         25    1    4    4    0    0 -0.24252056514E+02 -0.61583502387E+02  0.51793228825E+02  0.15070081839E+03  0.12509000000E+03 0.  0.
<mgrwt>
<rscale>  2 0.47720996E+03</rscale>
<asrwt>0</asrwt>
<pdfrwt beam="1">  1       21 0.65812318E-01 0.47720996E+03</pdfrwt>
<pdfrwt beam="2">  1       21 0.18708286E-01 0.47720996E+03</pdfrwt>
<totfact> 0.50743989E+04</totfact>
</mgrwt>
</event>
<event>
 7    0  0.4725730E-002  0.4525482E+03  0.7546771E-02  0.1026965E+00
         21   -1    0    0  502  501  0.00000000000E+00  0.00000000000E+00  0.77058840855E+03  0.77058840855E+03  0.00000000000E+00 0.  1.
         21   -1    0    0  501  502 -0.00000000000E+00 -0.00000000000E+00 -0.66442685435E+02  0.66442685435E+02  0.00000000000E+00 0.  1.
      99926    2    1    2    0    0  0.88817841970E-15  0.00000000000E+00  0.70414572312E+03  0.83703109399E+03  0.45254817746E+03 0.  0.
      99925    2    3    3    0    0 -0.41600117306E+01 -0.26137278859E+02  0.64311978075E+03  0.69535492526E+03  0.26308735554E+03 0.  0.
         25    1    4    4    0    0  0.35388257254E+02 -0.15542270718E+02  0.36199760731E+03  0.38494631668E+03  0.12509000000E+03 0.  0.
         25    1    4    4    0    0 -0.39548268985E+02 -0.10595008142E+02  0.28112217344E+03  0.31040860858E+03  0.12509000000E+03 0.  0.
         25    1    3    3    0    0  0.41600117306E+01  0.26137278859E+02  0.61025942365E+02  0.14167616873E+03  0.12509000000E+03 0.  0.
<mgrwt>
<rscale>  2 0.45254818E+03</rscale>
<asrwt>0</asrwt>
<pdfrwt beam="1">  1       21 0.11332182E+00 0.45254818E+03</pdfrwt>
<pdfrwt beam="2">  1       21 0.97709836E-02 0.45254818E+03</pdfrwt>
<totfact> 0.46921297E+04</totfact>
</mgrwt>
</event>
<event>
 7    0  0.4725730E-002  0.4565671E+03  0.7546771E-02  0.1025782E+00
         21   -1    0    0  502  501  0.00000000000E+00  0.00000000000E+00  0.67008133260E+03  0.67008133260E+03  0.00000000000E+00 0. -1.
         21   -1    0    0  501  502 -0.00000000000E+00 -0.00000000000E+00 -0.77771722399E+02  0.77771722399E+02  0.00000000000E+00 0. -1.
      99926    2    1    2    0    0  0.00000000000E+00 -0.35527136788E-14  0.59230961020E+03  0.74785305500E+03  0.45656710080E+03 0.  0.
      99925    2    3    3    0    0  0.82345918910E+02 -0.28636341724E+02  0.49411498324E+03  0.56649544337E+03  0.26299539973E+03 0.  0.
         25    1    3    3    0    0 -0.82345918910E+02  0.28636341724E+02  0.98194626962E+02  0.18135761162E+03  0.12509000000E+03 0.  0.
         25    1    4    4    0    0  0.51366711935E+01 -0.62176184696E+01  0.18490099376E+03  0.22338516013E+03  0.12509000000E+03 0.  0.
         25    1    4    4    0    0  0.77209247717E+02 -0.22418723255E+02  0.30921398947E+03  0.34311028325E+03  0.12509000000E+03 0.  0.
<mgrwt>
<rscale>  2 0.45656710E+03</rscale>
<asrwt>0</asrwt>
<pdfrwt beam="1">  1       21 0.98541369E-01 0.45656710E+03</pdfrwt>
<pdfrwt beam="2">  1       21 0.11437018E-01 0.45656710E+03</pdfrwt>
<totfact> 0.49764846E+04</totfact>
</mgrwt>
</event>
<event>
 7    0  0.4725730E-002  0.4194758E+03  0.7546771E-02  0.1037237E+00
         21   -1    0    0  502  501  0.00000000000E+00  0.00000000000E+00  0.10010499727E+03  0.10010499727E+03  0.00000000000E+00 0. -1.
         21   -1    0    0  501  502 -0.00000000000E+00 -0.00000000000E+00 -0.43943851679E+03  0.43943851679E+03  0.00000000000E+00 0. -1.
      99926    2    1    2    0    0 -0.35527136788E-14 -0.35527136788E-14 -0.33933351951E+03  0.53954351406E+03  0.41947582302E+03 0.  0.
      99925    2    3    3    0    0 -0.24707200608E+02 -0.13540040452E+02 -0.31089478039E+03  0.40820407429E+03  0.26302323725E+03 0.  0.
         25    1    4    4    0    0 -0.14695837687E+02 -0.27460718239E+02 -0.10314155867E+03  0.16509314921E+03  0.12509000000E+03 0.  0.
         25    1    4    4    0    0 -0.10011362920E+02  0.13920677787E+02 -0.20775322172E+03  0.24311092508E+03  0.12509000000E+03 0.  0.
         25    1    3    3    0    0  0.24707200608E+02  0.13540040452E+02 -0.28438739126E+02  0.13133943977E+03  0.12509000000E+03 0.  0.
<mgrwt>
<rscale>  2 0.41947582E+03</rscale>
<asrwt>0</asrwt>
<pdfrwt beam="1">  1       21 0.14721323E-01 0.41947582E+03</pdfrwt>
<pdfrwt beam="2">  1       21 0.64623310E-01 0.41947582E+03</pdfrwt>
<totfact> 0.83735974E+04</totfact>
</mgrwt>
</event>
<event>
 7    0  0.4725730E-002  0.4244102E+03  0.7546771E-02  0.1035640E+00
         21   -1    0    0  502  501  0.00000000000E+00  0.00000000000E+00  0.25697042918E+02  0.25697042918E+02  0.00000000000E+00 0. -1.
         21   -1    0    0  501  502 -0.00000000000E+00 -0.00000000000E+00 -0.17523807287E+04  0.17523807287E+04  0.00000000000E+00 0. -1.
      99926    2    1    2    0    0 -0.71054273576E-14  0.71054273576E-14 -0.17266836858E+04  0.17780777716E+04  0.42441019213E+03 0.  0.
      99925    2    3    3    0    0 -0.37505589514E+02 -0.50754520950E+02 -0.90689723154E+03  0.94640474133E+03  0.26312859063E+03 0.  0.
         25    1    3    3    0    0  0.37505589514E+02  0.50754520950E+02 -0.81978645427E+03  0.83167303031E+03  0.12509000000E+03 0.  0.
         25    1    4    4    0    0 -0.44884835792E+02  0.58472992555E+01 -0.45633013114E+03  0.47532466387E+03  0.12509000000E+03 0.  0.
         25    1    4    4    0    0  0.73792462780E+01 -0.56601820206E+02 -0.45056710039E+03  0.47108007746E+03  0.12509000000E+03 0.  0.
<mgrwt>
<rscale>  2 0.42441019E+03</rscale>
<asrwt>0</asrwt>
<pdfrwt beam="1">  1       21 0.37789753E-02 0.42441019E+03</pdfrwt>
<pdfrwt beam="2">  1       21 0.25770315E+00 0.42441019E+03</pdfrwt>
<totfact> 0.22590647E+04</totfact>
</mgrwt>
</event>
<event>
 7    0  0.4725730E-002  0.4335694E+03  0.7546771E-02  0.1032738E+00
         21   -1    0    0  502  501  0.00000000000E+00  0.00000000000E+00  0.16204718663E+03  0.16204718663E+03  0.00000000000E+00 0.  1.
         21   -1    0    0  501  502 -0.00000000000E+00 -0.00000000000E+00 -0.29001182939E+03  0.29001182939E+03  0.00000000000E+00 0.  1.
      99926    2    1    2    0    0 -0.71054273576E-14  0.00000000000E+00 -0.12796464276E+03  0.45205901601E+03  0.43356937641E+03 0.  0.
      99925    2    3    3    0    0 -0.42036249619E+02  0.74719112699E+02 -0.48666045886E+02  0.28092816651E+03  0.26306322174E+03 0.  0.
         25    1    4    4    0    0  0.65379712257E+00  0.67442802666E+01 -0.25137416039E+01  0.12529860240E+03  0.12509000000E+03 0.  0.
         25    1    4    4    0    0 -0.42690046742E+02  0.67974832432E+02 -0.46152304282E+02  0.15562956411E+03  0.12509000000E+03 0.  0.
         25    1    3    3    0    0  0.42036249619E+02 -0.74719112699E+02 -0.79298596874E+02  0.17113084950E+03  0.12509000000E+03 0.  0.
<mgrwt>
<rscale>  2 0.43356938E+03</rscale>
<asrwt>0</asrwt>
<pdfrwt beam="1">  1       21 0.23830469E-01 0.43356938E+03</pdfrwt>
<pdfrwt beam="2">  1       21 0.42648798E-01 0.43356938E+03</pdfrwt>
<totfact> 0.81848044E+04</totfact>
</mgrwt>
</event>
<event>
 7    0  0.4725730E-002  0.4549311E+03  0.7546771E-02  0.1026262E+00
         21   -1    0    0  502  501  0.00000000000E+00  0.00000000000E+00  0.10806323124E+03  0.10806323124E+03  0.00000000000E+00 0. -1.
         21   -1    0    0  501  502 -0.00000000000E+00 -0.00000000000E+00 -0.47879906322E+03  0.47879906322E+03  0.00000000000E+00 0. -1.
      99926    2    1    2    0    0  0.00000000000E+00  0.00000000000E+00 -0.37073583197E+03  0.58686229446E+03  0.45493108880E+03 0.  0.
      99925    2    3    3    0    0  0.10751078151E+03  0.25879677765E+02 -0.26411525597E+03  0.38876186239E+03  0.26296500023E+03 0.  0.
         25    1    3    3    0    0 -0.10751078151E+03 -0.25879677765E+02 -0.10662057600E+03  0.19810043208E+03  0.12509000000E+03 0.  0.
         25    1    4    4    0    0  0.28441041744E+02  0.21790452571E+02 -0.16700572875E+03  0.21171239504E+03  0.12509000000E+03 0.  0.
         25    1    4    4    0    0  0.79069739767E+02  0.40892251936E+01 -0.97109527218E+02  0.17704946734E+03  0.12509000000E+03 0.  0.
<mgrwt>
<rscale>  2 0.45493109E+03</rscale>
<asrwt>0</asrwt>
<pdfrwt beam="1">  1       21 0.15891652E-01 0.45493109E+03</pdfrwt>
<pdfrwt beam="2">  1       21 0.70411627E-01 0.45493109E+03</pdfrwt>
<totfact> 0.59526718E+04</totfact>
</mgrwt>
</event>
<event>
 7    0  0.4725730E-002  0.4474924E+03  0.7546771E-02  0.1028472E+00
         21   -1    0    0  502  501  0.00000000000E+00  0.00000000000E+00  0.11801554050E+03  0.11801554050E+03  0.00000000000E+00 0. -1.
         21   -1    0    0  501  502 -0.00000000000E+00 -0.00000000000E+00 -0.42420144116E+03  0.42420144116E+03  0.00000000000E+00 0. -1.
      99926    2    1    2    0    0  0.00000000000E+00  0.00000000000E+00 -0.30618590066E+03  0.54221698167E+03  0.44749240155E+03 0.  0.
      99925    2    3    3    0    0  0.35954335954E+02 -0.84716498645E+02 -0.13051872784E+03  0.30774723282E+03  0.26306581225E+03 0.  0.
         25    1    3    3    0    0 -0.35954335954E+02  0.84716498645E+02 -0.17566717282E+03  0.23446974885E+03  0.12509000000E+03 0.  0.
         25    1    4    4    0    0 -0.21280082340E+01 -0.13354087261E+02 -0.34300390454E+02  0.13041044801E+03  0.12509000000E+03 0.  0.
         25    1    4    4    0    0  0.38082344188E+02 -0.71362411384E+02 -0.96218337381E+02  0.17733678481E+03  0.12509000000E+03 0.  0.
<mgrwt>
<rscale>  2 0.44749240E+03</rscale>
<asrwt>0</asrwt>
<pdfrwt beam="1">  1       21 0.17355227E-01 0.44749240E+03</pdfrwt>
<pdfrwt beam="2">  1       21 0.62382564E-01 0.44749240E+03</pdfrwt>
<totfact> 0.66231793E+04</totfact>
</mgrwt>
</event>
<event>
 7    0  0.4725730E-002  0.4551331E+03  0.7546771E-02  0.1026202E+00
         21   -1    0    0  502  501  0.00000000000E+00  0.00000000000E+00  0.14314972562E+03  0.14314972562E+03  0.00000000000E+00 0. -1.
         21   -1    0    0  501  502 -0.00000000000E+00 -0.00000000000E+00 -0.36176480329E+03  0.36176480329E+03  0.00000000000E+00 0. -1.
      99926    2    1    2    0    0  0.14210854715E-13 -0.35527136788E-14 -0.21861507767E+03  0.50491452891E+03  0.45513308967E+03 0.  0.
      99925    2    3    3    0    0  0.10855992840E+03 -0.30805415835E+02 -0.14828814758E+03  0.32235599886E+03  0.26303950955E+03 0.  0.
         25    1    3    3    0    0 -0.10855992840E+03  0.30805415835E+02 -0.70326930091E+02  0.18255853005E+03  0.12509000000E+03 0.  0.
         25    1    4    4    0    0  0.97260450398E+02 -0.22984145571E+02 -0.89969263415E+02  0.18365686107E+03  0.12509000000E+03 0.  0.
         25    1    4    4    0    0  0.11299478001E+02 -0.78212702644E+01 -0.58318884168E+02  0.13869913778E+03  0.12509000000E+03 0.  0.
<mgrwt>
<rscale>  2 0.45513309E+03</rscale>
<asrwt>0</asrwt>
<pdfrwt beam="1">  1       21 0.21051431E-01 0.45513309E+03</pdfrwt>
<pdfrwt beam="2">  1       21 0.53200706E-01 0.45513309E+03</pdfrwt>
<totfact> 0.64858221E+04</totfact>
</mgrwt>
</event>
<event>
 7    0  0.4725730E-002  0.4497606E+03  0.7546771E-02  0.1027793E+00
         21   -1    0    0  502  501  0.00000000000E+00  0.00000000000E+00  0.90830453865E+02  0.90830453865E+02  0.00000000000E+00 0. -1.
         21   -1    0    0  501  502 -0.00000000000E+00 -0.00000000000E+00 -0.55676416761E+03  0.55676416761E+03  0.00000000000E+00 0. -1.
      99926    2    1    2    0    0 -0.35527136788E-14  0.00000000000E+00 -0.46593371374E+03  0.64759462147E+03  0.44976056759E+03 0.  0.
      99925    2    3    3    0    0  0.17650575046E+02 -0.71757590907E+02 -0.18078184022E+03  0.32756369527E+03  0.26297377446E+03 0.  0.
         25    1    4    4    0    0  0.16422672940E+02  0.46138226436E+01 -0.75466338535E+02  0.14708388048E+03  0.12509000000E+03 0.  0.
         25    1    4    4    0    0  0.12279021054E+01 -0.76371413550E+02 -0.10531550169E+03  0.18047981479E+03  0.12509000000E+03 0.  0.
         25    1    3    3    0    0 -0.17650575046E+02  0.71757590907E+02 -0.28515187352E+03  0.32003092620E+03  0.12509000000E+03 0.  0.
<mgrwt>
<rscale>  2 0.44976057E+03</rscale>
<asrwt>0</asrwt>
<pdfrwt beam="1">  1       21 0.13357420E-01 0.44976057E+03</pdfrwt>
<pdfrwt beam="2">  1       21 0.81877080E-01 0.44976057E+03</pdfrwt>
<totfact> 0.58209307E+04</totfact>
</mgrwt>
</event>
<event>
 7    0  0.4725730E-002  0.4548792E+03  0.7546771E-02  0.1026277E+00
         21   -1    0    0  502  501  0.00000000000E+00  0.00000000000E+00  0.79881301525E+03  0.79881301525E+03  0.00000000000E+00 0. -1.
         21   -1    0    0  501  502 -0.00000000000E+00 -0.00000000000E+00 -0.64757036145E+02  0.64757036145E+02  0.00000000000E+00 0. -1.
      99926    2    1    2    0    0  0.00000000000E+00  0.00000000000E+00  0.73405597910E+03  0.86357005139E+03  0.45487916330E+03 0.  0.
      99925    2    3    3    0    0 -0.10862817959E+03 -0.30549179203E+02  0.47713606176E+03  0.55634263436E+03  0.26291628253E+03 0.  0.
         25    1    4    4    0    0 -0.57959080099E+02  0.66544499855E+01  0.17130290003E+03  0.21999029145E+03  0.12509000000E+03 0.  0.
         25    1    4    4    0    0 -0.50669099495E+02 -0.37203629189E+02  0.30583316173E+03  0.33635234291E+03  0.12509000000E+03 0.  0.
         25    1    3    3    0    0  0.10862817959E+03  0.30549179203E+02  0.25691991734E+03  0.30722741704E+03  0.12509000000E+03 0.  0.
<mgrwt>
<rscale>  2 0.45487916E+03</rscale>
<asrwt>0</asrwt>
<pdfrwt beam="1">  1       21 0.11747250E+00 0.45487916E+03</pdfrwt>
<pdfrwt beam="2">  1       21 0.95230940E-02 0.45487916E+03</pdfrwt>
<totfact> 0.44880768E+04</totfact>
</mgrwt>
</event>
<event>
 7    0  0.4725730E-002  0.4503432E+03  0.7546771E-02  0.1027620E+00
         21   -1    0    0  502  501  0.00000000000E+00  0.00000000000E+00  0.52327467308E+03  0.52327467308E+03  0.00000000000E+00 0.  1.
         21   -1    0    0  501  502 -0.00000000000E+00 -0.00000000000E+00 -0.96894119617E+02  0.96894119617E+02  0.00000000000E+00 0.  1.
      99926    2    1    2    0    0 -0.71054273576E-14 -0.44408920985E-15  0.42638055346E+03  0.62016879269E+03  0.45034315256E+03 0.  0.
      99925    2    3    3    0    0  0.47237764482E+02  0.20194184738E+01  0.13426785952E+03  0.29890127410E+03  0.26282813607E+03 0.  0.
         25    1    3    3    0    0 -0.47237764482E+02 -0.20194184738E+01  0.29211269394E+03  0.32126751860E+03  0.12509000000E+03 0.  0.
         25    1    4    4    0    0 -0.31473787964E+01  0.29710188438E+02  0.76189311386E+02  0.14948217472E+03  0.12509000000E+03 0.  0.
         25    1    4    4    0    0  0.50385143278E+02 -0.27690769965E+02  0.58078548133E+02  0.14941909937E+03  0.12509000000E+03 0.  0.
<mgrwt>
<rscale>  2 0.45034315E+03</rscale>
<asrwt>0</asrwt>
<pdfrwt beam="1">  1       21 0.76952157E-01 0.45034315E+03</pdfrwt>
<pdfrwt beam="2">  1       21 0.14249135E-01 0.45034315E+03</pdfrwt>
<totfact> 0.59615802E+04</totfact>
</mgrwt>
</event>
<event>
 7    0  0.4725730E-002  0.4611419E+03  0.7546771E-02  0.1024451E+00
         21   -1    0    0  502  501  0.00000000000E+00  0.00000000000E+00  0.16799195566E+03  0.16799195566E+03  0.00000000000E+00 0.  1.
         21   -1    0    0  501  502 -0.00000000000E+00 -0.00000000000E+00 -0.31646133039E+03  0.31646133039E+03  0.00000000000E+00 0.  1.
      99926    2    1    2    0    0 -0.17763568394E-14  0.00000000000E+00 -0.14846937473E+03  0.48445328604E+03  0.46114187744E+03 0.  0.
      99925    2    3    3    0    0  0.74519820927E+01 -0.11259861841E+03 -0.54040951629E+02  0.29132582530E+03  0.26308996775E+03 0.  0.
         25    1    4    4    0    0  0.37037310896E+02 -0.35922106598E+02 -0.11912282828E+02  0.13583655886E+03  0.12509000000E+03 0.  0.
         25    1    3    3    0    0 -0.74519820927E+01  0.11259861841E+03 -0.94428423099E+02  0.19312746074E+03  0.12509000000E+03 0.  0.
         25    1    4    4    0    0 -0.29585328803E+02 -0.76676511808E+02 -0.42128668801E+02  0.15548926644E+03  0.12509000000E+03 0.  0.
<mgrwt>
<rscale>  2 0.46114188E+03</rscale>
<asrwt>0</asrwt>
<pdfrwt beam="1">  1       21 0.24704700E-01 0.46114188E+03</pdfrwt>
<pdfrwt beam="2">  1       21 0.46538431E-01 0.46114188E+03</pdfrwt>
<totfact> 0.63237685E+04</totfact>
</mgrwt>
</event>
<event>
 7    0  0.4725730E-002  0.4131249E+03  0.7546771E-02  0.1039327E+00
         21   -1    0    0  502  501  0.00000000000E+00  0.00000000000E+00  0.41057337160E+04  0.41057337160E+04  0.00000000000E+00 0.  1.
         21   -1    0    0  501  502 -0.00000000000E+00 -0.00000000000E+00 -0.10392305485E+02  0.10392305485E+02  0.00000000000E+00 0.  1.
      99926    2    1    2    0    0  0.00000000000E+00  0.00000000000E+00  0.40953414105E+04  0.41161260214E+04  0.41312486740E+03 0.  0.
      99925    2    3    3    0    0  0.47983366622E+02 -0.46080628010E+02  0.26256590221E+04  0.26396302854E+04  0.26293899584E+03 0.  0.
         25    1    4    4    0    0 -0.11391742995E+02 -0.37125726185E+02  0.11373195611E+04  0.11448368370E+04  0.12509000000E+03 0.  0.
         25    1    3    3    0    0 -0.47983366622E+02  0.46080628010E+02  0.14696823884E+04  0.14764957360E+04  0.12509000000E+03 0.  0.
         25    1    4    4    0    0  0.59375109617E+02 -0.89549018246E+01  0.14883394611E+04  0.14947934484E+04  0.12509000000E+03 0.  0.
<mgrwt>
<rscale>  2 0.41312487E+03</rscale>
<asrwt>0</asrwt>
<pdfrwt beam="1">  1       21 0.60378324E+00 0.41312487E+03</pdfrwt>
<pdfrwt beam="2">  1       21 0.15282831E-02 0.41312487E+03</pdfrwt>
<totfact> 0.48701368E+02</totfact>
</mgrwt>
</event>
<event>
 7    0  0.4725730E-002  0.4592409E+03  0.7546771E-02  0.1025002E+00
         21   -1    0    0  502  501  0.00000000000E+00  0.00000000000E+00  0.26541758132E+03  0.26541758132E+03  0.00000000000E+00 0. -1.
         21   -1    0    0  501  502 -0.00000000000E+00 -0.00000000000E+00 -0.19865129097E+03  0.19865129097E+03  0.00000000000E+00 0. -1.
      99926    2    1    2    0    0  0.14210854715E-13  0.71054273576E-14  0.66766290349E+02  0.46406887229E+03  0.45924087438E+03 0.  0.
      99925    2    3    3    0    0  0.99445458462E+02  0.51648788330E+02  0.75928081927E+02  0.29587718679E+03  0.26309929588E+03 0.  0.
         25    1    3    3    0    0 -0.99445458462E+02 -0.51648788330E+02 -0.91617915773E+01  0.16819168550E+03  0.12509000000E+03 0.  0.
         25    1    4    4    0    0  0.90474215405E+02  0.19525086678E+02  0.53098767730E+02  0.16441958490E+03  0.12509000000E+03 0.  0.
         25    1    4    4    0    0  0.89712430571E+01  0.32123701652E+02  0.22829314197E+02  0.13145760190E+03  0.12509000000E+03 0.  0.
<mgrwt>
<rscale>  2 0.45924087E+03</rscale>
<asrwt>0</asrwt>
<pdfrwt beam="1">  1       21 0.39031997E-01 0.45924087E+03</pdfrwt>
<pdfrwt beam="2">  1       21 0.29213425E-01 0.45924087E+03</pdfrwt>
<totfact> 0.65636984E+04</totfact>
</mgrwt>
</event>
<event>
 7    0  0.4725730E-002  0.4356429E+03  0.7546771E-02  0.1032092E+00
         21   -1    0    0  502  501  0.00000000000E+00  0.00000000000E+00  0.44214542683E+03  0.44214542683E+03  0.00000000000E+00 0. -1.
         21   -1    0    0  501  502 -0.00000000000E+00 -0.00000000000E+00 -0.10730900683E+03  0.10730900683E+03  0.00000000000E+00 0. -1.
      99926    2    1    2    0    0  0.00000000000E+00 -0.17763568394E-14  0.33483642000E+03  0.54945443366E+03  0.43564291169E+03 0.  0.
      99925    2    3    3    0    0  0.44161048322E+02 -0.12432264063E+02  0.11109436832E+03  0.28904557596E+03  0.26286998103E+03 0.  0.
         25    1    4    4    0    0  0.47153805764E+02  0.63229886362E+01  0.25368225150E+02  0.13621496442E+03  0.12509000000E+03 0.  0.
         25    1    3    3    0    0 -0.44161048322E+02  0.12432264063E+02  0.22374205168E+03  0.26040885770E+03  0.12509000000E+03 0.  0.
         25    1    4    4    0    0 -0.29927574420E+01 -0.18755252699E+02  0.85726143172E+02  0.15283061154E+03  0.12509000000E+03 0.  0.
<mgrwt>
<rscale>  2 0.43564291E+03</rscale>
<asrwt>0</asrwt>
<pdfrwt beam="1">  1       21 0.65021385E-01 0.43564291E+03</pdfrwt>
<pdfrwt beam="2">  1       21 0.15780737E-01 0.43564291E+03</pdfrwt>
<totfact> 0.72364653E+04</totfact>
</mgrwt>
</event>
<event>
 7    0  0.4725730E-002  0.4542997E+03  0.7546771E-02  0.1026448E+00
         21   -1    0    0  502  501  0.00000000000E+00  0.00000000000E+00  0.23405369167E+03  0.23405369167E+03  0.00000000000E+00 0. -1.
         21   -1    0    0  501  502 -0.00000000000E+00 -0.00000000000E+00 -0.22044969322E+03  0.22044969322E+03  0.00000000000E+00 0. -1.
      99926    2    1    2    0    0  0.00000000000E+00  0.14210854715E-13  0.13603998443E+02  0.45450338489E+03  0.45429974477E+03 0.  0.
      99925    2    3    3    0    0  0.35429879599E+02 -0.67952592081E+02 -0.73820780261E+02  0.28373034495E+03  0.26302199510E+03 0.  0.
         25    1    4    4    0    0  0.24485118293E+01 -0.16199841635E+02 -0.70147995448E+02  0.14434915810E+03  0.12509000000E+03 0.  0.
         25    1    3    3    0    0 -0.35429879599E+02  0.67952592081E+02  0.87424778704E+02  0.17077303994E+03  0.12509000000E+03 0.  0.
         25    1    4    4    0    0  0.32981367769E+02 -0.51752750446E+02 -0.36727848135E+01  0.13938118685E+03  0.12509000000E+03 0.  0.
<mgrwt>
<rscale>  2 0.45429974E+03</rscale>
<asrwt>0</asrwt>
<pdfrwt beam="1">  1       21 0.34419661E-01 0.45429974E+03</pdfrwt>
<pdfrwt beam="2">  1       21 0.32419073E-01 0.45429974E+03</pdfrwt>
<totfact> 0.68966731E+04</totfact>
</mgrwt>
</event>
<event>
 7    0  0.4725730E-002  0.4557132E+03  0.7546771E-02  0.1026032E+00
         21   -1    0    0  502  501  0.00000000000E+00  0.00000000000E+00  0.18439606208E+03  0.18439606208E+03  0.00000000000E+00 0. -1.
         21   -1    0    0  501  502 -0.00000000000E+00 -0.00000000000E+00 -0.28156041396E+03  0.28156041396E+03  0.00000000000E+00 0. -1.
      99926    2    1    2    0    0  0.00000000000E+00  0.00000000000E+00 -0.97164351888E+02  0.46595647604E+03  0.45571320618E+03 0.  0.
      99925    2    3    3    0    0 -0.22813090632E+02  0.10650233952E+03 -0.27090820053E+02  0.28589817051E+03  0.26294612745E+03 0.  0.
         25    1    4    4    0    0  0.27330718406E+02  0.57596736992E+02 -0.24426286260E+02  0.14250790800E+03  0.12509000000E+03 0.  0.
         25    1    4    4    0    0 -0.50143809038E+02  0.48905602526E+02 -0.26645337925E+01  0.14339026251E+03  0.12509000000E+03 0.  0.
         25    1    3    3    0    0  0.22813090632E+02 -0.10650233952E+03 -0.70073531836E+02  0.18005830553E+03  0.12509000000E+03 0.  0.
<mgrwt>
<rscale>  2 0.45571321E+03</rscale>
<asrwt>0</asrwt>
<pdfrwt beam="1">  1       21 0.27117068E-01 0.45571321E+03</pdfrwt>
<pdfrwt beam="2">  1       21 0.41405943E-01 0.45571321E+03</pdfrwt>
<totfact> 0.67356411E+04</totfact>
</mgrwt>
</event>
<event>
 7    0  0.4725730E-002  0.4222967E+03  0.7546771E-02  0.1036321E+00
         21   -1    0    0  502  501  0.00000000000E+00  0.00000000000E+00  0.32335727315E+02  0.32335727315E+02  0.00000000000E+00 0.  1.
         21   -1    0    0  501  502 -0.00000000000E+00 -0.00000000000E+00 -0.13787727870E+04  0.13787727870E+04  0.00000000000E+00 0.  1.
      99926    2    1    2    0    0  0.71054273576E-14  0.00000000000E+00 -0.13464370597E+04  0.14111085143E+04  0.42229667709E+03 0.  0.
      99925    2    3    3    0    0  0.54529714658E+02  0.39772766644E+02 -0.10103086320E+04  0.10461630517E+04  0.26301755820E+03 0.  0.
         25    1    3    3    0    0 -0.54529714658E+02 -0.39772766644E+02 -0.33612842765E+03  0.36494546267E+03  0.12509000000E+03 0.  0.
         25    1    4    4    0    0 -0.10291540292E+02  0.20842968918E+02 -0.54327357575E+03  0.55797314574E+03  0.12509000000E+03 0.  0.
         25    1    4    4    0    0  0.64821254950E+02  0.18929797727E+02 -0.46703505628E+03  0.48818990591E+03  0.12509000000E+03 0.  0.
<mgrwt>
<rscale>  2 0.42229668E+03</rscale>
<asrwt>0</asrwt>
<pdfrwt beam="1">  1       21 0.47552528E-02 0.42229668E+03</pdfrwt>
<pdfrwt beam="2">  1       21 0.20276076E+00 0.42229668E+03</pdfrwt>
<totfact> 0.33859476E+04</totfact>
</mgrwt>
</event>
<event>
 7    0  0.4725730E-002  0.4549812E+03  0.7546771E-02  0.1026247E+00
         21   -1    0    0  502  501  0.00000000000E+00  0.00000000000E+00  0.19623241042E+03  0.19623241042E+03  0.00000000000E+00 0.  1.
         21   -1    0    0  501  502 -0.00000000000E+00 -0.00000000000E+00 -0.26372792314E+03  0.26372792314E+03  0.00000000000E+00 0.  1.
      99926    2    1    2    0    0  0.00000000000E+00  0.14210854715E-13 -0.67495512727E+02  0.45996033356E+03  0.45498116907E+03 0.  0.
      99925    2    3    3    0    0 -0.88621871877E+02 -0.63253313681E+02 -0.73898948366E+02  0.29399850074E+03  0.26290539363E+03 0.  0.
         25    1    4    4    0    0 -0.35318069014E+02  0.93323393797E+01 -0.37928972344E+02  0.13572241377E+03  0.12509000000E+03 0.  0.
         25    1    3    3    0    0  0.88621871877E+02  0.63253313681E+02  0.64034356397E+01  0.16596183282E+03  0.12509000000E+03 0.  0.
         25    1    4    4    0    0 -0.53303802864E+02 -0.72585653060E+02 -0.35969976022E+02  0.15827608696E+03  0.12509000000E+03 0.  0.
<mgrwt>
<rscale>  2 0.45498117E+03</rscale>
<asrwt>0</asrwt>
<pdfrwt beam="1">  1       21 0.28857708E-01 0.45498117E+03</pdfrwt>
<pdfrwt beam="2">  1       21 0.38783518E-01 0.45498117E+03</pdfrwt>
<totfact> 0.68193702E+04</totfact>
</mgrwt>
</event>
<event>
 7    0  0.4725730E-002  0.4406185E+03  0.7546771E-02  0.1030557E+00
         21   -1    0    0  502  501  0.00000000000E+00  0.00000000000E+00  0.50119803872E+02  0.50119803872E+02  0.00000000000E+00 0.  1.
         21   -1    0    0  501  502 -0.00000000000E+00 -0.00000000000E+00 -0.96840284177E+03  0.96840284177E+03  0.00000000000E+00 0.  1.
      99926    2    1    2    0    0  0.00000000000E+00  0.28421709430E-13 -0.91828303790E+03  0.10185226456E+04  0.44061847668E+03 0.  0.
      99925    2    3    3    0    0 -0.32168869360E+02 -0.93738160771E+02 -0.58304085551E+03  0.64723231734E+03  0.26296645123E+03 0.  0.
         25    1    3    3    0    0  0.32168869360E+02  0.93738160771E+02 -0.33524218239E+03  0.37129032831E+03  0.12509000000E+03 0.  0.
         25    1    4    4    0    0  0.44936925637E+01 -0.82109740966E+02 -0.29269520441E+03  0.32875552257E+03  0.12509000000E+03 0.  0.
         25    1    4    4    0    0 -0.36662561923E+02 -0.11628419804E+02 -0.29034565110E+03  0.31847679477E+03  0.12509000000E+03 0.  0.
<mgrwt>
<rscale>  2 0.44061848E+03</rscale>
<asrwt>0</asrwt>
<pdfrwt beam="1">  1       21 0.73705595E-02 0.44061848E+03</pdfrwt>
<pdfrwt beam="2">  1       21 0.14241218E+00 0.44061848E+03</pdfrwt>
<totfact> 0.43093320E+04</totfact>
</mgrwt>
</event>
<event>
 7    0  0.4725730E-002  0.4544395E+03  0.7546771E-02  0.1026406E+00
         21   -1    0    0  502  501  0.00000000000E+00  0.00000000000E+00  0.45162298078E+03  0.45162298078E+03  0.00000000000E+00 0.  1.
         21   -1    0    0  501  502 -0.00000000000E+00 -0.00000000000E+00 -0.11431840768E+03  0.11431840768E+03  0.00000000000E+00 0.  1.
      99926    2    1    2    0    0 -0.17763568394E-14 -0.35527136788E-14  0.33730457309E+03  0.56594138846E+03  0.45443952308E+03 0.  0.
      99925    2    3    3    0    0  0.13966232469E+02 -0.30167528029E+02  0.78276269378E+02  0.27637566946E+03  0.26296615927E+03 0.  0.
         25    1    4    4    0    0 -0.16240413540E+02 -0.18289558017E+01  0.64866236754E+01  0.12631975498E+03  0.12509000000E+03 0.  0.
         25    1    4    4    0    0  0.30206646009E+02 -0.28338572228E+02  0.71789645703E+02  0.15005591448E+03  0.12509000000E+03 0.  0.
         25    1    3    3    0    0 -0.13966232469E+02  0.30167528029E+02  0.25902830372E+03  0.28956571900E+03  0.12509000000E+03 0.  0.
<mgrwt>
<rscale>  2 0.45443952E+03</rscale>
<asrwt>0</asrwt>
<pdfrwt beam="1">  1       21 0.66415143E-01 0.45443952E+03</pdfrwt>
<pdfrwt beam="2">  1       21 0.16811531E-01 0.45443952E+03</pdfrwt>
<totfact> 0.61095586E+04</totfact>
</mgrwt>
</event>
<event>
 7    0  0.4725730E-002  0.4545976E+03  0.7546771E-02  0.1026360E+00
         21   -1    0    0  502  501  0.00000000000E+00  0.00000000000E+00  0.65993861927E+03  0.65993861927E+03  0.00000000000E+00 0. -1.
         21   -1    0    0  501  502 -0.00000000000E+00 -0.00000000000E+00 -0.78287189657E+02  0.78287189657E+02  0.00000000000E+00 0. -1.
      99926    2    1    2    0    0  0.00000000000E+00  0.00000000000E+00  0.58165142961E+03  0.73822580892E+03  0.45459757962E+03 0.  0.
      99925    2    3    3    0    0  0.23262884906E+02 -0.43227608036E+00  0.54529066928E+03  0.60589681864E+03  0.26311155839E+03 0.  0.
         25    1    4    4    0    0  0.15666606182E+02  0.17921585968E+02  0.35647650122E+03  0.37853616711E+03  0.12509000000E+03 0.  0.
         25    1    4    4    0    0  0.75962787235E+01 -0.18353862048E+02  0.18881416806E+03  0.22736065153E+03  0.12509000000E+03 0.  0.
         25    1    3    3    0    0 -0.23262884906E+02  0.43227608036E+00  0.36360760327E+02  0.13232899028E+03  0.12509000000E+03 0.  0.
<mgrwt>
<rscale>  2 0.45459758E+03</rscale>
<asrwt>0</asrwt>
<pdfrwt beam="1">  1       21 0.97049794E-01 0.45459758E+03</pdfrwt>
<pdfrwt beam="2">  1       21 0.11512822E-01 0.45459758E+03</pdfrwt>
<totfact> 0.51037485E+04</totfact>
</mgrwt>
</event>
<event>
 7    0  0.4725730E-002  0.4435086E+03  0.7546771E-02  0.1029676E+00
         21   -1    0    0  502  501  0.00000000000E+00  0.00000000000E+00  0.78912803333E+02  0.78912803333E+02  0.00000000000E+00 0. -1.
         21   -1    0    0  501  502 -0.00000000000E+00 -0.00000000000E+00 -0.62315589951E+03  0.62315589951E+03  0.00000000000E+00 0. -1.
      99926    2    1    2    0    0  0.00000000000E+00  0.71054273576E-14 -0.54424309617E+03  0.70206870284E+03  0.44350864228E+03 0.  0.
      99925    2    3    3    0    0 -0.92027170813E+02 -0.42189816710E+02 -0.34875462219E+03  0.44886476851E+03  0.26381966019E+03 0.  0.
         25    1    4    4    0    0 -0.56804802179E+02  0.89341442767E+01 -0.21625897065E+03  0.25636313107E+03  0.12509000000E+03 0.  0.
         25    1    3    3    0    0  0.92027170813E+02  0.42189816710E+02 -0.19548847398E+03  0.25320393433E+03  0.12509000000E+03 0.  0.
         25    1    4    4    0    0 -0.35222368634E+02 -0.51123960986E+02 -0.13249565154E+03  0.19250163744E+03  0.12509000000E+03 0.  0.
<mgrwt>
<rscale>  2 0.44350864E+03</rscale>
<asrwt>0</asrwt>
<pdfrwt beam="1">  1       21 0.11604824E-01 0.44350864E+03</pdfrwt>
<pdfrwt beam="2">  1       21 0.91640573E-01 0.44350864E+03</pdfrwt>
<totfact> 0.57846943E+04</totfact>
</mgrwt>
</event>
<event>
 7    0  0.4725730E-002  0.4485565E+03  0.7546771E-02  0.1028153E+00
         21   -1    0    0  502  501  0.00000000000E+00  0.00000000000E+00  0.16137629281E+04  0.16137629281E+04  0.00000000000E+00 0.  1.
         21   -1    0    0  501  502 -0.00000000000E+00 -0.00000000000E+00 -0.31169844063E+02  0.31169844063E+02  0.00000000000E+00 0.  1.
      99926    2    1    2    0    0  0.00000000000E+00 -0.71054273576E-14  0.15825930840E+04  0.16449327722E+04  0.44855652408E+03 0.  0.
      99925    2    3    3    0    0 -0.36520275179E+02  0.41639740323E+02  0.13377273011E+04  0.13644432746E+04  0.26291352018E+03 0.  0.
         25    1    3    3    0    0  0.36520275179E+02 -0.41639740323E+02  0.24486578291E+03  0.28048949751E+03  0.12509000000E+03 0.  0.
         25    1    4    4    0    0 -0.24212697132E+02  0.32110340736E+02  0.87677030014E+03  0.88656133234E+03  0.12509000000E+03 0.  0.
         25    1    4    4    0    0 -0.12307578047E+02  0.95293995867E+01  0.46095700098E+03  0.47788194231E+03  0.12509000000E+03 0.  0.
<mgrwt>
<rscale>  2 0.44855652E+03</rscale>
<asrwt>0</asrwt>
<pdfrwt beam="1">  1       21 0.23731802E+00 0.44855652E+03</pdfrwt>
<pdfrwt beam="2">  1       21 0.45838017E-02 0.44855652E+03</pdfrwt>
<totfact> 0.21488332E+04</totfact>
</mgrwt>
</event>
<event>
 7    0  0.4725730E-002  0.4525157E+03  0.7546771E-02  0.1026974E+00
         21   -1    0    0  502  501  0.00000000000E+00  0.00000000000E+00  0.17812995234E+03  0.17812995234E+03  0.00000000000E+00 0.  1.
         21   -1    0    0  501  502 -0.00000000000E+00 -0.00000000000E+00 -0.28738910386E+03  0.28738910386E+03  0.00000000000E+00 0.  1.
      99926    2    1    2    0    0  0.00000000000E+00  0.71054273576E-14 -0.10925915152E+03  0.46551905620E+03  0.45251566768E+03 0.  0.
      99925    2    3    3    0    0  0.10222605835E+03  0.32583704274E+02 -0.40283624515E+02  0.28686577127E+03  0.26297782327E+03 0.  0.
         25    1    4    4    0    0  0.61245369761E+02 -0.22266227932E+02 -0.27387341584E+02  0.14368143514E+03  0.12509000000E+03 0.  0.
         25    1    4    4    0    0  0.40980688591E+02  0.54849932206E+02 -0.12896282931E+02  0.14318433613E+03  0.12509000000E+03 0.  0.
         25    1    3    3    0    0 -0.10222605835E+03 -0.32583704274E+02 -0.68975527002E+02  0.17865328493E+03  0.12509000000E+03 0.  0.
<mgrwt>
<rscale>  2 0.45251567E+03</rscale>
<asrwt>0</asrwt>
<pdfrwt beam="1">  1       21 0.26195582E-01 0.45251567E+03</pdfrwt>
<pdfrwt beam="2">  1       21 0.42263103E-01 0.45251567E+03</pdfrwt>
<totfact> 0.69122749E+04</totfact>
</mgrwt>
</event>
<event>
 7    0  0.4725730E-002  0.4531894E+03  0.7546771E-02  0.1026775E+00
         21   -1    0    0  502  501  0.00000000000E+00  0.00000000000E+00  0.46331522964E+02  0.46331522964E+02  0.00000000000E+00 0.  1.
         21   -1    0    0  501  502 -0.00000000000E+00 -0.00000000000E+00 -0.11082120664E+04  0.11082120664E+04  0.00000000000E+00 0.  1.
      99926    2    1    2    0    0 -0.71054273576E-14  0.88817841970E-15 -0.10618805435E+04  0.11545435894E+04  0.45318937677E+03 0.  0.
      99925    2    3    3    0    0  0.40017341007E+02 -0.57320461573E+01 -0.40492518734E+03  0.48456441660E+03  0.26306657438E+03 0.  0.
         25    1    4    4    0    0  0.45020524575E+02 -0.23327460419E+02 -0.25443831225E+03  0.28802322977E+03  0.12509000000E+03 0.  0.
         25    1    3    3    0    0 -0.40017341007E+02  0.57320461573E+01 -0.65695535614E+03  0.66997917281E+03  0.12509000000E+03 0.  0.
         25    1    4    4    0    0 -0.50031835688E+01  0.17595414262E+02 -0.15048687509E+03  0.19654118684E+03  0.12509000000E+03 0.  0.
<mgrwt>
<rscale>  2 0.45318938E+03</rscale>
<asrwt>0</asrwt>
<pdfrwt beam="1">  1       21 0.68134596E-02 0.45318938E+03</pdfrwt>
<pdfrwt beam="2">  1       21 0.16297235E+00 0.45318938E+03</pdfrwt>
<totfact> 0.34109807E+04</totfact>
</mgrwt>
</event>
<event>
 7    0  0.4725730E-002  0.4469350E+03  0.7546771E-02  0.1028640E+00
         21   -1    0    0  502  501  0.00000000000E+00  0.00000000000E+00  0.37063766740E+02  0.37063766740E+02  0.00000000000E+00 0.  1.
         21   -1    0    0  501  502 -0.00000000000E+00 -0.00000000000E+00 -0.13473458657E+04  0.13473458657E+04  0.00000000000E+00 0.  1.
      99926    2    1    2    0    0  0.00000000000E+00 -0.35527136788E-14 -0.13102820989E+04  0.13844096324E+04  0.44693495224E+03 0.  0.
      99925    2    3    3    0    0 -0.84205116252E+02 -0.27158271398E+02 -0.10080237776E+04  0.10455355050E+04  0.26306744899E+03 0.  0.
         25    1    3    3    0    0  0.84205116252E+02  0.27158271398E+02 -0.30225832133E+03  0.33887412740E+03  0.12509000000E+03 0.  0.
         25    1    4    4    0    0 -0.52536671950E+02 -0.36798537142E+02 -0.40255955551E+03  0.42639880168E+03  0.12509000000E+03 0.  0.
         25    1    4    4    0    0 -0.31668444302E+02  0.96402657445E+01 -0.60546422208E+03  0.61913670333E+03  0.12509000000E+03 0.  0.
<mgrwt>
<rscale>  2 0.44693495E+03</rscale>
<asrwt>0</asrwt>
<pdfrwt beam="1">  1       21 0.54505549E-02 0.44693495E+03</pdfrwt>
<pdfrwt beam="2">  1       21 0.19813906E+00 0.44693495E+03</pdfrwt>
<totfact> 0.28495115E+04</totfact>
</mgrwt>
</event>
<event>
 7    0  0.4725730E-002  0.4552080E+03  0.7546771E-02  0.1026180E+00
         21   -1    0    0  502  501  0.00000000000E+00  0.00000000000E+00  0.19668815280E+02  0.19668815280E+02  0.00000000000E+00 0.  1.
         21   -1    0    0  501  502 -0.00000000000E+00 -0.00000000000E+00 -0.26337923917E+04  0.26337923917E+04  0.00000000000E+00 0.  1.
      99926    2    1    2    0    0  0.00000000000E+00  0.00000000000E+00 -0.26141235764E+04  0.26534612069E+04  0.45520797900E+03 0.  0.
      99925    2    3    3    0    0  0.60958946724E+01  0.11065455423E+03 -0.15056684454E+04  0.15324786576E+04  0.26300528206E+03 0.  0.
         25    1    4    4    0    0  0.53342327110E+01  0.60551331387E+02 -0.97971320195E+03  0.98953543845E+03  0.12509000000E+03 0.  0.
         25    1    4    4    0    0  0.76166196144E+00  0.50103222843E+02 -0.52595524341E+03  0.54294321916E+03  0.12509000000E+03 0.  0.
         25    1    3    3    0    0 -0.60958946724E+01 -0.11065455423E+03 -0.11084551310E+04  0.11209825493E+04  0.12509000000E+03 0.  0.
<mgrwt>
<rscale>  2 0.45520798E+03</rscale>
<asrwt>0</asrwt>
<pdfrwt beam="1">  1       21 0.28924742E-02 0.45520798E+03</pdfrwt>
<pdfrwt beam="2">  1       21 0.38732222E+00 0.45520798E+03</pdfrwt>
<totfact> 0.56765341E+03</totfact>
</mgrwt>
</event>
<event>
 7    0  0.4725730E-002  0.4272900E+03  0.7546771E-02  0.1034719E+00
         21   -1    0    0  502  501  0.00000000000E+00  0.00000000000E+00  0.20159551550E+04  0.20159551550E+04  0.00000000000E+00 0. -1.
         21   -1    0    0  501  502 -0.00000000000E+00 -0.00000000000E+00 -0.22641471120E+02  0.22641471120E+02  0.00000000000E+00 0. -1.
      99926    2    1    2    0    0 -0.71054273576E-14  0.71054273576E-14  0.19933136839E+04  0.20385966261E+04  0.42729002058E+03 0.  0.
      99925    2    3    3    0    0  0.48192698355E+02 -0.51085935428E+02  0.15124568693E+04  0.15367967724E+04  0.26322277479E+03 0.  0.
         25    1    4    4    0    0  0.56658641052E+02 -0.28943876262E+02  0.64869269011E+03  0.66369998032E+03  0.12509000000E+03 0.  0.
         25    1    3    3    0    0 -0.48192698355E+02  0.51085935428E+02  0.48085681459E+03  0.50179985373E+03  0.12509000000E+03 0.  0.
         25    1    4    4    0    0 -0.84659426971E+01 -0.22142059166E+02  0.86376417918E+03  0.87309679206E+03  0.12509000000E+03 0.  0.
<mgrwt>
<rscale>  2 0.42729002E+03</rscale>
<asrwt>0</asrwt>
<pdfrwt beam="1">  1       21 0.29646387E+00 0.42729002E+03</pdfrwt>
<pdfrwt beam="2">  1       21 0.33296295E-02 0.42729002E+03</pdfrwt>
<totfact> 0.16330631E+04</totfact>
</mgrwt>
</event>
<event>
 7    0  0.4725730E-002  0.4576512E+03  0.7546771E-02  0.1025465E+00
         21   -1    0    0  502  501  0.00000000000E+00  0.00000000000E+00  0.21589698013E+03  0.21589698013E+03  0.00000000000E+00 0.  1.
         21   -1    0    0  501  502 -0.00000000000E+00 -0.00000000000E+00 -0.24252840089E+03  0.24252840089E+03  0.00000000000E+00 0.  1.
      99926    2    1    2    0    0  0.35527136788E-14  0.00000000000E+00 -0.26631420766E+02  0.45842538102E+03  0.45765117436E+03 0.  0.
      99925    2    3    3    0    0 -0.21095712978E+02  0.10983417687E+03 -0.46132651619E+02  0.28949823217E+03  0.26300651963E+03 0.  0.
         25    1    4    4    0    0 -0.29018056915E+02  0.21155013500E+02 -0.38719253582E+02  0.13578023023E+03  0.12509000000E+03 0.  0.
         25    1    4    4    0    0  0.79223439371E+01  0.88679163373E+02 -0.74133980379E+01  0.15371800194E+03  0.12509000000E+03 0.  0.
         25    1    3    3    0    0  0.21095712978E+02 -0.10983417687E+03  0.19501230854E+02  0.16892714885E+03  0.12509000000E+03 0.  0.
<mgrwt>
<rscale>  2 0.45765117E+03</rscale>
<asrwt>0</asrwt>
<pdfrwt beam="1">  1       21 0.31749556E-01 0.45765117E+03</pdfrwt>
<pdfrwt beam="2">  1       21 0.35665941E-01 0.45765117E+03</pdfrwt>
<totfact> 0.66869861E+04</totfact>
</mgrwt>
</event>
<event>
 7    0  0.4725730E-002  0.4472409E+03  0.7546771E-02  0.1028548E+00
         21   -1    0    0  502  501  0.00000000000E+00  0.00000000000E+00  0.96090857045E+03  0.96090857045E+03  0.00000000000E+00 0. -1.
         21   -1    0    0  501  502 -0.00000000000E+00 -0.00000000000E+00 -0.52040433141E+02  0.52040433141E+02  0.00000000000E+00 0. -1.
      99926    2    1    2    0    0 -0.71054273576E-14  0.00000000000E+00  0.90886813731E+03  0.10129490036E+04  0.44724086671E+03 0.  0.
      99925    2    3    3    0    0 -0.35318047163E+02  0.81905829086E+02  0.44723591326E+03  0.52642279908E+03  0.26295450555E+03 0.  0.
         25    1    4    4    0    0 -0.21156820635E+02  0.14549827078E+02  0.27124049616E+03  0.29979697027E+03  0.12509000000E+03 0.  0.
         25    1    3    3    0    0  0.35318047163E+02 -0.81905829086E+02  0.46163222404E+03  0.48652620450E+03  0.12509000000E+03 0.  0.
         25    1    4    4    0    0 -0.14161226528E+02  0.67356002007E+02  0.17599541710E+03  0.22662582881E+03  0.12509000000E+03 0.  0.
<mgrwt>
<rscale>  2 0.44724087E+03</rscale>
<asrwt>0</asrwt>
<pdfrwt beam="1">  1       21 0.14131007E+00 0.44724087E+03</pdfrwt>
<pdfrwt beam="2">  1       21 0.76530054E-02 0.44724087E+03</pdfrwt>
<totfact> 0.41101150E+04</totfact>
</mgrwt>
</event>
<event>
 7    0  0.4725730E-002  0.4460002E+03  0.7546771E-02  0.1028922E+00
         21   -1    0    0  502  501  0.00000000000E+00  0.00000000000E+00  0.36195770765E+03  0.36195770765E+03  0.00000000000E+00 0.  1.
         21   -1    0    0  501  502 -0.00000000000E+00 -0.00000000000E+00 -0.13738910937E+03  0.13738910937E+03  0.00000000000E+00 0.  1.
      99926    2    1    2    0    0  0.00000000000E+00  0.00000000000E+00  0.22456859828E+03  0.49934681701E+03  0.44600021113E+03 0.  0.
      99925    2    3    3    0    0  0.73558587553E+02  0.19684124569E+02  0.22239222184E+03  0.35288666790E+03  0.26319644657E+03 0.  0.
         25    1    4    4    0    0  0.75789000145E+02 -0.38320524538E+01  0.12817962283E+03  0.19451524613E+03  0.12509000000E+03 0.  0.
         25    1    4    4    0    0 -0.22304125927E+01  0.23516177023E+02  0.94212599009E+02  0.15837142177E+03  0.12509000000E+03 0.  0.
         25    1    3    3    0    0 -0.73558587553E+02 -0.19684124569E+02  0.21763764379E+01  0.14646014911E+03  0.12509000000E+03 0.  0.
<mgrwt>
<rscale>  2 0.44600021E+03</rscale>
<asrwt>0</asrwt>
<pdfrwt beam="1">  1       21 0.53229075E-01 0.44600021E+03</pdfrwt>
<pdfrwt beam="2">  1       21 0.20204281E-01 0.44600021E+03</pdfrwt>
<totfact> 0.70198743E+04</totfact>
</mgrwt>
</event>
<event>
 7    0  0.4725730E-002  0.4608124E+03  0.7546771E-02  0.1024546E+00
         21   -1    0    0  502  501  0.00000000000E+00  0.00000000000E+00  0.52075994775E+03  0.52075994775E+03  0.00000000000E+00 0.  1.
         21   -1    0    0  501  502 -0.00000000000E+00 -0.00000000000E+00 -0.10194144125E+03  0.10194144125E+03  0.00000000000E+00 0.  1.
      99926    2    1    2    0    0 -0.35527136788E-14  0.00000000000E+00  0.41881850650E+03  0.62270138899E+03  0.46081241136E+03 0.  0.
      99925    2    3    3    0    0 -0.24332567041E+02 -0.27534734135E+02  0.41448918109E+03  0.49225413313E+03  0.26298786083E+03 0.  0.
         25    1    3    3    0    0  0.24332567041E+02  0.27534734135E+02  0.43293254102E+01  0.13044725586E+03  0.12509000000E+03 0.  0.
         25    1    4    4    0    0 -0.36912886384E+02 -0.36479089859E+01  0.26567346442E+03  0.29598271270E+03  0.12509000000E+03 0.  0.
         25    1    4    4    0    0  0.12580319343E+02 -0.23886825150E+02  0.14881571668E+03  0.19627142044E+03  0.12509000000E+03 0.  0.
<mgrwt>
<rscale>  2 0.46081241E+03</rscale>
<asrwt>0</asrwt>
<pdfrwt beam="1">  1       21 0.76582344E-01 0.46081241E+03</pdfrwt>
<pdfrwt beam="2">  1       21 0.14991389E-01 0.46081241E+03</pdfrwt>
<totfact> 0.54746041E+04</totfact>
</mgrwt>
</event>
<event>
 7    0  0.4725730E-002  0.4536740E+03  0.7546771E-02  0.1026632E+00
         21   -1    0    0  502  501  0.00000000000E+00  0.00000000000E+00  0.60423603826E+03  0.60423603826E+03  0.00000000000E+00 0.  1.
         21   -1    0    0  501  502 -0.00000000000E+00 -0.00000000000E+00 -0.85157144922E+02  0.85157144922E+02  0.00000000000E+00 0.  1.
      99926    2    1    2    0    0  0.00000000000E+00  0.00000000000E+00  0.51907889334E+03  0.68939318319E+03  0.45367396168E+03 0.  0.
      99925    2    3    3    0    0  0.76050795014E+02 -0.59153944586E+02  0.24055382383E+03  0.36922660930E+03  0.26301945608E+03 0.  0.
         25    1    4    4    0    0  0.69298844614E+02 -0.12704915887E+02  0.15116296711E+03  0.20847420819E+03  0.12509000000E+03 0.  0.
         25    1    4    4    0    0  0.67519503995E+01 -0.46449028699E+02  0.89390856713E+02  0.16075240112E+03  0.12509000000E+03 0.  0.
         25    1    3    3    0    0 -0.76050795014E+02  0.59153944586E+02  0.27852506952E+03  0.32016657388E+03  0.12509000000E+03 0.  0.
<mgrwt>
<rscale>  2 0.45367396E+03</rscale>
<asrwt>0</asrwt>
<pdfrwt beam="1">  1       21 0.88858239E-01 0.45367396E+03</pdfrwt>
<pdfrwt beam="2">  1       21 0.12523110E-01 0.45367396E+03</pdfrwt>
<totfact> 0.54044696E+04</totfact>
</mgrwt>
</event>
<event>
 7    0  0.4725730E-002  0.4617210E+03  0.7546771E-02  0.1024283E+00
         21   -1    0    0  502  501  0.00000000000E+00  0.00000000000E+00  0.16525371612E+03  0.16525371612E+03  0.00000000000E+00 0.  1.
         21   -1    0    0  501  502 -0.00000000000E+00 -0.00000000000E+00 -0.32251354823E+03  0.32251354823E+03  0.00000000000E+00 0.  1.
      99926    2    1    2    0    0  0.00000000000E+00  0.71054273576E-14 -0.15725983211E+03  0.48776726434E+03  0.46172096484E+03 0.  0.
      99925    2    3    3    0    0  0.65046811312E+02  0.50547414470E+02 -0.78068497644E+01  0.27617843949E+03  0.26349090073E+03 0.  0.
         25    1    4    4    0    0  0.17378736431E+02 -0.45437856681E+01 -0.29589447380E+02  0.12979102421E+03  0.12509000000E+03 0.  0.
         25    1    4    4    0    0  0.47668074882E+02  0.55091200138E+02  0.21782597616E+02  0.14638741529E+03  0.12509000000E+03 0.  0.
         25    1    3    3    0    0 -0.65046811312E+02 -0.50547414470E+02 -0.14945298234E+03  0.21158882485E+03  0.12509000000E+03 0.  0.
<mgrwt>
<rscale>  2 0.46172096E+03</rscale>
<asrwt>0</asrwt>
<pdfrwt beam="1">  1       21 0.24302017E-01 0.46172096E+03</pdfrwt>
<pdfrwt beam="2">  1       21 0.47428462E-01 0.46172096E+03</pdfrwt>
<totfact> 0.62724992E+04</totfact>
</mgrwt>
</event>
<event>
 7    0  0.4725730E-002  0.4530277E+03  0.7546771E-02  0.1026823E+00
         21   -1    0    0  502  501  0.00000000000E+00  0.00000000000E+00  0.13670189640E+03  0.13670189640E+03  0.00000000000E+00 0.  1.
         21   -1    0    0  501  502 -0.00000000000E+00 -0.00000000000E+00 -0.37533150181E+03  0.37533150181E+03  0.00000000000E+00 0.  1.
      99926    2    1    2    0    0  0.00000000000E+00  0.17763568394E-14 -0.23862960541E+03  0.51203339821E+03  0.45302771693E+03 0.  0.
      99925    2    3    3    0    0 -0.40232625956E+02  0.12291957479E+02 -0.34097399460E+02  0.26861875654E+03  0.26310387170E+03 0.  0.
         25    1    4    4    0    0  0.18135938379E+02  0.16204169356E+02 -0.27514340508E+02  0.13036883983E+03  0.12509000000E+03 0.  0.
         25    1    3    3    0    0  0.40232625956E+02 -0.12291957479E+02 -0.20453220595E+03  0.24341464167E+03  0.12509000000E+03 0.  0.
         25    1    4    4    0    0 -0.58368564335E+02 -0.39122118772E+01 -0.65830589513E+01  0.13824991671E+03  0.12509000000E+03 0.  0.
<mgrwt>
<rscale>  2 0.45302772E+03</rscale>
<asrwt>0</asrwt>
<pdfrwt beam="1">  1       21 0.20103220E-01 0.45302772E+03</pdfrwt>
<pdfrwt beam="2">  1       21 0.55195810E-01 0.45302772E+03</pdfrwt>
<totfact> 0.65451690E+04</totfact>
</mgrwt>
</event>
<event>
 7    0  0.4725730E-002  0.4563365E+03  0.7546771E-02  0.1025849E+00
         21   -1    0    0  502  501  0.00000000000E+00  0.00000000000E+00  0.15918428549E+04  0.15918428549E+04  0.00000000000E+00 0.  1.
         21   -1    0    0  501  502 -0.00000000000E+00 -0.00000000000E+00 -0.32704698775E+02  0.32704698775E+02  0.00000000000E+00 0.  1.
      99926    2    1    2    0    0  0.14210854715E-13  0.00000000000E+00  0.15591381561E+04  0.16245475537E+04  0.45633645949E+03 0.  0.
      99925    2    3    3    0    0 -0.82903137500E+02  0.18007139925E+02  0.12533222799E+04  0.12834199448E+04  0.26296925689E+03 0.  0.
         25    1    4    4    0    0  0.53890280781E+00  0.29525149694E+01  0.58219172777E+03  0.59548612389E+03  0.12509000000E+03 0.  0.
         25    1    4    4    0    0 -0.83442040308E+02  0.15054624955E+02  0.67113055217E+03  0.68793382093E+03  0.12509000000E+03 0.  0.
         25    1    3    3    0    0  0.82903137500E+02 -0.18007139925E+02  0.30581587618E+03  0.34112760885E+03  0.12509000000E+03 0.  0.
<mgrwt>
<rscale>  2 0.45633646E+03</rscale>
<asrwt>0</asrwt>
<pdfrwt beam="1">  1       21 0.23409449E+00 0.45633646E+03</pdfrwt>
<pdfrwt beam="2">  1       21 0.48095156E-02 0.45633646E+03</pdfrwt>
<totfact> 0.20665431E+04</totfact>
</mgrwt>
</event>
<event>
 7    0  0.4725730E-002  0.4627790E+03  0.7546771E-02  0.1023978E+00
         21   -1    0    0  502  501  0.00000000000E+00  0.00000000000E+00  0.28538739553E+03  0.28538739553E+03  0.00000000000E+00 0. -1.
         21   -1    0    0  501  502 -0.00000000000E+00 -0.00000000000E+00 -0.18760846441E+03  0.18760846441E+03  0.00000000000E+00 0. -1.
      99926    2    1    2    0    0  0.00000000000E+00 -0.35527136788E-14  0.97778931123E+02  0.47299585994E+03  0.46277895819E+03 0.  0.
      99925    2    3    3    0    0 -0.11867205942E+03  0.17017098779E+02  0.51920284803E+02  0.29376650163E+03  0.26311670826E+03 0.  0.
         25    1    3    3    0    0  0.11867205942E+03 -0.17017098779E+02  0.45858646320E+02  0.17922935831E+03  0.12509000000E+03 0.  0.
         25    1    4    4    0    0 -0.80954262663E+02  0.43907518416E+02  0.20077757727E+02  0.15662722392E+03  0.12509000000E+03 0.  0.
         25    1    4    4    0    0 -0.37717796754E+02 -0.26890419637E+02  0.31842527076E+02  0.13713927771E+03  0.12509000000E+03 0.  0.
<mgrwt>
<rscale>  2 0.46277896E+03</rscale>
<asrwt>0</asrwt>
<pdfrwt beam="1">  1       21 0.41968735E-01 0.46277896E+03</pdfrwt>
<pdfrwt beam="2">  1       21 0.27589480E-01 0.46277896E+03</pdfrwt>
<totfact> 0.63220232E+04</totfact>
</mgrwt>
</event>
<event>
 7    0  0.4725730E-002  0.4672833E+03  0.7546771E-02  0.1022690E+00
         21   -1    0    0  502  501  0.00000000000E+00  0.00000000000E+00  0.72269588760E+03  0.72269588760E+03  0.00000000000E+00 0. -1.
         21   -1    0    0  501  502 -0.00000000000E+00 -0.00000000000E+00 -0.75534416743E+02  0.75534416743E+02  0.00000000000E+00 0. -1.
      99926    2    1    2    0    0 -0.14210854715E-13 -0.71054273576E-14  0.64716147085E+03  0.79823030434E+03  0.46728326464E+03 0.  0.
      99925    2    3    3    0    0 -0.91993181582E+02 -0.54508862634E+02  0.51123437256E+03  0.58478793340E+03  0.26302543945E+03 0.  0.
         25    1    4    4    0    0 -0.19205134972E+02 -0.17545771563E+02  0.30002060375E+03  0.32609287341E+03  0.12509000000E+03 0.  0.
         25    1    3    3    0    0  0.91993181582E+02  0.54508862634E+02  0.13592709829E+03  0.21344237094E+03  0.12509000000E+03 0.  0.
         25    1    4    4    0    0 -0.72788046609E+02 -0.36963091071E+02  0.21121376881E+03  0.25869505999E+03  0.12509000000E+03 0.  0.
<mgrwt>
<rscale>  2 0.46728326E+03</rscale>
<asrwt>0</asrwt>
<pdfrwt beam="1">  1       21 0.10627880E+00 0.46728326E+03</pdfrwt>
<pdfrwt beam="2">  1       21 0.11108003E-01 0.46728326E+03</pdfrwt>
<totfact> 0.43502911E+04</totfact>
</mgrwt>
</event>
<event>
 7    0  0.4725730E-002  0.4455637E+03  0.7546771E-02  0.1029053E+00
         21   -1    0    0  502  501  0.00000000000E+00  0.00000000000E+00  0.38565284134E+03  0.38565284134E+03  0.00000000000E+00 0. -1.
         21   -1    0    0  501  502 -0.00000000000E+00 -0.00000000000E+00 -0.12869539448E+03  0.12869539448E+03  0.00000000000E+00 0. -1.
      99926    2    1    2    0    0  0.00000000000E+00  0.00000000000E+00  0.25695744686E+03  0.51434823581E+03  0.44556366345E+03 0.  0.
      99925    2    3    3    0    0  0.33689318192E+02 -0.78014806798E+02  0.92834229397E+02  0.29117740696E+03  0.26257343342E+03 0.  0.
         25    1    4    4    0    0  0.14703587855E+02 -0.32963160054E+02  0.41972167441E+01  0.13026085423E+03  0.12509000000E+03 0.  0.
         25    1    4    4    0    0  0.18985730337E+02 -0.45051646743E+02  0.88637012653E+02  0.16091655273E+03  0.12509000000E+03 0.  0.
         25    1    3    3    0    0 -0.33689318192E+02  0.78014806798E+02  0.16412321746E+03  0.22317082885E+03  0.12509000000E+03 0.  0.
<mgrwt>
<rscale>  2 0.44556366E+03</rscale>
<asrwt>0</asrwt>
<pdfrwt beam="1">  1       21 0.56713653E-01 0.44556366E+03</pdfrwt>
<pdfrwt beam="2">  1       21 0.18925793E-01 0.44556366E+03</pdfrwt>
<totfact> 0.69320074E+04</totfact>
</mgrwt>
</event>
<event>
 7    0  0.4725730E-002  0.4558157E+03  0.7546771E-02  0.1026002E+00
         21   -1    0    0  502  501  0.00000000000E+00  0.00000000000E+00  0.14242645807E+03  0.14242645807E+03  0.00000000000E+00 0. -1.
         21   -1    0    0  501  502 -0.00000000000E+00 -0.00000000000E+00 -0.36469332184E+03  0.36469332184E+03  0.00000000000E+00 0. -1.
      99926    2    1    2    0    0  0.00000000000E+00  0.00000000000E+00 -0.22226686378E+03  0.50711977991E+03  0.45581565621E+03 0.  0.
      99925    2    3    3    0    0 -0.59018989767E+02  0.55543894970E+02 -0.22868992213E+03  0.35793154579E+03  0.26314928380E+03 0.  0.
         25    1    4    4    0    0 -0.50262054482E+02  0.60403890914E+02 -0.10134884508E+03  0.17914798536E+03  0.12509000000E+03 0.  0.
         25    1    3    3    0    0  0.59018989767E+02 -0.55543894970E+02  0.64230583557E+01  0.14918823412E+03  0.12509000000E+03 0.  0.
         25    1    4    4    0    0 -0.87569352851E+01 -0.48599959440E+01 -0.12734107705E+03  0.17878356043E+03  0.12509000000E+03 0.  0.
<mgrwt>
<rscale>  2 0.45581566E+03</rscale>
<asrwt>0</asrwt>
<pdfrwt beam="1">  1       21 0.20945068E-01 0.45581566E+03</pdfrwt>
<pdfrwt beam="2">  1       21 0.53631370E-01 0.45581566E+03</pdfrwt>
<totfact> 0.64355675E+04</totfact>
</mgrwt>
</event>
<event>
 7    0  0.4725730E-002  0.4324882E+03  0.7546771E-02  0.1033077E+00
         21   -1    0    0  502  501  0.00000000000E+00  0.00000000000E+00  0.99175658513E+03  0.99175658513E+03  0.00000000000E+00 0. -1.
         21   -1    0    0  501  502 -0.00000000000E+00 -0.00000000000E+00 -0.47150188076E+02  0.47150188076E+02  0.00000000000E+00 0. -1.
      99926    2    1    2    0    0  0.14210854715E-13 -0.71054273576E-14  0.94460639705E+03  0.10389067732E+04  0.43248819412E+03 0.  0.
      99925    2    3    3    0    0 -0.67053170202E+02  0.40925941193E+02  0.71549668142E+03  0.76630847865E+03  0.26291086518E+03 0.  0.
         25    1    4    4    0    0 -0.32720374333E+02  0.46040281272E+02  0.27925536342E+03  0.31116136730E+03  0.12509000000E+03 0.  0.
         25    1    3    3    0    0  0.67053170202E+02 -0.40925941193E+02  0.22910971563E+03  0.27259829455E+03  0.12509000000E+03 0.  0.
         25    1    4    4    0    0 -0.34332795869E+02 -0.51143400788E+01  0.43624131800E+03  0.45514711136E+03  0.12509000000E+03 0.  0.
<mgrwt>
<rscale>  2 0.43248819E+03</rscale>
<asrwt>0</asrwt>
<pdfrwt beam="1">  1       21 0.14584654E+00 0.43248819E+03</pdfrwt>
<pdfrwt beam="2">  1       21 0.69338518E-02 0.43248819E+03</pdfrwt>
<totfact> 0.45107641E+04</totfact>
</mgrwt>
</event>
<event>
 7    0  0.4725730E-002  0.4485491E+03  0.7546771E-02  0.1028156E+00
         21   -1    0    0  502  501  0.00000000000E+00  0.00000000000E+00  0.71499888545E+02  0.71499888545E+02  0.00000000000E+00 0.  1.
         21   -1    0    0  501  502 -0.00000000000E+00 -0.00000000000E+00 -0.70348463530E+03  0.70348463530E+03  0.00000000000E+00 0.  1.
      99926    2    1    2    0    0  0.00000000000E+00  0.00000000000E+00 -0.63198474676E+03  0.77498452385E+03  0.44854909661E+03 0.  0.
      99925    2    3    3    0    0 -0.71238792128E+02  0.23655920666E+02 -0.53178933907E+03  0.59800657068E+03  0.26301594883E+03 0.  0.
         25    1    4    4    0    0 -0.22372788019E+02  0.46048136344E+02 -0.22703522111E+03  0.26422239161E+03  0.12509000000E+03 0.  0.
         25    1    4    4    0    0 -0.48866004109E+02 -0.22392215678E+02 -0.30475411796E+03  0.33378417907E+03  0.12509000000E+03 0.  0.
         25    1    3    3    0    0  0.71238792128E+02 -0.23655920666E+02 -0.10019540769E+03  0.17697795317E+03  0.12509000000E+03 0.  0.
<mgrwt>
<rscale>  2 0.44854910E+03</rscale>
<asrwt>0</asrwt>
<pdfrwt beam="1">  1       21 0.10514689E-01 0.44854910E+03</pdfrwt>
<pdfrwt beam="2">  1       21 0.10345362E+00 0.44854910E+03</pdfrwt>
<totfact> 0.51560341E+04</totfact>
</mgrwt>
</event>
<event>
 7    0  0.4725730E-002  0.4548918E+03  0.7546771E-02  0.1026273E+00
         21   -1    0    0  502  501  0.00000000000E+00  0.00000000000E+00  0.41267991285E+03  0.41267991285E+03  0.00000000000E+00 0. -1.
         21   -1    0    0  501  502 -0.00000000000E+00 -0.00000000000E+00 -0.12535533170E+03  0.12535533170E+03  0.00000000000E+00 0. -1.
      99926    2    1    2    0    0  0.00000000000E+00  0.14210854715E-13  0.28732458115E+03  0.53803524455E+03  0.45489175574E+03 0.  0.
      99925    2    3    3    0    0  0.94504682260E+01 -0.97101807958E+02  0.24837014345E+03  0.37468583752E+03  0.26302790009E+03 0.  0.
         25    1    4    4    0    0 -0.20823638838E+02 -0.14572803508E+02  0.11391108439E+03  0.17108253500E+03  0.12509000000E+03 0.  0.
         25    1    3    3    0    0 -0.94504682260E+01  0.97101807958E+02  0.38954437703E+02  0.16334940702E+03  0.12509000000E+03 0.  0.
         25    1    4    4    0    0  0.30274107064E+02 -0.82529004449E+02  0.13445905906E+03  0.20360330252E+03  0.12509000000E+03 0.  0.
<mgrwt>
<rscale>  2 0.45489176E+03</rscale>
<asrwt>0</asrwt>
<pdfrwt beam="1">  1       21 0.60688222E-01 0.45489176E+03</pdfrwt>
<pdfrwt beam="2">  1       21 0.18434608E-01 0.45489176E+03</pdfrwt>
<totfact> 0.62717856E+04</totfact>
</mgrwt>
</event>
<event>
 7    0  0.4725730E-002  0.4609221E+03  0.7546771E-02  0.1024514E+00
         21   -1    0    0  502  501  0.00000000000E+00  0.00000000000E+00  0.10296736565E+04  0.10296736565E+04  0.00000000000E+00 0. -1.
         21   -1    0    0  501  502 -0.00000000000E+00 -0.00000000000E+00 -0.51581683087E+02  0.51581683087E+02  0.00000000000E+00 0. -1.
      99926    2    1    2    0    0 -0.35527136788E-14  0.00000000000E+00  0.97809197338E+03  0.10812553396E+04  0.46092212023E+03 0.  0.
      99925    2    3    3    0    0 -0.20796510135E+02 -0.11300038447E+03  0.54275035636E+03  0.61395306764E+03  0.26298068030E+03 0.  0.
         25    1    4    4    0    0 -0.46193043657E+02 -0.67681305212E+02  0.24849946838E+03  0.29002422354E+03  0.12509000000E+03 0.  0.
         25    1    4    4    0    0  0.25396533522E+02 -0.45319079263E+02  0.29425088798E+03  0.32392884410E+03  0.12509000000E+03 0.  0.
         25    1    3    3    0    0  0.20796510135E+02  0.11300038447E+03  0.43534161702E+03  0.46730227191E+03  0.12509000000E+03 0.  0.
<mgrwt>
<rscale>  2 0.46092212E+03</rscale>
<asrwt>0</asrwt>
<pdfrwt beam="1">  1       21 0.15142258E+00 0.46092212E+03</pdfrwt>
<pdfrwt beam="2">  1       21 0.75855423E-02 0.46092212E+03</pdfrwt>
<totfact> 0.34527727E+04</totfact>
</mgrwt>
</event>
<event>
 7    0  0.4725730E-002  0.4395090E+03  0.7546771E-02  0.1030898E+00
         21   -1    0    0  502  501  0.00000000000E+00  0.00000000000E+00  0.10440591385E+03  0.10440591385E+03  0.00000000000E+00 0.  1.
         21   -1    0    0  501  502 -0.00000000000E+00 -0.00000000000E+00 -0.46254124165E+03  0.46254124165E+03  0.00000000000E+00 0.  1.
      99926    2    1    2    0    0  0.00000000000E+00  0.00000000000E+00 -0.35813532780E+03  0.56694715551E+03  0.43950900345E+03 0.  0.
      99925    2    3    3    0    0  0.14739202148E+02 -0.95265837824E+02 -0.23970474170E+03  0.36954873666E+03  0.26422543716E+03 0.  0.
         25    1    4    4    0    0 -0.13698678581E+02 -0.46305089382E+02 -0.70019815554E+02  0.15126829730E+03  0.12509000000E+03 0.  0.
         25    1    3    3    0    0 -0.14739202148E+02  0.95265837824E+02 -0.11843058610E+03  0.19739841884E+03  0.12509000000E+03 0.  0.
         25    1    4    4    0    0  0.28437880729E+02 -0.48960748442E+02 -0.16968492615E+03  0.21828043937E+03  0.12509000000E+03 0.  0.
<mgrwt>
<rscale>  2 0.43950900E+03</rscale>
<asrwt>0</asrwt>
<pdfrwt beam="1">  1       21 0.15353811E-01 0.43950900E+03</pdfrwt>
<pdfrwt beam="2">  1       21 0.68020770E-01 0.43950900E+03</pdfrwt>
<totfact> 0.68810468E+04</totfact>
</mgrwt>
</event>
<event>
 7    0  0.4725730E-002  0.4611176E+03  0.7546771E-02  0.1024458E+00
         21   -1    0    0  502  501  0.00000000000E+00  0.00000000000E+00  0.47314462824E+03  0.47314462824E+03  0.00000000000E+00 0. -1.
         21   -1    0    0  501  502 -0.00000000000E+00 -0.00000000000E+00 -0.11234908236E+03  0.11234908236E+03  0.00000000000E+00 0. -1.
      99926    2    1    2    0    0  0.00000000000E+00 -0.17763568394E-14  0.36079554588E+03  0.58549371060E+03  0.46111761973E+03 0.  0.
      99925    2    3    3    0    0  0.11696246968E+03 -0.83090889065E+01  0.20431476299E+03  0.35336658210E+03  0.26338974676E+03 0.  0.
         25    1    3    3    0    0 -0.11696246968E+03  0.83090889065E+01  0.15648078290E+03  0.23212712850E+03  0.12509000000E+03 0.  0.
         25    1    4    4    0    0  0.16958777372E+02  0.61690604053E+01  0.10547383219E+03  0.16461438216E+03  0.12509000000E+03 0.  0.
         25    1    4    4    0    0  0.10000369231E+03 -0.14478149312E+02  0.98840930798E+02  0.18875219994E+03  0.12509000000E+03 0.  0.
<mgrwt>
<rscale>  2 0.46111762E+03</rscale>
<asrwt>0</asrwt>
<pdfrwt beam="1">  1       21 0.69580092E-01 0.46111762E+03</pdfrwt>
<pdfrwt beam="2">  1       21 0.16521924E-01 0.46111762E+03</pdfrwt>
<totfact> 0.56783989E+04</totfact>
</mgrwt>
</event>
<event>
 7    0  0.4725730E-002  0.4561688E+03  0.7546771E-02  0.1025898E+00
         21   -1    0    0  502  501  0.00000000000E+00  0.00000000000E+00  0.60692300183E+03  0.60692300183E+03  0.00000000000E+00 0. -1.
         21   -1    0    0  501  502 -0.00000000000E+00 -0.00000000000E+00 -0.85715139756E+02  0.85715139756E+02  0.00000000000E+00 0. -1.
      99926    2    1    2    0    0  0.00000000000E+00  0.00000000000E+00  0.52120786208E+03  0.69263814159E+03  0.45616878422E+03 0.  0.
      99925    2    3    3    0    0 -0.11578865155E+01  0.75323962001E+02  0.19727108319E+03  0.33731070841E+03  0.26303534704E+03 0.  0.
         25    1    3    3    0    0  0.11578865155E+01 -0.75323962001E+02  0.32393677888E+03  0.35532743317E+03  0.12509000000E+03 0.  0.
         25    1    4    4    0    0  0.66768096679E+01  0.14277806232E+02  0.13470640509E+03  0.18450408996E+03  0.12509000000E+03 0.  0.
         25    1    4    4    0    0 -0.78346961834E+01  0.61046155769E+02  0.62564678102E+02  0.15280661846E+03  0.12509000000E+03 0.  0.
<mgrwt>
<rscale>  2 0.45616878E+03</rscale>
<asrwt>0</asrwt>
<pdfrwt beam="1">  1       21 0.89253380E-01 0.45616878E+03</pdfrwt>
<pdfrwt beam="2">  1       21 0.12605168E-01 0.45616878E+03</pdfrwt>
<totfact> 0.52816949E+04</totfact>
</mgrwt>
</event>
<event>
 7    0  0.4725730E-002  0.4553807E+03  0.7546771E-02  0.1026130E+00
         21   -1    0    0  502  501  0.00000000000E+00  0.00000000000E+00  0.55052601035E+02  0.55052601035E+02  0.00000000000E+00 0. -1.
         21   -1    0    0  501  502 -0.00000000000E+00 -0.00000000000E+00 -0.94169728240E+03  0.94169728240E+03  0.00000000000E+00 0. -1.
      99926    2    1    2    0    0  0.00000000000E+00 -0.71054273576E-14 -0.88664468136E+03  0.99674988343E+03  0.45538065301E+03 0.  0.
      99925    2    3    3    0    0 -0.15585203689E+02  0.48798187752E+02 -0.77952737469E+03  0.82428021308E+03  0.26296535910E+03 0.  0.
         25    1    3    3    0    0  0.15585203689E+02 -0.48798187752E+02 -0.10711730667E+03  0.17246967035E+03  0.12509000000E+03 0.  0.
         25    1    4    4    0    0 -0.10017406755E+02 -0.94678108955E+01 -0.44267068313E+03  0.46021172267E+03  0.12509000000E+03 0.  0.
         25    1    4    4    0    0 -0.55677969335E+01  0.58265998647E+02 -0.33685669156E+03  0.36406849041E+03  0.12509000000E+03 0.  0.
<mgrwt>
<rscale>  2 0.45538065E+03</rscale>
<asrwt>0</asrwt>
<pdfrwt beam="1">  1       21 0.80959707E-02 0.45538065E+03</pdfrwt>
<pdfrwt beam="2">  1       21 0.13848489E+00 0.45538065E+03</pdfrwt>
<totfact> 0.39176844E+04</totfact>
</mgrwt>
</event>
<event>
 7    0  0.4725730E-002  0.4438190E+03  0.7546771E-02  0.1029581E+00
         21   -1    0    0  502  501  0.00000000000E+00  0.00000000000E+00  0.60462252085E+02  0.60462252085E+02  0.00000000000E+00 0.  1.
         21   -1    0    0  501  502 -0.00000000000E+00 -0.00000000000E+00 -0.81445574878E+03  0.81445574878E+03  0.00000000000E+00 0.  1.
      99926    2    1    2    0    0  0.00000000000E+00  0.00000000000E+00 -0.75399349669E+03  0.87491800086E+03  0.44381901174E+03 0.  0.
      99925    2    3    3    0    0  0.50654974279E+02 -0.88378250267E+02 -0.49874947039E+03  0.57296823252E+03  0.26299224270E+03 0.  0.
         25    1    4    4    0    0  0.11546674009E+02 -0.46757814360E+02 -0.32378135575E+03  0.35043044006E+03  0.12509000000E+03 0.  0.
         25    1    4    4    0    0  0.39108300270E+02 -0.41620435906E+02 -0.17496811464E+03  0.22253779247E+03  0.12509000000E+03 0.  0.
         25    1    3    3    0    0 -0.50654974279E+02  0.88378250267E+02 -0.25524402630E+03  0.30194976834E+03  0.12509000000E+03 0.  0.
<mgrwt>
<rscale>  2 0.44381901E+03</rscale>
<asrwt>0</asrwt>
<pdfrwt beam="1">  1       21 0.88915081E-02 0.44381901E+03</pdfrwt>
<pdfrwt beam="2">  1       21 0.11977290E+00 0.44381901E+03</pdfrwt>
<totfact> 0.48440814E+04</totfact>
</mgrwt>
</event>
<event>
 7    0  0.4725730E-002  0.4583411E+03  0.7546771E-02  0.1025263E+00
         21   -1    0    0  502  501  0.00000000000E+00  0.00000000000E+00  0.47936279814E+03  0.47936279814E+03  0.00000000000E+00 0. -1.
         21   -1    0    0  501  502 -0.00000000000E+00 -0.00000000000E+00 -0.10956031324E+03  0.10956031324E+03  0.00000000000E+00 0. -1.
      99926    2    1    2    0    0  0.00000000000E+00  0.00000000000E+00  0.36980248490E+03  0.58892311137E+03  0.45834108835E+03 0.  0.
      99925    2    3    3    0    0  0.94374978339E+02  0.44399726875E+02  0.16673830890E+03  0.32861456376E+03  0.26326392761E+03 0.  0.
         25    1    3    3    0    0 -0.94374978339E+02 -0.44399726875E+02  0.20306417600E+03  0.26030854761E+03  0.12509000000E+03 0.  0.
         25    1    4    4    0    0  0.12662167288E+02  0.61623196615E+01  0.99089302067E+02  0.16020144365E+03  0.12509000000E+03 0.  0.
         25    1    4    4    0    0  0.81712811051E+02  0.38237407213E+02  0.67649006829E+02  0.16841312011E+03  0.12509000000E+03 0.  0.
<mgrwt>
<rscale>  2 0.45834109E+03</rscale>
<asrwt>0</asrwt>
<pdfrwt beam="1">  1       21 0.70494529E-01 0.45834109E+03</pdfrwt>
<pdfrwt beam="2">  1       21 0.16111811E-01 0.45834109E+03</pdfrwt>
<totfact> 0.57823149E+04</totfact>
</mgrwt>
</event>
<event>
 7    0  0.4725730E-002  0.4557727E+03  0.7546771E-02  0.1026014E+00
         21   -1    0    0  502  501  0.00000000000E+00  0.00000000000E+00  0.30262643104E+02  0.30262643104E+02  0.00000000000E+00 0.  1.
         21   -1    0    0  501  502 -0.00000000000E+00 -0.00000000000E+00 -0.17160490327E+04  0.17160490327E+04  0.00000000000E+00 0.  1.
      99926    2    1    2    0    0  0.00000000000E+00  0.00000000000E+00 -0.16857863896E+04  0.17463116758E+04  0.45577266012E+03 0.  0.
      99925    2    3    3    0    0 -0.10559413494E+03  0.40223887369E+02 -0.11137230630E+04  0.11499292144E+04  0.26304002507E+03 0.  0.
         25    1    3    3    0    0  0.10559413494E+03 -0.40223887369E+02 -0.57206332666E+03  0.59638246140E+03  0.12509000000E+03 0.  0.
         25    1    4    4    0    0 -0.44680125267E+02  0.17113172205E+02 -0.38356975673E+03  0.40627877207E+03  0.12509000000E+03 0.  0.
         25    1    4    4    0    0 -0.60914009677E+02  0.23110715165E+02 -0.73015330623E+03  0.74365044237E+03  0.12509000000E+03 0.  0.
<mgrwt>
<rscale>  2 0.45577266E+03</rscale>
<asrwt>0</asrwt>
<pdfrwt beam="1">  1       21 0.44503891E-02 0.45577266E+03</pdfrwt>
<pdfrwt beam="2">  1       21 0.25236013E+00 0.45577266E+03</pdfrwt>
<totfact> 0.18204815E+04</totfact>
</mgrwt>
</event>
<event>
 7    0  0.4725730E-002  0.4410242E+03  0.7546771E-02  0.1030433E+00
         21   -1    0    0  502  501  0.00000000000E+00  0.00000000000E+00  0.84545903389E+03  0.84545903389E+03  0.00000000000E+00 0. -1.
         21   -1    0    0  501  502 -0.00000000000E+00 -0.00000000000E+00 -0.57513830509E+02  0.57513830509E+02  0.00000000000E+00 0. -1.
      99926    2    1    2    0    0  0.00000000000E+00  0.00000000000E+00  0.78794520339E+03  0.90297286440E+03  0.44102420604E+03 0.  0.
      99925    2    3    3    0    0  0.65411608496E+02 -0.60232796478E+02  0.59365740393E+03  0.65538060803E+03  0.26303604287E+03 0.  0.
         25    1    4    4    0    0  0.14907113473E+02  0.52614059404E+01  0.30661886869E+03  0.33153060667E+03  0.12509000000E+03 0.  0.
         25    1    4    4    0    0  0.50504495023E+02 -0.65494202418E+02  0.28703853524E+03  0.32385000136E+03  0.12509000000E+03 0.  0.
         25    1    3    3    0    0 -0.65411608496E+02  0.60232796478E+02  0.19428779946E+03  0.24759225637E+03  0.12509000000E+03 0.  0.
<mgrwt>
<rscale>  2 0.44102421E+03</rscale>
<asrwt>0</asrwt>
<pdfrwt beam="1">  1       21 0.12433220E+00 0.44102421E+03</pdfrwt>
<pdfrwt beam="2">  1       21 0.84579168E-02 0.44102421E+03</pdfrwt>
<totfact> 0.48160471E+04</totfact>
</mgrwt>
</event>
<event>
 7    0  0.4725730E-002  0.4481783E+03  0.7546771E-02  0.1028267E+00
         21   -1    0    0  502  501  0.00000000000E+00  0.00000000000E+00  0.20754907939E+03  0.20754907939E+03  0.00000000000E+00 0. -1.
         21   -1    0    0  501  502 -0.00000000000E+00 -0.00000000000E+00 -0.24194735152E+03  0.24194735152E+03  0.00000000000E+00 0. -1.
      99926    2    1    2    0    0  0.00000000000E+00 -0.17763568394E-14 -0.34398272131E+02  0.44949643091E+03  0.44817831304E+03 0.  0.
      99925    2    3    3    0    0  0.92276579500E+02 -0.13970426949E+02 -0.73695195790E+02  0.28855577023E+03  0.26291312385E+03 0.  0.
         25    1    4    4    0    0  0.35781454037E+02 -0.38399643828E+02 -0.60451475988E+02  0.14851509738E+03  0.12509000000E+03 0.  0.
         25    1    3    3    0    0 -0.92276579500E+02  0.13970426949E+02  0.39296923659E+02  0.16094066069E+03  0.12509000000E+03 0.  0.
         25    1    4    4    0    0  0.56495125463E+02  0.24429216879E+02 -0.13243719801E+02  0.14004067285E+03  0.12509000000E+03 0.  0.
<mgrwt>
<rscale>  2 0.44817831E+03</rscale>
<asrwt>0</asrwt>
<pdfrwt beam="1">  1       21 0.30521924E-01 0.44817831E+03</pdfrwt>
<pdfrwt beam="2">  1       21 0.35580493E-01 0.44817831E+03</pdfrwt>
<totfact> 0.72835210E+04</totfact>
</mgrwt>
</event>
<event>
 7    0  0.4725730E-002  0.4485617E+03  0.7546771E-02  0.1028152E+00
         21   -1    0    0  502  501  0.00000000000E+00  0.00000000000E+00  0.11157087333E+03  0.11157087333E+03  0.00000000000E+00 0.  1.
         21   -1    0    0  501  502 -0.00000000000E+00 -0.00000000000E+00 -0.45085154203E+03  0.45085154203E+03  0.00000000000E+00 0.  1.
      99926    2    1    2    0    0 -0.88817841970E-15 -0.14210854715E-13 -0.33928066870E+03  0.56242241536E+03  0.44856170272E+03 0.  0.
      99925    2    3    3    0    0  0.71217326822E+01  0.10526079608E+03 -0.19130391507E+03  0.34179788821E+03  0.26286508744E+03 0.  0.
         25    1    4    4    0    0 -0.67196085480E+01  0.49288093926E+02 -0.14156710421E+03  0.19535409501E+03  0.12509000000E+03 0.  0.
         25    1    4    4    0    0  0.13841341230E+02  0.55972702150E+02 -0.49736810862E+02  0.14644379320E+03  0.12509000000E+03 0.  0.
         25    1    3    3    0    0 -0.71217326822E+01 -0.10526079608E+03 -0.14797675363E+03  0.22062452715E+03  0.12509000000E+03 0.  0.
<mgrwt>
<rscale>  2 0.44856170E+03</rscale>
<asrwt>0</asrwt>
<pdfrwt beam="1">  1       21 0.16407482E-01 0.44856170E+03</pdfrwt>
<pdfrwt beam="2">  1       21 0.66301696E-01 0.44856170E+03</pdfrwt>
<totfact> 0.64263474E+04</totfact>
</mgrwt>
</event>
<event>
 7    0  0.4725730E-002  0.4549980E+03  0.7546771E-02  0.1026242E+00
         21   -1    0    0  502  501  0.00000000000E+00  0.00000000000E+00  0.97139723437E+03  0.97139723437E+03  0.00000000000E+00 0.  1.
         21   -1    0    0  501  502 -0.00000000000E+00 -0.00000000000E+00 -0.53279742143E+02  0.53279742143E+02  0.00000000000E+00 0.  1.
      99926    2    1    2    0    0  0.00000000000E+00  0.00000000000E+00  0.91811749223E+03  0.10246769765E+04  0.45499799633E+03 0.  0.
      99925    2    3    3    0    0  0.71006450974E+02  0.86309053943E+02  0.53757589948E+03  0.60880370161E+03  0.26298846080E+03 0.  0.
         25    1    3    3    0    0 -0.71006450974E+02 -0.86309053943E+02  0.38054159275E+03  0.41587327491E+03  0.12509000000E+03 0.  0.
         25    1    4    4    0    0  0.53453536877E+02  0.66143945999E+02  0.35495430424E+03  0.38583982220E+03  0.12509000000E+03 0.  0.
         25    1    4    4    0    0  0.17552914097E+02  0.20165107944E+02  0.18262159524E+03  0.22296387941E+03  0.12509000000E+03 0.  0.
<mgrwt>
<rscale>  2 0.45499800E+03</rscale>
<asrwt>0</asrwt>
<pdfrwt beam="1">  1       21 0.14285252E+00 0.45499800E+03</pdfrwt>
<pdfrwt beam="2">  1       21 0.78352568E-02 0.45499800E+03</pdfrwt>
<totfact> 0.38221105E+04</totfact>
</mgrwt>
</event>
<event>
 7    0  0.4725730E-002  0.4530829E+03  0.7546771E-02  0.1026807E+00
         21   -1    0    0  502  501  0.00000000000E+00  0.00000000000E+00  0.85830082011E+03  0.85830082011E+03  0.00000000000E+00 0. -1.
         21   -1    0    0  501  502 -0.00000000000E+00 -0.00000000000E+00 -0.59793750455E+02  0.59793750455E+02  0.00000000000E+00 0. -1.
      99926    2    1    2    0    0  0.00000000000E+00  0.00000000000E+00  0.79850706965E+03  0.91809457056E+03  0.45308288448E+03 0.  0.
      99925    2    3    3    0    0  0.77506328291E+02 -0.76195570742E+02  0.55251461432E+03  0.62149249352E+03  0.26299719492E+03 0.  0.
         25    1    4    4    0    0  0.32639363359E+02 -0.26860581070E+01  0.30232619596E+03  0.32881785203E+03  0.12509000000E+03 0.  0.
         25    1    4    4    0    0  0.44866964932E+02 -0.73509512635E+02  0.25018841835E+03  0.29267464148E+03  0.12509000000E+03 0.  0.
         25    1    3    3    0    0 -0.77506328291E+02  0.76195570742E+02  0.24599245533E+03  0.29660207704E+03  0.12509000000E+03 0.  0.
<mgrwt>
<rscale>  2 0.45308288E+03</rscale>
<asrwt>0</asrwt>
<pdfrwt beam="1">  1       21 0.12622070E+00 0.45308288E+03</pdfrwt>
<pdfrwt beam="2">  1       21 0.87931991E-02 0.45308288E+03</pdfrwt>
<totfact> 0.43103364E+04</totfact>
</mgrwt>
</event>
<event>
 7    0  0.4725730E-002  0.4535638E+03  0.7546771E-02  0.1026665E+00
         21   -1    0    0  502  501  0.00000000000E+00  0.00000000000E+00  0.16236973524E+03  0.16236973524E+03  0.00000000000E+00 0. -1.
         21   -1    0    0  501  502 -0.00000000000E+00 -0.00000000000E+00 -0.31674646194E+03  0.31674646194E+03  0.00000000000E+00 0. -1.
      99926    2    1    2    0    0  0.00000000000E+00 -0.71054273576E-14 -0.15437672670E+03  0.47911619718E+03  0.45356383967E+03 0.  0.
      99925    2    3    3    0    0  0.37206186506E+02 -0.32236147459E+02 -0.20333013723E+03  0.33605182699E+03  0.26299090516E+03 0.  0.
         25    1    3    3    0    0 -0.37206186506E+02  0.32236147459E+02  0.48953410530E+02  0.14306437020E+03  0.12509000000E+03 0.  0.
         25    1    4    4    0    0  0.30442036772E+02  0.19643107654E+02 -0.80527198643E+02  0.15311664541E+03  0.12509000000E+03 0.  0.
         25    1    4    4    0    0  0.67641497337E+01 -0.51879255113E+02 -0.12280293858E+03  0.18293518157E+03  0.12509000000E+03 0.  0.
<mgrwt>
<rscale>  2 0.45356384E+03</rscale>
<asrwt>0</asrwt>
<pdfrwt beam="1">  1       21 0.23877902E-01 0.45356384E+03</pdfrwt>
<pdfrwt beam="2">  1       21 0.46580362E-01 0.45356384E+03</pdfrwt>
<totfact> 0.67531025E+04</totfact>
</mgrwt>
</event>
<event>
 7    0  0.4725730E-002  0.4541758E+03  0.7546771E-02  0.1026484E+00
         21   -1    0    0  502  501  0.00000000000E+00  0.00000000000E+00  0.19681217995E+04  0.19681217995E+04  0.00000000000E+00 0.  1.
         21   -1    0    0  501  502 -0.00000000000E+00 -0.00000000000E+00 -0.26202093019E+02  0.26202093019E+02  0.00000000000E+00 0.  1.
      99926    2    1    2    0    0  0.35527136788E-14  0.00000000000E+00  0.19419197065E+04  0.19943238926E+04  0.45417578300E+03 0.  0.
      99925    2    3    3    0    0  0.25104342998E+02  0.18762268961E+02  0.74891605977E+03  0.79437078513E+03  0.26299701312E+03 0.  0.
         25    1    3    3    0    0 -0.25104342998E+02 -0.18762268961E+02  0.11930036467E+04  0.11999531074E+04  0.12509000000E+03 0.  0.
         25    1    4    4    0    0  0.59281666385E+01  0.19428274140E+02  0.25855341071E+03  0.28794092326E+03  0.12509000000E+03 0.  0.
         25    1    4    4    0    0  0.19176176359E+02 -0.66600517952E+00  0.49036264906E+03  0.50642986187E+03  0.12509000000E+03 0.  0.
<mgrwt>
<rscale>  2 0.45417578E+03</rscale>
<asrwt>0</asrwt>
<pdfrwt beam="1">  1       21 0.28942958E+00 0.45417578E+03</pdfrwt>
<pdfrwt beam="2">  1       21 0.38532503E-02 0.45417578E+03</pdfrwt>
<totfact> 0.13891244E+04</totfact>
</mgrwt>
</event>
<event>
 7    0  0.4725730E-002  0.4599738E+03  0.7546771E-02  0.1024789E+00
         21   -1    0    0  502  501  0.00000000000E+00  0.00000000000E+00  0.33721369796E+03  0.33721369796E+03  0.00000000000E+00 0.  1.
         21   -1    0    0  501  502 -0.00000000000E+00 -0.00000000000E+00 -0.15685591384E+03  0.15685591384E+03  0.00000000000E+00 0.  1.
      99926    2    1    2    0    0  0.00000000000E+00  0.00000000000E+00  0.18035778412E+03  0.49406961179E+03  0.45997375035E+03 0.  0.
      99925    2    3    3    0    0 -0.11640701380E+03 -0.10231869204E+02  0.97912079687E+02  0.30406938472E+03  0.26308958810E+03 0.  0.
         25    1    4    4    0    0 -0.47654431018E+02 -0.28778626069E+02  0.14438754839E+02  0.13767766651E+03  0.12509000000E+03 0.  0.
         25    1    4    4    0    0 -0.68752582779E+02  0.18546756865E+02  0.83473324848E+02  0.16639171821E+03  0.12509000000E+03 0.  0.
         25    1    3    3    0    0  0.11640701380E+03  0.10231869204E+02  0.82445704429E+02  0.19000022707E+03  0.12509000000E+03 0.  0.
<mgrwt>
<rscale>  2 0.45997375E+03</rscale>
<asrwt>0</asrwt>
<pdfrwt beam="1">  1       21 0.49590250E-01 0.45997375E+03</pdfrwt>
<pdfrwt beam="2">  1       21 0.23067046E-01 0.45997375E+03</pdfrwt>
<totfact> 0.63158439E+04</totfact>
</mgrwt>
</event>
<event>
 7    0  0.4725730E-002  0.4479758E+03  0.7546771E-02  0.1028327E+00
         21   -1    0    0  502  501  0.00000000000E+00  0.00000000000E+00  0.19950096698E+03  0.19950096698E+03  0.00000000000E+00 0.  1.
         21   -1    0    0  501  502 -0.00000000000E+00 -0.00000000000E+00 -0.25148043676E+03  0.25148043676E+03  0.00000000000E+00 0.  1.
      99926    2    1    2    0    0  0.00000000000E+00  0.00000000000E+00 -0.51979469772E+02  0.45098140374E+03  0.44797584895E+03 0.  0.
      99925    2    3    3    0    0  0.94171592354E+02  0.48301870392E+02 -0.20628377777E+02  0.28415287333E+03  0.26289915550E+03 0.  0.
         25    1    4    4    0    0  0.56450246150E+02  0.32671076293E+02 -0.49375325927E+02  0.14946391012E+03  0.12509000000E+03 0.  0.
         25    1    3    3    0    0 -0.94171592354E+02 -0.48301870392E+02 -0.31351091995E+02  0.16682853041E+03  0.12509000000E+03 0.  0.
         25    1    4    4    0    0  0.37721346205E+02  0.15630794099E+02  0.28746948150E+02  0.13468896321E+03  0.12509000000E+03 0.  0.
<mgrwt>
<rscale>  2 0.44797585E+03</rscale>
<asrwt>0</asrwt>
<pdfrwt beam="1">  1       21 0.29338378E-01 0.44797585E+03</pdfrwt>
<pdfrwt beam="2">  1       21 0.36982417E-01 0.44797585E+03</pdfrwt>
<totfact> 0.72838292E+04</totfact>
</mgrwt>
</event>
<event>
 7    0  0.4725730E-002  0.4601167E+03  0.7546771E-02  0.1024747E+00
         21   -1    0    0  502  501  0.00000000000E+00  0.00000000000E+00  0.24957467882E+03  0.24957467882E+03  0.00000000000E+00 0.  1.
         21   -1    0    0  501  502 -0.00000000000E+00 -0.00000000000E+00 -0.21206812336E+03  0.21206812336E+03  0.00000000000E+00 0.  1.
      99926    2    1    2    0    0  0.00000000000E+00  0.00000000000E+00  0.37506555462E+02  0.46164280218E+03  0.46011665380E+03 0.  0.
      99925    2    3    3    0    0 -0.77619437373E+02 -0.40052578266E+02  0.10290159416E+03  0.29565182270E+03  0.26304424742E+03 0.  0.
         25    1    4    4    0    0 -0.52823210737E+02  0.29350847610E+00  0.86254916796E+02  0.16086577172E+03  0.12509000000E+03 0.  0.
         25    1    3    3    0    0  0.77619437373E+02  0.40052578266E+02 -0.65395038697E+02  0.16599097948E+03  0.12509000000E+03 0.  0.
         25    1    4    4    0    0 -0.24796226636E+02 -0.40346086742E+02  0.16646677363E+02  0.13478605098E+03  0.12509000000E+03 0.  0.
<mgrwt>
<rscale>  2 0.46011665E+03</rscale>
<asrwt>0</asrwt>
<pdfrwt beam="1">  1       21 0.36702159E-01 0.46011665E+03</pdfrwt>
<pdfrwt beam="2">  1       21 0.31186489E-01 0.46011665E+03</pdfrwt>
<totfact> 0.65352882E+04</totfact>
</mgrwt>
</event>
<event>
 7    0  0.4725730E-002  0.4163267E+03  0.7546771E-02  0.1038269E+00
         21   -1    0    0  502  501  0.00000000000E+00  0.00000000000E+00  0.39533753132E+03  0.39533753132E+03  0.00000000000E+00 0.  1.
         21   -1    0    0  501  502 -0.00000000000E+00 -0.00000000000E+00 -0.10960755942E+03  0.10960755942E+03  0.00000000000E+00 0.  1.
      99926    2    1    2    0    0  0.71054273576E-14  0.00000000000E+00  0.28572997190E+03  0.50494509073E+03  0.41632670803E+03 0.  0.
      99925    2    3    3    0    0  0.37123512751E+02  0.60079028807E+02  0.19532159353E+03  0.33521345585E+03  0.26311573724E+03 0.  0.
         25    1    3    3    0    0 -0.37123512751E+02 -0.60079028807E+02  0.90408378371E+02  0.16973163489E+03  0.12509000000E+03 0.  0.
         25    1    4    4    0    0  0.42402314211E+02  0.17632127889E+02  0.13571156898E+03  0.19019460097E+03  0.12509000000E+03 0.  0.
         25    1    4    4    0    0 -0.52788014600E+01  0.42446900918E+02  0.59610024546E+02  0.14501885487E+03  0.12509000000E+03 0.  0.
<mgrwt>
<rscale>  2 0.41632671E+03</rscale>
<asrwt>0</asrwt>
<pdfrwt beam="1">  1       21 0.58137872E-01 0.41632671E+03</pdfrwt>
<pdfrwt beam="2">  1       21 0.16118759E-01 0.41632671E+03</pdfrwt>
<totfact> 0.89321727E+04</totfact>
</mgrwt>
</event>
<event>
 6    0  0.4725730E-002  0.4179043E+03  0.7546771E-02  0.1037751E+00
         21   -1    0    0  502  501  0.00000000000E+00  0.00000000000E+00  0.28959037437E+03  0.28959037437E+03  0.00000000000E+00 0. -1.
         21   -1    0    0  501  502 -0.00000000000E+00 -0.00000000000E+00 -0.15076811250E+03  0.15076811250E+03  0.00000000000E+00 0. -1.
      99926    2    1    2    0    0 -0.35527136788E-14 -0.71054273576E-14  0.13882226188E+03  0.44035848687E+03  0.41790426723E+03 0.  0.
         25    1    3    3    0    0  0.61828804245E+01  0.27908314268E+02  0.72407986658E+02  0.14733474352E+03  0.12509000000E+03 0.  0.
         25    1    3    3    0    0 -0.29329314406E+02  0.25718741784E+02 -0.16371218561E+02  0.13204994229E+03  0.12509000000E+03 0.  0.
         25    1    3    3    0    0  0.23146433982E+02 -0.53627056052E+02  0.82785493781E+02  0.16097380106E+03  0.12509000000E+03 0.  0.
<mgrwt>
<rscale>  2 0.41790427E+03</rscale>
<asrwt>0</asrwt>
<pdfrwt beam="1">  1       21 0.42586820E-01 0.41790427E+03</pdfrwt>
<pdfrwt beam="2">  1       21 0.22171781E-01 0.41790427E+03</pdfrwt>
<totfact> 0.94637651E+04</totfact>
</mgrwt>
</event>
<event>
 7    0  0.4725730E-002  0.4546024E+03  0.7546771E-02  0.1026358E+00
         21   -1    0    0  502  501  0.00000000000E+00  0.00000000000E+00  0.59298471619E+02  0.59298471619E+02  0.00000000000E+00 0. -1.
         21   -1    0    0  501  502 -0.00000000000E+00 -0.00000000000E+00 -0.87128448683E+03  0.87128448683E+03  0.00000000000E+00 0. -1.
      99926    2    1    2    0    0  0.00000000000E+00  0.00000000000E+00 -0.81198601521E+03  0.93058295845E+03  0.45460241273E+03 0.  0.
      99925    2    3    3    0    0  0.55738396773E+02 -0.11980079911E+02 -0.31136004339E+03  0.41142579250E+03  0.26282278236E+03 0.  0.
         25    1    4    4    0    0  0.46150092333E+02 -0.16585365448E+01 -0.21460652243E+03  0.25265796907E+03  0.12509000000E+03 0.  0.
         25    1    4    4    0    0  0.95883044401E+01 -0.10321543366E+02 -0.96753520961E+02  0.15876782343E+03  0.12509000000E+03 0.  0.
         25    1    3    3    0    0 -0.55738396773E+02  0.11980079911E+02 -0.50062597182E+03  0.51915716594E+03  0.12509000000E+03 0.  0.
<mgrwt>
<rscale>  2 0.45460241E+03</rscale>
<asrwt>0</asrwt>
<pdfrwt beam="1">  1       21 0.87203639E-02 0.45460241E+03</pdfrwt>
<pdfrwt beam="2">  1       21 0.12813006E+00 0.45460241E+03</pdfrwt>
<totfact> 0.42067916E+04</totfact>
</mgrwt>
</event>
<event>
 7    0  0.4725730E-002  0.4531044E+03  0.7546771E-02  0.1026800E+00
         21   -1    0    0  502  501  0.00000000000E+00  0.00000000000E+00  0.70842552705E+03  0.70842552705E+03  0.00000000000E+00 0. -1.
         21   -1    0    0  501  502 -0.00000000000E+00 -0.00000000000E+00 -0.72450668722E+02  0.72450668722E+02  0.00000000000E+00 0. -1.
      99926    2    1    2    0    0 -0.71054273576E-14  0.00000000000E+00  0.63597485833E+03  0.78087619578E+03  0.45310441699E+03 0.  0.
      99925    2    3    3    0    0 -0.62340234699E+02  0.90377993981E+02  0.37097110162E+03  0.46794012270E+03  0.26323737109E+03 0.  0.
         25    1    4    4    0    0 -0.29183790888E+02  0.33537890949E+02  0.24478005350E+03  0.27846232505E+03  0.12509000000E+03 0.  0.
         25    1    3    3    0    0  0.62340234699E+02 -0.90377993981E+02  0.26500375671E+03  0.31293607307E+03  0.12509000000E+03 0.  0.
         25    1    4    4    0    0 -0.33156443811E+02  0.56840103032E+02  0.12619104812E+03  0.18947779766E+03  0.12509000000E+03 0.  0.
<mgrwt>
<rscale>  2 0.45310442E+03</rscale>
<asrwt>0</asrwt>
<pdfrwt beam="1">  1       21 0.10418022E+00 0.45310442E+03</pdfrwt>
<pdfrwt beam="2">  1       21 0.10654511E-01 0.45310442E+03</pdfrwt>
<totfact> 0.49435194E+04</totfact>
</mgrwt>
</event>
<event>
 7    0  0.4725730E-002  0.4560715E+03  0.7546771E-02  0.1025927E+00
         21   -1    0    0  502  501  0.00000000000E+00  0.00000000000E+00  0.77292966250E+02  0.77292966250E+02  0.00000000000E+00 0.  1.
         21   -1    0    0  501  502 -0.00000000000E+00 -0.00000000000E+00 -0.67276892358E+03  0.67276892358E+03  0.00000000000E+00 0.  1.
      99926    2    1    2    0    0  0.00000000000E+00 -0.14210854715E-13 -0.59547595733E+03  0.75006188983E+03  0.45607151064E+03 0.  0.
      99925    2    3    3    0    0 -0.68082054088E+02  0.75291664545E+02 -0.28842099192E+03  0.40331376695E+03  0.26300442048E+03 0.  0.
         25    1    4    4    0    0 -0.51645456693E+02  0.27199321861E+02 -0.19584742460E+03  0.23960546348E+03  0.12509000000E+03 0.  0.
         25    1    4    4    0    0 -0.16436597394E+02  0.48092342684E+02 -0.92573567321E+02  0.16370830347E+03  0.12509000000E+03 0.  0.
         25    1    3    3    0    0  0.68082054088E+02 -0.75291664545E+02 -0.30705496541E+03  0.34674812288E+03  0.12509000000E+03 0.  0.
<mgrwt>
<rscale>  2 0.45607151E+03</rscale>
<asrwt>0</asrwt>
<pdfrwt beam="1">  1       21 0.11366612E-01 0.45607151E+03</pdfrwt>
<pdfrwt beam="2">  1       21 0.98936610E-01 0.45607151E+03</pdfrwt>
<totfact> 0.49846656E+04</totfact>
</mgrwt>
</event>
<event>
 7    0  0.4725730E-002  0.4638833E+03  0.7546771E-02  0.1023661E+00
         21   -1    0    0  502  501  0.00000000000E+00  0.00000000000E+00  0.68605649083E+02  0.68605649083E+02  0.00000000000E+00 0.  1.
         21   -1    0    0  501  502 -0.00000000000E+00 -0.00000000000E+00 -0.78414727530E+03  0.78414727530E+03  0.00000000000E+00 0.  1.
      99926    2    1    2    0    0  0.71054273576E-14  0.00000000000E+00 -0.71554162622E+03  0.85275292438E+03  0.46388331636E+03 0.  0.
      99925    2    3    3    0    0  0.52190488715E+02  0.76013668210E+02 -0.59163620232E+03  0.65400185637E+03  0.26302681872E+03 0.  0.
         25    1    3    3    0    0 -0.52190488715E+02 -0.76013668210E+02 -0.12390542390E+03  0.19875106802E+03  0.12509000000E+03 0.  0.
         25    1    4    4    0    0  0.30302322848E+02  0.50140537154E+02 -0.39539586037E+03  0.41882896119E+03  0.12509000000E+03 0.  0.
         25    1    4    4    0    0  0.21888165867E+02  0.25873131055E+02 -0.19624034195E+03  0.23517289518E+03  0.12509000000E+03 0.  0.
<mgrwt>
<rscale>  2 0.46388332E+03</rscale>
<asrwt>0</asrwt>
<pdfrwt beam="1">  1       21 0.10089066E-01 0.46388332E+03</pdfrwt>
<pdfrwt beam="2">  1       21 0.11531578E+00 0.46388332E+03</pdfrwt>
<totfact> 0.42291460E+04</totfact>
</mgrwt>
</event>
<event>
 7    0  0.4725730E-002  0.4530043E+03  0.7546771E-02  0.1026830E+00
         21   -1    0    0  502  501  0.00000000000E+00  0.00000000000E+00  0.43588695725E+03  0.43588695725E+03  0.00000000000E+00 0. -1.
         21   -1    0    0  501  502 -0.00000000000E+00 -0.00000000000E+00 -0.11769844856E+03  0.11769844856E+03  0.00000000000E+00 0. -1.
      99926    2    1    2    0    0  0.00000000000E+00  0.35527136788E-14  0.31818850869E+03  0.55358540580E+03  0.45300427642E+03 0.  0.
      99925    2    3    3    0    0  0.87653219408E+02  0.23312221599E+02  0.12187322523E+03  0.30375797502E+03  0.26303854815E+03 0.  0.
         25    1    4    4    0    0  0.32448540085E+02  0.22942959438E+02  0.10062819657E+03  0.16538690754E+03  0.12509000000E+03 0.  0.
         25    1    4    4    0    0  0.55204679324E+02  0.36926216099E+00  0.21245028662E+02  0.13837106748E+03  0.12509000000E+03 0.  0.
         25    1    3    3    0    0 -0.87653219408E+02 -0.23312221599E+02  0.19631528346E+03  0.24982743078E+03  0.12509000000E+03 0.  0.
<mgrwt>
<rscale>  2 0.45300428E+03</rscale>
<asrwt>0</asrwt>
<pdfrwt beam="1">  1       21 0.64101023E-01 0.45300428E+03</pdfrwt>
<pdfrwt beam="2">  1       21 0.17308596E-01 0.45300428E+03</pdfrwt>
<totfact> 0.62612927E+04</totfact>
</mgrwt>
</event>
<event>
 7    0  0.4725730E-002  0.4474551E+03  0.7546771E-02  0.1028484E+00
         21   -1    0    0  502  501  0.00000000000E+00  0.00000000000E+00  0.16410907158E+03  0.16410907158E+03  0.00000000000E+00 0.  1.
         21   -1    0    0  501  502 -0.00000000000E+00 -0.00000000000E+00 -0.30500459627E+03  0.30500459627E+03  0.00000000000E+00 0.  1.
      99926    2    1    2    0    0  0.00000000000E+00  0.00000000000E+00 -0.14089552469E+03  0.46911366785E+03  0.44745512008E+03 0.  0.
      99925    2    3    3    0    0  0.71731072753E+02  0.17629563906E+02 -0.96189729915E+01  0.27331481839E+03  0.26296828134E+03 0.  0.
         25    1    4    4    0    0  0.96671905935E+01 -0.11933267635E+02  0.19811485470E+02  0.12757688077E+03  0.12509000000E+03 0.  0.
         25    1    4    4    0    0  0.62063882160E+02  0.29562831542E+02 -0.29430458462E+02  0.14573793762E+03  0.12509000000E+03 0.  0.
         25    1    3    3    0    0 -0.71731072753E+02 -0.17629563906E+02 -0.13127655170E+03  0.19579884945E+03  0.12509000000E+03 0.  0.
<mgrwt>
<rscale>  2 0.44745512E+03</rscale>
<asrwt>0</asrwt>
<pdfrwt beam="1">  1       21 0.24133687E-01 0.44745512E+03</pdfrwt>
<pdfrwt beam="2">  1       21 0.44853617E-01 0.44745512E+03</pdfrwt>
<totfact> 0.71698947E+04</totfact>
</mgrwt>
</event>
<event>
 7    0  0.4725730E-002  0.4442891E+03  0.7546771E-02  0.1029439E+00
         21   -1    0    0  502  501  0.00000000000E+00  0.00000000000E+00  0.59355921582E+03  0.59355921582E+03  0.00000000000E+00 0.  1.
         21   -1    0    0  501  502 -0.00000000000E+00 -0.00000000000E+00 -0.83139468290E+02  0.83139468290E+02  0.00000000000E+00 0.  1.
      99926    2    1    2    0    0  0.00000000000E+00  0.17763568394E-14  0.51041974753E+03  0.67669868411E+03  0.44428908428E+03 0.  0.
      99925    2    3    3    0    0 -0.95710791326E+01  0.14070120608E+02  0.47885118402E+03  0.54656930176E+03  0.26296382133E+03 0.  0.
         25    1    4    4    0    0 -0.36528788132E+02 -0.18106214709E+02  0.24022321318E+03  0.27389210946E+03  0.12509000000E+03 0.  0.
         25    1    4    4    0    0  0.26957708999E+02  0.32176335317E+02  0.23862797085E+03  0.27267719230E+03  0.12509000000E+03 0.  0.
         25    1    3    3    0    0  0.95710791326E+01 -0.14070120608E+02  0.31568563502E+02  0.13012938235E+03  0.12509000000E+03 0.  0.
<mgrwt>
<rscale>  2 0.44428908E+03</rscale>
<asrwt>0</asrwt>
<pdfrwt beam="1">  1       21 0.87288118E-01 0.44428908E+03</pdfrwt>
<pdfrwt beam="2">  1       21 0.12226393E-01 0.44428908E+03</pdfrwt>
<totfact> 0.59008809E+04</totfact>
</mgrwt>
</event>
<event>
 7    0  0.4725730E-002  0.4434164E+03  0.7546771E-02  0.1029704E+00
         21   -1    0    0  502  501  0.00000000000E+00  0.00000000000E+00  0.11791948652E+03  0.11791948652E+03  0.00000000000E+00 0. -1.
         21   -1    0    0  501  502 -0.00000000000E+00 -0.00000000000E+00 -0.41684822104E+03  0.41684822104E+03  0.00000000000E+00 0. -1.
      99926    2    1    2    0    0  0.00000000000E+00  0.00000000000E+00 -0.29892873452E+03  0.53476770756E+03  0.44341641007E+03 0.  0.
      99925    2    3    3    0    0 -0.54856857506E+02  0.64349941850E+02 -0.12151115597E+03  0.30179840677E+03  0.26299644003E+03 0.  0.
         25    1    4    4    0    0 -0.66479501474E+02  0.37602738333E+02 -0.79015171170E+02  0.16650644258E+03  0.12509000000E+03 0.  0.
         25    1    3    3    0    0  0.54856857506E+02 -0.64349941850E+02 -0.17741757855E+03  0.23296930079E+03  0.12509000000E+03 0.  0.
         25    1    4    4    0    0  0.11622643967E+02  0.26747203517E+02 -0.42495984798E+02  0.13529196418E+03  0.12509000000E+03 0.  0.
<mgrwt>
<rscale>  2 0.44341641E+03</rscale>
<asrwt>0</asrwt>
<pdfrwt beam="1">  1       21 0.17341101E-01 0.44341641E+03</pdfrwt>
<pdfrwt beam="2">  1       21 0.61301208E-01 0.44341641E+03</pdfrwt>
<totfact> 0.68995878E+04</totfact>
</mgrwt>
</event>
<event>
 7    0  0.4725730E-002  0.4538252E+03  0.7546771E-02  0.1026587E+00
         21   -1    0    0  502  501  0.00000000000E+00  0.00000000000E+00  0.42864956751E+03  0.42864956751E+03  0.00000000000E+00 0.  1.
         21   -1    0    0  501  502 -0.00000000000E+00 -0.00000000000E+00 -0.12011988523E+03  0.12011988523E+03  0.00000000000E+00 0.  1.
      99926    2    1    2    0    0  0.00000000000E+00  0.00000000000E+00  0.30852968227E+03  0.54876945274E+03  0.45382523885E+03 0.  0.
      99925    2    3    3    0    0 -0.89486965945E+02 -0.67405967486E+02  0.19612747788E+03  0.34669707665E+03  0.26302356140E+03 0.  0.
         25    1    4    4    0    0 -0.58730610594E+02 -0.58357874499E+01  0.12819291791E+03  0.18858492341E+03  0.12509000000E+03 0.  0.
         25    1    4    4    0    0 -0.30756355350E+02 -0.61570180036E+02  0.67934559971E+02  0.15811215324E+03  0.12509000000E+03 0.  0.
         25    1    3    3    0    0  0.89486965945E+02  0.67405967486E+02  0.11240220439E+03  0.20207237609E+03  0.12509000000E+03 0.  0.
<mgrwt>
<rscale>  2 0.45382524E+03</rscale>
<asrwt>0</asrwt>
<pdfrwt beam="1">  1       21 0.63036701E-01 0.45382524E+03</pdfrwt>
<pdfrwt beam="2">  1       21 0.17664689E-01 0.45382524E+03</pdfrwt>
<totfact> 0.62527058E+04</totfact>
</mgrwt>
</event>
<event>
 7    0  0.4725730E-002  0.4474508E+03  0.7546771E-02  0.1028485E+00
         21   -1    0    0  502  501  0.00000000000E+00  0.00000000000E+00  0.13861751443E+03  0.13861751443E+03  0.00000000000E+00 0. -1.
         21   -1    0    0  501  502 -0.00000000000E+00 -0.00000000000E+00 -0.36108744120E+03  0.36108744120E+03  0.00000000000E+00 0. -1.
      99926    2    1    2    0    0  0.00000000000E+00  0.00000000000E+00 -0.22246992677E+03  0.49970495563E+03  0.44745075077E+03 0.  0.
      99925    2    3    3    0    0  0.90987560662E+02 -0.41139179038E+02 -0.10179219590E+03  0.29925099315E+03  0.26309378082E+03 0.  0.
         25    1    4    4    0    0  0.39625518980E+02  0.47227637124E+01 -0.82738905241E+02  0.15519574992E+03  0.12509000000E+03 0.  0.
         25    1    4    4    0    0  0.51362041682E+02 -0.45861942751E+02 -0.19053290659E+02  0.14405524324E+03  0.12509000000E+03 0.  0.
         25    1    3    3    0    0 -0.90987560662E+02  0.41139179038E+02 -0.12067773087E+03  0.20045396248E+03  0.12509000000E+03 0.  0.
<mgrwt>
<rscale>  2 0.44745075E+03</rscale>
<asrwt>0</asrwt>
<pdfrwt beam="1">  1       21 0.20384929E-01 0.44745075E+03</pdfrwt>
<pdfrwt beam="2">  1       21 0.53101094E-01 0.44745075E+03</pdfrwt>
<totfact> 0.69355017E+04</totfact>
</mgrwt>
</event>
<event>
 7    0  0.4725730E-002  0.4559551E+03  0.7546771E-02  0.1025961E+00
         21   -1    0    0  502  501  0.00000000000E+00  0.00000000000E+00  0.76152738918E+03  0.76152738918E+03  0.00000000000E+00 0.  1.
         21   -1    0    0  501  502 -0.00000000000E+00 -0.00000000000E+00 -0.68249380714E+02  0.68249380714E+02  0.00000000000E+00 0.  1.
      99926    2    1    2    0    0  0.71054273576E-14  0.00000000000E+00  0.69327800847E+03  0.82977676990E+03  0.45595514125E+03 0.  0.
      99925    2    3    3    0    0  0.58507860456E+02  0.51664960894E+02  0.58719554113E+03  0.64813581665E+03  0.26303801129E+03 0.  0.
         25    1    4    4    0    0  0.64915661103E+02  0.32856099632E+02  0.26496807073E+03  0.30190917996E+03  0.12509000000E+03 0.  0.
         25    1    3    3    0    0 -0.58507860456E+02 -0.51664960894E+02  0.10608246734E+03  0.18164095324E+03  0.12509000000E+03 0.  0.
         25    1    4    4    0    0 -0.64078006475E+01  0.18808861262E+02  0.32222747040E+03  0.34622663669E+03  0.12509000000E+03 0.  0.
<mgrwt>
<rscale>  2 0.45595514E+03</rscale>
<asrwt>0</asrwt>
<pdfrwt beam="1">  1       21 0.11198932E+00 0.45595514E+03</pdfrwt>
<pdfrwt beam="2">  1       21 0.10036674E-01 0.45595514E+03</pdfrwt>
<totfact> 0.46012236E+04</totfact>
</mgrwt>
</event>
<event>
 7    0  0.4725730E-002  0.4547481E+03  0.7546771E-02  0.1026316E+00
         21   -1    0    0  502  501  0.00000000000E+00  0.00000000000E+00  0.71747745589E+02  0.71747745589E+02  0.00000000000E+00 0.  1.
         21   -1    0    0  501  502 -0.00000000000E+00 -0.00000000000E+00 -0.72056547413E+03  0.72056547413E+03  0.00000000000E+00 0.  1.
      99926    2    1    2    0    0  0.17763568394E-14  0.00000000000E+00 -0.64881772854E+03  0.79231321972E+03  0.45474805472E+03 0.  0.
      99925    2    3    3    0    0  0.90626242360E+01  0.22244530037E+02 -0.60081352466E+03  0.65619245729E+03  0.26274455145E+03 0.  0.
         25    1    3    3    0    0 -0.90626242360E+01 -0.22244530037E+02 -0.48004203887E+02  0.13612076243E+03  0.12509000000E+03 0.  0.
         25    1    4    4    0    0  0.39283528795E+02  0.37108068315E+01 -0.34815426949E+03  0.37204283246E+03  0.12509000000E+03 0.  0.
         25    1    4    4    0    0 -0.30220904559E+02  0.18533723205E+02 -0.25265925517E+03  0.28414962483E+03  0.12509000000E+03 0.  0.
<mgrwt>
<rscale>  2 0.45474805E+03</rscale>
<asrwt>0</asrwt>
<pdfrwt beam="1">  1       21 0.10551140E-01 0.45474805E+03</pdfrwt>
<pdfrwt beam="2">  1       21 0.10596550E+00 0.45474805E+03</pdfrwt>
<totfact> 0.48234177E+04</totfact>
</mgrwt>
</event>
<event>
 7    0  0.4725730E-002  0.4350879E+03  0.7546771E-02  0.1032265E+00
         21   -1    0    0  502  501  0.00000000000E+00  0.00000000000E+00  0.10893077228E+03  0.10893077228E+03  0.00000000000E+00 0.  1.
         21   -1    0    0  501  502 -0.00000000000E+00 -0.00000000000E+00 -0.43445363730E+03  0.43445363730E+03  0.00000000000E+00 0.  1.
      99926    2    1    2    0    0  0.14210854715E-13  0.00000000000E+00 -0.32552286502E+03  0.54338440958E+03  0.43508790022E+03 0.  0.
      99925    2    3    3    0    0  0.90075851273E+02  0.22646513788E+02 -0.21932141735E+03  0.35482996345E+03  0.26301310857E+03 0.  0.
         25    1    3    3    0    0 -0.90075851273E+02 -0.22646513788E+02 -0.10620144767E+03  0.18855444613E+03  0.12509000000E+03 0.  0.
         25    1    4    4    0    0  0.16802666523E+02  0.41172541512E+02 -0.10216647479E+03  0.16752016132E+03  0.12509000000E+03 0.  0.
         25    1    4    4    0    0  0.73273184750E+02 -0.18526027724E+02 -0.11715494256E+03  0.18730980213E+03  0.12509000000E+03 0.  0.
<mgrwt>
<rscale>  2 0.43508790E+03</rscale>
<asrwt>0</asrwt>
<pdfrwt beam="1">  1       21 0.16019231E-01 0.43508790E+03</pdfrwt>
<pdfrwt beam="2">  1       21 0.63890240E-01 0.43508790E+03</pdfrwt>
<totfact> 0.73171428E+04</totfact>
</mgrwt>
</event>
<event>
 7    0  0.4725730E-002  0.4546701E+03  0.7546771E-02  0.1026338E+00
         21   -1    0    0  502  501  0.00000000000E+00  0.00000000000E+00  0.37023125405E+03  0.37023125405E+03  0.00000000000E+00 0. -1.
         21   -1    0    0  501  502 -0.00000000000E+00 -0.00000000000E+00 -0.13959172683E+03  0.13959172683E+03  0.00000000000E+00 0. -1.
      99926    2    1    2    0    0  0.00000000000E+00  0.00000000000E+00  0.23063952722E+03  0.50982298088E+03  0.45467007853E+03 0.  0.
      99925    2    3    3    0    0  0.25939681941E+02 -0.49233462767E+02  0.34955252664E+02  0.27099952230E+03  0.26291076517E+03 0.  0.
         25    1    4    4    0    0  0.35599940195E+02 -0.58085286902E+02  0.26990285633E+02  0.14497323862E+03  0.12509000000E+03 0.  0.
         25    1    4    4    0    0 -0.96602582534E+01  0.88518241349E+01  0.79649670310E+01  0.12602628369E+03  0.12509000000E+03 0.  0.
         25    1    3    3    0    0 -0.25939681941E+02  0.49233462767E+02  0.19568427456E+03  0.23882345857E+03  0.12509000000E+03 0.  0.
<mgrwt>
<rscale>  2 0.45467008E+03</rscale>
<asrwt>0</asrwt>
<pdfrwt beam="1">  1       21 0.54445773E-01 0.45467008E+03</pdfrwt>
<pdfrwt beam="2">  1       21 0.20528195E-01 0.45467008E+03</pdfrwt>
<totfact> 0.64755316E+04</totfact>
</mgrwt>
</event>
<event>
 7    0  0.4725730E-002  0.4604656E+03  0.7546771E-02  0.1024646E+00
         21   -1    0    0  502  501  0.00000000000E+00  0.00000000000E+00  0.29296324035E+03  0.29296324035E+03  0.00000000000E+00 0.  1.
         21   -1    0    0  501  502 -0.00000000000E+00 -0.00000000000E+00 -0.18093444915E+03  0.18093444915E+03  0.00000000000E+00 0.  1.
      99926    2    1    2    0    0  0.00000000000E+00 -0.88817841970E-15  0.11202879120E+03  0.47389768950E+03  0.46046560139E+03 0.  0.
      99925    2    3    3    0    0  0.11458165693E+03 -0.41922151238E+01  0.99945932701E+02  0.30377998219E+03  0.26295732988E+03 0.  0.
         25    1    4    4    0    0  0.70210589581E+02 -0.13397516573E+02  0.12592025525E+02  0.14462049490E+03  0.12509000000E+03 0.  0.
         25    1    4    4    0    0  0.44371067353E+02  0.92053014491E+01  0.87353907177E+02  0.15915948728E+03  0.12509000000E+03 0.  0.
         25    1    3    3    0    0 -0.11458165693E+03  0.41922151238E+01  0.12082858500E+02  0.17011770732E+03  0.12509000000E+03 0.  0.
<mgrwt>
<rscale>  2 0.46046560E+03</rscale>
<asrwt>0</asrwt>
<pdfrwt beam="1">  1       21 0.43082830E-01 0.46046560E+03</pdfrwt>
<pdfrwt beam="2">  1       21 0.26608007E-01 0.46046560E+03</pdfrwt>
<totfact> 0.64312872E+04</totfact>
</mgrwt>
</event>
<event>
 7    0  0.4725730E-002  0.4099083E+03  0.7546771E-02  0.1040402E+00
         21   -1    0    0  502  501  0.00000000000E+00  0.00000000000E+00  0.13763790857E+03  0.13763790857E+03  0.00000000000E+00 0. -1.
         21   -1    0    0  501  502 -0.00000000000E+00 -0.00000000000E+00 -0.30519353148E+03  0.30519353148E+03  0.00000000000E+00 0. -1.
      99926    2    1    2    0    0 -0.35527136788E-14  0.71054273576E-14 -0.16755562291E+03  0.44283144006E+03  0.40990827942E+03 0.  0.
      99925    2    3    3    0    0 -0.18305929101E+02  0.56801747902E+02 -0.12893145159E+03  0.29895343508E+03  0.26303667336E+03 0.  0.
         25    1    3    3    0    0  0.18305929101E+02 -0.56801747902E+02 -0.38624171317E+02  0.14387800497E+03  0.12509000000E+03 0.  0.
         25    1    4    4    0    0 -0.59410569998E+01 -0.11185469553E+02 -0.73739268567E+02  0.14575801424E+03  0.12509000000E+03 0.  0.
         25    1    4    4    0    0 -0.12364872101E+02  0.67987217455E+02 -0.55192183027E+02  0.15319542084E+03  0.12509000000E+03 0.  0.
<mgrwt>
<rscale>  2 0.40990828E+03</rscale>
<asrwt>0</asrwt>
<pdfrwt beam="1">  1       21 0.20240869E-01 0.40990828E+03</pdfrwt>
<pdfrwt beam="2">  1       21 0.44881401E-01 0.40990828E+03</pdfrwt>
<totfact> 0.10113673E+05</totfact>
</mgrwt>
</event>
<event>
 7    0  0.4725730E-002  0.4715857E+03  0.7546771E-02  0.1021474E+00
         21   -1    0    0  502  501  0.00000000000E+00  0.00000000000E+00  0.15713048154E+04  0.15713048154E+04  0.00000000000E+00 0. -1.
         21   -1    0    0  501  502 -0.00000000000E+00 -0.00000000000E+00 -0.35383506700E+02  0.35383506700E+02  0.00000000000E+00 0. -1.
      99926    2    1    2    0    0  0.00000000000E+00  0.00000000000E+00  0.15359213087E+04  0.16066883221E+04  0.47158572695E+03 0.  0.
      99925    2    3    3    0    0  0.58882777196E+02 -0.42671003523E+01  0.13401751554E+04  0.13670021643E+04  0.26294501434E+03 0.  0.
         25    1    3    3    0    0 -0.58882777196E+02  0.42671003523E+01  0.19574615338E+03  0.23968615783E+03  0.12509000000E+03 0.  0.
         25    1    4    4    0    0  0.27975154670E+02 -0.74236247995E+01  0.87228297070E+03  0.88168180687E+03  0.12509000000E+03 0.  0.
         25    1    4    4    0    0  0.30907622526E+02  0.31565244472E+01  0.46789218466E+03  0.48532035744E+03  0.12509000000E+03 0.  0.
<mgrwt>
<rscale>  2 0.47158573E+03</rscale>
<asrwt>0</asrwt>
<pdfrwt beam="1">  1       21 0.23107419E+00 0.47158573E+03</pdfrwt>
<pdfrwt beam="2">  1       21 0.52034579E-02 0.47158573E+03</pdfrwt>
<totfact> 0.18746191E+04</totfact>
</mgrwt>
</event>
<event>
 7    0  0.4725730E-002  0.4547278E+03  0.7546771E-02  0.1026321E+00
         21   -1    0    0  502  501  0.00000000000E+00  0.00000000000E+00  0.77250747201E+03  0.77250747201E+03  0.00000000000E+00 0. -1.
         21   -1    0    0  501  502 -0.00000000000E+00 -0.00000000000E+00 -0.66917592453E+02  0.66917592453E+02  0.00000000000E+00 0. -1.
      99926    2    1    2    0    0  0.00000000000E+00  0.00000000000E+00  0.70558987956E+03  0.83942506446E+03  0.45472778749E+03 0.  0.
      99925    2    3    3    0    0  0.63372075274E+02 -0.62267972285E+02  0.57284831535E+03  0.63654295272E+03  0.26294185281E+03 0.  0.
         25    1    4    4    0    0  0.69690768325E+02 -0.47989446861E+02  0.29381173781E+03  0.33035229010E+03  0.12509000000E+03 0.  0.
         25    1    3    3    0    0 -0.63372075274E+02  0.62267972285E+02  0.13274156420E+03  0.20288211174E+03  0.12509000000E+03 0.  0.
         25    1    4    4    0    0 -0.63186930515E+01 -0.14278525424E+02  0.27903657754E+03  0.30619066262E+03  0.12509000000E+03 0.  0.
<mgrwt>
<rscale>  2 0.45472779E+03</rscale>
<asrwt>0</asrwt>
<pdfrwt beam="1">  1       21 0.11360403E+00 0.45472779E+03</pdfrwt>
<pdfrwt beam="2">  1       21 0.98408229E-02 0.45472779E+03</pdfrwt>
<totfact> 0.46014391E+04</totfact>
</mgrwt>
</event>
<event>
 7    0  0.4725730E-002  0.4435928E+03  0.7546771E-02  0.1029650E+00
         21   -1    0    0  502  501  0.00000000000E+00  0.00000000000E+00  0.65032624462E+03  0.65032624462E+03  0.00000000000E+00 0. -1.
         21   -1    0    0  501  502 -0.00000000000E+00 -0.00000000000E+00 -0.75644576713E+02  0.75644576713E+02  0.00000000000E+00 0. -1.
      99926    2    1    2    0    0  0.55511151231E-16  0.00000000000E+00  0.57468166791E+03  0.72597082133E+03  0.44359284710E+03 0.  0.
      99925    2    3    3    0    0 -0.41421101686E+00  0.18424074350E+02  0.53013781322E+03  0.59191381414E+03  0.26263328861E+03 0.  0.
         25    1    4    4    0    0  0.22468868238E+02  0.31046438584E+02  0.21264483285E+03  0.24966790828E+03  0.12509000000E+03 0.  0.
         25    1    3    3    0    0  0.41421101686E+00 -0.18424074350E+02  0.44543854690E+02  0.13405700719E+03  0.12509000000E+03 0.  0.
         25    1    4    4    0    0 -0.22883079255E+02 -0.12622364234E+02  0.31749298037E+03  0.34224590586E+03  0.12509000000E+03 0.  0.
<mgrwt>
<rscale>  2 0.44359285E+03</rscale>
<asrwt>0</asrwt>
<pdfrwt beam="1">  1       21 0.95636209E-01 0.44359285E+03</pdfrwt>
<pdfrwt beam="2">  1       21 0.11124203E-01 0.44359285E+03</pdfrwt>
<totfact> 0.56408054E+04</totfact>
</mgrwt>
</event>
<event>
 7    0  0.4725730E-002  0.4556697E+03  0.7546771E-02  0.1026045E+00
         21   -1    0    0  502  501  0.00000000000E+00  0.00000000000E+00  0.11243673892E+03  0.11243673892E+03  0.00000000000E+00 0. -1.
         21   -1    0    0  501  502 -0.00000000000E+00 -0.00000000000E+00 -0.46167039700E+03  0.46167039700E+03  0.00000000000E+00 0. -1.
      99926    2    1    2    0    0 -0.71054273576E-14  0.14210854715E-13 -0.34923365808E+03  0.57410713592E+03  0.45566967814E+03 0.  0.
      99925    2    3    3    0    0 -0.37291517136E+02  0.68510432349E+02 -0.32408101847E+03  0.42455948475E+03  0.26294089253E+03 0.  0.
         25    1    3    3    0    0  0.37291517136E+02 -0.68510432349E+02 -0.25152639609E+02  0.14954765117E+03  0.12509000000E+03 0.  0.
         25    1    4    4    0    0  0.80504151384E+01  0.24015159435E+02 -0.10939359678E+03  0.16809522356E+03  0.12509000000E+03 0.  0.
         25    1    4    4    0    0 -0.45341932274E+02  0.44495272914E+02 -0.21468742169E+03  0.25646426119E+03  0.12509000000E+03 0.  0.
<mgrwt>
<rscale>  2 0.45566968E+03</rscale>
<asrwt>0</asrwt>
<pdfrwt beam="1">  1       21 0.16534815E-01 0.45566968E+03</pdfrwt>
<pdfrwt beam="2">  1       21 0.67892706E-01 0.45566968E+03</pdfrwt>
<totfact> 0.59982788E+04</totfact>
</mgrwt>
</event>
<event>
 7    0  0.4725730E-002  0.4551020E+03  0.7546771E-02  0.1026211E+00
         21   -1    0    0  502  501  0.00000000000E+00  0.00000000000E+00  0.12419858030E+03  0.12419858030E+03  0.00000000000E+00 0.  1.
         21   -1    0    0  501  502 -0.00000000000E+00 -0.00000000000E+00 -0.41690855643E+03  0.41690855643E+03  0.00000000000E+00 0.  1.
      99926    2    1    2    0    0  0.14210854715E-13  0.00000000000E+00 -0.29270997612E+03  0.54110713673E+03  0.45510197022E+03 0.  0.
      99925    2    3    3    0    0 -0.90567985174E+02 -0.52958675486E+02 -0.13335249668E+03  0.31296355124E+03  0.26297550225E+03 0.  0.
         25    1    3    3    0    0  0.90567985174E+02  0.52958675486E+02 -0.15935747944E+03  0.22814358549E+03  0.12509000000E+03 0.  0.
         25    1    4    4    0    0 -0.86604180481E+02 -0.18183256449E+02 -0.73491296291E+02  0.16993938220E+03  0.12509000000E+03 0.  0.
         25    1    4    4    0    0 -0.39638046927E+01 -0.34775419037E+02 -0.59861200392E+02  0.14302416904E+03  0.12509000000E+03 0.  0.
<mgrwt>
<rscale>  2 0.45510197E+03</rscale>
<asrwt>0</asrwt>
<pdfrwt beam="1">  1       21 0.18264497E-01 0.45510197E+03</pdfrwt>
<pdfrwt beam="2">  1       21 0.61310083E-01 0.45510197E+03</pdfrwt>
<totfact> 0.62407637E+04</totfact>
</mgrwt>
</event>
<event>
 7    0  0.4725730E-002  0.4563709E+03  0.7546771E-02  0.1025839E+00
         21   -1    0    0  502  501  0.00000000000E+00  0.00000000000E+00  0.17822723825E+04  0.17822723825E+04  0.00000000000E+00 0. -1.
         21   -1    0    0  501  502 -0.00000000000E+00 -0.00000000000E+00 -0.29214722255E+02  0.29214722255E+02  0.00000000000E+00 0. -1.
      99926    2    1    2    0    0  0.00000000000E+00 -0.17763568394E-14  0.17530576603E+04  0.18114871048E+04  0.45637086953E+03 0.  0.
      99925    2    3    3    0    0 -0.95023289563E+02 -0.46208928918E+01  0.13540755778E+04  0.13826689750E+04  0.26306281715E+03 0.  0.
         25    1    3    3    0    0  0.95023289563E+02  0.46208928918E+01  0.39898208241E+03  0.42881812974E+03  0.12509000000E+03 0.  0.
         25    1    4    4    0    0 -0.52865158710E+02  0.27393178095E+02  0.54866323782E+03  0.56588335181E+03  0.12509000000E+03 0.  0.
         25    1    4    4    0    0 -0.42158130853E+02 -0.32014070986E+02  0.80541234002E+03  0.81678562321E+03  0.12509000000E+03 0.  0.
<mgrwt>
<rscale>  2 0.45637087E+03</rscale>
<asrwt>0</asrwt>
<pdfrwt beam="1">  1       21 0.26209881E+00 0.45637087E+03</pdfrwt>
<pdfrwt beam="2">  1       21 0.42962839E-02 0.45637087E+03</pdfrwt>
<totfact> 0.16859646E+04</totfact>
</mgrwt>
</event>
<event>
 7    0  0.4725730E-002  0.4578575E+03  0.7546771E-02  0.1025404E+00
         21   -1    0    0  502  501  0.00000000000E+00  0.00000000000E+00  0.29409308544E+02  0.29409308544E+02  0.00000000000E+00 0.  1.
         21   -1    0    0  501  502 -0.00000000000E+00 -0.00000000000E+00 -0.17820336513E+04  0.17820336513E+04  0.00000000000E+00 0.  1.
      99926    2    1    2    0    0  0.00000000000E+00  0.00000000000E+00 -0.17526243427E+04  0.18114429598E+04  0.45785752144E+03 0.  0.
      99925    2    3    3    0    0  0.51594412784E+02 -0.75766489309E+02 -0.13807985558E+04  0.14085726727E+04  0.26281129766E+03 0.  0.
         25    1    3    3    0    0 -0.51594412784E+02  0.75766489309E+02 -0.37182578690E+03  0.40287028711E+03  0.12509000000E+03 0.  0.
         25    1    4    4    0    0 -0.97562500855E+01 -0.47652272478E+02 -0.75495711819E+03  0.76679441957E+03  0.12509000000E+03 0.  0.
         25    1    4    4    0    0  0.61350662870E+02 -0.28114216832E+02 -0.62584143762E+03  0.64177825311E+03  0.12509000000E+03 0.  0.
<mgrwt>
<rscale>  2 0.45785752E+03</rscale>
<asrwt>0</asrwt>
<pdfrwt beam="1">  1       21 0.43248962E-02 0.45785752E+03</pdfrwt>
<pdfrwt beam="2">  1       21 0.26206390E+00 0.45785752E+03</pdfrwt>
<totfact> 0.16667766E+04</totfact>
</mgrwt>
</event>
<event>
 7    0  0.4725730E-002  0.4622296E+03  0.7546771E-02  0.1024137E+00
         21   -1    0    0  502  501  0.00000000000E+00  0.00000000000E+00  0.39147820157E+03  0.39147820157E+03  0.00000000000E+00 0. -1.
         21   -1    0    0  501  502 -0.00000000000E+00 -0.00000000000E+00 -0.13644193564E+03  0.13644193564E+03  0.00000000000E+00 0. -1.
      99926    2    1    2    0    0  0.00000000000E+00  0.00000000000E+00  0.25503626592E+03  0.52792013721E+03  0.46222956887E+03 0.  0.
      99925    2    3    3    0    0  0.29133156383E+02 -0.97857150832E+02  0.23109454784E+03  0.36468571457E+03  0.26299471022E+03 0.  0.
         25    1    3    3    0    0 -0.29133156383E+02  0.97857150832E+02  0.23941718086E+02  0.16323442264E+03  0.12509000000E+03 0.  0.
         25    1    4    4    0    0 -0.15173304352E+02 -0.35118037481E+02  0.14157024348E+03  0.19275151792E+03  0.12509000000E+03 0.  0.
         25    1    4    4    0    0  0.44306460735E+02 -0.62739113352E+02  0.89524304358E+02  0.17193419665E+03  0.12509000000E+03 0.  0.
<mgrwt>
<rscale>  2 0.46222957E+03</rscale>
<asrwt>0</asrwt>
<pdfrwt beam="1">  1       21 0.57570323E-01 0.46222957E+03</pdfrwt>
<pdfrwt beam="2">  1       21 0.20064991E-01 0.46222957E+03</pdfrwt>
<totfact> 0.59843469E+04</totfact>
</mgrwt>
</event>
<event>
 7    0  0.4725730E-002  0.4550163E+03  0.7546771E-02  0.1026237E+00
         21   -1    0    0  502  501  0.00000000000E+00  0.00000000000E+00  0.86712352837E+02  0.86712352837E+02  0.00000000000E+00 0.  1.
         21   -1    0    0  501  502 -0.00000000000E+00 -0.00000000000E+00 -0.59691558896E+03  0.59691558896E+03  0.00000000000E+00 0.  1.
      99926    2    1    2    0    0  0.35527136788E-14  0.00000000000E+00 -0.51020323612E+03  0.68362794179E+03  0.45501628614E+03 0.  0.
      99925    2    3    3    0    0  0.13982808944E+02 -0.68900522316E+02 -0.18789928524E+03  0.33082467399E+03  0.26305136876E+03 0.  0.
         25    1    4    4    0    0  0.38896789560E+02 -0.56595432870E+02 -0.81955448296E+02  0.16456064799E+03  0.12509000000E+03 0.  0.
         25    1    3    3    0    0 -0.13982808944E+02  0.68900522316E+02 -0.32230395088E+03  0.35280326781E+03  0.12509000000E+03 0.  0.
         25    1    4    4    0    0 -0.24913980616E+02 -0.12305089446E+02 -0.10594383694E+03  0.16626402600E+03  0.12509000000E+03 0.  0.
<mgrwt>
<rscale>  2 0.45501629E+03</rscale>
<asrwt>0</asrwt>
<pdfrwt beam="1">  1       21 0.12751817E-01 0.45501629E+03</pdfrwt>
<pdfrwt beam="2">  1       21 0.87781701E-01 0.45501629E+03</pdfrwt>
<totfact> 0.53794279E+04</totfact>
</mgrwt>
</event>
<event>
 7    0  0.4725730E-002  0.4558076E+03  0.7546771E-02  0.1026004E+00
         21   -1    0    0  502  501  0.00000000000E+00  0.00000000000E+00  0.17062714717E+03  0.17062714717E+03  0.00000000000E+00 0.  1.
         21   -1    0    0  501  502 -0.00000000000E+00 -0.00000000000E+00 -0.30440730757E+03  0.30440730757E+03  0.00000000000E+00 0.  1.
      99926    2    1    2    0    0  0.35527136788E-14  0.00000000000E+00 -0.13378016039E+03  0.47503445474E+03  0.45580763692E+03 0.  0.
      99925    2    3    3    0    0 -0.20240087622E+02  0.80277542910E+02 -0.26078430577E+01  0.27576621849E+03  0.26303243407E+03 0.  0.
         25    1    4    4    0    0 -0.30203559132E+02  0.77146906317E+02  0.36862959043E+01  0.15008330026E+03  0.12509000000E+03 0.  0.
         25    1    3    3    0    0  0.20240087622E+02 -0.80277542910E+02 -0.13117231733E+03  0.19926823625E+03  0.12509000000E+03 0.  0.
         25    1    4    4    0    0  0.99634715103E+01  0.31306365928E+01 -0.62941389620E+01  0.12568291823E+03  0.12509000000E+03 0.  0.
<mgrwt>
<rscale>  2 0.45580764E+03</rscale>
<asrwt>0</asrwt>
<pdfrwt beam="1">  1       21 0.25092228E-01 0.45580764E+03</pdfrwt>
<pdfrwt beam="2">  1       21 0.44765780E-01 0.45580764E+03</pdfrwt>
<totfact> 0.66635282E+04</totfact>
</mgrwt>
</event>
<event>
 7    0  0.4725730E-002  0.4639380E+03  0.7546771E-02  0.1023645E+00
         21   -1    0    0  502  501  0.00000000000E+00  0.00000000000E+00  0.22523651603E+03  0.22523651603E+03  0.00000000000E+00 0.  1.
         21   -1    0    0  501  502 -0.00000000000E+00 -0.00000000000E+00 -0.23890267872E+03  0.23890267872E+03  0.00000000000E+00 0.  1.
      99926    2    1    2    0    0  0.35527136788E-14  0.00000000000E+00 -0.13666162691E+02  0.46413919476E+03  0.46393795718E+03 0.  0.
      99925    2    3    3    0    0 -0.21374458777E+02  0.79563032568E+02  0.81829198596E+02  0.28650469426E+03  0.26191941213E+03 0.  0.
         25    1    4    4    0    0 -0.28502475457E+02  0.64821368463E+02  0.17231995635E+02  0.14477102849E+03  0.12509000000E+03 0.  0.
         25    1    3    3    0    0  0.21374458777E+02 -0.79563032568E+02 -0.95495361287E+02  0.17763450050E+03  0.12509000000E+03 0.  0.
         25    1    4    4    0    0  0.71280166802E+01  0.14741664105E+02  0.64597202961E+02  0.14173366577E+03  0.12509000000E+03 0.  0.
<mgrwt>
<rscale>  2 0.46393796E+03</rscale>
<asrwt>0</asrwt>
<pdfrwt beam="1">  1       21 0.33123017E-01 0.46393796E+03</pdfrwt>
<pdfrwt beam="2">  1       21 0.35132747E-01 0.46393796E+03</pdfrwt>
<totfact> 0.63248986E+04</totfact>
</mgrwt>
</event>
<event>
 7    0  0.4725730E-002  0.4594286E+03  0.7546771E-02  0.1024947E+00
         21   -1    0    0  502  501  0.00000000000E+00  0.00000000000E+00  0.97675173355E+03  0.97675173355E+03  0.00000000000E+00 0.  1.
         21   -1    0    0  501  502 -0.00000000000E+00 -0.00000000000E+00 -0.54024641449E+02  0.54024641449E+02  0.00000000000E+00 0.  1.
      99926    2    1    2    0    0  0.00000000000E+00  0.00000000000E+00  0.92272709210E+03  0.10307763750E+04  0.45942861117E+03 0.  0.
      99925    2    3    3    0    0 -0.10989764842E+02  0.59695259020E+02  0.35335333777E+03  0.44467205058E+03  0.26304059073E+03 0.  0.
         25    1    4    4    0    0  0.21000561795E+02  0.43025870634E+02  0.22501791091E+03  0.26186412024E+03  0.12509000000E+03 0.  0.
         25    1    3    3    0    0  0.10989764842E+02 -0.59695259020E+02  0.56937375433E+03  0.58610432442E+03  0.12509000000E+03 0.  0.
         25    1    4    4    0    0 -0.31990326638E+02  0.16669388385E+02  0.12833542686E+03  0.18280793034E+03  0.12509000000E+03 0.  0.
<mgrwt>
<rscale>  2 0.45942861E+03</rscale>
<asrwt>0</asrwt>
<pdfrwt beam="1">  1       21 0.14363995E+00 0.45942861E+03</pdfrwt>
<pdfrwt beam="2">  1       21 0.79448008E-02 0.45942861E+03</pdfrwt>
<totfact> 0.36705222E+04</totfact>
</mgrwt>
</event>
<event>
 7    0  0.4725730E-002  0.4410880E+03  0.7546771E-02  0.1030414E+00
         21   -1    0    0  502  501  0.00000000000E+00  0.00000000000E+00  0.53606606679E+03  0.53606606679E+03  0.00000000000E+00 0.  1.
         21   -1    0    0  501  502 -0.00000000000E+00 -0.00000000000E+00 -0.90734437556E+02  0.90734437556E+02  0.00000000000E+00 0.  1.
      99926    2    1    2    0    0  0.00000000000E+00  0.00000000000E+00  0.44533162923E+03  0.62680050434E+03  0.44108798697E+03 0.  0.
      99925    2    3    3    0    0 -0.82920308382E+01  0.17513890738E+02  0.14509386213E+03  0.30096969083E+03  0.26297344319E+03 0.  0.
         25    1    3    3    0    0  0.82920308382E+01 -0.17513890738E+02  0.30023776710E+03  0.32583081352E+03  0.12509000000E+03 0.  0.
         25    1    4    4    0    0  0.51053091736E+00  0.38579938187E+02  0.10446930754E+03  0.16748139177E+03  0.12509000000E+03 0.  0.
         25    1    4    4    0    0 -0.88025617555E+01 -0.21066047449E+02  0.40624554595E+02  0.13348829906E+03  0.12509000000E+03 0.  0.
<mgrwt>
<rscale>  2 0.44108799E+03</rscale>
<asrwt>0</asrwt>
<pdfrwt beam="1">  1       21 0.78833244E-01 0.44108799E+03</pdfrwt>
<pdfrwt beam="2">  1       21 0.13343300E-01 0.44108799E+03</pdfrwt>
<totfact> 0.63779296E+04</totfact>
</mgrwt>
</event>
<event>
 7    0  0.4725730E-002  0.4552820E+03  0.7546771E-02  0.1026159E+00
         21   -1    0    0  502  501  0.00000000000E+00  0.00000000000E+00  0.77028769017E+03  0.77028769017E+03  0.00000000000E+00 0. -1.
         21   -1    0    0  501  502 -0.00000000000E+00 -0.00000000000E+00 -0.67274103462E+02  0.67274103462E+02  0.00000000000E+00 0. -1.
      99926    2    1    2    0    0  0.00000000000E+00  0.14210854715E-13  0.70301358671E+03  0.83756179364E+03  0.45528195117E+03 0.  0.
      99925    2    3    3    0    0  0.50378571519E+02  0.97852356545E+02  0.49264403463E+03  0.56920393425E+03  0.26302450411E+03 0.  0.
         25    1    3    3    0    0 -0.50378571519E+02 -0.97852356545E+02  0.21036955209E+03  0.26835785939E+03  0.12509000000E+03 0.  0.
         25    1    4    4    0    0  0.11691479260E+02  0.17577000234E+02  0.27473391824E+03  0.30260845255E+03  0.12509000000E+03 0.  0.
         25    1    4    4    0    0  0.38687092259E+02  0.80275356311E+02  0.21791011639E+03  0.26659548170E+03  0.12509000000E+03 0.  0.
<mgrwt>
<rscale>  2 0.45528195E+03</rscale>
<asrwt>0</asrwt>
<pdfrwt beam="1">  1       21 0.11327760E+00 0.45528195E+03</pdfrwt>
<pdfrwt beam="2">  1       21 0.98932510E-02 0.45528195E+03</pdfrwt>
<totfact> 0.45899396E+04</totfact>
</mgrwt>
</event>
<event>
 7    0  0.4725730E-002  0.4544946E+03  0.7546771E-02  0.1026390E+00
         21   -1    0    0  502  501  0.00000000000E+00  0.00000000000E+00  0.69299642895E+03  0.69299642895E+03  0.00000000000E+00 0. -1.
         21   -1    0    0  501  502 -0.00000000000E+00 -0.00000000000E+00 -0.74518902807E+02  0.74518902807E+02  0.00000000000E+00 0. -1.
      99926    2    1    2    0    0  0.00000000000E+00  0.00000000000E+00  0.61847752614E+03  0.76751533175E+03  0.45449459198E+03 0.  0.
      99925    2    3    3    0    0  0.40750562539E+02  0.41233472165E+02  0.22510000907E+03  0.35067700985E+03  0.26257102578E+03 0.  0.
         25    1    3    3    0    0 -0.40750562539E+02 -0.41233472165E+02  0.39337751707E+03  0.41683832190E+03  0.12509000000E+03 0.  0.
         25    1    4    4    0    0  0.25379820695E+02  0.51299983534E+02  0.83830467521E+02  0.16109276518E+03  0.12509000000E+03 0.  0.
         25    1    4    4    0    0  0.15370741843E+02 -0.10066511369E+02  0.14126954155E+03  0.18958424467E+03  0.12509000000E+03 0.  0.
<mgrwt>
<rscale>  2 0.45449459E+03</rscale>
<asrwt>0</asrwt>
<pdfrwt beam="1">  1       21 0.10191124E+00 0.45449459E+03</pdfrwt>
<pdfrwt beam="2">  1       21 0.10958663E-01 0.45449459E+03</pdfrwt>
<totfact> 0.49572469E+04</totfact>
</mgrwt>
</event>
<event>
 7    0  0.4725730E-002  0.4530896E+03  0.7546771E-02  0.1026805E+00
         21   -1    0    0  502  501  0.00000000000E+00  0.00000000000E+00  0.88457784843E+03  0.88457784843E+03  0.00000000000E+00 0. -1.
         21   -1    0    0  501  502 -0.00000000000E+00 -0.00000000000E+00 -0.58019242686E+02  0.58019242686E+02  0.00000000000E+00 0. -1.
      99926    2    1    2    0    0  0.88817841970E-15  0.00000000000E+00  0.82655860575E+03  0.94259709112E+03  0.45308955787E+03 0.  0.
      99925    2    3    3    0    0 -0.64028563505E+01  0.86906300937E+02  0.66550592579E+03  0.72083330793E+03  0.26288556227E+03 0.  0.
         25    1    4    4    0    0  0.35136595843E+01  0.50533729620E+02  0.23562200424E+03  0.27153497126E+03  0.12509000000E+03 0.  0.
         25    1    4    4    0    0 -0.99165159348E+01  0.36372571317E+02  0.42988392155E+03  0.44929833668E+03  0.12509000000E+03 0.  0.
         25    1    3    3    0    0  0.64028563505E+01 -0.86906300937E+02  0.16105267996E+03  0.22176378319E+03  0.12509000000E+03 0.  0.
<mgrwt>
<rscale>  2 0.45308956E+03</rscale>
<asrwt>0</asrwt>
<pdfrwt beam="1">  1       21 0.13008497E+00 0.45308956E+03</pdfrwt>
<pdfrwt beam="2">  1       21 0.85322421E-02 0.45308956E+03</pdfrwt>
<totfact> 0.42067018E+04</totfact>
</mgrwt>
</event>
<event>
 7    0  0.4725730E-002  0.4494157E+03  0.7546771E-02  0.1027896E+00
         21   -1    0    0  502  501  0.00000000000E+00  0.00000000000E+00  0.71698577209E+02  0.71698577209E+02  0.00000000000E+00 0. -1.
         21   -1    0    0  501  502 -0.00000000000E+00 -0.00000000000E+00 -0.70424851433E+03  0.70424851433E+03  0.00000000000E+00 0. -1.
      99926    2    1    2    0    0  0.00000000000E+00  0.00000000000E+00 -0.63254993713E+03  0.77594709154E+03  0.44941569389E+03 0.  0.
      99925    2    3    3    0    0  0.88797429246E+02  0.33754026359E+02 -0.48814190599E+03  0.56258002452E+03  0.26303886759E+03 0.  0.
         25    1    3    3    0    0 -0.88797429246E+02 -0.33754026359E+02 -0.14440803113E+03  0.21336706703E+03  0.12509000000E+03 0.  0.
         25    1    4    4    0    0  0.38337107188E+02  0.15286998458E+02 -0.15953463216E+03  0.20688700555E+03  0.12509000000E+03 0.  0.
         25    1    4    4    0    0  0.50460322058E+02  0.18467027902E+02 -0.32860727383E+03  0.35569301896E+03  0.12509000000E+03 0.  0.
<mgrwt>
<rscale>  2 0.44941569E+03</rscale>
<asrwt>0</asrwt>
<pdfrwt beam="1">  1       21 0.10543909E-01 0.44941569E+03</pdfrwt>
<pdfrwt beam="2">  1       21 0.10356595E+00 0.44941569E+03</pdfrwt>
<totfact> 0.51156071E+04</totfact>
</mgrwt>
</event>
<event>
 7    0  0.4725730E-002  0.4534484E+03  0.7546771E-02  0.1026699E+00
         21   -1    0    0  502  501  0.00000000000E+00  0.00000000000E+00  0.59981235964E+02  0.59981235964E+02  0.00000000000E+00 0.  1.
         21   -1    0    0  501  502 -0.00000000000E+00 -0.00000000000E+00 -0.85699891604E+03  0.85699891604E+03  0.00000000000E+00 0.  1.
      99926    2    1    2    0    0  0.00000000000E+00  0.00000000000E+00 -0.79701768007E+03  0.91698015200E+03  0.45344836180E+03 0.  0.
      99925    2    3    3    0    0  0.61083396228E+02  0.67775011717E+02 -0.63258455903E+03  0.69112534709E+03  0.26299503332E+03 0.  0.
         25    1    4    4    0    0  0.24447509783E+02 -0.75126763763E+01 -0.30233748671E+03  0.32819138473E+03  0.12509000000E+03 0.  0.
         25    1    4    4    0    0  0.36635886444E+02  0.75287688093E+02 -0.33024707232E+03  0.36293396236E+03  0.12509000000E+03 0.  0.
         25    1    3    3    0    0 -0.61083396228E+02 -0.67775011717E+02 -0.16443312104E+03  0.22585480491E+03  0.12509000000E+03 0.  0.
<mgrwt>
<rscale>  2 0.45344836E+03</rscale>
<asrwt>0</asrwt>
<pdfrwt beam="1">  1       21 0.88207696E-02 0.45344836E+03</pdfrwt>
<pdfrwt beam="2">  1       21 0.12602926E+00 0.45344836E+03</pdfrwt>
<totfact> 0.43027600E+04</totfact>
</mgrwt>
</event>
<event>
 7    0  0.4725730E-002  0.4676084E+03  0.7546771E-02  0.1022597E+00
         21   -1    0    0  502  501  0.00000000000E+00  0.00000000000E+00  0.14447000936E+04  0.14447000936E+04  0.00000000000E+00 0.  1.
         21   -1    0    0  501  502 -0.00000000000E+00 -0.00000000000E+00 -0.37837893045E+02  0.37837893045E+02  0.00000000000E+00 0.  1.
      99926    2    1    2    0    0  0.00000000000E+00  0.00000000000E+00  0.14068622005E+04  0.14825379866E+04  0.46760841576E+03 0.  0.
      99925    2    3    3    0    0  0.24282166009E+02  0.77684613504E+02  0.11730662500E+04  0.12051707619E+04  0.26405987141E+03 0.  0.
         25    1    4    4    0    0  0.28882374266E+02  0.36998455797E+02  0.75959098350E+03  0.77125161108E+03  0.12509000000E+03 0.  0.
         25    1    3    3    0    0 -0.24282166009E+02 -0.77684613504E+02  0.23379595049E+03  0.27736722468E+03  0.12509000000E+03 0.  0.
         25    1    4    4    0    0 -0.46002082569E+01  0.40686157707E+02  0.41347526654E+03  0.43391915086E+03  0.12509000000E+03 0.  0.
<mgrwt>
<rscale>  2 0.46760842E+03</rscale>
<asrwt>0</asrwt>
<pdfrwt beam="1">  1       21 0.21245586E+00 0.46760842E+03</pdfrwt>
<pdfrwt beam="2">  1       21 0.55643970E-02 0.46760842E+03</pdfrwt>
<totfact> 0.21977818E+04</totfact>
</mgrwt>
</event>
<event>
 7    0  0.4725730E-002  0.4624897E+03  0.7546771E-02  0.1024062E+00
         21   -1    0    0  502  501  0.00000000000E+00  0.00000000000E+00  0.85136813583E+03  0.85136813583E+03  0.00000000000E+00 0.  1.
         21   -1    0    0  501  502 -0.00000000000E+00 -0.00000000000E+00 -0.62809697479E+02  0.62809697479E+02  0.00000000000E+00 0.  1.
      99926    2    1    2    0    0  0.00000000000E+00  0.00000000000E+00  0.78855843835E+03  0.91417783331E+03  0.46248967580E+03 0.  0.
      99925    2    3    3    0    0 -0.84722120703E+02  0.80559858727E+02  0.43901326896E+03  0.52495159817E+03  0.26300912822E+03 0.  0.
         25    1    3    3    0    0  0.84722120703E+02 -0.80559858727E+02  0.34954516939E+03  0.38922623514E+03  0.12509000000E+03 0.  0.
         25    1    4    4    0    0 -0.37002362226E+02  0.74120015964E+02  0.27371026458E+03  0.31213421570E+03  0.12509000000E+03 0.  0.
         25    1    4    4    0    0 -0.47719758477E+02  0.64398427635E+01  0.16530300438E+03  0.21281738247E+03  0.12509000000E+03 0.  0.
<mgrwt>
<rscale>  2 0.46248968E+03</rscale>
<asrwt>0</asrwt>
<pdfrwt beam="1">  1       21 0.12520119E+00 0.46248968E+03</pdfrwt>
<pdfrwt beam="2">  1       21 0.92367207E-02 0.46248968E+03</pdfrwt>
<totfact> 0.40216236E+04</totfact>
</mgrwt>
</event>
<event>
 7    0  0.4725730E-002  0.4429628E+03  0.7546771E-02  0.1029842E+00
         21   -1    0    0  502  501  0.00000000000E+00  0.00000000000E+00  0.73726464433E+03  0.73726464433E+03  0.00000000000E+00 0. -1.
         21   -1    0    0  501  502 -0.00000000000E+00 -0.00000000000E+00 -0.66535149800E+02  0.66535149800E+02  0.00000000000E+00 0. -1.
      99926    2    1    2    0    0  0.35527136788E-14  0.00000000000E+00  0.67072949453E+03  0.80379979413E+03  0.44296281358E+03 0.  0.
      99925    2    3    3    0    0 -0.73998192095E+01  0.78642397862E+02  0.31119087031E+03  0.41501333028E+03  0.26297703794E+03 0.  0.
         25    1    4    4    0    0  0.34687323053E+02  0.30324743096E+02  0.16663578277E+03  0.21339585897E+03  0.12509000000E+03 0.  0.
         25    1    3    3    0    0  0.73998192095E+01 -0.78642397862E+02  0.35953862422E+03  0.38878646385E+03  0.12509000000E+03 0.  0.
         25    1    4    4    0    0 -0.42087142262E+02  0.48317654766E+02  0.14455508754E+03  0.20161747131E+03  0.12509000000E+03 0.  0.
<mgrwt>
<rscale>  2 0.44296281E+03</rscale>
<asrwt>0</asrwt>
<pdfrwt beam="1">  1       21 0.10842127E+00 0.44296281E+03</pdfrwt>
<pdfrwt beam="2">  1       21 0.97845813E-02 0.44296281E+03</pdfrwt>
<totfact> 0.52354752E+04</totfact>
</mgrwt>
</event>
<event>
 7    0  0.4725730E-002  0.4113469E+03  0.7546771E-02  0.1039920E+00
         21   -1    0    0  502  501  0.00000000000E+00  0.00000000000E+00  0.29556639792E+03  0.29556639792E+03  0.00000000000E+00 0. -1.
         21   -1    0    0  501  502 -0.00000000000E+00 -0.00000000000E+00 -0.14312036072E+03  0.14312036072E+03  0.00000000000E+00 0. -1.
      99926    2    1    2    0    0  0.00000000000E+00  0.00000000000E+00  0.15244603720E+03  0.43868675864E+03  0.41134690706E+03 0.  0.
      99925    2    3    3    0    0 -0.26943574731E+02 -0.39227427576E+02  0.55101905305E+02  0.27319314726E+03  0.26331260594E+03 0.  0.
         25    1    4    4    0    0 -0.28669110273E+02 -0.25186230743E+02 -0.10566029746E+02  0.13120751955E+03  0.12509000000E+03 0.  0.
         25    1    4    4    0    0  0.17255355415E+01 -0.14041196833E+02  0.65667935051E+02  0.14198562771E+03  0.12509000000E+03 0.  0.
         25    1    3    3    0    0  0.26943574731E+02  0.39227427576E+02  0.97344131892E+02  0.16549361138E+03  0.12509000000E+03 0.  0.
<mgrwt>
<rscale>  2 0.41134691E+03</rscale>
<asrwt>0</asrwt>
<pdfrwt beam="1">  1       21 0.43465647E-01 0.41134691E+03</pdfrwt>
<pdfrwt beam="2">  1       21 0.21047112E-01 0.41134691E+03</pdfrwt>
<totfact> 0.10034199E+05</totfact>
</mgrwt>
</event>
<event>
 7    0  0.4725730E-002  0.4776480E+03  0.7546771E-02  0.1019784E+00
         21   -1    0    0  502  501  0.00000000000E+00  0.00000000000E+00  0.48563210417E+03  0.48563210417E+03  0.00000000000E+00 0. -1.
         21   -1    0    0  501  502 -0.00000000000E+00 -0.00000000000E+00 -0.11744881206E+03  0.11744881206E+03  0.00000000000E+00 0. -1.
      99926    2    1    2    0    0  0.71054273576E-14  0.00000000000E+00  0.36818329212E+03  0.60308091623E+03  0.47764804503E+03 0.  0.
      99925    2    3    3    0    0 -0.61028926782E+02 -0.11327920919E+03  0.18325469374E+03  0.34539350145E+03  0.26297847617E+03 0.  0.
         25    1    4    4    0    0 -0.29341563814E+02 -0.15354935896E+02  0.64827099715E+02  0.14472996366E+03  0.12509000000E+03 0.  0.
         25    1    4    4    0    0 -0.31687362968E+02 -0.97924273291E+02  0.11842759402E+03  0.20066353779E+03  0.12509000000E+03 0.  0.
         25    1    3    3    0    0  0.61028926782E+02  0.11327920919E+03  0.18492859838E+03  0.25768741478E+03  0.12509000000E+03 0.  0.
<mgrwt>
<rscale>  2 0.47764805E+03</rscale>
<asrwt>0</asrwt>
<pdfrwt beam="1">  1       21 0.71416485E-01 0.47764805E+03</pdfrwt>
<pdfrwt beam="2">  1       21 0.17271884E-01 0.47764805E+03</pdfrwt>
<totfact> 0.49095441E+04</totfact>
</mgrwt>
</event>
<event>
 7    0  0.4725730E-002  0.4600316E+03  0.7546771E-02  0.1024772E+00
         21   -1    0    0  502  501  0.00000000000E+00  0.00000000000E+00  0.38905013743E+02  0.38905013743E+02  0.00000000000E+00 0.  1.
         21   -1    0    0  501  502 -0.00000000000E+00 -0.00000000000E+00 -0.13599086954E+04  0.13599086954E+04  0.00000000000E+00 0.  1.
      99926    2    1    2    0    0  0.00000000000E+00  0.00000000000E+00 -0.13210036816E+04  0.13988137091E+04  0.46003159232E+03 0.  0.
      99925    2    3    3    0    0 -0.10322643400E+03 -0.57129092475E+02 -0.82639103032E+03  0.87516438675E+03  0.26281388653E+03 0.  0.
         25    1    4    4    0    0 -0.89119916782E+02 -0.50397092295E+02 -0.44213403548E+03  0.47075709225E+03  0.12509000000E+03 0.  0.
         25    1    4    4    0    0 -0.14106517214E+02 -0.67320001801E+01 -0.38425699485E+03  0.40440729450E+03  0.12509000000E+03 0.  0.
         25    1    3    3    0    0  0.10322643400E+03  0.57129092475E+02 -0.49461265132E+03  0.52364932238E+03  0.12509000000E+03 0.  0.
<mgrwt>
<rscale>  2 0.46003159E+03</rscale>
<asrwt>0</asrwt>
<pdfrwt beam="1">  1       21 0.57213255E-02 0.46003159E+03</pdfrwt>
<pdfrwt beam="2">  1       21 0.19998657E+00 0.46003159E+03</pdfrwt>
<totfact> 0.25357523E+04</totfact>
</mgrwt>
</event>
<event>
 7    0  0.4725730E-002  0.4599259E+03  0.7546771E-02  0.1024803E+00
         21   -1    0    0  502  501  0.00000000000E+00  0.00000000000E+00  0.72118096201E+02  0.72118096201E+02  0.00000000000E+00 0. -1.
         21   -1    0    0  501  502 -0.00000000000E+00 -0.00000000000E+00 -0.73328290954E+03  0.73328290954E+03  0.00000000000E+00 0. -1.
      99926    2    1    2    0    0  0.00000000000E+00  0.00000000000E+00 -0.66116481334E+03  0.80540100575E+03  0.45992593931E+03 0.  0.
      99925    2    3    3    0    0  0.54945509954E+02  0.90858435311E+02 -0.50314081018E+03  0.57759986877E+03  0.26305259779E+03 0.  0.
         25    1    4    4    0    0 -0.10576159914E+02  0.53735410291E+02 -0.21769467918E+03  0.25697826936E+03  0.12509000000E+03 0.  0.
         25    1    3    3    0    0 -0.54945509954E+02 -0.90858435311E+02 -0.15802400317E+03  0.22780113698E+03  0.12509000000E+03 0.  0.
         25    1    4    4    0    0  0.65521669868E+02  0.37123025020E+02 -0.28544613099E+03  0.32062159941E+03  0.12509000000E+03 0.  0.
<mgrwt>
<rscale>  2 0.45992594E+03</rscale>
<asrwt>0</asrwt>
<pdfrwt beam="1">  1       21 0.10605603E-01 0.45992594E+03</pdfrwt>
<pdfrwt beam="2">  1       21 0.10783572E+00 0.45992594E+03</pdfrwt>
<totfact> 0.45711850E+04</totfact>
</mgrwt>
</event>
<event>
 7    0  0.4725730E-002  0.4590536E+03  0.7546771E-02  0.1025056E+00
         21   -1    0    0  502  501  0.00000000000E+00  0.00000000000E+00  0.11713837048E+03  0.11713837048E+03  0.00000000000E+00 0.  1.
         21   -1    0    0  501  502 -0.00000000000E+00 -0.00000000000E+00 -0.44974629977E+03  0.44974629977E+03  0.00000000000E+00 0.  1.
      99926    2    1    2    0    0  0.14210854715E-13  0.00000000000E+00 -0.33260792928E+03  0.56688467025E+03  0.45905358592E+03 0.  0.
      99925    2    3    3    0    0  0.73900370011E+02 -0.71292935841E+02 -0.27755062563E+03  0.39593800554E+03  0.26303727313E+03 0.  0.
         25    1    3    3    0    0 -0.73900370011E+02  0.71292935841E+02 -0.55057303648E+02  0.17094666470E+03  0.12509000000E+03 0.  0.
         25    1    4    4    0    0  0.46438413998E+02 -0.25395381934E+02 -0.85194415810E+02  0.16033417697E+03  0.12509000000E+03 0.  0.
         25    1    4    4    0    0  0.27461956013E+02 -0.45897553907E+02 -0.19235620983E+03  0.23560382858E+03  0.12509000000E+03 0.  0.
<mgrwt>
<rscale>  2 0.45905359E+03</rscale>
<asrwt>0</asrwt>
<pdfrwt beam="1">  1       21 0.17226231E-01 0.45905359E+03</pdfrwt>
<pdfrwt beam="2">  1       21 0.66139162E-01 0.45905359E+03</pdfrwt>
<totfact> 0.58854773E+04</totfact>
</mgrwt>
</event>
<event>
 7    0  0.4725730E-002  0.4570421E+03  0.7546771E-02  0.1025643E+00
         21   -1    0    0  502  501  0.00000000000E+00  0.00000000000E+00  0.97795166671E+03  0.97795166671E+03  0.00000000000E+00 0.  1.
         21   -1    0    0  501  502 -0.00000000000E+00 -0.00000000000E+00 -0.53399236068E+02  0.53399236068E+02  0.00000000000E+00 0.  1.
      99926    2    1    2    0    0  0.14210854715E-13  0.71054273576E-14  0.92455243065E+03  0.10313509028E+04  0.45704210709E+03 0.  0.
      99925    2    3    3    0    0  0.10278019647E+03  0.51015958543E+02  0.59842334154E+03  0.66369061437E+03  0.26307477853E+03 0.  0.
         25    1    4    4    0    0  0.36357694496E+02  0.57891229924E+02  0.25490762151E+03  0.29205937762E+03  0.12509000000E+03 0.  0.
         25    1    4    4    0    0  0.66422501970E+02 -0.68752713810E+01  0.34351572003E+03  0.37163123676E+03  0.12509000000E+03 0.  0.
         25    1    3    3    0    0 -0.10278019647E+03 -0.51015958543E+02  0.32612908911E+03  0.36766028841E+03  0.12509000000E+03 0.  0.
<mgrwt>
<rscale>  2 0.45704211E+03</rscale>
<asrwt>0</asrwt>
<pdfrwt beam="1">  1       21 0.14381641E+00 0.45704211E+03</pdfrwt>
<pdfrwt beam="2">  1       21 0.78528294E-02 0.45704211E+03</pdfrwt>
<totfact> 0.37369890E+04</totfact>
</mgrwt>
</event>
<event>
 7    0  0.4725730E-002  0.4630630E+03  0.7546771E-02  0.1023897E+00
         21   -1    0    0  502  501  0.00000000000E+00  0.00000000000E+00  0.12389082529E+03  0.12389082529E+03  0.00000000000E+00 0.  1.
         21   -1    0    0  501  502 -0.00000000000E+00 -0.00000000000E+00 -0.43269410090E+03  0.43269410090E+03  0.00000000000E+00 0.  1.
      99926    2    1    2    0    0 -0.14210854715E-13 -0.71054273576E-14 -0.30880327561E+03  0.55658492618E+03  0.46306297307E+03 0.  0.
      99925    2    3    3    0    0 -0.10385535604E+03 -0.53020932550E+02 -0.15616254322E+03  0.32736046075E+03  0.26302276915E+03 0.  0.
         25    1    4    4    0    0 -0.50966424311E+02 -0.46069320501E+01 -0.36513526026E+02  0.13999837825E+03  0.12509000000E+03 0.  0.
         25    1    3    3    0    0  0.10385535604E+03  0.53020932550E+02 -0.15264073239E+03  0.22922446543E+03  0.12509000000E+03 0.  0.
         25    1    4    4    0    0 -0.52888931732E+02 -0.48414000500E+02 -0.11964901719E+03  0.18736208250E+03  0.12509000000E+03 0.  0.
<mgrwt>
<rscale>  2 0.46306297E+03</rscale>
<asrwt>0</asrwt>
<pdfrwt beam="1">  1       21 0.18219239E-01 0.46306297E+03</pdfrwt>
<pdfrwt beam="2">  1       21 0.63631485E-01 0.46306297E+03</pdfrwt>
<totfact> 0.57666299E+04</totfact>
</mgrwt>
</event>
<event>
 7    0  0.4725730E-002  0.4562435E+03  0.7546771E-02  0.1025876E+00
         21   -1    0    0  502  501  0.00000000000E+00  0.00000000000E+00  0.36431433950E+03  0.36431433950E+03  0.00000000000E+00 0.  1.
         21   -1    0    0  501  502 -0.00000000000E+00 -0.00000000000E+00 -0.14284237307E+03  0.14284237307E+03  0.00000000000E+00 0.  1.
      99926    2    1    2    0    0  0.00000000000E+00  0.71054273576E-14  0.22147196643E+03  0.50715671257E+03  0.45624346482E+03 0.  0.
      99925    2    3    3    0    0 -0.50494569631E+02  0.50441014514E+02  0.23849961227E+03  0.36213448555E+03  0.26299300953E+03 0.  0.
         25    1    3    3    0    0  0.50494569631E+02 -0.50441014514E+02 -0.17027645840E+02  0.14502222702E+03  0.12509000000E+03 0.  0.
         25    1    4    4    0    0 -0.11785707892E+02 -0.90443857339E+01  0.13696055683E+03  0.18608171875E+03  0.12509000000E+03 0.  0.
         25    1    4    4    0    0 -0.38708861739E+02  0.59485400248E+02  0.10153905544E+03  0.17605276681E+03  0.12509000000E+03 0.  0.
<mgrwt>
<rscale>  2 0.45624346E+03</rscale>
<asrwt>0</asrwt>
<pdfrwt beam="1">  1       21 0.53575638E-01 0.45624346E+03</pdfrwt>
<pdfrwt beam="2">  1       21 0.21006231E-01 0.45624346E+03</pdfrwt>
<totfact> 0.64135429E+04</totfact>
</mgrwt>
</event>
<event>
 7    0  0.4725730E-002  0.4527491E+03  0.7546771E-02  0.1026905E+00
         21   -1    0    0  502  501  0.00000000000E+00  0.00000000000E+00  0.12459332068E+03  0.12459332068E+03  0.00000000000E+00 0. -1.
         21   -1    0    0  501  502 -0.00000000000E+00 -0.00000000000E+00 -0.41130170766E+03  0.41130170766E+03  0.00000000000E+00 0. -1.
      99926    2    1    2    0    0 -0.14210854715E-13  0.00000000000E+00 -0.28670838699E+03  0.53589502834E+03  0.45274913830E+03 0.  0.
      99925    2    3    3    0    0 -0.73233046192E+02  0.52338912519E+02 -0.10530080764E+03  0.29786423461E+03  0.26368997203E+03 0.  0.
         25    1    3    3    0    0  0.73233046192E+02 -0.52338912519E+02 -0.18140757935E+03  0.23803079373E+03  0.12509000000E+03 0.  0.
         25    1    4    4    0    0 -0.10733440618E+02  0.51119936068E+02 -0.29233420957E+02  0.13867427884E+03  0.12509000000E+03 0.  0.
         25    1    4    4    0    0 -0.62499605574E+02  0.12189764511E+01 -0.76067386678E+02  0.15918995577E+03  0.12509000000E+03 0.  0.
<mgrwt>
<rscale>  2 0.45274914E+03</rscale>
<asrwt>0</asrwt>
<pdfrwt beam="1">  1       21 0.18322547E-01 0.45274914E+03</pdfrwt>
<pdfrwt beam="2">  1       21 0.60485547E-01 0.45274914E+03</pdfrwt>
<totfact> 0.63939805E+04</totfact>
</mgrwt>
</event>
<event>
 7    0  0.4725730E-002  0.4576523E+03  0.7546771E-02  0.1025464E+00
         21   -1    0    0  502  501  0.00000000000E+00  0.00000000000E+00  0.14244769114E+04  0.14244769114E+04  0.00000000000E+00 0. -1.
         21   -1    0    0  501  502 -0.00000000000E+00 -0.00000000000E+00 -0.36758346929E+02  0.36758346929E+02  0.00000000000E+00 0. -1.
      99926    2    1    2    0    0 -0.14210854715E-13  0.00000000000E+00  0.13877185645E+04  0.14612352584E+04  0.45765234186E+03 0.  0.
      99925    2    3    3    0    0  0.81979536540E+02 -0.64647935313E+02  0.71165644060E+03  0.76581631741E+03  0.26290633811E+03 0.  0.
         25    1    4    4    0    0  0.82301798128E+02 -0.32987983507E+02  0.40934937346E+03  0.43712264947E+03  0.12509000000E+03 0.  0.
         25    1    3    3    0    0 -0.81979536540E+02  0.64647935313E+02  0.67606212392E+03  0.69541894096E+03  0.12509000000E+03 0.  0.
         25    1    4    4    0    0 -0.32226158830E+00 -0.31659951807E+02  0.30230706714E+03  0.32869366794E+03  0.12509000000E+03 0.  0.
<mgrwt>
<rscale>  2 0.45765234E+03</rscale>
<asrwt>0</asrwt>
<pdfrwt beam="1">  1       21 0.20948186E+00 0.45765234E+03</pdfrwt>
<pdfrwt beam="2">  1       21 0.54056402E-02 0.45765234E+03</pdfrwt>
<totfact> 0.24241384E+04</totfact>
</mgrwt>
</event>
<event>
 7    0  0.4725730E-002  0.4459467E+03  0.7546771E-02  0.1028938E+00
         21   -1    0    0  502  501  0.00000000000E+00  0.00000000000E+00  0.16570420041E+03  0.16570420041E+03  0.00000000000E+00 0. -1.
         21   -1    0    0  501  502 -0.00000000000E+00 -0.00000000000E+00 -0.30003535854E+03  0.30003535854E+03  0.00000000000E+00 0. -1.
      99926    2    1    2    0    0  0.00000000000E+00  0.00000000000E+00 -0.13433115812E+03  0.46573955895E+03  0.44594671960E+03 0.  0.
      99925    2    3    3    0    0 -0.68886845152E+02  0.67251134398E+02 -0.43002641653E+02  0.28337586044E+03  0.26302953936E+03 0.  0.
         25    1    4    4    0    0 -0.36331449666E+02  0.54423764696E+02  0.13319780940E+02  0.14179860741E+03  0.12509000000E+03 0.  0.
         25    1    3    3    0    0  0.68886845152E+02 -0.67251134398E+02 -0.91328516472E+02  0.18236369851E+03  0.12509000000E+03 0.  0.
         25    1    4    4    0    0 -0.32555395485E+02  0.12827369702E+02 -0.56322422592E+02  0.14157725303E+03  0.12509000000E+03 0.  0.
<mgrwt>
<rscale>  2 0.44594672E+03</rscale>
<asrwt>0</asrwt>
<pdfrwt beam="1">  1       21 0.24368265E-01 0.44594672E+03</pdfrwt>
<pdfrwt beam="2">  1       21 0.44122846E-01 0.44594672E+03</pdfrwt>
<totfact> 0.72847433E+04</totfact>
</mgrwt>
</event>
<event>
 7    0  0.4725730E-002  0.4628343E+03  0.7546771E-02  0.1023962E+00
         21   -1    0    0  502  501  0.00000000000E+00  0.00000000000E+00  0.77584081631E+03  0.77584081631E+03  0.00000000000E+00 0. -1.
         21   -1    0    0  501  502 -0.00000000000E+00 -0.00000000000E+00 -0.69026925433E+02  0.69026925433E+02  0.00000000000E+00 0. -1.
      99926    2    1    2    0    0  0.00000000000E+00  0.00000000000E+00  0.70681389087E+03  0.84486774174E+03  0.46283433829E+03 0.  0.
      99925    2    3    3    0    0  0.17598270028E+02  0.41423438676E+02  0.64549886165E+03  0.69846883024E+03  0.26299111401E+03 0.  0.
         25    1    4    4    0    0  0.49419932021E+02  0.20754065585E+02  0.32700132525E+03  0.35418983008E+03  0.12509000000E+03 0.  0.
         25    1    4    4    0    0 -0.31821661993E+02  0.20669373091E+02  0.31849753640E+03  0.34427900016E+03  0.12509000000E+03 0.  0.
         25    1    3    3    0    0 -0.17598270028E+02 -0.41423438676E+02  0.61315029225E+02  0.14639891150E+03  0.12509000000E+03 0.  0.
<mgrwt>
<rscale>  2 0.46283434E+03</rscale>
<asrwt>0</asrwt>
<pdfrwt beam="1">  1       21 0.11409423E+00 0.46283434E+03</pdfrwt>
<pdfrwt beam="2">  1       21 0.10151019E-01 0.46283434E+03</pdfrwt>
<totfact> 0.42967494E+04</totfact>
</mgrwt>
</event>
<event>
 7    0  0.4803406E-002  0.4114300E+03  0.7546771E-02  0.1039892E+00
         21   -1    0    0  502  501  0.00000000000E+00  0.00000000000E+00  0.70441590832E+02  0.70441590832E+02  0.00000000000E+00 0. -1.
         21   -1    0    0  501  502 -0.00000000000E+00 -0.00000000000E+00 -0.60076252204E+03  0.60076252204E+03  0.00000000000E+00 0. -1.
      99926    2    1    2    0    0  0.00000000000E+00  0.00000000000E+00 -0.53032093121E+03  0.67120411288E+03  0.41143003179E+03 0.  0.
      99925    2    3    3    0    0 -0.48030143991E+02  0.81178001844E+01 -0.28303386837E+03  0.38983035262E+03  0.26360337587E+03 0.  0.
         25    1    4    4    0    0 -0.19165229633E+02 -0.99476273831E+01 -0.83714232216E+02  0.15205867977E+03  0.12509000000E+03 0.  0.
         25    1    4    4    0    0 -0.28864914358E+02  0.18065427568E+02 -0.19931963616E+03  0.23777167285E+03  0.12509000000E+03 0.  0.
         25    1    3    3    0    0  0.48030143991E+02 -0.81178001844E+01 -0.24728706284E+03  0.28137376025E+03  0.12509000000E+03 0.  0.
<mgrwt>
<rscale>  2 0.41143003E+03</rscale>
<asrwt>0</asrwt>
<pdfrwt beam="1">  1       21 0.10359058E-01 0.41143003E+03</pdfrwt>
<pdfrwt beam="2">  1       21 0.88347427E-01 0.41143003E+03</pdfrwt>
<totfact> 0.78013497E+04</totfact>
</mgrwt>
</event>
<event>
 7    0  0.4725730E-002  0.4530633E+03  0.7546771E-02  0.1026812E+00
         21   -1    0    0  502  501  0.00000000000E+00  0.00000000000E+00  0.64617012587E+02  0.64617012587E+02  0.00000000000E+00 0.  1.
         21   -1    0    0  501  502 -0.00000000000E+00 -0.00000000000E+00 -0.79416519125E+03  0.79416519125E+03  0.00000000000E+00 0.  1.
      99926    2    1    2    0    0  0.00000000000E+00  0.00000000000E+00 -0.72954817867E+03  0.85878220384E+03  0.45306327222E+03 0.  0.
      99925    2    3    3    0    0 -0.95741130691E+02 -0.47225749798E+02 -0.51998416250E+03  0.59239673029E+03  0.26297095134E+03 0.  0.
         25    1    4    4    0    0 -0.12953061281E+02 -0.27680515349E+02 -0.19167139860E+03  0.23090999516E+03  0.12509000000E+03 0.  0.
         25    1    4    4    0    0 -0.82788069410E+02 -0.19545234449E+02 -0.32831276391E+03  0.36148673512E+03  0.12509000000E+03 0.  0.
         25    1    3    3    0    0  0.95741130691E+02  0.47225749798E+02 -0.20956401616E+03  0.26638547355E+03  0.12509000000E+03 0.  0.
<mgrwt>
<rscale>  2 0.45306327E+03</rscale>
<asrwt>0</asrwt>
<pdfrwt beam="1">  1       21 0.95025012E-02 0.45306327E+03</pdfrwt>
<pdfrwt beam="2">  1       21 0.11678901E+00 0.45306327E+03</pdfrwt>
<totfact> 0.45739897E+04</totfact>
</mgrwt>
</event>
<event>
 7    0  0.4725730E-002  0.4578590E+03  0.7546771E-02  0.1025404E+00
         21   -1    0    0  502  501  0.00000000000E+00  0.00000000000E+00  0.68197950292E+02  0.68197950292E+02  0.00000000000E+00 0. -1.
         21   -1    0    0  501  502 -0.00000000000E+00 -0.00000000000E+00 -0.76847917740E+03  0.76847917740E+03  0.00000000000E+00 0. -1.
      99926    2    1    2    0    0  0.00000000000E+00  0.00000000000E+00 -0.70028122711E+03  0.83667712770E+03  0.45785895095E+03 0.  0.
      99925    2    3    3    0    0  0.82594240633E+02 -0.81180652382E+02 -0.44014207002E+03  0.52565944965E+03  0.26302225817E+03 0.  0.
         25    1    4    4    0    0  0.37274438790E+01 -0.35402252783E+02 -0.16660281466E+03  0.21135567012E+03  0.12509000000E+03 0.  0.
         25    1    3    3    0    0 -0.82594240633E+02  0.81180652382E+02 -0.26013915709E+03  0.31101767805E+03  0.12509000000E+03 0.  0.
         25    1    4    4    0    0  0.78866796754E+02 -0.45778399599E+02 -0.27353925536E+03  0.31430377953E+03  0.12509000000E+03 0.  0.
<mgrwt>
<rscale>  2 0.45785895E+03</rscale>
<asrwt>0</asrwt>
<pdfrwt beam="1">  1       21 0.10029111E-01 0.45785895E+03</pdfrwt>
<pdfrwt beam="2">  1       21 0.11301164E+00 0.45785895E+03</pdfrwt>
<totfact> 0.45022958E+04</totfact>
</mgrwt>
</event>
<event>
 7    0  0.4725730E-002  0.4474224E+03  0.7546771E-02  0.1028494E+00
         21   -1    0    0  502  501  0.00000000000E+00  0.00000000000E+00  0.89533798813E+03  0.89533798813E+03  0.00000000000E+00 0. -1.
         21   -1    0    0  501  502 -0.00000000000E+00 -0.00000000000E+00 -0.55896991869E+02  0.55896991869E+02  0.00000000000E+00 0. -1.
      99926    2    1    2    0    0 -0.35527136788E-14 -0.35527136788E-14  0.83944099626E+03  0.95123498000E+03  0.44742239659E+03 0.  0.
      99925    2    3    3    0    0  0.16203621575E+02  0.13456700860E+02  0.31104725696E+03  0.40782804963E+03  0.26292524003E+03 0.  0.
         25    1    4    4    0    0 -0.12781539671E+00  0.37362967640E+02  0.19557348619E+03  0.23514358228E+03  0.12509000000E+03 0.  0.
         25    1    4    4    0    0  0.16331436972E+02 -0.23906266780E+02  0.11547377077E+03  0.17268446734E+03  0.12509000000E+03 0.  0.
         25    1    3    3    0    0 -0.16203621575E+02 -0.13456700860E+02  0.52839373929E+03  0.54340693037E+03  0.12509000000E+03 0.  0.
<mgrwt>
<rscale>  2 0.44742240E+03</rscale>
<asrwt>0</asrwt>
<pdfrwt beam="1">  1       21 0.13166734E+00 0.44742240E+03</pdfrwt>
<pdfrwt beam="2">  1       21 0.82201464E-02 0.44742240E+03</pdfrwt>
<totfact> 0.43618620E+04</totfact>
</mgrwt>
</event>
<event>
 7    0  0.4725730E-002  0.4510056E+03  0.7546771E-02  0.1027423E+00
         21   -1    0    0  502  501  0.00000000000E+00  0.00000000000E+00  0.20784138132E+03  0.20784138132E+03  0.00000000000E+00 0.  1.
         21   -1    0    0  501  502 -0.00000000000E+00 -0.00000000000E+00 -0.24466496709E+03  0.24466496709E+03  0.00000000000E+00 0.  1.
      99926    2    1    2    0    0  0.14210854715E-13 -0.71054273576E-14 -0.36823585763E+02  0.45250634841E+03  0.45100556414E+03 0.  0.
      99925    2    3    3    0    0  0.80789215039E+02 -0.52715398691E+02  0.28673180994E+02  0.28150007636E+03  0.26289604629E+03 0.  0.
         25    1    4    4    0    0  0.19779689528E+02  0.60461791677E+01 -0.43434606350E+01  0.12686278473E+03  0.12509000000E+03 0.  0.
         25    1    3    3    0    0 -0.80789215039E+02  0.52715398691E+02 -0.65496766757E+02  0.17100627205E+03  0.12509000000E+03 0.  0.
         25    1    4    4    0    0  0.61009525511E+02 -0.58761577859E+02  0.33016641629E+02  0.15463729162E+03  0.12509000000E+03 0.  0.
<mgrwt>
<rscale>  2 0.45100556E+03</rscale>
<asrwt>0</asrwt>
<pdfrwt beam="1">  1       21 0.30564909E-01 0.45100556E+03</pdfrwt>
<pdfrwt beam="2">  1       21 0.35980142E-01 0.45100556E+03</pdfrwt>
<totfact> 0.70963708E+04</totfact>
</mgrwt>
</event>
<event>
 7    0  0.4725730E-002  0.4600526E+03  0.7546771E-02  0.1024766E+00
         21   -1    0    0  502  501  0.00000000000E+00  0.00000000000E+00  0.68471403396E+03  0.68471403396E+03  0.00000000000E+00 0. -1.
         21   -1    0    0  501  502 -0.00000000000E+00 -0.00000000000E+00 -0.77276193878E+02  0.77276193878E+02  0.00000000000E+00 0. -1.
      99926    2    1    2    0    0 -0.14210854715E-13  0.00000000000E+00  0.60743784008E+03  0.76199022784E+03  0.46005258151E+03 0.  0.
      99925    2    3    3    0    0 -0.76811514196E+02 -0.86159921426E+02  0.34095273283E+03  0.44578560855E+03  0.26296863309E+03 0.  0.
         25    1    4    4    0    0 -0.78470180383E+02 -0.50561119830E+02  0.16701358152E+03  0.22859361443E+03  0.12509000000E+03 0.  0.
         25    1    3    3    0    0  0.76811514196E+02  0.86159921426E+02  0.26648510725E+03  0.31620461929E+03  0.12509000000E+03 0.  0.
         25    1    4    4    0    0  0.16586661868E+01 -0.35598801596E+02  0.17393915131E+03  0.21719199412E+03  0.12509000000E+03 0.  0.
<mgrwt>
<rscale>  2 0.46005258E+03</rscale>
<asrwt>0</asrwt>
<pdfrwt beam="1">  1       21 0.10069324E+00 0.46005258E+03</pdfrwt>
<pdfrwt beam="2">  1       21 0.11364147E-01 0.46005258E+03</pdfrwt>
<totfact> 0.47735965E+04</totfact>
</mgrwt>
</event>
<event>
 7    0  0.4725730E-002  0.4670650E+03  0.7546771E-02  0.1022752E+00
         21   -1    0    0  502  501  0.00000000000E+00  0.00000000000E+00  0.12104569361E+03  0.12104569361E+03  0.00000000000E+00 0. -1.
         21   -1    0    0  501  502 -0.00000000000E+00 -0.00000000000E+00 -0.45055242775E+03  0.45055242775E+03  0.00000000000E+00 0. -1.
      99926    2    1    2    0    0  0.00000000000E+00  0.14210854715E-13 -0.32950673415E+03  0.57159812136E+03  0.46706501100E+03 0.  0.
      99925    2    3    3    0    0  0.24933372787E+02 -0.10701272019E+03 -0.13457839361E+03  0.31524297434E+03  0.26304637136E+03 0.  0.
         25    1    4    4    0    0 -0.18692989455E+02 -0.80000348568E+02 -0.76766136179E+02  0.16819640718E+03  0.12509000000E+03 0.  0.
         25    1    3    3    0    0 -0.24933372787E+02  0.10701272019E+03 -0.19492834053E+03  0.25635514702E+03  0.12509000000E+03 0.  0.
         25    1    4    4    0    0  0.43626362242E+02 -0.27012371621E+02 -0.57812257433E+02  0.14704656716E+03  0.12509000000E+03 0.  0.
<mgrwt>
<rscale>  2 0.46706501E+03</rscale>
<asrwt>0</asrwt>
<pdfrwt beam="1">  1       21 0.17800837E-01 0.46706501E+03</pdfrwt>
<pdfrwt beam="2">  1       21 0.66257710E-01 0.46706501E+03</pdfrwt>
<totfact> 0.55021084E+04</totfact>
</mgrwt>
</event>
<event>
 7    0  0.4725730E-002  0.4572858E+03  0.7546771E-02  0.1025571E+00
         21   -1    0    0  502  501  0.00000000000E+00  0.00000000000E+00  0.21353016885E+03  0.21353016885E+03  0.00000000000E+00 0. -1.
         21   -1    0    0  501  502 -0.00000000000E+00 -0.00000000000E+00 -0.24482521551E+03  0.24482521551E+03  0.00000000000E+00 0. -1.
      99926    2    1    2    0    0  0.00000000000E+00  0.14210854715E-13 -0.31295046662E+02  0.45835538435E+03  0.45728577325E+03 0.  0.
      99925    2    3    3    0    0  0.47186197842E+01  0.11386326922E+03 -0.22457115845E+01  0.28666239842E+03  0.26302695298E+03 0.  0.
         25    1    4    4    0    0  0.17883103842E+01  0.96607876647E+02  0.16694151418E+02  0.15894175875E+03  0.12509000000E+03 0.  0.
         25    1    4    4    0    0  0.29303094000E+01  0.17255392576E+02 -0.18939863002E+02  0.12772063967E+03  0.12509000000E+03 0.  0.
         25    1    3    3    0    0 -0.47186197842E+01 -0.11386326922E+03 -0.29049335077E+02  0.17169298593E+03  0.12509000000E+03 0.  0.
<mgrwt>
<rscale>  2 0.45728577E+03</rscale>
<asrwt>0</asrwt>
<pdfrwt beam="1">  1       21 0.31401496E-01 0.45728577E+03</pdfrwt>
<pdfrwt beam="2">  1       21 0.36003708E-01 0.45728577E+03</pdfrwt>
<totfact> 0.67069156E+04</totfact>
</mgrwt>
</event>
<event>
 7    0  0.4725730E-002  0.4549611E+03  0.7546771E-02  0.1026253E+00
         21   -1    0    0  502  501  0.00000000000E+00  0.00000000000E+00  0.50165770074E+03  0.50165770074E+03  0.00000000000E+00 0. -1.
         21   -1    0    0  501  502 -0.00000000000E+00 -0.00000000000E+00 -0.10315281839E+03  0.10315281839E+03  0.00000000000E+00 0. -1.
      99926    2    1    2    0    0  0.00000000000E+00  0.00000000000E+00  0.39850488236E+03  0.60481051913E+03  0.45496112228E+03 0.  0.
      99925    2    3    3    0    0  0.29883648158E+02 -0.43907645467E+02  0.38365001370E+03  0.46810247628E+03  0.26289100694E+03 0.  0.
         25    1    4    4    0    0  0.23527661524E+02  0.53561219153E+01  0.13672148827E+03  0.18687566014E+03  0.12509000000E+03 0.  0.
         25    1    3    3    0    0 -0.29883648158E+02  0.43907645467E+02  0.14854868655E+02  0.13670804285E+03  0.12509000000E+03 0.  0.
         25    1    4    4    0    0  0.63559866344E+01 -0.49263767382E+02  0.24692852543E+03  0.28122681614E+03  0.12509000000E+03 0.  0.
<mgrwt>
<rscale>  2 0.45496112E+03</rscale>
<asrwt>0</asrwt>
<pdfrwt beam="1">  1       21 0.73773191E-01 0.45496112E+03</pdfrwt>
<pdfrwt beam="2">  1       21 0.15169532E-01 0.45496112E+03</pdfrwt>
<totfact> 0.58401077E+04</totfact>
</mgrwt>
</event>
<event>
 7    0  0.4725730E-002  0.4500258E+03  0.7546771E-02  0.1027714E+00
         21   -1    0    0  502  501  0.00000000000E+00  0.00000000000E+00  0.34031106711E+03  0.34031106711E+03  0.00000000000E+00 0. -1.
         21   -1    0    0  501  502 -0.00000000000E+00 -0.00000000000E+00 -0.14877798812E+03  0.14877798812E+03  0.00000000000E+00 0. -1.
      99926    2    1    2    0    0 -0.11102230246E-15  0.00000000000E+00  0.19153307899E+03  0.48908905523E+03  0.45002575882E+03 0.  0.
      99925    2    3    3    0    0  0.59236777920E+00 -0.70107179872E+02  0.21103501463E+03  0.34437139507E+03  0.26294583619E+03 0.  0.
         25    1    3    3    0    0 -0.59236777920E+00  0.70107179872E+02 -0.19501935641E+02  0.14471766016E+03  0.12509000000E+03 0.  0.
         25    1    4    4    0    0 -0.53429463957E+00 -0.58156014852E+02  0.15283223584E+03  0.20588251005E+03  0.12509000000E+03 0.  0.
         25    1    4    4    0    0  0.11266624188E+01 -0.11951165021E+02  0.58202778790E+02  0.13848888501E+03  0.12509000000E+03 0.  0.
<mgrwt>
<rscale>  2 0.45002576E+03</rscale>
<asrwt>0</asrwt>
<pdfrwt beam="1">  1       21 0.50045745E-01 0.45002576E+03</pdfrwt>
<pdfrwt beam="2">  1       21 0.21879116E-01 0.45002576E+03</pdfrwt>
<totfact> 0.68717962E+04</totfact>
</mgrwt>
</event>
<event>
 7    0  0.4725730E-002  0.4541815E+03  0.7546771E-02  0.1026482E+00
         21   -1    0    0  502  501  0.00000000000E+00  0.00000000000E+00  0.31151781851E+03  0.31151781851E+03  0.00000000000E+00 0. -1.
         21   -1    0    0  501  502 -0.00000000000E+00 -0.00000000000E+00 -0.16554499625E+03  0.16554499625E+03  0.00000000000E+00 0. -1.
      99926    2    1    2    0    0  0.00000000000E+00  0.14210854715E-13  0.14597282226E+03  0.47706281476E+03  0.45418153242E+03 0.  0.
      99925    2    3    3    0    0  0.54171992284E+02  0.74463625264E+02  0.25894180293E+02  0.28073190891E+03  0.26393268057E+03 0.  0.
         25    1    4    4    0    0  0.45296199289E+02  0.74174539451E+02 -0.16930475271E+01  0.15232853470E+03  0.12509000000E+03 0.  0.
         25    1    3    3    0    0 -0.54171992284E+02 -0.74463625264E+02  0.12007864196E+03  0.19633090585E+03  0.12509000000E+03 0.  0.
         25    1    4    4    0    0  0.88757929946E+01  0.28908581299E+00  0.27587227820E+02  0.12840337422E+03  0.12509000000E+03 0.  0.
<mgrwt>
<rscale>  2 0.45418153E+03</rscale>
<asrwt>0</asrwt>
<pdfrwt beam="1">  1       21 0.45811444E-01 0.45418153E+03</pdfrwt>
<pdfrwt beam="2">  1       21 0.24344853E-01 0.45418153E+03</pdfrwt>
<totfact> 0.67350976E+04</totfact>
</mgrwt>
</event>
<event>
 7    0  0.4725730E-002  0.4587530E+03  0.7546771E-02  0.1025144E+00
         21   -1    0    0  502  501  0.00000000000E+00  0.00000000000E+00  0.37778295541E+03  0.37778295541E+03  0.00000000000E+00 0. -1.
         21   -1    0    0  501  502 -0.00000000000E+00 -0.00000000000E+00 -0.13926932110E+03  0.13926932110E+03  0.00000000000E+00 0. -1.
      99926    2    1    2    0    0  0.00000000000E+00  0.00000000000E+00  0.23851363431E+03  0.51705227651E+03  0.45875298680E+03 0.  0.
      99925    2    3    3    0    0  0.20921820116E+02  0.67687743348E+02  0.45144201132E+02  0.27609875622E+03  0.26300792979E+03 0.  0.
         25    1    4    4    0    0 -0.15634618882E+02  0.63881807512E+02  0.33217656744E+02  0.14517660782E+03  0.12509000000E+03 0.  0.
         25    1    4    4    0    0  0.36556438997E+02  0.38059358358E+01  0.11926544387E+02  0.13092214840E+03  0.12509000000E+03 0.  0.
         25    1    3    3    0    0 -0.20921820116E+02 -0.67687743348E+02  0.19336943317E+03  0.24095352029E+03  0.12509000000E+03 0.  0.
<mgrwt>
<rscale>  2 0.45875299E+03</rscale>
<asrwt>0</asrwt>
<pdfrwt beam="1">  1       21 0.55556317E-01 0.45875299E+03</pdfrwt>
<pdfrwt beam="2">  1       21 0.20480783E-01 0.45875299E+03</pdfrwt>
<totfact> 0.62215013E+04</totfact>
</mgrwt>
</event>
<event>
 7    0  0.4725730E-002  0.4587022E+03  0.7546771E-02  0.1025158E+00
         21   -1    0    0  502  501  0.00000000000E+00  0.00000000000E+00  0.61617747222E+02  0.61617747222E+02  0.00000000000E+00 0.  1.
         21   -1    0    0  501  502 -0.00000000000E+00 -0.00000000000E+00 -0.85368131710E+03  0.85368131710E+03  0.00000000000E+00 0.  1.
      99926    2    1    2    0    0  0.00000000000E+00  0.00000000000E+00 -0.79206356988E+03  0.91529906432E+03  0.45870216745E+03 0.  0.
      99925    2    3    3    0    0 -0.73109781357E+02  0.55538996845E+02 -0.35362480819E+03  0.45021232386E+03  0.26307985725E+03 0.  0.
         25    1    4    4    0    0 -0.68942987176E+02  0.36840060020E+02 -0.23045285922E+03  0.27361716672E+03  0.12509000000E+03 0.  0.
         25    1    3    3    0    0  0.73109781357E+02 -0.55538996845E+02 -0.43843876169E+03  0.46508674046E+03  0.12509000000E+03 0.  0.
         25    1    4    4    0    0 -0.41667941813E+01  0.18698936825E+02 -0.12317194897E+03  0.17659515714E+03  0.12509000000E+03 0.  0.
<mgrwt>
<rscale>  2 0.45870217E+03</rscale>
<asrwt>0</asrwt>
<pdfrwt beam="1">  1       21 0.90614336E-02 0.45870217E+03</pdfrwt>
<pdfrwt beam="2">  1       21 0.12554137E+00 0.45870217E+03</pdfrwt>
<totfact> 0.41367008E+04</totfact>
</mgrwt>
</event>
<event>
 7    0  0.4725730E-002  0.4557036E+03  0.7546771E-02  0.1026035E+00
         21   -1    0    0  502  501  0.00000000000E+00  0.00000000000E+00  0.59514568780E+02  0.59514568780E+02  0.00000000000E+00 0. -1.
         21   -1    0    0  501  502 -0.00000000000E+00 -0.00000000000E+00 -0.87233183375E+03  0.87233183375E+03  0.00000000000E+00 0. -1.
      99926    2    1    2    0    0  0.00000000000E+00  0.71054273576E-14 -0.81281726497E+03  0.93184640253E+03  0.45570364457E+03 0.  0.
      99925    2    3    3    0    0  0.10058244869E+03 -0.52810704051E+02 -0.49546208281E+03  0.57230833891E+03  0.26296075723E+03 0.  0.
         25    1    4    4    0    0  0.70974702830E+02 -0.46765493478E+02 -0.20623147060E+03  0.25574078163E+03  0.12509000000E+03 0.  0.
         25    1    4    4    0    0  0.29607745856E+02 -0.60452105733E+01 -0.28923061221E+03  0.31656755728E+03  0.12509000000E+03 0.  0.
         25    1    3    3    0    0 -0.10058244869E+03  0.52810704051E+02 -0.31735518216E+03  0.35953806362E+03  0.12509000000E+03 0.  0.
<mgrwt>
<rscale>  2 0.45570364E+03</rscale>
<asrwt>0</asrwt>
<pdfrwt beam="1">  1       21 0.87521425E-02 0.45570364E+03</pdfrwt>
<pdfrwt beam="2">  1       21 0.12828409E+00 0.45570364E+03</pdfrwt>
<totfact> 0.41655072E+04</totfact>
</mgrwt>
</event>
<event>
 7    0  0.4725730E-002  0.4529213E+03  0.7546771E-02  0.1026854E+00
         21   -1    0    0  502  501  0.00000000000E+00  0.00000000000E+00  0.55012378222E+03  0.55012378222E+03  0.00000000000E+00 0. -1.
         21   -1    0    0  501  502 -0.00000000000E+00 -0.00000000000E+00 -0.93223445175E+02  0.93223445175E+02  0.00000000000E+00 0. -1.
      99926    2    1    2    0    0  0.71054273576E-14  0.88817841970E-15  0.45690033705E+03  0.64334722740E+03  0.45292133644E+03 0.  0.
      99925    2    3    3    0    0 -0.47313554379E+02  0.11029521887E+01  0.14506351211E+03  0.30403984107E+03  0.26297721095E+03 0.  0.
         25    1    4    4    0    0  0.31941554599E+01 -0.17298097191E+02  0.41453040992E+02  0.13294844679E+03  0.12509000000E+03 0.  0.
         25    1    3    3    0    0  0.47313554379E+02 -0.11029521887E+01  0.31183682494E+03  0.33930738633E+03  0.12509000000E+03 0.  0.
         25    1    4    4    0    0 -0.50507709839E+02  0.18401049379E+02  0.10361047112E+03  0.17109139428E+03  0.12509000000E+03 0.  0.
<mgrwt>
<rscale>  2 0.45292134E+03</rscale>
<asrwt>0</asrwt>
<pdfrwt beam="1">  1       21 0.80900554E-01 0.45292134E+03</pdfrwt>
<pdfrwt beam="2">  1       21 0.13709330E-01 0.45292134E+03</pdfrwt>
<totfact> 0.57015812E+04</totfact>
</mgrwt>
</event>
<event>
 7    0  0.4725730E-002  0.4812836E+03  0.7546771E-02  0.1018783E+00
         21   -1    0    0  502  501  0.00000000000E+00  0.00000000000E+00  0.11641003578E+03  0.11641003578E+03  0.00000000000E+00 0.  1.
         21   -1    0    0  501  502 -0.00000000000E+00 -0.00000000000E+00 -0.49745255194E+03  0.49745255194E+03  0.00000000000E+00 0.  1.
      99926    2    1    2    0    0  0.00000000000E+00  0.00000000000E+00 -0.38104251615E+03  0.61386258772E+03  0.48128357284E+03 0.  0.
      99925    2    3    3    0    0  0.58859275350E+02  0.95890106589E+01 -0.78352055551E+02  0.28095811725E+03  0.26313885236E+03 0.  0.
         25    1    4    4    0    0  0.39813890112E+02  0.36903478681E+02 -0.64268645262E+02  0.15074806615E+03  0.12509000000E+03 0.  0.
         25    1    4    4    0    0  0.19045385238E+02 -0.27314468022E+02 -0.14083410290E+02  0.13021005110E+03  0.12509000000E+03 0.  0.
         25    1    3    3    0    0 -0.58859275350E+02 -0.95890106589E+01 -0.30269046060E+03  0.33290447047E+03  0.12509000000E+03 0.  0.
<mgrwt>
<rscale>  2 0.48128357E+03</rscale>
<asrwt>0</asrwt>
<pdfrwt beam="1">  1       21 0.17119123E-01 0.48128357E+03</pdfrwt>
<pdfrwt beam="2">  1       21 0.73154786E-01 0.48128357E+03</pdfrwt>
<totfact> 0.47235117E+04</totfact>
</mgrwt>
</event>
<event>
 7    0  0.4725730E-002  0.4483407E+03  0.7546771E-02  0.1028218E+00
         21   -1    0    0  502  501  0.00000000000E+00  0.00000000000E+00  0.10500936454E+04  0.10500936454E+04  0.00000000000E+00 0.  1.
         21   -1    0    0  501  502 -0.00000000000E+00 -0.00000000000E+00 -0.47855115546E+02  0.47855115546E+02  0.00000000000E+00 0.  1.
      99926    2    1    2    0    0 -0.71054273576E-14  0.00000000000E+00  0.10022385299E+04  0.10979487610E+04  0.44834073085E+03 0.  0.
      99925    2    3    3    0    0  0.47527338204E+02 -0.95463535845E+02  0.67026832205E+03  0.72751136878E+03  0.26199433886E+03 0.  0.
         25    1    4    4    0    0  0.36879268383E+02 -0.22425884738E+02  0.25013137913E+03  0.28297741194E+03  0.12509000000E+03 0.  0.
         25    1    3    3    0    0 -0.47527338204E+02  0.95463535845E+02  0.33197020782E+03  0.37043739219E+03  0.12509000000E+03 0.  0.
         25    1    4    4    0    0  0.10648069821E+02 -0.73037651107E+02  0.42013694293E+03  0.44453395684E+03  0.12509000000E+03 0.  0.
<mgrwt>
<rscale>  2 0.44834073E+03</rscale>
<asrwt>0</asrwt>
<pdfrwt beam="1">  1       21 0.15442552E+00 0.44834073E+03</pdfrwt>
<pdfrwt beam="2">  1       21 0.70375177E-02 0.44834073E+03</pdfrwt>
<totfact> 0.37474737E+04</totfact>
</mgrwt>
</event>
<event>
 7    0  0.4725730E-002  0.4585766E+03  0.7546771E-02  0.1025195E+00
         21   -1    0    0  502  501  0.00000000000E+00  0.00000000000E+00  0.26600408963E+03  0.26600408963E+03  0.00000000000E+00 0.  1.
         21   -1    0    0  501  502 -0.00000000000E+00 -0.00000000000E+00 -0.19764025022E+03  0.19764025022E+03  0.00000000000E+00 0.  1.
      99926    2    1    2    0    0  0.00000000000E+00  0.00000000000E+00  0.68363839407E+02  0.46364433985E+03  0.45857655777E+03 0.  0.
      99925    2    3    3    0    0 -0.77552751105E+02  0.65136602412E+02  0.10119217805E+03  0.29938109351E+03  0.26292960289E+03 0.  0.
         25    1    3    3    0    0  0.77552751105E+02 -0.65136602412E+02 -0.32828338638E+02  0.16426324633E+03  0.12509000000E+03 0.  0.
         25    1    4    4    0    0 -0.30978081202E+01  0.25930342024E+02  0.24043626408E+02  0.13002916259E+03  0.12509000000E+03 0.  0.
         25    1    4    4    0    0 -0.74454942985E+02  0.39206260388E+02  0.77148551637E+02  0.16935193093E+03  0.12509000000E+03 0.  0.
<mgrwt>
<rscale>  2 0.45857656E+03</rscale>
<asrwt>0</asrwt>
<pdfrwt beam="1">  1       21 0.39118249E-01 0.45857656E+03</pdfrwt>
<pdfrwt beam="2">  1       21 0.29064743E-01 0.45857656E+03</pdfrwt>
<totfact> 0.66012796E+04</totfact>
</mgrwt>
</event>
<event>
 7    0  0.4725730E-002  0.4514888E+03  0.7546771E-02  0.1027279E+00
         21   -1    0    0  502  501  0.00000000000E+00  0.00000000000E+00  0.33756510838E+03  0.33756510838E+03  0.00000000000E+00 0. -1.
         21   -1    0    0  501  502 -0.00000000000E+00 -0.00000000000E+00 -0.15096504121E+03  0.15096504121E+03  0.00000000000E+00 0. -1.
      99926    2    1    2    0    0  0.71054273576E-14  0.00000000000E+00  0.18660006717E+03  0.48853014958E+03  0.45148878390E+03 0.  0.
      99925    2    3    3    0    0  0.35855876200E+02  0.86133226972E+02  0.18048060517E+03  0.33235866511E+03  0.26302938388E+03 0.  0.
         25    1    4    4    0    0 -0.14301452135E+02  0.32581112694E+02  0.11350858103E+03  0.17262029575E+03  0.12509000000E+03 0.  0.
         25    1    4    4    0    0  0.50157328335E+02  0.53552114278E+02  0.66972024144E+02  0.15973836936E+03  0.12509000000E+03 0.  0.
         25    1    3    3    0    0 -0.35855876200E+02 -0.86133226972E+02  0.61194620001E+01  0.15617148447E+03  0.12509000000E+03 0.  0.
<mgrwt>
<rscale>  2 0.45148878E+03</rscale>
<asrwt>0</asrwt>
<pdfrwt beam="1">  1       21 0.49641928E-01 0.45148878E+03</pdfrwt>
<pdfrwt beam="2">  1       21 0.22200741E-01 0.45148878E+03</pdfrwt>
<totfact> 0.67958864E+04</totfact>
</mgrwt>
</event>
<event>
 7    0  0.4725730E-002  0.4658422E+03  0.7546771E-02  0.1023100E+00
         21   -1    0    0  502  501  0.00000000000E+00  0.00000000000E+00  0.36364691582E+03  0.36364691582E+03  0.00000000000E+00 0.  1.
         21   -1    0    0  501  502 -0.00000000000E+00 -0.00000000000E+00 -0.14918933157E+03  0.14918933157E+03  0.00000000000E+00 0.  1.
      99926    2    1    2    0    0  0.00000000000E+00 -0.19984014443E-14  0.21445758425E+03  0.51283624739E+03  0.46584220633E+03 0.  0.
      99925    2    3    3    0    0 -0.12017419227E+03  0.76447803428E+00  0.16285627758E+03  0.33185938737E+03  0.26299441995E+03 0.  0.
         25    1    3    3    0    0  0.12017419227E+03 -0.76447803428E+00  0.51601306667E+02  0.18097686002E+03  0.12509000000E+03 0.  0.
         25    1    4    4    0    0 -0.51104848816E+02 -0.37341182025E+02  0.93556393233E+02  0.16854191248E+03  0.12509000000E+03 0.  0.
         25    1    4    4    0    0 -0.69069343453E+02  0.38105660059E+02  0.69299884349E+02  0.16331747489E+03  0.12509000000E+03 0.  0.
<mgrwt>
<rscale>  2 0.46584221E+03</rscale>
<asrwt>0</asrwt>
<pdfrwt beam="1">  1       21 0.53477488E-01 0.46584221E+03</pdfrwt>
<pdfrwt beam="2">  1       21 0.21939608E-01 0.46584221E+03</pdfrwt>
<totfact> 0.59123931E+04</totfact>
</mgrwt>
</event>
<event>
 7    0  0.4725730E-002  0.4579513E+03  0.7546771E-02  0.1025377E+00
         21   -1    0    0  502  501  0.00000000000E+00  0.00000000000E+00  0.17348118054E+04  0.17348118054E+04  0.00000000000E+00 0. -1.
         21   -1    0    0  501  502 -0.00000000000E+00 -0.00000000000E+00 -0.30222211010E+02  0.30222211010E+02  0.00000000000E+00 0. -1.
      99926    2    1    2    0    0  0.14210854715E-13  0.00000000000E+00  0.17045895944E+04  0.17650340164E+04  0.45795130067E+03 0.  0.
      99925    2    3    3    0    0 -0.10257486462E+03 -0.47022556088E+02  0.11718440983E+04  0.12062872085E+04  0.26301618785E+03 0.  0.
         25    1    3    3    0    0  0.10257486462E+03  0.47022556088E+02  0.53274549608E+03  0.55874680789E+03  0.12509000000E+03 0.  0.
         25    1    4    4    0    0 -0.55757689937E+02 -0.83504178351E+01  0.73986552672E+03  0.75248066765E+03  0.12509000000E+03 0.  0.
         25    1    4    4    0    0 -0.46817174680E+02 -0.38672138253E+02  0.43197857160E+03  0.45380654088E+03  0.12509000000E+03 0.  0.
<mgrwt>
<rscale>  2 0.45795130E+03</rscale>
<asrwt>0</asrwt>
<pdfrwt beam="1">  1       21 0.25511932E+00 0.45795130E+03</pdfrwt>
<pdfrwt beam="2">  1       21 0.44444440E-02 0.45795130E+03</pdfrwt>
<totfact> 0.17535860E+04</totfact>
</mgrwt>
</event>
<event>
 7    0  0.4725730E-002  0.4486002E+03  0.7546771E-02  0.1028140E+00
         21   -1    0    0  502  501  0.00000000000E+00  0.00000000000E+00  0.47776795554E+03  0.47776795554E+03  0.00000000000E+00 0.  1.
         21   -1    0    0  501  502 -0.00000000000E+00 -0.00000000000E+00 -0.10530328006E+03  0.10530328006E+03  0.00000000000E+00 0.  1.
      99926    2    1    2    0    0  0.00000000000E+00  0.00000000000E+00  0.37246467548E+03  0.58307123560E+03  0.44860019093E+03 0.  0.
      99925    2    3    3    0    0  0.95745974767E+02 -0.43383908756E+02  0.26144493308E+03  0.38553048910E+03  0.26311755884E+03 0.  0.
         25    1    4    4    0    0  0.30558295980E+02 -0.31344127159E+02  0.17548913184E+03  0.21990954335E+03  0.12509000000E+03 0.  0.
         25    1    4    4    0    0  0.65187678788E+02 -0.12039781597E+02  0.85955801244E+02  0.16562094576E+03  0.12509000000E+03 0.  0.
         25    1    3    3    0    0 -0.95745974767E+02  0.43383908756E+02  0.11101974240E+03  0.19754074649E+03  0.12509000000E+03 0.  0.
<mgrwt>
<rscale>  2 0.44860019E+03</rscale>
<asrwt>0</asrwt>
<pdfrwt beam="1">  1       21 0.70259993E-01 0.44860019E+03</pdfrwt>
<pdfrwt beam="2">  1       21 0.15485777E-01 0.44860019E+03</pdfrwt>
<totfact> 0.62852405E+04</totfact>
</mgrwt>
</event>
<event>
 7    0  0.4725730E-002  0.4526237E+03  0.7546771E-02  0.1026943E+00
         21   -1    0    0  502  501  0.00000000000E+00  0.00000000000E+00  0.27927571445E+02  0.27927571445E+02  0.00000000000E+00 0. -1.
         21   -1    0    0  501  502 -0.00000000000E+00 -0.00000000000E+00 -0.18339240165E+04  0.18339240165E+04  0.00000000000E+00 0. -1.
      99926    2    1    2    0    0  0.00000000000E+00  0.00000000000E+00 -0.18059964451E+04  0.18618515880E+04  0.45262365822E+03 0.  0.
      99925    2    3    3    0    0 -0.80016110919E+02 -0.74445233190E+02 -0.12242132727E+04  0.12568194908E+04  0.26258793734E+03 0.  0.
         25    1    3    3    0    0  0.80016110919E+02  0.74445233190E+02 -0.58178317241E+03  0.60503209712E+03  0.12509000000E+03 0.  0.
         25    1    4    4    0    0 -0.37306949107E+02 -0.69006445953E+02 -0.75557481880E+03  0.76986655528E+03  0.12509000000E+03 0.  0.
         25    1    4    4    0    0 -0.42709161812E+02 -0.54387872370E+01 -0.46863845386E+03  0.48695293555E+03  0.12509000000E+03 0.  0.
<mgrwt>
<rscale>  2 0.45262366E+03</rscale>
<asrwt>0</asrwt>
<pdfrwt beam="1">  1       21 0.41069949E-02 0.45262366E+03</pdfrwt>
<pdfrwt beam="2">  1       21 0.26969476E+00 0.45262366E+03</pdfrwt>
<totfact> 0.16399667E+04</totfact>
</mgrwt>
</event>
<event>
 7    0  0.4725730E-002  0.4717461E+03  0.7546771E-02  0.1021429E+00
         21   -1    0    0  502  501  0.00000000000E+00  0.00000000000E+00  0.13374932487E+04  0.13374932487E+04  0.00000000000E+00 0. -1.
         21   -1    0    0  501  502 -0.00000000000E+00 -0.00000000000E+00 -0.41597285716E+02  0.41597285716E+02  0.00000000000E+00 0. -1.
      99926    2    1    2    0    0  0.00000000000E+00 -0.71054273576E-14  0.12958959630E+04  0.13790905345E+04  0.47174607072E+03 0.  0.
      99925    2    3    3    0    0  0.10935596343E+03 -0.59745471162E+02  0.71818899738E+03  0.77500354211E+03  0.26326185874E+03 0.  0.
         25    1    4    4    0    0  0.74863455966E+02 -0.40362555323E+02  0.28877310153E+03  0.32599246185E+03  0.12509000000E+03 0.  0.
         25    1    3    3    0    0 -0.10935596343E+03  0.59745471162E+02  0.57770696564E+03  0.60408699234E+03  0.12509000000E+03 0.  0.
         25    1    4    4    0    0  0.34492507469E+02 -0.19382915839E+02  0.42941589584E+03  0.44901108026E+03  0.12509000000E+03 0.  0.
<mgrwt>
<rscale>  2 0.47174607E+03</rscale>
<asrwt>0</asrwt>
<pdfrwt beam="1">  1       21 0.19669016E+00 0.47174607E+03</pdfrwt>
<pdfrwt beam="2">  1       21 0.61172488E-02 0.47174607E+03</pdfrwt>
<totfact> 0.23661864E+04</totfact>
</mgrwt>
</event>
<event>
 7    0  0.4725730E-002  0.4566323E+03  0.7546771E-02  0.1025763E+00
         21   -1    0    0  502  501  0.00000000000E+00  0.00000000000E+00  0.62799624160E+03  0.62799624160E+03  0.00000000000E+00 0.  1.
         21   -1    0    0  501  502 -0.00000000000E+00 -0.00000000000E+00 -0.83007270681E+02  0.83007270681E+02  0.00000000000E+00 0.  1.
      99926    2    1    2    0    0 -0.71054273576E-14  0.00000000000E+00  0.54498897092E+03  0.71100351228E+03  0.45663225472E+03 0.  0.
      99925    2    3    3    0    0  0.61564517747E+02  0.92742341065E+02  0.38632241240E+03  0.48032209438E+03  0.26281738214E+03 0.  0.
         25    1    4    4    0    0  0.20782488378E+02  0.10907038298E+02  0.21035087194E+03  0.24585742359E+03  0.12509000000E+03 0.  0.
         25    1    4    4    0    0  0.40782029369E+02  0.81835302768E+02  0.17597154046E+03  0.23446467079E+03  0.12509000000E+03 0.  0.
         25    1    3    3    0    0 -0.61564517747E+02 -0.92742341065E+02  0.15866655853E+03  0.23068141790E+03  0.12509000000E+03 0.  0.
<mgrwt>
<rscale>  2 0.45663225E+03</rscale>
<asrwt>0</asrwt>
<pdfrwt beam="1">  1       21 0.92352386E-01 0.45663225E+03</pdfrwt>
<pdfrwt beam="2">  1       21 0.12206952E-01 0.45663225E+03</pdfrwt>
<totfact> 0.51643230E+04</totfact>
</mgrwt>
</event>
<event>
 7    0  0.4725730E-002  0.4495345E+03  0.7546771E-02  0.1027861E+00
         21   -1    0    0  502  501  0.00000000000E+00  0.00000000000E+00  0.69391164755E+03  0.69391164755E+03  0.00000000000E+00 0. -1.
         21   -1    0    0  501  502 -0.00000000000E+00 -0.00000000000E+00 -0.72805109270E+02  0.72805109270E+02  0.00000000000E+00 0. -1.
      99926    2    1    2    0    0  0.00000000000E+00  0.00000000000E+00  0.62110653828E+03  0.76671675682E+03  0.44953448510E+03 0.  0.
      99925    2    3    3    0    0  0.91080878133E+02 -0.53917017617E+02  0.35628965393E+03  0.45530342780E+03  0.26297551735E+03 0.  0.
         25    1    4    4    0    0  0.43083419705E+02  0.15773589655E+01  0.21742796932E+03  0.25452131356E+03  0.12509000000E+03 0.  0.
         25    1    4    4    0    0  0.47997458428E+02 -0.55494376583E+02  0.13886168461E+03  0.20078211424E+03  0.12509000000E+03 0.  0.
         25    1    3    3    0    0 -0.91080878133E+02  0.53917017617E+02  0.26481688436E+03  0.31141332902E+03  0.12509000000E+03 0.  0.
<mgrwt>
<rscale>  2 0.44953449E+03</rscale>
<asrwt>0</asrwt>
<pdfrwt beam="1">  1       21 0.10204583E+00 0.44953449E+03</pdfrwt>
<pdfrwt beam="2">  1       21 0.10706634E-01 0.44953449E+03</pdfrwt>
<totfact> 0.51595122E+04</totfact>
</mgrwt>
</event>
<event>
 7    0  0.4725730E-002  0.4585666E+03  0.7546771E-02  0.1025198E+00
         21   -1    0    0  502  501  0.00000000000E+00  0.00000000000E+00  0.11506761981E+03  0.11506761981E+03  0.00000000000E+00 0.  1.
         21   -1    0    0  501  502 -0.00000000000E+00 -0.00000000000E+00 -0.45686893949E+03  0.45686893949E+03  0.00000000000E+00 0.  1.
      99926    2    1    2    0    0  0.35527136788E-14  0.14210854715E-13 -0.34180131967E+03  0.57193655930E+03  0.45856655540E+03 0.  0.
      99925    2    3    3    0    0  0.27220903673E+02  0.11186536042E+03 -0.23666244852E+03  0.37204527188E+03  0.26297097431E+03 0.  0.
         25    1    4    4    0    0  0.75889368512E+01  0.68003394732E+02 -0.17153026741E+03  0.22305199931E+03  0.12509000000E+03 0.  0.
         25    1    4    4    0    0  0.19631966822E+02  0.43861965691E+02 -0.65132181114E+02  0.14899327257E+03  0.12509000000E+03 0.  0.
         25    1    3    3    0    0 -0.27220903673E+02 -0.11186536042E+03 -0.10513887115E+03  0.19989128742E+03  0.12509000000E+03 0.  0.
<mgrwt>
<rscale>  2 0.45856656E+03</rscale>
<asrwt>0</asrwt>
<pdfrwt beam="1">  1       21 0.16921709E-01 0.45856656E+03</pdfrwt>
<pdfrwt beam="2">  1       21 0.67186609E-01 0.45856656E+03</pdfrwt>
<totfact> 0.58764839E+04</totfact>
</mgrwt>
</event>
<event>
 7    0  0.4725730E-002  0.4525174E+03  0.7546771E-02  0.1026974E+00
         21   -1    0    0  502  501  0.00000000000E+00  0.00000000000E+00  0.29674752104E+03  0.29674752104E+03  0.00000000000E+00 0.  1.
         21   -1    0    0  501  502 -0.00000000000E+00 -0.00000000000E+00 -0.17251362221E+03  0.17251362221E+03  0.00000000000E+00 0.  1.
      99926    2    1    2    0    0  0.00000000000E+00  0.00000000000E+00  0.12423389884E+03  0.46926114325E+03  0.45251735762E+03 0.  0.
      99925    2    3    3    0    0  0.90750535588E+02  0.45400636095E+02  0.31747531535E+02  0.28352446485E+03  0.26283329116E+03 0.  0.
         25    1    4    4    0    0  0.22140321108E+02  0.26356012765E+02 -0.18538377671E+02  0.13105728814E+03  0.12509000000E+03 0.  0.
         25    1    4    4    0    0  0.68610214479E+02  0.19044623330E+02  0.50285909206E+02  0.15246717671E+03  0.12509000000E+03 0.  0.
         25    1    3    3    0    0 -0.90750535588E+02 -0.45400636095E+02  0.92486367302E+02  0.18573667840E+03  0.12509000000E+03 0.  0.
<mgrwt>
<rscale>  2 0.45251736E+03</rscale>
<asrwt>0</asrwt>
<pdfrwt beam="1">  1       21 0.43639341E-01 0.45251736E+03</pdfrwt>
<pdfrwt beam="2">  1       21 0.25369650E-01 0.45251736E+03</pdfrwt>
<totfact> 0.68836535E+04</totfact>
</mgrwt>
</event>
<event>
 7    0  0.4725730E-002  0.4448646E+03  0.7546771E-02  0.1029265E+00
         21   -1    0    0  502  501  0.00000000000E+00  0.00000000000E+00  0.13901907794E+04  0.13901907794E+04  0.00000000000E+00 0.  1.
         21   -1    0    0  501  502 -0.00000000000E+00 -0.00000000000E+00 -0.35589452681E+02  0.35589452681E+02  0.00000000000E+00 0.  1.
      99926    2    1    2    0    0  0.00000000000E+00  0.00000000000E+00  0.13546013267E+04  0.14257802321E+04  0.44486460395E+03 0.  0.
      99925    2    3    3    0    0 -0.22719049526E+02  0.90852518056E+02  0.10039351574E+04  0.10418732047E+04  0.26238071427E+03 0.  0.
         25    1    4    4    0    0  0.12584354376E+02  0.55565803642E+02  0.61835953044E+03  0.63345239876E+03  0.12509000000E+03 0.  0.
         25    1    4    4    0    0 -0.35303403901E+02  0.35286714414E+02  0.38557562692E+03  0.40842080593E+03  0.12509000000E+03 0.  0.
         25    1    3    3    0    0  0.22719049526E+02 -0.90852518056E+02  0.35066616938E+03  0.38390702742E+03  0.12509000000E+03 0.  0.
<mgrwt>
<rscale>  2 0.44486460E+03</rscale>
<asrwt>0</asrwt>
<pdfrwt beam="1">  1       21 0.20443978E+00 0.44486460E+03</pdfrwt>
<pdfrwt beam="2">  1       21 0.52337440E-02 0.44486460E+03</pdfrwt>
<totfact> 0.27777127E+04</totfact>
</mgrwt>
</event>
<event>
 7    0  0.4725730E-002  0.4589547E+03  0.7546771E-02  0.1025085E+00
         21   -1    0    0  502  501  0.00000000000E+00  0.00000000000E+00  0.23615495631E+03  0.23615495631E+03  0.00000000000E+00 0.  1.
         21   -1    0    0  501  502 -0.00000000000E+00 -0.00000000000E+00 -0.22298854954E+03  0.22298854954E+03  0.00000000000E+00 0.  1.
      99926    2    1    2    0    0  0.00000000000E+00 -0.71054273576E-14  0.13166406764E+02  0.45914350585E+03  0.45895468697E+03 0.  0.
      99925    2    3    3    0    0 -0.10834816088E+03  0.40902280165E+02  0.23735950792E+02  0.28834671475E+03  0.26299831189E+03 0.  0.
         25    1    4    4    0    0 -0.46595989948E+02  0.25695824230E+02  0.51376267970E+02  0.14532202405E+03  0.12509000000E+03 0.  0.
         25    1    3    3    0    0  0.10834816088E+03 -0.40902280165E+02 -0.10569544028E+02  0.17079679110E+03  0.12509000000E+03 0.  0.
         25    1    4    4    0    0 -0.61752170932E+02  0.15206455935E+02 -0.27640317178E+02  0.14302469070E+03  0.12509000000E+03 0.  0.
<mgrwt>
<rscale>  2 0.45895469E+03</rscale>
<asrwt>0</asrwt>
<pdfrwt beam="1">  1       21 0.34728670E-01 0.45895469E+03</pdfrwt>
<pdfrwt beam="2">  1       21 0.32792434E-01 0.45895469E+03</pdfrwt>
<totfact> 0.66131814E+04</totfact>
</mgrwt>
</event>
<event>
 7    0  0.4725730E-002  0.4517230E+03  0.7546771E-02  0.1027209E+00
         21   -1    0    0  502  501  0.00000000000E+00  0.00000000000E+00  0.29863507189E+02  0.29863507189E+02  0.00000000000E+00 0. -1.
         21   -1    0    0  501  502 -0.00000000000E+00 -0.00000000000E+00 -0.17082196020E+04  0.17082196020E+04  0.00000000000E+00 0. -1.
      99926    2    1    2    0    0  0.00000000000E+00  0.00000000000E+00 -0.16783560948E+04  0.17380831091E+04  0.45172304950E+03 0.  0.
      99925    2    3    3    0    0 -0.66596215222E+02 -0.82424072171E+02 -0.94499294267E+03  0.98661933457E+03  0.26301571451E+03 0.  0.
         25    1    4    4    0    0 -0.26024833555E+02 -0.49787653030E+02 -0.33941495843E+03  0.36606846964E+03  0.12509000000E+03 0.  0.
         25    1    3    3    0    0  0.66596215222E+02  0.82424072171E+02 -0.73336315209E+03  0.75146377458E+03  0.12509000000E+03 0.  0.
         25    1    4    4    0    0 -0.40571381667E+02 -0.32636419141E+02 -0.60557798424E+03  0.62055086493E+03  0.12509000000E+03 0.  0.
<mgrwt>
<rscale>  2 0.45172305E+03</rscale>
<asrwt>0</asrwt>
<pdfrwt beam="1">  1       21 0.43916917E-02 0.45172305E+03</pdfrwt>
<pdfrwt beam="2">  1       21 0.25120880E+00 0.45172305E+03</pdfrwt>
<totfact> 0.18957827E+04</totfact>
</mgrwt>
</event>
<event>
 7    0  0.4725730E-002  0.4447411E+03  0.7546771E-02  0.1029302E+00
         21   -1    0    0  502  501  0.00000000000E+00  0.00000000000E+00  0.20208844309E+04  0.20208844309E+04  0.00000000000E+00 0.  1.
         21   -1    0    0  501  502 -0.00000000000E+00 -0.00000000000E+00 -0.24468824976E+02  0.24468824976E+02  0.00000000000E+00 0.  1.
      99926    2    1    2    0    0  0.00000000000E+00  0.00000000000E+00  0.19964156059E+04  0.20453532559E+04  0.44474112666E+03 0.  0.
      99925    2    3    3    0    0  0.16046367470E+02  0.23798577280E+02  0.81340387736E+03  0.85540026680E+03  0.26317273899E+03 0.  0.
         25    1    4    4    0    0  0.12489925928E+02  0.51972589962E+02  0.39428373314E+03  0.41709030039E+03  0.12509000000E+03 0.  0.
         25    1    3    3    0    0 -0.16046367470E+02 -0.23798577280E+02  0.11830117286E+04  0.11899529891E+04  0.12509000000E+03 0.  0.
         25    1    4    4    0    0  0.35564415425E+01 -0.28174012683E+02  0.41912014421E+03  0.43830996641E+03  0.12509000000E+03 0.  0.
<mgrwt>
<rscale>  2 0.44474113E+03</rscale>
<asrwt>0</asrwt>
<pdfrwt beam="1">  1       21 0.29718877E+00 0.44474113E+03</pdfrwt>
<pdfrwt beam="2">  1       21 0.35983580E-02 0.44474113E+03</pdfrwt>
<totfact> 0.14071111E+04</totfact>
</mgrwt>
</event>
<event>
 7    0  0.4725730E-002  0.4526479E+03  0.7546771E-02  0.1026935E+00
         21   -1    0    0  502  501  0.00000000000E+00  0.00000000000E+00  0.40461794529E+02  0.40461794529E+02  0.00000000000E+00 0. -1.
         21   -1    0    0  501  502 -0.00000000000E+00 -0.00000000000E+00 -0.12659483075E+04  0.12659483075E+04  0.00000000000E+00 0. -1.
      99926    2    1    2    0    0  0.00000000000E+00  0.00000000000E+00 -0.12254865130E+04  0.13064101020E+04  0.45264794400E+03 0.  0.
      99925    2    3    3    0    0 -0.10641637448E+03 -0.25801687165E+02 -0.72713411573E+03  0.78105994094E+03  0.26332572465E+03 0.  0.
         25    1    3    3    0    0  0.10641637448E+03  0.25801687165E+02 -0.49835239722E+03  0.52535016107E+03  0.12509000000E+03 0.  0.
         25    1    4    4    0    0 -0.59844970031E+02  0.93018017240E+01 -0.45766921092E+03  0.47830592583E+03  0.12509000000E+03 0.  0.
         25    1    4    4    0    0 -0.46571404453E+02 -0.35103488889E+02 -0.26946490481E+03  0.30275401511E+03  0.12509000000E+03 0.  0.
<mgrwt>
<rscale>  2 0.45264794E+03</rscale>
<asrwt>0</asrwt>
<pdfrwt beam="1">  1       21 0.59502643E-02 0.45264794E+03</pdfrwt>
<pdfrwt beam="2">  1       21 0.18616885E+00 0.45264794E+03</pdfrwt>
<totfact> 0.29464353E+04</totfact>
</mgrwt>
</event>
<event>
 7    0  0.4725730E-002  0.4458443E+03  0.7546771E-02  0.1028969E+00
         21   -1    0    0  502  501  0.00000000000E+00  0.00000000000E+00  0.14330597633E+04  0.14330597633E+04  0.00000000000E+00 0.  1.
         21   -1    0    0  501  502 -0.00000000000E+00 -0.00000000000E+00 -0.34677044425E+02  0.34677044425E+02  0.00000000000E+00 0.  1.
      99926    2    1    2    0    0  0.71054273576E-14  0.00000000000E+00  0.13983827188E+04  0.14677368077E+04  0.44584426462E+03 0.  0.
      99925    2    3    3    0    0 -0.34310020594E+02 -0.24435506435E+02  0.57289923182E+03  0.63176745004E+03  0.26294925294E+03 0.  0.
         25    1    4    4    0    0  0.22455232516E+02 -0.12900604905E+02  0.25259956559E+03  0.28306308786E+03  0.12509000000E+03 0.  0.
         25    1    4    4    0    0 -0.56765253110E+02 -0.11534901530E+02  0.32029966623E+03  0.34870436218E+03  0.12509000000E+03 0.  0.
         25    1    3    3    0    0  0.34310020594E+02  0.24435506435E+02  0.82548348701E+03  0.83596935764E+03  0.12509000000E+03 0.  0.
<mgrwt>
<rscale>  2 0.44584426E+03</rscale>
<asrwt>0</asrwt>
<pdfrwt beam="1">  1       21 0.21074404E+00 0.44584426E+03</pdfrwt>
<pdfrwt beam="2">  1       21 0.50995663E-02 0.44584426E+03</pdfrwt>
<totfact> 0.26410079E+04</totfact>
</mgrwt>
</event>
<event>
 7    0  0.4725730E-002  0.4505929E+03  0.7546771E-02  0.1027545E+00
         21   -1    0    0  502  501  0.00000000000E+00  0.00000000000E+00  0.75568744222E+02  0.75568744222E+02  0.00000000000E+00 0.  1.
         21   -1    0    0  501  502 -0.00000000000E+00 -0.00000000000E+00 -0.67168636563E+03  0.67168636563E+03  0.00000000000E+00 0.  1.
      99926    2    1    2    0    0  0.00000000000E+00 -0.14210854715E-13 -0.59611762141E+03  0.74725510985E+03  0.45059292121E+03 0.  0.
      99925    2    3    3    0    0 -0.72267955466E+02  0.65359177917E+02 -0.29541945266E+03  0.40731191414E+03  0.26293699409E+03 0.  0.
         25    1    3    3    0    0  0.72267955466E+02 -0.65359177917E+02 -0.30069816875E+03  0.33994319572E+03  0.12509000000E+03 0.  0.
         25    1    4    4    0    0 -0.21213176772E+02 -0.17851277567E+01 -0.16302650490E+03  0.20658735428E+03  0.12509000000E+03 0.  0.
         25    1    4    4    0    0 -0.51054778694E+02  0.67144305674E+02 -0.13239294776E+03  0.20072455985E+03  0.12509000000E+03 0.  0.
<mgrwt>
<rscale>  2 0.45059292E+03</rscale>
<asrwt>0</asrwt>
<pdfrwt beam="1">  1       21 0.11113051E-01 0.45059292E+03</pdfrwt>
<pdfrwt beam="2">  1       21 0.98777406E-01 0.45059292E+03</pdfrwt>
<totfact> 0.52195944E+04</totfact>
</mgrwt>
</event>
<event>
 7    0  0.4725730E-002  0.4542049E+03  0.7546771E-02  0.1026475E+00
         21   -1    0    0  502  501  0.00000000000E+00  0.00000000000E+00  0.13886826644E+04  0.13886826644E+04  0.00000000000E+00 0. -1.
         21   -1    0    0  501  502 -0.00000000000E+00 -0.00000000000E+00 -0.37139889132E+02  0.37139889132E+02  0.00000000000E+00 0. -1.
      99926    2    1    2    0    0  0.00000000000E+00  0.00000000000E+00  0.13515427752E+04  0.14258225535E+04  0.45420488854E+03 0.  0.
      99925    2    3    3    0    0  0.83906344353E+02  0.18846802388E+02  0.62367019548E+03  0.68228944930E+03  0.26298080407E+03 0.  0.
         25    1    4    4    0    0  0.71013490438E+01  0.11001417757E+02  0.34526592040E+03  0.36746091526E+03  0.12509000000E+03 0.  0.
         25    1    4    4    0    0  0.76804995309E+02  0.78453846310E+01  0.27840427508E+03  0.31482853404E+03  0.12509000000E+03 0.  0.
         25    1    3    3    0    0 -0.83906344353E+02 -0.18846802388E+02  0.72787257976E+03  0.74353310421E+03  0.12509000000E+03 0.  0.
<mgrwt>
<rscale>  2 0.45420489E+03</rscale>
<asrwt>0</asrwt>
<pdfrwt beam="1">  1       21 0.20421800E+00 0.45420489E+03</pdfrwt>
<pdfrwt beam="2">  1       21 0.54617493E-02 0.45420489E+03</pdfrwt>
<totfact> 0.25811054E+04</totfact>
</mgrwt>
</event>
<event>
 7    0  0.4725730E-002  0.4558057E+03  0.7546771E-02  0.1026005E+00
         21   -1    0    0  502  501  0.00000000000E+00  0.00000000000E+00  0.11508114521E+04  0.11508114521E+04  0.00000000000E+00 0. -1.
         21   -1    0    0  501  502 -0.00000000000E+00 -0.00000000000E+00 -0.45133109822E+02  0.45133109822E+02  0.00000000000E+00 0. -1.
      99926    2    1    2    0    0  0.00000000000E+00  0.88817841970E-15  0.11056783423E+04  0.11959445620E+04  0.45580565883E+03 0.  0.
      99925    2    3    3    0    0  0.54578014475E+01 -0.50698404860E+01  0.99361655144E+03  0.10278349431E+04  0.26289794234E+03 0.  0.
         25    1    4    4    0    0  0.11980518719E+02  0.26580201526E+02  0.59867626908E+03  0.61229961882E+03  0.12509000000E+03 0.  0.
         25    1    3    3    0    0 -0.54578014475E+01  0.50698404860E+01  0.11206179089E+03  0.16810961887E+03  0.12509000000E+03 0.  0.
         25    1    4    4    0    0 -0.65227172717E+01 -0.31650042012E+02  0.39494028236E+03  0.41553532429E+03  0.12509000000E+03 0.  0.
<mgrwt>
<rscale>  2 0.45580566E+03</rscale>
<asrwt>0</asrwt>
<pdfrwt beam="1">  1       21 0.16923696E+00 0.45580566E+03</pdfrwt>
<pdfrwt beam="2">  1       21 0.66372228E-02 0.45580566E+03</pdfrwt>
<totfact> 0.32082910E+04</totfact>
</mgrwt>
</event>
<event>
 7    0  0.4725730E-002  0.4521387E+03  0.7546771E-02  0.1027086E+00
         21   -1    0    0  502  501  0.00000000000E+00  0.00000000000E+00  0.18903151059E+04  0.18903151059E+04  0.00000000000E+00 0.  1.
         21   -1    0    0  501  502 -0.00000000000E+00 -0.00000000000E+00 -0.27036421826E+02  0.27036421826E+02  0.00000000000E+00 0.  1.
      99926    2    1    2    0    0  0.71054273576E-14 -0.14210854715E-13  0.18632786841E+04  0.19173515277E+04  0.45213872467E+03 0.  0.
      99925    2    3    3    0    0  0.37372884803E+02 -0.10343362251E+03  0.11336493625E+04  0.11689521011E+04  0.26304541579E+03 0.  0.
         25    1    4    4    0    0 -0.20149825571E+02 -0.44598206654E+02  0.48598918373E+03  0.50421028382E+03  0.12509000000E+03 0.  0.
         25    1    3    3    0    0 -0.37372884803E+02  0.10343362251E+03  0.72962932154E+03  0.74839942660E+03  0.12509000000E+03 0.  0.
         25    1    4    4    0    0  0.57522710374E+02 -0.58835415853E+02  0.64766017878E+03  0.66474181728E+03  0.12509000000E+03 0.  0.
<mgrwt>
<rscale>  2 0.45213872E+03</rscale>
<asrwt>0</asrwt>
<pdfrwt beam="1">  1       21 0.27798743E+00 0.45213872E+03</pdfrwt>
<pdfrwt beam="2">  1       21 0.39759456E-02 0.45213872E+03</pdfrwt>
<totfact> 0.15446576E+04</totfact>
</mgrwt>
</event>
<event>
 7    0  0.4725730E-002  0.4540201E+03  0.7546771E-02  0.1026530E+00
         21   -1    0    0  502  501  0.00000000000E+00  0.00000000000E+00  0.68204501837E+03  0.68204501837E+03  0.00000000000E+00 0. -1.
         21   -1    0    0  501  502 -0.00000000000E+00 -0.00000000000E+00 -0.75557411026E+02  0.75557411026E+02  0.00000000000E+00 0. -1.
      99926    2    1    2    0    0 -0.14210854715E-13  0.00000000000E+00  0.60648760735E+03  0.75760242940E+03  0.45402006912E+03 0.  0.
      99925    2    3    3    0    0  0.83143001834E+02  0.20693189986E+02  0.26116925935E+03  0.38046421013E+03  0.26306399658E+03 0.  0.
         25    1    4    4    0    0  0.20795949357E+02  0.15498919031E+02  0.76838892065E+02  0.14907854116E+03  0.12509000000E+03 0.  0.
         25    1    4    4    0    0  0.62347052478E+02  0.51942709545E+01  0.18433036728E+03  0.23138566897E+03  0.12509000000E+03 0.  0.
         25    1    3    3    0    0 -0.83143001834E+02 -0.20693189986E+02  0.34531834800E+03  0.37713821927E+03  0.12509000000E+03 0.  0.
<mgrwt>
<rscale>  2 0.45402007E+03</rscale>
<asrwt>0</asrwt>
<pdfrwt beam="1">  1       21 0.10030073E+00 0.45402007E+03</pdfrwt>
<pdfrwt beam="2">  1       21 0.11111384E-01 0.45402007E+03</pdfrwt>
<totfact> 0.50268927E+04</totfact>
</mgrwt>
</event>
<event>
 7    0  0.4725730E-002  0.4556274E+03  0.7546771E-02  0.1026057E+00
         21   -1    0    0  502  501  0.00000000000E+00  0.00000000000E+00  0.20681170719E+03  0.20681170719E+03  0.00000000000E+00 0.  1.
         21   -1    0    0  501  502 -0.00000000000E+00 -0.00000000000E+00 -0.25094851672E+03  0.25094851672E+03  0.00000000000E+00 0.  1.
      99926    2    1    2    0    0  0.00000000000E+00  0.00000000000E+00 -0.44136809533E+02  0.45776022391E+03  0.45562744061E+03 0.  0.
      99925    2    3    3    0    0  0.46959061776E+02 -0.81150565792E+02 -0.91778972642E+02  0.29433485374E+03  0.26347496749E+03 0.  0.
         25    1    4    4    0    0  0.13461907954E+02 -0.54831601151E+02 -0.71790881540E+01  0.13742916305E+03  0.12509000000E+03 0.  0.
         25    1    4    4    0    0  0.33497153822E+02 -0.26318964642E+02 -0.84599884488E+02  0.15690569068E+03  0.12509000000E+03 0.  0.
         25    1    3    3    0    0 -0.46959061776E+02  0.81150565792E+02  0.47642163108E+02  0.16342537018E+03  0.12509000000E+03 0.  0.
<mgrwt>
<rscale>  2 0.45562744E+03</rscale>
<asrwt>0</asrwt>
<pdfrwt beam="1">  1       21 0.30413486E-01 0.45562744E+03</pdfrwt>
<pdfrwt beam="2">  1       21 0.36904194E-01 0.45562744E+03</pdfrwt>
<totfact> 0.68002986E+04</totfact>
</mgrwt>
</event>
<event>
 7    0  0.4725730E-002  0.4556559E+03  0.7546771E-02  0.1026049E+00
         21   -1    0    0  502  501  0.00000000000E+00  0.00000000000E+00  0.93577413829E+03  0.93577413829E+03  0.00000000000E+00 0.  1.
         21   -1    0    0  501  502 -0.00000000000E+00 -0.00000000000E+00 -0.55468056526E+02  0.55468056526E+02  0.00000000000E+00 0.  1.
      99926    2    1    2    0    0  0.00000000000E+00  0.00000000000E+00  0.88030608176E+03  0.99124219481E+03  0.45565589121E+03 0.  0.
      99925    2    3    3    0    0  0.11249502472E+03  0.17111984919E+02  0.55667034694E+03  0.62609079119E+03  0.26298260976E+03 0.  0.
         25    1    4    4    0    0  0.13498822120E+02 -0.16124138628E+01  0.25273309901E+03  0.28232312252E+03  0.12509000000E+03 0.  0.
         25    1    3    3    0    0 -0.11249502472E+03 -0.17111984919E+02  0.32363573482E+03  0.36515140362E+03  0.12509000000E+03 0.  0.
         25    1    4    4    0    0  0.98996202602E+02  0.18724398781E+02  0.30393724794E+03  0.34376766867E+03  0.12509000000E+03 0.  0.
<mgrwt>
<rscale>  2 0.45565589E+03</rscale>
<asrwt>0</asrwt>
<pdfrwt beam="1">  1       21 0.13761383E+00 0.45565589E+03</pdfrwt>
<pdfrwt beam="2">  1       21 0.81570677E-02 0.45565589E+03</pdfrwt>
<totfact> 0.39307372E+04</totfact>
</mgrwt>
</event>
<event>
 7    0  0.4725730E-002  0.4544966E+03  0.7546771E-02  0.1026390E+00
         21   -1    0    0  502  501  0.00000000000E+00  0.00000000000E+00  0.41269245071E+03  0.41269245071E+03  0.00000000000E+00 0.  1.
         21   -1    0    0  501  502 -0.00000000000E+00 -0.00000000000E+00 -0.12513385457E+03  0.12513385457E+03  0.00000000000E+00 0.  1.
      99926    2    1    2    0    0  0.53290705182E-14  0.35527136788E-14  0.28755859615E+03  0.53782630528E+03  0.45449663192E+03 0.  0.
      99925    2    3    3    0    0 -0.10465351629E+02  0.25013535293E+02  0.51596726343E+02  0.26938504050E+03  0.26300356907E+03 0.  0.
         25    1    4    4    0    0 -0.36309088402E+02  0.73357327075E+01 -0.98483935924E-01  0.13045949821E+03  0.12509000000E+03 0.  0.
         25    1    4    4    0    0  0.25843736773E+02  0.17677802585E+02  0.51695210279E+02  0.13892554229E+03  0.12509000000E+03 0.  0.
         25    1    3    3    0    0  0.10465351629E+02 -0.25013535293E+02  0.23596186980E+03  0.26844126477E+03  0.12509000000E+03 0.  0.
<mgrwt>
<rscale>  2 0.45449663E+03</rscale>
<asrwt>0</asrwt>
<pdfrwt beam="1">  1       21 0.60690066E-01 0.45449663E+03</pdfrwt>
<pdfrwt beam="2">  1       21 0.18402038E-01 0.45449663E+03</pdfrwt>
<totfact> 0.62928521E+04</totfact>
</mgrwt>
</event>
<event>
 7    0  0.4725730E-002  0.4583296E+03  0.7546771E-02  0.1025267E+00
         21   -1    0    0  502  501  0.00000000000E+00  0.00000000000E+00  0.60371020611E+02  0.60371020611E+02  0.00000000000E+00 0.  1.
         21   -1    0    0  501  502 -0.00000000000E+00 -0.00000000000E+00 -0.86989605817E+03  0.86989605817E+03  0.00000000000E+00 0.  1.
      99926    2    1    2    0    0  0.00000000000E+00  0.00000000000E+00 -0.80952503756E+03  0.93026707878E+03  0.45832963185E+03 0.  0.
      99925    2    3    3    0    0 -0.94462549778E+02 -0.62063669168E+02 -0.45380875454E+03  0.53662173784E+03  0.26314526688E+03 0.  0.
         25    1    3    3    0    0  0.94462549778E+02  0.62063669168E+02 -0.35571628302E+03  0.39364534094E+03  0.12509000000E+03 0.  0.
         25    1    4    4    0    0 -0.62466314805E+02 -0.18010209173E+02 -0.29709168521E+03  0.32884249366E+03  0.12509000000E+03 0.  0.
         25    1    4    4    0    0 -0.31996234973E+02 -0.44053459995E+02 -0.15671706934E+03  0.20777924418E+03  0.12509000000E+03 0.  0.
<mgrwt>
<rscale>  2 0.45832963E+03</rscale>
<asrwt>0</asrwt>
<pdfrwt beam="1">  1       21 0.88780922E-02 0.45832963E+03</pdfrwt>
<pdfrwt beam="2">  1       21 0.12792588E+00 0.45832963E+03</pdfrwt>
<totfact> 0.40875437E+04</totfact>
</mgrwt>
</event>
<event>
 7    0  0.4725730E-002  0.4583682E+03  0.7546771E-02  0.1025256E+00
         21   -1    0    0  502  501  0.00000000000E+00  0.00000000000E+00  0.20174059241E+03  0.20174059241E+03  0.00000000000E+00 0. -1.
         21   -1    0    0  501  502 -0.00000000000E+00 -0.00000000000E+00 -0.26036083000E+03  0.26036083000E+03  0.00000000000E+00 0. -1.
      99926    2    1    2    0    0  0.00000000000E+00  0.00000000000E+00 -0.58620237586E+02  0.46210142241E+03  0.45836818426E+03 0.  0.
      99925    2    3    3    0    0 -0.10618289189E+03  0.35149128288E+02 -0.69304701735E+02  0.29395882334E+03  0.26286570789E+03 0.  0.
         25    1    4    4    0    0 -0.43397550453E+02  0.56554821829E+02 -0.38937449563E+02  0.14914901386E+03  0.12509000000E+03 0.  0.
         25    1    4    4    0    0 -0.62785341440E+02 -0.21405693541E+02 -0.30367252172E+02  0.14480980948E+03  0.12509000000E+03 0.  0.
         25    1    3    3    0    0  0.10618289189E+03 -0.35149128288E+02  0.10684464149E+02  0.16814259908E+03  0.12509000000E+03 0.  0.
<mgrwt>
<rscale>  2 0.45836818E+03</rscale>
<asrwt>0</asrwt>
<pdfrwt beam="1">  1       21 0.29667734E-01 0.45836818E+03</pdfrwt>
<pdfrwt beam="2">  1       21 0.38288357E-01 0.45836818E+03</pdfrwt>
<totfact> 0.66230701E+04</totfact>
</mgrwt>
</event>
<event>
 7    0  0.4725730E-002  0.4427798E+03  0.7546771E-02  0.1029897E+00
         21   -1    0    0  502  501  0.00000000000E+00  0.00000000000E+00  0.54684682889E+03  0.54684682889E+03  0.00000000000E+00 0. -1.
         21   -1    0    0  501  502 -0.00000000000E+00 -0.00000000000E+00 -0.89629289204E+02  0.89629289204E+02  0.00000000000E+00 0. -1.
      99926    2    1    2    0    0  0.00000000000E+00  0.00000000000E+00  0.45721753968E+03  0.63647611809E+03  0.44277982148E+03 0.  0.
      99925    2    3    3    0    0  0.13628250898E+02  0.93452120827E+02  0.34311153883E+03  0.44260318125E+03  0.26315968510E+03 0.  0.
         25    1    3    3    0    0 -0.13628250898E+02 -0.93452120827E+02  0.11410600085E+03  0.19387293684E+03  0.12509000000E+03 0.  0.
         25    1    4    4    0    0 -0.26234263166E+02  0.70436574239E+02  0.19063519184E+03  0.24008088642E+03  0.12509000000E+03 0.  0.
         25    1    4    4    0    0  0.39862514064E+02  0.23015546588E+02  0.15247634699E+03  0.20252229483E+03  0.12509000000E+03 0.  0.
<mgrwt>
<rscale>  2 0.44277982E+03</rscale>
<asrwt>0</asrwt>
<pdfrwt beam="1">  1       21 0.80418650E-01 0.44277982E+03</pdfrwt>
<pdfrwt beam="2">  1       21 0.13180778E-01 0.44277982E+03</pdfrwt>
<totfact> 0.62279696E+04</totfact>
</mgrwt>
</event>
<event>
 7    0  0.4725730E-002  0.4497306E+03  0.7546771E-02  0.1027802E+00
         21   -1    0    0  502  501  0.00000000000E+00  0.00000000000E+00  0.38670096729E+03  0.38670096729E+03  0.00000000000E+00 0. -1.
         21   -1    0    0  501  502 -0.00000000000E+00 -0.00000000000E+00 -0.13075841719E+03  0.13075841719E+03  0.00000000000E+00 0. -1.
      99926    2    1    2    0    0  0.00000000000E+00  0.00000000000E+00  0.25594255011E+03  0.51745938448E+03  0.44973061452E+03 0.  0.
      99925    2    3    3    0    0 -0.63205691886E+02  0.56624272119E+02  0.23905132897E+03  0.36536043928E+03  0.26294760891E+03 0.  0.
         25    1    3    3    0    0  0.63205691886E+02 -0.56624272119E+02  0.16891221139E+02  0.15209894520E+03  0.12509000000E+03 0.  0.
         25    1    4    4    0    0 -0.19035252936E+02  0.60239376651E+02  0.15148875674E+03  0.20636732995E+03  0.12509000000E+03 0.  0.
         25    1    4    4    0    0 -0.44170438951E+02 -0.36151045314E+01  0.87562572228E+02  0.15899310933E+03  0.12509000000E+03 0.  0.
<mgrwt>
<rscale>  2 0.44973061E+03</rscale>
<asrwt>0</asrwt>
<pdfrwt beam="1">  1       21 0.56867789E-01 0.44973061E+03</pdfrwt>
<pdfrwt beam="2">  1       21 0.19229179E-01 0.44973061E+03</pdfrwt>
<totfact> 0.66810322E+04</totfact>
</mgrwt>
</event>
<event>
 7    0  0.4725730E-002  0.4536721E+03  0.7546771E-02  0.1026633E+00
         21   -1    0    0  502  501  0.00000000000E+00  0.00000000000E+00  0.19350809800E+03  0.19350809800E+03  0.00000000000E+00 0. -1.
         21   -1    0    0  501  502 -0.00000000000E+00 -0.00000000000E+00 -0.26590404051E+03  0.26590404051E+03  0.00000000000E+00 0. -1.
      99926    2    1    2    0    0  0.00000000000E+00  0.00000000000E+00 -0.72395942520E+02  0.45941213851E+03  0.45367206275E+03 0.  0.
      99925    2    3    3    0    0 -0.48436768034E+02  0.64808434567E+02  0.32724888968E+02  0.27708235213E+03  0.26297805577E+03 0.  0.
         25    1    4    4    0    0 -0.14411935979E+02  0.59557097454E+01  0.45786080211E+02  0.13411579929E+03  0.12509000000E+03 0.  0.
         25    1    4    4    0    0 -0.34024832055E+02  0.58852724821E+02 -0.13061191243E+02  0.14296655284E+03  0.12509000000E+03 0.  0.
         25    1    3    3    0    0  0.48436768034E+02 -0.64808434567E+02 -0.10512083149E+03  0.18232978638E+03  0.12509000000E+03 0.  0.
<mgrwt>
<rscale>  2 0.45367206E+03</rscale>
<asrwt>0</asrwt>
<pdfrwt beam="1">  1       21 0.28457073E-01 0.45367206E+03</pdfrwt>
<pdfrwt beam="2">  1       21 0.39103535E-01 0.45367206E+03</pdfrwt>
<totfact> 0.68950675E+04</totfact>
</mgrwt>
</event>
<event>
 7    0  0.4725730E-002  0.4484414E+03  0.7546771E-02  0.1028188E+00
         21   -1    0    0  502  501  0.00000000000E+00  0.00000000000E+00  0.16136227563E+03  0.16136227563E+03  0.00000000000E+00 0. -1.
         21   -1    0    0  501  502 -0.00000000000E+00 -0.00000000000E+00 -0.31156555043E+03  0.31156555043E+03  0.00000000000E+00 0. -1.
      99926    2    1    2    0    0 -0.71054273576E-14  0.88817841970E-15 -0.15020327480E+03  0.47292782606E+03  0.44844141747E+03 0.  0.
      99925    2    3    3    0    0 -0.33497245243E+02  0.19717178404E+01 -0.20220530045E+03  0.33336539601E+03  0.26290597296E+03 0.  0.
         25    1    4    4    0    0 -0.40754888107E+02 -0.87506262651E+01 -0.14253711324E+03  0.19416969670E+03  0.12509000000E+03 0.  0.
         25    1    3    3    0    0  0.33497245243E+02 -0.19717178404E+01  0.52002025647E+02  0.13956243005E+03  0.12509000000E+03 0.  0.
         25    1    4    4    0    0  0.72576428639E+01  0.10722344106E+02 -0.59668187207E+02  0.13919569931E+03  0.12509000000E+03 0.  0.
<mgrwt>
<rscale>  2 0.44844142E+03</rscale>
<asrwt>0</asrwt>
<pdfrwt beam="1">  1       21 0.23729747E-01 0.44844142E+03</pdfrwt>
<pdfrwt beam="2">  1       21 0.45818463E-01 0.44844142E+03</pdfrwt>
<totfact> 0.70834499E+04</totfact>
</mgrwt>
</event>
<event>
 7    0  0.4725730E-002  0.4555798E+03  0.7546771E-02  0.1026071E+00
         21   -1    0    0  502  501  0.00000000000E+00  0.00000000000E+00  0.45119712455E+03  0.45119712455E+03  0.00000000000E+00 0. -1.
         21   -1    0    0  501  502 -0.00000000000E+00 -0.00000000000E+00 -0.11500124188E+03  0.11500124188E+03  0.00000000000E+00 0. -1.
      99926    2    1    2    0    0  0.00000000000E+00  0.00000000000E+00  0.33619588267E+03  0.56619836643E+03  0.45557976099E+03 0.  0.
      99925    2    3    3    0    0  0.45367191096E+02  0.21474238507E+02  0.33828747893E+03  0.43139774395E+03  0.26295678378E+03 0.  0.
         25    1    4    4    0    0 -0.12007707098E+02 -0.11436377801E+02  0.15689379334E+03  0.20134087081E+03  0.12509000000E+03 0.  0.
         25    1    4    4    0    0  0.57374898194E+02  0.32910616308E+02  0.18139368559E+03  0.23005687314E+03  0.12509000000E+03 0.  0.
         25    1    3    3    0    0 -0.45367191096E+02 -0.21474238507E+02 -0.20915962640E+01  0.13480062249E+03  0.12509000000E+03 0.  0.
<mgrwt>
<rscale>  2 0.45557976E+03</rscale>
<asrwt>0</asrwt>
<pdfrwt beam="1">  1       21 0.66352518E-01 0.45557976E+03</pdfrwt>
<pdfrwt beam="2">  1       21 0.16911948E-01 0.45557976E+03</pdfrwt>
<totfact> 0.60530615E+04</totfact>
</mgrwt>
</event>
<event>
 7    0  0.4725730E-002  0.4496497E+03  0.7546771E-02  0.1027827E+00
         21   -1    0    0  502  501  0.00000000000E+00  0.00000000000E+00  0.58247756240E+02  0.58247756240E+02  0.00000000000E+00 0.  1.
         21   -1    0    0  501  502 -0.00000000000E+00 -0.00000000000E+00 -0.86777950839E+03  0.86777950839E+03  0.00000000000E+00 0.  1.
      99926    2    1    2    0    0  0.88817841970E-15  0.00000000000E+00 -0.80953175215E+03  0.92602726463E+03  0.44964968264E+03 0.  0.
      99925    2    3    3    0    0  0.71698381211E+01  0.62716102979E+01 -0.29048390396E+03  0.39203389717E+03  0.26309492279E+03 0.  0.
         25    1    4    4    0    0  0.38392372668E+02 -0.32068711191E+01 -0.17612861159E+03  0.21943804187E+03  0.12509000000E+03 0.  0.
         25    1    4    4    0    0 -0.31222534547E+02  0.94784814171E+01 -0.11435529237E+03  0.17259585530E+03  0.12509000000E+03 0.  0.
         25    1    3    3    0    0 -0.71698381211E+01 -0.62716102979E+01 -0.51904784819E+03  0.53399336746E+03  0.12509000000E+03 0.  0.
<mgrwt>
<rscale>  2 0.44964968E+03</rscale>
<asrwt>0</asrwt>
<pdfrwt beam="1">  1       21 0.85658469E-02 0.44964968E+03</pdfrwt>
<pdfrwt beam="2">  1       21 0.12761463E+00 0.44964968E+03</pdfrwt>
<totfact> 0.43937246E+04</totfact>
</mgrwt>
</event>
<event>
 7    0  0.4725730E-002  0.4564971E+03  0.7546771E-02  0.1025802E+00
         21   -1    0    0  502  501  0.00000000000E+00  0.00000000000E+00  0.42982201410E+03  0.42982201410E+03  0.00000000000E+00 0. -1.
         21   -1    0    0  501  502 -0.00000000000E+00 -0.00000000000E+00 -0.12120690554E+03  0.12120690554E+03  0.00000000000E+00 0. -1.
      99926    2    1    2    0    0  0.00000000000E+00  0.00000000000E+00  0.30861510856E+03  0.55102891964E+03  0.45649708110E+03 0.  0.
      99925    2    3    3    0    0 -0.11300654124E+03 -0.17780924903E+02  0.20220109398E+03  0.35088374669E+03  0.26295908738E+03 0.  0.
         25    1    4    4    0    0 -0.68355983081E+02 -0.31411241191E+02  0.66137664191E+02  0.16025262937E+03  0.12509000000E+03 0.  0.
         25    1    4    4    0    0 -0.44650558164E+02  0.13630316288E+02  0.13606342978E+03  0.19063111732E+03  0.12509000000E+03 0.  0.
         25    1    3    3    0    0  0.11300654124E+03  0.17780924903E+02  0.10641401458E+03  0.20014517295E+03  0.12509000000E+03 0.  0.
<mgrwt>
<rscale>  2 0.45649708E+03</rscale>
<asrwt>0</asrwt>
<pdfrwt beam="1">  1       21 0.63209119E-01 0.45649708E+03</pdfrwt>
<pdfrwt beam="2">  1       21 0.17824545E-01 0.45649708E+03</pdfrwt>
<totfact> 0.61071984E+04</totfact>
</mgrwt>
</event>
<event>
 7    0  0.4725730E-002  0.4503656E+03  0.7546771E-02  0.1027613E+00
         21   -1    0    0  502  501  0.00000000000E+00  0.00000000000E+00  0.13960691231E+04  0.13960691231E+04  0.00000000000E+00 0.  1.
         21   -1    0    0  501  502 -0.00000000000E+00 -0.00000000000E+00 -0.36321469597E+02  0.36321469597E+02  0.00000000000E+00 0.  1.
      99926    2    1    2    0    0 -0.24424906542E-14 -0.22204460493E-15  0.13597476535E+04  0.14323905927E+04  0.45036555024E+03 0.  0.
      99925    2    3    3    0    0 -0.11564380300E+01  0.14184059653E+01  0.51337681308E+03  0.57682384671E+03  0.26299552981E+03 0.  0.
         25    1    4    4    0    0  0.36252883767E+02 -0.27888509467E+01  0.29273385616E+03  0.32041015576E+03  0.12509000000E+03 0.  0.
         25    1    4    4    0    0 -0.37409321797E+02  0.42072569119E+01  0.22064295692E+03  0.25641369095E+03  0.12509000000E+03 0.  0.
         25    1    3    3    0    0  0.11564380300E+01 -0.14184059653E+01  0.84637084040E+03  0.85556674597E+03  0.12509000000E+03 0.  0.
<mgrwt>
<rscale>  2 0.45036555E+03</rscale>
<asrwt>0</asrwt>
<pdfrwt beam="1">  1       21 0.20530425E+00 0.45036555E+03</pdfrwt>
<pdfrwt beam="2">  1       21 0.53413935E-02 0.45036555E+03</pdfrwt>
<totfact> 0.26420190E+04</totfact>
</mgrwt>
</event>
<event>
 7    0  0.4725730E-002  0.4528652E+03  0.7546771E-02  0.1026871E+00
         21   -1    0    0  502  501  0.00000000000E+00  0.00000000000E+00  0.78760752552E+02  0.78760752552E+02  0.00000000000E+00 0.  1.
         21   -1    0    0  501  502 -0.00000000000E+00 -0.00000000000E+00 -0.65098071050E+03  0.65098071050E+03  0.00000000000E+00 0.  1.
      99926    2    1    2    0    0  0.71054273576E-14  0.00000000000E+00 -0.57221995795E+03  0.72974146306E+03  0.45286523671E+03 0.  0.
      99925    2    3    3    0    0  0.62796644116E+02  0.76107497306E+02 -0.27819712108E+03  0.39532748852E+03  0.26297227106E+03 0.  0.
         25    1    4    4    0    0  0.13562627559E-01  0.12058868909E+02 -0.14395337104E+03  0.19109028661E+03  0.12509000000E+03 0.  0.
         25    1    4    4    0    0  0.62783081489E+02  0.64048628397E+02 -0.13424375004E+03  0.20423720191E+03  0.12509000000E+03 0.  0.
         25    1    3    3    0    0 -0.62796644116E+02 -0.76107497306E+02 -0.29402283688E+03  0.33441397453E+03  0.12509000000E+03 0.  0.
<mgrwt>
<rscale>  2 0.45286524E+03</rscale>
<asrwt>0</asrwt>
<pdfrwt beam="1">  1       21 0.11582463E-01 0.45286524E+03</pdfrwt>
<pdfrwt beam="2">  1       21 0.95732462E-01 0.45286524E+03</pdfrwt>
<totfact> 0.52188367E+04</totfact>
</mgrwt>
</event>
<event>
 7    0  0.4725730E-002  0.4426218E+03  0.7546771E-02  0.1029945E+00
         21   -1    0    0  502  501  0.00000000000E+00  0.00000000000E+00  0.13653408339E+04  0.13653408339E+04  0.00000000000E+00 0.  1.
         21   -1    0    0  501  502 -0.00000000000E+00 -0.00000000000E+00 -0.35872730954E+02  0.35872730954E+02  0.00000000000E+00 0.  1.
      99926    2    1    2    0    0 -0.44408920985E-15 -0.35527136788E-14  0.13294681029E+04  0.14012135648E+04  0.44262175453E+03 0.  0.
      99925    2    3    3    0    0 -0.18138754530E+01  0.23823488244E+02  0.11573908518E+04  0.11871366226E+04  0.26299986347E+03 0.  0.
         25    1    4    4    0    0  0.41676003100E+01  0.26728662974E+01  0.75097615254E+03  0.76133908535E+03  0.12509000000E+03 0.  0.
         25    1    4    4    0    0 -0.59814757630E+01  0.21150621946E+02  0.40641469926E+03  0.42579753726E+03  0.12509000000E+03 0.  0.
         25    1    3    3    0    0  0.18138754530E+01 -0.23823488244E+02  0.17207725114E+03  0.21407694223E+03  0.12509000000E+03 0.  0.
<mgrwt>
<rscale>  2 0.44262175E+03</rscale>
<asrwt>0</asrwt>
<pdfrwt beam="1">  1       21 0.20078538E+00 0.44262175E+03</pdfrwt>
<pdfrwt beam="2">  1       21 0.52754025E-02 0.44262175E+03</pdfrwt>
<totfact> 0.28989672E+04</totfact>
</mgrwt>
</event>
<event>
 7    0  0.4725730E-002  0.4694363E+03  0.7546771E-02  0.1022079E+00
         21   -1    0    0  502  501  0.00000000000E+00  0.00000000000E+00  0.37440547042E+02  0.37440547042E+02  0.00000000000E+00 0. -1.
         21   -1    0    0  501  502 -0.00000000000E+00 -0.00000000000E+00 -0.14714693379E+04  0.14714693379E+04  0.00000000000E+00 0. -1.
      99926    2    1    2    0    0  0.00000000000E+00  0.00000000000E+00 -0.14340287908E+04  0.15089098849E+04  0.46943632994E+03 0.  0.
      99925    2    3    3    0    0 -0.94337996041E+02  0.61032251248E+02 -0.10759016478E+04  0.11132747603E+04  0.26304323388E+03 0.  0.
         25    1    4    4    0    0 -0.88779647741E+02  0.27235063379E+02 -0.55260158098E+03  0.57414248226E+03  0.12509000000E+03 0.  0.
         25    1    3    3    0    0  0.94337996041E+02 -0.61032251248E+02 -0.35812714299E+03  0.39563512463E+03  0.12509000000E+03 0.  0.
         25    1    4    4    0    0 -0.55583483001E+01  0.33797187868E+02 -0.52330006686E+03  0.53913227804E+03  0.12509000000E+03 0.  0.
<mgrwt>
<rscale>  2 0.46943633E+03</rscale>
<asrwt>0</asrwt>
<pdfrwt beam="1">  1       21 0.55059634E-02 0.46943633E+03</pdfrwt>
<pdfrwt beam="2">  1       21 0.21639252E+00 0.46943633E+03</pdfrwt>
<totfact> 0.21095261E+04</totfact>
</mgrwt>
</event>
<event>
 7    0  0.4725730E-002  0.4486858E+03  0.7546771E-02  0.1028115E+00
         21   -1    0    0  502  501  0.00000000000E+00  0.00000000000E+00  0.67601360213E+03  0.67601360213E+03  0.00000000000E+00 0. -1.
         21   -1    0    0  501  502 -0.00000000000E+00 -0.00000000000E+00 -0.74450772626E+02  0.74450772626E+02  0.00000000000E+00 0. -1.
      99926    2    1    2    0    0  0.71054273576E-14  0.14210854715E-13  0.60156282950E+03  0.75046437476E+03  0.44868579199E+03 0.  0.
      99925    2    3    3    0    0  0.45744808536E+02  0.93131212697E+02  0.33581183341E+03  0.43895657339E+03  0.26295869558E+03 0.  0.
         25    1    4    4    0    0  0.56665641854E+02  0.72926782776E+02  0.18215541003E+03  0.23949407532E+03  0.12509000000E+03 0.  0.
         25    1    3    3    0    0 -0.45744808536E+02 -0.93131212697E+02  0.26575099610E+03  0.31150780137E+03  0.12509000000E+03 0.  0.
         25    1    4    4    0    0 -0.10920833319E+02  0.20204429921E+02  0.15365642338E+03  0.19946249807E+03  0.12509000000E+03 0.  0.
<mgrwt>
<rscale>  2 0.44868579E+03</rscale>
<asrwt>0</asrwt>
<pdfrwt beam="1">  1       21 0.99413762E-01 0.44868579E+03</pdfrwt>
<pdfrwt beam="2">  1       21 0.10948643E-01 0.44868579E+03</pdfrwt>
<totfact> 0.52820052E+04</totfact>
</mgrwt>
</event>
<event>
 7    0  0.4725730E-002  0.4542701E+03  0.7546771E-02  0.1026456E+00
         21   -1    0    0  502  501  0.00000000000E+00  0.00000000000E+00  0.33911741712E+03  0.33911741712E+03  0.00000000000E+00 0.  1.
         21   -1    0    0  501  502 -0.00000000000E+00 -0.00000000000E+00 -0.15213116445E+03  0.15213116445E+03  0.00000000000E+00 0.  1.
      99926    2    1    2    0    0  0.00000000000E+00  0.00000000000E+00  0.18698625267E+03  0.49124858158E+03  0.45427008510E+03 0.  0.
      99925    2    3    3    0    0  0.66106928647E+02  0.12985909661E+02  0.21518779985E+03  0.34639833053E+03  0.26295865517E+03 0.  0.
         25    1    4    4    0    0 -0.28231272960E+01  0.16765949971E+02  0.12369255279E+03  0.17673828913E+03  0.12509000000E+03 0.  0.
         25    1    3    3    0    0 -0.66106928647E+02 -0.12985909661E+02 -0.28201547178E+02  0.14485025105E+03  0.12509000000E+03 0.  0.
         25    1    4    4    0    0  0.68930055943E+02 -0.37800403100E+01  0.91495247055E+02  0.16966004141E+03  0.12509000000E+03 0.  0.
<mgrwt>
<rscale>  2 0.45427009E+03</rscale>
<asrwt>0</asrwt>
<pdfrwt beam="1">  1       21 0.49870208E-01 0.45427009E+03</pdfrwt>
<pdfrwt beam="2">  1       21 0.22372230E-01 0.45427009E+03</pdfrwt>
<totfact> 0.66273142E+04</totfact>
</mgrwt>
</event>
<event>
 7    0  0.4725730E-002  0.4555698E+03  0.7546771E-02  0.1026074E+00
         21   -1    0    0  502  501  0.00000000000E+00  0.00000000000E+00  0.50012701242E+02  0.50012701242E+02  0.00000000000E+00 0. -1.
         21   -1    0    0  501  502 -0.00000000000E+00 -0.00000000000E+00 -0.10374556465E+04  0.10374556465E+04  0.00000000000E+00 0. -1.
      99926    2    1    2    0    0  0.00000000000E+00  0.00000000000E+00 -0.98744294527E+03  0.10874683478E+04  0.45556979400E+03 0.  0.
      99925    2    3    3    0    0 -0.94809816447E+02  0.54185724457E+02 -0.54615517842E+03  0.61597349593E+03  0.26308339883E+03 0.  0.
         25    1    4    4    0    0 -0.75546961517E+02  0.44654717082E+02 -0.35533897112E+03  0.38680056832E+03  0.12509000000E+03 0.  0.
         25    1    3    3    0    0  0.94809816447E+02 -0.54185724457E+02 -0.44128776685E+03  0.47149485183E+03  0.12509000000E+03 0.  0.
         25    1    4    4    0    0 -0.19262854930E+02  0.95310073753E+01 -0.19081620730E+03  0.22917292761E+03  0.12509000000E+03 0.  0.
<mgrwt>
<rscale>  2 0.45556979E+03</rscale>
<asrwt>0</asrwt>
<pdfrwt beam="1">  1       21 0.73548089E-02 0.45556979E+03</pdfrwt>
<pdfrwt beam="2">  1       21 0.15256701E+00 0.45556979E+03</pdfrwt>
<totfact> 0.35772532E+04</totfact>
</mgrwt>
</event>
<event>
 7    0  0.4725730E-002  0.4597935E+03  0.7546771E-02  0.1024841E+00
         21   -1    0    0  502  501  0.00000000000E+00  0.00000000000E+00  0.13704170066E+04  0.13704170066E+04  0.00000000000E+00 0.  1.
         21   -1    0    0  501  502 -0.00000000000E+00 -0.00000000000E+00 -0.38566740352E+02  0.38566740352E+02  0.00000000000E+00 0.  1.
      99926    2    1    2    0    0  0.00000000000E+00  0.00000000000E+00  0.13318502663E+04  0.14089837470E+04  0.45979350526E+03 0.  0.
      99925    2    3    3    0    0  0.33018632569E+02  0.38883955992E+02  0.50991891574E+03  0.57602465722E+03  0.26303025103E+03 0.  0.
         25    1    4    4    0    0  0.72068404822E+01 -0.18071368365E+02  0.21213655052E+03  0.24703833117E+03  0.12509000000E+03 0.  0.
         25    1    4    4    0    0  0.25811792087E+02  0.56955324357E+02  0.29778236523E+03  0.32898632604E+03  0.12509000000E+03 0.  0.
         25    1    3    3    0    0 -0.33018632569E+02 -0.38883955992E+02  0.82193135054E+03  0.83295908977E+03  0.12509000000E+03 0.  0.
<mgrwt>
<rscale>  2 0.45979351E+03</rscale>
<asrwt>0</asrwt>
<pdfrwt beam="1">  1       21 0.20153188E+00 0.45979351E+03</pdfrwt>
<pdfrwt beam="2">  1       21 0.56715804E-02 0.45979351E+03</pdfrwt>
<totfact> 0.25143869E+04</totfact>
</mgrwt>
</event>
<event>
 7    0  0.4725730E-002  0.4566072E+03  0.7546771E-02  0.1025770E+00
         21   -1    0    0  502  501  0.00000000000E+00  0.00000000000E+00  0.10595650112E+03  0.10595650112E+03  0.00000000000E+00 0. -1.
         21   -1    0    0  501  502 -0.00000000000E+00 -0.00000000000E+00 -0.49192384728E+03  0.49192384728E+03  0.00000000000E+00 0. -1.
      99926    2    1    2    0    0  0.00000000000E+00  0.00000000000E+00 -0.38596734615E+03  0.59788034840E+03  0.45660718206E+03 0.  0.
      99925    2    3    3    0    0 -0.92146327050E+02 -0.68314805485E+02 -0.24268916590E+03  0.37576775696E+03  0.26295535304E+03 0.  0.
         25    1    3    3    0    0  0.92146327050E+02  0.68314805485E+02 -0.14327818026E+03  0.22211259144E+03  0.12509000000E+03 0.  0.
         25    1    4    4    0    0 -0.59886221190E+02 -0.13952117773E+02 -0.16326707802E+03  0.21467339832E+03  0.12509000000E+03 0.  0.
         25    1    4    4    0    0 -0.32260105860E+02 -0.54362687712E+02 -0.79422087874E+02  0.16109435865E+03  0.12509000000E+03 0.  0.
<mgrwt>
<rscale>  2 0.45660718E+03</rscale>
<asrwt>0</asrwt>
<pdfrwt beam="1">  1       21 0.15581838E-01 0.45660718E+03</pdfrwt>
<pdfrwt beam="2">  1       21 0.72341743E-01 0.45660718E+03</pdfrwt>
<totfact> 0.58067963E+04</totfact>
</mgrwt>
</event>
<event>
 7    0  0.4725730E-002  0.4584124E+03  0.7546771E-02  0.1025243E+00
         21   -1    0    0  502  501  0.00000000000E+00  0.00000000000E+00  0.68662996281E+02  0.68662996281E+02  0.00000000000E+00 0.  1.
         21   -1    0    0  501  502 -0.00000000000E+00 -0.00000000000E+00 -0.76512077786E+03  0.76512077786E+03  0.00000000000E+00 0.  1.
      99926    2    1    2    0    0  0.00000000000E+00  0.00000000000E+00 -0.69645778158E+03  0.83378377414E+03  0.45841241312E+03 0.  0.
      99925    2    3    3    0    0  0.33233157092E+02 -0.87386709168E+02 -0.56281580675E+03  0.62823921643E+03  0.26302471569E+03 0.  0.
         25    1    3    3    0    0 -0.33233157092E+02  0.87386709168E+02 -0.13364197483E+03  0.20554455771E+03  0.12509000000E+03 0.  0.
         25    1    4    4    0    0  0.14927769443E+02 -0.79289494652E+01 -0.30854868571E+03  0.33336992380E+03  0.12509000000E+03 0.  0.
         25    1    4    4    0    0  0.18305387649E+02 -0.79457759703E+02 -0.25426712104E+03  0.29486929263E+03  0.12509000000E+03 0.  0.
<mgrwt>
<rscale>  2 0.45841241E+03</rscale>
<asrwt>0</asrwt>
<pdfrwt beam="1">  1       21 0.10097499E-01 0.45841241E+03</pdfrwt>
<pdfrwt beam="2">  1       21 0.11251777E+00 0.45841241E+03</pdfrwt>
<totfact> 0.44957914E+04</totfact>
</mgrwt>
</event>
<event>
 7    0  0.4725730E-002  0.4517175E+03  0.7546771E-02  0.1027211E+00
         21   -1    0    0  502  501  0.00000000000E+00  0.00000000000E+00  0.29899241294E+02  0.29899241294E+02  0.00000000000E+00 0. -1.
         21   -1    0    0  501  502 -0.00000000000E+00 -0.00000000000E+00 -0.17061357709E+04  0.17061357709E+04  0.00000000000E+00 0. -1.
      99926    2    1    2    0    0  0.00000000000E+00  0.00000000000E+00 -0.16762365296E+04  0.17360350122E+04  0.45171745636E+03 0.  0.
      99925    2    3    3    0    0 -0.70934818992E+02 -0.63619630454E+02 -0.12704755204E+04  0.13008698589E+04  0.26282149079E+03 0.  0.
         25    1    4    4    0    0 -0.25546538146E+02 -0.37336895521E+01 -0.72751491028E+03  0.73864200993E+03  0.12509000000E+03 0.  0.
         25    1    3    3    0    0  0.70934818992E+02  0.63619630454E+02 -0.40576100927E+03  0.43516515333E+03  0.12509000000E+03 0.  0.
         25    1    4    4    0    0 -0.45388280846E+02 -0.59885940902E+02 -0.54296061009E+03  0.56222784897E+03  0.12509000000E+03 0.  0.
<mgrwt>
<rscale>  2 0.45171746E+03</rscale>
<asrwt>0</asrwt>
<pdfrwt beam="1">  1       21 0.43969458E-02 0.45171746E+03</pdfrwt>
<pdfrwt beam="2">  1       21 0.25090240E+00 0.45171746E+03</pdfrwt>
<totfact> 0.19001174E+04</totfact>
</mgrwt>
</event>
<event>
 7    0  0.4725730E-002  0.4552743E+03  0.7546771E-02  0.1026161E+00
         21   -1    0    0  502  501  0.00000000000E+00  0.00000000000E+00  0.30502242852E+03  0.30502242852E+03  0.00000000000E+00 0.  1.
         21   -1    0    0  501  502 -0.00000000000E+00 -0.00000000000E+00 -0.16988482963E+03  0.16988482963E+03  0.00000000000E+00 0.  1.
      99926    2    1    2    0    0  0.00000000000E+00 -0.71054273576E-14  0.13513759889E+03  0.47490725816E+03  0.45527434939E+03 0.  0.
      99925    2    3    3    0    0  0.80937246447E+02 -0.47545886819E+02  0.15149696029E+03  0.31766036305E+03  0.26295499246E+03 0.  0.
         25    1    4    4    0    0  0.40715659957E+02 -0.78592875508E+01  0.11677210003E+03  0.17607601998E+03  0.12509000000E+03 0.  0.
         25    1    3    3    0    0 -0.80937246447E+02  0.47545886819E+02 -0.16359361404E+02  0.15724689511E+03  0.12509000000E+03 0.  0.
         25    1    4    4    0    0  0.40221586490E+02 -0.39686599268E+02  0.34724860259E+02  0.14158434307E+03  0.12509000000E+03 0.  0.
<mgrwt>
<rscale>  2 0.45527435E+03</rscale>
<asrwt>0</asrwt>
<pdfrwt beam="1">  1       21 0.44856240E-01 0.45527435E+03</pdfrwt>
<pdfrwt beam="2">  1       21 0.24983063E-01 0.45527435E+03</pdfrwt>
<totfact> 0.66926903E+04</totfact>
</mgrwt>
</event>
<event>
 7    0  0.4725730E-002  0.4455413E+03  0.7546771E-02  0.1029060E+00
         21   -1    0    0  502  501  0.00000000000E+00  0.00000000000E+00  0.36290329629E+03  0.36290329629E+03  0.00000000000E+00 0.  1.
         21   -1    0    0  501  502 -0.00000000000E+00 -0.00000000000E+00 -0.13674930349E+03  0.13674930349E+03  0.00000000000E+00 0.  1.
      99926    2    1    2    0    0 -0.71054273576E-14  0.00000000000E+00  0.22615399279E+03  0.49965259978E+03  0.44554134714E+03 0.  0.
      99925    2    3    3    0    0 -0.56619651559E+02 -0.71838259981E+02  0.87898294521E+02  0.29197817491E+03  0.26298027285E+03 0.  0.
         25    1    3    3    0    0  0.56619651559E+02  0.71838259981E+02  0.13825569827E+03  0.20767442487E+03  0.12509000000E+03 0.  0.
         25    1    4    4    0    0 -0.34758850447E+02 -0.16098826183E+02  0.79409005459E+02  0.15303806107E+03  0.12509000000E+03 0.  0.
         25    1    4    4    0    0 -0.21860801112E+02 -0.55739433798E+02  0.84892890619E+01  0.13894011384E+03  0.12509000000E+03 0.  0.
<mgrwt>
<rscale>  2 0.44554135E+03</rscale>
<asrwt>0</asrwt>
<pdfrwt beam="1">  1       21 0.53368132E-01 0.44554135E+03</pdfrwt>
<pdfrwt beam="2">  1       21 0.20110192E-01 0.44554135E+03</pdfrwt>
<totfact> 0.70436444E+04</totfact>
</mgrwt>
</event>
<event>
 7    0  0.4725730E-002  0.4346405E+03  0.7546771E-02  0.1032404E+00
         21   -1    0    0  502  501  0.00000000000E+00  0.00000000000E+00  0.95033345274E+03  0.95033345274E+03  0.00000000000E+00 0. -1.
         21   -1    0    0  501  502 -0.00000000000E+00 -0.00000000000E+00 -0.49696327310E+02  0.49696327310E+02  0.00000000000E+00 0. -1.
      99926    2    1    2    0    0  0.00000000000E+00  0.00000000000E+00  0.90063712543E+03  0.10000297800E+04  0.43464045979E+03 0.  0.
      99925    2    3    3    0    0 -0.53878573445E+02 -0.87269414293E+01  0.40504145515E+03  0.48598538831E+03  0.26295276586E+03 0.  0.
         25    1    4    4    0    0  0.84732103111E+00 -0.18096146252E+02  0.14676654936E+03  0.19369077565E+03  0.12509000000E+03 0.  0.
         25    1    4    4    0    0 -0.54725894476E+02  0.93692048231E+01  0.25827490580E+03  0.29229461266E+03  0.12509000000E+03 0.  0.
         25    1    3    3    0    0  0.53878573445E+02  0.87269414293E+01  0.49559567027E+03  0.51404439174E+03  0.12509000000E+03 0.  0.
<mgrwt>
<rscale>  2 0.43464046E+03</rscale>
<asrwt>0</asrwt>
<pdfrwt beam="1">  1       21 0.13975491E+00 0.43464046E+03</pdfrwt>
<pdfrwt beam="2">  1       21 0.73082840E-02 0.43464046E+03</pdfrwt>
<totfact> 0.46065756E+04</totfact>
</mgrwt>
</event>
<event>
 7    0  0.4725730E-002  0.4539129E+03  0.7546771E-02  0.1026562E+00
         21   -1    0    0  502  501  0.00000000000E+00  0.00000000000E+00  0.22913742356E+02  0.22913742356E+02  0.00000000000E+00 0.  1.
         21   -1    0    0  501  502 -0.00000000000E+00 -0.00000000000E+00 -0.22479626493E+04  0.22479626493E+04  0.00000000000E+00 0.  1.
      99926    2    1    2    0    0  0.00000000000E+00 -0.17763568394E-14 -0.22250489069E+04  0.22708763916E+04  0.45391292985E+03 0.  0.
      99925    2    3    3    0    0 -0.10762557300E+03 -0.90641078084E+01 -0.15582700279E+04  0.15839215142E+04  0.26255753902E+03 0.  0.
         25    1    4    4    0    0 -0.67334449323E+02 -0.19417758674E+02 -0.61552500381E+03  0.63200436378E+03  0.12509000000E+03 0.  0.
         25    1    4    4    0    0 -0.40291123675E+02  0.10353650866E+02 -0.94274502407E+03  0.95191715041E+03  0.12509000000E+03 0.  0.
         25    1    3    3    0    0  0.10762557300E+03  0.90641078084E+01 -0.66677887903E+03  0.68695487744E+03  0.12509000000E+03 0.  0.
<mgrwt>
<rscale>  2 0.45391293E+03</rscale>
<asrwt>0</asrwt>
<pdfrwt beam="1">  1       21 0.33696665E-02 0.45391293E+03</pdfrwt>
<pdfrwt beam="2">  1       21 0.33058289E+00 0.45391293E+03</pdfrwt>
<totfact> 0.98527815E+03</totfact>
</mgrwt>
</event>
<event>
 7    0  0.4725730E-002  0.4547533E+03  0.7546771E-02  0.1026314E+00
         21   -1    0    0  502  501  0.00000000000E+00  0.00000000000E+00  0.62592396351E+02  0.62592396351E+02  0.00000000000E+00 0. -1.
         21   -1    0    0  501  502 -0.00000000000E+00 -0.00000000000E+00 -0.82598104657E+03  0.82598104657E+03  0.00000000000E+00 0. -1.
      99926    2    1    2    0    0  0.35527136788E-14  0.00000000000E+00 -0.76338865021E+03  0.88857344292E+03  0.45475326517E+03 0.  0.
      99925    2    3    3    0    0  0.17627475490E+02 -0.10455864811E+03 -0.55565268788E+03  0.62391332704E+03  0.26320085738E+03 0.  0.
         25    1    4    4    0    0  0.35029119096E+02 -0.50821091252E+02 -0.21102639540E+03  0.25296140052E+03  0.12509000000E+03 0.  0.
         25    1    3    3    0    0 -0.17627475490E+02  0.10455864811E+03 -0.20773596234E+03  0.26466011588E+03  0.12509000000E+03 0.  0.
         25    1    4    4    0    0 -0.17401643606E+02 -0.53737556863E+02 -0.34462629248E+03  0.37095192651E+03  0.12509000000E+03 0.  0.
<mgrwt>
<rscale>  2 0.45475327E+03</rscale>
<asrwt>0</asrwt>
<pdfrwt beam="1">  1       21 0.92047640E-02 0.45475327E+03</pdfrwt>
<pdfrwt beam="2">  1       21 0.12146780E+00 0.45475327E+03</pdfrwt>
<totfact> 0.43816023E+04</totfact>
</mgrwt>
</event>
<event>
 7    0  0.4725730E-002  0.4343430E+03  0.7546771E-02  0.1032497E+00
         21   -1    0    0  502  501  0.00000000000E+00  0.00000000000E+00  0.42291302128E+03  0.42291302128E+03  0.00000000000E+00 0. -1.
         21   -1    0    0  501  502 -0.00000000000E+00 -0.00000000000E+00 -0.11152046477E+03  0.11152046477E+03  0.00000000000E+00 0. -1.
      99926    2    1    2    0    0 -0.44408920985E-15  0.00000000000E+00  0.31139255651E+03  0.53443348605E+03  0.43434298286E+03 0.  0.
      99925    2    3    3    0    0 -0.23313151348E+01 -0.79698988131E+02  0.25744910583E+03  0.37658936132E+03  0.26302498214E+03 0.  0.
         25    1    4    4    0    0  0.11620664964E+02  0.74949522301E-01  0.12491547516E+03  0.17716215596E+03  0.12509000000E+03 0.  0.
         25    1    3    3    0    0  0.23313151348E+01  0.79698988131E+02  0.53943450680E+02  0.15784412473E+03  0.12509000000E+03 0.  0.
         25    1    4    4    0    0 -0.13951980099E+02 -0.79773937653E+02  0.13253363067E+03  0.19942720536E+03  0.12509000000E+03 0.  0.
<mgrwt>
<rscale>  2 0.43434298E+03</rscale>
<asrwt>0</asrwt>
<pdfrwt beam="1">  1       21 0.62193091E-01 0.43434298E+03</pdfrwt>
<pdfrwt beam="2">  1       21 0.16400069E-01 0.43434298E+03</pdfrwt>
<totfact> 0.74335480E+04</totfact>
</mgrwt>
</event>
<event>
 6    0  0.4725730E-002  0.4419958E+03  0.7546771E-02  0.1030136E+00
         21   -1    0    0  502  501  0.00000000000E+00  0.00000000000E+00  0.27607832242E+03  0.27607832242E+03  0.00000000000E+00 0. -1.
         21   -1    0    0  501  502 -0.00000000000E+00 -0.00000000000E+00 -0.17690657956E+03  0.17690657956E+03  0.00000000000E+00 0. -1.
      99926    2    1    2    0    0  0.26645352591E-14  0.17763568394E-14  0.99171742859E+02  0.45298490198E+03  0.44199579957E+03 0.  0.
         25    1    3    3    0    0 -0.70975699988E+01 -0.53736606053E+01  0.13648427259E+03  0.18535025355E+03  0.12509000000E+03 0.  0.
         25    1    3    3    0    0  0.19388734366E+02  0.34198401931E+02  0.69197136687E+01  0.13130439540E+03  0.12509000000E+03 0.  0.
         25    1    3    3    0    0 -0.12291164367E+02 -0.28824741326E+02 -0.44232243398E+02  0.13633025303E+03  0.12509000000E+03 0.  0.
<mgrwt>
<rscale>  2 0.44199580E+03</rscale>
<asrwt>0</asrwt>
<pdfrwt beam="1">  1       21 0.40599754E-01 0.44199580E+03</pdfrwt>
<pdfrwt beam="2">  1       21 0.26015673E-01 0.44199580E+03</pdfrwt>
<totfact> 0.76293553E+04</totfact>
</mgrwt>
</event>
<event>
 7    0  0.4725730E-002  0.4597313E+03  0.7546771E-02  0.1024859E+00
         21   -1    0    0  502  501  0.00000000000E+00  0.00000000000E+00  0.86168187542E+02  0.86168187542E+02  0.00000000000E+00 0.  1.
         21   -1    0    0  501  502 -0.00000000000E+00 -0.00000000000E+00 -0.61319875335E+03  0.61319875335E+03  0.00000000000E+00 0.  1.
      99926    2    1    2    0    0  0.00000000000E+00  0.00000000000E+00 -0.52703056581E+03  0.69936694089E+03  0.45973133537E+03 0.  0.
      99925    2    3    3    0    0  0.76374829031E+02  0.42292543118E+02 -0.44978070930E+03  0.52837915729E+03  0.26317308692E+03 0.  0.
         25    1    4    4    0    0  0.62574011253E+02 -0.11107806145E+02 -0.23919371005E+03  0.27730854525E+03  0.12509000000E+03 0.  0.
         25    1    3    3    0    0 -0.76374829031E+02 -0.42292543118E+02 -0.77249856505E+02  0.17098778361E+03  0.12509000000E+03 0.  0.
         25    1    4    4    0    0  0.13800817778E+02  0.53400349263E+02 -0.21058699925E+03  0.25107061204E+03  0.12509000000E+03 0.  0.
<mgrwt>
<rscale>  2 0.45973134E+03</rscale>
<asrwt>0</asrwt>
<pdfrwt beam="1">  1       21 0.12671792E-01 0.45973134E+03</pdfrwt>
<pdfrwt beam="2">  1       21 0.90176287E-01 0.45973134E+03</pdfrwt>
<totfact> 0.51011194E+04</totfact>
</mgrwt>
</event>
<event>
 6    0  0.4725730E-002  0.4547921E+03  0.7546771E-02  0.1026303E+00
         21   -1    0    0  502  501  0.00000000000E+00  0.00000000000E+00  0.59174726127E+03  0.59174726127E+03  0.00000000000E+00 0.  1.
         21   -1    0    0  501  502 -0.00000000000E+00 -0.00000000000E+00 -0.87383529027E+02  0.87383529027E+02  0.00000000000E+00 0.  1.
      99926    2    1    2    0    0  0.71054273576E-14  0.00000000000E+00  0.50436373225E+03  0.67913079030E+03  0.45479210188E+03 0.  0.
         25    1    3    3    0    0  0.37983317037E+02 -0.76492514118E+02  0.27715174894E+03  0.31583925837E+03  0.12509000000E+03 0.  0.
         25    1    3    3    0    0 -0.50886704068E+02  0.54337227430E+02  0.16873616967E+03  0.22284836546E+03  0.12509000000E+03 0.  0.
         25    1    3    3    0    0  0.12903387031E+02  0.22155286688E+02  0.58475813635E+02  0.14044316646E+03  0.12509000000E+03 0.  0.
<mgrwt>
<rscale>  2 0.45479210E+03</rscale>
<asrwt>0</asrwt>
<pdfrwt beam="1">  1       21 0.87021654E-01 0.45479210E+03</pdfrwt>
<pdfrwt beam="2">  1       21 0.12850519E-01 0.45479210E+03</pdfrwt>
<totfact> 0.54139773E+04</totfact>
</mgrwt>
</event>
<event>
 7    0  0.4725730E-002  0.4889775E+03  0.7546771E-02  0.1016697E+00
         21   -1    0    0  502  501  0.00000000000E+00  0.00000000000E+00  0.57884937611E+03  0.57884937611E+03  0.00000000000E+00 0.  1.
         21   -1    0    0  501  502 -0.00000000000E+00 -0.00000000000E+00 -0.10326475728E+03  0.10326475728E+03  0.00000000000E+00 0.  1.
      99926    2    1    2    0    0  0.14210854715E-13 -0.35527136788E-14  0.47558461883E+03  0.68211413339E+03  0.48897746503E+03 0.  0.
      99925    2    3    3    0    0  0.12782228721E+03  0.16543718108E+02  0.37589097588E+03  0.47669124698E+03  0.26330265377E+03 0.  0.
         25    1    4    4    0    0  0.58737462845E+02  0.48666579068E+02  0.19627749574E+03  0.24493037560E+03  0.12509000000E+03 0.  0.
         25    1    4    4    0    0  0.69084824366E+02 -0.32122860959E+02  0.17961348015E+03  0.23176087138E+03  0.12509000000E+03 0.  0.
         25    1    3    3    0    0 -0.12782228721E+03 -0.16543718108E+02  0.99693642943E+02  0.20542288641E+03  0.12509000000E+03 0.  0.
<mgrwt>
<rscale>  2 0.48897747E+03</rscale>
<asrwt>0</asrwt>
<pdfrwt beam="1">  1       21 0.85124907E-01 0.48897747E+03</pdfrwt>
<pdfrwt beam="2">  1       21 0.15185994E-01 0.48897747E+03</pdfrwt>
<totfact> 0.41579544E+04</totfact>
</mgrwt>
</event>
<event>
 7    0  0.4725730E-002  0.4672563E+03  0.7546771E-02  0.1022697E+00
         21   -1    0    0  502  501  0.00000000000E+00  0.00000000000E+00  0.10333381482E+04  0.10333381482E+04  0.00000000000E+00 0. -1.
         21   -1    0    0  501  502 -0.00000000000E+00 -0.00000000000E+00 -0.52821161830E+02  0.52821161830E+02  0.00000000000E+00 0. -1.
      99926    2    1    2    0    0 -0.14210854715E-13  0.00000000000E+00  0.98051698639E+03  0.10861593100E+04  0.46725633886E+03 0.  0.
      99925    2    3    3    0    0  0.83442383770E+02 -0.38299776309E+02  0.41775139320E+03  0.50239383894E+03  0.26354096193E+03 0.  0.
         25    1    4    4    0    0  0.66819551391E+01 -0.39389153295E+02  0.21848713742E+03  0.25491232069E+03  0.12509000000E+03 0.  0.
         25    1    3    3    0    0 -0.83442383770E+02  0.38299776309E+02  0.56276559319E+03  0.58376547110E+03  0.12509000000E+03 0.  0.
         25    1    4    4    0    0  0.76760428631E+02  0.10893769865E+01  0.19926425578E+03  0.24748151825E+03  0.12509000000E+03 0.  0.
<mgrwt>
<rscale>  2 0.46725634E+03</rscale>
<asrwt>0</asrwt>
<pdfrwt beam="1">  1       21 0.15196148E+00 0.46725634E+03</pdfrwt>
<pdfrwt beam="2">  1       21 0.77678186E-02 0.46725634E+03</pdfrwt>
<totfact> 0.32733756E+04</totfact>
</mgrwt>
</event>
<event>
 7    0  0.4725730E-002  0.4693216E+03  0.7546771E-02  0.1022112E+00
         21   -1    0    0  502  501  0.00000000000E+00  0.00000000000E+00  0.14212234783E+03  0.14212234783E+03  0.00000000000E+00 0.  1.
         21   -1    0    0  501  502 -0.00000000000E+00 -0.00000000000E+00 -0.38745276848E+03  0.38745276848E+03  0.00000000000E+00 0.  1.
      99926    2    1    2    0    0  0.17763568394E-14  0.00000000000E+00 -0.24533042065E+03  0.52957511631E+03  0.46932162588E+03 0.  0.
      99925    2    3    3    0    0  0.52962747733E+01  0.12589024111E+03 -0.15893815204E+03  0.33212250046E+03  0.26299736843E+03 0.  0.
         25    1    3    3    0    0 -0.52962747733E+01 -0.12589024111E+03 -0.86392268609E+02  0.19745261585E+03  0.12509000000E+03 0.  0.
         25    1    4    4    0    0  0.23947541544E+02  0.65573001204E+02 -0.41074858750E+02  0.14902333829E+03  0.12509000000E+03 0.  0.
         25    1    4    4    0    0 -0.18651266771E+02  0.60317239903E+02 -0.11786329329E+03  0.18309916217E+03  0.12509000000E+03 0.  0.
<mgrwt>
<rscale>  2 0.46932163E+03</rscale>
<asrwt>0</asrwt>
<pdfrwt beam="1">  1       21 0.20900346E-01 0.46932163E+03</pdfrwt>
<pdfrwt beam="2">  1       21 0.56978347E-01 0.46932163E+03</pdfrwt>
<totfact> 0.56537308E+04</totfact>
</mgrwt>
</event>
<event>
 7    0  0.4725730E-002  0.4519135E+03  0.7546771E-02  0.1027153E+00
         21   -1    0    0  502  501  0.00000000000E+00  0.00000000000E+00  0.23516974466E+03  0.23516974466E+03  0.00000000000E+00 0. -1.
         21   -1    0    0  501  502 -0.00000000000E+00 -0.00000000000E+00 -0.21710472013E+03  0.21710472013E+03  0.00000000000E+00 0. -1.
      99926    2    1    2    0    0  0.00000000000E+00  0.00000000000E+00  0.18065024534E+02  0.45227446479E+03  0.45191353862E+03 0.  0.
      99925    2    3    3    0    0 -0.46235600961E+02 -0.17651992741E+02 -0.87210408270E+02  0.28145365664E+03  0.26298513624E+03 0.  0.
         25    1    3    3    0    0  0.46235600961E+02  0.17651992741E+02  0.10527543280E+03  0.17082080815E+03  0.12509000000E+03 0.  0.
         25    1    4    4    0    0 -0.55272566125E+02  0.13329887736E+02 -0.57147974908E+02  0.14881579758E+03  0.12509000000E+03 0.  0.
         25    1    4    4    0    0  0.90369651644E+01 -0.30981880477E+02 -0.30062433361E+02  0.13263785906E+03  0.12509000000E+03 0.  0.
<mgrwt>
<rscale>  2 0.45191354E+03</rscale>
<asrwt>0</asrwt>
<pdfrwt beam="1">  1       21 0.34583786E-01 0.45191354E+03</pdfrwt>
<pdfrwt beam="2">  1       21 0.31927165E-01 0.45191354E+03</pdfrwt>
<totfact> 0.70465340E+04</totfact>
</mgrwt>
</event>
<event>
 7    0  0.4725730E-002  0.4570948E+03  0.7546771E-02  0.1025627E+00
         21   -1    0    0  502  501  0.00000000000E+00  0.00000000000E+00  0.24109044723E+03  0.24109044723E+03  0.00000000000E+00 0. -1.
         21   -1    0    0  501  502 -0.00000000000E+00 -0.00000000000E+00 -0.21665694423E+03  0.21665694423E+03  0.00000000000E+00 0. -1.
      99926    2    1    2    0    0 -0.71054273576E-14  0.00000000000E+00  0.24433503006E+02  0.45774739146E+03  0.45709482421E+03 0.  0.
      99925    2    3    3    0    0  0.55472657019E+02 -0.79772461023E+02 -0.46419574134E+02  0.28422930061E+03  0.26304117025E+03 0.  0.
         25    1    4    4    0    0  0.15027436835E+01 -0.57739329830E+02  0.25157705315E+01  0.13780393916E+03  0.12509000000E+03 0.  0.
         25    1    3    3    0    0 -0.55472657019E+02  0.79772461023E+02  0.70853077140E+02  0.17351809086E+03  0.12509000000E+03 0.  0.
         25    1    4    4    0    0  0.53969913335E+02 -0.22033131193E+02 -0.48935344666E+02  0.14642536144E+03  0.12509000000E+03 0.  0.
<mgrwt>
<rscale>  2 0.45709482E+03</rscale>
<asrwt>0</asrwt>
<pdfrwt beam="1">  1       21 0.35454478E-01 0.45709482E+03</pdfrwt>
<pdfrwt beam="2">  1       21 0.31861315E-01 0.45709482E+03</pdfrwt>
<totfact> 0.67214531E+04</totfact>
</mgrwt>
</event>
<event>
 7    0  0.4725730E-002  0.4687342E+03  0.7546771E-02  0.1022278E+00
         21   -1    0    0  502  501  0.00000000000E+00  0.00000000000E+00  0.45505364898E+03  0.45505364898E+03  0.00000000000E+00 0.  1.
         21   -1    0    0  501  502 -0.00000000000E+00 -0.00000000000E+00 -0.12070653047E+03  0.12070653047E+03  0.00000000000E+00 0.  1.
      99926    2    1    2    0    0  0.17763568394E-14  0.00000000000E+00  0.33434711851E+03  0.57576017945E+03  0.46873424089E+03 0.  0.
      99925    2    3    3    0    0 -0.14849663305E+02 -0.99316877412E+02  0.30053753229E+03  0.41182436622E+03  0.26304399947E+03 0.  0.
         25    1    4    4    0    0 -0.13407852548E+02 -0.22846209557E+02  0.18628493065E+03  0.22594535465E+03  0.12509000000E+03 0.  0.
         25    1    3    3    0    0  0.14849663305E+02  0.99316877412E+02  0.33809586216E+02  0.16393581323E+03  0.12509000000E+03 0.  0.
         25    1    4    4    0    0 -0.14418107565E+01 -0.76470667855E+02  0.11425260164E+03  0.18587901157E+03  0.12509000000E+03 0.  0.
<mgrwt>
<rscale>  2 0.46873424E+03</rscale>
<asrwt>0</asrwt>
<pdfrwt beam="1">  1       21 0.66919653E-01 0.46873424E+03</pdfrwt>
<pdfrwt beam="2">  1       21 0.17750961E-01 0.46873424E+03</pdfrwt>
<totfact> 0.54079186E+04</totfact>
</mgrwt>
</event>
<event>
 7    0  0.4725730E-002  0.4563590E+03  0.7546771E-02  0.1025843E+00
         21   -1    0    0  502  501  0.00000000000E+00  0.00000000000E+00  0.80844789428E+03  0.80844789428E+03  0.00000000000E+00 0. -1.
         21   -1    0    0  501  502 -0.00000000000E+00 -0.00000000000E+00 -0.64402285487E+02  0.64402285487E+02  0.00000000000E+00 0. -1.
      99926    2    1    2    0    0  0.00000000000E+00  0.00000000000E+00  0.74404560879E+03  0.87285017977E+03  0.45635903448E+03 0.  0.
      99925    2    3    3    0    0  0.95477540619E+02 -0.58855719218E+02  0.43839202030E+03  0.52406431321E+03  0.26434047075E+03 0.  0.
         25    1    4    4    0    0  0.68703140085E+02 -0.54021328609E+02  0.18213545831E+03  0.23761157101E+03  0.12509000000E+03 0.  0.
         25    1    4    4    0    0  0.26774400534E+02 -0.48343906090E+01  0.25625656198E+03  0.28645274220E+03  0.12509000000E+03 0.  0.
         25    1    3    3    0    0 -0.95477540619E+02  0.58855719218E+02  0.30565358849E+03  0.34878586655E+03  0.12509000000E+03 0.  0.
<mgrwt>
<rscale>  2 0.45635903E+03</rscale>
<asrwt>0</asrwt>
<pdfrwt beam="1">  1       21 0.11888939E+00 0.45635903E+03</pdfrwt>
<pdfrwt beam="2">  1       21 0.94709248E-02 0.45635903E+03</pdfrwt>
<totfact> 0.43958580E+04</totfact>
</mgrwt>
</event>
<event>
 7    0  0.4725730E-002  0.4965507E+03  0.7546771E-02  0.1014683E+00
         21   -1    0    0  502  501  0.00000000000E+00  0.00000000000E+00  0.53462123443E+02  0.53462123443E+02  0.00000000000E+00 0.  1.
         21   -1    0    0  501  502 -0.00000000000E+00 -0.00000000000E+00 -0.11529779591E+04  0.11529779591E+04  0.00000000000E+00 0.  1.
      99926    2    1    2    0    0  0.00000000000E+00  0.00000000000E+00 -0.10995158356E+04  0.12064400825E+04  0.49655070225E+03 0.  0.
      99925    2    3    3    0    0  0.37802922133E+02 -0.91861826855E+01 -0.10180404814E+04  0.10521702270E+04  0.26294926877E+03 0.  0.
         25    1    4    4    0    0 -0.15236028610E+02  0.82378631425E+01 -0.56130067871E+03  0.57533117331E+03  0.12509000000E+03 0.  0.
         25    1    3    3    0    0 -0.37802922133E+02  0.91861826855E+01 -0.81475354235E+02  0.15426985552E+03  0.12509000000E+03 0.  0.
         25    1    4    4    0    0  0.53038950744E+02 -0.17424045828E+02 -0.45673980270E+03  0.47683905371E+03  0.12509000000E+03 0.  0.
<mgrwt>
<rscale>  2 0.49655070E+03</rscale>
<asrwt>0</asrwt>
<pdfrwt beam="1">  1       21 0.78620765E-02 0.49655070E+03</pdfrwt>
<pdfrwt beam="2">  1       21 0.16955559E+00 0.49655070E+03</pdfrwt>
<totfact> 0.23407935E+04</totfact>
</mgrwt>
</event>
<event>
 6    0  0.4725730E-002  0.4583107E+03  0.7546771E-02  0.1025272E+00
         21   -1    0    0  502  501  0.00000000000E+00  0.00000000000E+00  0.35848775383E+02  0.35848775383E+02  0.00000000000E+00 0.  1.
         21   -1    0    0  501  502 -0.00000000000E+00 -0.00000000000E+00 -0.14648247734E+04  0.14648247734E+04  0.00000000000E+00 0.  1.
      99926    2    1    2    0    0 -0.35527136788E-14  0.00000000000E+00 -0.14289759981E+04  0.15006735488E+04  0.45831069932E+03 0.  0.
         25    1    3    3    0    0 -0.94044332840E+01 -0.33436725631E+01 -0.27830701697E+03  0.30528990698E+03  0.12509000000E+03 0.  0.
         25    1    3    3    0    0  0.32399065229E+02 -0.89202944451E+02 -0.43058895139E+03  0.45832435882E+03  0.12509000000E+03 0.  0.
         25    1    3    3    0    0 -0.22994631945E+02  0.92546617014E+02 -0.72008002970E+03  0.73705928303E+03  0.12509000000E+03 0.  0.
<mgrwt>
<rscale>  2 0.45831070E+03</rscale>
<asrwt>0</asrwt>
<pdfrwt beam="1">  1       21 0.52718797E-02 0.45831070E+03</pdfrwt>
<pdfrwt beam="2">  1       21 0.21541537E+00 0.45831070E+03</pdfrwt>
<totfact> 0.23161279E+04</totfact>
</mgrwt>
</event>
<event>
 7    0  0.4725730E-002  0.4652033E+03  0.7546771E-02  0.1023283E+00
         21   -1    0    0  502  501  0.00000000000E+00  0.00000000000E+00  0.78516084410E+02  0.78516084410E+02  0.00000000000E+00 0. -1.
         21   -1    0    0  501  502 -0.00000000000E+00 -0.00000000000E+00 -0.68907576538E+03  0.68907576538E+03  0.00000000000E+00 0. -1.
      99926    2    1    2    0    0  0.71054273576E-14  0.00000000000E+00 -0.61055968097E+03  0.76759184979E+03  0.46520331452E+03 0.  0.
      99925    2    3    3    0    0 -0.56182765414E+02 -0.62252955634E+02 -0.52789426108E+03  0.59579833023E+03  0.26319453987E+03 0.  0.
         25    1    3    3    0    0  0.56182765414E+02  0.62252955634E+02 -0.82665419891E+02  0.17179351955E+03  0.12509000000E+03 0.  0.
         25    1    4    4    0    0 -0.19819144334E+02 -0.70025316267E+02 -0.25205879121E+03  0.29065010877E+03  0.12509000000E+03 0.  0.
         25    1    4    4    0    0 -0.36363621080E+02  0.77723606330E+01 -0.27583546986E+03  0.30514822146E+03  0.12509000000E+03 0.  0.
<mgrwt>
<rscale>  2 0.46520331E+03</rscale>
<asrwt>0</asrwt>
<pdfrwt beam="1">  1       21 0.11546483E-01 0.46520331E+03</pdfrwt>
<pdfrwt beam="2">  1       21 0.10133467E+00 0.46520331E+03</pdfrwt>
<totfact> 0.45607825E+04</totfact>
</mgrwt>
</event>
<event>
 7    0  0.4725730E-002  0.4245951E+03  0.7546771E-02  0.1035581E+00
         21   -1    0    0  502  501  0.00000000000E+00  0.00000000000E+00  0.12330772297E+03  0.12330772297E+03  0.00000000000E+00 0. -1.
         21   -1    0    0  501  502 -0.00000000000E+00 -0.00000000000E+00 -0.36551033161E+03  0.36551033161E+03  0.00000000000E+00 0. -1.
      99926    2    1    2    0    0  0.00000000000E+00  0.00000000000E+00 -0.24220260865E+03  0.48881805458E+03  0.42459508575E+03 0.  0.
      99925    2    3    3    0    0  0.35350079894E+02 -0.29004331157E+02 -0.23465996913E+03  0.35541910823E+03  0.26299536500E+03 0.  0.
         25    1    4    4    0    0  0.57867501161E+02 -0.93585188303E+01 -0.12816604848E+03  0.18844169827E+03  0.12509000000E+03 0.  0.
         25    1    3    3    0    0 -0.35350079894E+02  0.29004331157E+02 -0.75426395193E+01  0.13339894634E+03  0.12509000000E+03 0.  0.
         25    1    4    4    0    0 -0.22517421267E+02 -0.19645812327E+02 -0.10649392065E+03  0.16697740996E+03  0.12509000000E+03 0.  0.
<mgrwt>
<rscale>  2 0.42459509E+03</rscale>
<asrwt>0</asrwt>
<pdfrwt beam="1">  1       21 0.18133488E-01 0.42459509E+03</pdfrwt>
<pdfrwt beam="2">  1       21 0.53751520E-01 0.42459509E+03</pdfrwt>
<totfact> 0.84735262E+04</totfact>
</mgrwt>
</event>
<event>
 7    0  0.4725730E-002  0.4526787E+03  0.7546771E-02  0.1026926E+00
         21   -1    0    0  502  501  0.00000000000E+00  0.00000000000E+00  0.36115476828E+03  0.36115476828E+03  0.00000000000E+00 0.  1.
         21   -1    0    0  501  502 -0.00000000000E+00 -0.00000000000E+00 -0.14184915293E+03  0.14184915293E+03  0.00000000000E+00 0.  1.
      99926    2    1    2    0    0  0.00000000000E+00  0.00000000000E+00  0.21930561535E+03  0.50300392121E+03  0.45267868497E+03 0.  0.
      99925    2    3    3    0    0  0.54210393993E+02  0.93046427323E+02  0.16859078344E+03  0.33033108973E+03  0.26286759429E+03 0.  0.
         25    1    4    4    0    0  0.11375464338E+02  0.65680287423E+01  0.67179413161E+02  0.14259425600E+03  0.12509000000E+03 0.  0.
         25    1    3    3    0    0 -0.54210393993E+02 -0.93046427323E+02  0.50714831910E+02  0.17267283148E+03  0.12509000000E+03 0.  0.
         25    1    4    4    0    0  0.42834929655E+02  0.86478398581E+02  0.10141137028E+03  0.18773683374E+03  0.12509000000E+03 0.  0.
<mgrwt>
<rscale>  2 0.45267868E+03</rscale>
<asrwt>0</asrwt>
<pdfrwt beam="1">  1       21 0.53110995E-01 0.45267868E+03</pdfrwt>
<pdfrwt beam="2">  1       21 0.20860170E-01 0.45267868E+03</pdfrwt>
<totfact> 0.66272838E+04</totfact>
</mgrwt>
</event>
<event>
 7    0  0.4725730E-002  0.4555345E+03  0.7546771E-02  0.1026084E+00
         21   -1    0    0  502  501  0.00000000000E+00  0.00000000000E+00  0.36564788562E+02  0.36564788562E+02  0.00000000000E+00 0.  1.
         21   -1    0    0  501  502 -0.00000000000E+00 -0.00000000000E+00 -0.14187942235E+04  0.14187942235E+04  0.00000000000E+00 0.  1.
      99926    2    1    2    0    0  0.00000000000E+00  0.71054273576E-14 -0.13822294349E+04  0.14553590121E+04  0.45553445883E+03 0.  0.
      99925    2    3    3    0    0 -0.60411203699E+02  0.56736169508E+02 -0.62064923209E+03  0.67913712372E+03  0.26297006876E+03 0.  0.
         25    1    4    4    0    0  0.54058183300E+00  0.79171226901E+01 -0.33476691678E+03  0.35746240324E+03  0.12509000000E+03 0.  0.
         25    1    3    3    0    0  0.60411203699E+02 -0.56736169508E+02 -0.76158020285E+03  0.77622188833E+03  0.12509000000E+03 0.  0.
         25    1    4    4    0    0 -0.60951785532E+02  0.48819046818E+02 -0.28588231531E+03  0.32167472048E+03  0.12509000000E+03 0.  0.
<mgrwt>
<rscale>  2 0.45553446E+03</rscale>
<asrwt>0</asrwt>
<pdfrwt beam="1">  1       21 0.53771748E-02 0.45553446E+03</pdfrwt>
<pdfrwt beam="2">  1       21 0.20864621E+00 0.45553446E+03</pdfrwt>
<totfact> 0.24790237E+04</totfact>
</mgrwt>
</event>
<event>
 7    0  0.4725730E-002  0.4609018E+03  0.7546771E-02  0.1024520E+00
         21   -1    0    0  502  501  0.00000000000E+00  0.00000000000E+00  0.59078230099E+02  0.59078230099E+02  0.00000000000E+00 0.  1.
         21   -1    0    0  501  502 -0.00000000000E+00 -0.00000000000E+00 -0.89893703004E+03  0.89893703004E+03  0.00000000000E+00 0.  1.
      99926    2    1    2    0    0  0.00000000000E+00  0.14210854715E-13 -0.83985879994E+03  0.95801526014E+03  0.46090176266E+03 0.  0.
      99925    2    3    3    0    0  0.94755698941E+02  0.65362544796E+02 -0.46344321566E+03  0.54499334192E+03  0.26265419061E+03 0.  0.
         25    1    4    4    0    0  0.82704557518E+02  0.17581735878E+02 -0.21875376580E+03  0.26580045038E+03  0.12509000000E+03 0.  0.
         25    1    4    4    0    0  0.12051141424E+02  0.47780808918E+02 -0.24468944986E+03  0.27919289153E+03  0.12509000000E+03 0.  0.
         25    1    3    3    0    0 -0.94755698941E+02 -0.65362544796E+02 -0.37641558428E+03  0.41302191822E+03  0.12509000000E+03 0.  0.
<mgrwt>
<rscale>  2 0.46090176E+03</rscale>
<asrwt>0</asrwt>
<pdfrwt beam="1">  1       21 0.86879754E-02 0.46090176E+03</pdfrwt>
<pdfrwt beam="2">  1       21 0.13219662E+00 0.46090176E+03</pdfrwt>
<totfact> 0.38987473E+04</totfact>
</mgrwt>
</event>
<event>
 7    0  0.4725730E-002  0.4584575E+03  0.7546771E-02  0.1025230E+00
         21   -1    0    0  502  501  0.00000000000E+00  0.00000000000E+00  0.95950533563E+02  0.95950533563E+02  0.00000000000E+00 0.  1.
         21   -1    0    0  501  502 -0.00000000000E+00 -0.00000000000E+00 -0.54763443991E+03  0.54763443991E+03  0.00000000000E+00 0.  1.
      99926    2    1    2    0    0  0.00000000000E+00  0.00000000000E+00 -0.45168390635E+03  0.64358497347E+03  0.45845748639E+03 0.  0.
      99925    2    3    3    0    0  0.11199705444E+03  0.30414663642E+02 -0.29621197666E+03  0.41274429034E+03  0.26295992495E+03 0.  0.
         25    1    3    3    0    0 -0.11199705444E+03 -0.30414663642E+02 -0.15547192969E+03  0.23084068313E+03  0.12509000000E+03 0.  0.
         25    1    4    4    0    0  0.13411412029E+02  0.23179456992E+02 -0.13649009033E+03  0.18706738374E+03  0.12509000000E+03 0.  0.
         25    1    4    4    0    0  0.98585642408E+02  0.72352066509E+01 -0.15972188633E+03  0.22567690661E+03  0.12509000000E+03 0.  0.
<mgrwt>
<rscale>  2 0.45845749E+03</rscale>
<asrwt>0</asrwt>
<pdfrwt beam="1">  1       21 0.14110373E-01 0.45845749E+03</pdfrwt>
<pdfrwt beam="2">  1       21 0.80534474E-01 0.45845749E+03</pdfrwt>
<totfact> 0.54568506E+04</totfact>
</mgrwt>
</event>
<event>
 7    0  0.4725730E-002  0.4558893E+03  0.7546771E-02  0.1025980E+00
         21   -1    0    0  502  501  0.00000000000E+00  0.00000000000E+00  0.14799968222E+04  0.14799968222E+04  0.00000000000E+00 0. -1.
         21   -1    0    0  501  502 -0.00000000000E+00 -0.00000000000E+00 -0.35107351288E+02  0.35107351288E+02  0.00000000000E+00 0. -1.
      99926    2    1    2    0    0  0.71054273576E-14 -0.14210854715E-13  0.14448894710E+04  0.15151041735E+04  0.45588932141E+03 0.  0.
      99925    2    3    3    0    0  0.35830539959E+02 -0.94235458547E+02  0.10869737559E+04  0.11227837478E+04  0.26261616311E+03 0.  0.
         25    1    3    3    0    0 -0.35830539959E+02  0.94235458547E+02  0.35791571505E+03  0.39232042570E+03  0.12509000000E+03 0.  0.
         25    1    4    4    0    0  0.13539454058E+02 -0.47103105688E+02  0.69974049183E+03  0.71252107575E+03  0.12509000000E+03 0.  0.
         25    1    4    4    0    0  0.22291085901E+02 -0.47132352859E+02  0.38723326408E+03  0.41026267209E+03  0.12509000000E+03 0.  0.
<mgrwt>
<rscale>  2 0.45588932E+03</rscale>
<asrwt>0</asrwt>
<pdfrwt beam="1">  1       21 0.21764655E+00 0.45588932E+03</pdfrwt>
<pdfrwt beam="2">  1       21 0.51628468E-02 0.45588932E+03</pdfrwt>
<totfact> 0.23250346E+04</totfact>
</mgrwt>
</event>
<event>
 7    0  0.4725730E-002  0.4569946E+03  0.7546771E-02  0.1025656E+00
         21   -1    0    0  502  501  0.00000000000E+00  0.00000000000E+00  0.10693562504E+03  0.10693562504E+03  0.00000000000E+00 0. -1.
         21   -1    0    0  501  502 -0.00000000000E+00 -0.00000000000E+00 -0.48824727291E+03  0.48824727291E+03  0.00000000000E+00 0. -1.
      99926    2    1    2    0    0  0.00000000000E+00  0.71054273576E-14 -0.38131164787E+03  0.59518289796E+03  0.45699464900E+03 0.  0.
      99925    2    3    3    0    0  0.10089847116E+03 -0.48956854316E+02 -0.27203070058E+03  0.39476556186E+03  0.26317650295E+03 0.  0.
         25    1    4    4    0    0  0.22934808497E+02 -0.18563546712E+02 -0.82389307901E+02  0.15266341036E+03  0.12509000000E+03 0.  0.
         25    1    4    4    0    0  0.77963662661E+02 -0.30393307604E+02 -0.18964139268E+03  0.24210215150E+03  0.12509000000E+03 0.  0.
         25    1    3    3    0    0 -0.10089847116E+03  0.48956854316E+02 -0.10928094729E+03  0.20041733609E+03  0.12509000000E+03 0.  0.
<mgrwt>
<rscale>  2 0.45699465E+03</rscale>
<asrwt>0</asrwt>
<pdfrwt beam="1">  1       21 0.15725827E-01 0.45699465E+03</pdfrwt>
<pdfrwt beam="2">  1       21 0.71801069E-01 0.45699465E+03</pdfrwt>
<totfact> 0.58055230E+04</totfact>
</mgrwt>
</event>
<event>
 7    0  0.4725730E-002  0.4610512E+03  0.7546771E-02  0.1024477E+00
         21   -1    0    0  502  501  0.00000000000E+00  0.00000000000E+00  0.42433335957E+02  0.42433335957E+02  0.00000000000E+00 0. -1.
         21   -1    0    0  501  502 -0.00000000000E+00 -0.00000000000E+00 -0.12523654041E+04  0.12523654041E+04  0.00000000000E+00 0. -1.
      99926    2    1    2    0    0 -0.17763568394E-14  0.00000000000E+00 -0.12099320681E+04  0.12947987400E+04  0.46105115521E+03 0.  0.
      99925    2    3    3    0    0  0.83740318888E+01  0.88520587305E+02 -0.53656353612E+03  0.60416228952E+03  0.26306962006E+03 0.  0.
         25    1    4    4    0    0  0.27123729365E+02  0.53102466223E+02 -0.20416489690E+03  0.24675166026E+03  0.12509000000E+03 0.  0.
         25    1    4    4    0    0 -0.18749697477E+02  0.35418121083E+02 -0.33239863922E+03  0.35741062926E+03  0.12509000000E+03 0.  0.
         25    1    3    3    0    0 -0.83740318888E+01 -0.88520587305E+02 -0.67336853197E+03  0.69063645048E+03  0.12509000000E+03 0.  0.
<mgrwt>
<rscale>  2 0.46105116E+03</rscale>
<asrwt>0</asrwt>
<pdfrwt beam="1">  1       21 0.62401967E-02 0.46105116E+03</pdfrwt>
<pdfrwt beam="2">  1       21 0.18417137E+00 0.46105116E+03</pdfrwt>
<totfact> 0.27928015E+04</totfact>
</mgrwt>
</event>
<event>
 7    0  0.4725730E-002  0.4181557E+03  0.7546771E-02  0.1037668E+00
         21   -1    0    0  502  501  0.00000000000E+00  0.00000000000E+00  0.76348000637E+02  0.76348000637E+02  0.00000000000E+00 0. -1.
         21   -1    0    0  501  502 -0.00000000000E+00 -0.00000000000E+00 -0.57255660692E+03  0.57255660692E+03  0.00000000000E+00 0. -1.
      99926    2    1    2    0    0  0.00000000000E+00 -0.71054273576E-14 -0.49620860629E+03  0.64890460756E+03  0.41815572310E+03 0.  0.
      99925    2    3    3    0    0 -0.64177101404E+02 -0.34388422785E+02 -0.33932407351E+03  0.43545314074E+03  0.26301586824E+03 0.  0.
         25    1    4    4    0    0 -0.35779560908E+02  0.50674151092E+01 -0.11334704857E+03  0.17262942158E+03  0.12509000000E+03 0.  0.
         25    1    4    4    0    0 -0.28397540497E+02 -0.39455837894E+02 -0.22597702494E+03  0.26282371916E+03  0.12509000000E+03 0.  0.
         25    1    3    3    0    0  0.64177101404E+02  0.34388422785E+02 -0.15688453277E+03  0.21345146682E+03  0.12509000000E+03 0.  0.
<mgrwt>
<rscale>  2 0.41815572E+03</rscale>
<asrwt>0</asrwt>
<pdfrwt beam="1">  1       21 0.11227647E-01 0.41815572E+03</pdfrwt>
<pdfrwt beam="2">  1       21 0.84199500E-01 0.41815572E+03</pdfrwt>
<totfact> 0.75388936E+04</totfact>
</mgrwt>
</event>
<event>
 7    0  0.4725730E-002  0.4233565E+03  0.7546771E-02  0.1035979E+00
         21   -1    0    0  502  501  0.00000000000E+00  0.00000000000E+00  0.56127141593E+03  0.56127141593E+03  0.00000000000E+00 0.  1.
         21   -1    0    0  501  502 -0.00000000000E+00 -0.00000000000E+00 -0.79832457822E+02  0.79832457822E+02  0.00000000000E+00 0.  1.
      99926    2    1    2    0    0 -0.19012569297E-14  0.00000000000E+00  0.48143895811E+03  0.64110387375E+03  0.42335647693E+03 0.  0.
      99925    2    3    3    0    0  0.68620153337E-01 -0.63461015780E+02  0.23870214432E+03  0.36075413842E+03  0.26294016325E+03 0.  0.
         25    1    4    4    0    0 -0.34447071580E+02 -0.49517728751E+02  0.13929868857E+03  0.19669834503E+03  0.12509000000E+03 0.  0.
         25    1    4    4    0    0  0.34515691733E+02 -0.13943287029E+02  0.99403455747E+02  0.16405579339E+03  0.12509000000E+03 0.  0.
         25    1    3    3    0    0 -0.68620153337E-01  0.63461015780E+02  0.24273681379E+03  0.28034973533E+03  0.12509000000E+03 0.  0.
<mgrwt>
<rscale>  2 0.42335648E+03</rscale>
<asrwt>0</asrwt>
<pdfrwt beam="1">  1       21 0.82539912E-01 0.42335648E+03</pdfrwt>
<pdfrwt beam="2">  1       21 0.11740068E-01 0.42335648E+03</pdfrwt>
<totfact> 0.72739280E+04</totfact>
</mgrwt>
</event>
<event>
 7    0  0.4725730E-002  0.4632813E+03  0.7546771E-02  0.1023834E+00
         21   -1    0    0  502  501  0.00000000000E+00  0.00000000000E+00  0.79976733495E+02  0.79976733495E+02  0.00000000000E+00 0. -1.
         21   -1    0    0  501  502 -0.00000000000E+00 -0.00000000000E+00 -0.67091251309E+03  0.67091251309E+03  0.00000000000E+00 0. -1.
      99926    2    1    2    0    0 -0.14210854715E-13  0.00000000000E+00 -0.59093577960E+03  0.75088924659E+03  0.46328130227E+03 0.  0.
      99925    2    3    3    0    0 -0.10874669139E+03 -0.35729054648E+02 -0.43126668647E+03  0.51798554195E+03  0.26308868956E+03 0.  0.
         25    1    4    4    0    0 -0.93626095432E+02 -0.19382314791E+02 -0.20497482732E+03  0.25846413254E+03  0.12509000000E+03 0.  0.
         25    1    4    4    0    0 -0.15120595957E+02 -0.16346739858E+02 -0.22629185915E+03  0.25952140941E+03  0.12509000000E+03 0.  0.
         25    1    3    3    0    0  0.10874669139E+03  0.35729054648E+02 -0.15966909313E+03  0.23290370464E+03  0.12509000000E+03 0.  0.
<mgrwt>
<rscale>  2 0.46328130E+03</rscale>
<asrwt>0</asrwt>
<pdfrwt beam="1">  1       21 0.11761285E-01 0.46328130E+03</pdfrwt>
<pdfrwt beam="2">  1       21 0.98663603E-01 0.46328130E+03</pdfrwt>
<totfact> 0.47085306E+04</totfact>
</mgrwt>
</event>
<event>
 7    0  0.4725730E-002  0.4468740E+03  0.7546771E-02  0.1028658E+00
         21   -1    0    0  502  501  0.00000000000E+00  0.00000000000E+00  0.62819816054E+02  0.62819816054E+02  0.00000000000E+00 0. -1.
         21   -1    0    0  501  502 -0.00000000000E+00 -0.00000000000E+00 -0.79471895179E+03  0.79471895179E+03  0.00000000000E+00 0. -1.
      99926    2    1    2    0    0  0.00000000000E+00 -0.71054273576E-14 -0.73189913573E+03  0.85753876784E+03  0.44687402416E+03 0.  0.
      99925    2    3    3    0    0  0.80450339584E+02  0.61929264405E+02 -0.51736790525E+03  0.58925040082E+03  0.26313303584E+03 0.  0.
         25    1    4    4    0    0  0.56699215176E+02  0.67057140113E+02 -0.31471292818E+03  0.34986168168E+03  0.12509000000E+03 0.  0.
         25    1    3    3    0    0 -0.80450339584E+02 -0.61929264405E+02 -0.21453123048E+03  0.26828836703E+03  0.12509000000E+03 0.  0.
         25    1    4    4    0    0  0.23751124409E+02 -0.51278757084E+01 -0.20265497707E+03  0.23938871914E+03  0.12509000000E+03 0.  0.
<mgrwt>
<rscale>  2 0.44687402E+03</rscale>
<asrwt>0</asrwt>
<pdfrwt beam="1">  1       21 0.92382089E-02 0.44687402E+03</pdfrwt>
<pdfrwt beam="2">  1       21 0.11687043E+00 0.44687402E+03</pdfrwt>
<totfact> 0.48097041E+04</totfact>
</mgrwt>
</event>
<event>
 7    0  0.4725730E-002  0.4468721E+03  0.7546771E-02  0.1028659E+00
         21   -1    0    0  502  501  0.00000000000E+00  0.00000000000E+00  0.75396534672E+03  0.75396534672E+03  0.00000000000E+00 0. -1.
         21   -1    0    0  501  502 -0.00000000000E+00 -0.00000000000E+00 -0.66214798602E+02  0.66214798602E+02  0.00000000000E+00 0. -1.
      99926    2    1    2    0    0 -0.71054273576E-14  0.00000000000E+00  0.68775054812E+03  0.82018014532E+03  0.44687207828E+03 0.  0.
      99925    2    3    3    0    0 -0.59031982218E+02 -0.81381043543E+02  0.49407892289E+03  0.56865707344E+03  0.26296242308E+03 0.  0.
         25    1    4    4    0    0 -0.22566623983E+02 -0.77416660567E+02  0.22661060314E+03  0.27111338109E+03  0.12509000000E+03 0.  0.
         25    1    3    3    0    0  0.59031982218E+02  0.81381043543E+02  0.19367162523E+03  0.25152307189E+03  0.12509000000E+03 0.  0.
         25    1    4    4    0    0 -0.36465358235E+02 -0.39643829764E+01  0.26746831975E+03  0.29754369235E+03  0.12509000000E+03 0.  0.
<mgrwt>
<rscale>  2 0.44687208E+03</rscale>
<asrwt>0</asrwt>
<pdfrwt beam="1">  1       21 0.11087725E+00 0.44687208E+03</pdfrwt>
<pdfrwt beam="2">  1       21 0.97374708E-02 0.44687208E+03</pdfrwt>
<totfact> 0.49912080E+04</totfact>
</mgrwt>
</event>
<event>
 7    0  0.4725730E-002  0.4549922E+03  0.7546771E-02  0.1026244E+00
         21   -1    0    0  502  501  0.00000000000E+00  0.00000000000E+00  0.10677129415E+03  0.10677129415E+03  0.00000000000E+00 0.  1.
         21   -1    0    0  501  502 -0.00000000000E+00 -0.00000000000E+00 -0.48472273638E+03  0.48472273638E+03  0.00000000000E+00 0.  1.
      99926    2    1    2    0    0 -0.71054273576E-14  0.00000000000E+00 -0.37795144224E+03  0.59149403053E+03  0.45499219275E+03 0.  0.
      99925    2    3    3    0    0  0.52777024218E+02  0.85923252650E+02 -0.30443401385E+03  0.41480068032E+03  0.26308043632E+03 0.  0.
         25    1    4    4    0    0  0.56435818500E+01  0.47595614600E+01 -0.13154725466E+03  0.18167743875E+03  0.12509000000E+03 0.  0.
         25    1    4    4    0    0  0.47133442368E+02  0.81163691190E+02 -0.17288675919E+03  0.23312324157E+03  0.12509000000E+03 0.  0.
         25    1    3    3    0    0 -0.52777024218E+02 -0.85923252650E+02 -0.73517428384E+02  0.17669335021E+03  0.12509000000E+03 0.  0.
<mgrwt>
<rscale>  2 0.45499219E+03</rscale>
<asrwt>0</asrwt>
<pdfrwt beam="1">  1       21 0.15701661E-01 0.45499219E+03</pdfrwt>
<pdfrwt beam="2">  1       21 0.71282753E-01 0.45499219E+03</pdfrwt>
<totfact> 0.59208562E+04</totfact>
</mgrwt>
</event>
<event>
 7    0  0.4725730E-002  0.4350030E+03  0.7546771E-02  0.1032291E+00
         21   -1    0    0  502  501  0.00000000000E+00  0.00000000000E+00  0.28056674711E+03  0.28056674711E+03  0.00000000000E+00 0. -1.
         21   -1    0    0  501  502 -0.00000000000E+00 -0.00000000000E+00 -0.16861193964E+03  0.16861193964E+03  0.00000000000E+00 0. -1.
      99926    2    1    2    0    0  0.14210854715E-13  0.00000000000E+00  0.11195480747E+03  0.44917868674E+03  0.43500300425E+03 0.  0.
      99925    2    3    3    0    0 -0.83601653961E+02 -0.40141291033E+02  0.74564650395E+02  0.28903471484E+03  0.26340201120E+03 0.  0.
         25    1    4    4    0    0  0.13975998941E+01 -0.19585669033E+02  0.34439416491E+02  0.13122169495E+03  0.12509000000E+03 0.  0.
         25    1    3    3    0    0  0.83601653961E+02  0.40141291033E+02  0.37390157074E+02  0.16014397190E+03  0.12509000000E+03 0.  0.
         25    1    4    4    0    0 -0.84999253855E+02 -0.20555621999E+02  0.40125233903E+02  0.15781301989E+03  0.12509000000E+03 0.  0.
<mgrwt>
<rscale>  2 0.43500300E+03</rscale>
<asrwt>0</asrwt>
<pdfrwt beam="1">  1       21 0.41259816E-01 0.43500300E+03</pdfrwt>
<pdfrwt beam="2">  1       21 0.24795873E-01 0.43500300E+03</pdfrwt>
<totfact> 0.81142882E+04</totfact>
</mgrwt>
</event>
<event>
 7    0  0.4725730E-002  0.4556909E+03  0.7546771E-02  0.1026038E+00
         21   -1    0    0  502  501  0.00000000000E+00  0.00000000000E+00  0.13470306120E+03  0.13470306120E+03  0.00000000000E+00 0.  1.
         21   -1    0    0  501  502 -0.00000000000E+00 -0.00000000000E+00 -0.38539242983E+03  0.38539242983E+03  0.00000000000E+00 0.  1.
      99926    2    1    2    0    0  0.00000000000E+00  0.14210854715E-13 -0.25068936863E+03  0.52009549102E+03  0.45569086039E+03 0.  0.
      99925    2    3    3    0    0  0.63554210280E+02  0.91747411330E+02 -0.18300509281E+03  0.33930446685E+03  0.26302078263E+03 0.  0.
         25    1    3    3    0    0 -0.63554210280E+02 -0.91747411330E+02 -0.67684275823E+02  0.18079102418E+03  0.12509000000E+03 0.  0.
         25    1    4    4    0    0  0.53740047081E+02  0.43496116223E+02 -0.53410948147E+02  0.15257831520E+03  0.12509000000E+03 0.  0.
         25    1    4    4    0    0  0.98141631986E+01  0.48251295107E+02 -0.12959414466E+03  0.18672615165E+03  0.12509000000E+03 0.  0.
<mgrwt>
<rscale>  2 0.45569086E+03</rscale>
<asrwt>0</asrwt>
<pdfrwt beam="1">  1       21 0.19809274E-01 0.45569086E+03</pdfrwt>
<pdfrwt beam="2">  1       21 0.56675357E-01 0.45569086E+03</pdfrwt>
<totfact> 0.63531817E+04</totfact>
</mgrwt>
</event>
<event>
 7    0  0.4725730E-002  0.4427083E+03  0.7546771E-02  0.1029919E+00
         21   -1    0    0  502  501  0.00000000000E+00  0.00000000000E+00  0.41480478047E+03  0.41480478047E+03  0.00000000000E+00 0. -1.
         21   -1    0    0  501  502 -0.00000000000E+00 -0.00000000000E+00 -0.11812219114E+03  0.11812219114E+03  0.00000000000E+00 0. -1.
      99926    2    1    2    0    0  0.00000000000E+00  0.00000000000E+00  0.29668258933E+03  0.53292697162E+03  0.44270825412E+03 0.  0.
      99925    2    3    3    0    0 -0.73213709741E+02  0.12844990708E+02  0.27139983747E+03  0.38523822214E+03  0.26310715486E+03 0.  0.
         25    1    3    3    0    0  0.73213709741E+02 -0.12844990708E+02  0.25282751857E+02  0.14768874948E+03  0.12509000000E+03 0.  0.
         25    1    4    4    0    0 -0.68139980444E+02  0.25556303253E+02  0.11730245932E+03  0.18628890636E+03  0.12509000000E+03 0.  0.
         25    1    4    4    0    0 -0.50737292971E+01 -0.12711312545E+02  0.15409737815E+03  0.19894931578E+03  0.12509000000E+03 0.  0.
<mgrwt>
<rscale>  2 0.44270825E+03</rscale>
<asrwt>0</asrwt>
<pdfrwt beam="1">  1       21 0.61000703E-01 0.44270825E+03</pdfrwt>
<pdfrwt beam="2">  1       21 0.17370911E-01 0.44270825E+03</pdfrwt>
<totfact> 0.69530866E+04</totfact>
</mgrwt>
</event>
<event>
 7    0  0.4725730E-002  0.4552348E+03  0.7546771E-02  0.1026172E+00
         21   -1    0    0  502  501  0.00000000000E+00  0.00000000000E+00  0.10927460338E+04  0.10927460338E+04  0.00000000000E+00 0. -1.
         21   -1    0    0  501  502 -0.00000000000E+00 -0.00000000000E+00 -0.47412367276E+02  0.47412367276E+02  0.00000000000E+00 0. -1.
      99926    2    1    2    0    0  0.00000000000E+00  0.00000000000E+00  0.10453336666E+04  0.11401584011E+04  0.45523478029E+03 0.  0.
      99925    2    3    3    0    0  0.13779090762E+02 -0.97120313035E+02  0.51540467793E+03  0.58690036038E+03  0.26303580067E+03 0.  0.
         25    1    4    4    0    0 -0.84965049890E+01 -0.72929684926E+02  0.20985557614E+03  0.25510350934E+03  0.12509000000E+03 0.  0.
         25    1    4    4    0    0  0.22275595751E+02 -0.24190628109E+02  0.30554910179E+03  0.33179685104E+03  0.12509000000E+03 0.  0.
         25    1    3    3    0    0 -0.13779090762E+02  0.97120313035E+02  0.52992898863E+03  0.55325804073E+03  0.12509000000E+03 0.  0.
<mgrwt>
<rscale>  2 0.45523478E+03</rscale>
<asrwt>0</asrwt>
<pdfrwt beam="1">  1       21 0.16069793E+00 0.45523478E+03</pdfrwt>
<pdfrwt beam="2">  1       21 0.69724077E-02 0.45523478E+03</pdfrwt>
<totfact> 0.34050311E+04</totfact>
</mgrwt>
</event>
<event>
 7    0  0.4725730E-002  0.4446831E+03  0.7546771E-02  0.1029320E+00
         21   -1    0    0  502  501  0.00000000000E+00  0.00000000000E+00  0.46928064728E+03  0.46928064728E+03  0.00000000000E+00 0. -1.
         21   -1    0    0  501  502 -0.00000000000E+00 -0.00000000000E+00 -0.10534373111E+03  0.10534373111E+03  0.00000000000E+00 0. -1.
      99926    2    1    2    0    0  0.00000000000E+00  0.71054273576E-14  0.36393691617E+03  0.57462437839E+03  0.44468314257E+03 0.  0.
      99925    2    3    3    0    0  0.64433822005E+02  0.33783196107E+02  0.13610923154E+03  0.30472442703E+03  0.26275127357E+03 0.  0.
         25    1    4    4    0    0  0.62565103098E+02  0.45253795913E+02  0.74407992631E+02  0.16476151140E+03  0.12509000000E+03 0.  0.
         25    1    4    4    0    0  0.18687189072E+01 -0.11470599806E+02  0.61701238905E+02  0.13996291563E+03  0.12509000000E+03 0.  0.
         25    1    3    3    0    0 -0.64433822005E+02 -0.33783196107E+02  0.22782768463E+03  0.26989995136E+03  0.12509000000E+03 0.  0.
<mgrwt>
<rscale>  2 0.44468314E+03</rscale>
<asrwt>0</asrwt>
<pdfrwt beam="1">  1       21 0.69011859E-01 0.44468314E+03</pdfrwt>
<pdfrwt beam="2">  1       21 0.15491725E-01 0.44468314E+03</pdfrwt>
<totfact> 0.65445362E+04</totfact>
</mgrwt>
</event>
<event>
 7    0  0.4725730E-002  0.4559821E+03  0.7546771E-02  0.1025953E+00
         21   -1    0    0  502  501  0.00000000000E+00  0.00000000000E+00  0.27672481490E+03  0.27672481490E+03  0.00000000000E+00 0.  1.
         21   -1    0    0  501  502 -0.00000000000E+00 -0.00000000000E+00 -0.18783973902E+03  0.18783973902E+03  0.00000000000E+00 0.  1.
      99926    2    1    2    0    0 -0.35527136788E-14  0.00000000000E+00  0.88885075885E+02  0.46456455392E+03  0.45598209180E+03 0.  0.
      99925    2    3    3    0    0  0.25532726904E+02  0.10936957507E+03  0.35044853339E+02  0.28804287888E+03  0.26292001490E+03 0.  0.
         25    1    3    3    0    0 -0.25532726904E+02 -0.10936957507E+03  0.53840222545E+02  0.17652167503E+03  0.12509000000E+03 0.  0.
         25    1    4    4    0    0  0.11776679478E+02  0.84799058033E+02  0.48418308426E+02  0.15912702823E+03  0.12509000000E+03 0.  0.
         25    1    4    4    0    0  0.13756047427E+02  0.24570517032E+02 -0.13373455087E+02  0.12891585065E+03  0.12509000000E+03 0.  0.
<mgrwt>
<rscale>  2 0.45598209E+03</rscale>
<asrwt>0</asrwt>
<pdfrwt beam="1">  1       21 0.40694826E-01 0.45598209E+03</pdfrwt>
<pdfrwt beam="2">  1       21 0.27623491E-01 0.45598209E+03</pdfrwt>
<totfact> 0.67315478E+04</totfact>
</mgrwt>
</event>
<event>
 7    0  0.4725730E-002  0.4590244E+03  0.7546771E-02  0.1025065E+00
         21   -1    0    0  502  501  0.00000000000E+00  0.00000000000E+00  0.73794953502E+02  0.73794953502E+02  0.00000000000E+00 0.  1.
         21   -1    0    0  501  502 -0.00000000000E+00 -0.00000000000E+00 -0.71381361035E+03  0.71381361035E+03  0.00000000000E+00 0.  1.
      99926    2    1    2    0    0  0.14210854715E-13 -0.14210854715E-13 -0.64001865684E+03  0.78760856385E+03  0.45902436617E+03 0.  0.
      99925    2    3    3    0    0 -0.65102957975E+02  0.82632963522E+02 -0.31306204571E+03  0.42207506954E+03  0.26281727125E+03 0.  0.
         25    1    3    3    0    0  0.65102957975E+02 -0.82632963522E+02 -0.32695661113E+03  0.36553349431E+03  0.12509000000E+03 0.  0.
         25    1    4    4    0    0 -0.12680895350E+02  0.68067427423E+02 -0.19413668890E+03  0.24110276204E+03  0.12509000000E+03 0.  0.
         25    1    4    4    0    0 -0.52422062625E+02  0.14565536099E+02 -0.11892535681E+03  0.18097230750E+03  0.12509000000E+03 0.  0.
<mgrwt>
<rscale>  2 0.45902437E+03</rscale>
<asrwt>0</asrwt>
<pdfrwt beam="1">  1       21 0.10852199E-01 0.45902437E+03</pdfrwt>
<pdfrwt beam="2">  1       21 0.10497259E+00 0.45902437E+03</pdfrwt>
<totfact> 0.46871935E+04</totfact>
</mgrwt>
</event>
<event>
 7    0  0.4725730E-002  0.4606746E+03  0.7546771E-02  0.1024586E+00
         21   -1    0    0  502  501  0.00000000000E+00  0.00000000000E+00  0.94121165648E+02  0.94121165648E+02  0.00000000000E+00 0. -1.
         21   -1    0    0  501  502 -0.00000000000E+00 -0.00000000000E+00 -0.56369117037E+03  0.56369117037E+03  0.00000000000E+00 0. -1.
      99926    2    1    2    0    0  0.00000000000E+00  0.14210854715E-13 -0.46957000472E+03  0.65781233601E+03  0.46067459240E+03 0.  0.
      99925    2    3    3    0    0  0.62515109992E+02  0.76755627056E+02 -0.38654408661E+03  0.47797803328E+03  0.26314844507E+03 0.  0.
         25    1    4    4    0    0  0.40790257818E+02  0.79855310465E+02 -0.20188075666E+03  0.25385835372E+03  0.12509000000E+03 0.  0.
         25    1    3    3    0    0 -0.62515109992E+02 -0.76755627056E+02 -0.83025918105E+02  0.17983430273E+03  0.12509000000E+03 0.  0.
         25    1    4    4    0    0  0.21724852173E+02 -0.30996834096E+01 -0.18466332996E+03  0.22411967957E+03  0.12509000000E+03 0.  0.
<mgrwt>
<rscale>  2 0.46067459E+03</rscale>
<asrwt>0</asrwt>
<pdfrwt beam="1">  1       21 0.13841349E-01 0.46067459E+03</pdfrwt>
<pdfrwt beam="2">  1       21 0.82895756E-01 0.46067459E+03</pdfrwt>
<totfact> 0.52848294E+04</totfact>
</mgrwt>
</event>
<event>
 7    0  0.4725730E-002  0.4625080E+03  0.7546771E-02  0.1024056E+00
         21   -1    0    0  502  501  0.00000000000E+00  0.00000000000E+00  0.91435562149E+02  0.91435562149E+02  0.00000000000E+00 0. -1.
         21   -1    0    0  501  502 -0.00000000000E+00 -0.00000000000E+00 -0.58487544790E+03  0.58487544790E+03  0.00000000000E+00 0. -1.
      99926    2    1    2    0    0  0.00000000000E+00  0.00000000000E+00 -0.49343988575E+03  0.67631101005E+03  0.46250801232E+03 0.  0.
      99925    2    3    3    0    0  0.44100616738E+02 -0.57821266416E+02 -0.44805241357E+03  0.52466769837E+03  0.26312936963E+03 0.  0.
         25    1    4    4    0    0 -0.28455081897E+01 -0.39133827902E+02 -0.16202680319E+03  0.20842203927E+03  0.12509000000E+03 0.  0.
         25    1    4    4    0    0  0.46946124927E+02 -0.18687438514E+02 -0.28602561038E+03  0.31624565910E+03  0.12509000000E+03 0.  0.
         25    1    3    3    0    0 -0.44100616738E+02  0.57821266416E+02 -0.45387472185E+02  0.15164331168E+03  0.12509000000E+03 0.  0.
<mgrwt>
<rscale>  2 0.46250801E+03</rscale>
<asrwt>0</asrwt>
<pdfrwt beam="1">  1       21 0.13446407E-01 0.46250801E+03</pdfrwt>
<pdfrwt beam="2">  1       21 0.86011091E-01 0.46250801E+03</pdfrwt>
<totfact> 0.51115830E+04</totfact>
</mgrwt>
</event>
<event>
 7    0  0.4725730E-002  0.4534774E+03  0.7546771E-02  0.1026690E+00
         21   -1    0    0  502  501  0.00000000000E+00  0.00000000000E+00  0.71039330912E+03  0.71039330912E+03  0.00000000000E+00 0. -1.
         21   -1    0    0  501  502 -0.00000000000E+00 -0.00000000000E+00 -0.72368967203E+02  0.72368967203E+02  0.00000000000E+00 0. -1.
      99926    2    1    2    0    0  0.00000000000E+00 -0.71054273576E-14  0.63802434191E+03  0.78276227632E+03  0.45347736477E+03 0.  0.
      99925    2    3    3    0    0 -0.80304266587E+02 -0.56947735821E+02  0.31132948967E+03  0.41934948839E+03  0.26312757824E+03 0.  0.
         25    1    3    3    0    0  0.80304266587E+02  0.56947735821E+02  0.32669485225E+03  0.36341278793E+03  0.12509000000E+03 0.  0.
         25    1    4    4    0    0 -0.63234686699E+02 -0.64397043738E+02  0.17934160188E+03  0.23655131179E+03  0.12509000000E+03 0.  0.
         25    1    4    4    0    0 -0.17069579887E+02  0.74493079167E+01  0.13198788779E+03  0.18279817660E+03  0.12509000000E+03 0.  0.
<mgrwt>
<rscale>  2 0.45347736E+03</rscale>
<asrwt>0</asrwt>
<pdfrwt beam="1">  1       21 0.10446960E+00 0.45347736E+03</pdfrwt>
<pdfrwt beam="2">  1       21 0.10642496E-01 0.45347736E+03</pdfrwt>
<totfact> 0.49195228E+04</totfact>
</mgrwt>
</event>
<event>
 7    0  0.4725730E-002  0.4502977E+03  0.7546771E-02  0.1027633E+00
         21   -1    0    0  502  501  0.00000000000E+00  0.00000000000E+00  0.17343878643E+04  0.17343878643E+04  0.00000000000E+00 0.  1.
         21   -1    0    0  501  502 -0.00000000000E+00 -0.00000000000E+00 -0.29227601437E+02  0.29227601437E+02  0.00000000000E+00 0.  1.
      99926    2    1    2    0    0  0.00000000000E+00  0.00000000000E+00  0.17051602629E+04  0.17636154657E+04  0.45029766704E+03 0.  0.
      99925    2    3    3    0    0 -0.92133427012E+02 -0.57674712206E+02  0.10849926075E+04  0.11216883907E+04  0.26298468912E+03 0.  0.
         25    1    4    4    0    0 -0.71512366549E+02 -0.63540382695E+02  0.58134123296E+03  0.60229273285E+03  0.12509000000E+03 0.  0.
         25    1    3    3    0    0  0.92133427012E+02  0.57674712206E+02  0.62016765541E+03  0.64192707508E+03  0.12509000000E+03 0.  0.
         25    1    4    4    0    0 -0.20621060462E+02  0.58656704890E+01  0.50365137450E+03  0.51939565782E+03  0.12509000000E+03 0.  0.
<mgrwt>
<rscale>  2 0.45029767E+03</rscale>
<asrwt>0</asrwt>
<pdfrwt beam="1">  1       21 0.25505697E+00 0.45029767E+03</pdfrwt>
<pdfrwt beam="2">  1       21 0.42981778E-02 0.45029767E+03</pdfrwt>
<totfact> 0.18640445E+04</totfact>
</mgrwt>
</event>
<event>
 7    0  0.4725730E-002  0.4574732E+03  0.7546771E-02  0.1025517E+00
         21   -1    0    0  502  501  0.00000000000E+00  0.00000000000E+00  0.12578989246E+03  0.12578989246E+03  0.00000000000E+00 0.  1.
         21   -1    0    0  501  502 -0.00000000000E+00 -0.00000000000E+00 -0.41593517956E+03  0.41593517956E+03  0.00000000000E+00 0.  1.
      99926    2    1    2    0    0  0.00000000000E+00  0.00000000000E+00 -0.29014528710E+03  0.54172507202E+03  0.45747324078E+03 0.  0.
      99925    2    3    3    0    0  0.11509557796E+03  0.98292496780E+01 -0.18368061497E+03  0.34091212242E+03  0.26294277074E+03 0.  0.
         25    1    4    4    0    0  0.23794733994E+02  0.44622137481E+01 -0.11415899875E+03  0.17107275006E+03  0.12509000000E+03 0.  0.
         25    1    3    3    0    0 -0.11509557796E+03 -0.98292496780E+01 -0.10646467213E+03  0.20081294960E+03  0.12509000000E+03 0.  0.
         25    1    4    4    0    0  0.91300843966E+02  0.53670359299E+01 -0.69521616216E+02  0.16983937236E+03  0.12509000000E+03 0.  0.
<mgrwt>
<rscale>  2 0.45747324E+03</rscale>
<asrwt>0</asrwt>
<pdfrwt beam="1">  1       21 0.18498514E-01 0.45747324E+03</pdfrwt>
<pdfrwt beam="2">  1       21 0.61166938E-01 0.45747324E+03</pdfrwt>
<totfact> 0.61209818E+04</totfact>
</mgrwt>
</event>
<event>
 7    0  0.4725730E-002  0.4552894E+03  0.7546771E-02  0.1026156E+00
         21   -1    0    0  502  501  0.00000000000E+00  0.00000000000E+00  0.12283565874E+03  0.12283565874E+03  0.00000000000E+00 0.  1.
         21   -1    0    0  501  502 -0.00000000000E+00 -0.00000000000E+00 -0.42188161373E+03  0.42188161373E+03  0.00000000000E+00 0.  1.
      99926    2    1    2    0    0 -0.35527136788E-14  0.00000000000E+00 -0.29904595499E+03  0.54471727248E+03  0.45528938461E+03 0.  0.
      99925    2    3    3    0    0 -0.25812367928E+02  0.72396351874E+02 -0.88511014060E+02  0.28804631667E+03  0.26311398829E+03 0.  0.
         25    1    4    4    0    0 -0.44932472684E+02  0.16301939917E+02 -0.59920395181E+02  0.14670597195E+03  0.12509000000E+03 0.  0.
         25    1    4    4    0    0  0.19120104757E+02  0.56094411956E+02 -0.28590618879E+02  0.14134034472E+03  0.12509000000E+03 0.  0.
         25    1    3    3    0    0  0.25812367928E+02 -0.72396351874E+02 -0.21053494093E+03  0.25667095581E+03  0.12509000000E+03 0.  0.
<mgrwt>
<rscale>  2 0.45528938E+03</rscale>
<asrwt>0</asrwt>
<pdfrwt beam="1">  1       21 0.18064068E-01 0.45528938E+03</pdfrwt>
<pdfrwt beam="2">  1       21 0.62041413E-01 0.45528938E+03</pdfrwt>
<totfact> 0.62074688E+04</totfact>
</mgrwt>
</event>
<event>
 6    0  0.4725730E-002  0.4585227E+03  0.7546771E-02  0.1025211E+00
         21   -1    0    0  502  501  0.00000000000E+00  0.00000000000E+00  0.22307055740E+03  0.22307055740E+03  0.00000000000E+00 0. -1.
         21   -1    0    0  501  502 -0.00000000000E+00 -0.00000000000E+00 -0.23562391634E+03  0.23562391634E+03  0.00000000000E+00 0. -1.
      99926    2    1    2    0    0  0.00000000000E+00 -0.14210854715E-13 -0.12553358939E+02  0.45869447374E+03  0.45852266402E+03 0.  0.
         25    1    3    3    0    0  0.79195599937E+01 -0.58142981222E+02  0.53255668519E+02  0.14807768240E+03  0.12509000000E+03 0.  0.
         25    1    3    3    0    0 -0.53789456108E+02  0.93843791944E+02 -0.42270738026E+02  0.17068768634E+03  0.12509000000E+03 0.  0.
         25    1    3    3    0    0  0.45869896114E+02 -0.35700810722E+02 -0.23538289432E+02  0.13992910500E+03  0.12509000000E+03 0.  0.
<mgrwt>
<rscale>  2 0.45852266E+03</rscale>
<asrwt>0</asrwt>
<pdfrwt beam="1">  1       21 0.32804494E-01 0.45852266E+03</pdfrwt>
<pdfrwt beam="2">  1       21 0.34650576E-01 0.45852266E+03</pdfrwt>
<totfact> 0.66390239E+04</totfact>
</mgrwt>
</event>
<event>
 7    0  0.4725730E-002  0.4505423E+03  0.7546771E-02  0.1027560E+00
         21   -1    0    0  502  501  0.00000000000E+00  0.00000000000E+00  0.39445216080E+03  0.39445216080E+03  0.00000000000E+00 0.  1.
         21   -1    0    0  501  502 -0.00000000000E+00 -0.00000000000E+00 -0.12865207037E+03  0.12865207037E+03  0.00000000000E+00 0.  1.
      99926    2    1    2    0    0  0.00000000000E+00 -0.71054273576E-14  0.26580009043E+03  0.52310423118E+03  0.45054228281E+03 0.  0.
      99925    2    3    3    0    0 -0.27777117435E+02  0.52323180765E+02  0.61705616835E+02  0.27650466559E+03  0.26294098852E+03 0.  0.
         25    1    3    3    0    0  0.27777117435E+02 -0.52323180765E+02  0.20409447359E+03  0.24659956559E+03  0.12509000000E+03 0.  0.
         25    1    4    4    0    0  0.25758252982E+01 -0.61492099607E+01  0.49168569669E+02  0.13457155718E+03  0.12509000000E+03 0.  0.
         25    1    4    4    0    0 -0.30352942733E+02  0.58472390726E+02  0.12537047166E+02  0.14193310840E+03  0.12509000000E+03 0.  0.
<mgrwt>
<rscale>  2 0.45054228E+03</rscale>
<asrwt>0</asrwt>
<pdfrwt beam="1">  1       21 0.58007670E-01 0.45054228E+03</pdfrwt>
<pdfrwt beam="2">  1       21 0.18919422E-01 0.45054228E+03</pdfrwt>
<totfact> 0.65976481E+04</totfact>
</mgrwt>
</event>
<event>
 7    0  0.4725730E-002  0.4480499E+03  0.7546771E-02  0.1028305E+00
         21   -1    0    0  502  501  0.00000000000E+00  0.00000000000E+00  0.44986977488E+03  0.44986977488E+03  0.00000000000E+00 0.  1.
         21   -1    0    0  501  502 -0.00000000000E+00 -0.00000000000E+00 -0.11155933729E+03  0.11155933729E+03  0.00000000000E+00 0.  1.
      99926    2    1    2    0    0  0.00000000000E+00  0.00000000000E+00  0.33831043759E+03  0.56142911217E+03  0.44804988094E+03 0.  0.
      99925    2    3    3    0    0 -0.93516696598E+02  0.19520371500E+02  0.27328791411E+03  0.39112980475E+03  0.26300156410E+03 0.  0.
         25    1    3    3    0    0  0.93516696598E+02 -0.19520371500E+02  0.65022523475E+02  0.17029930741E+03  0.12509000000E+03 0.  0.
         25    1    4    4    0    0 -0.38904973643E+02  0.28433629141E+02  0.86203631266E+02  0.15937578983E+03  0.12509000000E+03 0.  0.
         25    1    4    4    0    0 -0.54611722955E+02 -0.89132576405E+01  0.18708428285E+03  0.23175401492E+03  0.12509000000E+03 0.  0.
<mgrwt>
<rscale>  2 0.44804988E+03</rscale>
<asrwt>0</asrwt>
<pdfrwt beam="1">  1       21 0.66157319E-01 0.44804988E+03</pdfrwt>
<pdfrwt beam="2">  1       21 0.16405785E-01 0.44804988E+03</pdfrwt>
<totfact> 0.64595920E+04</totfact>
</mgrwt>
</event>
<event>
 7    0  0.4725730E-002  0.4540314E+03  0.7546771E-02  0.1026527E+00
         21   -1    0    0  502  501  0.00000000000E+00  0.00000000000E+00  0.49381067012E+02  0.49381067012E+02  0.00000000000E+00 0. -1.
         21   -1    0    0  501  502 -0.00000000000E+00 -0.00000000000E+00 -0.10436414949E+04  0.10436414949E+04  0.00000000000E+00 0. -1.
      99926    2    1    2    0    0  0.35527136788E-14  0.00000000000E+00 -0.99426042785E+03  0.10930225619E+04  0.45403141122E+03 0.  0.
      99925    2    3    3    0    0  0.30509321407E+02  0.78255214058E+02 -0.80538416384E+03  0.85141037587E+03  0.26306136081E+03 0.  0.
         25    1    4    4    0    0  0.35943441120E+02  0.75838918114E+02 -0.45872684631E+03  0.48282636640E+03  0.12509000000E+03 0.  0.
         25    1    3    3    0    0 -0.30509321407E+02 -0.78255214058E+02 -0.18887626402E+03  0.24161218601E+03  0.12509000000E+03 0.  0.
         25    1    4    4    0    0 -0.54341197132E+01  0.24162959433E+01 -0.34665731752E+03  0.36858400947E+03  0.12509000000E+03 0.  0.
<mgrwt>
<rscale>  2 0.45403141E+03</rscale>
<asrwt>0</asrwt>
<pdfrwt beam="1">  1       21 0.72619224E-02 0.45403141E+03</pdfrwt>
<pdfrwt beam="2">  1       21 0.15347667E+00 0.45403141E+03</pdfrwt>
<totfact> 0.36008484E+04</totfact>
</mgrwt>
</event>
<event>
 7    0  0.4725730E-002  0.4146274E+03  0.7546771E-02  0.1038829E+00
         21   -1    0    0  502  501  0.00000000000E+00  0.00000000000E+00  0.13284861244E+03  0.13284861244E+03  0.00000000000E+00 0. -1.
         21   -1    0    0  501  502 -0.00000000000E+00 -0.00000000000E+00 -0.32351833382E+03  0.32351833382E+03  0.00000000000E+00 0. -1.
      99926    2    1    2    0    0  0.71054273576E-14 -0.35527136788E-14 -0.19066972138E+03  0.45636694625E+03  0.41462735918E+03 0.  0.
      99925    2    3    3    0    0 -0.62870852011E+02  0.27944103792E+02 -0.12628720759E+03  0.29975841152E+03  0.26300766055E+03 0.  0.
         25    1    4    4    0    0 -0.36986470005E+02  0.89702591822E+01 -0.19526937850E+02  0.13220164112E+03  0.12509000000E+03 0.  0.
         25    1    3    3    0    0  0.62870852011E+02 -0.27944103792E+02 -0.64382513792E+02  0.15660853473E+03  0.12509000000E+03 0.  0.
         25    1    4    4    0    0 -0.25884382006E+02  0.18973844610E+02 -0.10676026974E+03  0.16755677040E+03  0.12509000000E+03 0.  0.
<mgrwt>
<rscale>  2 0.41462736E+03</rscale>
<asrwt>0</asrwt>
<pdfrwt beam="1">  1       21 0.19536561E-01 0.41462736E+03</pdfrwt>
<pdfrwt beam="2">  1       21 0.47576225E-01 0.41462736E+03</pdfrwt>
<totfact> 0.95621874E+04</totfact>
</mgrwt>
</event>
<event>
 7    0  0.4725730E-002  0.4553617E+03  0.7546771E-02  0.1026135E+00
         21   -1    0    0  502  501  0.00000000000E+00  0.00000000000E+00  0.12089468236E+03  0.12089468236E+03  0.00000000000E+00 0. -1.
         21   -1    0    0  501  502 -0.00000000000E+00 -0.00000000000E+00 -0.42879120682E+03  0.42879120682E+03  0.00000000000E+00 0. -1.
      99926    2    1    2    0    0 -0.35527136788E-14  0.00000000000E+00 -0.30789652446E+03  0.54968588918E+03  0.45536173203E+03 0.  0.
      99925    2    3    3    0    0 -0.26442840956E+02 -0.10643084397E+03 -0.15866598159E+03  0.32620432079E+03  0.26307340573E+03 0.  0.
         25    1    4    4    0    0 -0.48276810813E+02 -0.48289612610E+02 -0.57136580203E+02  0.15354033361E+03  0.12509000000E+03 0.  0.
         25    1    3    3    0    0  0.26442840956E+02  0.10643084397E+03 -0.14923054287E+03  0.22348156839E+03  0.12509000000E+03 0.  0.
         25    1    4    4    0    0  0.21833969856E+02 -0.58141231359E+02 -0.10152940139E+03  0.17266398718E+03  0.12509000000E+03 0.  0.
<mgrwt>
<rscale>  2 0.45536173E+03</rscale>
<asrwt>0</asrwt>
<pdfrwt beam="1">  1       21 0.17778629E-01 0.45536173E+03</pdfrwt>
<pdfrwt beam="2">  1       21 0.63057533E-01 0.45536173E+03</pdfrwt>
<totfact> 0.61710467E+04</totfact>
</mgrwt>
</event>
<event>
 7    0  0.4725730E-002  0.4583705E+03  0.7546771E-02  0.1025255E+00
         21   -1    0    0  502  501  0.00000000000E+00  0.00000000000E+00  0.58445954709E+02  0.58445954709E+02  0.00000000000E+00 0.  1.
         21   -1    0    0  501  502 -0.00000000000E+00 -0.00000000000E+00 -0.89870847733E+03  0.89870847733E+03  0.00000000000E+00 0.  1.
      99926    2    1    2    0    0 -0.35527136788E-14  0.14210854715E-13 -0.84026252262E+03  0.95715443204E+03  0.45837048318E+03 0.  0.
      99925    2    3    3    0    0 -0.30558187117E+02 -0.95589069123E+02 -0.40457579213E+03  0.49288995120E+03  0.26303585210E+03 0.  0.
         25    1    4    4    0    0 -0.27653747994E+02 -0.23166185547E+02 -0.24585080624E+03  0.27819333018E+03  0.12509000000E+03 0.  0.
         25    1    3    3    0    0  0.30558187117E+02  0.95589069123E+02 -0.43568673050E+03  0.46426448084E+03  0.12509000000E+03 0.  0.
         25    1    4    4    0    0 -0.29044391226E+01 -0.72422883576E+02 -0.15872498589E+03  0.21469662102E+03  0.12509000000E+03 0.  0.
<mgrwt>
<rscale>  2 0.45837048E+03</rscale>
<asrwt>0</asrwt>
<pdfrwt beam="1">  1       21 0.85949931E-02 0.45837048E+03</pdfrwt>
<pdfrwt beam="2">  1       21 0.13216301E+00 0.45837048E+03</pdfrwt>
<totfact> 0.39793341E+04</totfact>
</mgrwt>
</event>
<event>
 7    0  0.4725730E-002  0.4457011E+03  0.7546771E-02  0.1029012E+00
         21   -1    0    0  502  501  0.00000000000E+00  0.00000000000E+00  0.16984208295E+03  0.16984208295E+03  0.00000000000E+00 0.  1.
         21   -1    0    0  501  502 -0.00000000000E+00 -0.00000000000E+00 -0.29240316111E+03  0.29240316111E+03  0.00000000000E+00 0.  1.
      99926    2    1    2    0    0  0.00000000000E+00 -0.13322676296E-14 -0.12256107816E+03  0.46224524405E+03  0.44570107445E+03 0.  0.
      99925    2    3    3    0    0  0.38028206903E+02 -0.25092225641E+01 -0.17841304179E+03  0.32005034028E+03  0.26296114944E+03 0.  0.
         25    1    4    4    0    0 -0.17581311558E+02  0.16777297157E+02 -0.83019121507E+02  0.15208636642E+03  0.12509000000E+03 0.  0.
         25    1    3    3    0    0 -0.38028206903E+02  0.25092225641E+01  0.55851963628E+02  0.14219490377E+03  0.12509000000E+03 0.  0.
         25    1    4    4    0    0  0.55609518462E+02 -0.19286519721E+02 -0.95393920282E+02  0.16796397386E+03  0.12509000000E+03 0.  0.
<mgrwt>
<rscale>  2 0.44570107E+03</rscale>
<asrwt>0</asrwt>
<pdfrwt beam="1">  1       21 0.24976777E-01 0.44570107E+03</pdfrwt>
<pdfrwt beam="2">  1       21 0.43000464E-01 0.44570107E+03</pdfrwt>
<totfact> 0.73274758E+04</totfact>
</mgrwt>
</event>
<event>
 7    0  0.4725730E-002  0.4673464E+03  0.7546771E-02  0.1022672E+00
         21   -1    0    0  502  501  0.00000000000E+00  0.00000000000E+00  0.70210268562E+03  0.70210268562E+03  0.00000000000E+00 0.  1.
         21   -1    0    0  501  502 -0.00000000000E+00 -0.00000000000E+00 -0.77770917703E+02  0.77770917703E+02  0.00000000000E+00 0.  1.
      99926    2    1    2    0    0  0.00000000000E+00  0.71054273576E-14  0.62433176792E+03  0.77987360333E+03  0.46734642475E+03 0.  0.
      99925    2    3    3    0    0 -0.48895517630E+01 -0.43904782674E+02  0.19451622517E+03  0.33005091987E+03  0.26295533879E+03 0.  0.
         25    1    4    4    0    0 -0.21855438888E+01 -0.46922775477E+02  0.14002140415E+03  0.19354592525E+03  0.12509000000E+03 0.  0.
         25    1    4    4    0    0 -0.27040078741E+01  0.30179928027E+01  0.54494821016E+02  0.13650499462E+03  0.12509000000E+03 0.  0.
         25    1    3    3    0    0  0.48895517630E+01  0.43904782674E+02  0.42981554275E+03  0.44982268345E+03  0.12509000000E+03 0.  0.
<mgrwt>
<rscale>  2 0.46734642E+03</rscale>
<asrwt>0</asrwt>
<pdfrwt beam="1">  1       21 0.10325039E+00 0.46734642E+03</pdfrwt>
<pdfrwt beam="2">  1       21 0.11436900E-01 0.46734642E+03</pdfrwt>
<totfact> 0.44301950E+04</totfact>
</mgrwt>
</event>
<event>
 7    0  0.4725730E-002  0.4200790E+03  0.7546771E-02  0.1037041E+00
         21   -1    0    0  502  501  0.00000000000E+00  0.00000000000E+00  0.33757482848E+03  0.33757482848E+03  0.00000000000E+00 0.  1.
         21   -1    0    0  501  502 -0.00000000000E+00 -0.00000000000E+00 -0.13068682407E+03  0.13068682407E+03  0.00000000000E+00 0.  1.
      99926    2    1    2    0    0 -0.35527136788E-14  0.00000000000E+00  0.20688800441E+03  0.46826165256E+03  0.42007895554E+03 0.  0.
      99925    2    3    3    0    0 -0.26745092853E+02  0.34264732780E+02  0.20398423948E+03  0.33580293501E+03  0.26318181794E+03 0.  0.
         25    1    4    4    0    0  0.23912848741E+02 -0.60626850363E+00  0.97317989268E+02  0.16028253502E+03  0.12509000000E+03 0.  0.
         25    1    3    3    0    0  0.26745092853E+02 -0.34264732780E+02  0.29037649315E+01  0.13245871755E+03  0.12509000000E+03 0.  0.
         25    1    4    4    0    0 -0.50657941594E+02  0.34871001284E+02  0.10666625021E+03  0.17552039999E+03  0.12509000000E+03 0.  0.
<mgrwt>
<rscale>  2 0.42007896E+03</rscale>
<asrwt>0</asrwt>
<pdfrwt beam="1">  1       21 0.49643357E-01 0.42007896E+03</pdfrwt>
<pdfrwt beam="2">  1       21 0.19218651E-01 0.42007896E+03</pdfrwt>
<totfact> 0.90056995E+04</totfact>
</mgrwt>
</event>
<event>
 7    0  0.4725730E-002  0.4340201E+03  0.7546771E-02  0.1032598E+00
         21   -1    0    0  502  501  0.00000000000E+00  0.00000000000E+00  0.17006272025E+04  0.17006272025E+04  0.00000000000E+00 0. -1.
         21   -1    0    0  501  502 -0.00000000000E+00 -0.00000000000E+00 -0.27691756316E+02  0.27691756316E+02  0.00000000000E+00 0. -1.
      99926    2    1    2    0    0  0.00000000000E+00  0.35527136788E-14  0.16729354462E+04  0.17283189588E+04  0.43402006440E+03 0.  0.
      99925    2    3    3    0    0  0.44655275191E+02 -0.30011188563E+02  0.13721437233E+04  0.13981403198E+04  0.26291289674E+03 0.  0.
         25    1    3    3    0    0 -0.44655275191E+02  0.30011188563E+02  0.30079172289E+03  0.33017863907E+03  0.12509000000E+03 0.  0.
         25    1    4    4    0    0  0.39605069810E+02 -0.52030081079E+02  0.74085918346E+03  0.75418534108E+03  0.12509000000E+03 0.  0.
         25    1    4    4    0    0  0.50502053808E+01  0.22018892517E+02  0.63128453985E+03  0.64395497867E+03  0.12509000000E+03 0.  0.
<mgrwt>
<rscale>  2 0.43402006E+03</rscale>
<asrwt>0</asrwt>
<pdfrwt beam="1">  1       21 0.25009217E+00 0.43402006E+03</pdfrwt>
<pdfrwt beam="2">  1       21 0.40723183E-02 0.43402006E+03</pdfrwt>
<totfact> 0.22057830E+04</totfact>
</mgrwt>
</event>
<event>
 7    0  0.4725730E-002  0.4557592E+03  0.7546771E-02  0.1026018E+00
         21   -1    0    0  502  501  0.00000000000E+00  0.00000000000E+00  0.63869998399E+03  0.63869998399E+03  0.00000000000E+00 0.  1.
         21   -1    0    0  501  502 -0.00000000000E+00 -0.00000000000E+00 -0.81304392466E+02  0.81304392466E+02  0.00000000000E+00 0.  1.
      99926    2    1    2    0    0 -0.71054273576E-14  0.71054273576E-14  0.55739559152E+03  0.72000437645E+03  0.45575920908E+03 0.  0.
      99925    2    3    3    0    0  0.46589913624E+02 -0.63267709109E+02  0.22066819395E+03  0.35230032230E+03  0.26314946742E+03 0.  0.
         25    1    4    4    0    0 -0.83618755353E+01 -0.54383469092E+01  0.11438493644E+03  0.16979669715E+03  0.12509000000E+03 0.  0.
         25    1    4    4    0    0  0.54951789159E+02 -0.57829362200E+02  0.10628325752E+03  0.18250362515E+03  0.12509000000E+03 0.  0.
         25    1    3    3    0    0 -0.46589913624E+02  0.63267709109E+02  0.33672739757E+03  0.36770405415E+03  0.12509000000E+03 0.  0.
<mgrwt>
<rscale>  2 0.45575921E+03</rscale>
<asrwt>0</asrwt>
<pdfrwt beam="1">  1       21 0.93926466E-01 0.45575921E+03</pdfrwt>
<pdfrwt beam="2">  1       21 0.11956529E-01 0.45575921E+03</pdfrwt>
<totfact> 0.51521952E+04</totfact>
</mgrwt>
</event>
<event>
 7    0  0.4725730E-002  0.4529290E+03  0.7546771E-02  0.1026852E+00
         21   -1    0    0  502  501  0.00000000000E+00  0.00000000000E+00  0.23010467717E+03  0.23010467717E+03  0.00000000000E+00 0.  1.
         21   -1    0    0  501  502 -0.00000000000E+00 -0.00000000000E+00 -0.22288195126E+03  0.22288195126E+03  0.00000000000E+00 0.  1.
      99926    2    1    2    0    0  0.00000000000E+00  0.00000000000E+00  0.72227259069E+01  0.45298662844E+03  0.45292904276E+03 0.  0.
      99925    2    3    3    0    0 -0.43752174366E+02 -0.95520268478E+02  0.40910378275E+02  0.28619112348E+03  0.26304624243E+03 0.  0.
         25    1    4    4    0    0  0.12609530245E+02 -0.23218865117E+02  0.11763613050E+02  0.12839005663E+03  0.12509000000E+03 0.  0.
         25    1    3    3    0    0  0.43752174366E+02  0.95520268478E+02 -0.33687652368E+02  0.16679550496E+03  0.12509000000E+03 0.  0.
         25    1    4    4    0    0 -0.56361704611E+02 -0.72301403361E+02  0.29146765225E+02  0.15780106685E+03  0.12509000000E+03 0.  0.
<mgrwt>
<rscale>  2 0.45292904E+03</rscale>
<asrwt>0</asrwt>
<pdfrwt beam="1">  1       21 0.33838923E-01 0.45292904E+03</pdfrwt>
<pdfrwt beam="2">  1       21 0.32776758E-01 0.45292904E+03</pdfrwt>
<totfact> 0.69840477E+04</totfact>
</mgrwt>
</event>
<event>
 7    0  0.4725730E-002  0.4662145E+03  0.7546771E-02  0.1022994E+00
         21   -1    0    0  502  501  0.00000000000E+00  0.00000000000E+00  0.21651598946E+03  0.21651598946E+03  0.00000000000E+00 0.  1.
         21   -1    0    0  501  502 -0.00000000000E+00 -0.00000000000E+00 -0.25096984713E+03  0.25096984713E+03  0.00000000000E+00 0.  1.
      99926    2    1    2    0    0  0.00000000000E+00  0.00000000000E+00 -0.34453857672E+02  0.46748583659E+03  0.46621447758E+03 0.  0.
      99925    2    3    3    0    0  0.35624956305E+02 -0.11833446769E+03 -0.23205232156E+02  0.29128645114E+03  0.26274917710E+03 0.  0.
         25    1    4    4    0    0 -0.67507227992E+01 -0.35155654118E+02 -0.35064359815E+02  0.13475351463E+03  0.12509000000E+03 0.  0.
         25    1    4    4    0    0  0.42375679104E+02 -0.83178813570E+02  0.11859127659E+02  0.15653293652E+03  0.12509000000E+03 0.  0.
         25    1    3    3    0    0 -0.35624956305E+02  0.11833446769E+03 -0.11248625517E+02  0.17619938544E+03  0.12509000000E+03 0.  0.
<mgrwt>
<rscale>  2 0.46621448E+03</rscale>
<asrwt>0</asrwt>
<pdfrwt beam="1">  1       21 0.31840587E-01 0.46621448E+03</pdfrwt>
<pdfrwt beam="2">  1       21 0.36907330E-01 0.46621448E+03</pdfrwt>
<totfact> 0.61912615E+04</totfact>
</mgrwt>
</event>
<event>
 7    0  0.4725730E-002  0.4584419E+03  0.7546771E-02  0.1025234E+00
         21   -1    0    0  502  501  0.00000000000E+00  0.00000000000E+00  0.56558019011E+03  0.56558019011E+03  0.00000000000E+00 0. -1.
         21   -1    0    0  501  502 -0.00000000000E+00 -0.00000000000E+00 -0.92899730714E+02  0.92899730714E+02  0.00000000000E+00 0. -1.
      99926    2    1    2    0    0  0.14210854715E-13  0.00000000000E+00  0.47268045940E+03  0.65847992082E+03  0.45844191500E+03 0.  0.
      99925    2    3    3    0    0  0.93110583826E+02 -0.53833752173E+02  0.23295047071E+03  0.36747196686E+03  0.26306286498E+03 0.  0.
         25    1    4    4    0    0  0.69151207380E+02 -0.36546172159E+02  0.16759636530E+03  0.22327911220E+03  0.12509000000E+03 0.  0.
         25    1    4    4    0    0  0.23959376446E+02 -0.17287580015E+02  0.65354105409E+02  0.14419285466E+03  0.12509000000E+03 0.  0.
         25    1    3    3    0    0 -0.93110583826E+02  0.53833752173E+02  0.23972998869E+03  0.29100795396E+03  0.12509000000E+03 0.  0.
<mgrwt>
<rscale>  2 0.45844192E+03</rscale>
<asrwt>0</asrwt>
<pdfrwt beam="1">  1       21 0.83173556E-01 0.45844192E+03</pdfrwt>
<pdfrwt beam="2">  1       21 0.13661725E-01 0.45844192E+03</pdfrwt>
<totfact> 0.53741680E+04</totfact>
</mgrwt>
</event>
<event>
 7    0  0.4725730E-002  0.4559448E+03  0.7546771E-02  0.1025964E+00
         21   -1    0    0  502  501  0.00000000000E+00  0.00000000000E+00  0.11088438417E+04  0.11088438417E+04  0.00000000000E+00 0.  1.
         21   -1    0    0  501  502 -0.00000000000E+00 -0.00000000000E+00 -0.46869904189E+02  0.46869904189E+02  0.00000000000E+00 0.  1.
      99926    2    1    2    0    0  0.00000000000E+00  0.00000000000E+00  0.10619739375E+04  0.11557137459E+04  0.45594475377E+03 0.  0.
      99925    2    3    3    0    0 -0.11308007509E+03 -0.11194137927E+02  0.63506864912E+03  0.69657537300E+03  0.26266451809E+03 0.  0.
         25    1    4    4    0    0 -0.13901964994E+02  0.24570275643E+01  0.27090627661E+03  0.29872566081E+03  0.12509000000E+03 0.  0.
         25    1    3    3    0    0  0.11308007509E+03  0.11194137927E+02  0.42690528840E+03  0.45913837290E+03  0.12509000000E+03 0.  0.
         25    1    4    4    0    0 -0.99178110097E+02 -0.13651165491E+02  0.36416237251E+03  0.39784971219E+03  0.12509000000E+03 0.  0.
<mgrwt>
<rscale>  2 0.45594475E+03</rscale>
<asrwt>0</asrwt>
<pdfrwt beam="1">  1       21 0.16306525E+00 0.45594475E+03</pdfrwt>
<pdfrwt beam="2">  1       21 0.68926337E-02 0.45594475E+03</pdfrwt>
<totfact> 0.33345977E+04</totfact>
</mgrwt>
</event>
<event>
 7    0  0.4725730E-002  0.4536091E+03  0.7546771E-02  0.1026651E+00
         21   -1    0    0  502  501  0.00000000000E+00  0.00000000000E+00  0.20531558193E+04  0.20531558193E+04  0.00000000000E+00 0.  1.
         21   -1    0    0  501  502 -0.00000000000E+00 -0.00000000000E+00 -0.25054265929E+02  0.25054265929E+02  0.00000000000E+00 0.  1.
      99926    2    1    2    0    0  0.00000000000E+00  0.00000000000E+00  0.20281015534E+04  0.20782100853E+04  0.45360913523E+03 0.  0.
      99925    2    3    3    0    0  0.65737607589E+02 -0.63284514792E+02  0.15747816328E+04  0.15991768699E+04  0.26287469921E+03 0.  0.
         25    1    4    4    0    0  0.54522001787E+02 -0.37047494153E+02  0.62668181414E+03  0.64243503156E+03  0.12509000000E+03 0.  0.
         25    1    4    4    0    0  0.11215605802E+02 -0.26237020638E+02  0.94809981866E+03  0.95674183838E+03  0.12509000000E+03 0.  0.
         25    1    3    3    0    0 -0.65737607589E+02  0.63284514792E+02  0.45331992061E+03  0.47903321532E+03  0.12509000000E+03 0.  0.
<mgrwt>
<rscale>  2 0.45360914E+03</rscale>
<asrwt>0</asrwt>
<pdfrwt beam="1">  1       21 0.30193456E+00 0.45360914E+03</pdfrwt>
<pdfrwt beam="2">  1       21 0.36844523E-02 0.45360914E+03</pdfrwt>
<totfact> 0.12610384E+04</totfact>
</mgrwt>
</event>
<event>
 7    0  0.4725730E-002  0.4122375E+03  0.7546771E-02  0.1039623E+00
         21   -1    0    0  502  501  0.00000000000E+00  0.00000000000E+00  0.72287100870E+03  0.72287100870E+03  0.00000000000E+00 0.  1.
         21   -1    0    0  501  502 -0.00000000000E+00 -0.00000000000E+00 -0.58772517870E+02  0.58772517870E+02  0.00000000000E+00 0.  1.
      99926    2    1    2    0    0  0.00000000000E+00  0.00000000000E+00  0.66409849083E+03  0.78164352657E+03  0.41223754936E+03 0.  0.
      99925    2    3    3    0    0 -0.19837078721E+02  0.58820801213E+02  0.39723571261E+03  0.48045148344E+03  0.26302855399E+03 0.  0.
         25    1    4    4    0    0 -0.24397566906E+02  0.50350390508E+02  0.14976951123E+03  0.20299955096E+03  0.12509000000E+03 0.  0.
         25    1    3    3    0    0  0.19837078721E+02 -0.58820801213E+02  0.26686277821E+03  0.30119204313E+03  0.12509000000E+03 0.  0.
         25    1    4    4    0    0  0.45604881856E+01  0.84704107053E+01  0.24746620138E+03  0.27745193248E+03  0.12509000000E+03 0.  0.
<mgrwt>
<rscale>  2 0.41223755E+03</rscale>
<asrwt>0</asrwt>
<pdfrwt beam="1">  1       21 0.10630455E+00 0.41223755E+03</pdfrwt>
<pdfrwt beam="2">  1       21 0.86430178E-02 0.41223755E+03</pdfrwt>
<totfact> 0.69100620E+04</totfact>
</mgrwt>
</event>
<event>
 7    0  0.4725730E-002  0.4358442E+03  0.7546771E-02  0.1032030E+00
         21   -1    0    0  502  501  0.00000000000E+00  0.00000000000E+00  0.29096404336E+03  0.29096404336E+03  0.00000000000E+00 0. -1.
         21   -1    0    0  501  502 -0.00000000000E+00 -0.00000000000E+00 -0.16321619970E+03  0.16321619970E+03  0.00000000000E+00 0. -1.
      99926    2    1    2    0    0  0.00000000000E+00  0.00000000000E+00  0.12774784366E+03  0.45418024306E+03  0.43584421715E+03 0.  0.
      99925    2    3    3    0    0  0.44638734798E+02 -0.73211463048E+02  0.12174824821E+03  0.30240396622E+03  0.26319762134E+03 0.  0.
         25    1    4    4    0    0  0.39042904252E+02 -0.76146045328E+02  0.67550609475E+02  0.16593119517E+03  0.12509000000E+03 0.  0.
         25    1    3    3    0    0 -0.44638734798E+02  0.73211463048E+02  0.59995954507E+01  0.15177627684E+03  0.12509000000E+03 0.  0.
         25    1    4    4    0    0  0.55958305454E+01  0.29345822801E+01  0.54197638733E+02  0.13647277105E+03  0.12509000000E+03 0.  0.
<mgrwt>
<rscale>  2 0.43584422E+03</rscale>
<asrwt>0</asrwt>
<pdfrwt beam="1">  1       21 0.42788830E-01 0.43584422E+03</pdfrwt>
<pdfrwt beam="2">  1       21 0.24002382E-01 0.43584422E+03</pdfrwt>
<totfact> 0.80132662E+04</totfact>
</mgrwt>
</event>
<event>
 7    0  0.4725730E-002  0.4488495E+03  0.7546771E-02  0.1028066E+00
         21   -1    0    0  502  501  0.00000000000E+00  0.00000000000E+00  0.67007209764E+02  0.67007209764E+02  0.00000000000E+00 0.  1.
         21   -1    0    0  501  502 -0.00000000000E+00 -0.00000000000E+00 -0.75165738904E+03  0.75165738904E+03  0.00000000000E+00 0.  1.
      99926    2    1    2    0    0  0.71054273576E-14  0.00000000000E+00 -0.68465017928E+03  0.81866459881E+03  0.44884948185E+03 0.  0.
      99925    2    3    3    0    0  0.62368004055E+02 -0.85099286839E+02 -0.46859376532E+03  0.54763039679E+03  0.26303474683E+03 0.  0.
         25    1    3    3    0    0 -0.62368004055E+02  0.85099286839E+02 -0.21605641396E+03  0.27103420202E+03  0.12509000000E+03 0.  0.
         25    1    4    4    0    0  0.19382828336E+02 -0.63503166582E+01 -0.24974809917E+03  0.28006720924E+03  0.12509000000E+03 0.  0.
         25    1    4    4    0    0  0.42985175719E+02 -0.78748970181E+02 -0.21884566615E+03  0.26756318755E+03  0.12509000000E+03 0.  0.
<mgrwt>
<rscale>  2 0.44884948E+03</rscale>
<asrwt>0</asrwt>
<pdfrwt beam="1">  1       21 0.98540019E-02 0.44884948E+03</pdfrwt>
<pdfrwt beam="2">  1       21 0.11053785E+00 0.44884948E+03</pdfrwt>
<totfact> 0.49207436E+04</totfact>
</mgrwt>
</event>
<event>
 7    0  0.4725730E-002  0.4590522E+03  0.7546771E-02  0.1025056E+00
         21   -1    0    0  502  501  0.00000000000E+00  0.00000000000E+00  0.17539275756E+02  0.17539275756E+02  0.00000000000E+00 0.  1.
         21   -1    0    0  501  502 -0.00000000000E+00 -0.00000000000E+00 -0.30036716753E+04  0.30036716753E+04  0.00000000000E+00 0.  1.
      99926    2    1    2    0    0  0.17763568394E-14  0.00000000000E+00 -0.29861323995E+04  0.30212109510E+04  0.45905217914E+03 0.  0.
      99925    2    3    3    0    0 -0.14573893852E+02 -0.11131235039E+03 -0.16567832991E+04  0.16812783495E+04  0.26298887928E+03 0.  0.
         25    1    4    4    0    0 -0.26494907861E+02 -0.79739834020E+02 -0.10548438862E+04  0.10655531679E+04  0.12509000000E+03 0.  0.
         25    1    4    4    0    0  0.11921014008E+02 -0.31572516372E+02 -0.60193941294E+03  0.61572518165E+03  0.12509000000E+03 0.  0.
         25    1    3    3    0    0  0.14573893852E+02  0.11131235039E+03 -0.13293491004E+04  0.13399326015E+04  0.12509000000E+03 0.  0.
<mgrwt>
<rscale>  2 0.45905218E+03</rscale>
<asrwt>0</asrwt>
<pdfrwt beam="1">  1       21 0.25793094E-02 0.45905218E+03</pdfrwt>
<pdfrwt beam="2">  1       21 0.44171572E+00 0.45905218E+03</pdfrwt>
<totfact> 0.30342812E+03</totfact>
</mgrwt>
</event>
<event>
 7    0  0.4725730E-002  0.4556372E+03  0.7546771E-02  0.1026054E+00
         21   -1    0    0  502  501  0.00000000000E+00  0.00000000000E+00  0.94031528477E+02  0.94031528477E+02  0.00000000000E+00 0.  1.
         21   -1    0    0  501  502 -0.00000000000E+00 -0.00000000000E+00 -0.55195650523E+03  0.55195650523E+03  0.00000000000E+00 0.  1.
      99926    2    1    2    0    0  0.00000000000E+00  0.00000000000E+00 -0.45792497676E+03  0.64598803371E+03  0.45563719708E+03 0.  0.
      99925    2    3    3    0    0 -0.27771132658E+02 -0.10243387734E+03 -0.23014597543E+03  0.36528406762E+03  0.26306148523E+03 0.  0.
         25    1    4    4    0    0 -0.34823902473E+02 -0.42502800385E+02 -0.70710209963E+02  0.15383963767E+03  0.12509000000E+03 0.  0.
         25    1    4    4    0    0  0.70527698155E+01 -0.59931076954E+02 -0.15943576547E+03  0.21144442995E+03  0.12509000000E+03 0.  0.
         25    1    3    3    0    0  0.27771132658E+02  0.10243387734E+03 -0.22777900133E+03  0.28070396609E+03  0.12509000000E+03 0.  0.
<mgrwt>
<rscale>  2 0.45563720E+03</rscale>
<asrwt>0</asrwt>
<pdfrwt beam="1">  1       21 0.13828166E-01 0.45563720E+03</pdfrwt>
<pdfrwt beam="2">  1       21 0.81170072E-01 0.45563720E+03</pdfrwt>
<totfact> 0.55652888E+04</totfact>
</mgrwt>
</event>
<event>
 7    0  0.4725730E-002  0.4476952E+03  0.7546771E-02  0.1028412E+00
         21   -1    0    0  502  501  0.00000000000E+00  0.00000000000E+00  0.22577398298E+03  0.22577398298E+03  0.00000000000E+00 0.  1.
         21   -1    0    0  501  502 -0.00000000000E+00 -0.00000000000E+00 -0.22193765585E+03  0.22193765585E+03  0.00000000000E+00 0.  1.
      99926    2    1    2    0    0  0.00000000000E+00  0.71054273576E-14  0.38363271237E+01  0.44771163883E+03  0.44769520228E+03 0.  0.
      99925    2    3    3    0    0 -0.88301597394E+02  0.59032251222E+02  0.82684418177E+00  0.28358198315E+03  0.26293740455E+03 0.  0.
         25    1    4    4    0    0 -0.77385638760E+02  0.67184216221E+01  0.70339336460E+01  0.14741322396E+03  0.12509000000E+03 0.  0.
         25    1    4    4    0    0 -0.10915958634E+02  0.52313829600E+02 -0.62070894642E+01  0.13616875919E+03  0.12509000000E+03 0.  0.
         25    1    3    3    0    0  0.88301597394E+02 -0.59032251222E+02  0.30094829419E+01  0.16412965568E+03  0.12509000000E+03 0.  0.
<mgrwt>
<rscale>  2 0.44769520E+03</rscale>
<asrwt>0</asrwt>
<pdfrwt beam="1">  1       21 0.33202056E-01 0.44769520E+03</pdfrwt>
<pdfrwt beam="2">  1       21 0.32637890E-01 0.44769520E+03</pdfrwt>
<totfact> 0.73260837E+04</totfact>
</mgrwt>
</event>
<event>
 7    0  0.4725730E-002  0.4292709E+03  0.7546771E-02  0.1034091E+00
         21   -1    0    0  502  501  0.00000000000E+00  0.00000000000E+00  0.37094905717E+02  0.37094905717E+02  0.00000000000E+00 0. -1.
         21   -1    0    0  501  502 -0.00000000000E+00 -0.00000000000E+00 -0.12419056366E+04  0.12419056366E+04  0.00000000000E+00 0. -1.
      99926    2    1    2    0    0 -0.71054273576E-14  0.00000000000E+00 -0.12048107309E+04  0.12790005423E+04  0.42927088184E+03 0.  0.
      99925    2    3    3    0    0 -0.59306806598E+02 -0.62612281324E+02 -0.75418732605E+03  0.80345185274E+03  0.26324657985E+03 0.  0.
         25    1    3    3    0    0  0.59306806598E+02  0.62612281324E+02 -0.45062340483E+03  0.47554868958E+03  0.12509000000E+03 0.  0.
         25    1    4    4    0    0 -0.49491335532E+02 -0.29691964179E+01 -0.30732369604E+03  0.33549004555E+03  0.12509000000E+03 0.  0.
         25    1    4    4    0    0 -0.98154710660E+01 -0.59643084906E+02 -0.44686363002E+03  0.46796180718E+03  0.12509000000E+03 0.  0.
<mgrwt>
<rscale>  2 0.42927088E+03</rscale>
<asrwt>0</asrwt>
<pdfrwt beam="1">  1       21 0.54551347E-02 0.42927088E+03</pdfrwt>
<pdfrwt beam="2">  1       21 0.18263313E+00 0.42927088E+03</pdfrwt>
<totfact> 0.36508695E+04</totfact>
</mgrwt>
</event>
<event>
 7    0  0.4725730E-002  0.4454822E+03  0.7546771E-02  0.1029078E+00
         21   -1    0    0  502  501  0.00000000000E+00  0.00000000000E+00  0.23481009256E+03  0.23481009256E+03  0.00000000000E+00 0. -1.
         21   -1    0    0  501  502 -0.00000000000E+00 -0.00000000000E+00 -0.21129240678E+03  0.21129240678E+03  0.00000000000E+00 0. -1.
      99926    2    1    2    0    0  0.00000000000E+00  0.00000000000E+00  0.23517685787E+02  0.44610249934E+03  0.44548216392E+03 0.  0.
      99925    2    3    3    0    0  0.33454618969E+02  0.84044355592E+02 -0.36498975706E+02  0.28047589219E+03  0.26296746118E+03 0.  0.
         25    1    3    3    0    0 -0.33454618969E+02 -0.84044355592E+02  0.60016661493E+02  0.16562660714E+03  0.12509000000E+03 0.  0.
         25    1    4    4    0    0  0.44300822051E+02  0.17082097817E+02 -0.34450331552E+02  0.13816184113E+03  0.12509000000E+03 0.  0.
         25    1    4    4    0    0 -0.10846203082E+02  0.66962257774E+02 -0.20486441540E+01  0.14231405106E+03  0.12509000000E+03 0.  0.
<mgrwt>
<rscale>  2 0.44548216E+03</rscale>
<asrwt>0</asrwt>
<pdfrwt beam="1">  1       21 0.34530896E-01 0.44548216E+03</pdfrwt>
<pdfrwt beam="2">  1       21 0.31072413E-01 0.44548216E+03</pdfrwt>
<totfact> 0.74717595E+04</totfact>
</mgrwt>
</event>
<event>
 7    0  0.4725730E-002  0.4461314E+03  0.7546771E-02  0.1028882E+00
         21   -1    0    0  502  501  0.00000000000E+00  0.00000000000E+00  0.45003791159E+02  0.45003791159E+02  0.00000000000E+00 0. -1.
         21   -1    0    0  501  502 -0.00000000000E+00 -0.00000000000E+00 -0.11056470207E+04  0.11056470207E+04  0.00000000000E+00 0. -1.
      99926    2    1    2    0    0  0.00000000000E+00  0.00000000000E+00 -0.10606432295E+04  0.11506508118E+04  0.44613140492E+03 0.  0.
      99925    2    3    3    0    0 -0.79856504201E+02  0.62274662845E+02 -0.60519679983E+03  0.66760407154E+03  0.26301489485E+03 0.  0.
         25    1    4    4    0    0 -0.32738300843E+01  0.40553618054E+02 -0.24488319293E+03  0.27797589856E+03  0.12509000000E+03 0.  0.
         25    1    3    3    0    0  0.79856504201E+02 -0.62274662845E+02 -0.45544642968E+03  0.48304674029E+03  0.12509000000E+03 0.  0.
         25    1    4    4    0    0 -0.76582674117E+02  0.21721044791E+02 -0.36031360690E+03  0.38962817298E+03  0.12509000000E+03 0.  0.
<mgrwt>
<rscale>  2 0.44613140E+03</rscale>
<asrwt>0</asrwt>
<pdfrwt beam="1">  1       21 0.66182042E-02 0.44613140E+03</pdfrwt>
<pdfrwt beam="2">  1       21 0.16259516E+00 0.44613140E+03</pdfrwt>
<totfact> 0.36198655E+04</totfact>
</mgrwt>
</event>
<event>
 7    0  0.4725730E-002  0.4547821E+03  0.7546771E-02  0.1026306E+00
         21   -1    0    0  502  501  0.00000000000E+00  0.00000000000E+00  0.68366328474E+02  0.68366328474E+02  0.00000000000E+00 0.  1.
         21   -1    0    0  501  502 -0.00000000000E+00 -0.00000000000E+00 -0.75631798064E+03  0.75631798064E+03  0.00000000000E+00 0.  1.
      99926    2    1    2    0    0 -0.35527136788E-14  0.00000000000E+00 -0.68795165216E+03  0.82468430911E+03  0.45478207306E+03 0.  0.
      99925    2    3    3    0    0 -0.29316464284E+02  0.10918785933E+03 -0.44793390795E+03  0.53136286540E+03  0.26252669413E+03 0.  0.
         25    1    4    4    0    0  0.22824563452E+02  0.46081515826E+02 -0.23602745264E+03  0.27203112560E+03  0.12509000000E+03 0.  0.
         25    1    3    3    0    0  0.29316464284E+02 -0.10918785933E+03 -0.24001774422E+03  0.29332144372E+03  0.12509000000E+03 0.  0.
         25    1    4    4    0    0 -0.52141027736E+02  0.63106343504E+02 -0.21190645531E+03  0.25933173980E+03  0.12509000000E+03 0.  0.
<mgrwt>
<rscale>  2 0.45478207E+03</rscale>
<asrwt>0</asrwt>
<pdfrwt beam="1">  1       21 0.10053871E-01 0.45478207E+03</pdfrwt>
<pdfrwt beam="2">  1       21 0.11122324E+00 0.45478207E+03</pdfrwt>
<totfact> 0.46673684E+04</totfact>
</mgrwt>
</event>
<event>
 7    0  0.4725730E-002  0.4334597E+03  0.7546771E-02  0.1032773E+00
         21   -1    0    0  502  501  0.00000000000E+00  0.00000000000E+00  0.73728307797E+03  0.73728307797E+03  0.00000000000E+00 0.  1.
         21   -1    0    0  501  502 -0.00000000000E+00 -0.00000000000E+00 -0.63709339570E+02  0.63709339570E+02  0.00000000000E+00 0.  1.
      99926    2    1    2    0    0 -0.17763568394E-14  0.00000000000E+00  0.67357373840E+03  0.80099241754E+03  0.43345965429E+03 0.  0.
      99925    2    3    3    0    0 -0.44076319687E+01  0.22339285927E+02  0.27074688055E+03  0.37857620523E+03  0.26362397259E+03 0.  0.
         25    1    4    4    0    0  0.22625567056E+02 -0.22304722805E+02  0.13291177047E+03  0.18526322834E+03  0.12509000000E+03 0.  0.
         25    1    3    3    0    0  0.44076319687E+01 -0.22339285927E+02  0.40282685785E+03  0.42241621231E+03  0.12509000000E+03 0.  0.
         25    1    4    4    0    0 -0.27033199025E+02  0.44644008731E+02  0.13783511008E+03  0.19331297689E+03  0.12509000000E+03 0.  0.
<mgrwt>
<rscale>  2 0.43345965E+03</rscale>
<asrwt>0</asrwt>
<pdfrwt beam="1">  1       21 0.10842398E+00 0.43345965E+03</pdfrwt>
<pdfrwt beam="2">  1       21 0.93690210E-02 0.43345965E+03</pdfrwt>
<totfact> 0.56713347E+04</totfact>
</mgrwt>
</event>
<event>
 7    0  0.4725730E-002  0.4623200E+03  0.7546771E-02  0.1024111E+00
         21   -1    0    0  502  501  0.00000000000E+00  0.00000000000E+00  0.39761777817E+03  0.39761777817E+03  0.00000000000E+00 0. -1.
         21   -1    0    0  501  502 -0.00000000000E+00 -0.00000000000E+00 -0.13438769235E+03  0.13438769235E+03  0.00000000000E+00 0. -1.
      99926    2    1    2    0    0  0.00000000000E+00  0.00000000000E+00  0.26323008583E+03  0.53200547052E+03  0.46231995693E+03 0.  0.
      99925    2    3    3    0    0  0.26056729008E+02  0.87643735968E+02  0.75936197338E+02  0.28892752757E+03  0.26334850017E+03 0.  0.
         25    1    3    3    0    0 -0.26056729008E+02 -0.87643735968E+02  0.18729388849E+03  0.24307794294E+03  0.12509000000E+03 0.  0.
         25    1    4    4    0    0  0.88851867942E+01  0.57465135722E+02  0.79205752639E+02  0.15906680269E+03  0.12509000000E+03 0.  0.
         25    1    4    4    0    0  0.17171542214E+02  0.30178600246E+02 -0.32695553002E+01  0.12986072488E+03  0.12509000000E+03 0.  0.
<mgrwt>
<rscale>  2 0.46231996E+03</rscale>
<asrwt>0</asrwt>
<pdfrwt beam="1">  1       21 0.58473202E-01 0.46231996E+03</pdfrwt>
<pdfrwt beam="2">  1       21 0.19762896E-01 0.46231996E+03</pdfrwt>
<totfact> 0.59540577E+04</totfact>
</mgrwt>
</event>
<event>
 7    0  0.4725730E-002  0.4508422E+03  0.7546771E-02  0.1027471E+00
         21   -1    0    0  502  501  0.00000000000E+00  0.00000000000E+00  0.73124597316E+03  0.73124597316E+03  0.00000000000E+00 0. -1.
         21   -1    0    0  501  502 -0.00000000000E+00 -0.00000000000E+00 -0.69490529544E+02  0.69490529544E+02  0.00000000000E+00 0. -1.
      99926    2    1    2    0    0  0.00000000000E+00 -0.13322676296E-14  0.66175544362E+03  0.80073650270E+03  0.45084218925E+03 0.  0.
      99925    2    3    3    0    0  0.91368586740E+02  0.10465785389E+01  0.31128207380E+03  0.41755455504E+03  0.26288013046E+03 0.  0.
         25    1    4    4    0    0  0.36974678955E+02  0.15130303623E+02  0.20758157997E+03  0.24562913796E+03  0.12509000000E+03 0.  0.
         25    1    3    3    0    0 -0.91368586740E+02 -0.10465785389E+01  0.35047336981E+03  0.38318194767E+03  0.12509000000E+03 0.  0.
         25    1    4    4    0    0  0.54393907785E+02 -0.14083725084E+02  0.10370049383E+03  0.17192541708E+03  0.12509000000E+03 0.  0.
<mgrwt>
<rscale>  2 0.45084219E+03</rscale>
<asrwt>0</asrwt>
<pdfrwt beam="1">  1       21 0.10753617E+00 0.45084219E+03</pdfrwt>
<pdfrwt beam="2">  1       21 0.10219196E-01 0.45084219E+03</pdfrwt>
<totfact> 0.49318877E+04</totfact>
</mgrwt>
</event>
<event>
 7    0  0.4725730E-002  0.4769697E+03  0.7546771E-02  0.1019971E+00
         21   -1    0    0  502  501  0.00000000000E+00  0.00000000000E+00  0.24581196558E+03  0.24581196558E+03  0.00000000000E+00 0. -1.
         21   -1    0    0  501  502 -0.00000000000E+00 -0.00000000000E+00 -0.23137615373E+03  0.23137615373E+03  0.00000000000E+00 0. -1.
      99926    2    1    2    0    0  0.71054273576E-14  0.00000000000E+00  0.14435811848E+02  0.47718811931E+03  0.47696971450E+03 0.  0.
      99925    2    3    3    0    0 -0.63637045665E+02  0.11111029958E+03 -0.26079814284E+02  0.29365557093E+03  0.26297959118E+03 0.  0.
         25    1    4    4    0    0 -0.37727299490E+02  0.15746229467E+02 -0.26487751716E+02  0.13424009073E+03  0.12509000000E+03 0.  0.
         25    1    3    3    0    0  0.63637045665E+02 -0.11111029958E+03  0.40515626131E+02  0.18353254838E+03  0.12509000000E+03 0.  0.
         25    1    4    4    0    0 -0.25909746175E+02  0.95364070110E+02  0.40793743253E+00  0.15941548020E+03  0.12509000000E+03 0.  0.
<mgrwt>
<rscale>  2 0.47696971E+03</rscale>
<asrwt>0</asrwt>
<pdfrwt beam="1">  1       21 0.36148818E-01 0.47696971E+03</pdfrwt>
<pdfrwt beam="2">  1       21 0.34025905E-01 0.47696971E+03</pdfrwt>
<totfact> 0.56396440E+04</totfact>
</mgrwt>
</event>
<event>
 7    0  0.4725730E-002  0.4629841E+03  0.7546771E-02  0.1023919E+00
         21   -1    0    0  502  501  0.00000000000E+00  0.00000000000E+00  0.32816535788E+02  0.32816535788E+02  0.00000000000E+00 0.  1.
         21   -1    0    0  501  502 -0.00000000000E+00 -0.00000000000E+00 -0.16329746021E+04  0.16329746021E+04  0.00000000000E+00 0.  1.
      99926    2    1    2    0    0  0.00000000000E+00  0.14210854715E-13 -0.16001580663E+04  0.16657911379E+04  0.46298410112E+03 0.  0.
      99925    2    3    3    0    0 -0.27595707805E+02 -0.11067277017E+03 -0.86006423856E+03  0.90658341459E+03  0.26300761967E+03 0.  0.
         25    1    4    4    0    0 -0.47692536708E+02 -0.71844212917E+02 -0.40261483704E+03  0.43032822832E+03  0.12509000000E+03 0.  0.
         25    1    3    3    0    0  0.27595707805E+02  0.11067277017E+03 -0.74009382777E+03  0.75920772332E+03  0.12509000000E+03 0.  0.
         25    1    4    4    0    0  0.20096828903E+02 -0.38828557255E+02 -0.45744940152E+03  0.47625518627E+03  0.12509000000E+03 0.  0.
<mgrwt>
<rscale>  2 0.46298410E+03</rscale>
<asrwt>0</asrwt>
<pdfrwt beam="1">  1       21 0.48259606E-02 0.46298410E+03</pdfrwt>
<pdfrwt beam="2">  1       21 0.24014335E+00 0.46298410E+03</pdfrwt>
<totfact> 0.18790978E+04</totfact>
</mgrwt>
</event>
<event>
 7    0  0.4725730E-002  0.4546101E+03  0.7546771E-02  0.1026356E+00
         21   -1    0    0  502  501  0.00000000000E+00  0.00000000000E+00  0.53728676929E+03  0.53728676929E+03  0.00000000000E+00 0. -1.
         21   -1    0    0  501  502 -0.00000000000E+00 -0.00000000000E+00 -0.96163904536E+02  0.96163904536E+02  0.00000000000E+00 0. -1.
      99926    2    1    2    0    0 -0.71054273576E-14 -0.88817841970E-15  0.44112286476E+03  0.63345067383E+03  0.45461013447E+03 0.  0.
      99925    2    3    3    0    0  0.36755077910E+02  0.68145185196E+01  0.13033832194E+03  0.29635734318E+03  0.26351892394E+03 0.  0.
         25    1    3    3    0    0 -0.36755077910E+02 -0.68145185196E+01  0.31078454282E+03  0.33709333065E+03  0.12509000000E+03 0.  0.
         25    1    4    4    0    0  0.31364354115E+02  0.30643134912E+02  0.98055282965E+02  0.16487895877E+03  0.12509000000E+03 0.  0.
         25    1    4    4    0    0  0.53907237950E+01 -0.23828616393E+02  0.32283038974E+02  0.13147838441E+03  0.12509000000E+03 0.  0.
<mgrwt>
<rscale>  2 0.45461013E+03</rscale>
<asrwt>0</asrwt>
<pdfrwt beam="1">  1       21 0.79012759E-01 0.45461013E+03</pdfrwt>
<pdfrwt beam="2">  1       21 0.14141751E-01 0.45461013E+03</pdfrwt>
<totfact> 0.56839824E+04</totfact>
</mgrwt>
</event>
<event>
 7    0  0.4725730E-002  0.4478705E+03  0.7546771E-02  0.1028359E+00
         21   -1    0    0  502  501  0.00000000000E+00  0.00000000000E+00  0.26286610363E+03  0.26286610363E+03  0.00000000000E+00 0. -1.
         21   -1    0    0  501  502 -0.00000000000E+00 -0.00000000000E+00 -0.19077013613E+03  0.19077013613E+03  0.00000000000E+00 0. -1.
      99926    2    1    2    0    0  0.00000000000E+00  0.14210854715E-13  0.72095967498E+02  0.45363623977E+03  0.44787052761E+03 0.  0.
      99925    2    3    3    0    0  0.48165114005E+02 -0.92102481300E+02  0.22783475170E+02  0.28368926195E+03  0.26297864046E+03 0.  0.
         25    1    3    3    0    0 -0.48165114005E+02  0.92102481300E+02  0.49312492328E+02  0.16994697781E+03  0.12509000000E+03 0.  0.
         25    1    4    4    0    0  0.37382280919E+02 -0.84735364474E+02  0.26402312945E+02  0.15786737202E+03  0.12509000000E+03 0.  0.
         25    1    4    4    0    0  0.10782833086E+02 -0.73671168251E+01 -0.36188377749E+01  0.12582188993E+03  0.12509000000E+03 0.  0.
<mgrwt>
<rscale>  2 0.44787053E+03</rscale>
<asrwt>0</asrwt>
<pdfrwt beam="1">  1       21 0.38656780E-01 0.44787053E+03</pdfrwt>
<pdfrwt beam="2">  1       21 0.28054432E-01 0.44787053E+03</pdfrwt>
<totfact> 0.72692596E+04</totfact>
</mgrwt>
</event>
<event>
 7    0  0.4725730E-002  0.4718831E+03  0.7546771E-02  0.1021390E+00
         21   -1    0    0  502  501  0.00000000000E+00  0.00000000000E+00  0.18772129795E+04  0.18772129795E+04  0.00000000000E+00 0.  1.
         21   -1    0    0  501  502 -0.00000000000E+00 -0.00000000000E+00 -0.29654827271E+02  0.29654827271E+02  0.00000000000E+00 0.  1.
      99926    2    1    2    0    0 -0.35527136788E-14  0.00000000000E+00  0.18475581522E+04  0.19068678068E+04  0.47188314934E+03 0.  0.
      99925    2    3    3    0    0  0.20506030857E+02 -0.79372434384E+02  0.15448765743E+04  0.15692524541E+04  0.26303831327E+03 0.  0.
         25    1    3    3    0    0 -0.20506030857E+02  0.79372434384E+02  0.30268157797E+03  0.33761535271E+03  0.12509000000E+03 0.  0.
         25    1    4    4    0    0 -0.22506918340E+02 -0.38363202678E+02  0.61913307448E+03  0.63320736628E+03  0.12509000000E+03 0.  0.
         25    1    4    4    0    0  0.43012949197E+02 -0.41009231706E+02  0.92574349979E+03  0.93604508780E+03  0.12509000000E+03 0.  0.
<mgrwt>
<rscale>  2 0.47188315E+03</rscale>
<asrwt>0</asrwt>
<pdfrwt beam="1">  1       21 0.27606065E+00 0.47188315E+03</pdfrwt>
<pdfrwt beam="2">  1       21 0.43610053E-02 0.47188315E+03</pdfrwt>
<totfact> 0.13440928E+04</totfact>
</mgrwt>
</event>
<event>
 7    0  0.4725730E-002  0.4392400E+03  0.7546771E-02  0.1030980E+00
         21   -1    0    0  502  501  0.00000000000E+00  0.00000000000E+00  0.21767973110E+03  0.21767973110E+03  0.00000000000E+00 0. -1.
         21   -1    0    0  501  502 -0.00000000000E+00 -0.00000000000E+00 -0.22157760842E+03  0.22157760842E+03  0.00000000000E+00 0. -1.
      99926    2    1    2    0    0  0.88817841970E-15  0.00000000000E+00 -0.38978773258E+01  0.43925733952E+03  0.43924004471E+03 0.  0.
      99925    2    3    3    0    0  0.46387450218E+01 -0.42510228391E+02 -0.90233388341E+02  0.28136507868E+03  0.26305057623E+03 0.  0.
         25    1    4    4    0    0  0.13249409793E+02 -0.29663994012E+02 -0.52453540821E+01  0.12934651615E+03  0.12509000000E+03 0.  0.
         25    1    4    4    0    0 -0.86106647709E+01 -0.12846234379E+02 -0.84988034259E+02  0.15201856253E+03  0.12509000000E+03 0.  0.
         25    1    3    3    0    0 -0.46387450218E+01  0.42510228391E+02  0.86335511015E+02  0.15789226085E+03  0.12509000000E+03 0.  0.
<mgrwt>
<rscale>  2 0.43924004E+03</rscale>
<asrwt>0</asrwt>
<pdfrwt beam="1">  1       21 0.32011725E-01 0.43924004E+03</pdfrwt>
<pdfrwt beam="2">  1       21 0.32584943E-01 0.43924004E+03</pdfrwt>
<totfact> 0.79217357E+04</totfact>
</mgrwt>
</event>
<event>
 7    0  0.4725730E-002  0.4653234E+03  0.7546771E-02  0.1023249E+00
         21   -1    0    0  502  501  0.00000000000E+00  0.00000000000E+00  0.38531256529E+02  0.38531256529E+02  0.00000000000E+00 0. -1.
         21   -1    0    0  501  502 -0.00000000000E+00 -0.00000000000E+00 -0.14048714642E+04  0.14048714642E+04  0.00000000000E+00 0. -1.
      99926    2    1    2    0    0  0.00000000000E+00 -0.17763568394E-14 -0.13663402077E+04  0.14434027208E+04  0.46532338337E+03 0.  0.
      99925    2    3    3    0    0 -0.35601202513E+02  0.14302556882E+02 -0.12131567393E+04  0.12419462941E+04  0.26307663249E+03 0.  0.
         25    1    3    3    0    0  0.35601202513E+02 -0.14302556882E+02 -0.15318346843E+03  0.20145642669E+03  0.12509000000E+03 0.  0.
         25    1    4    4    0    0 -0.26754743744E+02 -0.16076683979E+02 -0.45605307985E+03  0.47392636118E+03  0.12509000000E+03 0.  0.
         25    1    4    4    0    0 -0.88464587689E+01  0.30379240861E+02 -0.75710365942E+03  0.76801993289E+03  0.12509000000E+03 0.  0.
<mgrwt>
<rscale>  2 0.46532338E+03</rscale>
<asrwt>0</asrwt>
<pdfrwt beam="1">  1       21 0.56663615E-02 0.46532338E+03</pdfrwt>
<pdfrwt beam="2">  1       21 0.20659873E+00 0.46532338E+03</pdfrwt>
<totfact> 0.23274456E+04</totfact>
</mgrwt>
</event>
<event>
 7    0  0.4725730E-002  0.4535633E+03  0.7546771E-02  0.1026665E+00
         21   -1    0    0  502  501  0.00000000000E+00  0.00000000000E+00  0.12213302173E+03  0.12213302173E+03  0.00000000000E+00 0.  1.
         21   -1    0    0  501  502 -0.00000000000E+00 -0.00000000000E+00 -0.42109757006E+03  0.42109757006E+03  0.00000000000E+00 0.  1.
      99926    2    1    2    0    0  0.00000000000E+00 -0.17763568394E-14 -0.29896454832E+03  0.54323059179E+03  0.45356330837E+03 0.  0.
      99925    2    3    3    0    0  0.12567496690E+02 -0.12270800522E+02 -0.32060361870E+03  0.41507337590E+03  0.26304127534E+03 0.  0.
         25    1    4    4    0    0  0.17908227774E+02 -0.57818982651E+01 -0.99668395327E+02  0.16104481394E+03  0.12509000000E+03 0.  0.
         25    1    3    3    0    0 -0.12567496690E+02  0.12270800522E+02  0.21639070383E+02  0.12815721589E+03  0.12509000000E+03 0.  0.
         25    1    4    4    0    0 -0.53407310832E+01 -0.64889022566E+01 -0.22093522338E+03  0.25402856196E+03  0.12509000000E+03 0.  0.
<mgrwt>
<rscale>  2 0.45356331E+03</rscale>
<asrwt>0</asrwt>
<pdfrwt beam="1">  1       21 0.17960738E-01 0.45356331E+03</pdfrwt>
<pdfrwt beam="2">  1       21 0.61926114E-01 0.45356331E+03</pdfrwt>
<totfact> 0.63029595E+04</totfact>
</mgrwt>
</event>
<event>
 7    0  0.4725730E-002  0.4551752E+03  0.7546771E-02  0.1026190E+00
         21   -1    0    0  502  501  0.00000000000E+00  0.00000000000E+00  0.20924622673E+04  0.20924622673E+04  0.00000000000E+00 0. -1.
         21   -1    0    0  501  502 -0.00000000000E+00 -0.00000000000E+00 -0.24753669544E+02  0.24753669544E+02  0.00000000000E+00 0. -1.
      99926    2    1    2    0    0  0.00000000000E+00  0.00000000000E+00  0.20677085978E+04  0.21172159369E+04  0.45517521681E+03 0.  0.
      99925    2    3    3    0    0  0.39773412496E+02 -0.30575333024E+02  0.17734755481E+04  0.17935844011E+04  0.26308308339E+03 0.  0.
         25    1    4    4    0    0  0.55993147935E+02 -0.78901294021E+01  0.79728963324E+03  0.80902147940E+03  0.12509000000E+03 0.  0.
         25    1    3    3    0    0 -0.39773412496E+02  0.30575333024E+02  0.29423304967E+03  0.32363153578E+03  0.12509000000E+03 0.  0.
         25    1    4    4    0    0 -0.16219735439E+02 -0.22685203622E+02  0.97618591490E+03  0.98456292172E+03  0.12509000000E+03 0.  0.
<mgrwt>
<rscale>  2 0.45517522E+03</rscale>
<asrwt>0</asrwt>
<pdfrwt beam="1">  1       21 0.30771492E+00 0.45517522E+03</pdfrwt>
<pdfrwt beam="2">  1       21 0.36402469E-02 0.45517522E+03</pdfrwt>
<totfact> 0.11872638E+04</totfact>
</mgrwt>
</event>
<event>
 7    0  0.4725730E-002  0.4557767E+03  0.7546771E-02  0.1026013E+00
         21   -1    0    0  502  501  0.00000000000E+00  0.00000000000E+00  0.50716489600E+03  0.50716489600E+03  0.00000000000E+00 0.  1.
         21   -1    0    0  501  502 -0.00000000000E+00 -0.00000000000E+00 -0.10239882584E+03  0.10239882584E+03  0.00000000000E+00 0.  1.
      99926    2    1    2    0    0  0.00000000000E+00  0.14210854715E-13  0.40476607016E+03  0.60956372184E+03  0.45577665520E+03 0.  0.
      99925    2    3    3    0    0  0.40029080209E+02  0.10639696910E+03  0.24176722243E+03  0.37474725147E+03  0.26279549148E+03 0.  0.
         25    1    3    3    0    0 -0.40029080209E+02 -0.10639696910E+03  0.16299884773E+03  0.23481647037E+03  0.12509000000E+03 0.  0.
         25    1    4    4    0    0  0.12101832067E+02  0.13036792231E+02  0.88874188447E+02  0.15447505224E+03  0.12509000000E+03 0.  0.
         25    1    4    4    0    0  0.27927248141E+02  0.93360176870E+02  0.15289303398E+03  0.22027219923E+03  0.12509000000E+03 0.  0.
<mgrwt>
<rscale>  2 0.45577666E+03</rscale>
<asrwt>0</asrwt>
<pdfrwt beam="1">  1       21 0.74583072E-01 0.45577666E+03</pdfrwt>
<pdfrwt beam="2">  1       21 0.15058651E-01 0.45577666E+03</pdfrwt>
<totfact> 0.57738394E+04</totfact>
</mgrwt>
</event>
<event>
 7    0  0.4725730E-002  0.4578249E+03  0.7546771E-02  0.1025414E+00
         21   -1    0    0  502  501  0.00000000000E+00  0.00000000000E+00  0.57085160579E+02  0.57085160579E+02  0.00000000000E+00 0. -1.
         21   -1    0    0  501  502 -0.00000000000E+00 -0.00000000000E+00 -0.91794270001E+03  0.91794270001E+03  0.00000000000E+00 0. -1.
      99926    2    1    2    0    0  0.00000000000E+00  0.00000000000E+00 -0.86085753943E+03  0.97502786059E+03  0.45782488544E+03 0.  0.
      99925    2    3    3    0    0  0.20342641646E+02  0.11329800046E+03 -0.56701984637E+03  0.63556010374E+03  0.26301117716E+03 0.  0.
         25    1    3    3    0    0 -0.20342641646E+02 -0.11329800046E+03 -0.29383769306E+03  0.33946775685E+03  0.12509000000E+03 0.  0.
         25    1    4    4    0    0 -0.17737247306E+02  0.26271735747E+02 -0.22977465919E+03  0.26353124321E+03  0.12509000000E+03 0.  0.
         25    1    4    4    0    0  0.38079888953E+02  0.87026264709E+02 -0.33724518718E+03  0.37202886053E+03  0.12509000000E+03 0.  0.
<mgrwt>
<rscale>  2 0.45782489E+03</rscale>
<asrwt>0</asrwt>
<pdfrwt beam="1">  1       21 0.83948769E-02 0.45782489E+03</pdfrwt>
<pdfrwt beam="2">  1       21 0.13499157E+00 0.45782489E+03</pdfrwt>
<totfact> 0.39269193E+04</totfact>
</mgrwt>
</event>
<event>
 7    0  0.4725730E-002  0.4523209E+03  0.7546771E-02  0.1027032E+00
         21   -1    0    0  502  501  0.00000000000E+00  0.00000000000E+00  0.16727263076E+03  0.16727263076E+03  0.00000000000E+00 0.  1.
         21   -1    0    0  501  502 -0.00000000000E+00 -0.00000000000E+00 -0.30577948486E+03  0.30577948486E+03  0.00000000000E+00 0.  1.
      99926    2    1    2    0    0 -0.14210854715E-13  0.00000000000E+00 -0.13850685410E+03  0.47305211563E+03  0.45232085455E+03 0.  0.
      99925    2    3    3    0    0  0.93966056925E+02 -0.17282741867E+02 -0.29121354572E+02  0.28137267325E+03  0.26304793278E+03 0.  0.
         25    1    4    4    0    0  0.86946842303E+02  0.57590005793E+01 -0.17756671870E+02  0.15347875087E+03  0.12509000000E+03 0.  0.
         25    1    4    4    0    0  0.70192146211E+01 -0.23041742446E+02 -0.11364682702E+02  0.12789392238E+03  0.12509000000E+03 0.  0.
         25    1    3    3    0    0 -0.93966056925E+02  0.17282741867E+02 -0.10938549953E+03  0.19167944237E+03  0.12509000000E+03 0.  0.
<mgrwt>
<rscale>  2 0.45232085E+03</rscale>
<asrwt>0</asrwt>
<pdfrwt beam="1">  1       21 0.24598916E-01 0.45232085E+03</pdfrwt>
<pdfrwt beam="2">  1       21 0.44967571E-01 0.45232085E+03</pdfrwt>
<totfact> 0.68657596E+04</totfact>
</mgrwt>
</event>
<event>
 7    0  0.4725730E-002  0.4640149E+03  0.7546771E-02  0.1023623E+00
         21   -1    0    0  502  501  0.00000000000E+00  0.00000000000E+00  0.54603343795E+02  0.54603343795E+02  0.00000000000E+00 0.  1.
         21   -1    0    0  501  502 -0.00000000000E+00 -0.00000000000E+00 -0.98579030631E+03  0.98579030631E+03  0.00000000000E+00 0.  1.
      99926    2    1    2    0    0  0.00000000000E+00  0.00000000000E+00 -0.93118696252E+03  0.10403936501E+04  0.46401485754E+03 0.  0.
      99925    2    3    3    0    0 -0.58070144232E+02  0.83705380869E+02 -0.43400319185E+03  0.51769111295E+03  0.26318545829E+03 0.  0.
         25    1    3    3    0    0  0.58070144232E+02 -0.83705380869E+02 -0.49718377067E+03  0.52270253716E+03  0.12509000000E+03 0.  0.
         25    1    4    4    0    0 -0.32776283384E+02  0.60449176735E+02 -0.15929763994E+03  0.21389631580E+03  0.12509000000E+03 0.  0.
         25    1    4    4    0    0 -0.25293860848E+02  0.23256204134E+02 -0.27470555191E+03  0.30379479715E+03  0.12509000000E+03 0.  0.
<mgrwt>
<rscale>  2 0.46401486E+03</rscale>
<asrwt>0</asrwt>
<pdfrwt beam="1">  1       21 0.80299032E-02 0.46401486E+03</pdfrwt>
<pdfrwt beam="2">  1       21 0.14496917E+00 0.46401486E+03</pdfrwt>
<totfact> 0.35096276E+04</totfact>
</mgrwt>
</event>
<event>
 7    0  0.4725730E-002  0.4483633E+03  0.7546771E-02  0.1028211E+00
         21   -1    0    0  502  501  0.00000000000E+00  0.00000000000E+00  0.85364043120E+02  0.85364043120E+02  0.00000000000E+00 0. -1.
         21   -1    0    0  501  502 -0.00000000000E+00 -0.00000000000E+00 -0.58874211526E+03  0.58874211526E+03  0.00000000000E+00 0. -1.
      99926    2    1    2    0    0  0.00000000000E+00  0.00000000000E+00 -0.50337807214E+03  0.67410615838E+03  0.44836327822E+03 0.  0.
      99925    2    3    3    0    0 -0.79003251322E+02 -0.20701199639E+02 -0.21509611974E+03  0.34941546624E+03  0.26297295285E+03 0.  0.
         25    1    4    4    0    0 -0.66129167642E+02 -0.11477650765E+01 -0.15095275199E+03  0.20690245434E+03  0.12509000000E+03 0.  0.
         25    1    3    3    0    0  0.79003251322E+02  0.20701199639E+02 -0.28828195240E+03  0.32469069214E+03  0.12509000000E+03 0.  0.
         25    1    4    4    0    0 -0.12874083680E+02 -0.19553434563E+02 -0.64143367749E+02  0.14251301190E+03  0.12509000000E+03 0.  0.
<mgrwt>
<rscale>  2 0.44836328E+03</rscale>
<asrwt>0</asrwt>
<pdfrwt beam="1">  1       21 0.12553536E-01 0.44836328E+03</pdfrwt>
<pdfrwt beam="2">  1       21 0.86579722E-01 0.44836328E+03</pdfrwt>
<totfact> 0.57267212E+04</totfact>
</mgrwt>
</event>
<event>
 7    0  0.4725730E-002  0.4261467E+03  0.7546771E-02  0.1035084E+00
         21   -1    0    0  502  501  0.00000000000E+00  0.00000000000E+00  0.32073082367E+03  0.32073082367E+03  0.00000000000E+00 0. -1.
         21   -1    0    0  501  502 -0.00000000000E+00 -0.00000000000E+00 -0.14155252956E+03  0.14155252956E+03  0.00000000000E+00 0. -1.
      99926    2    1    2    0    0  0.71054273576E-14 -0.17763568394E-14  0.17917829411E+03  0.46228335322E+03  0.42614673246E+03 0.  0.
      99925    2    3    3    0    0  0.48758879048E+02  0.24516048918E+01  0.42570820573E+02  0.27073036165E+03  0.26286729600E+03 0.  0.
         25    1    3    3    0    0 -0.48758879048E+02 -0.24516048918E+01  0.13660747354E+03  0.19155299157E+03  0.12509000000E+03 0.  0.
         25    1    4    4    0    0  0.54528531910E+02  0.28417703101E+02  0.18698144163E+02  0.14063447421E+03  0.12509000000E+03 0.  0.
         25    1    4    4    0    0 -0.57696528623E+01 -0.25966098209E+02  0.23872676410E+02  0.13009588744E+03  0.12509000000E+03 0.  0.
<mgrwt>
<rscale>  2 0.42614673E+03</rscale>
<asrwt>0</asrwt>
<pdfrwt beam="1">  1       21 0.47166298E-01 0.42614673E+03</pdfrwt>
<pdfrwt beam="2">  1       21 0.20816548E-01 0.42614673E+03</pdfrwt>
<totfact> 0.86106235E+04</totfact>
</mgrwt>
</event>
<event>
 7    0  0.4725730E-002  0.4475001E+03  0.7546771E-02  0.1028470E+00
         21   -1    0    0  502  501  0.00000000000E+00  0.00000000000E+00  0.29385824416E+03  0.29385824416E+03  0.00000000000E+00 0.  1.
         21   -1    0    0  501  502 -0.00000000000E+00 -0.00000000000E+00 -0.17036814881E+03  0.17036814881E+03  0.00000000000E+00 0.  1.
      99926    2    1    2    0    0  0.00000000000E+00  0.00000000000E+00  0.12349009536E+03  0.46422639297E+03  0.44750010087E+03 0.  0.
      99925    2    3    3    0    0 -0.55825326613E+01  0.78987399299E+02  0.53288651409E+01  0.27480686297E+03  0.26309739872E+03 0.  0.
         25    1    4    4    0    0  0.87626563147E+00  0.53475139288E+02 -0.35530897180E+02  0.14060693837E+03  0.12509000000E+03 0.  0.
         25    1    4    4    0    0 -0.64587982928E+01  0.25512260011E+02  0.40859762321E+02  0.13419992460E+03  0.12509000000E+03 0.  0.
         25    1    3    3    0    0  0.55825326613E+01 -0.78987399299E+02  0.11816123022E+03  0.18941953000E+03  0.12509000000E+03 0.  0.
<mgrwt>
<rscale>  2 0.44750010E+03</rscale>
<asrwt>0</asrwt>
<pdfrwt beam="1">  1       21 0.43214448E-01 0.44750010E+03</pdfrwt>
<pdfrwt beam="2">  1       21 0.25054139E-01 0.44750010E+03</pdfrwt>
<totfact> 0.72060414E+04</totfact>
</mgrwt>
</event>
<event>
 7    0  0.4725730E-002  0.4585949E+03  0.7546771E-02  0.1025190E+00
         21   -1    0    0  502  501  0.00000000000E+00  0.00000000000E+00  0.48250322282E+03  0.48250322282E+03  0.00000000000E+00 0. -1.
         21   -1    0    0  501  502 -0.00000000000E+00 -0.00000000000E+00 -0.10896782945E+03  0.10896782945E+03  0.00000000000E+00 0. -1.
      99926    2    1    2    0    0 -0.71054273576E-14  0.14210854715E-13  0.37353539337E+03  0.59147105227E+03  0.45859493626E+03 0.  0.
      99925    2    3    3    0    0 -0.44456116599E+02  0.83809654440E+02  0.32141807574E+03  0.42604999140E+03  0.26307529584E+03 0.  0.
         25    1    4    4    0    0 -0.27229288997E+02  0.77375641682E+02  0.13970686911E+03  0.20468009547E+03  0.12509000000E+03 0.  0.
         25    1    3    3    0    0  0.44456116599E+02 -0.83809654440E+02  0.52117317635E+02  0.16542106087E+03  0.12509000000E+03 0.  0.
         25    1    4    4    0    0 -0.17226827602E+02  0.64340127579E+01  0.18171120663E+03  0.22136989593E+03  0.12509000000E+03 0.  0.
<mgrwt>
<rscale>  2 0.45859494E+03</rscale>
<asrwt>0</asrwt>
<pdfrwt beam="1">  1       21 0.70956356E-01 0.45859494E+03</pdfrwt>
<pdfrwt beam="2">  1       21 0.16024681E-01 0.45859494E+03</pdfrwt>
<totfact> 0.57553619E+04</totfact>
</mgrwt>
</event>
<event>
 7    0  0.4725730E-002  0.4164538E+03  0.7546771E-02  0.1038227E+00
         21   -1    0    0  502  501  0.00000000000E+00  0.00000000000E+00  0.18110794819E+03  0.18110794819E+03  0.00000000000E+00 0. -1.
         21   -1    0    0  501  502 -0.00000000000E+00 -0.00000000000E+00 -0.23940662928E+03  0.23940662928E+03  0.00000000000E+00 0. -1.
      99926    2    1    2    0    0 -0.35527136788E-14  0.35527136788E-14 -0.58298681086E+02  0.42051457747E+03  0.41645380735E+03 0.  0.
      99925    2    3    3    0    0 -0.69831625081E+01 -0.20181454026E+02  0.30376414247E+02  0.26570231608E+03  0.26309492314E+03 0.  0.
         25    1    4    4    0    0 -0.38983265245E+02  0.48928814072E+01  0.28408048215E+02  0.13415722329E+03  0.12509000000E+03 0.  0.
         25    1    3    3    0    0  0.69831625081E+01  0.20181454026E+02 -0.88675095333E+02  0.15481226139E+03  0.12509000000E+03 0.  0.
         25    1    4    4    0    0  0.32000102737E+02 -0.25074335434E+02  0.19683660319E+01  0.13154509279E+03  0.12509000000E+03 0.  0.
<mgrwt>
<rscale>  2 0.41645381E+03</rscale>
<asrwt>0</asrwt>
<pdfrwt beam="1">  1       21 0.26633522E-01 0.41645381E+03</pdfrwt>
<pdfrwt beam="2">  1       21 0.35206857E-01 0.41645381E+03</pdfrwt>
<totfact> 0.97988069E+04</totfact>
</mgrwt>
</event>
<event>
 7    0  0.4725730E-002  0.4509687E+03  0.7546771E-02  0.1027434E+00
         21   -1    0    0  502  501  0.00000000000E+00  0.00000000000E+00  0.17121002142E+03  0.17121002142E+03  0.00000000000E+00 0.  1.
         21   -1    0    0  501  502 -0.00000000000E+00 -0.00000000000E+00 -0.29696384147E+03  0.29696384147E+03  0.00000000000E+00 0.  1.
      99926    2    1    2    0    0  0.00000000000E+00  0.00000000000E+00 -0.12575382005E+03  0.46817386289E+03  0.45096867146E+03 0.  0.
      99925    2    3    3    0    0  0.49098259452E+02 -0.96311959059E+02 -0.62853586171E+02  0.29128242709E+03  0.26307460253E+03 0.  0.
         25    1    3    3    0    0 -0.49098259452E+02  0.96311959059E+02 -0.62900233876E+02  0.17689143580E+03  0.12509000000E+03 0.  0.
         25    1    4    4    0    0  0.33284212945E+02 -0.78071969816E+02 -0.46948299915E+01  0.15123696913E+03  0.12509000000E+03 0.  0.
         25    1    4    4    0    0  0.15814046507E+02 -0.18239989243E+02 -0.58158756180E+02  0.14004545796E+03  0.12509000000E+03 0.  0.
<mgrwt>
<rscale>  2 0.45096867E+03</rscale>
<asrwt>0</asrwt>
<pdfrwt beam="1">  1       21 0.25177945E-01 0.45096867E+03</pdfrwt>
<pdfrwt beam="2">  1       21 0.43671153E-01 0.45096867E+03</pdfrwt>
<totfact> 0.69776829E+04</totfact>
</mgrwt>
</event>
<event>
 7    0  0.4725730E-002  0.4497880E+03  0.7546771E-02  0.1027785E+00
         21   -1    0    0  502  501  0.00000000000E+00  0.00000000000E+00  0.12325421304E+03  0.12325421304E+03  0.00000000000E+00 0.  1.
         21   -1    0    0  501  502 -0.00000000000E+00 -0.00000000000E+00 -0.41034953652E+03  0.41034953652E+03  0.00000000000E+00 0.  1.
      99926    2    1    2    0    0  0.00000000000E+00  0.00000000000E+00 -0.28709532348E+03  0.53360374957E+03  0.44978799093E+03 0.  0.
      99925    2    3    3    0    0 -0.89030095415E+02  0.50868853879E+01 -0.10840170185E+03  0.29795326091E+03  0.26281739370E+03 0.  0.
         25    1    4    4    0    0 -0.39574353579E+02 -0.16022032955E+02 -0.15411100585E+02  0.13307082747E+03  0.12509000000E+03 0.  0.
         25    1    4    4    0    0 -0.49455741836E+02  0.21108918343E+02 -0.92990601263E+02  0.16488243344E+03  0.12509000000E+03 0.  0.
         25    1    3    3    0    0  0.89030095415E+02 -0.50868853879E+01 -0.17869362164E+03  0.23565048866E+03  0.12509000000E+03 0.  0.
<mgrwt>
<rscale>  2 0.44978799E+03</rscale>
<asrwt>0</asrwt>
<pdfrwt beam="1">  1       21 0.18125620E-01 0.44978799E+03</pdfrwt>
<pdfrwt beam="2">  1       21 0.60345520E-01 0.44978799E+03</pdfrwt>
<totfact> 0.65628993E+04</totfact>
</mgrwt>
</event>
<event>
 7    0  0.4725730E-002  0.4574504E+03  0.7546771E-02  0.1025523E+00
         21   -1    0    0  502  501  0.00000000000E+00  0.00000000000E+00  0.11861719733E+03  0.11861719733E+03  0.00000000000E+00 0.  1.
         21   -1    0    0  501  502 -0.00000000000E+00 -0.00000000000E+00 -0.44104237117E+03  0.44104237117E+03  0.00000000000E+00 0.  1.
      99926    2    1    2    0    0  0.00000000000E+00  0.00000000000E+00 -0.32242517384E+03  0.55965956850E+03  0.45745036877E+03 0.  0.
      99925    2    3    3    0    0 -0.76098297548E+02 -0.74616356206E+02 -0.25692305854E+03  0.38275115515E+03  0.26292667658E+03 0.  0.
         25    1    4    4    0    0 -0.76800831969E+02 -0.56530385447E+02 -0.14027143202E+03  0.21075491693E+03  0.12509000000E+03 0.  0.
         25    1    3    3    0    0  0.76098297548E+02  0.74616356206E+02 -0.65502115296E+02  0.17690841334E+03  0.12509000000E+03 0.  0.
         25    1    4    4    0    0  0.70253442079E+00 -0.18085970759E+02 -0.11665162652E+03  0.17199623822E+03  0.12509000000E+03 0.  0.
<mgrwt>
<rscale>  2 0.45745037E+03</rscale>
<asrwt>0</asrwt>
<pdfrwt beam="1">  1       21 0.17443705E-01 0.45745037E+03</pdfrwt>
<pdfrwt beam="2">  1       21 0.64859172E-01 0.45745037E+03</pdfrwt>
<totfact> 0.60060076E+04</totfact>
</mgrwt>
</event>
<event>
 7    0  0.4725730E-002  0.4106372E+03  0.7546771E-02  0.1040157E+00
         21   -1    0    0  502  501  0.00000000000E+00  0.00000000000E+00  0.13540569693E+03  0.13540569693E+03  0.00000000000E+00 0.  1.
         21   -1    0    0  501  502 -0.00000000000E+00 -0.00000000000E+00 -0.31132905086E+03  0.31132905086E+03  0.00000000000E+00 0.  1.
      99926    2    1    2    0    0 -0.71054273576E-14  0.00000000000E+00 -0.17592335393E+03  0.44673474779E+03  0.41063719805E+03 0.  0.
      99925    2    3    3    0    0  0.59483817102E+02 -0.14293293206E+02 -0.99288752118E+02  0.28779138359E+03  0.26310264431E+03 0.  0.
         25    1    4    4    0    0 -0.93965970716E+01  0.74903186384E+01 -0.46875544527E+02  0.13412391914E+03  0.12509000000E+03 0.  0.
         25    1    3    3    0    0 -0.59483817102E+02  0.14293293206E+02 -0.76634601811E+02  0.15894336420E+03  0.12509000000E+03 0.  0.
         25    1    4    4    0    0  0.68880414173E+02 -0.21783611844E+02 -0.52413207591E+02  0.15366746445E+03  0.12509000000E+03 0.  0.
<mgrwt>
<rscale>  2 0.41063720E+03</rscale>
<asrwt>0</asrwt>
<pdfrwt beam="1">  1       21 0.19912603E-01 0.41063720E+03</pdfrwt>
<pdfrwt beam="2">  1       21 0.45783683E-01 0.41063720E+03</pdfrwt>
<totfact> 0.10005784E+05</totfact>
</mgrwt>
</event>
<event>
 7    0  0.4725730E-002  0.4254426E+03  0.7546771E-02  0.1035309E+00
         21   -1    0    0  502  501  0.00000000000E+00  0.00000000000E+00  0.38746080357E+03  0.38746080357E+03  0.00000000000E+00 0. -1.
         21   -1    0    0  501  502 -0.00000000000E+00 -0.00000000000E+00 -0.11678691908E+03  0.11678691908E+03  0.00000000000E+00 0. -1.
      99926    2    1    2    0    0 -0.71054273576E-14 -0.71054273576E-14  0.27067388449E+03  0.50424772265E+03  0.42544260959E+03 0.  0.
      99925    2    3    3    0    0 -0.32442956939E+02  0.38069095179E+02  0.97693002458E+02  0.28499513975E+03  0.26301426860E+03 0.  0.
         25    1    4    4    0    0 -0.34712823698E+02  0.53450618158E+02  0.65374950415E+02  0.15486555767E+03  0.12509000000E+03 0.  0.
         25    1    4    4    0    0  0.22698667596E+01 -0.15381522979E+02  0.32318052044E+02  0.13012958208E+03  0.12509000000E+03 0.  0.
         25    1    3    3    0    0  0.32442956939E+02 -0.38069095179E+02  0.17298088203E+03  0.21925258291E+03  0.12509000000E+03 0.  0.
<mgrwt>
<rscale>  2 0.42544261E+03</rscale>
<asrwt>0</asrwt>
<pdfrwt beam="1">  1       21 0.56979530E-01 0.42544261E+03</pdfrwt>
<pdfrwt beam="2">  1       21 0.17174547E-01 0.42544261E+03</pdfrwt>
<totfact> 0.82727507E+04</totfact>
</mgrwt>
</event>
<event>
 7    0  0.4725730E-002  0.4344211E+03  0.7546771E-02  0.1032472E+00
         21   -1    0    0  502  501  0.00000000000E+00  0.00000000000E+00  0.69980051808E+03  0.69980051808E+03  0.00000000000E+00 0.  1.
         21   -1    0    0  501  502 -0.00000000000E+00 -0.00000000000E+00 -0.67419826374E+02  0.67419826374E+02  0.00000000000E+00 0.  1.
      99926    2    1    2    0    0  0.14210854715E-13 -0.88817841970E-15  0.63238069171E+03  0.76722034446E+03  0.43442112944E+03 0.  0.
      99925    2    3    3    0    0 -0.79124573725E+02  0.74479253775E+01  0.32342144293E+03  0.42455506278E+03  0.26330476985E+03 0.  0.
         25    1    4    4    0    0 -0.20564804922E+02 -0.20527446882E+02  0.19743691968E+03  0.23552735007E+03  0.12509000000E+03 0.  0.
         25    1    3    3    0    0  0.79124573725E+02 -0.74479253775E+01  0.30895924878E+03  0.34266528168E+03  0.12509000000E+03 0.  0.
         25    1    4    4    0    0 -0.58559768803E+02  0.27975372259E+02  0.12598452324E+03  0.18902771271E+03  0.12509000000E+03 0.  0.
<mgrwt>
<rscale>  2 0.43442113E+03</rscale>
<asrwt>0</asrwt>
<pdfrwt beam="1">  1       21 0.10291184E+00 0.43442113E+03</pdfrwt>
<pdfrwt beam="2">  1       21 0.99146807E-02 0.43442113E+03</pdfrwt>
<totfact> 0.58246566E+04</totfact>
</mgrwt>
</event>
<event>
 7    0  0.4725730E-002  0.4546471E+03  0.7546771E-02  0.1026345E+00
         21   -1    0    0  502  501  0.00000000000E+00  0.00000000000E+00  0.18491932283E+03  0.18491932283E+03  0.00000000000E+00 0.  1.
         21   -1    0    0  501  502 -0.00000000000E+00 -0.00000000000E+00 -0.27945160177E+03  0.27945160177E+03  0.00000000000E+00 0.  1.
      99926    2    1    2    0    0  0.00000000000E+00  0.00000000000E+00 -0.94532278936E+02  0.46437092460E+03  0.45464712014E+03 0.  0.
      99925    2    3    3    0    0 -0.81948812427E+02 -0.37365974997E+02 -0.12893777010E+03  0.30643717309E+03  0.26299613789E+03 0.  0.
         25    1    4    4    0    0 -0.27510137489E+02 -0.39183530226E+02 -0.28286143089E+02  0.13689328215E+03  0.12509000000E+03 0.  0.
         25    1    3    3    0    0  0.81948812427E+02  0.37365974997E+02  0.34405491162E+02  0.15793375152E+03  0.12509000000E+03 0.  0.
         25    1    4    4    0    0 -0.54438674938E+02  0.18175552291E+01 -0.10065162701E+03  0.16954389094E+03  0.12509000000E+03 0.  0.
<mgrwt>
<rscale>  2 0.45464712E+03</rscale>
<asrwt>0</asrwt>
<pdfrwt beam="1">  1       21 0.27194018E-01 0.45464712E+03</pdfrwt>
<pdfrwt beam="2">  1       21 0.41095823E-01 0.45464712E+03</pdfrwt>
<totfact> 0.68047695E+04</totfact>
</mgrwt>
</event>
<event>
 7    0  0.4725730E-002  0.4556532E+03  0.7546771E-02  0.1026049E+00
         21   -1    0    0  502  501  0.00000000000E+00  0.00000000000E+00  0.67395948334E+02  0.67395948334E+02  0.00000000000E+00 0. -1.
         21   -1    0    0  501  502 -0.00000000000E+00 -0.00000000000E+00 -0.77014963759E+03  0.77014963759E+03  0.00000000000E+00 0. -1.
      99926    2    1    2    0    0  0.00000000000E+00 -0.35527136788E-14 -0.70275368926E+03  0.83754558593E+03  0.45565322422E+03 0.  0.
      99925    2    3    3    0    0  0.79612578332E+02  0.27392689551E+02 -0.58256408432E+03  0.64472035080E+03  0.26304922793E+03 0.  0.
         25    1    4    4    0    0  0.22438221752E+02 -0.85097494621E+01 -0.34643287929E+03  0.36910586230E+03  0.12509000000E+03 0.  0.
         25    1    4    4    0    0  0.57174356580E+02  0.35902439013E+02 -0.23613120503E+03  0.27561448849E+03  0.12509000000E+03 0.  0.
         25    1    3    3    0    0 -0.79612578332E+02 -0.27392689551E+02 -0.12018960493E+03  0.19282523513E+03  0.12509000000E+03 0.  0.
<mgrwt>
<rscale>  2 0.45565322E+03</rscale>
<asrwt>0</asrwt>
<pdfrwt beam="1">  1       21 0.99111693E-02 0.45565322E+03</pdfrwt>
<pdfrwt beam="2">  1       21 0.11325729E+00 0.45565322E+03</pdfrwt>
<totfact> 0.45766750E+04</totfact>
</mgrwt>
</event>
<event>
 7    0  0.4725730E-002  0.4569646E+03  0.7546771E-02  0.1025665E+00
         21   -1    0    0  502  501  0.00000000000E+00  0.00000000000E+00  0.22296379494E+03  0.22296379494E+03  0.00000000000E+00 0. -1.
         21   -1    0    0  501  502 -0.00000000000E+00 -0.00000000000E+00 -0.23413737328E+03  0.23413737328E+03  0.00000000000E+00 0. -1.
      99926    2    1    2    0    0  0.00000000000E+00  0.00000000000E+00 -0.11173578342E+02  0.45710116822E+03  0.45696458193E+03 0.  0.
      99925    2    3    3    0    0  0.26554171494E+02 -0.81670490834E+02 -0.84274186469E+02  0.28867789161E+03  0.26240730459E+03 0.  0.
         25    1    3    3    0    0 -0.26554171494E+02  0.81670490834E+02  0.73100608127E+02  0.16842327661E+03  0.12509000000E+03 0.  0.
         25    1    4    4    0    0  0.30450649441E+02 -0.25256183586E+02 -0.74919921905E+02  0.15108150006E+03  0.12509000000E+03 0.  0.
         25    1    4    4    0    0 -0.38964779473E+01 -0.56414307247E+02 -0.93542645637E+01  0.13759639155E+03  0.12509000000E+03 0.  0.
<mgrwt>
<rscale>  2 0.45696458E+03</rscale>
<asrwt>0</asrwt>
<pdfrwt beam="1">  1       21 0.32788794E-01 0.45696458E+03</pdfrwt>
<pdfrwt beam="2">  1       21 0.34431966E-01 0.45696458E+03</pdfrwt>
<totfact> 0.67330512E+04</totfact>
</mgrwt>
</event>
<event>
 6    0  0.4725730E-002  0.4563677E+03  0.7546771E-02  0.1025840E+00
         21   -1    0    0  502  501  0.00000000000E+00  0.00000000000E+00  0.80630855076E+03  0.80630855076E+03  0.00000000000E+00 0. -1.
         21   -1    0    0  501  502 -0.00000000000E+00 -0.00000000000E+00 -0.64575615026E+02  0.64575615026E+02  0.00000000000E+00 0. -1.
      99926    2    1    2    0    0  0.00000000000E+00  0.00000000000E+00  0.74173293574E+03  0.87088416579E+03  0.45636770511E+03 0.  0.
         25    1    3    3    0    0  0.22386549015E+02 -0.20411744819E+02  0.32904121369E+03  0.35331773987E+03  0.12509000000E+03 0.  0.
         25    1    3    3    0    0 -0.28594781759E+02 -0.32237438556E+02  0.71650455691E+02  0.15045999432E+03  0.12509000000E+03 0.  0.
         25    1    3    3    0    0  0.62082327447E+01  0.52649183375E+02  0.34104126636E+03  0.36710643160E+03  0.12509000000E+03 0.  0.
<mgrwt>
<rscale>  2 0.45636771E+03</rscale>
<asrwt>0</asrwt>
<pdfrwt beam="1">  1       21 0.11857478E+00 0.45636771E+03</pdfrwt>
<pdfrwt beam="2">  1       21 0.94964145E-02 0.45636771E+03</pdfrwt>
<totfact> 0.44042765E+04</totfact>
</mgrwt>
</event>
<event>
 7    0  0.4725730E-002  0.4567052E+03  0.7546771E-02  0.1025741E+00
         21   -1    0    0  502  501  0.00000000000E+00  0.00000000000E+00  0.54011521061E+02  0.54011521061E+02  0.00000000000E+00 0.  1.
         21   -1    0    0  501  502 -0.00000000000E+00 -0.00000000000E+00 -0.96544049929E+03  0.96544049929E+03  0.00000000000E+00 0.  1.
      99926    2    1    2    0    0  0.00000000000E+00  0.00000000000E+00 -0.91142897822E+03  0.10194520203E+04  0.45670519971E+03 0.  0.
      99925    2    3    3    0    0 -0.74997708512E+02  0.24090061153E+02 -0.38558220502E+03  0.47322191836E+03  0.26279337864E+03 0.  0.
         25    1    3    3    0    0  0.74997708512E+02 -0.24090061153E+02 -0.52584677321E+03  0.54623010199E+03  0.12509000000E+03 0.  0.
         25    1    4    4    0    0  0.30614084082E+01  0.18578487666E+02 -0.18896526344E+03  0.22739813392E+03  0.12509000000E+03 0.  0.
         25    1    4    4    0    0 -0.78059116920E+02  0.55115734878E+01 -0.19661694158E+03  0.24582378443E+03  0.12509000000E+03 0.  0.
<mgrwt>
<rscale>  2 0.45670520E+03</rscale>
<asrwt>0</asrwt>
<pdfrwt beam="1">  1       21 0.79428709E-02 0.45670520E+03</pdfrwt>
<pdfrwt beam="2">  1       21 0.14197654E+00 0.45670520E+03</pdfrwt>
<totfact> 0.37911339E+04</totfact>
</mgrwt>
</event>
<event>
 7    0  0.4725730E-002  0.4406659E+03  0.7546771E-02  0.1030543E+00
         21   -1    0    0  502  501  0.00000000000E+00  0.00000000000E+00  0.18434914815E+04  0.18434914815E+04  0.00000000000E+00 0. -1.
         21   -1    0    0  501  502 -0.00000000000E+00 -0.00000000000E+00 -0.26334058164E+02  0.26334058164E+02  0.00000000000E+00 0. -1.
      99926    2    1    2    0    0  0.00000000000E+00  0.00000000000E+00  0.18171574234E+04  0.18698255397E+04  0.44066591381E+03 0.  0.
      99925    2    3    3    0    0  0.91137218975E+02  0.26334525936E+02  0.12754049447E+04  0.13057840907E+04  0.26346692132E+03 0.  0.
         25    1    4    4    0    0  0.85500617521E+02 -0.12226851819E+01  0.72026801189E+03  0.73603353701E+03  0.12509000000E+03 0.  0.
         25    1    4    4    0    0  0.56366014539E+01  0.27557211118E+02  0.55513693286E+03  0.56975055373E+03  0.12509000000E+03 0.  0.
         25    1    3    3    0    0 -0.91137218975E+02 -0.26334525936E+02  0.54175247864E+03  0.56404144896E+03  0.12509000000E+03 0.  0.
<mgrwt>
<rscale>  2 0.44066591E+03</rscale>
<asrwt>0</asrwt>
<pdfrwt beam="1">  1       21 0.27110160E+00 0.44066591E+03</pdfrwt>
<pdfrwt beam="2">  1       21 0.38726569E-02 0.44066591E+03</pdfrwt>
<totfact> 0.17859452E+04</totfact>
</mgrwt>
</event>
<event>
 7    0  0.4725730E-002  0.4536791E+03  0.7546771E-02  0.1026631E+00
         21   -1    0    0  502  501  0.00000000000E+00  0.00000000000E+00  0.92391984214E+03  0.92391984214E+03  0.00000000000E+00 0.  1.
         21   -1    0    0  501  502 -0.00000000000E+00 -0.00000000000E+00 -0.55693331132E+02  0.55693331132E+02  0.00000000000E+00 0.  1.
      99926    2    1    2    0    0  0.00000000000E+00 -0.35527136788E-14  0.86822651101E+03  0.97961317328E+03  0.45367906590E+03 0.  0.
      99925    2    3    3    0    0  0.35476525055E+02  0.14983087546E+02  0.32001235424E+03  0.41599153909E+03  0.26297904286E+03 0.  0.
         25    1    4    4    0    0 -0.85854458733E+01 -0.22931857705E+02  0.16486660970E+03  0.20839406679E+03  0.12509000000E+03 0.  0.
         25    1    4    4    0    0  0.44061970928E+02  0.37914945250E+02  0.15514574454E+03  0.20759747230E+03  0.12509000000E+03 0.  0.
         25    1    3    3    0    0 -0.35476525055E+02 -0.14983087546E+02  0.54821415677E+03  0.56362163419E+03  0.12509000000E+03 0.  0.
<mgrwt>
<rscale>  2 0.45367907E+03</rscale>
<asrwt>0</asrwt>
<pdfrwt beam="1">  1       21 0.13587056E+00 0.45367907E+03</pdfrwt>
<pdfrwt beam="2">  1       21 0.81901963E-02 0.45367907E+03</pdfrwt>
<totfact> 0.40379594E+04</totfact>
</mgrwt>
</event>
<event>
 7    0  0.4725730E-002  0.4516364E+03  0.7546771E-02  0.1027235E+00
         21   -1    0    0  502  501  0.00000000000E+00  0.00000000000E+00  0.56808137909E+02  0.56808137909E+02  0.00000000000E+00 0. -1.
         21   -1    0    0  501  502 -0.00000000000E+00 -0.00000000000E+00 -0.89765073206E+03  0.89765073206E+03  0.00000000000E+00 0. -1.
      99926    2    1    2    0    0  0.00000000000E+00  0.00000000000E+00 -0.84084259415E+03  0.95445886996E+03  0.45163643157E+03 0.  0.
      99925    2    3    3    0    0 -0.93755189198E+02 -0.44052292292E+02 -0.44994209761E+03  0.53116069344E+03  0.26258932022E+03 0.  0.
         25    1    4    4    0    0 -0.70126683378E+02  0.86098803813E+01 -0.25030035370E+03  0.28859947492E+03  0.12509000000E+03 0.  0.
         25    1    4    4    0    0 -0.23628505820E+02 -0.52662172674E+02 -0.19964174391E+03  0.24256121852E+03  0.12509000000E+03 0.  0.
         25    1    3    3    0    0  0.93755189198E+02  0.44052292292E+02 -0.39090049653E+03  0.42329817652E+03  0.12509000000E+03 0.  0.
<mgrwt>
<rscale>  2 0.45163643E+03</rscale>
<asrwt>0</asrwt>
<pdfrwt beam="1">  1       21 0.83541389E-02 0.45163643E+03</pdfrwt>
<pdfrwt beam="2">  1       21 0.13200745E+00 0.45163643E+03</pdfrwt>
<totfact> 0.42056060E+04</totfact>
</mgrwt>
</event>
<event>
 7    0  0.4725730E-002  0.4442497E+03  0.7546771E-02  0.1029451E+00
         21   -1    0    0  502  501  0.00000000000E+00  0.00000000000E+00  0.33007363275E+03  0.33007363275E+03  0.00000000000E+00 0. -1.
         21   -1    0    0  501  502 -0.00000000000E+00 -0.00000000000E+00 -0.14948012143E+03  0.14948012143E+03  0.00000000000E+00 0. -1.
      99926    2    1    2    0    0  0.53290705182E-14  0.00000000000E+00  0.18059351132E+03  0.47955375418E+03  0.44424968972E+03 0.  0.
      99925    2    3    3    0    0  0.11458918130E+02 -0.13889265934E+02  0.55726758291E+01  0.26367411302E+03  0.26299955256E+03 0.  0.
         25    1    4    4    0    0  0.42634664678E+02 -0.20541458000E+02  0.12996421406E+02  0.13437291840E+03  0.12509000000E+03 0.  0.
         25    1    4    4    0    0 -0.31175746548E+02  0.66521920654E+01 -0.74237455773E+01  0.12930119462E+03  0.12509000000E+03 0.  0.
         25    1    3    3    0    0 -0.11458918130E+02  0.13889265934E+02  0.17502083549E+03  0.21587964116E+03  0.12509000000E+03 0.  0.
<mgrwt>
<rscale>  2 0.44424969E+03</rscale>
<asrwt>0</asrwt>
<pdfrwt beam="1">  1       21 0.48540240E-01 0.44424969E+03</pdfrwt>
<pdfrwt beam="2">  1       21 0.21982371E-01 0.44424969E+03</pdfrwt>
<totfact> 0.72745259E+04</totfact>
</mgrwt>
</event>
<event>
 7    0  0.4725730E-002  0.4465227E+03  0.7546771E-02  0.1028764E+00
         21   -1    0    0  502  501  0.00000000000E+00  0.00000000000E+00  0.17909792401E+03  0.17909792401E+03  0.00000000000E+00 0. -1.
         21   -1    0    0  501  502 -0.00000000000E+00 -0.00000000000E+00 -0.27831499903E+03  0.27831499903E+03  0.00000000000E+00 0. -1.
      99926    2    1    2    0    0  0.00000000000E+00  0.00000000000E+00 -0.99217075020E+02  0.45741292305E+03  0.44652273648E+03 0.  0.
      99925    2    3    3    0    0  0.20014715535E+02  0.33402314013E+02  0.38799089699E+02  0.26711769651E+03  0.26140044187E+03 0.  0.
         25    1    4    4    0    0  0.30857632757E+02  0.45782189109E+02  0.33814119345E+02  0.14085135820E+03  0.12509000000E+03 0.  0.
         25    1    4    4    0    0 -0.10842917222E+02 -0.12379875097E+02  0.49849703545E+01  0.12626633831E+03  0.12509000000E+03 0.  0.
         25    1    3    3    0    0 -0.20014715535E+02 -0.33402314013E+02 -0.13801616472E+03  0.19029522654E+03  0.12509000000E+03 0.  0.
<mgrwt>
<rscale>  2 0.44652274E+03</rscale>
<asrwt>0</asrwt>
<pdfrwt beam="1">  1       21 0.26337930E-01 0.44652274E+03</pdfrwt>
<pdfrwt beam="2">  1       21 0.40928676E-01 0.44652274E+03</pdfrwt>
<totfact> 0.73182224E+04</totfact>
</mgrwt>
</event>
<event>
 7    0  0.4725730E-002  0.4526047E+03  0.7546771E-02  0.1026948E+00
         21   -1    0    0  502  501  0.00000000000E+00  0.00000000000E+00  0.18215804309E+04  0.18215804309E+04  0.00000000000E+00 0.  1.
         21   -1    0    0  501  502 -0.00000000000E+00 -0.00000000000E+00 -0.28114465546E+02  0.28114465546E+02  0.00000000000E+00 0.  1.
      99926    2    1    2    0    0  0.00000000000E+00  0.00000000000E+00  0.17934659654E+04  0.18496948965E+04  0.45260472938E+03 0.  0.
      99925    2    3    3    0    0 -0.47492550951E+02 -0.16831072173E+02  0.15344502478E+04  0.15576752440E+04  0.26320291666E+03 0.  0.
         25    1    3    3    0    0  0.47492550951E+02  0.16831072173E+02  0.25901571752E+03  0.29201965244E+03  0.12509000000E+03 0.  0.
         25    1    4    4    0    0 -0.15793654018E+02 -0.48343620252E+02  0.79613571728E+03  0.80750611982E+03  0.12509000000E+03 0.  0.
         25    1    4    4    0    0 -0.31698896934E+02  0.31512548079E+02  0.73831453057E+03  0.75016912420E+03  0.12509000000E+03 0.  0.
<mgrwt>
<rscale>  2 0.45260473E+03</rscale>
<asrwt>0</asrwt>
<pdfrwt beam="1">  1       21 0.26787940E+00 0.45260473E+03</pdfrwt>
<pdfrwt beam="2">  1       21 0.41344815E-02 0.45260473E+03</pdfrwt>
<totfact> 0.16630007E+04</totfact>
</mgrwt>
</event>
<event>
 7    0  0.4725730E-002  0.4468286E+03  0.7546771E-02  0.1028672E+00
         21   -1    0    0  502  501  0.00000000000E+00  0.00000000000E+00  0.41027683909E+03  0.41027683909E+03  0.00000000000E+00 0. -1.
         21   -1    0    0  501  502 -0.00000000000E+00 -0.00000000000E+00 -0.12165922022E+03  0.12165922022E+03  0.00000000000E+00 0. -1.
      99926    2    1    2    0    0  0.00000000000E+00  0.35527136788E-14  0.28861761887E+03  0.53193605930E+03  0.44682864866E+03 0.  0.
      99925    2    3    3    0    0  0.10292641937E+03 -0.16713010573E+02  0.20077135235E+03  0.34690188093E+03  0.26298023983E+03 0.  0.
         25    1    4    4    0    0  0.72706367051E+02  0.25291675611E+02  0.92721968120E+02  0.17369731183E+03  0.12509000000E+03 0.  0.
         25    1    4    4    0    0  0.30220052315E+02 -0.42004686184E+02  0.10804938423E+03  0.17320456910E+03  0.12509000000E+03 0.  0.
         25    1    3    3    0    0 -0.10292641937E+03  0.16713010573E+02  0.87846266520E+02  0.18503417838E+03  0.12509000000E+03 0.  0.
<mgrwt>
<rscale>  2 0.44682865E+03</rscale>
<asrwt>0</asrwt>
<pdfrwt beam="1">  1       21 0.60334829E-01 0.44682865E+03</pdfrwt>
<pdfrwt beam="2">  1       21 0.17891062E-01 0.44682865E+03</pdfrwt>
<totfact> 0.67326331E+04</totfact>
</mgrwt>
</event>
<event>
 7    0  0.4725730E-002  0.4510343E+03  0.7546771E-02  0.1027414E+00
         21   -1    0    0  502  501  0.00000000000E+00  0.00000000000E+00  0.30120469807E+03  0.30120469807E+03  0.00000000000E+00 0.  1.
         21   -1    0    0  501  502 -0.00000000000E+00 -0.00000000000E+00 -0.16884858267E+03  0.16884858267E+03  0.00000000000E+00 0.  1.
      99926    2    1    2    0    0  0.00000000000E+00  0.14210854715E-13  0.13235611540E+03  0.47005328074E+03  0.45103430629E+03 0.  0.
      99925    2    3    3    0    0  0.19367616779E+02 -0.10586621624E+03  0.63518212879E+02  0.29125472022E+03  0.26308171424E+03 0.  0.
         25    1    4    4    0    0  0.79775808541E+01 -0.12723431870E+02  0.11752335837E+02  0.12653518488E+03  0.12509000000E+03 0.  0.
         25    1    4    4    0    0  0.11390035925E+02 -0.93142784368E+02  0.51765877042E+02  0.16471953534E+03  0.12509000000E+03 0.  0.
         25    1    3    3    0    0 -0.19367616779E+02  0.10586621624E+03  0.68837902520E+02  0.17879856052E+03  0.12509000000E+03 0.  0.
<mgrwt>
<rscale>  2 0.45103431E+03</rscale>
<asrwt>0</asrwt>
<pdfrwt beam="1">  1       21 0.44294809E-01 0.45103431E+03</pdfrwt>
<pdfrwt beam="2">  1       21 0.24830674E-01 0.45103431E+03</pdfrwt>
<totfact> 0.69595937E+04</totfact>
</mgrwt>
</event>
<event>
 7    0  0.4725730E-002  0.4566123E+03  0.7546771E-02  0.1025768E+00
         21   -1    0    0  502  501  0.00000000000E+00  0.00000000000E+00  0.21144787845E+03  0.21144787845E+03  0.00000000000E+00 0. -1.
         21   -1    0    0  501  502 -0.00000000000E+00 -0.00000000000E+00 -0.24650854151E+03  0.24650854151E+03  0.00000000000E+00 0. -1.
      99926    2    1    2    0    0  0.00000000000E+00  0.00000000000E+00 -0.35060663056E+02  0.45795641997E+03  0.45661234378E+03 0.  0.
      99925    2    3    3    0    0  0.36630527809E+02  0.56748499774E+02  0.71132076543E+02  0.28051179808E+03  0.26280203339E+03 0.  0.
         25    1    4    4    0    0  0.10697200671E+02 -0.62759262533E+01  0.11996348215E+02  0.12627445436E+03  0.12509000000E+03 0.  0.
         25    1    3    3    0    0 -0.36630527809E+02 -0.56748499774E+02 -0.10619273960E+03  0.17744462189E+03  0.12509000000E+03 0.  0.
         25    1    4    4    0    0  0.25933327138E+02  0.63024426027E+02  0.59135728328E+02  0.15423734372E+03  0.12509000000E+03 0.  0.
<mgrwt>
<rscale>  2 0.45661234E+03</rscale>
<asrwt>0</asrwt>
<pdfrwt beam="1">  1       21 0.31095276E-01 0.45661234E+03</pdfrwt>
<pdfrwt beam="2">  1       21 0.36251256E-01 0.45661234E+03</pdfrwt>
<totfact> 0.67457790E+04</totfact>
</mgrwt>
</event>
<event>
 7    0  0.4725730E-002  0.4781054E+03  0.7546771E-02  0.1019657E+00
         21   -1    0    0  502  501  0.00000000000E+00  0.00000000000E+00  0.21053229942E+03  0.21053229942E+03  0.00000000000E+00 0.  1.
         21   -1    0    0  501  502 -0.00000000000E+00 -0.00000000000E+00 -0.27143667070E+03  0.27143667070E+03  0.00000000000E+00 0.  1.
      99926    2    1    2    0    0 -0.14210854715E-13 -0.35527136788E-14 -0.60904371275E+02  0.48196897012E+03  0.47810537094E+03 0.  0.
      99925    2    3    3    0    0  0.11044393421E+03  0.16100449212E+02  0.36551919336E+02  0.28805578400E+03  0.26302662379E+03 0.  0.
         25    1    4    4    0    0  0.86176931680E+02 -0.17324189645E+02  0.69849248581E+01  0.15304538012E+03  0.12509000000E+03 0.  0.
         25    1    4    4    0    0  0.24267002534E+02  0.33424638857E+02  0.29566994478E+02  0.13501040388E+03  0.12509000000E+03 0.  0.
         25    1    3    3    0    0 -0.11044393421E+03 -0.16100449212E+02 -0.97456290611E+02  0.19391318611E+03  0.12509000000E+03 0.  0.
<mgrwt>
<rscale>  2 0.47810537E+03</rscale>
<asrwt>0</asrwt>
<pdfrwt beam="1">  1       21 0.30960632E-01 0.47810537E+03</pdfrwt>
<pdfrwt beam="2">  1       21 0.39917157E-01 0.47810537E+03</pdfrwt>
<totfact> 0.55627782E+04</totfact>
</mgrwt>
</event>
<event>
 7    0  0.4725730E-002  0.4499552E+03  0.7546771E-02  0.1027735E+00
         21   -1    0    0  502  501  0.00000000000E+00  0.00000000000E+00  0.53315409670E+03  0.53315409670E+03  0.00000000000E+00 0. -1.
         21   -1    0    0  501  502 -0.00000000000E+00 -0.00000000000E+00 -0.94934865074E+02  0.94934865074E+02  0.00000000000E+00 0. -1.
      99926    2    1    2    0    0  0.00000000000E+00 -0.71054273576E-14  0.43821923163E+03  0.62808896178E+03  0.44995516325E+03 0.  0.
      99925    2    3    3    0    0  0.87182317884E+02 -0.50242574180E+02  0.22785616458E+03  0.36346620975E+03  0.26469639416E+03 0.  0.
         25    1    4    4    0    0  0.30177336318E+02  0.15897485252E+02  0.89769881375E+02  0.15770079698E+03  0.12509000000E+03 0.  0.
         25    1    3    3    0    0 -0.87182317884E+02  0.50242574180E+02  0.21036306705E+03  0.26462275203E+03  0.12509000000E+03 0.  0.
         25    1    4    4    0    0  0.57004981566E+02 -0.66140059432E+02  0.13808628321E+03  0.20576541277E+03  0.12509000000E+03 0.  0.
<mgrwt>
<rscale>  2 0.44995516E+03</rscale>
<asrwt>0</asrwt>
<pdfrwt beam="1">  1       21 0.78405013E-01 0.44995516E+03</pdfrwt>
<pdfrwt beam="2">  1       21 0.13961010E-01 0.44995516E+03</pdfrwt>
<totfact> 0.59308714E+04</totfact>
</mgrwt>
</event>
<event>
 7    0  0.4725730E-002  0.4614554E+03  0.7546771E-02  0.1024360E+00
         21   -1    0    0  502  501  0.00000000000E+00  0.00000000000E+00  0.22248484371E+03  0.22248484371E+03  0.00000000000E+00 0. -1.
         21   -1    0    0  501  502 -0.00000000000E+00 -0.00000000000E+00 -0.23927589808E+03  0.23927589808E+03  0.00000000000E+00 0. -1.
      99926    2    1    2    0    0  0.00000000000E+00  0.17763568394E-14 -0.16791054373E+02  0.46176074179E+03  0.46145535337E+03 0.  0.
      99925    2    3    3    0    0  0.10309137762E+03 -0.14248956106E+02 -0.68261902911E+02  0.29109258061E+03  0.26314318955E+03 0.  0.
         25    1    3    3    0    0 -0.10309137762E+03  0.14248956106E+02  0.51470848539E+02  0.17066816118E+03  0.12509000000E+03 0.  0.
         25    1    4    4    0    0  0.49065985069E+02  0.15606302318E+02 -0.68444371817E+02  0.15160200426E+03  0.12509000000E+03 0.  0.
         25    1    4    4    0    0  0.54025392554E+02 -0.29855258423E+02  0.18246890561E+00  0.13949057635E+03  0.12509000000E+03 0.  0.
<mgrwt>
<rscale>  2 0.46145535E+03</rscale>
<asrwt>0</asrwt>
<pdfrwt beam="1">  1       21 0.32718360E-01 0.46145535E+03</pdfrwt>
<pdfrwt beam="2">  1       21 0.35187632E-01 0.46145535E+03</pdfrwt>
<totfact> 0.64658272E+04</totfact>
</mgrwt>
</event>
<event>
 7    0  0.4725730E-002  0.4145926E+03  0.7546771E-02  0.1038841E+00
         21   -1    0    0  502  501  0.00000000000E+00  0.00000000000E+00  0.17181192667E+02  0.17181192667E+02  0.00000000000E+00 0.  1.
         21   -1    0    0  501  502 -0.00000000000E+00 -0.00000000000E+00 -0.25010922858E+04  0.25010922858E+04  0.00000000000E+00 0.  1.
      99926    2    1    2    0    0  0.00000000000E+00 -0.35527136788E-14 -0.24839110931E+04  0.25182734785E+04  0.41459256356E+03 0.  0.
      99925    2    3    3    0    0  0.51534732383E+02 -0.30773158255E+02 -0.18341750591E+04  0.18538886217E+04  0.26287270351E+03 0.  0.
         25    1    4    4    0    0  0.12446373218E+02  0.22367825782E+02 -0.81205754399E+03  0.82203418097E+03  0.12509000000E+03 0.  0.
         25    1    4    4    0    0  0.39088359165E+02 -0.53140984037E+02 -0.10221175152E+04  0.10318544407E+04  0.12509000000E+03 0.  0.
         25    1    3    3    0    0 -0.51534732383E+02  0.30773158255E+02 -0.64973603400E+03  0.66438485675E+03  0.12509000000E+03 0.  0.
<mgrwt>
<rscale>  2 0.41459256E+03</rscale>
<asrwt>0</asrwt>
<pdfrwt beam="1">  1       21 0.25266485E-02 0.41459256E+03</pdfrwt>
<pdfrwt beam="2">  1       21 0.36780732E+00 0.41459256E+03</pdfrwt>
<totfact> 0.96363976E+03</totfact>
</mgrwt>
</event>
<event>
 7    0  0.4725730E-002  0.4530988E+03  0.7546771E-02  0.1026802E+00
         21   -1    0    0  502  501  0.00000000000E+00  0.00000000000E+00  0.13996023330E+03  0.13996023330E+03  0.00000000000E+00 0.  1.
         21   -1    0    0  501  502 -0.00000000000E+00 -0.00000000000E+00 -0.36670870574E+03  0.36670870574E+03  0.00000000000E+00 0.  1.
      99926    2    1    2    0    0  0.00000000000E+00 -0.71054273576E-14 -0.22674847244E+03  0.50666893904E+03  0.45309882369E+03 0.  0.
      99925    2    3    3    0    0  0.86669778831E+02  0.63102456285E+02 -0.11190146682E+03  0.30584335961E+03  0.26367527717E+03 0.  0.
         25    1    3    3    0    0 -0.86669778831E+02 -0.63102456285E+02 -0.11484700562E+03  0.20082557943E+03  0.12509000000E+03 0.  0.
         25    1    4    4    0    0  0.83869948699E+02  0.42499837417E+02 -0.46991575090E+02  0.16338947550E+03  0.12509000000E+03 0.  0.
         25    1    4    4    0    0  0.27998301322E+01  0.20602618868E+02 -0.64909891731E+02  0.14245388411E+03  0.12509000000E+03 0.  0.
<mgrwt>
<rscale>  2 0.45309882E+03</rscale>
<asrwt>0</asrwt>
<pdfrwt beam="1">  1       21 0.20582388E-01 0.45309882E+03</pdfrwt>
<pdfrwt beam="2">  1       21 0.53927750E-01 0.45309882E+03</pdfrwt>
<totfact> 0.65791796E+04</totfact>
</mgrwt>
</event>
<event>
 7    0  0.4725730E-002  0.4525927E+03  0.7546771E-02  0.1026952E+00
         21   -1    0    0  502  501  0.00000000000E+00  0.00000000000E+00  0.51219172778E+03  0.51219172778E+03  0.00000000000E+00 0. -1.
         21   -1    0    0  501  502 -0.00000000000E+00 -0.00000000000E+00 -0.99982145652E+02  0.99982145652E+02  0.00000000000E+00 0. -1.
      99926    2    1    2    0    0  0.00000000000E+00  0.00000000000E+00  0.41220958213E+03  0.61217387344E+03  0.45259265539E+03 0.  0.
      99925    2    3    3    0    0 -0.65481104850E+02  0.85549883322E+02  0.22449590165E+03  0.36219289102E+03  0.26301848380E+03 0.  0.
         25    1    3    3    0    0  0.65481104850E+02 -0.85549883322E+02  0.18771368048E+03  0.24998098242E+03  0.12509000000E+03 0.  0.
         25    1    4    4    0    0 -0.72089604554E+02  0.39686814578E+02  0.13456354884E+03  0.20131271970E+03  0.12509000000E+03 0.  0.
         25    1    4    4    0    0  0.66084997039E+01  0.45863068744E+02  0.89932352811E+02  0.16088017132E+03  0.12509000000E+03 0.  0.
<mgrwt>
<rscale>  2 0.45259266E+03</rscale>
<asrwt>0</asrwt>
<pdfrwt beam="1">  1       21 0.75322312E-01 0.45259266E+03</pdfrwt>
<pdfrwt beam="2">  1       21 0.14703257E-01 0.45259266E+03</pdfrwt>
<totfact> 0.59049912E+04</totfact>
</mgrwt>
</event>
<event>
 7    0  0.4725730E-002  0.4543740E+03  0.7546771E-02  0.1026426E+00
         21   -1    0    0  502  501  0.00000000000E+00  0.00000000000E+00  0.14357615840E+04  0.14357615840E+04  0.00000000000E+00 0.  1.
         21   -1    0    0  501  502 -0.00000000000E+00 -0.00000000000E+00 -0.35948811189E+02  0.35948811189E+02  0.00000000000E+00 0.  1.
      99926    2    1    2    0    0  0.00000000000E+00  0.00000000000E+00  0.13998127728E+04  0.14717103952E+04  0.45437395214E+03 0.  0.
      99925    2    3    3    0    0 -0.82732007266E+02  0.76106121073E+02  0.89942341761E+03  0.94381481689E+03  0.26303459419E+03 0.  0.
         25    1    4    4    0    0 -0.43490459477E+02 -0.37363084229E+01  0.40691750797E+03  0.42794245695E+03  0.12509000000E+03 0.  0.
         25    1    4    4    0    0 -0.39241547789E+02  0.79842429496E+02  0.49250590964E+03  0.51587235994E+03  0.12509000000E+03 0.  0.
         25    1    3    3    0    0  0.82732007266E+02 -0.76106121073E+02  0.50038935522E+03  0.52789557832E+03  0.12509000000E+03 0.  0.
<mgrwt>
<rscale>  2 0.45437395E+03</rscale>
<asrwt>0</asrwt>
<pdfrwt beam="1">  1       21 0.21114137E+00 0.45437395E+03</pdfrwt>
<pdfrwt beam="2">  1       21 0.52865908E-02 0.45437395E+03</pdfrwt>
<totfact> 0.24600462E+04</totfact>
</mgrwt>
</event>
<event>
 6    0  0.4725730E-002  0.4483760E+03  0.7546771E-02  0.1028207E+00
         21   -1    0    0  502  501  0.00000000000E+00  0.00000000000E+00  0.11822813942E+03  0.11822813942E+03  0.00000000000E+00 0. -1.
         21   -1    0    0  501  502 -0.00000000000E+00 -0.00000000000E+00 -0.42511256484E+03  0.42511256484E+03  0.00000000000E+00 0. -1.
      99926    2    1    2    0    0  0.00000000000E+00  0.00000000000E+00 -0.30688442542E+03  0.54334070426E+03  0.44837603676E+03 0.  0.
         25    1    3    3    0    0  0.74074633044E+02  0.27371362843E+02 -0.46360972060E+02  0.15502609650E+03  0.12509000000E+03 0.  0.
         25    1    3    3    0    0 -0.82613377496E+02  0.20694105288E+01 -0.18816591215E+03  0.24058921671E+03  0.12509000000E+03 0.  0.
         25    1    3    3    0    0  0.85387444520E+01 -0.29440773372E+02 -0.72357541211E+02  0.14772539106E+03  0.12509000000E+03 0.  0.
<mgrwt>
<rscale>  2 0.44837604E+03</rscale>
<asrwt>0</asrwt>
<pdfrwt beam="1">  1       21 0.17386491E-01 0.44837604E+03</pdfrwt>
<pdfrwt beam="2">  1       21 0.62516553E-01 0.44837604E+03</pdfrwt>
<totfact> 0.65684558E+04</totfact>
</mgrwt>
</event>
<event>
 7    0  0.4725730E-002  0.4585169E+03  0.7546771E-02  0.1025212E+00
         21   -1    0    0  502  501  0.00000000000E+00  0.00000000000E+00  0.85157921562E+02  0.85157921562E+02  0.00000000000E+00 0.  1.
         21   -1    0    0  501  502 -0.00000000000E+00 -0.00000000000E+00 -0.61719951528E+03  0.61719951528E+03  0.00000000000E+00 0.  1.
      99926    2    1    2    0    0  0.00000000000E+00 -0.14210854715E-13 -0.53204159372E+03  0.70235743685E+03  0.45851686080E+03 0.  0.
      99925    2    3    3    0    0 -0.15997086390E+02 -0.92768251097E+02 -0.43863004034E+03  0.52005252306E+03  0.26305219875E+03 0.  0.
         25    1    3    3    0    0  0.15997086390E+02  0.92768251097E+02 -0.93411553378E+02  0.18230491378E+03  0.12509000000E+03 0.  0.
         25    1    4    4    0    0 -0.95188205512E+01 -0.78275514870E+02 -0.28692388202E+03  0.32278551136E+03  0.12509000000E+03 0.  0.
         25    1    4    4    0    0 -0.64782658393E+01 -0.14492736228E+02 -0.15170615833E+03  0.19726701170E+03  0.12509000000E+03 0.  0.
<mgrwt>
<rscale>  2 0.45851686E+03</rscale>
<asrwt>0</asrwt>
<pdfrwt beam="1">  1       21 0.12523224E-01 0.45851686E+03</pdfrwt>
<pdfrwt beam="2">  1       21 0.90764634E-01 0.45851686E+03</pdfrwt>
<totfact> 0.51339478E+04</totfact>
</mgrwt>
</event>
<event>
 7    0  0.4725730E-002  0.4325618E+03  0.7546771E-02  0.1033054E+00
         21   -1    0    0  502  501  0.00000000000E+00  0.00000000000E+00  0.92720064182E+02  0.92720064182E+02  0.00000000000E+00 0. -1.
         21   -1    0    0  501  502 -0.00000000000E+00 -0.00000000000E+00 -0.50450164383E+03  0.50450164383E+03  0.00000000000E+00 0. -1.
      99926    2    1    2    0    0  0.00000000000E+00 -0.17763568394E-14 -0.41178157964E+03  0.59722170801E+03  0.43256178655E+03 0.  0.
      99925    2    3    3    0    0 -0.14329684924E+02  0.80314188056E+01 -0.14182928057E+03  0.29924252176E+03  0.26298421711E+03 0.  0.
         25    1    4    4    0    0  0.18298752489E+02  0.50216117520E+01 -0.10601026272E+03  0.16506285115E+03  0.12509000000E+03 0.  0.
         25    1    4    4    0    0 -0.32628437412E+02  0.30098070536E+01 -0.35819017842E+02  0.13417967061E+03  0.12509000000E+03 0.  0.
         25    1    3    3    0    0  0.14329684924E+02 -0.80314188056E+01 -0.26995229908E+03  0.29797918625E+03  0.12509000000E+03 0.  0.
<mgrwt>
<rscale>  2 0.43256179E+03</rscale>
<asrwt>0</asrwt>
<pdfrwt beam="1">  1       21 0.13635303E-01 0.43256179E+03</pdfrwt>
<pdfrwt beam="2">  1       21 0.74191420E-01 0.43256179E+03</pdfrwt>
<totfact> 0.70549565E+04</totfact>
</mgrwt>
</event>
<event>
 7    0  0.4725730E-002  0.4546837E+03  0.7546771E-02  0.1026334E+00
         21   -1    0    0  502  501  0.00000000000E+00  0.00000000000E+00  0.15728101494E+03  0.15728101494E+03  0.00000000000E+00 0. -1.
         21   -1    0    0  501  502 -0.00000000000E+00 -0.00000000000E+00 -0.32861128834E+03  0.32861128834E+03  0.00000000000E+00 0. -1.
      99926    2    1    2    0    0  0.00000000000E+00 -0.35527136788E-14 -0.17133027340E+03  0.48589230327E+03  0.45468370083E+03 0.  0.
      99925    2    3    3    0    0 -0.10428711990E+03  0.24204783586E+02 -0.14594243994E+03  0.31929781023E+03  0.26304034086E+03 0.  0.
         25    1    4    4    0    0 -0.91110541091E+02 -0.24258453273E+01 -0.90437583165E+02  0.17925813781E+03  0.12509000000E+03 0.  0.
         25    1    3    3    0    0  0.10428711990E+03 -0.24204783586E+02 -0.25387833462E+02  0.16659449304E+03  0.12509000000E+03 0.  0.
         25    1    4    4    0    0 -0.13176578807E+02  0.26630628914E+02 -0.55504856773E+02  0.14003967242E+03  0.12509000000E+03 0.  0.
<mgrwt>
<rscale>  2 0.45468370E+03</rscale>
<asrwt>0</asrwt>
<pdfrwt beam="1">  1       21 0.23129561E-01 0.45468370E+03</pdfrwt>
<pdfrwt beam="2">  1       21 0.48325190E-01 0.45468370E+03</pdfrwt>
<totfact> 0.66440295E+04</totfact>
</mgrwt>
</event>
<event>
 7    0  0.4725730E-002  0.4583928E+03  0.7546771E-02  0.1025248E+00
         21   -1    0    0  502  501  0.00000000000E+00  0.00000000000E+00  0.10830177471E+04  0.10830177471E+04  0.00000000000E+00 0. -1.
         21   -1    0    0  501  502 -0.00000000000E+00 -0.00000000000E+00 -0.48504269468E+02  0.48504269468E+02  0.00000000000E+00 0. -1.
      99926    2    1    2    0    0  0.17763568394E-14  0.00000000000E+00  0.10345134777E+04  0.11315220166E+04  0.45839277763E+03 0.  0.
      99925    2    3    3    0    0 -0.15991901855E+02  0.14757423828E+02  0.93102467496E+03  0.96772042055E+03  0.26306338493E+03 0.  0.
         25    1    4    4    0    0 -0.24294602608E+01  0.37969426852E+02  0.56652993482E+03  0.58142175295E+03  0.12509000000E+03 0.  0.
         25    1    3    3    0    0  0.15991901855E+02 -0.14757423828E+02  0.10348880271E+03  0.16380159605E+03  0.12509000000E+03 0.  0.
         25    1    4    4    0    0 -0.13562441594E+02 -0.23212003025E+02  0.36449474013E+03  0.38629866760E+03  0.12509000000E+03 0.  0.
<mgrwt>
<rscale>  2 0.45839278E+03</rscale>
<asrwt>0</asrwt>
<pdfrwt beam="1">  1       21 0.15926730E+00 0.45839278E+03</pdfrwt>
<pdfrwt beam="2">  1       21 0.71329815E-02 0.45839278E+03</pdfrwt>
<totfact> 0.33510269E+04</totfact>
</mgrwt>
</event>
<event>
 7    0  0.4725730E-002  0.4587592E+03  0.7546771E-02  0.1025142E+00
         21   -1    0    0  502  501  0.00000000000E+00  0.00000000000E+00  0.24052556240E+04  0.24052556240E+04  0.00000000000E+00 0. -1.
         21   -1    0    0  501  502 -0.00000000000E+00 -0.00000000000E+00 -0.21875010438E+02  0.21875010438E+02  0.00000000000E+00 0. -1.
      99926    2    1    2    0    0 -0.88817841970E-15  0.00000000000E+00  0.23833806136E+04  0.24271306344E+04  0.45875916070E+03 0.  0.
      99925    2    3    3    0    0 -0.73163294864E+01  0.82315602308E+02  0.10576400626E+04  0.10929399045E+04  0.26284167469E+03 0.  0.
         25    1    4    4    0    0  0.30980782106E+01  0.55126135455E+02  0.69252485487E+03  0.70589423542E+03  0.12509000000E+03 0.  0.
         25    1    4    4    0    0 -0.10414407697E+02  0.27189466853E+02  0.36511520769E+03  0.38704566912E+03  0.12509000000E+03 0.  0.
         25    1    3    3    0    0  0.73163294864E+01 -0.82315602308E+02  0.13257405510E+04  0.13341907299E+04  0.12509000000E+03 0.  0.
<mgrwt>
<rscale>  2 0.45875916E+03</rscale>
<asrwt>0</asrwt>
<pdfrwt beam="1">  1       21 0.35371388E+00 0.45875916E+03</pdfrwt>
<pdfrwt beam="2">  1       21 0.32169149E-02 0.45875916E+03</pdfrwt>
<totfact> 0.76795337E+03</totfact>
</mgrwt>
</event>
<event>
 7    0  0.4725730E-002  0.4543778E+03  0.7546771E-02  0.1026425E+00
         21   -1    0    0  502  501  0.00000000000E+00  0.00000000000E+00  0.74279952966E+02  0.74279952966E+02  0.00000000000E+00 0.  1.
         21   -1    0    0  501  502 -0.00000000000E+00 -0.00000000000E+00 -0.69486849306E+03  0.69486849306E+03  0.00000000000E+00 0.  1.
      99926    2    1    2    0    0  0.00000000000E+00  0.88817841970E-15 -0.62058854009E+03  0.76914844603E+03  0.45437781188E+03 0.  0.
      99925    2    3    3    0    0  0.32180662162E+02 -0.81830164646E+00 -0.20812559206E+03  0.33693385090E+03  0.26300550028E+03 0.  0.
         25    1    3    3    0    0 -0.32180662162E+02  0.81830164646E+00 -0.41246294804E+03  0.43221459512E+03  0.12509000000E+03 0.  0.
         25    1    4    4    0    0  0.27044927968E+02 -0.26984836278E+02 -0.14161182054E+03  0.19277195163E+03  0.12509000000E+03 0.  0.
         25    1    4    4    0    0  0.51357341936E+01  0.26166534632E+02 -0.66513771513E+02  0.14416189927E+03  0.12509000000E+03 0.  0.
<mgrwt>
<rscale>  2 0.45437781E+03</rscale>
<asrwt>0</asrwt>
<pdfrwt beam="1">  1       21 0.10923522E-01 0.45437781E+03</pdfrwt>
<pdfrwt beam="2">  1       21 0.10218655E+00 0.45437781E+03</pdfrwt>
<totfact> 0.49534691E+04</totfact>
</mgrwt>
</event>
<event>
 7    0  0.4725730E-002  0.4355595E+03  0.7546771E-02  0.1032118E+00
         21   -1    0    0  502  501  0.00000000000E+00  0.00000000000E+00  0.65234147039E+03  0.65234147039E+03  0.00000000000E+00 0.  1.
         21   -1    0    0  501  502 -0.00000000000E+00 -0.00000000000E+00 -0.72704285551E+02  0.72704285551E+02  0.00000000000E+00 0.  1.
      99926    2    1    2    0    0  0.35527136788E-14  0.00000000000E+00  0.57963718484E+03  0.72504575594E+03  0.43555950473E+03 0.  0.
      99925    2    3    3    0    0  0.30701547128E+02  0.48273540594E+02  0.24820708584E+03  0.36620548738E+03  0.26310982842E+03 0.  0.
         25    1    4    4    0    0  0.16127059444E+02 -0.12636567813E+02  0.92713859508E+02  0.15704500227E+03  0.12509000000E+03 0.  0.
         25    1    3    3    0    0 -0.30701547128E+02 -0.48273540594E+02  0.33143009900E+03  0.35884026856E+03  0.12509000000E+03 0.  0.
         25    1    4    4    0    0  0.14574487683E+02  0.60910108408E+02  0.15549322633E+03  0.20916048511E+03  0.12509000000E+03 0.  0.
<mgrwt>
<rscale>  2 0.43555950E+03</rscale>
<asrwt>0</asrwt>
<pdfrwt beam="1">  1       21 0.95932566E-01 0.43555950E+03</pdfrwt>
<pdfrwt beam="2">  1       21 0.10691807E-01 0.43555950E+03</pdfrwt>
<totfact> 0.60262561E+04</totfact>
</mgrwt>
</event>
<event>
 7    0  0.4725730E-002  0.4518800E+03  0.7546771E-02  0.1027163E+00
         21   -1    0    0  502  501  0.00000000000E+00  0.00000000000E+00  0.37707237592E+02  0.37707237592E+02  0.00000000000E+00 0. -1.
         21   -1    0    0  501  502 -0.00000000000E+00 -0.00000000000E+00 -0.13538219925E+04  0.13538219925E+04  0.00000000000E+00 0. -1.
      99926    2    1    2    0    0  0.00000000000E+00  0.00000000000E+00 -0.13161147549E+04  0.13915292301E+04  0.45188001739E+03 0.  0.
      99925    2    3    3    0    0  0.23759422549E+02  0.69448303448E+02 -0.57754350853E+03  0.63885229336E+03  0.26303644515E+03 0.  0.
         25    1    4    4    0    0  0.12721957028E+02  0.68529622532E+01 -0.34494100373E+03  0.36720650244E+03  0.12509000000E+03 0.  0.
         25    1    4    4    0    0  0.11037465521E+02  0.62595341195E+02 -0.23260250480E+03  0.27164579092E+03  0.12509000000E+03 0.  0.
         25    1    3    3    0    0 -0.23759422549E+02 -0.69448303448E+02 -0.73857124641E+03  0.75267693676E+03  0.12509000000E+03 0.  0.
<mgrwt>
<rscale>  2 0.45188002E+03</rscale>
<asrwt>0</asrwt>
<pdfrwt beam="1">  1       21 0.55451821E-02 0.45188002E+03</pdfrwt>
<pdfrwt beam="2">  1       21 0.19909147E+00 0.45188002E+03</pdfrwt>
<totfact> 0.27212472E+04</totfact>
</mgrwt>
</event>
<event>
 7    0  0.4725730E-002  0.4543528E+03  0.7546771E-02  0.1026432E+00
         21   -1    0    0  502  501  0.00000000000E+00  0.00000000000E+00  0.45800697106E+03  0.45800697106E+03  0.00000000000E+00 0. -1.
         21   -1    0    0  501  502 -0.00000000000E+00 -0.00000000000E+00 -0.11268195911E+03  0.11268195911E+03  0.00000000000E+00 0. -1.
      99926    2    1    2    0    0  0.00000000000E+00  0.00000000000E+00  0.34532501195E+03  0.57068893018E+03  0.45435282672E+03 0.  0.
      99925    2    3    3    0    0  0.10965966550E+03 -0.25267389170E+02  0.21690972837E+03  0.35902486533E+03  0.26303106370E+03 0.  0.
         25    1    3    3    0    0 -0.10965966550E+03  0.25267389170E+02  0.12841528358E+03  0.21166406485E+03  0.12509000000E+03 0.  0.
         25    1    4    4    0    0  0.11463036582E+02 -0.17883764793E+02  0.94570370061E+02  0.15824756947E+03  0.12509000000E+03 0.  0.
         25    1    4    4    0    0  0.98196628914E+02 -0.73836243769E+01  0.12233935830E+03  0.20077729585E+03  0.12509000000E+03 0.  0.
<mgrwt>
<rscale>  2 0.45435283E+03</rscale>
<asrwt>0</asrwt>
<pdfrwt beam="1">  1       21 0.67353966E-01 0.45435283E+03</pdfrwt>
<pdfrwt beam="2">  1       21 0.16570876E-01 0.45435283E+03</pdfrwt>
<totfact> 0.60830428E+04</totfact>
</mgrwt>
</event>
<event>
 7    0  0.4725730E-002  0.4507377E+03  0.7546771E-02  0.1027502E+00
         21   -1    0    0  502  501  0.00000000000E+00  0.00000000000E+00  0.21238760469E+02  0.21238760469E+02  0.00000000000E+00 0.  1.
         21   -1    0    0  501  502 -0.00000000000E+00 -0.00000000000E+00 -0.23914347056E+04  0.23914347056E+04  0.00000000000E+00 0.  1.
      99926    2    1    2    0    0  0.00000000000E+00  0.14210854715E-13 -0.23701959451E+04  0.24126734661E+04  0.45073765714E+03 0.  0.
      99925    2    3    3    0    0  0.19038873921E+02 -0.93552236742E+02 -0.17802151606E+04  0.18020677554E+04  0.26299748517E+03 0.  0.
         25    1    4    4    0    0 -0.24163844545E+02 -0.57987243379E+02 -0.77278782078E+03  0.78536293255E+03  0.12509000000E+03 0.  0.
         25    1    3    3    0    0 -0.19038873921E+02  0.93552236742E+02 -0.58998078455E+03  0.61060571071E+03  0.12509000000E+03 0.  0.
         25    1    4    4    0    0  0.43202718465E+02 -0.35564993362E+02 -0.10074273398E+04  0.10167048228E+04  0.12509000000E+03 0.  0.
<mgrwt>
<rscale>  2 0.45073766E+03</rscale>
<asrwt>0</asrwt>
<pdfrwt beam="1">  1       21 0.31233475E-02 0.45073766E+03</pdfrwt>
<pdfrwt beam="2">  1       21 0.35168153E+00 0.45073766E+03</pdfrwt>
<totfact> 0.83398707E+03</totfact>
</mgrwt>
</event>
<event>
 6    0  0.4725730E-002  0.4453224E+03  0.7546771E-02  0.1029126E+00
         21   -1    0    0  502  501  0.00000000000E+00  0.00000000000E+00  0.67315584667E+03  0.67315584667E+03  0.00000000000E+00 0.  1.
         21   -1    0    0  501  502 -0.00000000000E+00 -0.00000000000E+00 -0.73650131705E+02  0.73650131705E+02  0.00000000000E+00 0.  1.
      99926    2    1    2    0    0  0.00000000000E+00 -0.13322676296E-14  0.59950571496E+03  0.74680597837E+03  0.44532243045E+03 0.  0.
         25    1    3    3    0    0  0.10492710309E+03  0.20153150797E+01  0.19888812667E+03  0.25732810474E+03  0.12509000000E+03 0.  0.
         25    1    3    3    0    0 -0.61043823681E+02 -0.37047974704E+02  0.19920041618E+03  0.24581947593E+03  0.12509000000E+03 0.  0.
         25    1    3    3    0    0 -0.43883279405E+02  0.35032659624E+02  0.20141717211E+03  0.24365839771E+03  0.12509000000E+03 0.  0.
<mgrwt>
<rscale>  2 0.44532243E+03</rscale>
<asrwt>0</asrwt>
<pdfrwt beam="1">  1       21 0.98993503E-01 0.44532243E+03</pdfrwt>
<pdfrwt beam="2">  1       21 0.10830902E-01 0.44532243E+03</pdfrwt>
<totfact> 0.54460114E+04</totfact>
</mgrwt>
</event>
<event>
 7    0  0.4725730E-002  0.4559014E+03  0.7546771E-02  0.1025977E+00
         21   -1    0    0  502  501  0.00000000000E+00  0.00000000000E+00  0.14917080407E+03  0.14917080407E+03  0.00000000000E+00 0. -1.
         21   -1    0    0  501  502 -0.00000000000E+00 -0.00000000000E+00 -0.34833573239E+03  0.34833573239E+03  0.00000000000E+00 0. -1.
      99926    2    1    2    0    0  0.00000000000E+00  0.14210854715E-13 -0.19916492831E+03  0.49750653646E+03  0.45590139849E+03 0.  0.
      99925    2    3    3    0    0  0.53520900314E+02  0.99436077912E+02 -0.14211502309E+03  0.31959020739E+03  0.26303840121E+03 0.  0.
         25    1    4    4    0    0  0.78478516943E+01  0.56373598861E+02 -0.30987959477E+02  0.14088056345E+03  0.12509000000E+03 0.  0.
         25    1    4    4    0    0  0.45673048620E+02  0.43062479051E+02 -0.11112706361E+03  0.17870964395E+03  0.12509000000E+03 0.  0.
         25    1    3    3    0    0 -0.53520900314E+02 -0.99436077912E+02 -0.57049905226E+02  0.17791632906E+03  0.12509000000E+03 0.  0.
<mgrwt>
<rscale>  2 0.45590140E+03</rscale>
<asrwt>0</asrwt>
<pdfrwt beam="1">  1       21 0.21936883E-01 0.45590140E+03</pdfrwt>
<pdfrwt beam="2">  1       21 0.51225842E-01 0.45590140E+03</pdfrwt>
<totfact> 0.64979969E+04</totfact>
</mgrwt>
</event>
<event>
 7    0  0.4725730E-002  0.4508596E+03  0.7546771E-02  0.1027466E+00
         21   -1    0    0  502  501  0.00000000000E+00  0.00000000000E+00  0.25386000997E+03  0.25386000997E+03  0.00000000000E+00 0. -1.
         21   -1    0    0  501  502 -0.00000000000E+00 -0.00000000000E+00 -0.20018353515E+03  0.20018353515E+03  0.00000000000E+00 0. -1.
      99926    2    1    2    0    0 -0.14210854715E-13  0.00000000000E+00  0.53676474814E+02  0.45404354512E+03  0.45085959778E+03 0.  0.
      99925    2    3    3    0    0 -0.69389977946E+02 -0.12417149324E+02  0.11830817589E+03  0.29658269436E+03  0.26266959374E+03 0.  0.
         25    1    4    4    0    0 -0.58818894938E+02 -0.30224822351E+02  0.86575200655E+02  0.16587940124E+03  0.12509000000E+03 0.  0.
         25    1    4    4    0    0 -0.10571083008E+02  0.17807673027E+02  0.31732975239E+02  0.13070329312E+03  0.12509000000E+03 0.  0.
         25    1    3    3    0    0  0.69389977946E+02  0.12417149324E+02 -0.64631701079E+02  0.15746085076E+03  0.12509000000E+03 0.  0.
<mgrwt>
<rscale>  2 0.45085960E+03</rscale>
<asrwt>0</asrwt>
<pdfrwt beam="1">  1       21 0.37332354E-01 0.45085960E+03</pdfrwt>
<pdfrwt beam="2">  1       21 0.29438755E-01 0.45085960E+03</pdfrwt>
<totfact> 0.70930094E+04</totfact>
</mgrwt>
</event>
<event>
 7    0  0.4725730E-002  0.4545055E+03  0.7546771E-02  0.1026387E+00
         21   -1    0    0  502  501  0.00000000000E+00  0.00000000000E+00  0.10202530603E+03  0.10202530603E+03  0.00000000000E+00 0.  1.
         21   -1    0    0  501  502 -0.00000000000E+00 -0.00000000000E+00 -0.50618626810E+03  0.50618626810E+03  0.00000000000E+00 0.  1.
      99926    2    1    2    0    0  0.00000000000E+00  0.00000000000E+00 -0.40416096207E+03  0.60821157413E+03  0.45450548472E+03 0.  0.
      99925    2    3    3    0    0  0.61064649218E+02 -0.80063806188E+02 -0.32129253598E+03  0.42750798095E+03  0.26342945100E+03 0.  0.
         25    1    4    4    0    0  0.60869527762E+02 -0.65915737006E+02 -0.20295932212E+03  0.25473511405E+03  0.12509000000E+03 0.  0.
         25    1    3    3    0    0 -0.61064649218E+02  0.80063806188E+02 -0.82868426092E+02  0.18070359318E+03  0.12509000000E+03 0.  0.
         25    1    4    4    0    0  0.19512145551E+00 -0.14148069182E+02 -0.11833321385E+03  0.17277286689E+03  0.12509000000E+03 0.  0.
<mgrwt>
<rscale>  2 0.45450548E+03</rscale>
<asrwt>0</asrwt>
<pdfrwt beam="1">  1       21 0.15003721E-01 0.45450548E+03</pdfrwt>
<pdfrwt beam="2">  1       21 0.74439158E-01 0.45450548E+03</pdfrwt>
<totfact> 0.58403461E+04</totfact>
</mgrwt>
</event>
<event>
 7    0  0.4725730E-002  0.5312943E+03  0.7546771E-02  0.1005919E+00
         21   -1    0    0  502  501  0.00000000000E+00  0.00000000000E+00  0.12513361768E+03  0.12513361768E+03  0.00000000000E+00 0.  1.
         21   -1    0    0  501  502 -0.00000000000E+00 -0.00000000000E+00 -0.56394450493E+03  0.56394450493E+03  0.00000000000E+00 0.  1.
      99926    2    1    2    0    0  0.00000000000E+00  0.00000000000E+00 -0.43881088725E+03  0.68907812260E+03  0.53129432924E+03 0.  0.
      99925    2    3    3    0    0  0.47242116155E+01 -0.17445750147E+03 -0.28112007063E+03  0.42267309310E+03  0.26299488879E+03 0.  0.
         25    1    3    3    0    0 -0.47242116155E+01  0.17445750147E+03 -0.15769081662E+03  0.26640502950E+03  0.12509000000E+03 0.  0.
         25    1    4    4    0    0  0.31888033813E+02 -0.11678852067E+03 -0.17347617016E+03  0.24575983190E+03  0.12509000000E+03 0.  0.
         25    1    4    4    0    0 -0.27163822198E+02 -0.57668980800E+02 -0.10764390046E+03  0.17691326120E+03  0.12509000000E+03 0.  0.
<mgrwt>
<rscale>  2 0.53129433E+03</rscale>
<asrwt>0</asrwt>
<pdfrwt beam="1">  1       21 0.18402003E-01 0.53129433E+03</pdfrwt>
<pdfrwt beam="2">  1       21 0.82933014E-01 0.53129433E+03</pdfrwt>
<totfact> 0.30550407E+04</totfact>
</mgrwt>
</event>
<event>
 7    0  0.4725730E-002  0.4527275E+03  0.7546771E-02  0.1026912E+00
         21   -1    0    0  502  501  0.00000000000E+00  0.00000000000E+00  0.25143244886E+03  0.25143244886E+03  0.00000000000E+00 0. -1.
         21   -1    0    0  501  502 -0.00000000000E+00 -0.00000000000E+00 -0.20379447899E+03  0.20379447899E+03  0.00000000000E+00 0. -1.
      99926    2    1    2    0    0  0.14210854715E-13 -0.88817841970E-15  0.47637969870E+02  0.45522692786E+03  0.45272748942E+03 0.  0.
      99925    2    3    3    0    0 -0.11039942660E+03 -0.77034076089E+01  0.39303576121E+02  0.28800149289E+03  0.26296903416E+03 0.  0.
         25    1    4    4    0    0 -0.90313191641E+02  0.12278180372E+02  0.39535300367E+02  0.15974283825E+03  0.12509000000E+03 0.  0.
         25    1    4    4    0    0 -0.20086234958E+02 -0.19981587981E+02 -0.23172424575E+00  0.12825865464E+03  0.12509000000E+03 0.  0.
         25    1    3    3    0    0  0.11039942660E+03  0.77034076089E+01  0.83343937488E+01  0.16722543497E+03  0.12509000000E+03 0.  0.
<mgrwt>
<rscale>  2 0.45272749E+03</rscale>
<asrwt>0</asrwt>
<pdfrwt beam="1">  1       21 0.36975360E-01 0.45272749E+03</pdfrwt>
<pdfrwt beam="2">  1       21 0.29969776E-01 0.45272749E+03</pdfrwt>
<totfact> 0.69785890E+04</totfact>
</mgrwt>
</event>
<event>
 7    0  0.4725730E-002  0.4574422E+03  0.7546771E-02  0.1025526E+00
         21   -1    0    0  502  501  0.00000000000E+00  0.00000000000E+00  0.15087006284E+03  0.15087006284E+03  0.00000000000E+00 0.  1.
         21   -1    0    0  501  502 -0.00000000000E+00 -0.00000000000E+00 -0.34674432060E+03  0.34674432060E+03  0.00000000000E+00 0.  1.
      99926    2    1    2    0    0  0.00000000000E+00  0.00000000000E+00 -0.19587425776E+03  0.49761438343E+03  0.45744218186E+03 0.  0.
      99925    2    3    3    0    0 -0.89537871609E+02 -0.60770880168E+02 -0.79120522592E+02  0.29515679997E+03  0.26295883545E+03 0.  0.
         25    1    4    4    0    0 -0.11115059104E+02 -0.10092906044E+02 -0.53914316642E+02  0.13703894676E+03  0.12509000000E+03 0.  0.
         25    1    3    3    0    0  0.89537871609E+02  0.60770880168E+02 -0.11675373516E+03  0.20245758347E+03  0.12509000000E+03 0.  0.
         25    1    4    4    0    0 -0.78422812504E+02 -0.50677974124E+02 -0.25206205950E+02  0.15811785320E+03  0.12509000000E+03 0.  0.
<mgrwt>
<rscale>  2 0.45744218E+03</rscale>
<asrwt>0</asrwt>
<pdfrwt beam="1">  1       21 0.22186774E-01 0.45744218E+03</pdfrwt>
<pdfrwt beam="2">  1       21 0.50991811E-01 0.45744218E+03</pdfrwt>
<totfact> 0.64185162E+04</totfact>
</mgrwt>
</event>
<event>
 7    0  0.4725730E-002  0.4508905E+03  0.7546771E-02  0.1027457E+00
         21   -1    0    0  502  501  0.00000000000E+00  0.00000000000E+00  0.37899370452E+03  0.37899370452E+03  0.00000000000E+00 0. -1.
         21   -1    0    0  501  502 -0.00000000000E+00 -0.00000000000E+00 -0.13410660469E+03  0.13410660469E+03  0.00000000000E+00 0. -1.
      99926    2    1    2    0    0  0.00000000000E+00  0.00000000000E+00  0.24488709982E+03  0.51310030921E+03  0.45089049186E+03 0.  0.
      99925    2    3    3    0    0  0.44067572482E+02 -0.70988812178E+02  0.75398891872E+02  0.28648362153E+03  0.26345115318E+03 0.  0.
         25    1    4    4    0    0  0.26428866662E+02 -0.77826139811E+02  0.35493158082E+02  0.15382673825E+03  0.12509000000E+03 0.  0.
         25    1    3    3    0    0 -0.44067572482E+02  0.70988812178E+02  0.16948820795E+03  0.22661668768E+03  0.12509000000E+03 0.  0.
         25    1    4    4    0    0  0.17638705821E+02  0.68373276332E+01  0.39905733790E+02  0.13265688328E+03  0.12509000000E+03 0.  0.
<mgrwt>
<rscale>  2 0.45089049E+03</rscale>
<asrwt>0</asrwt>
<pdfrwt beam="1">  1       21 0.55734368E-01 0.45089049E+03</pdfrwt>
<pdfrwt beam="2">  1       21 0.19721560E-01 0.45089049E+03</pdfrwt>
<totfact> 0.66502016E+04</totfact>
</mgrwt>
</event>
<event>
 7    0  0.4725730E-002  0.4594646E+03  0.7546771E-02  0.1024937E+00
         21   -1    0    0  502  501  0.00000000000E+00  0.00000000000E+00  0.44399717961E+03  0.44399717961E+03  0.00000000000E+00 0.  1.
         21   -1    0    0  501  502 -0.00000000000E+00 -0.00000000000E+00 -0.11886769492E+03  0.11886769492E+03  0.00000000000E+00 0.  1.
      99926    2    1    2    0    0  0.14210854715E-13 -0.71054273576E-14  0.32512948469E+03  0.56286487453E+03  0.45946456355E+03 0.  0.
      99925    2    3    3    0    0  0.90006458020E+02 -0.57985610448E+02  0.14433779373E+03  0.31833136532E+03  0.26275076773E+03 0.  0.
         25    1    3    3    0    0 -0.90006458020E+02  0.57985610448E+02  0.18079169096E+03  0.24453350921E+03  0.12509000000E+03 0.  0.
         25    1    4    4    0    0  0.64520405165E+02 -0.61039884568E+02  0.10012587361E+03  0.18319784075E+03  0.12509000000E+03 0.  0.
         25    1    4    4    0    0  0.25486052855E+02  0.30542741206E+01  0.44211920120E+02  0.13513352456E+03  0.12509000000E+03 0.  0.
<mgrwt>
<rscale>  2 0.45946456E+03</rscale>
<asrwt>0</asrwt>
<pdfrwt beam="1">  1       21 0.65293702E-01 0.45946456E+03</pdfrwt>
<pdfrwt beam="2">  1       21 0.17480544E-01 0.45946456E+03</pdfrwt>
<totfact> 0.58916141E+04</totfact>
</mgrwt>
</event>
<event>
 7    0  0.4725730E-002  0.4618563E+03  0.7546771E-02  0.1024244E+00
         21   -1    0    0  502  501  0.00000000000E+00  0.00000000000E+00  0.12327861227E+03  0.12327861227E+03  0.00000000000E+00 0.  1.
         21   -1    0    0  501  502 -0.00000000000E+00 -0.00000000000E+00 -0.43257961830E+03  0.43257961830E+03  0.00000000000E+00 0.  1.
      99926    2    1    2    0    0  0.00000000000E+00 -0.14210854715E-13 -0.30930100603E+03  0.55585823058E+03  0.46185631983E+03 0.  0.
      99925    2    3    3    0    0  0.25725354851E+02 -0.10247615951E+03 -0.12625171949E+03  0.31026159674E+03  0.26298213740E+03 0.  0.
         25    1    3    3    0    0 -0.25725354851E+02  0.10247615951E+03 -0.18304928654E+03  0.24559663384E+03  0.12509000000E+03 0.  0.
         25    1    4    4    0    0  0.37599289143E+02 -0.40157253787E+02 -0.29302592936E+02  0.13975858338E+03  0.12509000000E+03 0.  0.
         25    1    4    4    0    0 -0.11873934292E+02 -0.62318905718E+02 -0.96949126552E+02  0.17050301336E+03  0.12509000000E+03 0.  0.
<mgrwt>
<rscale>  2 0.46185632E+03</rscale>
<asrwt>0</asrwt>
<pdfrwt beam="1">  1       21 0.18129208E-01 0.46185632E+03</pdfrwt>
<pdfrwt beam="2">  1       21 0.63614649E-01 0.46185632E+03</pdfrwt>
<totfact> 0.58256369E+04</totfact>
</mgrwt>
</event>
<event>
 7    0  0.4725730E-002  0.4562304E+03  0.7546771E-02  0.1025880E+00
         21   -1    0    0  502  501  0.00000000000E+00  0.00000000000E+00  0.47517855366E+03  0.47517855366E+03  0.00000000000E+00 0. -1.
         21   -1    0    0  501  502 -0.00000000000E+00 -0.00000000000E+00 -0.10950945815E+03  0.10950945815E+03  0.00000000000E+00 0. -1.
      99926    2    1    2    0    0  0.00000000000E+00  0.14210854715E-13  0.36566909551E+03  0.58468801181E+03  0.45623040643E+03 0.  0.
      99925    2    3    3    0    0  0.52071269269E+02  0.95102491936E+02  0.18380983624E+03  0.33876892077E+03  0.26310154832E+03 0.  0.
         25    1    4    4    0    0  0.44208403770E+02  0.20676793071E+02  0.11831186015E+03  0.17896121671E+03  0.12509000000E+03 0.  0.
         25    1    4    4    0    0  0.78628654986E+01  0.74425698864E+02  0.65497976090E+02  0.15980770406E+03  0.12509000000E+03 0.  0.
         25    1    3    3    0    0 -0.52071269269E+02 -0.95102491936E+02  0.18185925927E+03  0.24591909104E+03  0.12509000000E+03 0.  0.
<mgrwt>
<rscale>  2 0.45623041E+03</rscale>
<asrwt>0</asrwt>
<pdfrwt beam="1">  1       21 0.69879198E-01 0.45623041E+03</pdfrwt>
<pdfrwt beam="2">  1       21 0.16104332E-01 0.45623041E+03</pdfrwt>
<totfact> 0.59054335E+04</totfact>
</mgrwt>
</event>
<event>
 7    0  0.4725730E-002  0.4537311E+03  0.7546771E-02  0.1026615E+00
         21   -1    0    0  502  501  0.00000000000E+00  0.00000000000E+00  0.23523061387E+03  0.23523061387E+03  0.00000000000E+00 0. -1.
         21   -1    0    0  501  502 -0.00000000000E+00 -0.00000000000E+00 -0.21879797433E+03  0.21879797433E+03  0.00000000000E+00 0. -1.
      99926    2    1    2    0    0 -0.35527136788E-14  0.71054273576E-14  0.16432639540E+02  0.45402858821E+03  0.45373111781E+03 0.  0.
      99925    2    3    3    0    0 -0.26302850179E+02  0.41495245546E+02 -0.90386453156E+02  0.28235587053E+03  0.26294758295E+03 0.  0.
         25    1    4    4    0    0  0.11376573523E+02  0.47307906446E+01 -0.73462320790E+02  0.14558855546E+03  0.12509000000E+03 0.  0.
         25    1    4    4    0    0 -0.37679423702E+02  0.36764454902E+02 -0.16924132366E+02  0.13676731507E+03  0.12509000000E+03 0.  0.
         25    1    3    3    0    0  0.26302850179E+02 -0.41495245546E+02  0.10681909270E+03  0.17167271768E+03  0.12509000000E+03 0.  0.
<mgrwt>
<rscale>  2 0.45373112E+03</rscale>
<asrwt>0</asrwt>
<pdfrwt beam="1">  1       21 0.34592737E-01 0.45373112E+03</pdfrwt>
<pdfrwt beam="2">  1       21 0.32176173E-01 0.45373112E+03</pdfrwt>
<totfact> 0.69316155E+04</totfact>
</mgrwt>
</event>
<event>
 7    0  0.4725730E-002  0.4610543E+03  0.7546771E-02  0.1024476E+00
         21   -1    0    0  502  501  0.00000000000E+00  0.00000000000E+00  0.17061047535E+03  0.17061047535E+03  0.00000000000E+00 0.  1.
         21   -1    0    0  501  502 -0.00000000000E+00 -0.00000000000E+00 -0.31148591252E+03  0.31148591252E+03  0.00000000000E+00 0.  1.
      99926    2    1    2    0    0  0.71054273576E-14  0.00000000000E+00 -0.14087543717E+03  0.48209638786E+03  0.46105426838E+03 0.  0.
      99925    2    3    3    0    0  0.49934565082E+02 -0.79450819741E+01 -0.20064593610E+03  0.33452740142E+03  0.26285586451E+03 0.  0.
         25    1    3    3    0    0 -0.49934565082E+02  0.79450819741E+01  0.59770498935E+02  0.14756898644E+03  0.12509000000E+03 0.  0.
         25    1    4    4    0    0  0.52495532820E+02 -0.29813965863E+02 -0.12390763924E+03  0.18613238485E+03  0.12509000000E+03 0.  0.
         25    1    4    4    0    0 -0.25609677383E+01  0.21868883889E+02 -0.76738296866E+02  0.14839501657E+03  0.12509000000E+03 0.  0.
<mgrwt>
<rscale>  2 0.46105427E+03</rscale>
<asrwt>0</asrwt>
<pdfrwt beam="1">  1       21 0.25089776E-01 0.46105427E+03</pdfrwt>
<pdfrwt beam="2">  1       21 0.45806751E-01 0.46105427E+03</pdfrwt>
<totfact> 0.63443895E+04</totfact>
</mgrwt>
</event>
<event>
 7    0  0.4725730E-002  0.4328142E+03  0.7546771E-02  0.1032975E+00
         21   -1    0    0  502  501  0.00000000000E+00  0.00000000000E+00  0.49441029242E+02  0.49441029242E+02  0.00000000000E+00 0. -1.
         21   -1    0    0  501  502 -0.00000000000E+00 -0.00000000000E+00 -0.94723020261E+03  0.94723020261E+03  0.00000000000E+00 0. -1.
      99926    2    1    2    0    0  0.00000000000E+00  0.00000000000E+00 -0.89778917337E+03  0.99667123185E+03  0.43281421486E+03 0.  0.
      99925    2    3    3    0    0  0.53354973609E+02 -0.40770300571E+02 -0.71775354372E+03  0.76739125746E+03  0.26307835691E+03 0.  0.
         25    1    3    3    0    0 -0.53354973609E+02  0.40770300571E+02 -0.18003562965E+03  0.22927997440E+03  0.12509000000E+03 0.  0.
         25    1    4    4    0    0  0.10442428004E+02 -0.49290883648E+02 -0.42863658857E+03  0.44935005138E+03  0.12509000000E+03 0.  0.
         25    1    4    4    0    0  0.42912545604E+02  0.85205830765E+01 -0.28911695516E+03  0.31804120608E+03  0.12509000000E+03 0.  0.
<mgrwt>
<rscale>  2 0.43281421E+03</rscale>
<asrwt>0</asrwt>
<pdfrwt beam="1">  1       21 0.72707401E-02 0.43281421E+03</pdfrwt>
<pdfrwt beam="2">  1       21 0.13929855E+00 0.43281421E+03</pdfrwt>
<totfact> 0.46913198E+04</totfact>
</mgrwt>
</event>
<event>
 7    0  0.4725730E-002  0.4544028E+03  0.7546771E-02  0.1026417E+00
         21   -1    0    0  502  501  0.00000000000E+00  0.00000000000E+00  0.23423727699E+03  0.23423727699E+03  0.00000000000E+00 0.  1.
         21   -1    0    0  501  502 -0.00000000000E+00 -0.00000000000E+00 -0.22037685744E+03  0.22037685744E+03  0.00000000000E+00 0.  1.
      99926    2    1    2    0    0  0.00000000000E+00  0.00000000000E+00  0.13860419543E+02  0.45461413443E+03  0.45440279488E+03 0.  0.
      99925    2    3    3    0    0  0.79817616097E+02 -0.76696901931E+02 -0.11980328558E+02  0.28559189043E+03  0.26299416914E+03 0.  0.
         25    1    4    4    0    0  0.26325906760E+02 -0.56987858070E+02  0.27357823909E+02  0.14260654951E+03  0.12509000000E+03 0.  0.
         25    1    3    3    0    0 -0.79817616097E+02  0.76696901931E+02  0.25840748100E+02  0.16902224400E+03  0.12509000000E+03 0.  0.
         25    1    4    4    0    0  0.53491709337E+02 -0.19709043861E+02 -0.39338152467E+02  0.14298534092E+03  0.12509000000E+03 0.  0.
<mgrwt>
<rscale>  2 0.45440279E+03</rscale>
<asrwt>0</asrwt>
<pdfrwt beam="1">  1       21 0.34446659E-01 0.45440279E+03</pdfrwt>
<pdfrwt beam="2">  1       21 0.32408361E-01 0.45440279E+03</pdfrwt>
<totfact> 0.68901816E+04</totfact>
</mgrwt>
</event>
<event>
 7    0  0.4725730E-002  0.4535644E+03  0.7546771E-02  0.1026664E+00
         21   -1    0    0  502  501  0.00000000000E+00  0.00000000000E+00  0.13030206400E+04  0.13030206400E+04  0.00000000000E+00 0. -1.
         21   -1    0    0  501  502 -0.00000000000E+00 -0.00000000000E+00 -0.39469961003E+02  0.39469961003E+02  0.00000000000E+00 0. -1.
      99926    2    1    2    0    0  0.71054273576E-14  0.00000000000E+00  0.12635506790E+04  0.13424906010E+04  0.45356443355E+03 0.  0.
      99925    2    3    3    0    0  0.38901185412E+02 -0.90790898554E+02  0.95132195315E+03  0.99193308100E+03  0.26298572043E+03 0.  0.
         25    1    3    3    0    0 -0.38901185412E+02  0.90790898554E+02  0.31222872585E+03  0.35055752001E+03  0.12509000000E+03 0.  0.
         25    1    4    4    0    0  0.15137184989E+02 -0.93163792110E+01  0.35737345471E+03  0.37905042346E+03  0.12509000000E+03 0.  0.
         25    1    4    4    0    0  0.23764000423E+02 -0.81474519343E+02  0.59394849844E+03  0.61288265754E+03  0.12509000000E+03 0.  0.
<mgrwt>
<rscale>  2 0.45356443E+03</rscale>
<asrwt>0</asrwt>
<pdfrwt beam="1">  1       21 0.19162065E+00 0.45356443E+03</pdfrwt>
<pdfrwt beam="2">  1       21 0.58044069E-02 0.45356443E+03</pdfrwt>
<totfact> 0.28218918E+04</totfact>
</mgrwt>
</event>
<event>
 7    0  0.4725730E-002  0.4593516E+03  0.7546771E-02  0.1024969E+00
         21   -1    0    0  502  501  0.00000000000E+00  0.00000000000E+00  0.21253768658E+03  0.21253768658E+03  0.00000000000E+00 0.  1.
         21   -1    0    0  501  502 -0.00000000000E+00 -0.00000000000E+00 -0.24819580482E+03  0.24819580482E+03  0.00000000000E+00 0.  1.
      99926    2    1    2    0    0  0.00000000000E+00  0.28865798640E-14 -0.35658118242E+02  0.46073349140E+03  0.45935155240E+03 0.  0.
      99925    2    3    3    0    0 -0.40599550293E+02  0.14278572995E+01 -0.13265452722E+03  0.29731325484E+03  0.26295928516E+03 0.  0.
         25    1    4    4    0    0 -0.13855533063E+02 -0.39170355536E+02 -0.62465435512E+02  0.14586202824E+03  0.12509000000E+03 0.  0.
         25    1    4    4    0    0 -0.26744017230E+02  0.40598212835E+02 -0.70189091711E+02  0.15145122660E+03  0.12509000000E+03 0.  0.
         25    1    3    3    0    0  0.40599550293E+02 -0.14278572995E+01  0.96996408980E+02  0.16342023655E+03  0.12509000000E+03 0.  0.
<mgrwt>
<rscale>  2 0.45935155E+03</rscale>
<asrwt>0</asrwt>
<pdfrwt beam="1">  1       21 0.31255542E-01 0.45935155E+03</pdfrwt>
<pdfrwt beam="2">  1       21 0.36499383E-01 0.45935155E+03</pdfrwt>
<totfact> 0.65812952E+04</totfact>
</mgrwt>
</event>
<event>
 7    0  0.4725730E-002  0.4595464E+03  0.7546771E-02  0.1024913E+00
         21   -1    0    0  502  501  0.00000000000E+00  0.00000000000E+00  0.30229064174E+02  0.30229064174E+02  0.00000000000E+00 0. -1.
         21   -1    0    0  501  502 -0.00000000000E+00 -0.00000000000E+00 -0.17465220980E+04  0.17465220980E+04  0.00000000000E+00 0. -1.
      99926    2    1    2    0    0  0.00000000000E+00  0.35527136788E-14 -0.17162930338E+04  0.17767511622E+04  0.45954642239E+03 0.  0.
      99925    2    3    3    0    0 -0.56547444061E+02 -0.29843393483E+02 -0.14561584072E+04  0.14811064876E+04  0.26304159182E+03 0.  0.
         25    1    3    3    0    0  0.56547444061E+02  0.29843393483E+02 -0.26013462660E+03  0.29564467461E+03  0.12509000000E+03 0.  0.
         25    1    4    4    0    0 -0.32009469739E+02  0.22460086669E+02 -0.62359521951E+03  0.63721861833E+03  0.12509000000E+03 0.  0.
         25    1    4    4    0    0 -0.24537974322E+02 -0.52303480152E+02 -0.83256318772E+03  0.84388786925E+03  0.12509000000E+03 0.  0.
<mgrwt>
<rscale>  2 0.45954642E+03</rscale>
<asrwt>0</asrwt>
<pdfrwt beam="1">  1       21 0.44454493E-02 0.45954642E+03</pdfrwt>
<pdfrwt beam="2">  1       21 0.25684156E+00 0.45954642E+03</pdfrwt>
<totfact> 0.17098928E+04</totfact>
</mgrwt>
</event>
<event>
 7    0  0.4725730E-002  0.4529225E+03  0.7546771E-02  0.1026854E+00
         21   -1    0    0  502  501  0.00000000000E+00  0.00000000000E+00  0.29934534078E+04  0.29934534078E+04  0.00000000000E+00 0.  1.
         21   -1    0    0  501  502 -0.00000000000E+00 -0.00000000000E+00 -0.17132286639E+02  0.17132286639E+02  0.00000000000E+00 0.  1.
      99926    2    1    2    0    0  0.00000000000E+00 -0.17763568394E-14  0.29763211211E+04  0.30105856944E+04  0.45292251798E+03 0.  0.
      99925    2    3    3    0    0  0.10405967573E+03 -0.77477103979E+01  0.21323485120E+04  0.21510359773E+04  0.26297748165E+03 0.  0.
         25    1    3    3    0    0 -0.10405967573E+03  0.77477103979E+01  0.84397260911E+03  0.85954971709E+03  0.12509000000E+03 0.  0.
         25    1    4    4    0    0  0.60268287946E+02  0.31655821992E+02  0.94657317067E+03  0.95722653177E+03  0.12509000000E+03 0.  0.
         25    1    4    4    0    0  0.43791387781E+02 -0.39403532390E+02  0.11857753414E+04  0.11938094455E+04  0.12509000000E+03 0.  0.
<mgrwt>
<rscale>  2 0.45292252E+03</rscale>
<asrwt>0</asrwt>
<pdfrwt beam="1">  1       21 0.44021337E+00 0.45292252E+03</pdfrwt>
<pdfrwt beam="2">  1       21 0.25194560E-02 0.45292252E+03</pdfrwt>
<totfact> 0.32409020E+03</totfact>
</mgrwt>
</event>
<event>
 7    0  0.4725730E-002  0.4521828E+03  0.7546771E-02  0.1027073E+00
         21   -1    0    0  502  501  0.00000000000E+00  0.00000000000E+00  0.34693503343E+02  0.34693503343E+02  0.00000000000E+00 0.  1.
         21   -1    0    0  501  502 -0.00000000000E+00 -0.00000000000E+00 -0.14733974204E+04  0.14733974204E+04  0.00000000000E+00 0.  1.
      99926    2    1    2    0    0  0.00000000000E+00  0.00000000000E+00 -0.14387039171E+04  0.15080909238E+04  0.45218278752E+03 0.  0.
      99925    2    3    3    0    0 -0.28016194332E+02 -0.81832146893E+02 -0.67799467687E+03  0.73232841909E+03  0.26295764705E+03 0.  0.
         25    1    3    3    0    0  0.28016194332E+02  0.81832146893E+02 -0.76070924023E+03  0.77576250469E+03  0.12509000000E+03 0.  0.
         25    1    4    4    0    0 -0.10607378582E+02 -0.21401210867E+02 -0.22922242797E+03  0.26222310709E+03  0.12509000000E+03 0.  0.
         25    1    4    4    0    0 -0.17408815750E+02 -0.60430936027E+02 -0.44877224890E+03  0.47010531201E+03  0.12509000000E+03 0.  0.
<mgrwt>
<rscale>  2 0.45218279E+03</rscale>
<asrwt>0</asrwt>
<pdfrwt beam="1">  1       21 0.51019861E-02 0.45218279E+03</pdfrwt>
<pdfrwt beam="2">  1       21 0.21667608E+00 0.45218279E+03</pdfrwt>
<totfact> 0.24104673E+04</totfact>
</mgrwt>
</event>
<event>
 7    0  0.4725730E-002  0.4566012E+03  0.7546771E-02  0.1025772E+00
         21   -1    0    0  502  501  0.00000000000E+00  0.00000000000E+00  0.31987681765E+03  0.31987681765E+03  0.00000000000E+00 0. -1.
         21   -1    0    0  501  502 -0.00000000000E+00 -0.00000000000E+00 -0.16294135680E+03  0.16294135680E+03  0.00000000000E+00 0. -1.
      99926    2    1    2    0    0  0.00000000000E+00  0.00000000000E+00  0.15693546085E+03  0.48281817445E+03  0.45660119437E+03 0.  0.
      99925    2    3    3    0    0 -0.82995208789E+02  0.67613249173E+02  0.54806386792E+02  0.28907191767E+03  0.26286703370E+03 0.  0.
         25    1    4    4    0    0 -0.34532230981E+02  0.56764571635E+02  0.61279049354E+02  0.15432861549E+03  0.12509000000E+03 0.  0.
         25    1    3    3    0    0  0.82995208789E+02 -0.67613249173E+02  0.10212907406E+03  0.19374625678E+03  0.12509000000E+03 0.  0.
         25    1    4    4    0    0 -0.48462977808E+02  0.10848677537E+02 -0.64726625624E+01  0.13474330218E+03  0.12509000000E+03 0.  0.
<mgrwt>
<rscale>  2 0.45660119E+03</rscale>
<asrwt>0</asrwt>
<pdfrwt beam="1">  1       21 0.47040708E-01 0.45660119E+03</pdfrwt>
<pdfrwt beam="2">  1       21 0.23961964E-01 0.45660119E+03</pdfrwt>
<totfact> 0.65657042E+04</totfact>
</mgrwt>
</event>
<event>
 7    0  0.4725730E-002  0.4399237E+03  0.7546771E-02  0.1030770E+00
         21   -1    0    0  502  501  0.00000000000E+00  0.00000000000E+00  0.21605019001E+03  0.21605019001E+03  0.00000000000E+00 0.  1.
         21   -1    0    0  501  502 -0.00000000000E+00 -0.00000000000E+00 -0.22394436448E+03  0.22394436448E+03  0.00000000000E+00 0.  1.
      99926    2    1    2    0    0  0.00000000000E+00  0.00000000000E+00 -0.78941744662E+01  0.43999455449E+03  0.43992373202E+03 0.  0.
      99925    2    3    3    0    0 -0.45114191279E+02 -0.17128253538E+02 -0.90816944121E+02  0.28234823785E+03  0.26295273863E+03 0.  0.
         25    1    4    4    0    0  0.18138664972E+01 -0.36037862069E+02 -0.62758448216E+02  0.14452732799E+03  0.12509000000E+03 0.  0.
         25    1    3    3    0    0  0.45114191279E+02  0.17128253538E+02  0.82922769655E+02  0.15764631664E+03  0.12509000000E+03 0.  0.
         25    1    4    4    0    0 -0.46928057776E+02  0.18909608531E+02 -0.28058495906E+02  0.13782090986E+03  0.12509000000E+03 0.  0.
<mgrwt>
<rscale>  2 0.43992373E+03</rscale>
<asrwt>0</asrwt>
<pdfrwt beam="1">  1       21 0.31772087E-01 0.43992373E+03</pdfrwt>
<pdfrwt beam="2">  1       21 0.32932995E-01 0.43992373E+03</pdfrwt>
<totfact> 0.78709971E+04</totfact>
</mgrwt>
</event>
<event>
 7    0  0.4725730E-002  0.4569192E+03  0.7546771E-02  0.1025679E+00
         21   -1    0    0  502  501  0.00000000000E+00  0.00000000000E+00  0.29398548619E+03  0.29398548619E+03  0.00000000000E+00 0.  1.
         21   -1    0    0  501  502 -0.00000000000E+00 -0.00000000000E+00 -0.17753866205E+03  0.17753866205E+03  0.00000000000E+00 0.  1.
      99926    2    1    2    0    0  0.00000000000E+00  0.00000000000E+00  0.11644682414E+03  0.47152414823E+03  0.45691920458E+03 0.  0.
      99925    2    3    3    0    0  0.73944154667E+02 -0.71185873928E+02  0.19738423646E+02  0.28301635136E+03  0.26300852289E+03 0.  0.
         25    1    4    4    0    0  0.35785726894E+02 -0.95761226205E+01 -0.22544591034E+02  0.13239368210E+03  0.12509000000E+03 0.  0.
         25    1    3    3    0    0 -0.73944154667E+02  0.71185873928E+02  0.96708400494E+02  0.18850779687E+03  0.12509000000E+03 0.  0.
         25    1    4    4    0    0  0.38158427773E+02 -0.61609751307E+02  0.42283014680E+02  0.15062266927E+03  0.12509000000E+03 0.  0.
<mgrwt>
<rscale>  2 0.45691920E+03</rscale>
<asrwt>0</asrwt>
<pdfrwt beam="1">  1       21 0.43233160E-01 0.45691920E+03</pdfrwt>
<pdfrwt beam="2">  1       21 0.26108627E-01 0.45691920E+03</pdfrwt>
<totfact> 0.66307224E+04</totfact>
</mgrwt>
</event>
<event>
 7    0  0.4725730E-002  0.4578221E+03  0.7546771E-02  0.1025415E+00
         21   -1    0    0  502  501  0.00000000000E+00  0.00000000000E+00  0.88059210118E+03  0.88059210118E+03  0.00000000000E+00 0. -1.
         21   -1    0    0  501  502 -0.00000000000E+00 -0.00000000000E+00 -0.59505711991E+02  0.59505711991E+02  0.00000000000E+00 0. -1.
      99926    2    1    2    0    0 -0.35527136788E-14  0.00000000000E+00  0.82108638919E+03  0.94009781317E+03  0.45782206131E+03 0.  0.
      99925    2    3    3    0    0 -0.31203382585E+02  0.98704361111E+02  0.40904716582E+03  0.49722081932E+03  0.26304516212E+03 0.  0.
         25    1    4    4    0    0 -0.26310359887E+02  0.46895164269E+02  0.27379568131E+03  0.30578256110E+03  0.12509000000E+03 0.  0.
         25    1    4    4    0    0 -0.48930226977E+01  0.51809196842E+02  0.13525148451E+03  0.19143825822E+03  0.12509000000E+03 0.  0.
         25    1    3    3    0    0  0.31203382585E+02 -0.98704361111E+02  0.41203922338E+03  0.44287699386E+03  0.12509000000E+03 0.  0.
<mgrwt>
<rscale>  2 0.45782206E+03</rscale>
<asrwt>0</asrwt>
<pdfrwt beam="1">  1       21 0.12949883E+00 0.45782206E+03</pdfrwt>
<pdfrwt beam="2">  1       21 0.87508405E-02 0.45782206E+03</pdfrwt>
<totfact> 0.40640007E+04</totfact>
</mgrwt>
</event>
<event>
 7    0  0.4725730E-002  0.4401072E+03  0.7546771E-02  0.1030714E+00
         21   -1    0    0  502  501  0.00000000000E+00  0.00000000000E+00  0.27869487846E+03  0.27869487846E+03  0.00000000000E+00 0.  1.
         21   -1    0    0  501  502 -0.00000000000E+00 -0.00000000000E+00 -0.17375129975E+03  0.17375129975E+03  0.00000000000E+00 0.  1.
      99926    2    1    2    0    0  0.00000000000E+00  0.00000000000E+00  0.10494357871E+03  0.45244617821E+03  0.44010724769E+03 0.  0.
      99925    2    3    3    0    0  0.83147518996E+02 -0.46394977793E+02  0.93259151871E+02  0.29480723058E+03  0.26296012990E+03 0.  0.
         25    1    4    4    0    0  0.74411400792E+02 -0.47503905739E+02  0.64592494651E+02  0.16617272969E+03  0.12509000000E+03 0.  0.
         25    1    4    4    0    0  0.87361182036E+01  0.11089279460E+01  0.28666657220E+02  0.12863450089E+03  0.12509000000E+03 0.  0.
         25    1    3    3    0    0 -0.83147518996E+02  0.46394977793E+02  0.11684426840E+02  0.15763894763E+03  0.12509000000E+03 0.  0.
<mgrwt>
<rscale>  2 0.44010725E+03</rscale>
<asrwt>0</asrwt>
<pdfrwt beam="1">  1       21 0.40984541E-01 0.44010725E+03</pdfrwt>
<pdfrwt beam="2">  1       21 0.25551662E-01 0.44010725E+03</pdfrwt>
<totfact> 0.77524919E+04</totfact>
</mgrwt>
</event>
<event>
 7    0  0.4725730E-002  0.4519038E+03  0.7546771E-02  0.1027156E+00
         21   -1    0    0  502  501  0.00000000000E+00  0.00000000000E+00  0.79438854570E+02  0.79438854570E+02  0.00000000000E+00 0.  1.
         21   -1    0    0  501  502 -0.00000000000E+00 -0.00000000000E+00 -0.64268637005E+03  0.64268637005E+03  0.00000000000E+00 0.  1.
      99926    2    1    2    0    0  0.00000000000E+00  0.00000000000E+00 -0.56324751548E+03  0.72212522462E+03  0.45190383528E+03 0.  0.
      99925    2    3    3    0    0  0.65600010874E+02  0.30534415620E+02 -0.48841418071E+03  0.55938847998E+03  0.26292840785E+03 0.  0.
         25    1    3    3    0    0 -0.65600010874E+02 -0.30534415620E+02 -0.74833334776E+02  0.16273674464E+03  0.12509000000E+03 0.  0.
         25    1    4    4    0    0  0.68888736196E+02  0.33799841416E+02 -0.28450858075E+03  0.32012611245E+03  0.12509000000E+03 0.  0.
         25    1    4    4    0    0 -0.32887253228E+01 -0.32654257965E+01 -0.20390559996E+03  0.23926236753E+03  0.12509000000E+03 0.  0.
<mgrwt>
<rscale>  2 0.45190384E+03</rscale>
<asrwt>0</asrwt>
<pdfrwt beam="1">  1       21 0.11682184E-01 0.45190384E+03</pdfrwt>
<pdfrwt beam="2">  1       21 0.94512703E-01 0.45190384E+03</pdfrwt>
<totfact> 0.52996971E+04</totfact>
</mgrwt>
</event>
<event>
 7    0  0.4725730E-002  0.4556327E+03  0.7546771E-02  0.1026056E+00
         21   -1    0    0  502  501  0.00000000000E+00  0.00000000000E+00  0.32708516005E+03  0.32708516005E+03  0.00000000000E+00 0. -1.
         21   -1    0    0  501  502 -0.00000000000E+00 -0.00000000000E+00 -0.15867513362E+03  0.15867513362E+03  0.00000000000E+00 0. -1.
      99926    2    1    2    0    0  0.00000000000E+00  0.00000000000E+00  0.16841002643E+03  0.48576029368E+03  0.45563266555E+03 0.  0.
      99925    2    3    3    0    0  0.46217477189E+02 -0.99883197061E+02  0.75003493634E+02  0.29474983134E+03  0.26294339841E+03 0.  0.
         25    1    3    3    0    0 -0.46217477189E+02  0.99883197061E+02  0.93406532796E+02  0.19101046234E+03  0.12509000000E+03 0.  0.
         25    1    4    4    0    0  0.17957518368E+02 -0.70794781707E+01  0.28163087391E+02  0.12966595185E+03  0.12509000000E+03 0.  0.
         25    1    4    4    0    0  0.28259958821E+02 -0.92803718890E+02  0.46840406244E+02  0.16508387950E+03  0.12509000000E+03 0.  0.
<mgrwt>
<rscale>  2 0.45563267E+03</rscale>
<asrwt>0</asrwt>
<pdfrwt beam="1">  1       21 0.48100759E-01 0.45563267E+03</pdfrwt>
<pdfrwt beam="2">  1       21 0.23334578E-01 0.45563267E+03</pdfrwt>
<totfact> 0.65951274E+04</totfact>
</mgrwt>
</event>
<event>
 7    0  0.4725730E-002  0.4683383E+03  0.7546771E-02  0.1022390E+00
         21   -1    0    0  502  501  0.00000000000E+00  0.00000000000E+00  0.99682970048E+03  0.99682970048E+03  0.00000000000E+00 0.  1.
         21   -1    0    0  501  502 -0.00000000000E+00 -0.00000000000E+00 -0.55009593926E+02  0.55009593926E+02  0.00000000000E+00 0.  1.
      99926    2    1    2    0    0  0.00000000000E+00  0.00000000000E+00  0.94182010656E+03  0.10518392944E+04  0.46833832659E+03 0.  0.
      99925    2    3    3    0    0  0.11903884837E+03  0.35958262383E+02  0.55161937372E+03  0.62362513764E+03  0.26298504668E+03 0.  0.
         25    1    4    4    0    0  0.34372689861E+02  0.29875485089E+02  0.32504507486E+03  0.35124896471E+03  0.12509000000E+03 0.  0.
         25    1    3    3    0    0 -0.11903884837E+03 -0.35958262383E+02  0.39020073283E+03  0.42821415677E+03  0.12509000000E+03 0.  0.
         25    1    4    4    0    0  0.84666158506E+02  0.60827772936E+01  0.22657429887E+03  0.27237617294E+03  0.12509000000E+03 0.  0.
<mgrwt>
<rscale>  2 0.46833833E+03</rscale>
<asrwt>0</asrwt>
<pdfrwt beam="1">  1       21 0.14659259E+00 0.46833833E+03</pdfrwt>
<pdfrwt beam="2">  1       21 0.80896468E-02 0.46833833E+03</pdfrwt>
<totfact> 0.33575829E+04</totfact>
</mgrwt>
</event>
<event>
 7    0  0.4725730E-002  0.4548974E+03  0.7546771E-02  0.1026272E+00
         21   -1    0    0  502  501  0.00000000000E+00  0.00000000000E+00  0.31823032298E+03  0.31823032298E+03  0.00000000000E+00 0. -1.
         21   -1    0    0  501  502 -0.00000000000E+00 -0.00000000000E+00 -0.16256440086E+03  0.16256440086E+03  0.00000000000E+00 0. -1.
      99926    2    1    2    0    0  0.00000000000E+00  0.35527136788E-14  0.15566592212E+03  0.48079472383E+03  0.45489744686E+03 0.  0.
      99925    2    3    3    0    0 -0.74332368137E+02  0.23858133671E+02  0.18445015444E+03  0.33055973581E+03  0.26297027964E+03 0.  0.
         25    1    4    4    0    0 -0.59992676968E+02  0.42956877988E+02  0.79687070177E+02  0.16565612548E+03  0.12509000000E+03 0.  0.
         25    1    3    3    0    0  0.74332368137E+02 -0.23858133671E+02 -0.28784232316E+02  0.15023498802E+03  0.12509000000E+03 0.  0.
         25    1    4    4    0    0 -0.14339691169E+02 -0.19098744317E+02  0.10476308426E+03  0.16490361033E+03  0.12509000000E+03 0.  0.
<mgrwt>
<rscale>  2 0.45489745E+03</rscale>
<asrwt>0</asrwt>
<pdfrwt beam="1">  1       21 0.46798577E-01 0.45489745E+03</pdfrwt>
<pdfrwt beam="2">  1       21 0.23906530E-01 0.45489745E+03</pdfrwt>
<totfact> 0.66696571E+04</totfact>
</mgrwt>
</event>
<event>
 7    0  0.4725730E-002  0.4563063E+03  0.7546771E-02  0.1025858E+00
         21   -1    0    0  502  501  0.00000000000E+00  0.00000000000E+00  0.17246889671E+03  0.17246889671E+03  0.00000000000E+00 0.  1.
         21   -1    0    0  501  502 -0.00000000000E+00 -0.00000000000E+00 -0.30181586574E+03  0.30181586574E+03  0.00000000000E+00 0.  1.
      99926    2    1    2    0    0  0.14210854715E-13  0.71054273576E-14 -0.12934696904E+03  0.47428476245E+03  0.45630625406E+03 0.  0.
      99925    2    3    3    0    0  0.98363243172E+02  0.58374989834E+02 -0.75027201121E+02  0.29629287406E+03  0.26282583447E+03 0.  0.
         25    1    4    4    0    0  0.43242829734E+02 -0.80698481554E+01 -0.52631158080E+02  0.14266257979E+03  0.12509000000E+03 0.  0.
         25    1    4    4    0    0  0.55120413438E+02  0.66444837989E+02 -0.22396043041E+02  0.15363029427E+03  0.12509000000E+03 0.  0.
         25    1    3    3    0    0 -0.98363243172E+02 -0.58374989834E+02 -0.54319767914E+02  0.17799188839E+03  0.12509000000E+03 0.  0.
<mgrwt>
<rscale>  2 0.45630625E+03</rscale>
<asrwt>0</asrwt>
<pdfrwt beam="1">  1       21 0.25363073E-01 0.45630625E+03</pdfrwt>
<pdfrwt beam="2">  1       21 0.44384685E-01 0.45630625E+03</pdfrwt>
<totfact> 0.66427348E+04</totfact>
</mgrwt>
</event>
<event>
 7    0  0.4725730E-002  0.4451686E+03  0.7546771E-02  0.1029173E+00
         21   -1    0    0  502  501  0.00000000000E+00  0.00000000000E+00  0.28336655466E+03  0.28336655466E+03  0.00000000000E+00 0.  1.
         21   -1    0    0  501  502 -0.00000000000E+00 -0.00000000000E+00 -0.17483984226E+03  0.17483984226E+03  0.00000000000E+00 0.  1.
      99926    2    1    2    0    0  0.14210854715E-13  0.00000000000E+00  0.10852671240E+03  0.45820639693E+03  0.44516856906E+03 0.  0.
      99925    2    3    3    0    0 -0.94481901732E+02 -0.40545107306E+02  0.55542911221E+02  0.28783760058E+03  0.26304891910E+03 0.  0.
         25    1    4    4    0    0 -0.61206570322E+02 -0.48122710722E+02  0.14604170125E+01  0.14734883934E+03  0.12509000000E+03 0.  0.
         25    1    4    4    0    0 -0.33275331410E+02  0.75776034164E+01  0.54082494208E+02  0.14048876124E+03  0.12509000000E+03 0.  0.
         25    1    3    3    0    0  0.94481901732E+02  0.40545107306E+02  0.52983801179E+02  0.17036879635E+03  0.12509000000E+03 0.  0.
<mgrwt>
<rscale>  2 0.44516857E+03</rscale>
<asrwt>0</asrwt>
<pdfrwt beam="1">  1       21 0.41671552E-01 0.44516857E+03</pdfrwt>
<pdfrwt beam="2">  1       21 0.25711741E-01 0.44516857E+03</pdfrwt>
<totfact> 0.73921820E+04</totfact>
</mgrwt>
</event>
<event>
 7    0  0.4725730E-002  0.4505115E+03  0.7546771E-02  0.1027570E+00
         21   -1    0    0  502  501  0.00000000000E+00  0.00000000000E+00  0.37615754795E+03  0.37615754795E+03  0.00000000000E+00 0.  1.
         21   -1    0    0  501  502 -0.00000000000E+00 -0.00000000000E+00 -0.13489070581E+03  0.13489070581E+03  0.00000000000E+00 0.  1.
      99926    2    1    2    0    0  0.22204460493E-15  0.00000000000E+00  0.24126684215E+03  0.51104825376E+03  0.45051151878E+03 0.  0.
      99925    2    3    3    0    0  0.13499078381E+01 -0.10192635725E+03  0.10913369067E+03  0.30248775325E+03  0.26305488757E+03 0.  0.
         25    1    4    4    0    0  0.31160775965E+02 -0.31003730664E+02  0.72572515551E+02  0.15115059837E+03  0.12509000000E+03 0.  0.
         25    1    4    4    0    0 -0.29810868127E+02 -0.70922626591E+02  0.36561175115E+02  0.15133715488E+03  0.12509000000E+03 0.  0.
         25    1    3    3    0    0 -0.13499078381E+01  0.10192635725E+03  0.13213315148E+03  0.20856050051E+03  0.12509000000E+03 0.  0.
<mgrwt>
<rscale>  2 0.45051152E+03</rscale>
<asrwt>0</asrwt>
<pdfrwt beam="1">  1       21 0.55317286E-01 0.45051152E+03</pdfrwt>
<pdfrwt beam="2">  1       21 0.19836869E-01 0.45051152E+03</pdfrwt>
<totfact> 0.66850798E+04</totfact>
</mgrwt>
</event>
<event>
 6    0  0.4725730E-002  0.4574616E+03  0.7546771E-02  0.1025520E+00
         21   -1    0    0  502  501  0.00000000000E+00  0.00000000000E+00  0.19922325330E+03  0.19922325330E+03  0.00000000000E+00 0.  1.
         21   -1    0    0  501  502 -0.00000000000E+00 -0.00000000000E+00 -0.26260877270E+03  0.26260877270E+03  0.00000000000E+00 0.  1.
      99926    2    1    2    0    0  0.00000000000E+00 -0.71054273576E-14 -0.63385519401E+02  0.46183202600E+03  0.45746157890E+03 0.  0.
         25    1    3    3    0    0 -0.15136902572E+02  0.62685465069E+02 -0.86619292816E+02  0.16525435951E+03  0.12509000000E+03 0.  0.
         25    1    3    3    0    0  0.36476363565E+02 -0.58185246120E+02  0.72887237961E+02  0.16023765326E+03  0.12509000000E+03 0.  0.
         25    1    3    3    0    0 -0.21339460993E+02 -0.45002189490E+01 -0.49653464546E+02  0.13634001323E+03  0.12509000000E+03 0.  0.
<mgrwt>
<rscale>  2 0.45746158E+03</rscale>
<asrwt>0</asrwt>
<pdfrwt beam="1">  1       21 0.29297538E-01 0.45746158E+03</pdfrwt>
<pdfrwt beam="2">  1       21 0.38618937E-01 0.45746158E+03</pdfrwt>
<totfact> 0.66727713E+04</totfact>
</mgrwt>
</event>
<event>
 7    0  0.4725730E-002  0.4562241E+03  0.7546771E-02  0.1025882E+00
         21   -1    0    0  502  501  0.00000000000E+00  0.00000000000E+00  0.39469567930E+02  0.39469567930E+02  0.00000000000E+00 0. -1.
         21   -1    0    0  501  502 -0.00000000000E+00 -0.00000000000E+00 -0.13183603380E+04  0.13183603380E+04  0.00000000000E+00 0. -1.
      99926    2    1    2    0    0  0.00000000000E+00 -0.14210854715E-13 -0.12788907701E+04  0.13578299059E+04  0.45622412438E+03 0.  0.
      99925    2    3    3    0    0  0.41508227343E+02  0.10626276768E+03 -0.77235894754E+03  0.82375434567E+03  0.26271309337E+03 0.  0.
         25    1    3    3    0    0 -0.41508227343E+02 -0.10626276768E+03 -0.50653182254E+03  0.53407556027E+03  0.12509000000E+03 0.  0.
         25    1    4    4    0    0  0.53102941589E+02  0.79727731556E+02 -0.44863483691E+03  0.47549674927E+03  0.12509000000E+03 0.  0.
         25    1    4    4    0    0 -0.11594714246E+02  0.26535036127E+02 -0.32372411063E+03  0.34825759639E+03  0.12509000000E+03 0.  0.
<mgrwt>
<rscale>  2 0.45622412E+03</rscale>
<asrwt>0</asrwt>
<pdfrwt beam="1">  1       21 0.58043485E-02 0.45622412E+03</pdfrwt>
<pdfrwt beam="2">  1       21 0.19387651E+00 0.45622412E+03</pdfrwt>
<totfact> 0.27217857E+04</totfact>
</mgrwt>
</event>
<event>
 7    0  0.4725730E-002  0.4650886E+03  0.7546771E-02  0.1023316E+00
         21   -1    0    0  502  501  0.00000000000E+00  0.00000000000E+00  0.12835825607E+03  0.12835825607E+03  0.00000000000E+00 0.  1.
         21   -1    0    0  501  502 -0.00000000000E+00 -0.00000000000E+00 -0.42129621886E+03  0.42129621886E+03  0.00000000000E+00 0.  1.
      99926    2    1    2    0    0  0.26645352591E-14  0.00000000000E+00 -0.29293796279E+03  0.54965447493E+03  0.46508858486E+03 0.  0.
      99925    2    3    3    0    0  0.17801698327E+01  0.12229919769E+03 -0.17777068513E+03  0.34019977171E+03  0.26300799497E+03 0.  0.
         25    1    4    4    0    0  0.35038520380E+02  0.61234674003E+02 -0.63346706470E+02  0.15696399756E+03  0.12509000000E+03 0.  0.
         25    1    3    3    0    0 -0.17801698327E+01 -0.12229919769E+03 -0.11516727765E+03  0.20945470322E+03  0.12509000000E+03 0.  0.
         25    1    4    4    0    0 -0.33258350547E+02  0.61064523683E+02 -0.11442397866E+03  0.18323577415E+03  0.12509000000E+03 0.  0.
<mgrwt>
<rscale>  2 0.46508858E+03</rscale>
<asrwt>0</asrwt>
<pdfrwt beam="1">  1       21 0.18876214E-01 0.46508858E+03</pdfrwt>
<pdfrwt beam="2">  1       21 0.61955325E-01 0.46508858E+03</pdfrwt>
<totfact> 0.57185404E+04</totfact>
</mgrwt>
</event>
<event>
 7    0  0.4725730E-002  0.4324454E+03  0.7546771E-02  0.1033090E+00
         21   -1    0    0  502  501  0.00000000000E+00  0.00000000000E+00  0.70047870486E+02  0.70047870486E+02  0.00000000000E+00 0.  1.
         21   -1    0    0  501  502 -0.00000000000E+00 -0.00000000000E+00 -0.66743289310E+03  0.66743289310E+03  0.00000000000E+00 0.  1.
      99926    2    1    2    0    0  0.00000000000E+00  0.00000000000E+00 -0.59738502261E+03  0.73748076359E+03  0.43244538547E+03 0.  0.
      99925    2    3    3    0    0 -0.32836810646E+02 -0.79792739393E+02 -0.33827880216E+03  0.43709987376E+03  0.26301827742E+03 0.  0.
         25    1    4    4    0    0  0.12015400161E+02 -0.39887862501E+02 -0.21105312295E+03  0.24885003561E+03  0.12509000000E+03 0.  0.
         25    1    4    4    0    0 -0.44852210807E+02 -0.39904876892E+02 -0.12722567921E+03  0.18824983815E+03  0.12509000000E+03 0.  0.
         25    1    3    3    0    0  0.32836810646E+02  0.79792739393E+02 -0.25910622046E+03  0.30038088983E+03  0.12509000000E+03 0.  0.
<mgrwt>
<rscale>  2 0.43244539E+03</rscale>
<asrwt>0</asrwt>
<pdfrwt beam="1">  1       21 0.10301157E-01 0.43244539E+03</pdfrwt>
<pdfrwt beam="2">  1       21 0.98151896E-01 0.43244539E+03</pdfrwt>
<totfact> 0.61039602E+04</totfact>
</mgrwt>
</event>
<event>
 7    0  0.4725730E-002  0.4503517E+03  0.7546771E-02  0.1027617E+00
         21   -1    0    0  502  501  0.00000000000E+00  0.00000000000E+00  0.23603818375E+02  0.23603818375E+02  0.00000000000E+00 0.  1.
         21   -1    0    0  501  502 -0.00000000000E+00 -0.00000000000E+00 -0.21481341560E+04  0.21481341560E+04  0.00000000000E+00 0.  1.
      99926    2    1    2    0    0  0.00000000000E+00  0.00000000000E+00 -0.21245303376E+04  0.21717379744E+04  0.45035172239E+03 0.  0.
      99925    2    3    3    0    0 -0.38912846683E+02 -0.81567513819E+02 -0.16351956997E+04  0.16586460090E+04  0.26281959201E+03 0.  0.
         25    1    3    3    0    0  0.38912846683E+02  0.81567513819E+02 -0.48933463791E+03  0.51309196535E+03  0.12509000000E+03 0.  0.
         25    1    4    4    0    0  0.11053124027E+02 -0.49342841235E+02 -0.65863864111E+03  0.67231633566E+03  0.12509000000E+03 0.  0.
         25    1    4    4    0    0 -0.49965970710E+02 -0.32224672584E+02 -0.97655705859E+03  0.98632967335E+03  0.12509000000E+03 0.  0.
<mgrwt>
<rscale>  2 0.45035172E+03</rscale>
<asrwt>0</asrwt>
<pdfrwt beam="1">  1       21 0.34711496E-02 0.45035172E+03</pdfrwt>
<pdfrwt beam="2">  1       21 0.31590210E+00 0.45035172E+03</pdfrwt>
<totfact> 0.11513175E+04</totfact>
</mgrwt>
</event>
<event>
 7    0  0.4725730E-002  0.4520689E+03  0.7546771E-02  0.1027107E+00
         21   -1    0    0  502  501  0.00000000000E+00  0.00000000000E+00  0.51596111490E+03  0.51596111490E+03  0.00000000000E+00 0.  1.
         21   -1    0    0  501  502 -0.00000000000E+00 -0.00000000000E+00 -0.99022148517E+02  0.99022148517E+02  0.00000000000E+00 0.  1.
      99926    2    1    2    0    0 -0.71054273576E-14  0.00000000000E+00  0.41693896638E+03  0.61498326341E+03  0.45206892460E+03 0.  0.
      99925    2    3    3    0    0 -0.35111942168E+02 -0.10324369032E+03  0.28694831629E+03  0.40418197005E+03  0.26292892693E+03 0.  0.
         25    1    3    3    0    0  0.35111942168E+02  0.10324369032E+03  0.12999065009E+03  0.21080129336E+03  0.12509000000E+03 0.  0.
         25    1    4    4    0    0  0.20182045421E+02 -0.55424532996E+02  0.16062640515E+03  0.21196118500E+03  0.12509000000E+03 0.  0.
         25    1    4    4    0    0 -0.55293987589E+02 -0.47819157324E+02  0.12632191114E+03  0.19222078505E+03  0.12509000000E+03 0.  0.
<mgrwt>
<rscale>  2 0.45206892E+03</rscale>
<asrwt>0</asrwt>
<pdfrwt beam="1">  1       21 0.75876634E-01 0.45206892E+03</pdfrwt>
<pdfrwt beam="2">  1       21 0.14562081E-01 0.45206892E+03</pdfrwt>
<totfact> 0.59122107E+04</totfact>
</mgrwt>
</event>
<event>
 7    0  0.4725730E-002  0.4512568E+03  0.7546771E-02  0.1027348E+00
         21   -1    0    0  502  501  0.00000000000E+00  0.00000000000E+00  0.11914790162E+03  0.11914790162E+03  0.00000000000E+00 0. -1.
         21   -1    0    0  501  502 -0.00000000000E+00 -0.00000000000E+00 -0.42726879748E+03  0.42726879748E+03  0.00000000000E+00 0. -1.
      99926    2    1    2    0    0  0.00000000000E+00  0.00000000000E+00 -0.30812089585E+03  0.54641669910E+03  0.45125682554E+03 0.  0.
      99925    2    3    3    0    0  0.85295283577E+02  0.44298315055E+02 -0.25811034837E+03  0.38092896821E+03  0.26315071872E+03 0.  0.
         25    1    3    3    0    0 -0.85295283577E+02 -0.44298315055E+02 -0.50010547482E+02  0.16548773089E+03  0.12509000000E+03 0.  0.
         25    1    4    4    0    0  0.22228305113E+01  0.11231550797E+02 -0.13026650483E+03  0.18096397180E+03  0.12509000000E+03 0.  0.
         25    1    4    4    0    0  0.83072453066E+02  0.33066764258E+02 -0.12784384354E+03  0.19996499641E+03  0.12509000000E+03 0.  0.
<mgrwt>
<rscale>  2 0.45125683E+03</rscale>
<asrwt>0</asrwt>
<pdfrwt beam="1">  1       21 0.17521750E-01 0.45125683E+03</pdfrwt>
<pdfrwt beam="2">  1       21 0.62833646E-01 0.45125683E+03</pdfrwt>
<totfact> 0.63977875E+04</totfact>
</mgrwt>
</event>
<event>
 7    0  0.4725730E-002  0.4573786E+03  0.7546771E-02  0.1025544E+00
         21   -1    0    0  502  501  0.00000000000E+00  0.00000000000E+00  0.47414532915E+03  0.47414532915E+03  0.00000000000E+00 0.  1.
         21   -1    0    0  501  502 -0.00000000000E+00 -0.00000000000E+00 -0.11030118874E+03  0.11030118874E+03  0.00000000000E+00 0.  1.
      99926    2    1    2    0    0 -0.14210854715E-13  0.00000000000E+00  0.36384414042E+03  0.58444651789E+03  0.45737858909E+03 0.  0.
      99925    2    3    3    0    0  0.10843662496E+03  0.37928817397E+02  0.21492330384E+03  0.35856597316E+03  0.26302173628E+03 0.  0.
         25    1    4    4    0    0  0.39279638107E+02 -0.13789393542E+02  0.12652722148E+03  0.18272844119E+03  0.12509000000E+03 0.  0.
         25    1    4    4    0    0  0.69156986848E+02  0.51718210938E+02  0.88396082353E+02  0.17583753197E+03  0.12509000000E+03 0.  0.
         25    1    3    3    0    0 -0.10843662496E+03 -0.37928817397E+02  0.14892083658E+03  0.22588054473E+03  0.12509000000E+03 0.  0.
<mgrwt>
<rscale>  2 0.45737859E+03</rscale>
<asrwt>0</asrwt>
<pdfrwt beam="1">  1       21 0.69727254E-01 0.45737859E+03</pdfrwt>
<pdfrwt beam="2">  1       21 0.16220763E-01 0.45737859E+03</pdfrwt>
<totfact> 0.58537555E+04</totfact>
</mgrwt>
</event>
<event>
 7    0  0.4725730E-002  0.4439274E+03  0.7546771E-02  0.1029549E+00
         21   -1    0    0  502  501  0.00000000000E+00  0.00000000000E+00  0.12761679372E+03  0.12761679372E+03  0.00000000000E+00 0.  1.
         21   -1    0    0  501  502 -0.00000000000E+00 -0.00000000000E+00 -0.38606118136E+03  0.38606118136E+03  0.00000000000E+00 0.  1.
      99926    2    1    2    0    0 -0.71054273576E-14  0.14210854715E-13 -0.25844438764E+03  0.51367797507E+03  0.44392742715E+03 0.  0.
      99925    2    3    3    0    0 -0.35790222488E+02  0.90819206966E+02 -0.20027834117E+03  0.34468133179E+03  0.26299189752E+03 0.  0.
         25    1    3    3    0    0  0.35790222488E+02 -0.90819206966E+02 -0.58166046470E+02  0.16899664328E+03  0.12509000000E+03 0.  0.
         25    1    4    4    0    0 -0.34121682417E+02  0.27187287783E+02 -0.57345330844E+02  0.14435869526E+03  0.12509000000E+03 0.  0.
         25    1    4    4    0    0 -0.16685400707E+01  0.63631919183E+02 -0.14293301033E+03  0.20032263653E+03  0.12509000000E+03 0.  0.
<mgrwt>
<rscale>  2 0.44392743E+03</rscale>
<asrwt>0</asrwt>
<pdfrwt beam="1">  1       21 0.18767176E-01 0.44392743E+03</pdfrwt>
<pdfrwt beam="2">  1       21 0.56773702E-01 0.44392743E+03</pdfrwt>
<totfact> 0.70295164E+04</totfact>
</mgrwt>
</event>
<event>
 7    0  0.4725730E-002  0.4489140E+03  0.7546771E-02  0.1028046E+00
         21   -1    0    0  502  501  0.00000000000E+00  0.00000000000E+00  0.81128072058E+03  0.81128072058E+03  0.00000000000E+00 0. -1.
         21   -1    0    0  501  502 -0.00000000000E+00 -0.00000000000E+00 -0.62100520346E+02  0.62100520346E+02  0.00000000000E+00 0. -1.
      99926    2    1    2    0    0  0.00000000000E+00  0.00000000000E+00  0.74918020023E+03  0.87338124092E+03  0.44891404475E+03 0.  0.
      99925    2    3    3    0    0 -0.59905339159E+02 -0.31525032540E+02  0.31184732680E+03  0.41350079165E+03  0.26296705522E+03 0.  0.
         25    1    3    3    0    0  0.59905339159E+02  0.31525032540E+02  0.43733287343E+03  0.45988044927E+03  0.12509000000E+03 0.  0.
         25    1    4    4    0    0  0.57510441549E+01  0.54572530206E+01  0.15123912933E+03  0.19642718361E+03  0.12509000000E+03 0.  0.
         25    1    4    4    0    0 -0.65656383313E+02 -0.36982285561E+02  0.16060819747E+03  0.21707360804E+03  0.12509000000E+03 0.  0.
<mgrwt>
<rscale>  2 0.44891404E+03</rscale>
<asrwt>0</asrwt>
<pdfrwt beam="1">  1       21 0.11930598E+00 0.44891404E+03</pdfrwt>
<pdfrwt beam="2">  1       21 0.91324299E-02 0.44891404E+03</pdfrwt>
<totfact> 0.46585992E+04</totfact>
</mgrwt>
</event>
<event>
 7    0  0.4725730E-002  0.4562439E+03  0.7546771E-02  0.1025876E+00
         21   -1    0    0  502  501  0.00000000000E+00  0.00000000000E+00  0.86851574913E+03  0.86851574913E+03  0.00000000000E+00 0. -1.
         21   -1    0    0  501  502 -0.00000000000E+00 -0.00000000000E+00 -0.59917893715E+02  0.59917893715E+02  0.00000000000E+00 0. -1.
      99926    2    1    2    0    0  0.00000000000E+00  0.00000000000E+00  0.80859785542E+03  0.92843364285E+03  0.45624394504E+03 0.  0.
      99925    2    3    3    0    0  0.87016595436E+02  0.29722639619E+02  0.37002674869E+03  0.46319451408E+03  0.26300958145E+03 0.  0.
         25    1    4    4    0    0  0.24520609811E+02  0.46102658963E+02  0.15200237625E+03  0.20366380620E+03  0.12509000000E+03 0.  0.
         25    1    4    4    0    0  0.62495985626E+02 -0.16380019344E+02  0.21802437244E+03  0.25953070788E+03  0.12509000000E+03 0.  0.
         25    1    3    3    0    0 -0.87016595436E+02 -0.29722639619E+02  0.43857110672E+03  0.46523912877E+03  0.12509000000E+03 0.  0.
<mgrwt>
<rscale>  2 0.45624395E+03</rscale>
<asrwt>0</asrwt>
<pdfrwt beam="1">  1       21 0.12772290E+00 0.45624395E+03</pdfrwt>
<pdfrwt beam="2">  1       21 0.88114555E-02 0.45624395E+03</pdfrwt>
<totfact> 0.41620259E+04</totfact>
</mgrwt>
</event>
<event>
 7    0  0.4725730E-002  0.4536753E+03  0.7546771E-02  0.1026632E+00
         21   -1    0    0  502  501  0.00000000000E+00  0.00000000000E+00  0.41513190559E+03  0.41513190559E+03  0.00000000000E+00 0. -1.
         21   -1    0    0  501  502 -0.00000000000E+00 -0.00000000000E+00 -0.12394930147E+03  0.12394930147E+03  0.00000000000E+00 0. -1.
      99926    2    1    2    0    0  0.00000000000E+00  0.35527136788E-14  0.29118260412E+03  0.53908120707E+03  0.45367525706E+03 0.  0.
      99925    2    3    3    0    0 -0.23428104192E+02  0.59000594302E+01  0.31344667017E+03  0.40974875366E+03  0.26279562272E+03 0.  0.
         25    1    4    4    0    0 -0.33273465846E+02 -0.30971186155E+02  0.16110447063E+03  0.20897008508E+03  0.12509000000E+03 0.  0.
         25    1    3    3    0    0  0.23428104192E+02 -0.59000594302E+01 -0.22264066048E+02  0.12933245341E+03  0.12509000000E+03 0.  0.
         25    1    4    4    0    0  0.98453616532E+01  0.36871245585E+02  0.15234219954E+03  0.20077866858E+03  0.12509000000E+03 0.  0.
<mgrwt>
<rscale>  2 0.45367526E+03</rscale>
<asrwt>0</asrwt>
<pdfrwt beam="1">  1       21 0.61048809E-01 0.45367526E+03</pdfrwt>
<pdfrwt beam="2">  1       21 0.18227839E-01 0.45367526E+03</pdfrwt>
<totfact> 0.63254416E+04</totfact>
</mgrwt>
</event>
<event>
 7    0  0.4725730E-002  0.4519123E+03  0.7546771E-02  0.1027153E+00
         21   -1    0    0  502  501  0.00000000000E+00  0.00000000000E+00  0.76346866719E+02  0.76346866719E+02  0.00000000000E+00 0. -1.
         21   -1    0    0  501  502 -0.00000000000E+00 -0.00000000000E+00 -0.66873967875E+03  0.66873967875E+03  0.00000000000E+00 0. -1.
      99926    2    1    2    0    0  0.00000000000E+00  0.14210854715E-13 -0.59239281203E+03  0.74508654547E+03  0.45191228849E+03 0.  0.
      99925    2    3    3    0    0  0.74035907310E+02  0.72295569973E+02 -0.43644155848E+03  0.51997264853E+03  0.26302539088E+03 0.  0.
         25    1    3    3    0    0 -0.74035907310E+02 -0.72295569973E+02 -0.15595125355E+03  0.22511389693E+03  0.12509000000E+03 0.  0.
         25    1    4    4    0    0  0.11032207157E+02  0.33773950313E+02 -0.26558845016E+03  0.29571459598E+03  0.12509000000E+03 0.  0.
         25    1    4    4    0    0  0.63003700154E+02  0.38521619659E+02 -0.17085310831E+03  0.22425805255E+03  0.12509000000E+03 0.  0.
<mgrwt>
<rscale>  2 0.45191229E+03</rscale>
<asrwt>0</asrwt>
<pdfrwt beam="1">  1       21 0.11227480E-01 0.45191229E+03</pdfrwt>
<pdfrwt beam="2">  1       21 0.98344075E-01 0.45191229E+03</pdfrwt>
<totfact> 0.51767499E+04</totfact>
</mgrwt>
</event>
<event>
 7    0  0.4725730E-002  0.4584956E+03  0.7546771E-02  0.1025218E+00
         21   -1    0    0  502  501  0.00000000000E+00  0.00000000000E+00  0.14316157909E+03  0.14316157909E+03  0.00000000000E+00 0. -1.
         21   -1    0    0  501  502 -0.00000000000E+00 -0.00000000000E+00 -0.36709953750E+03  0.36709953750E+03  0.00000000000E+00 0. -1.
      99926    2    1    2    0    0  0.00000000000E+00 -0.14210854715E-13 -0.22393795841E+03  0.51026111660E+03  0.45849558111E+03 0.  0.
      99925    2    3    3    0    0 -0.39047974980E+02  0.97888384556E+02 -0.85761043789E+02  0.29614141172E+03  0.26313095395E+03 0.  0.
         25    1    3    3    0    0  0.39047974980E+02 -0.97888384556E+02 -0.13817691462E+03  0.21411970487E+03  0.12509000000E+03 0.  0.
         25    1    4    4    0    0 -0.30749905983E+02  0.58796959612E+02 -0.44114083745E+01  0.14166724322E+03  0.12509000000E+03 0.  0.
         25    1    4    4    0    0 -0.82980689966E+01  0.39091424943E+02 -0.81349635414E+02  0.15447416850E+03  0.12509000000E+03 0.  0.
<mgrwt>
<rscale>  2 0.45849558E+03</rscale>
<asrwt>0</asrwt>
<pdfrwt beam="1">  1       21 0.21053173E-01 0.45849558E+03</pdfrwt>
<pdfrwt beam="2">  1       21 0.53985227E-01 0.45849558E+03</pdfrwt>
<totfact> 0.62795319E+04</totfact>
</mgrwt>
</event>
<event>
 7    0  0.4725730E-002  0.4502963E+03  0.7546771E-02  0.1027634E+00
         21   -1    0    0  502  501  0.00000000000E+00  0.00000000000E+00  0.87258042546E+02  0.87258042546E+02  0.00000000000E+00 0. -1.
         21   -1    0    0  501  502 -0.00000000000E+00 -0.00000000000E+00 -0.58094001976E+03  0.58094001976E+03  0.00000000000E+00 0. -1.
      99926    2    1    2    0    0  0.00000000000E+00  0.00000000000E+00 -0.49368197722E+03  0.66819806231E+03  0.45029629783E+03 0.  0.
      99925    2    3    3    0    0 -0.89966498563E+02  0.45285537615E+02 -0.25129513722E+03  0.37743417342E+03  0.26298775350E+03 0.  0.
         25    1    4    4    0    0 -0.77933867415E+02  0.41847890615E+02 -0.11188035172E+03  0.18970939576E+03  0.12509000000E+03 0.  0.
         25    1    4    4    0    0 -0.12032631147E+02  0.34376470003E+01 -0.13941478550E+03  0.18772477766E+03  0.12509000000E+03 0.  0.
         25    1    3    3    0    0  0.89966498563E+02 -0.45285537615E+02 -0.24238683999E+03  0.29076388889E+03  0.12509000000E+03 0.  0.
<mgrwt>
<rscale>  2 0.45029630E+03</rscale>
<asrwt>0</asrwt>
<pdfrwt beam="1">  1       21 0.12832065E-01 0.45029630E+03</pdfrwt>
<pdfrwt beam="2">  1       21 0.85432357E-01 0.45029630E+03</pdfrwt>
<totfact> 0.56738136E+04</totfact>
</mgrwt>
</event>
<event>
 7    0  0.4725730E-002  0.4580137E+03  0.7546771E-02  0.1025359E+00
         21   -1    0    0  502  501  0.00000000000E+00  0.00000000000E+00  0.46477999742E+03  0.46477999742E+03  0.00000000000E+00 0.  1.
         21   -1    0    0  501  502 -0.00000000000E+00 -0.00000000000E+00 -0.11283646753E+03  0.11283646753E+03  0.00000000000E+00 0.  1.
      99926    2    1    2    0    0  0.00000000000E+00  0.00000000000E+00  0.35194352989E+03  0.57761646495E+03  0.45801368140E+03 0.  0.
      99925    2    3    3    0    0 -0.45300907983E+02  0.96840653537E+02  0.16715957831E+03  0.33018384523E+03  0.26391052004E+03 0.  0.
         25    1    4    4    0    0  0.22668504165E+01  0.17585650647E+02  0.51850690861E+02  0.13656645255E+03  0.12509000000E+03 0.  0.
         25    1    4    4    0    0 -0.47567758399E+02  0.79255002890E+02  0.11530888745E+03  0.19361739268E+03  0.12509000000E+03 0.  0.
         25    1    3    3    0    0  0.45300907983E+02 -0.96840653537E+02  0.18478395158E+03  0.24743261972E+03  0.12509000000E+03 0.  0.
<mgrwt>
<rscale>  2 0.45801368E+03</rscale>
<asrwt>0</asrwt>
<pdfrwt beam="1">  1       21 0.68349999E-01 0.45801368E+03</pdfrwt>
<pdfrwt beam="2">  1       21 0.16593598E-01 0.45801368E+03</pdfrwt>
<totfact> 0.58667216E+04</totfact>
</mgrwt>
</event>
<event>
 7    0  0.4725730E-002  0.4524932E+03  0.7546771E-02  0.1026981E+00
         21   -1    0    0  502  501  0.00000000000E+00  0.00000000000E+00  0.19870393710E+03  0.19870393710E+03  0.00000000000E+00 0.  1.
         21   -1    0    0  501  502 -0.00000000000E+00 -0.00000000000E+00 -0.25760698072E+03  0.25760698072E+03  0.00000000000E+00 0.  1.
      99926    2    1    2    0    0  0.88817841970E-15  0.00000000000E+00 -0.58903043615E+02  0.45631091782E+03  0.45249318798E+03 0.  0.
      99925    2    3    3    0    0  0.52700347965E+01  0.10492488745E+03 -0.13678615402E+01  0.28312081836E+03  0.26290401569E+03 0.  0.
         25    1    3    3    0    0 -0.52700347965E+01 -0.10492488745E+03 -0.57535182075E+02  0.17319009946E+03  0.12509000000E+03 0.  0.
         25    1    4    4    0    0  0.40410784585E+02  0.42606084764E+02 -0.11471023675E+02  0.13866290944E+03  0.12509000000E+03 0.  0.
         25    1    4    4    0    0 -0.35140749788E+02  0.62318802690E+02  0.10103162135E+02  0.14445790892E+03  0.12509000000E+03 0.  0.
<mgrwt>
<rscale>  2 0.45249319E+03</rscale>
<asrwt>0</asrwt>
<pdfrwt beam="1">  1       21 0.29221167E-01 0.45249319E+03</pdfrwt>
<pdfrwt beam="2">  1       21 0.37883379E-01 0.45249319E+03</pdfrwt>
<totfact> 0.69835958E+04</totfact>
</mgrwt>
</event>
<event>
 7    0  0.4725730E-002  0.4510823E+03  0.7546771E-02  0.1027400E+00
         21   -1    0    0  502  501  0.00000000000E+00  0.00000000000E+00  0.15413502202E+04  0.15413502202E+04  0.00000000000E+00 0.  1.
         21   -1    0    0  501  502 -0.00000000000E+00 -0.00000000000E+00 -0.33002762948E+02  0.33002762948E+02  0.00000000000E+00 0.  1.
      99926    2    1    2    0    0  0.35527136788E-14  0.00000000000E+00  0.15083474573E+04  0.15743529832E+04  0.45108232481E+03 0.  0.
      99925    2    3    3    0    0 -0.21527831426E+02 -0.82322863647E+02  0.11909040836E+04  0.12227021550E+04  0.26364279234E+03 0.  0.
         25    1    4    4    0    0  0.35167121942E+01 -0.64104954202E+02  0.76174723215E+03  0.77461485024E+03  0.12509000000E+03 0.  0.
         25    1    4    4    0    0 -0.25044543620E+02 -0.18217909444E+02  0.42915685150E+03  0.44808730475E+03  0.12509000000E+03 0.  0.
         25    1    3    3    0    0  0.21527831426E+02  0.82322863647E+02  0.31744337364E+03  0.35165082820E+03  0.12509000000E+03 0.  0.
<mgrwt>
<rscale>  2 0.45108232E+03</rscale>
<asrwt>0</asrwt>
<pdfrwt beam="1">  1       21 0.22666910E+00 0.45108232E+03</pdfrwt>
<pdfrwt beam="2">  1       21 0.48533485E-02 0.45108232E+03</pdfrwt>
<totfact> 0.22697005E+04</totfact>
</mgrwt>
</event>
<event>
 7    0  0.4725730E-002  0.4787288E+03  0.7546771E-02  0.1019485E+00
         21   -1    0    0  502  501  0.00000000000E+00  0.00000000000E+00  0.10677401891E+04  0.10677401891E+04  0.00000000000E+00 0. -1.
         21   -1    0    0  501  502 -0.00000000000E+00 -0.00000000000E+00 -0.53660356564E+02  0.53660356564E+02  0.00000000000E+00 0. -1.
      99926    2    1    2    0    0  0.00000000000E+00  0.00000000000E+00  0.10140798326E+04  0.11214005457E+04  0.47872881370E+03 0.  0.
      99925    2    3    3    0    0 -0.70234220832E+02 -0.94547108002E+01  0.89231712614E+03  0.93299698387E+03  0.26311837823E+03 0.  0.
         25    1    3    3    0    0  0.70234220832E+02  0.94547108002E+01  0.12176270641E+03  0.18840356182E+03  0.12509000000E+03 0.  0.
         25    1    4    4    0    0 -0.13851205222E+02 -0.89507039560E+01  0.30916174551E+03  0.33391685189E+03  0.12509000000E+03 0.  0.
         25    1    4    4    0    0 -0.56383015610E+02 -0.50400684417E+00  0.58315538063E+03  0.59908013198E+03  0.12509000000E+03 0.  0.
<mgrwt>
<rscale>  2 0.47872881E+03</rscale>
<asrwt>0</asrwt>
<pdfrwt beam="1">  1       21 0.15702060E+00 0.47872881E+03</pdfrwt>
<pdfrwt beam="2">  1       21 0.78912296E-02 0.47872881E+03</pdfrwt>
<totfact> 0.29003137E+04</totfact>
</mgrwt>
</event>
<event>
 7    0  0.4725730E-002  0.4581770E+03  0.7546771E-02  0.1025311E+00
         21   -1    0    0  502  501  0.00000000000E+00  0.00000000000E+00  0.36861156987E+02  0.36861156987E+02  0.00000000000E+00 0.  1.
         21   -1    0    0  501  502 -0.00000000000E+00 -0.00000000000E+00 -0.14237628036E+04  0.14237628036E+04  0.00000000000E+00 0.  1.
      99926    2    1    2    0    0 -0.71054273576E-14  0.14210854715E-13 -0.13869016466E+04  0.14606239606E+04  0.45817701477E+03 0.  0.
      99925    2    3    3    0    0  0.35578573074E+02 -0.10557952173E+03 -0.76531903666E+03  0.81686521744E+03  0.26294996735E+03 0.  0.
         25    1    3    3    0    0 -0.35578573074E+02  0.10557952173E+03 -0.62158260994E+03  0.64375874313E+03  0.12509000000E+03 0.  0.
         25    1    4    4    0    0  0.22068514229E+02 -0.16879515437E+02 -0.41200051704E+03  0.43146711520E+03  0.12509000000E+03 0.  0.
         25    1    4    4    0    0  0.13510058845E+02 -0.88700006294E+02 -0.35331851962E+03  0.38539810224E+03  0.12509000000E+03 0.  0.
<mgrwt>
<rscale>  2 0.45817701E+03</rscale>
<asrwt>0</asrwt>
<pdfrwt beam="1">  1       21 0.54207585E-02 0.45817701E+03</pdfrwt>
<pdfrwt beam="2">  1       21 0.20937688E+00 0.45817701E+03</pdfrwt>
<totfact> 0.24158369E+04</totfact>
</mgrwt>
</event>
<event>
 7    0  0.4725730E-002  0.4601651E+03  0.7546771E-02  0.1024733E+00
         21   -1    0    0  502  501  0.00000000000E+00  0.00000000000E+00  0.12503415105E+03  0.12503415105E+03  0.00000000000E+00 0. -1.
         21   -1    0    0  501  502 -0.00000000000E+00 -0.00000000000E+00 -0.42338818905E+03  0.42338818905E+03  0.00000000000E+00 0. -1.
      99926    2    1    2    0    0  0.00000000000E+00  0.00000000000E+00 -0.29835403800E+03  0.54842234010E+03  0.46016511290E+03 0.  0.
      99925    2    3    3    0    0 -0.96770610059E+02 -0.53315824079E+02 -0.13780001649E+03  0.31683600632E+03  0.26303817649E+03 0.  0.
         25    1    4    4    0    0 -0.14101414797E+02 -0.47590813560E+02 -0.76039047117E+02  0.15457419002E+03  0.12509000000E+03 0.  0.
         25    1    4    4    0    0 -0.82669195262E+02 -0.57250105190E+01 -0.61760969368E+02  0.16226181630E+03  0.12509000000E+03 0.  0.
         25    1    3    3    0    0  0.96770610059E+02  0.53315824079E+02 -0.16055402152E+03  0.23158633378E+03  0.12509000000E+03 0.  0.
<mgrwt>
<rscale>  2 0.46016511E+03</rscale>
<asrwt>0</asrwt>
<pdfrwt beam="1">  1       21 0.18387375E-01 0.46016511E+03</pdfrwt>
<pdfrwt beam="2">  1       21 0.62262968E-01 0.46016511E+03</pdfrwt>
<totfact> 0.59501628E+04</totfact>
</mgrwt>
</event>
<event>
 7    0  0.4725730E-002  0.4553589E+03  0.7546771E-02  0.1026136E+00
         21   -1    0    0  502  501  0.00000000000E+00  0.00000000000E+00  0.16965856359E+03  0.16965856359E+03  0.00000000000E+00 0.  1.
         21   -1    0    0  501  502 -0.00000000000E+00 -0.00000000000E+00 -0.30554268265E+03  0.30554268265E+03  0.00000000000E+00 0.  1.
      99926    2    1    2    0    0  0.00000000000E+00  0.00000000000E+00 -0.13588411906E+03  0.47520124625E+03  0.45535890309E+03 0.  0.
      99925    2    3    3    0    0 -0.67855255323E+02  0.91037008792E+02 -0.84348838872E+02  0.29857886418E+03  0.26294968886E+03 0.  0.
         25    1    4    4    0    0 -0.38810600382E+02  0.56907201400E+02 -0.84054983847E+02  0.16570286866E+03  0.12509000000E+03 0.  0.
         25    1    3    3    0    0  0.67855255323E+02 -0.91037008792E+02 -0.51535280187E+02  0.17662238207E+03  0.12509000000E+03 0.  0.
         25    1    4    4    0    0 -0.29044654941E+02  0.34129807392E+02 -0.29385502569E+00  0.13287599551E+03  0.12509000000E+03 0.  0.
<mgrwt>
<rscale>  2 0.45535890E+03</rscale>
<asrwt>0</asrwt>
<pdfrwt beam="1">  1       21 0.24949789E-01 0.45535890E+03</pdfrwt>
<pdfrwt beam="2">  1       21 0.44932747E-01 0.45535890E+03</pdfrwt>
<totfact> 0.66860479E+04</totfact>
</mgrwt>
</event>
<event>
 7    0  0.4725730E-002  0.4325183E+03  0.7546771E-02  0.1033067E+00
         21   -1    0    0  502  501  0.00000000000E+00  0.00000000000E+00  0.37998859388E+03  0.37998859388E+03  0.00000000000E+00 0.  1.
         21   -1    0    0  501  502 -0.00000000000E+00 -0.00000000000E+00 -0.12307745520E+03  0.12307745520E+03  0.00000000000E+00 0.  1.
      99926    2    1    2    0    0  0.00000000000E+00 -0.17763568394E-14  0.25691113868E+03  0.50306604908E+03  0.43251834245E+03 0.  0.
      99925    2    3    3    0    0 -0.86522084814E+02 -0.15396233454E+02  0.19101253059E+03  0.33659307886E+03  0.26284215554E+03 0.  0.
         25    1    4    4    0    0 -0.16661370824E+02  0.22119154746E+02  0.74976409255E+02  0.14844469788E+03  0.12509000000E+03 0.  0.
         25    1    4    4    0    0 -0.69860713989E+02 -0.37515388200E+02  0.11603612134E+03  0.18814838098E+03  0.12509000000E+03 0.  0.
         25    1    3    3    0    0  0.86522084814E+02  0.15396233454E+02  0.65898608088E+02  0.16647297022E+03  0.12509000000E+03 0.  0.
<mgrwt>
<rscale>  2 0.43251834E+03</rscale>
<asrwt>0</asrwt>
<pdfrwt beam="1">  1       21 0.55880675E-01 0.43251834E+03</pdfrwt>
<pdfrwt beam="2">  1       21 0.18099626E-01 0.43251834E+03</pdfrwt>
<totfact> 0.78078179E+04</totfact>
</mgrwt>
</event>
<event>
 7    0  0.4725730E-002  0.4536599E+03  0.7546771E-02  0.1026636E+00
         21   -1    0    0  502  501  0.00000000000E+00  0.00000000000E+00  0.78061426982E+03  0.78061426982E+03  0.00000000000E+00 0.  1.
         21   -1    0    0  501  502 -0.00000000000E+00 -0.00000000000E+00 -0.65911969569E+02  0.65911969569E+02  0.00000000000E+00 0.  1.
      99926    2    1    2    0    0  0.00000000000E+00  0.00000000000E+00  0.71470230025E+03  0.84652623939E+03  0.45365989021E+03 0.  0.
      99925    2    3    3    0    0 -0.11292970652E+02  0.93019119763E+02  0.33585168138E+03  0.43670263423E+03  0.26293107658E+03 0.  0.
         25    1    4    4    0    0  0.16110729843E+02  0.69527408546E+02  0.13534071992E+03  0.19763156307E+03  0.12509000000E+03 0.  0.
         25    1    4    4    0    0 -0.27403700494E+02  0.23491711217E+02  0.20051096147E+03  0.23907107116E+03  0.12509000000E+03 0.  0.
         25    1    3    3    0    0  0.11292970652E+02 -0.93019119763E+02  0.37885061886E+03  0.40982360515E+03  0.12509000000E+03 0.  0.
<mgrwt>
<rscale>  2 0.45365989E+03</rscale>
<asrwt>0</asrwt>
<pdfrwt beam="1">  1       21 0.11479621E+00 0.45365989E+03</pdfrwt>
<pdfrwt beam="2">  1       21 0.96929372E-02 0.45365989E+03</pdfrwt>
<totfact> 0.46077679E+04</totfact>
</mgrwt>
</event>
<event>
 7    0  0.4725730E-002  0.4565277E+03  0.7546771E-02  0.1025793E+00
         21   -1    0    0  502  501  0.00000000000E+00  0.00000000000E+00  0.12945546557E+04  0.12945546557E+04  0.00000000000E+00 0.  1.
         21   -1    0    0  501  502 -0.00000000000E+00 -0.00000000000E+00 -0.40248890677E+02  0.40248890677E+02  0.00000000000E+00 0.  1.
      99926    2    1    2    0    0  0.00000000000E+00  0.00000000000E+00  0.12543057651E+04  0.13348035464E+04  0.45652771576E+03 0.  0.
      99925    2    3    3    0    0  0.10260616424E+02 -0.51534211009E+02  0.48858063859E+03  0.55715096810E+03  0.26257400042E+03 0.  0.
         25    1    4    4    0    0 -0.14571579873E+02 -0.28583719399E+02  0.17204590996E+03  0.21512011340E+03  0.12509000000E+03 0.  0.
         25    1    3    3    0    0 -0.10260616424E+02  0.51534211009E+02  0.76572512647E+03  0.77765257831E+03  0.12509000000E+03 0.  0.
         25    1    4    4    0    0  0.24832196297E+02 -0.22950491610E+02  0.31653472863E+03  0.34203085470E+03  0.12509000000E+03 0.  0.
<mgrwt>
<rscale>  2 0.45652772E+03</rscale>
<asrwt>0</asrwt>
<pdfrwt beam="1">  1       21 0.19037566E+00 0.45652772E+03</pdfrwt>
<pdfrwt beam="2">  1       21 0.59189554E-02 0.45652772E+03</pdfrwt>
<totfact> 0.27788945E+04</totfact>
</mgrwt>
</event>
<event>
 7    0  0.4725730E-002  0.4703327E+03  0.7546771E-02  0.1021826E+00
         21   -1    0    0  502  501  0.00000000000E+00  0.00000000000E+00  0.89251701039E+02  0.89251701039E+02  0.00000000000E+00 0. -1.
         21   -1    0    0  501  502 -0.00000000000E+00 -0.00000000000E+00 -0.61963204778E+03  0.61963204778E+03  0.00000000000E+00 0. -1.
      99926    2    1    2    0    0 -0.71054273576E-14  0.00000000000E+00 -0.53038034674E+03  0.70888374882E+03  0.47033270897E+03 0.  0.
      99925    2    3    3    0    0 -0.38999280409E+02  0.22354959446E+02 -0.15042026671E+03  0.30634448539E+03  0.26305892688E+03 0.  0.
         25    1    3    3    0    0  0.38999280409E+02 -0.22354959446E+02 -0.37996008003E+03  0.40253926342E+03  0.12509000000E+03 0.  0.
         25    1    4    4    0    0 -0.73323447217E+01 -0.39106929587E+01 -0.32329839194E+02  0.12946730630E+03  0.12509000000E+03 0.  0.
         25    1    4    4    0    0 -0.31666935687E+02  0.26265652404E+02 -0.11809042752E+03  0.17687717909E+03  0.12509000000E+03 0.  0.
<mgrwt>
<rscale>  2 0.47033271E+03</rscale>
<asrwt>0</asrwt>
<pdfrwt beam="1">  1       21 0.13125250E-01 0.47033271E+03</pdfrwt>
<pdfrwt beam="2">  1       21 0.91122362E-01 0.47033271E+03</pdfrwt>
<totfact> 0.46547228E+04</totfact>
</mgrwt>
</event>
<event>
 7    0  0.4725730E-002  0.4515777E+03  0.7546771E-02  0.1027253E+00
         21   -1    0    0  502  501  0.00000000000E+00  0.00000000000E+00  0.12534393524E+04  0.12534393524E+04  0.00000000000E+00 0. -1.
         21   -1    0    0  501  502 -0.00000000000E+00 -0.00000000000E+00 -0.40672565756E+02  0.40672565756E+02  0.00000000000E+00 0. -1.
      99926    2    1    2    0    0  0.14210854715E-13 -0.14210854715E-13  0.12127667866E+04  0.12941119182E+04  0.45157765437E+03 0.  0.
      99925    2    3    3    0    0  0.69098038178E+02 -0.68496199648E+02  0.61796561287E+03  0.67856158498E+03  0.26286509407E+03 0.  0.
         25    1    3    3    0    0 -0.69098038178E+02  0.68496199648E+02  0.59480117377E+03  0.61555033317E+03  0.12509000000E+03 0.  0.
         25    1    4    4    0    0  0.40007965575E+02 -0.15814572285E+02  0.38820330895E+03  0.41012200036E+03  0.12509000000E+03 0.  0.
         25    1    4    4    0    0  0.29090072604E+02 -0.52681627363E+02  0.22976230393E+03  0.26843958462E+03  0.12509000000E+03 0.  0.
<mgrwt>
<rscale>  2 0.45157765E+03</rscale>
<asrwt>0</asrwt>
<pdfrwt beam="1">  1       21 0.18432929E+00 0.45157765E+03</pdfrwt>
<pdfrwt beam="2">  1       21 0.59812605E-02 0.45157765E+03</pdfrwt>
<totfact> 0.30078870E+04</totfact>
</mgrwt>
</event>
<event>
 7    0  0.4725730E-002  0.4593550E+03  0.7546771E-02  0.1024968E+00
         21   -1    0    0  502  501  0.00000000000E+00  0.00000000000E+00  0.21231461946E+03  0.21231461946E+03  0.00000000000E+00 0.  1.
         21   -1    0    0  501  502 -0.00000000000E+00 -0.00000000000E+00 -0.24846034462E+03  0.24846034462E+03  0.00000000000E+00 0.  1.
      99926    2    1    2    0    0  0.17763568394E-14  0.00000000000E+00 -0.36145725165E+02  0.46077496408E+03  0.45935504142E+03 0.  0.
      99925    2    3    3    0    0 -0.93743390063E+01 -0.10461065723E+03  0.29558305670E+02  0.28471873554E+03  0.26298250341E+03 0.  0.
         25    1    3    3    0    0  0.93743390063E+01  0.10461065723E+03 -0.65704030835E+02  0.17605622854E+03  0.12509000000E+03 0.  0.
         25    1    4    4    0    0  0.25093530938E+02 -0.42559475105E+02 -0.11948885101E+02  0.13502325048E+03  0.12509000000E+03 0.  0.
         25    1    4    4    0    0 -0.34467869945E+02 -0.62051182127E+02  0.41507190771E+02  0.14969548506E+03  0.12509000000E+03 0.  0.
<mgrwt>
<rscale>  2 0.45935504E+03</rscale>
<asrwt>0</asrwt>
<pdfrwt beam="1">  1       21 0.31222738E-01 0.45935504E+03</pdfrwt>
<pdfrwt beam="2">  1       21 0.36538286E-01 0.45935504E+03</pdfrwt>
<totfact> 0.65808230E+04</totfact>
</mgrwt>
</event>
<event>
 7    0  0.4725730E-002  0.4428428E+03  0.7546771E-02  0.1029878E+00
         21   -1    0    0  502  501  0.00000000000E+00  0.00000000000E+00  0.10035388688E+04  0.10035388688E+04  0.00000000000E+00 0. -1.
         21   -1    0    0  501  502 -0.00000000000E+00 -0.00000000000E+00 -0.48854555223E+02  0.48854555223E+02  0.00000000000E+00 0. -1.
      99926    2    1    2    0    0 -0.35527136788E-14  0.00000000000E+00  0.95468431360E+03  0.10523934240E+04  0.44284283932E+03 0.  0.
      99925    2    3    3    0    0  0.24478330904E+02 -0.55865299092E+02  0.80003579875E+03  0.84434585359E+03  0.26294965462E+03 0.  0.
         25    1    3    3    0    0 -0.24478330904E+02  0.55865299092E+02  0.15464851485E+03  0.20804757045E+03  0.12509000000E+03 0.  0.
         25    1    4    4    0    0  0.51044035548E+02 -0.40853998685E+02  0.41235796385E+03  0.43584531801E+03  0.12509000000E+03 0.  0.
         25    1    4    4    0    0 -0.26565704645E+02 -0.15011300407E+02  0.38767783490E+03  0.40850053559E+03  0.12509000000E+03 0.  0.
<mgrwt>
<rscale>  2 0.44284284E+03</rscale>
<asrwt>0</asrwt>
<pdfrwt beam="1">  1       21 0.14757923E+00 0.44284284E+03</pdfrwt>
<pdfrwt beam="2">  1       21 0.71844940E-02 0.44284284E+03</pdfrwt>
<totfact> 0.40938410E+04</totfact>
</mgrwt>
</event>
<event>
 7    0  0.4725730E-002  0.4502667E+03  0.7546771E-02  0.1027643E+00
         21   -1    0    0  502  501  0.00000000000E+00  0.00000000000E+00  0.28087449360E+03  0.28087449360E+03  0.00000000000E+00 0.  1.
         21   -1    0    0  501  502 -0.00000000000E+00 -0.00000000000E+00 -0.18045432170E+03  0.18045432170E+03  0.00000000000E+00 0.  1.
      99926    2    1    2    0    0  0.00000000000E+00 -0.88817841970E-15  0.10042017190E+03  0.46132881531E+03  0.45026665978E+03 0.  0.
      99925    2    3    3    0    0  0.10024775312E+03 -0.45651132392E+01  0.20834694289E+02  0.28229862620E+03  0.26303607662E+03 0.  0.
         25    1    4    4    0    0  0.78361878870E+02  0.12168595148E+02  0.38416179770E+02  0.15300970471E+03  0.12509000000E+03 0.  0.
         25    1    3    3    0    0 -0.10024775312E+03  0.45651132392E+01  0.79585477612E+02  0.17903018911E+03  0.12509000000E+03 0.  0.
         25    1    4    4    0    0  0.21885874251E+02 -0.16733708387E+02 -0.17581485481E+02  0.12928892149E+03  0.12509000000E+03 0.  0.
<mgrwt>
<rscale>  2 0.45026666E+03</rscale>
<asrwt>0</asrwt>
<pdfrwt beam="1">  1       21 0.41305073E-01 0.45026666E+03</pdfrwt>
<pdfrwt beam="2">  1       21 0.26537400E-01 0.45026666E+03</pdfrwt>
<totfact> 0.70704037E+04</totfact>
</mgrwt>
</event>
<event>
 7    0  0.4725730E-002  0.4503955E+03  0.7546771E-02  0.1027604E+00
         21   -1    0    0  502  501  0.00000000000E+00  0.00000000000E+00  0.10067723269E+04  0.10067723269E+04  0.00000000000E+00 0.  1.
         21   -1    0    0  501  502 -0.00000000000E+00 -0.00000000000E+00 -0.50372879549E+02  0.50372879549E+02  0.00000000000E+00 0.  1.
      99926    2    1    2    0    0  0.00000000000E+00  0.35527136788E-14  0.95639944737E+03  0.10571452065E+04  0.45039547581E+03 0.  0.
      99925    2    3    3    0    0  0.10449804269E+03  0.28602903254E+02  0.63065814492E+03  0.69177844386E+03  0.26284929641E+03 0.  0.
         25    1    3    3    0    0 -0.10449804269E+03 -0.28602903254E+02  0.32574130245E+03  0.36536676261E+03  0.12509000000E+03 0.  0.
         25    1    4    4    0    0  0.31686666898E+02  0.41283192093E+02  0.25030887578E+03  0.28462323904E+03  0.12509000000E+03 0.  0.
         25    1    4    4    0    0  0.72811375793E+02 -0.12680288839E+02  0.38034926914E+03  0.40715520481E+03  0.12509000000E+03 0.  0.
<mgrwt>
<rscale>  2 0.45039548E+03</rscale>
<asrwt>0</asrwt>
<pdfrwt beam="1">  1       21 0.14805474E+00 0.45039548E+03</pdfrwt>
<pdfrwt beam="2">  1       21 0.74077770E-02 0.45039548E+03</pdfrwt>
<totfact> 0.38376997E+04</totfact>
</mgrwt>
</event>
<event>
 7    0  0.4725730E-002  0.4190560E+03  0.7546771E-02  0.1037374E+00
         21   -1    0    0  502  501  0.00000000000E+00  0.00000000000E+00  0.89441395464E+02  0.89441395464E+02  0.00000000000E+00 0. -1.
         21   -1    0    0  501  502 -0.00000000000E+00 -0.00000000000E+00 -0.49084623715E+03  0.49084623715E+03  0.00000000000E+00 0. -1.
      99926    2    1    2    0    0  0.35527136788E-14  0.00000000000E+00 -0.40140484168E+03  0.58028763261E+03  0.41905595048E+03 0.  0.
      99925    2    3    3    0    0 -0.31643257273E+02  0.35647434255E+02 -0.34150569838E+03  0.43363344492E+03  0.26294445654E+03 0.  0.
         25    1    4    4    0    0  0.16819786701E+02  0.22449986548E+02 -0.12816350117E+03  0.18127409702E+03  0.12509000000E+03 0.  0.
         25    1    3    3    0    0  0.31643257273E+02 -0.35647434255E+02 -0.59899143305E+02  0.14665418769E+03  0.12509000000E+03 0.  0.
         25    1    4    4    0    0 -0.48463043974E+02  0.13197447706E+02 -0.21334219721E+03  0.25235934789E+03  0.12509000000E+03 0.  0.
<mgrwt>
<rscale>  2 0.41905595E+03</rscale>
<asrwt>0</asrwt>
<pdfrwt beam="1">  1       21 0.13153146E-01 0.41905595E+03</pdfrwt>
<pdfrwt beam="2">  1       21 0.72183270E-01 0.41905595E+03</pdfrwt>
<totfact> 0.80441540E+04</totfact>
</mgrwt>
</event>
<event>
 7    0  0.4725730E-002  0.4494513E+03  0.7546771E-02  0.1027886E+00
         21   -1    0    0  502  501  0.00000000000E+00  0.00000000000E+00  0.30413500332E+03  0.30413500332E+03  0.00000000000E+00 0. -1.
         21   -1    0    0  501  502 -0.00000000000E+00 -0.00000000000E+00 -0.16604997215E+03  0.16604997215E+03  0.00000000000E+00 0. -1.
      99926    2    1    2    0    0  0.35527136788E-14  0.00000000000E+00  0.13808503117E+03  0.47018497547E+03  0.44945126024E+03 0.  0.
      99925    2    3    3    0    0  0.18033876945E+02 -0.97363239791E+02  0.13388200681E+03  0.31059175916E+03  0.26217938121E+03 0.  0.
         25    1    4    4    0    0  0.41661456604E+02 -0.63145932098E+02  0.50741496182E+02  0.15474266781E+03  0.12509000000E+03 0.  0.
         25    1    4    4    0    0 -0.23627579659E+02 -0.34217307693E+02  0.83140510626E+02  0.15584909135E+03  0.12509000000E+03 0.  0.
         25    1    3    3    0    0 -0.18033876945E+02  0.97363239791E+02  0.42030243599E+01  0.15959321632E+03  0.12509000000E+03 0.  0.
<mgrwt>
<rscale>  2 0.44945126E+03</rscale>
<asrwt>0</asrwt>
<pdfrwt beam="1">  1       21 0.44725736E-01 0.44945126E+03</pdfrwt>
<pdfrwt beam="2">  1       21 0.24419113E-01 0.44945126E+03</pdfrwt>
<totfact> 0.70474073E+04</totfact>
</mgrwt>
</event>
<event>
 7    0  0.4725730E-002  0.4550413E+03  0.7546771E-02  0.1026229E+00
         21   -1    0    0  502  501  0.00000000000E+00  0.00000000000E+00  0.84525209065E+02  0.84525209065E+02  0.00000000000E+00 0.  1.
         21   -1    0    0  501  502 -0.00000000000E+00 -0.00000000000E+00 -0.61242837831E+03  0.61242837831E+03  0.00000000000E+00 0.  1.
      99926    2    1    2    0    0  0.00000000000E+00  0.00000000000E+00 -0.52790316925E+03  0.69695358738E+03  0.45504125841E+03 0.  0.
      99925    2    3    3    0    0  0.42771723862E+02  0.93485595332E+02 -0.40446682920E+03  0.49335345221E+03  0.26312589379E+03 0.  0.
         25    1    3    3    0    0 -0.42771723862E+02 -0.93485595332E+02 -0.12343634005E+03  0.20360013517E+03  0.12509000000E+03 0.  0.
         25    1    4    4    0    0  0.31467258241E+02  0.67207213349E+02 -0.15337269288E+03  0.21137097456E+03  0.12509000000E+03 0.  0.
         25    1    4    4    0    0  0.11304465621E+02  0.26278381982E+02 -0.25109413632E+03  0.28198247764E+03  0.12509000000E+03 0.  0.
<mgrwt>
<rscale>  2 0.45504126E+03</rscale>
<asrwt>0</asrwt>
<pdfrwt beam="1">  1       21 0.12430178E-01 0.45504126E+03</pdfrwt>
<pdfrwt beam="2">  1       21 0.90062996E-01 0.45504126E+03</pdfrwt>
<totfact> 0.53051455E+04</totfact>
</mgrwt>
</event>
<event>
 7    0  0.4725730E-002  0.4569811E+03  0.7546771E-02  0.1025660E+00
         21   -1    0    0  502  501  0.00000000000E+00  0.00000000000E+00  0.19212769274E+03  0.19212769274E+03  0.00000000000E+00 0.  1.
         21   -1    0    0  501  502 -0.00000000000E+00 -0.00000000000E+00 -0.27173557586E+03  0.27173557586E+03  0.00000000000E+00 0.  1.
      99926    2    1    2    0    0 -0.14210854715E-13 -0.71054273576E-14 -0.79607883116E+02  0.46386326860E+03  0.45698109031E+03 0.  0.
      99925    2    3    3    0    0 -0.10023917774E+03 -0.37374320661E+02 -0.92987655012E+02  0.29872314932E+03  0.26295262569E+03 0.  0.
         25    1    4    4    0    0 -0.35603876803E+02  0.15519569961E+02 -0.23641487932E+02  0.13309741225E+03  0.12509000000E+03 0.  0.
         25    1    3    3    0    0  0.10023917774E+03  0.37374320661E+02  0.13379771896E+02  0.16514011928E+03  0.12509000000E+03 0.  0.
         25    1    4    4    0    0 -0.64635300941E+02 -0.52893890621E+02 -0.69346167081E+02  0.16562573707E+03  0.12509000000E+03 0.  0.
<mgrwt>
<rscale>  2 0.45698109E+03</rscale>
<asrwt>0</asrwt>
<pdfrwt beam="1">  1       21 0.28254072E-01 0.45698109E+03</pdfrwt>
<pdfrwt beam="2">  1       21 0.39961114E-01 0.45698109E+03</pdfrwt>
<totfact> 0.66835796E+04</totfact>
</mgrwt>
</event>
<event>
 7    0  0.4725730E-002  0.4495075E+03  0.7546771E-02  0.1027869E+00
         21   -1    0    0  502  501  0.00000000000E+00  0.00000000000E+00  0.10868513698E+03  0.10868513698E+03  0.00000000000E+00 0. -1.
         21   -1    0    0  501  502 -0.00000000000E+00 -0.00000000000E+00 -0.46477599027E+03  0.46477599027E+03  0.00000000000E+00 0. -1.
      99926    2    1    2    0    0  0.00000000000E+00  0.00000000000E+00 -0.35609085329E+03  0.57346112724E+03  0.44950747342E+03 0.  0.
      99925    2    3    3    0    0 -0.76264259175E+02  0.37944827660E+02 -0.30971145091E+03  0.41517466466E+03  0.26304519036E+03 0.  0.
         25    1    4    4    0    0 -0.68459286126E+02  0.19941073216E+02 -0.12184478737E+03  0.18862126223E+03  0.12509000000E+03 0.  0.
         25    1    4    4    0    0 -0.78049730487E+01  0.18003754444E+02 -0.18786666354E+03  0.22655340242E+03  0.12509000000E+03 0.  0.
         25    1    3    3    0    0  0.76264259175E+02 -0.37944827660E+02 -0.46379402377E+02  0.15828646259E+03  0.12509000000E+03 0.  0.
<mgrwt>
<rscale>  2 0.44950747E+03</rscale>
<asrwt>0</asrwt>
<pdfrwt beam="1">  1       21 0.15983109E-01 0.44950747E+03</pdfrwt>
<pdfrwt beam="2">  1       21 0.68349409E-01 0.44950747E+03</pdfrwt>
<totfact> 0.63035593E+04</totfact>
</mgrwt>
</event>
<event>
 7    0  0.4725730E-002  0.4641217E+03  0.7546771E-02  0.1023593E+00
         21   -1    0    0  502  501  0.00000000000E+00  0.00000000000E+00  0.13452167017E+04  0.13452167017E+04  0.00000000000E+00 0.  1.
         21   -1    0    0  501  502 -0.00000000000E+00 -0.00000000000E+00 -0.40032382774E+02  0.40032382774E+02  0.00000000000E+00 0.  1.
      99926    2    1    2    0    0  0.00000000000E+00  0.00000000000E+00  0.13051843189E+04  0.13852490844E+04  0.46412166472E+03 0.  0.
      99925    2    3    3    0    0  0.74878924434E+02 -0.31956851914E+02  0.54576864761E+03  0.61130608680E+03  0.26306581180E+03 0.  0.
         25    1    4    4    0    0  0.43351100268E+02 -0.19938714487E+02  0.18798995501E+03  0.23079125095E+03  0.12509000000E+03 0.  0.
         25    1    4    4    0    0  0.31527824166E+02 -0.12018137427E+02  0.35777869260E+03  0.38051483585E+03  0.12509000000E+03 0.  0.
         25    1    3    3    0    0 -0.74878924434E+02  0.31956851914E+02  0.75941567128E+03  0.77394299764E+03  0.12509000000E+03 0.  0.
<mgrwt>
<rscale>  2 0.46412166E+03</rscale>
<asrwt>0</asrwt>
<pdfrwt beam="1">  1       21 0.19782596E+00 0.46412166E+03</pdfrwt>
<pdfrwt beam="2">  1       21 0.58871160E-02 0.46412166E+03</pdfrwt>
<totfact> 0.24914206E+04</totfact>
</mgrwt>
</event>
<event>
 7    0  0.4725730E-002  0.4508554E+03  0.7546771E-02  0.1027467E+00
         21   -1    0    0  502  501  0.00000000000E+00  0.00000000000E+00  0.88837539772E+02  0.88837539772E+02  0.00000000000E+00 0. -1.
         21   -1    0    0  501  502 -0.00000000000E+00 -0.00000000000E+00 -0.57202888386E+03  0.57202888386E+03  0.00000000000E+00 0. -1.
      99926    2    1    2    0    0  0.00000000000E+00  0.00000000000E+00 -0.48319134409E+03  0.66086642363E+03  0.45085535916E+03 0.  0.
      99925    2    3    3    0    0 -0.96012073672E+02  0.48451922984E+02 -0.33238704968E+03  0.43735948762E+03  0.26312784628E+03 0.  0.
         25    1    4    4    0    0 -0.29063925372E+02 -0.29669878058E+01 -0.19356228439E+03  0.23230880485E+03  0.12509000000E+03 0.  0.
         25    1    4    4    0    0 -0.66948148299E+02  0.51418910790E+02 -0.13882476529E+03  0.20505068277E+03  0.12509000000E+03 0.  0.
         25    1    3    3    0    0  0.96012073672E+02 -0.48451922984E+02 -0.15080429441E+03  0.22350693601E+03  0.12509000000E+03 0.  0.
<mgrwt>
<rscale>  2 0.45085536E+03</rscale>
<asrwt>0</asrwt>
<pdfrwt beam="1">  1       21 0.13064344E-01 0.45085536E+03</pdfrwt>
<pdfrwt beam="2">  1       21 0.84121894E-01 0.45085536E+03</pdfrwt>
<totfact> 0.56916651E+04</totfact>
</mgrwt>
</event>
<event>
 7    0  0.4725730E-002  0.4491155E+03  0.7546771E-02  0.1027986E+00
         21   -1    0    0  502  501  0.00000000000E+00  0.00000000000E+00  0.90259875868E+02  0.90259875868E+02  0.00000000000E+00 0. -1.
         21   -1    0    0  501  502 -0.00000000000E+00 -0.00000000000E+00 -0.55867785873E+03  0.55867785873E+03  0.00000000000E+00 0. -1.
      99926    2    1    2    0    0  0.00000000000E+00  0.00000000000E+00 -0.46841798286E+03  0.64893773460E+03  0.44911554941E+03 0.  0.
      99925    2    3    3    0    0  0.74525976817E+02 -0.53181878291E+02 -0.21502950490E+03  0.35189285203E+03  0.26307500438E+03 0.  0.
         25    1    4    4    0    0  0.56320783253E+02 -0.79405707217E+01 -0.14755612246E+03  0.20163184437E+03  0.12509000000E+03 0.  0.
         25    1    4    4    0    0  0.18205193564E+02 -0.45241307570E+02 -0.67473382443E+02  0.15026100766E+03  0.12509000000E+03 0.  0.
         25    1    3    3    0    0 -0.74525976817E+02  0.53181878291E+02 -0.25338847796E+03  0.29704488257E+03  0.12509000000E+03 0.  0.
<mgrwt>
<rscale>  2 0.44911555E+03</rscale>
<asrwt>0</asrwt>
<pdfrwt beam="1">  1       21 0.13273511E-01 0.44911555E+03</pdfrwt>
<pdfrwt beam="2">  1       21 0.82158507E-01 0.44911555E+03</pdfrwt>
<totfact> 0.58428177E+04</totfact>
</mgrwt>
</event>
<event>
 7    0  0.4725730E-002  0.4562380E+03  0.7546771E-02  0.1025878E+00
         21   -1    0    0  502  501  0.00000000000E+00  0.00000000000E+00  0.48221991600E+02  0.48221991600E+02  0.00000000000E+00 0.  1.
         21   -1    0    0  501  502 -0.00000000000E+00 -0.00000000000E+00 -0.10791397527E+04  0.10791397527E+04  0.00000000000E+00 0.  1.
      99926    2    1    2    0    0  0.00000000000E+00  0.71054273576E-14 -0.10309177611E+04  0.11273617443E+04  0.45623795585E+03 0.  0.
      99925    2    3    3    0    0  0.86736522006E+02  0.48626834192E+02 -0.50847855493E+03  0.58103031970E+03  0.26297908347E+03 0.  0.
         25    1    4    4    0    0  0.31688117758E+02 -0.14655815142E+02 -0.25556389197E+03  0.28666939268E+03  0.12509000000E+03 0.  0.
         25    1    4    4    0    0  0.55048404248E+02  0.63282649334E+02 -0.25291466296E+03  0.29436092702E+03  0.12509000000E+03 0.  0.
         25    1    3    3    0    0 -0.86736522006E+02 -0.48626834192E+02 -0.52243920618E+03  0.54633142460E+03  0.12509000000E+03 0.  0.
<mgrwt>
<rscale>  2 0.45623796E+03</rscale>
<asrwt>0</asrwt>
<pdfrwt beam="1">  1       21 0.70914695E-02 0.45623796E+03</pdfrwt>
<pdfrwt beam="2">  1       21 0.15869702E+00 0.45623796E+03</pdfrwt>
<totfact> 0.34215867E+04</totfact>
</mgrwt>
</event>
<event>
 7    0  0.4725730E-002  0.4593256E+03  0.7546771E-02  0.1024977E+00
         21   -1    0    0  502  501  0.00000000000E+00  0.00000000000E+00  0.43045345110E+03  0.43045345110E+03  0.00000000000E+00 0. -1.
         21   -1    0    0  501  502 -0.00000000000E+00 -0.00000000000E+00 -0.12253359049E+03  0.12253359049E+03  0.00000000000E+00 0. -1.
      99926    2    1    2    0    0 -0.71054273576E-14  0.00000000000E+00  0.30791986060E+03  0.55298704159E+03  0.45932562264E+03 0.  0.
      99925    2    3    3    0    0 -0.44425874460E+02  0.10727246780E+03  0.19650795623E+03  0.34917055254E+03  0.26424166445E+03 0.  0.
         25    1    4    4    0    0 -0.12023306506E+02  0.96943013008E+02  0.11580957723E+03  0.19647359606E+03  0.12509000000E+03 0.  0.
         25    1    4    4    0    0 -0.32402567954E+02  0.10329454794E+02  0.80698378997E+02  0.15269695648E+03  0.12509000000E+03 0.  0.
         25    1    3    3    0    0  0.44425874460E+02 -0.10727246780E+03  0.11141190438E+03  0.20381648905E+03  0.12509000000E+03 0.  0.
<mgrwt>
<rscale>  2 0.45932562E+03</rscale>
<asrwt>0</asrwt>
<pdfrwt beam="1">  1       21 0.63301978E-01 0.45932562E+03</pdfrwt>
<pdfrwt beam="2">  1       21 0.18019646E-01 0.45932562E+03</pdfrwt>
<totfact> 0.59603487E+04</totfact>
</mgrwt>
</event>
<event>
 7    0  0.4725730E-002  0.4527648E+03  0.7546771E-02  0.1026901E+00
         21   -1    0    0  502  501  0.00000000000E+00  0.00000000000E+00  0.12321970022E+03  0.12321970022E+03  0.00000000000E+00 0.  1.
         21   -1    0    0  501  502 -0.00000000000E+00 -0.00000000000E+00 -0.41591555251E+03  0.41591555251E+03  0.00000000000E+00 0.  1.
      99926    2    1    2    0    0  0.00000000000E+00  0.00000000000E+00 -0.29269585229E+03  0.53913525274E+03  0.45276479412E+03 0.  0.
      99925    2    3    3    0    0  0.30041034290E+02 -0.85996910773E+02 -0.10869100857E+03  0.29871224424E+03  0.26290176323E+03 0.  0.
         25    1    4    4    0    0 -0.16541469653E+02 -0.67894078294E+02 -0.62303530517E+02  0.15624488504E+03  0.12509000000E+03 0.  0.
         25    1    4    4    0    0  0.46582503943E+02 -0.18102832479E+02 -0.46387478056E+02  0.14246735920E+03  0.12509000000E+03 0.  0.
         25    1    3    3    0    0 -0.30041034290E+02  0.85996910773E+02 -0.18400484372E+03  0.24042300850E+03  0.12509000000E+03 0.  0.
<mgrwt>
<rscale>  2 0.45276479E+03</rscale>
<asrwt>0</asrwt>
<pdfrwt beam="1">  1       21 0.18120544E-01 0.45276479E+03</pdfrwt>
<pdfrwt beam="2">  1       21 0.61164051E-01 0.45276479E+03</pdfrwt>
<totfact> 0.63709763E+04</totfact>
</mgrwt>
</event>
<event>
 7    0  0.4725730E-002  0.4227373E+03  0.7546771E-02  0.1036179E+00
         21   -1    0    0  502  501  0.00000000000E+00  0.00000000000E+00  0.12350149663E+03  0.12350149663E+03  0.00000000000E+00 0.  1.
         21   -1    0    0  501  502 -0.00000000000E+00 -0.00000000000E+00 -0.36175039318E+03  0.36175039318E+03  0.00000000000E+00 0.  1.
      99926    2    1    2    0    0  0.00000000000E+00  0.00000000000E+00 -0.23824889655E+03  0.48525188982E+03  0.42273734146E+03 0.  0.
      99925    2    3    3    0    0 -0.82917752453E+01  0.16871452899E+02 -0.66461526537E+02  0.27191692302E+03  0.26299862938E+03 0.  0.
         25    1    4    4    0    0  0.18437395050E+02 -0.22859814752E+02 -0.19400516351E+02  0.12994766947E+03  0.12509000000E+03 0.  0.
         25    1    4    4    0    0 -0.26729170295E+02  0.39731267651E+02 -0.47061010186E+02  0.14196925355E+03  0.12509000000E+03 0.  0.
         25    1    3    3    0    0  0.82917752453E+01 -0.16871452899E+02 -0.17178737001E+03  0.21333496679E+03  0.12509000000E+03 0.  0.
<mgrwt>
<rscale>  2 0.42273734E+03</rscale>
<asrwt>0</asrwt>
<pdfrwt beam="1">  1       21 0.18161985E-01 0.42273734E+03</pdfrwt>
<pdfrwt beam="2">  1       21 0.53198588E-01 0.42273734E+03</pdfrwt>
<totfact> 0.86413815E+04</totfact>
</mgrwt>
</event>
<event>
 7    0  0.4725730E-002  0.4601482E+03  0.7546771E-02  0.1024738E+00
         21   -1    0    0  502  501  0.00000000000E+00  0.00000000000E+00  0.14087926203E+04  0.14087926203E+04  0.00000000000E+00 0. -1.
         21   -1    0    0  501  502 -0.00000000000E+00 -0.00000000000E+00 -0.37574090689E+02  0.37574090689E+02  0.00000000000E+00 0. -1.
      99926    2    1    2    0    0 -0.35527136788E-14  0.71054273576E-14  0.13712185296E+04  0.14463667109E+04  0.46014824426E+03 0.  0.
      99925    2    3    3    0    0  0.84375439624E+01  0.45448868196E+02  0.51790339884E+03  0.58269373336E+03  0.26300430530E+03 0.  0.
         25    1    4    4    0    0 -0.28433480504E+02 -0.14918417890E+01  0.23937918614E+03  0.27158901167E+03  0.12509000000E+03 0.  0.
         25    1    4    4    0    0  0.36871024467E+02  0.46940709985E+02  0.27852421270E+03  0.31110472169E+03  0.12509000000E+03 0.  0.
         25    1    3    3    0    0 -0.84375439624E+01 -0.45448868196E+02  0.85331513073E+03  0.86367297758E+03  0.12509000000E+03 0.  0.
<mgrwt>
<rscale>  2 0.46014824E+03</rscale>
<asrwt>0</asrwt>
<pdfrwt beam="1">  1       21 0.20717535E+00 0.46014824E+03</pdfrwt>
<pdfrwt beam="2">  1       21 0.55256025E-02 0.46014824E+03</pdfrwt>
<totfact> 0.24141972E+04</totfact>
</mgrwt>
</event>
<event>
 7    0  0.4725730E-002  0.4560713E+03  0.7546771E-02  0.1025927E+00
         21   -1    0    0  502  501  0.00000000000E+00  0.00000000000E+00  0.16068400180E+04  0.16068400180E+04  0.00000000000E+00 0.  1.
         21   -1    0    0  501  502 -0.00000000000E+00 -0.00000000000E+00 -0.32361819865E+02  0.32361819865E+02  0.00000000000E+00 0.  1.
      99926    2    1    2    0    0  0.71054273576E-14 -0.14210854715E-13  0.15744781981E+04  0.16392018379E+04  0.45607134185E+03 0.  0.
      99925    2    3    3    0    0  0.59011703467E+02 -0.67541628452E+02  0.73598605886E+03  0.78669915257E+03  0.26301297513E+03 0.  0.
         25    1    3    3    0    0 -0.59011703467E+02  0.67541628452E+02  0.83849213926E+03  0.85250268529E+03  0.12509000000E+03 0.  0.
         25    1    4    4    0    0  0.70847234282E+02 -0.38056165541E+02  0.40512182779E+03  0.43155394309E+03  0.12509000000E+03 0.  0.
         25    1    4    4    0    0 -0.11835530814E+02 -0.29485462911E+02  0.33086423107E+03  0.35514520948E+03  0.12509000000E+03 0.  0.
<mgrwt>
<rscale>  2 0.45607134E+03</rscale>
<asrwt>0</asrwt>
<pdfrwt beam="1">  1       21 0.23629995E+00 0.45607134E+03</pdfrwt>
<pdfrwt beam="2">  1       21 0.47590922E-02 0.45607134E+03</pdfrwt>
<totfact> 0.20388111E+04</totfact>
</mgrwt>
</event>
<event>
 7    0  0.4725730E-002  0.4599590E+03  0.7546771E-02  0.1024793E+00
         21   -1    0    0  502  501  0.00000000000E+00  0.00000000000E+00  0.11094715684E+03  0.11094715684E+03  0.00000000000E+00 0.  1.
         21   -1    0    0  501  502 -0.00000000000E+00 -0.00000000000E+00 -0.47671849699E+03  0.47671849699E+03  0.00000000000E+00 0.  1.
      99926    2    1    2    0    0  0.00000000000E+00 -0.14210854715E-13 -0.36577134015E+03  0.58766565382E+03  0.45995896275E+03 0.  0.
      99925    2    3    3    0    0 -0.39044679396E+02  0.90484567291E+02 -0.14680135458E+03  0.31691243300E+03  0.26300362844E+03 0.  0.
         25    1    4    4    0    0 -0.25365852943E+02  0.87353115167E+02 -0.88444361892E+02  0.17816819715E+03  0.12509000000E+03 0.  0.
         25    1    4    4    0    0 -0.13678826453E+02  0.31314521236E+01 -0.58356992683E+02  0.13874423585E+03  0.12509000000E+03 0.  0.
         25    1    3    3    0    0  0.39044679396E+02 -0.90484567291E+02 -0.21896998557E+03  0.27075322083E+03  0.12509000000E+03 0.  0.
<mgrwt>
<rscale>  2 0.45995896E+03</rscale>
<asrwt>0</asrwt>
<pdfrwt beam="1">  1       21 0.16315758E-01 0.45995896E+03</pdfrwt>
<pdfrwt beam="2">  1       21 0.70105661E-01 0.45995896E+03</pdfrwt>
<totfact> 0.57169936E+04</totfact>
</mgrwt>
</event>
<event>
 7    0  0.4725730E-002  0.4414034E+03  0.7546771E-02  0.1030317E+00
         21   -1    0    0  502  501  0.00000000000E+00  0.00000000000E+00  0.75610851442E+02  0.75610851442E+02  0.00000000000E+00 0. -1.
         21   -1    0    0  501  502 -0.00000000000E+00 -0.00000000000E+00 -0.64420964121E+03  0.64420964121E+03  0.00000000000E+00 0. -1.
      99926    2    1    2    0    0  0.00000000000E+00  0.00000000000E+00 -0.56859878976E+03  0.71982049265E+03  0.44140339590E+03 0.  0.
      99925    2    3    3    0    0 -0.49218868872E+02 -0.54842122773E+02 -0.25217483159E+03  0.37168002547E+03  0.26291394060E+03 0.  0.
         25    1    3    3    0    0  0.49218868872E+02  0.54842122773E+02 -0.31642395817E+03  0.34814046718E+03  0.12509000000E+03 0.  0.
         25    1    4    4    0    0 -0.80446178980E+00 -0.42057459871E+02 -0.85051384083E+02  0.15700548756E+03  0.12509000000E+03 0.  0.
         25    1    4    4    0    0 -0.48414407082E+02 -0.12784662902E+02 -0.16712344751E+03  0.21467453791E+03  0.12509000000E+03 0.  0.
<mgrwt>
<rscale>  2 0.44140340E+03</rscale>
<asrwt>0</asrwt>
<pdfrwt beam="1">  1       21 0.11119243E-01 0.44140340E+03</pdfrwt>
<pdfrwt beam="2">  1       21 0.94736711E-01 0.44140340E+03</pdfrwt>
<totfact> 0.57775272E+04</totfact>
</mgrwt>
</event>
<event>
 7    0  0.4725730E-002  0.4455079E+03  0.7546771E-02  0.1029070E+00
         21   -1    0    0  502  501  0.00000000000E+00  0.00000000000E+00  0.51480778278E+02  0.51480778278E+02  0.00000000000E+00 0.  1.
         21   -1    0    0  501  502 -0.00000000000E+00 -0.00000000000E+00 -0.96384176332E+03  0.96384176332E+03  0.00000000000E+00 0.  1.
      99926    2    1    2    0    0  0.71054273576E-14  0.14210854715E-13 -0.91236098505E+03  0.10153225416E+04  0.44550790840E+03 0.  0.
      99925    2    3    3    0    0 -0.56785908898E+02 -0.83032812050E+02 -0.51765471179E+03  0.58922438674E+03  0.26286857927E+03 0.  0.
         25    1    4    4    0    0 -0.55863887693E+01 -0.68309127847E+02 -0.22301231742E+03  0.26472503944E+03  0.12509000000E+03 0.  0.
         25    1    3    3    0    0  0.56785908898E+02  0.83032812050E+02 -0.39470627326E+03  0.42609815486E+03  0.12509000000E+03 0.  0.
         25    1    4    4    0    0 -0.51199520129E+02 -0.14723684203E+02 -0.29464239437E+03  0.32449934730E+03  0.12509000000E+03 0.  0.
<mgrwt>
<rscale>  2 0.44550791E+03</rscale>
<asrwt>0</asrwt>
<pdfrwt beam="1">  1       21 0.75707029E-02 0.44550791E+03</pdfrwt>
<pdfrwt beam="2">  1       21 0.14174143E+00 0.44550791E+03</pdfrwt>
<totfact> 0.41572836E+04</totfact>
</mgrwt>
</event>
<event>
 7    0  0.4725730E-002  0.4538101E+03  0.7546771E-02  0.1026592E+00
         21   -1    0    0  502  501  0.00000000000E+00  0.00000000000E+00  0.65841323913E+02  0.65841323913E+02  0.00000000000E+00 0. -1.
         21   -1    0    0  501  502 -0.00000000000E+00 -0.00000000000E+00 -0.78196925483E+03  0.78196925483E+03  0.00000000000E+00 0. -1.
      99926    2    1    2    0    0  0.00000000000E+00  0.35527136788E-14 -0.71612793092E+03  0.84781057875E+03  0.45381005277E+03 0.  0.
      99925    2    3    3    0    0  0.10995134239E+03 -0.17493433238E+02 -0.42965032879E+03  0.51597893089E+03  0.26313406125E+03 0.  0.
         25    1    4    4    0    0  0.86543485462E+02  0.15863186739E+02 -0.25461009012E+03  0.29701047399E+03  0.12509000000E+03 0.  0.
         25    1    3    3    0    0 -0.10995134239E+03  0.17493433238E+02 -0.28647760213E+03  0.33183164786E+03  0.12509000000E+03 0.  0.
         25    1    4    4    0    0  0.23407856923E+02 -0.33356619976E+02 -0.17504023867E+03  0.21896845690E+03  0.12509000000E+03 0.  0.
<mgrwt>
<rscale>  2 0.45381005E+03</rscale>
<asrwt>0</asrwt>
<pdfrwt beam="1">  1       21 0.96825476E-02 0.45381005E+03</pdfrwt>
<pdfrwt beam="2">  1       21 0.11499548E+00 0.45381005E+03</pdfrwt>
<totfact> 0.45965051E+04</totfact>
</mgrwt>
</event>
<event>
 7    0  0.4725730E-002  0.4567495E+03  0.7546771E-02  0.1025728E+00
         21   -1    0    0  502  501  0.00000000000E+00  0.00000000000E+00  0.59281451032E+03  0.59281451032E+03  0.00000000000E+00 0.  1.
         21   -1    0    0  501  502 -0.00000000000E+00 -0.00000000000E+00 -0.87978677553E+02  0.87978677553E+02  0.00000000000E+00 0.  1.
      99926    2    1    2    0    0  0.00000000000E+00  0.71054273576E-14  0.50483583277E+03  0.68079318788E+03  0.45674954473E+03 0.  0.
      99925    2    3    3    0    0 -0.75357217622E+02  0.62146146648E+02  0.40709736096E+03  0.49440335242E+03  0.26299345959E+03 0.  0.
         25    1    4    4    0    0 -0.52974124548E+02  0.54981010635E+02  0.27084500978E+03  0.30795080260E+03  0.12509000000E+03 0.  0.
         25    1    4    4    0    0 -0.22383093074E+02  0.71651360128E+01  0.13625235118E+03  0.18645254982E+03  0.12509000000E+03 0.  0.
         25    1    3    3    0    0  0.75357217622E+02 -0.62146146648E+02  0.97738471810E+02  0.18638983546E+03  0.12509000000E+03 0.  0.
<mgrwt>
<rscale>  2 0.45674954E+03</rscale>
<asrwt>0</asrwt>
<pdfrwt beam="1">  1       21 0.87178603E-01 0.45674954E+03</pdfrwt>
<pdfrwt beam="2">  1       21 0.12938041E-01 0.45674954E+03</pdfrwt>
<totfact> 0.53221512E+04</totfact>
</mgrwt>
</event>
<event>
 7    0  0.4725730E-002  0.4364411E+03  0.7546771E-02  0.1031844E+00
         21   -1    0    0  502  501  0.00000000000E+00  0.00000000000E+00  0.16933281779E+03  0.16933281779E+03  0.00000000000E+00 0. -1.
         21   -1    0    0  501  502 -0.00000000000E+00 -0.00000000000E+00 -0.28122251026E+03  0.28122251026E+03  0.00000000000E+00 0. -1.
      99926    2    1    2    0    0  0.00000000000E+00  0.00000000000E+00 -0.11188969247E+03  0.45055532805E+03  0.43644106172E+03 0.  0.
      99925    2    3    3    0    0  0.50706379548E+02 -0.36853440304E+02  0.11577881822E+01  0.27067605195E+03  0.26331515649E+03 0.  0.
         25    1    3    3    0    0 -0.50706379548E+02  0.36853440304E+02 -0.11304748065E+03  0.17987927610E+03  0.12509000000E+03 0.  0.
         25    1    4    4    0    0  0.57273634575E+02 -0.21392577280E+02  0.27049759523E+02  0.14183479534E+03  0.12509000000E+03 0.  0.
         25    1    4    4    0    0 -0.65672550273E+01 -0.15460863024E+02 -0.25891971341E+02  0.12884125661E+03  0.12509000000E+03 0.  0.
<mgrwt>
<rscale>  2 0.43644106E+03</rscale>
<asrwt>0</asrwt>
<pdfrwt beam="1">  1       21 0.24901885E-01 0.43644106E+03</pdfrwt>
<pdfrwt beam="2">  1       21 0.41356251E-01 0.43644106E+03</pdfrwt>
<totfact> 0.80062244E+04</totfact>
</mgrwt>
</event>
<event>
 7    0  0.4725730E-002  0.4606310E+03  0.7546771E-02  0.1024598E+00
         21   -1    0    0  502  501  0.00000000000E+00  0.00000000000E+00  0.15105302426E+04  0.15105302426E+04  0.00000000000E+00 0.  1.
         21   -1    0    0  501  502 -0.00000000000E+00 -0.00000000000E+00 -0.35116953015E+02  0.35116953015E+02  0.00000000000E+00 0.  1.
      99926    2    1    2    0    0  0.00000000000E+00  0.00000000000E+00  0.14754132896E+04  0.15456471956E+04  0.46063095666E+03 0.  0.
      99925    2    3    3    0    0 -0.70371868468E+02  0.12534626064E+02  0.60694853064E+03  0.66531324628E+03  0.26295604216E+03 0.  0.
         25    1    4    4    0    0 -0.36823978272E+01  0.30952079693E+02  0.31054450516E+03  0.33623948173E+03  0.12509000000E+03 0.  0.
         25    1    4    4    0    0 -0.66689470641E+02 -0.18417453629E+02  0.29640402547E+03  0.32907376454E+03  0.12509000000E+03 0.  0.
         25    1    3    3    0    0  0.70371868468E+02 -0.12534626064E+02  0.86846475896E+03  0.88033394935E+03  0.12509000000E+03 0.  0.
<mgrwt>
<rscale>  2 0.46063096E+03</rscale>
<asrwt>0</asrwt>
<pdfrwt beam="1">  1       21 0.22213676E+00 0.46063096E+03</pdfrwt>
<pdfrwt beam="2">  1       21 0.51642588E-02 0.46063096E+03</pdfrwt>
<totfact> 0.21716898E+04</totfact>
</mgrwt>
</event>
<event>
 6    0  0.4725730E-002  0.4607180E+03  0.7546771E-02  0.1024573E+00
         21   -1    0    0  502  501  0.00000000000E+00  0.00000000000E+00  0.10749353399E+03  0.10749353399E+03  0.00000000000E+00 0.  1.
         21   -1    0    0  501  502 -0.00000000000E+00 -0.00000000000E+00 -0.49366000122E+03  0.49366000122E+03  0.00000000000E+00 0.  1.
      99926    2    1    2    0    0  0.71054273576E-14 -0.17763568394E-14 -0.38616646723E+03  0.60115353520E+03  0.46071795328E+03 0.  0.
         25    1    3    3    0    0  0.74570379414E-01 -0.28237154436E+02 -0.71163002983E+02  0.14665954979E+03  0.12509000000E+03 0.  0.
         25    1    3    3    0    0 -0.34999243171E+02 -0.10008451839E+02 -0.28847842395E+03  0.31653187093E+03  0.12509000000E+03 0.  0.
         25    1    3    3    0    0  0.34924672791E+02  0.38245606275E+02 -0.26525040298E+02  0.13796211448E+03  0.12509000000E+03 0.  0.
<mgrwt>
<rscale>  2 0.46071795E+03</rscale>
<asrwt>0</asrwt>
<pdfrwt beam="1">  1       21 0.15807873E-01 0.46071795E+03</pdfrwt>
<pdfrwt beam="2">  1       21 0.72597057E-01 0.46071795E+03</pdfrwt>
<totfact> 0.56032601E+04</totfact>
</mgrwt>
</event>
<event>
 7    0  0.4725730E-002  0.4506206E+03  0.7546771E-02  0.1027537E+00
         21   -1    0    0  502  501  0.00000000000E+00  0.00000000000E+00  0.32462787780E+03  0.32462787780E+03  0.00000000000E+00 0. -1.
         21   -1    0    0  501  502 -0.00000000000E+00 -0.00000000000E+00 -0.15637824507E+03  0.15637824507E+03  0.00000000000E+00 0. -1.
      99926    2    1    2    0    0 -0.14210854715E-13  0.00000000000E+00  0.16824963273E+03  0.48100612287E+03  0.45062062905E+03 0.  0.
      99925    2    3    3    0    0  0.93580860096E+02 -0.53768266594E+02  0.12218827428E+03  0.30949064045E+03  0.26307048159E+03 0.  0.
         25    1    4    4    0    0  0.78818373798E+02 -0.54414328836E+02  0.56024403430E+02  0.16721093598E+03  0.12509000000E+03 0.  0.
         25    1    4    4    0    0  0.14762486298E+02  0.64606224190E+00  0.66163870851E+02  0.14227970447E+03  0.12509000000E+03 0.  0.
         25    1    3    3    0    0 -0.93580860096E+02  0.53768266594E+02  0.46061358449E+02  0.17151548242E+03  0.12509000000E+03 0.  0.
<mgrwt>
<rscale>  2 0.45062063E+03</rscale>
<asrwt>0</asrwt>
<pdfrwt beam="1">  1       21 0.47739394E-01 0.45062063E+03</pdfrwt>
<pdfrwt beam="2">  1       21 0.22996801E-01 0.45062063E+03</pdfrwt>
<totfact> 0.68994449E+04</totfact>
</mgrwt>
</event>
<event>
 7    0  0.4725730E-002  0.4296751E+03  0.7546771E-02  0.1033963E+00
         21   -1    0    0  502  501  0.00000000000E+00  0.00000000000E+00  0.18930022184E+03  0.18930022184E+03  0.00000000000E+00 0.  1.
         21   -1    0    0  501  502 -0.00000000000E+00 -0.00000000000E+00 -0.24381991727E+03  0.24381991727E+03  0.00000000000E+00 0.  1.
      99926    2    1    2    0    0 -0.19984014443E-14  0.00000000000E+00 -0.54519695427E+02  0.43312013911E+03  0.42967506061E+03 0.  0.
      99925    2    3    3    0    0  0.14308866913E+01 -0.53601161899E+02 -0.10419966484E+03  0.28823832709E+03  0.26334128248E+03 0.  0.
         25    1    3    3    0    0 -0.14308866913E+01  0.53601161899E+02  0.49679969413E+02  0.14488181202E+03  0.12509000000E+03 0.  0.
         25    1    4    4    0    0  0.20524400397E+02  0.84923343341E+00 -0.24576331206E+02  0.12912581603E+03  0.12509000000E+03 0.  0.
         25    1    4    4    0    0 -0.19093513706E+02 -0.54450395333E+02 -0.79623333634E+02  0.15911251106E+03  0.12509000000E+03 0.  0.
<mgrwt>
<rscale>  2 0.42967506E+03</rscale>
<asrwt>0</asrwt>
<pdfrwt beam="1">  1       21 0.27838268E-01 0.42967506E+03</pdfrwt>
<pdfrwt beam="2">  1       21 0.35855870E-01 0.42967506E+03</pdfrwt>
<totfact> 0.86351384E+04</totfact>
</mgrwt>
</event>
<event>
 7    0  0.4725730E-002  0.4278753E+03  0.7546771E-02  0.1034533E+00
         21   -1    0    0  502  501  0.00000000000E+00  0.00000000000E+00  0.24083493779E+03  0.24083493779E+03  0.00000000000E+00 0. -1.
         21   -1    0    0  501  502 -0.00000000000E+00 -0.00000000000E+00 -0.19004435163E+03  0.19004435163E+03  0.00000000000E+00 0. -1.
      99926    2    1    2    0    0  0.00000000000E+00  0.00000000000E+00  0.50790586156E+02  0.43087928942E+03  0.42787530709E+03 0.  0.
      99925    2    3    3    0    0 -0.74737577382E+02 -0.39075181794E+02  0.19077175801E+02  0.27671760871E+03  0.26286141030E+03 0.  0.
         25    1    4    4    0    0 -0.67327346902E+02 -0.42231296929E+02  0.28864117486E+02  0.15098708375E+03  0.12509000000E+03 0.  0.
         25    1    3    3    0    0  0.74737577382E+02  0.39075181794E+02  0.31713410355E+02  0.15416168072E+03  0.12509000000E+03 0.  0.
         25    1    4    4    0    0 -0.74102304794E+01  0.31561151350E+01 -0.97869416855E+01  0.12573052496E+03  0.12509000000E+03 0.  0.
<mgrwt>
<rscale>  2 0.42787531E+03</rscale>
<asrwt>0</asrwt>
<pdfrwt beam="1">  1       21 0.35416903E-01 0.42787531E+03</pdfrwt>
<pdfrwt beam="2">  1       21 0.27947699E-01 0.42787531E+03</pdfrwt>
<totfact> 0.87884077E+04</totfact>
</mgrwt>
</event>
<event>
 7    0  0.4725730E-002  0.4588848E+03  0.7546771E-02  0.1025105E+00
         21   -1    0    0  502  501  0.00000000000E+00  0.00000000000E+00  0.56400855701E+03  0.56400855701E+03  0.00000000000E+00 0. -1.
         21   -1    0    0  501  502 -0.00000000000E+00 -0.00000000000E+00 -0.93338661398E+02  0.93338661398E+02  0.00000000000E+00 0. -1.
      99926    2    1    2    0    0  0.00000000000E+00  0.71054273576E-14  0.47066989561E+03  0.65734721841E+03  0.45888475123E+03 0.  0.
      99925    2    3    3    0    0  0.46633243201E+02 -0.49868965948E+02  0.43097989904E+03  0.50941352697E+03  0.26286288240E+03 0.  0.
         25    1    3    3    0    0 -0.46633243201E+02  0.49868965948E+02  0.39689996573E+02  0.14793369144E+03  0.12509000000E+03 0.  0.
         25    1    4    4    0    0 -0.15592073403E+02 -0.16549906057E+02  0.18276284454E+03  0.22263597551E+03  0.12509000000E+03 0.  0.
         25    1    4    4    0    0  0.62225316604E+02 -0.33319059891E+02  0.24821705450E+03  0.28677755146E+03  0.12509000000E+03 0.  0.
<mgrwt>
<rscale>  2 0.45888475E+03</rscale>
<asrwt>0</asrwt>
<pdfrwt beam="1">  1       21 0.82942434E-01 0.45888475E+03</pdfrwt>
<pdfrwt beam="2">  1       21 0.13726274E-01 0.45888475E+03</pdfrwt>
<totfact> 0.53618335E+04</totfact>
</mgrwt>
</event>
<event>
 7    0  0.4725730E-002  0.4482433E+03  0.7546771E-02  0.1028247E+00
         21   -1    0    0  502  501  0.00000000000E+00  0.00000000000E+00  0.39457346271E+03  0.39457346271E+03  0.00000000000E+00 0.  1.
         21   -1    0    0  501  502 -0.00000000000E+00 -0.00000000000E+00 -0.12730334446E+03  0.12730334446E+03  0.00000000000E+00 0.  1.
      99926    2    1    2    0    0  0.14210854715E-13  0.35527136788E-14  0.26727011824E+03  0.52187680717E+03  0.44824333320E+03 0.  0.
      99925    2    3    3    0    0 -0.66114509383E+02 -0.30613916473E+02  0.78320092411E+02  0.28384748000E+03  0.26292016810E+03 0.  0.
         25    1    4    4    0    0 -0.42882155739E+02 -0.11244846918E+02  0.80340086763E+02  0.15513659628E+03  0.12509000000E+03 0.  0.
         25    1    3    3    0    0  0.66114509383E+02  0.30613916473E+02  0.18895002583E+03  0.23802932717E+03  0.12509000000E+03 0.  0.
         25    1    4    4    0    0 -0.23232353644E+02 -0.19369069555E+02 -0.20199943527E+01  0.12871088372E+03  0.12509000000E+03 0.  0.
<mgrwt>
<rscale>  2 0.44824333E+03</rscale>
<asrwt>0</asrwt>
<pdfrwt beam="1">  1       21 0.58025509E-01 0.44824333E+03</pdfrwt>
<pdfrwt beam="2">  1       21 0.18721080E-01 0.44824333E+03</pdfrwt>
<totfact> 0.67292288E+04</totfact>
</mgrwt>
</event>
<event>
 7    0  0.4725730E-002  0.4520183E+03  0.7546771E-02  0.1027122E+00
         21   -1    0    0  502  501  0.00000000000E+00  0.00000000000E+00  0.69968998950E+03  0.69968998950E+03  0.00000000000E+00 0. -1.
         21   -1    0    0  501  502 -0.00000000000E+00 -0.00000000000E+00 -0.73003939358E+02  0.73003939358E+02  0.00000000000E+00 0. -1.
      99926    2    1    2    0    0  0.00000000000E+00  0.00000000000E+00  0.62668605014E+03  0.77269392885E+03  0.45201825433E+03 0.  0.
      99925    2    3    3    0    0 -0.61731200956E+02  0.89722016531E+02  0.36401129042E+03  0.46203926703E+03  0.26289785716E+03 0.  0.
         25    1    4    4    0    0 -0.88959221725E+01  0.16752307676E+02  0.12669174883E+03  0.17904771589E+03  0.12509000000E+03 0.  0.
         25    1    4    4    0    0 -0.52835278784E+02  0.72969708855E+02  0.23731954159E+03  0.28299155114E+03  0.12509000000E+03 0.  0.
         25    1    3    3    0    0  0.61731200956E+02 -0.89722016531E+02  0.26267475972E+03  0.31065466183E+03  0.12509000000E+03 0.  0.
<mgrwt>
<rscale>  2 0.45201825E+03</rscale>
<asrwt>0</asrwt>
<pdfrwt beam="1">  1       21 0.10289558E+00 0.45201825E+03</pdfrwt>
<pdfrwt beam="2">  1       21 0.10735874E-01 0.45201825E+03</pdfrwt>
<totfact> 0.50280520E+04</totfact>
</mgrwt>
</event>
<event>
 7    0  0.4725730E-002  0.4560384E+03  0.7546771E-02  0.1025936E+00
         21   -1    0    0  502  501  0.00000000000E+00  0.00000000000E+00  0.50388526437E+03  0.50388526437E+03  0.00000000000E+00 0. -1.
         21   -1    0    0  501  502 -0.00000000000E+00 -0.00000000000E+00 -0.10318370392E+03  0.10318370392E+03  0.00000000000E+00 0. -1.
      99926    2    1    2    0    0  0.14210854715E-13  0.00000000000E+00  0.40070156046E+03  0.60706896829E+03  0.45603836649E+03 0.  0.
      99925    2    3    3    0    0 -0.66501678331E+02 -0.90657365359E+02  0.27895295422E+03  0.39943596914E+03  0.26285568600E+03 0.  0.
         25    1    4    4    0    0 -0.56127162693E+02 -0.39878141317E+02  0.96947118317E+02  0.17258845963E+03  0.12509000000E+03 0.  0.
         25    1    4    4    0    0 -0.10374515637E+02 -0.50779224042E+02  0.18200583591E+03  0.22684750951E+03  0.12509000000E+03 0.  0.
         25    1    3    3    0    0  0.66501678331E+02  0.90657365359E+02  0.12174860624E+03  0.20763299915E+03  0.12509000000E+03 0.  0.
<mgrwt>
<rscale>  2 0.45603837E+03</rscale>
<asrwt>0</asrwt>
<pdfrwt beam="1">  1       21 0.74100773E-01 0.45603837E+03</pdfrwt>
<pdfrwt beam="2">  1       21 0.15174074E-01 0.45603837E+03</pdfrwt>
<totfact> 0.57769920E+04</totfact>
</mgrwt>
</event>
<event>
 7    0  0.4725730E-002  0.4579346E+03  0.7546771E-02  0.1025382E+00
         21   -1    0    0  502  501  0.00000000000E+00  0.00000000000E+00  0.65972715799E+02  0.65972715799E+02  0.00000000000E+00 0.  1.
         21   -1    0    0  501  502 -0.00000000000E+00 -0.00000000000E+00 -0.79466211101E+03  0.79466211101E+03  0.00000000000E+00 0.  1.
      99926    2    1    2    0    0 -0.71054273576E-14 -0.35527136788E-14 -0.72868939521E+03  0.86063482681E+03  0.45793457002E+03 0.  0.
      99925    2    3    3    0    0  0.41022585909E+02 -0.31803169154E+02 -0.65208226850E+03  0.70503773787E+03  0.26300690638E+03 0.  0.
         25    1    4    4    0    0  0.51469260652E+02 -0.78344496637E+01 -0.26888716017E+03  0.30109512849E+03  0.12509000000E+03 0.  0.
         25    1    3    3    0    0 -0.41022585909E+02  0.31803169154E+02 -0.76607126707E+02  0.15559708894E+03  0.12509000000E+03 0.  0.
         25    1    4    4    0    0 -0.10446674743E+02 -0.23968719490E+02 -0.38319510833E+03  0.40394260939E+03  0.12509000000E+03 0.  0.
<mgrwt>
<rscale>  2 0.45793457E+03</rscale>
<asrwt>0</asrwt>
<pdfrwt beam="1">  1       21 0.97018697E-02 0.45793457E+03</pdfrwt>
<pdfrwt beam="2">  1       21 0.11686208E+00 0.45793457E+03</pdfrwt>
<totfact> 0.43946978E+04</totfact>
</mgrwt>
</event>
<event>
 7    0  0.4725730E-002  0.4607150E+03  0.7546771E-02  0.1024574E+00
         21   -1    0    0  502  501  0.00000000000E+00  0.00000000000E+00  0.11292820801E+04  0.11292820801E+04  0.00000000000E+00 0.  1.
         21   -1    0    0  501  502 -0.00000000000E+00 -0.00000000000E+00 -0.46989661385E+02  0.46989661385E+02  0.00000000000E+00 0.  1.
      99926    2    1    2    0    0  0.00000000000E+00 -0.44408920985E-15  0.10822924187E+04  0.11762717415E+04  0.46071502060E+03 0.  0.
      99925    2    3    3    0    0 -0.36643994436E+02 -0.29109898271E+01  0.39043302138E+03  0.47223467572E+03  0.26309007693E+03 0.  0.
         25    1    4    4    0    0  0.55343338654E+01 -0.19781628976E+02  0.23971996904E+03  0.27117358528E+03  0.12509000000E+03 0.  0.
         25    1    3    3    0    0  0.36643994436E+02  0.29109898271E+01  0.69185939734E+03  0.70403706577E+03  0.12509000000E+03 0.  0.
         25    1    4    4    0    0 -0.42178328302E+02  0.16870639149E+02  0.15071305234E+03  0.20106109044E+03  0.12509000000E+03 0.  0.
<mgrwt>
<rscale>  2 0.46071502E+03</rscale>
<asrwt>0</asrwt>
<pdfrwt beam="1">  1       21 0.16607088E+00 0.46071502E+03</pdfrwt>
<pdfrwt beam="2">  1       21 0.69102451E-02 0.46071502E+03</pdfrwt>
<totfact> 0.31491367E+04</totfact>
</mgrwt>
</event>
<event>
 7    0  0.4725730E-002  0.4522895E+03  0.7546771E-02  0.1027041E+00
         21   -1    0    0  502  501  0.00000000000E+00  0.00000000000E+00  0.11113082252E+03  0.11113082252E+03  0.00000000000E+00 0. -1.
         21   -1    0    0  501  502 -0.00000000000E+00 -0.00000000000E+00 -0.46019129520E+03  0.46019129520E+03  0.00000000000E+00 0. -1.
      99926    2    1    2    0    0  0.00000000000E+00 -0.26645352591E-14 -0.34906047268E+03  0.57132211772E+03  0.45228945224E+03 0.  0.
      99925    2    3    3    0    0 -0.99973510904E+01  0.45424616192E+01 -0.81310964574E+02  0.27558931910E+03  0.26309203496E+03 0.  0.
         25    1    4    4    0    0 -0.83330419935E+00  0.41631072884E+02 -0.50776553830E+02  0.14127847375E+03  0.12509000000E+03 0.  0.
         25    1    3    3    0    0  0.99973510904E+01 -0.45424616192E+01 -0.26774950811E+03  0.29573279862E+03  0.12509000000E+03 0.  0.
         25    1    4    4    0    0 -0.91640468910E+01 -0.37088611265E+02 -0.30534410744E+02  0.13431084536E+03  0.12509000000E+03 0.  0.
<mgrwt>
<rscale>  2 0.45228945E+03</rscale>
<asrwt>0</asrwt>
<pdfrwt beam="1">  1       21 0.16342768E-01 0.45228945E+03</pdfrwt>
<pdfrwt beam="2">  1       21 0.67675191E-01 0.45228945E+03</pdfrwt>
<totfact> 0.61792963E+04</totfact>
</mgrwt>
</event>
<event>
 7    0  0.4725730E-002  0.4545443E+03  0.7546771E-02  0.1026375E+00
         21   -1    0    0  502  501  0.00000000000E+00  0.00000000000E+00  0.87913420486E+02  0.87913420486E+02  0.00000000000E+00 0. -1.
         21   -1    0    0  501  502 -0.00000000000E+00 -0.00000000000E+00 -0.58753988893E+03  0.58753988893E+03  0.00000000000E+00 0. -1.
      99926    2    1    2    0    0  0.00000000000E+00  0.00000000000E+00 -0.49962646845E+03  0.67545330942E+03  0.45454434903E+03 0.  0.
      99925    2    3    3    0    0 -0.33706311944E+02  0.97225671936E+01 -0.47412147261E+03  0.54305747606E+03  0.26246829853E+03 0.  0.
         25    1    3    3    0    0  0.33706311944E+02 -0.97225671936E+01 -0.25504995831E+02  0.13239583336E+03  0.12509000000E+03 0.  0.
         25    1    4    4    0    0 -0.56334022678E+02  0.11347117483E+02 -0.24373788111E+03  0.27992488631E+03  0.12509000000E+03 0.  0.
         25    1    4    4    0    0  0.22627710735E+02 -0.16245502895E+01 -0.23038359150E+03  0.26313258975E+03  0.12509000000E+03 0.  0.
<mgrwt>
<rscale>  2 0.45454435E+03</rscale>
<asrwt>0</asrwt>
<pdfrwt beam="1">  1       21 0.12928444E-01 0.45454435E+03</pdfrwt>
<pdfrwt beam="2">  1       21 0.86402925E-01 0.45454435E+03</pdfrwt>
<totfact> 0.54451779E+04</totfact>
</mgrwt>
</event>
<event>
 7    0  0.4725730E-002  0.4560771E+03  0.7546771E-02  0.1025925E+00
         21   -1    0    0  502  501  0.00000000000E+00  0.00000000000E+00  0.56021818015E+03  0.56021818015E+03  0.00000000000E+00 0.  1.
         21   -1    0    0  501  502 -0.00000000000E+00 -0.00000000000E+00 -0.92823820230E+02  0.92823820230E+02  0.00000000000E+00 0.  1.
      99926    2    1    2    0    0  0.00000000000E+00  0.00000000000E+00  0.46739435992E+03  0.65304200038E+03  0.45607714981E+03 0.  0.
      99925    2    3    3    0    0 -0.45776180601E+02  0.68283719005E+02  0.40686436902E+03  0.49158143897E+03  0.26335445957E+03 0.  0.
         25    1    3    3    0    0  0.45776180601E+02 -0.68283719005E+02  0.60529990908E+02  0.16146056141E+03  0.12509000000E+03 0.  0.
         25    1    4    4    0    0 -0.17307936775E+02  0.61710159946E+02  0.26661398886E+03  0.30139382156E+03  0.12509000000E+03 0.  0.
         25    1    4    4    0    0 -0.28468243827E+02  0.65735590588E+01  0.14025038015E+03  0.19018761742E+03  0.12509000000E+03 0.  0.
<mgrwt>
<rscale>  2 0.45607715E+03</rscale>
<asrwt>0</asrwt>
<pdfrwt beam="1">  1       21 0.82385025E-01 0.45607715E+03</pdfrwt>
<pdfrwt beam="2">  1       21 0.13650562E-01 0.45607715E+03</pdfrwt>
<totfact> 0.55057279E+04</totfact>
</mgrwt>
</event>
<event>
 7    0  0.4725730E-002  0.4533038E+03  0.7546771E-02  0.1026741E+00
         21   -1    0    0  502  501  0.00000000000E+00  0.00000000000E+00  0.14967004412E+03  0.14967004412E+03  0.00000000000E+00 0.  1.
         21   -1    0    0  501  502 -0.00000000000E+00 -0.00000000000E+00 -0.34322886126E+03  0.34322886126E+03  0.00000000000E+00 0.  1.
      99926    2    1    2    0    0 -0.35527136788E-14  0.00000000000E+00 -0.19355881714E+03  0.49289890538E+03  0.45330377809E+03 0.  0.
      99925    2    3    3    0    0 -0.12645595161E+02 -0.11055374580E+03 -0.11389748445E+03  0.30749265464E+03  0.26305332902E+03 0.  0.
         25    1    4    4    0    0 -0.41340111613E+02 -0.74837658729E+02 -0.72676672831E+02  0.16804489539E+03  0.12509000000E+03 0.  0.
         25    1    4    4    0    0  0.28694516453E+02 -0.35716087068E+02 -0.41220811617E+02  0.13944775925E+03  0.12509000000E+03 0.  0.
         25    1    3    3    0    0  0.12645595161E+02  0.11055374580E+03 -0.79661332690E+02  0.18540625074E+03  0.12509000000E+03 0.  0.
<mgrwt>
<rscale>  2 0.45330378E+03</rscale>
<asrwt>0</asrwt>
<pdfrwt beam="1">  1       21 0.22010301E-01 0.45330378E+03</pdfrwt>
<pdfrwt beam="2">  1       21 0.50474831E-01 0.45330378E+03</pdfrwt>
<totfact> 0.66665648E+04</totfact>
</mgrwt>
</event>
<event>
 7    0  0.4725730E-002  0.4245003E+03  0.7546771E-02  0.1035612E+00
         21   -1    0    0  502  501  0.00000000000E+00  0.00000000000E+00  0.22325389180E+03  0.22325389180E+03  0.00000000000E+00 0. -1.
         21   -1    0    0  501  502 -0.00000000000E+00 -0.00000000000E+00 -0.20178875884E+03  0.20178875884E+03  0.00000000000E+00 0. -1.
      99926    2    1    2    0    0  0.00000000000E+00 -0.35527136788E-14  0.21465132961E+02  0.42504265064E+03  0.42450029792E+03 0.  0.
      99925    2    3    3    0    0 -0.77065994066E+02 -0.17125612014E+02  0.33652697347E+02  0.27662264238E+03  0.26297362645E+03 0.  0.
         25    1    3    3    0    0  0.77065994066E+02  0.17125612014E+02 -0.12187564386E+02  0.14842000827E+03  0.12509000000E+03 0.  0.
         25    1    4    4    0    0 -0.70424027763E+02  0.17468294442E+02  0.18286454269E+02  0.14576209215E+03  0.12509000000E+03 0.  0.
         25    1    4    4    0    0 -0.66419663036E+01 -0.34593906456E+02  0.15366243078E+02  0.13086055023E+03  0.12509000000E+03 0.  0.
<mgrwt>
<rscale>  2 0.42450030E+03</rscale>
<asrwt>0</asrwt>
<pdfrwt beam="1">  1       21 0.32831455E-01 0.42450030E+03</pdfrwt>
<pdfrwt beam="2">  1       21 0.29674817E-01 0.42450030E+03</pdfrwt>
<totfact> 0.91010429E+04</totfact>
</mgrwt>
</event>
<event>
 7    0  0.4725730E-002  0.4850157E+03  0.7546771E-02  0.1017766E+00
         21   -1    0    0  502  501  0.00000000000E+00  0.00000000000E+00  0.51768248074E+03  0.51768248074E+03  0.00000000000E+00 0. -1.
         21   -1    0    0  501  502 -0.00000000000E+00 -0.00000000000E+00 -0.11360254855E+03  0.11360254855E+03  0.00000000000E+00 0. -1.
      99926    2    1    2    0    0  0.00000000000E+00  0.00000000000E+00  0.40407993219E+03  0.63128502929E+03  0.48501566635E+03 0.  0.
      99925    2    3    3    0    0 -0.14626637497E+02  0.64315956857E+02  0.88002069330E+02  0.28501460849E+03  0.26294197462E+03 0.  0.
         25    1    4    4    0    0  0.25403525417E+01 -0.49068137431E+01  0.24244773337E+02  0.12753763110E+03  0.12509000000E+03 0.  0.
         25    1    4    4    0    0 -0.17166990039E+02  0.69222770600E+02  0.63757295992E+02  0.15747697739E+03  0.12509000000E+03 0.  0.
         25    1    3    3    0    0  0.14626637497E+02 -0.64315956857E+02  0.31607786286E+03  0.34627042080E+03  0.12509000000E+03 0.  0.
<mgrwt>
<rscale>  2 0.48501567E+03</rscale>
<asrwt>0</asrwt>
<pdfrwt beam="1">  1       21 0.76129776E-01 0.48501567E+03</pdfrwt>
<pdfrwt beam="2">  1       21 0.16706257E-01 0.48501567E+03</pdfrwt>
<totfact> 0.45112657E+04</totfact>
</mgrwt>
</event>
<event>
 7    0  0.4725730E-002  0.4326847E+03  0.7546771E-02  0.1033015E+00
         21   -1    0    0  502  501  0.00000000000E+00  0.00000000000E+00  0.11713692927E+03  0.11713692927E+03  0.00000000000E+00 0.  1.
         21   -1    0    0  501  502 -0.00000000000E+00 -0.00000000000E+00 -0.39956671936E+03  0.39956671936E+03  0.00000000000E+00 0.  1.
      99926    2    1    2    0    0  0.00000000000E+00  0.00000000000E+00 -0.28242979009E+03  0.51670364863E+03  0.43268472839E+03 0.  0.
      99925    2    3    3    0    0  0.44360742761E+02  0.78954128086E+02 -0.17748881617E+03  0.32999064440E+03  0.26303976066E+03 0.  0.
         25    1    3    3    0    0 -0.44360742761E+02 -0.78954128086E+02 -0.10494097392E+03  0.18671300423E+03  0.12509000000E+03 0.  0.
         25    1    4    4    0    0  0.53735267133E+01  0.53183772606E+02 -0.13028230582E+03  0.18835704332E+03  0.12509000000E+03 0.  0.
         25    1    4    4    0    0  0.38987216048E+02  0.25770355480E+02 -0.47206510343E+02  0.14163360108E+03  0.12509000000E+03 0.  0.
<mgrwt>
<rscale>  2 0.43268473E+03</rscale>
<asrwt>0</asrwt>
<pdfrwt beam="1">  1       21 0.17226019E-01 0.43268473E+03</pdfrwt>
<pdfrwt beam="2">  1       21 0.58759811E-01 0.43268473E+03</pdfrwt>
<totfact> 0.76823178E+04</totfact>
</mgrwt>
</event>
<event>
 7    0  0.4725730E-002  0.4577682E+03  0.7546771E-02  0.1025430E+00
         21   -1    0    0  502  501  0.00000000000E+00  0.00000000000E+00  0.61768186749E+02  0.61768186749E+02  0.00000000000E+00 0. -1.
         21   -1    0    0  501  502 -0.00000000000E+00 -0.00000000000E+00 -0.84813776248E+03  0.84813776248E+03  0.00000000000E+00 0. -1.
      99926    2    1    2    0    0  0.00000000000E+00  0.00000000000E+00 -0.78636957573E+03  0.90990594923E+03  0.45776820205E+03 0.  0.
      99925    2    3    3    0    0  0.74642446266E+02  0.54461468760E+02 -0.63169367760E+03  0.69056674177E+03  0.26326408065E+03 0.  0.
         25    1    4    4    0    0  0.14276986203E+02  0.32059865868E+01 -0.22629975674E+03  0.25898493911E+03  0.12509000000E+03 0.  0.
         25    1    4    4    0    0  0.60365460063E+02  0.51255482173E+02 -0.40539392086E+03  0.43158180266E+03  0.12509000000E+03 0.  0.
         25    1    3    3    0    0 -0.74642446266E+02 -0.54461468760E+02 -0.15467589813E+03  0.21933920746E+03  0.12509000000E+03 0.  0.
<mgrwt>
<rscale>  2 0.45776820E+03</rscale>
<asrwt>0</asrwt>
<pdfrwt beam="1">  1       21 0.90835582E-02 0.45776820E+03</pdfrwt>
<pdfrwt beam="2">  1       21 0.12472612E+00 0.45776820E+03</pdfrwt>
<totfact> 0.41892962E+04</totfact>
</mgrwt>
</event>
<event>
 7    0  0.4725730E-002  0.4528303E+03  0.7546771E-02  0.1026881E+00
         21   -1    0    0  502  501  0.00000000000E+00  0.00000000000E+00  0.12049857051E+03  0.12049857051E+03  0.00000000000E+00 0.  1.
         21   -1    0    0  501  502 -0.00000000000E+00 -0.00000000000E+00 -0.42543099925E+03  0.42543099925E+03  0.00000000000E+00 0.  1.
      99926    2    1    2    0    0  0.00000000000E+00  0.00000000000E+00 -0.30493242873E+03  0.54592956976E+03  0.45283033141E+03 0.  0.
      99925    2    3    3    0    0  0.37336994086E+02 -0.10414570263E+03 -0.17812430875E+03  0.33624364773E+03  0.26285194077E+03 0.  0.
         25    1    4    4    0    0 -0.25464227791E+01 -0.82612705173E+02 -0.11514122058E+03  0.18904060966E+03  0.12509000000E+03 0.  0.
         25    1    3    3    0    0 -0.37336994086E+02  0.10414570263E+03 -0.12680811998E+03  0.20968592203E+03  0.12509000000E+03 0.  0.
         25    1    4    4    0    0  0.39883416865E+02 -0.21532997456E+02 -0.62983088174E+02  0.14720303807E+03  0.12509000000E+03 0.  0.
<mgrwt>
<rscale>  2 0.45283033E+03</rscale>
<asrwt>0</asrwt>
<pdfrwt beam="1">  1       21 0.17720378E-01 0.45283033E+03</pdfrwt>
<pdfrwt beam="2">  1       21 0.62563382E-01 0.45283033E+03</pdfrwt>
<totfact> 0.63214586E+04</totfact>
</mgrwt>
</event>
<event>
 7    0  0.4725730E-002  0.4439466E+03  0.7546771E-02  0.1029543E+00
         21   -1    0    0  502  501  0.00000000000E+00  0.00000000000E+00  0.52273638494E+02  0.52273638494E+02  0.00000000000E+00 0. -1.
         21   -1    0    0  501  502 -0.00000000000E+00 -0.00000000000E+00 -0.94258100705E+03  0.94258100705E+03  0.00000000000E+00 0. -1.
      99926    2    1    2    0    0  0.00000000000E+00  0.00000000000E+00 -0.89030736856E+03  0.99485464555E+03  0.44394656802E+03 0.  0.
      99925    2    3    3    0    0 -0.56531693834E+02  0.58100333009E+02 -0.70440812355E+03  0.75657430960E+03  0.26389846594E+03 0.  0.
         25    1    3    3    0    0  0.56531693834E+02 -0.58100333009E+02 -0.18589924501E+03  0.23828033595E+03  0.12509000000E+03 0.  0.
         25    1    4    4    0    0 -0.53438068939E+02  0.39422048513E+02 -0.28104196581E+03  0.31470910341E+03  0.12509000000E+03 0.  0.
         25    1    4    4    0    0 -0.30936248949E+01  0.18678284496E+02 -0.42336615774E+03  0.44186520619E+03  0.12509000000E+03 0.  0.
<mgrwt>
<rscale>  2 0.44394657E+03</rscale>
<asrwt>0</asrwt>
<pdfrwt beam="1">  1       21 0.76873004E-02 0.44394657E+03</pdfrwt>
<pdfrwt beam="2">  1       21 0.13861484E+00 0.44394657E+03</pdfrwt>
<totfact> 0.42957964E+04</totfact>
</mgrwt>
</event>
<event>
 7    0  0.4725730E-002  0.4562172E+03  0.7546771E-02  0.1025884E+00
         21   -1    0    0  502  501  0.00000000000E+00  0.00000000000E+00  0.46895823839E+03  0.46895823839E+03  0.00000000000E+00 0.  1.
         21   -1    0    0  501  502 -0.00000000000E+00 -0.00000000000E+00 -0.11095560312E+03  0.11095560312E+03  0.00000000000E+00 0.  1.
      99926    2    1    2    0    0  0.14210854715E-13 -0.71054273576E-14  0.35800263527E+03  0.57991384151E+03  0.45621724728E+03 0.  0.
      99925    2    3    3    0    0  0.90476781508E+02 -0.36861315126E+02  0.30045689848E+03  0.41108308464E+03  0.26300218647E+03 0.  0.
         25    1    3    3    0    0 -0.90476781508E+02  0.36861315126E+02  0.57545736789E+02  0.16883075688E+03  0.12509000000E+03 0.  0.
         25    1    4    4    0    0  0.16047820065E+02 -0.13751086901E+02  0.96231469635E+02  0.15923136867E+03  0.12509000000E+03 0.  0.
         25    1    4    4    0    0  0.74428961443E+02 -0.23110228225E+02  0.20422542884E+03  0.25185171597E+03  0.12509000000E+03 0.  0.
<mgrwt>
<rscale>  2 0.45621725E+03</rscale>
<asrwt>0</asrwt>
<pdfrwt beam="1">  1       21 0.68964446E-01 0.45621725E+03</pdfrwt>
<pdfrwt beam="2">  1       21 0.16317001E-01 0.45621725E+03</pdfrwt>
<totfact> 0.59358685E+04</totfact>
</mgrwt>
</event>
<event>
 6    0  0.4725730E-002  0.4558316E+03  0.7546771E-02  0.1025997E+00
         21   -1    0    0  502  501  0.00000000000E+00  0.00000000000E+00  0.74248245390E+02  0.74248245390E+02  0.00000000000E+00 0.  1.
         21   -1    0    0  501  502 -0.00000000000E+00 -0.00000000000E+00 -0.69962075266E+03  0.69962075266E+03  0.00000000000E+00 0.  1.
      99926    2    1    2    0    0  0.00000000000E+00  0.00000000000E+00 -0.62537250727E+03  0.77386899805E+03  0.45583160629E+03 0.  0.
         25    1    3    3    0    0  0.37650536265E+02 -0.17177825003E+02 -0.12958517934E+03  0.18480386186E+03  0.12509000000E+03 0.  0.
         25    1    3    3    0    0 -0.95580926501E+02  0.49584386693E+02 -0.18741810572E+03  0.24973461787E+03  0.12509000000E+03 0.  0.
         25    1    3    3    0    0  0.57930390235E+02 -0.32406561690E+02 -0.30836922221E+03  0.33933051832E+03  0.12509000000E+03 0.  0.
<mgrwt>
<rscale>  2 0.45583161E+03</rscale>
<asrwt>0</asrwt>
<pdfrwt beam="1">  1       21 0.10918859E-01 0.45583161E+03</pdfrwt>
<pdfrwt beam="2">  1       21 0.10288541E+00 0.45583161E+03</pdfrwt>
<totfact> 0.48735788E+04</totfact>
</mgrwt>
</event>
<event>
 7    0  0.4725730E-002  0.4508479E+03  0.7546771E-02  0.1027469E+00
         21   -1    0    0  502  501  0.00000000000E+00  0.00000000000E+00  0.89316321646E+03  0.89316321646E+03  0.00000000000E+00 0. -1.
         21   -1    0    0  501  502 -0.00000000000E+00 -0.00000000000E+00 -0.56894366107E+02  0.56894366107E+02  0.00000000000E+00 0. -1.
      99926    2    1    2    0    0  0.71054273576E-14 -0.14210854715E-13  0.83626885035E+03  0.95005758257E+03  0.45084789023E+03 0.  0.
      99925    2    3    3    0    0 -0.41129527831E+02  0.73882762570E+02  0.67400937980E+03  0.72841384918E+03  0.26295967554E+03 0.  0.
         25    1    4    4    0    0 -0.14261257210E+02  0.23155693490E+02  0.42547544385E+03  0.44431568846E+03  0.12509000000E+03 0.  0.
         25    1    3    3    0    0  0.41129527831E+02 -0.73882762570E+02  0.16225947056E+03  0.22164373339E+03  0.12509000000E+03 0.  0.
         25    1    4    4    0    0 -0.26868270621E+02  0.50727069080E+02  0.24853393595E+03  0.28409816072E+03  0.12509000000E+03 0.  0.
<mgrwt>
<rscale>  2 0.45084789E+03</rscale>
<asrwt>0</asrwt>
<pdfrwt beam="1">  1       21 0.13134752E+00 0.45084789E+03</pdfrwt>
<pdfrwt beam="2">  1       21 0.83668191E-02 0.45084789E+03</pdfrwt>
<totfact> 0.42501749E+04</totfact>
</mgrwt>
</event>
<event>
 7    0  0.4725730E-002  0.4466130E+03  0.7546771E-02  0.1028737E+00
         21   -1    0    0  502  501  0.00000000000E+00  0.00000000000E+00  0.77520592682E+03  0.77520592682E+03  0.00000000000E+00 0.  1.
         21   -1    0    0  501  502 -0.00000000000E+00 -0.00000000000E+00 -0.64325872347E+02  0.64325872347E+02  0.00000000000E+00 0.  1.
      99926    2    1    2    0    0  0.00000000000E+00  0.00000000000E+00  0.71088005448E+03  0.83953179917E+03  0.44661302037E+03 0.  0.
      99925    2    3    3    0    0 -0.35786717605E+02 -0.18850692416E+02  0.26840274642E+03  0.37793704833E+03  0.26298353647E+03 0.  0.
         25    1    4    4    0    0 -0.20278866685E+02 -0.44650279013E+02  0.10849172603E+03  0.17269291406E+03  0.12509000000E+03 0.  0.
         25    1    3    3    0    0  0.35786717605E+02  0.18850692416E+02  0.44247730805E+03  0.46159475084E+03  0.12509000000E+03 0.  0.
         25    1    4    4    0    0 -0.15507850920E+02  0.25799586598E+02  0.15991102039E+03  0.20524413427E+03  0.12509000000E+03 0.  0.
<mgrwt>
<rscale>  2 0.44661302E+03</rscale>
<asrwt>0</asrwt>
<pdfrwt beam="1">  1       21 0.11400087E+00 0.44661302E+03</pdfrwt>
<pdfrwt beam="2">  1       21 0.94596875E-02 0.44661302E+03</pdfrwt>
<totfact> 0.49060673E+04</totfact>
</mgrwt>
</event>
<event>
 7    0  0.4725730E-002  0.4569427E+03  0.7546771E-02  0.1025672E+00
         21   -1    0    0  502  501  0.00000000000E+00  0.00000000000E+00  0.32623666639E+03  0.32623666639E+03  0.00000000000E+00 0.  1.
         21   -1    0    0  501  502 -0.00000000000E+00 -0.00000000000E+00 -0.16000398736E+03  0.16000398736E+03  0.00000000000E+00 0.  1.
      99926    2    1    2    0    0  0.00000000000E+00  0.00000000000E+00  0.16623267902E+03  0.48624065375E+03  0.45694274235E+03 0.  0.
      99925    2    3    3    0    0  0.88209790666E+02 -0.45725591882E+02  0.16575588352E+03  0.32649231305E+03  0.26315474656E+03 0.  0.
         25    1    4    4    0    0  0.18821118471E+02 -0.12411480490E+02  0.40329493197E+02  0.13335012362E+03  0.12509000000E+03 0.  0.
         25    1    3    3    0    0 -0.88209790666E+02  0.45725591882E+02  0.47679549931E+00  0.15974834070E+03  0.12509000000E+03 0.  0.
         25    1    4    4    0    0  0.69388672195E+02 -0.33314111392E+02  0.12542639033E+03  0.19314218943E+03  0.12509000000E+03 0.  0.
<mgrwt>
<rscale>  2 0.45694274E+03</rscale>
<asrwt>0</asrwt>
<pdfrwt beam="1">  1       21 0.47975980E-01 0.45694274E+03</pdfrwt>
<pdfrwt beam="2">  1       21 0.23529998E-01 0.45694274E+03</pdfrwt>
<totfact> 0.65236647E+04</totfact>
</mgrwt>
</event>
<event>
 7    0  0.4725730E-002  0.4535610E+03  0.7546771E-02  0.1026665E+00
         21   -1    0    0  502  501  0.00000000000E+00  0.00000000000E+00  0.70826602846E+03  0.70826602846E+03  0.00000000000E+00 0.  1.
         21   -1    0    0  501  502 -0.00000000000E+00 -0.00000000000E+00 -0.72613107803E+02  0.72613107803E+02  0.00000000000E+00 0.  1.
      99926    2    1    2    0    0 -0.14210854715E-13 -0.35527136788E-14  0.63565292065E+03  0.78087913626E+03  0.45356101013E+03 0.  0.
      99925    2    3    3    0    0 -0.88202325052E+02 -0.19703066914E+02  0.28710478541E+03  0.39969522832E+03  0.26298147605E+03 0.  0.
         25    1    3    3    0    0  0.88202325052E+02  0.19703066914E+02  0.34854813524E+03  0.38118390794E+03  0.12509000000E+03 0.  0.
         25    1    4    4    0    0 -0.31879298584E+01 -0.18483732664E+02  0.12095211331E+03  0.17501066563E+03  0.12509000000E+03 0.  0.
         25    1    4    4    0    0 -0.85014395193E+02 -0.12193342508E+01  0.16615267210E+03  0.22468456269E+03  0.12509000000E+03 0.  0.
<mgrwt>
<rscale>  2 0.45356101E+03</rscale>
<asrwt>0</asrwt>
<pdfrwt beam="1">  1       21 0.10415677E+00 0.45356101E+03</pdfrwt>
<pdfrwt beam="2">  1       21 0.10678399E-01 0.45356101E+03</pdfrwt>
<totfact> 0.49257613E+04</totfact>
</mgrwt>
</event>
<event>
 7    0  0.4725730E-002  0.4669615E+03  0.7546771E-02  0.1022781E+00
         21   -1    0    0  502  501  0.00000000000E+00  0.00000000000E+00  0.43210191082E+03  0.43210191082E+03  0.00000000000E+00 0. -1.
         21   -1    0    0  501  502 -0.00000000000E+00 -0.00000000000E+00 -0.12615832690E+03  0.12615832690E+03  0.00000000000E+00 0. -1.
      99926    2    1    2    0    0  0.44408920985E-15  0.14210854715E-13  0.30594358392E+03  0.55826023772E+03  0.46696147215E+03 0.  0.
      99925    2    3    3    0    0  0.39463545555E+01  0.11153268320E+03  0.12594691913E+03  0.31228987249E+03  0.26307266085E+03 0.  0.
         25    1    4    4    0    0 -0.18748174794E+02  0.91759554508E+02  0.80949842548E+02  0.17598776949E+03  0.12509000000E+03 0.  0.
         25    1    4    4    0    0  0.22694529350E+02  0.19773128689E+02  0.44997076578E+02  0.13630210300E+03  0.12509000000E+03 0.  0.
         25    1    3    3    0    0 -0.39463545555E+01 -0.11153268320E+03  0.17999666479E+03  0.24597036523E+03  0.12509000000E+03 0.  0.
<mgrwt>
<rscale>  2 0.46696147E+03</rscale>
<asrwt>0</asrwt>
<pdfrwt beam="1">  1       21 0.63544398E-01 0.46696147E+03</pdfrwt>
<pdfrwt beam="2">  1       21 0.18552695E-01 0.46696147E+03</pdfrwt>
<totfact> 0.55848850E+04</totfact>
</mgrwt>
</event>
<event>
 7    0  0.4725730E-002  0.4554726E+03  0.7546771E-02  0.1026103E+00
         21   -1    0    0  502  501  0.00000000000E+00  0.00000000000E+00  0.26650882807E+03  0.26650882807E+03  0.00000000000E+00 0. -1.
         21   -1    0    0  501  502 -0.00000000000E+00 -0.00000000000E+00 -0.19460452812E+03  0.19460452812E+03  0.00000000000E+00 0. -1.
      99926    2    1    2    0    0  0.14210854715E-13  0.00000000000E+00  0.71904299951E+02  0.46111335619E+03  0.45547261049E+03 0.  0.
      99925    2    3    3    0    0  0.10922946224E+03  0.30977695086E+02  0.48199422850E+02  0.29052577660E+03  0.26304248609E+03 0.  0.
         25    1    4    4    0    0  0.26936433228E+02  0.58083151730E+01  0.52990691144E+02  0.13861756529E+03  0.12509000000E+03 0.  0.
         25    1    3    3    0    0 -0.10922946224E+03 -0.30977695086E+02  0.23704877101E+02  0.17058757960E+03  0.12509000000E+03 0.  0.
         25    1    4    4    0    0  0.82293029012E+02  0.25169379913E+02 -0.47912682943E+01  0.15190821130E+03  0.12509000000E+03 0.  0.
<mgrwt>
<rscale>  2 0.45547261E+03</rscale>
<asrwt>0</asrwt>
<pdfrwt beam="1">  1       21 0.39192475E-01 0.45547261E+03</pdfrwt>
<pdfrwt beam="2">  1       21 0.28618313E-01 0.45547261E+03</pdfrwt>
<totfact> 0.67843426E+04</totfact>
</mgrwt>
</event>
<event>
 7    0  0.4725730E-002  0.4676691E+03  0.7546771E-02  0.1022580E+00
         21   -1    0    0  502  501  0.00000000000E+00  0.00000000000E+00  0.56225011890E+02  0.56225011890E+02  0.00000000000E+00 0. -1.
         21   -1    0    0  501  502 -0.00000000000E+00 -0.00000000000E+00 -0.97249611863E+03  0.97249611863E+03  0.00000000000E+00 0. -1.
      99926    2    1    2    0    0 -0.14210854715E-13 -0.88817841970E-15 -0.91627110674E+03  0.10287211305E+04  0.46766913874E+03 0.  0.
      99925    2    3    3    0    0  0.76657205568E+02  0.46188517160E+01 -0.78633269854E+03  0.83268756456E+03  0.26296731056E+03 0.  0.
         25    1    4    4    0    0  0.26472248108E+01 -0.14872879926E+02 -0.32316849672E+03  0.34686250263E+03  0.12509000000E+03 0.  0.
         25    1    4    4    0    0  0.74009980757E+02  0.19491731642E+02 -0.46316420183E+03  0.48582506194E+03  0.12509000000E+03 0.  0.
         25    1    3    3    0    0 -0.76657205568E+02 -0.46188517160E+01 -0.12993840819E+03  0.19603356595E+03  0.12509000000E+03 0.  0.
<mgrwt>
<rscale>  2 0.46766914E+03</rscale>
<asrwt>0</asrwt>
<pdfrwt beam="1">  1       21 0.82683849E-02 0.46766914E+03</pdfrwt>
<pdfrwt beam="2">  1       21 0.14301412E+00 0.46766914E+03</pdfrwt>
<totfact> 0.34524630E+04</totfact>
</mgrwt>
</event>
<event>
 7    0  0.4725730E-002  0.4299511E+03  0.7546771E-02  0.1033875E+00
         21   -1    0    0  502  501  0.00000000000E+00  0.00000000000E+00  0.61536636374E+02  0.61536636374E+02  0.00000000000E+00 0. -1.
         21   -1    0    0  501  502 -0.00000000000E+00 -0.00000000000E+00 -0.75100757334E+03  0.75100757334E+03  0.00000000000E+00 0. -1.
      99926    2    1    2    0    0 -0.71054273576E-14  0.00000000000E+00 -0.68947093696E+03  0.81254420971E+03  0.42995106677E+03 0.  0.
      99925    2    3    3    0    0  0.41648404915E+02  0.76504552531E+02 -0.46712148018E+03  0.54296244990E+03  0.26271316786E+03 0.  0.
         25    1    4    4    0    0  0.95799738987E+01  0.60121545557E+01 -0.16950715528E+03  0.21096944256E+03  0.12509000000E+03 0.  0.
         25    1    4    4    0    0  0.32068431016E+02  0.70492397975E+02 -0.29761432490E+03  0.33199300734E+03  0.12509000000E+03 0.  0.
         25    1    3    3    0    0 -0.41648404915E+02 -0.76504552531E+02 -0.22234945678E+03  0.26958175981E+03  0.12509000000E+03 0.  0.
<mgrwt>
<rscale>  2 0.42995107E+03</rscale>
<asrwt>0</asrwt>
<pdfrwt beam="1">  1       21 0.90495065E-02 0.42995107E+03</pdfrwt>
<pdfrwt beam="2">  1       21 0.11044228E+00 0.42995107E+03</pdfrwt>
<totfact> 0.57696219E+04</totfact>
</mgrwt>
</event>
<event>
 7    0  0.4725730E-002  0.4560174E+03  0.7546771E-02  0.1025943E+00
         21   -1    0    0  502  501  0.00000000000E+00  0.00000000000E+00  0.30271761396E+03  0.30271761396E+03  0.00000000000E+00 0. -1.
         21   -1    0    0  501  502 -0.00000000000E+00 -0.00000000000E+00 -0.17173751064E+03  0.17173751064E+03  0.00000000000E+00 0. -1.
      99926    2    1    2    0    0  0.35527136788E-14  0.00000000000E+00  0.13098010332E+03  0.47445512461E+03  0.45601740953E+03 0.  0.
      99925    2    3    3    0    0  0.14341407130E+02 -0.11116629858E+03  0.59558705675E+02  0.29193897179E+03  0.26290207669E+03 0.  0.
         25    1    4    4    0    0 -0.32594200643E+02 -0.47862994686E+02  0.32823911297E+02  0.14169744327E+03  0.12509000000E+03 0.  0.
         25    1    3    3    0    0 -0.14341407130E+02  0.11116629858E+03  0.71421397647E+02  0.18251615282E+03  0.12509000000E+03 0.  0.
         25    1    4    4    0    0  0.46935607773E+02 -0.63303303893E+02  0.26734794378E+02  0.15024152852E+03  0.12509000000E+03 0.  0.
<mgrwt>
<rscale>  2 0.45601741E+03</rscale>
<asrwt>0</asrwt>
<pdfrwt beam="1">  1       21 0.44517296E-01 0.45601741E+03</pdfrwt>
<pdfrwt beam="2">  1       21 0.25255516E-01 0.45601741E+03</pdfrwt>
<totfact> 0.66566963E+04</totfact>
</mgrwt>
</event>
<event>
 7    0  0.4725730E-002  0.4535425E+03  0.7546771E-02  0.1026671E+00
         21   -1    0    0  502  501  0.00000000000E+00  0.00000000000E+00  0.83156861115E+02  0.83156861115E+02  0.00000000000E+00 0.  1.
         21   -1    0    0  501  502 -0.00000000000E+00 -0.00000000000E+00 -0.61841195409E+03  0.61841195409E+03  0.00000000000E+00 0.  1.
      99926    2    1    2    0    0  0.00000000000E+00  0.00000000000E+00 -0.53525509297E+03  0.70156881520E+03  0.45354248744E+03 0.  0.
      99925    2    3    3    0    0 -0.74288991010E+02  0.37365248097E+02 -0.45295128332E+03  0.53028997491E+03  0.26292123625E+03 0.  0.
         25    1    3    3    0    0  0.74288991010E+02 -0.37365248097E+02 -0.82303809653E+02  0.17127884030E+03  0.12509000000E+03 0.  0.
         25    1    4    4    0    0 -0.31829413942E+01  0.31860941133E+02 -0.25094595796E+03  0.28221734993E+03  0.12509000000E+03 0.  0.
         25    1    4    4    0    0 -0.71106049616E+02  0.55043069637E+01 -0.20200532536E+03  0.24807262497E+03  0.12509000000E+03 0.  0.
<mgrwt>
<rscale>  2 0.45354249E+03</rscale>
<asrwt>0</asrwt>
<pdfrwt beam="1">  1       21 0.12228950E-01 0.45354249E+03</pdfrwt>
<pdfrwt beam="2">  1       21 0.90942938E-01 0.45354249E+03</pdfrwt>
<totfact> 0.53428035E+04</totfact>
</mgrwt>
</event>
<event>
 7    0  0.4725730E-002  0.4491836E+03  0.7546771E-02  0.1027966E+00
         21   -1    0    0  502  501  0.00000000000E+00  0.00000000000E+00  0.91613205001E+02  0.91613205001E+02  0.00000000000E+00 0.  1.
         21   -1    0    0  501  502 -0.00000000000E+00 -0.00000000000E+00 -0.55059181806E+03  0.55059181806E+03  0.00000000000E+00 0.  1.
      99926    2    1    2    0    0  0.00000000000E+00 -0.14210854715E-13 -0.45897861306E+03  0.64220502306E+03  0.44918361991E+03 0.  0.
      99925    2    3    3    0    0 -0.57594414496E+02  0.86947981064E+02 -0.32870146686E+03  0.43364637204E+03  0.26292100273E+03 0.  0.
         25    1    4    4    0    0 -0.64636142367E+02  0.49387391863E+02 -0.14435607012E+03  0.20761292940E+03  0.12509000000E+03 0.  0.
         25    1    3    3    0    0  0.57594414496E+02 -0.86947981064E+02 -0.13027714620E+03  0.20855865102E+03  0.12509000000E+03 0.  0.
         25    1    4    4    0    0  0.70417278710E+01  0.37560589200E+02 -0.18434539674E+03  0.22603344264E+03  0.12509000000E+03 0.  0.
<mgrwt>
<rscale>  2 0.44918362E+03</rscale>
<asrwt>0</asrwt>
<pdfrwt beam="1">  1       21 0.13472530E-01 0.44918362E+03</pdfrwt>
<pdfrwt beam="2">  1       21 0.80969388E-01 0.44918362E+03</pdfrwt>
<totfact> 0.58805552E+04</totfact>
</mgrwt>
</event>
<event>
 7    0  0.4725730E-002  0.4570794E+03  0.7546771E-02  0.1025632E+00
         21   -1    0    0  502  501  0.00000000000E+00  0.00000000000E+00  0.34528964457E+03  0.34528964457E+03  0.00000000000E+00 0. -1.
         21   -1    0    0  501  502 -0.00000000000E+00 -0.00000000000E+00 -0.15126544087E+03  0.15126544087E+03  0.00000000000E+00 0. -1.
      99926    2    1    2    0    0 -0.71054273576E-14 -0.14210854715E-13  0.19402420371E+03  0.49655508544E+03  0.45707938178E+03 0.  0.
      99925    2    3    3    0    0  0.58719298368E+02  0.97579949297E+02  0.10426630044E+03  0.30505105988E+03  0.26308721980E+03 0.  0.
         25    1    4    4    0    0  0.29680997564E+02  0.87553098008E+02  0.37644570866E+02  0.16003477248E+03  0.12509000000E+03 0.  0.
         25    1    4    4    0    0  0.29038300804E+02  0.10026851289E+02  0.66621729576E+02  0.14501628740E+03  0.12509000000E+03 0.  0.
         25    1    3    3    0    0 -0.58719298368E+02 -0.97579949297E+02  0.89757903267E+02  0.19150402556E+03  0.12509000000E+03 0.  0.
<mgrwt>
<rscale>  2 0.45707938E+03</rscale>
<asrwt>0</asrwt>
<pdfrwt beam="1">  1       21 0.50777889E-01 0.45707938E+03</pdfrwt>
<pdfrwt beam="2">  1       21 0.22244918E-01 0.45707938E+03</pdfrwt>
<totfact> 0.64442996E+04</totfact>
</mgrwt>
</event>
<event>
 7    0  0.4725730E-002  0.4562723E+03  0.7546771E-02  0.1025868E+00
         21   -1    0    0  502  501  0.00000000000E+00  0.00000000000E+00  0.15793761954E+03  0.15793761954E+03  0.00000000000E+00 0. -1.
         21   -1    0    0  501  502 -0.00000000000E+00 -0.00000000000E+00 -0.32953578578E+03  0.32953578578E+03  0.00000000000E+00 0. -1.
      99926    2    1    2    0    0  0.00000000000E+00  0.35527136788E-14 -0.17159816624E+03  0.48747340532E+03  0.45627227643E+03 0.  0.
      99925    2    3    3    0    0  0.98353075775E+02  0.30360829742E+02 -0.16114635723E+03  0.32514085803E+03  0.26297019150E+03 0.  0.
         25    1    3    3    0    0 -0.98353075775E+02 -0.30360829742E+02 -0.10451809005E+02  0.16233254729E+03  0.12509000000E+03 0.  0.
         25    1    4    4    0    0  0.39987146270E+02  0.54644467186E+02 -0.80904299294E+02  0.16363985885E+03  0.12509000000E+03 0.  0.
         25    1    4    4    0    0  0.58365929505E+02 -0.24283637444E+02 -0.80242057939E+02  0.16150099918E+03  0.12509000000E+03 0.  0.
<mgrwt>
<rscale>  2 0.45627228E+03</rscale>
<asrwt>0</asrwt>
<pdfrwt beam="1">  1       21 0.23226121E-01 0.45627228E+03</pdfrwt>
<pdfrwt beam="2">  1       21 0.48461145E-01 0.45627228E+03</pdfrwt>
<totfact> 0.65495973E+04</totfact>
</mgrwt>
</event>
<event>
 7    0  0.4725730E-002  0.4532321E+03  0.7546771E-02  0.1026763E+00
         21   -1    0    0  502  501  0.00000000000E+00  0.00000000000E+00  0.89829238877E+02  0.89829238877E+02  0.00000000000E+00 0. -1.
         21   -1    0    0  501  502 -0.00000000000E+00 -0.00000000000E+00 -0.57169395820E+03  0.57169395820E+03  0.00000000000E+00 0. -1.
      99926    2    1    2    0    0 -0.14210854715E-13  0.00000000000E+00 -0.48186471933E+03  0.66152319708E+03  0.45323209567E+03 0.  0.
      99925    2    3    3    0    0  0.68322419336E+02 -0.86868187712E+02 -0.32469580410E+03  0.43225564370E+03  0.26306565965E+03 0.  0.
         25    1    4    4    0    0  0.43877805234E+00 -0.65705552678E+02 -0.15379673239E+03  0.20885007822E+03  0.12509000000E+03 0.  0.
         25    1    4    4    0    0  0.67883641283E+02 -0.21162635034E+02 -0.17089907171E+03  0.22340556548E+03  0.12509000000E+03 0.  0.
         25    1    3    3    0    0 -0.68322419336E+02  0.86868187712E+02 -0.15716891523E+03  0.22926755338E+03  0.12509000000E+03 0.  0.
<mgrwt>
<rscale>  2 0.45323210E+03</rscale>
<asrwt>0</asrwt>
<pdfrwt beam="1">  1       21 0.13210182E-01 0.45323210E+03</pdfrwt>
<pdfrwt beam="2">  1       21 0.84072642E-01 0.45323210E+03</pdfrwt>
<totfact> 0.55815898E+04</totfact>
</mgrwt>
</event>
<event>
 7    0  0.4725730E-002  0.4390893E+03  0.7546771E-02  0.1031027E+00
         21   -1    0    0  502  501  0.00000000000E+00  0.00000000000E+00  0.24942341900E+03  0.24942341900E+03  0.00000000000E+00 0. -1.
         21   -1    0    0  501  502 -0.00000000000E+00 -0.00000000000E+00 -0.19324505545E+03  0.19324505545E+03  0.00000000000E+00 0. -1.
      99926    2    1    2    0    0 -0.14210854715E-13  0.00000000000E+00  0.56178363544E+02  0.44266847445E+03  0.43908925032E+03 0.  0.
      99925    2    3    3    0    0  0.72823174224E+02 -0.34898798936E+02 -0.19054058041E+02  0.27584951201E+03  0.26307556952E+03 0.  0.
         25    1    4    4    0    0  0.33123192533E+02 -0.24716891555E+01 -0.47204092809E+02  0.13776425374E+03  0.12509000000E+03 0.  0.
         25    1    3    3    0    0 -0.72823174224E+02  0.34898798936E+02  0.75232421585E+02  0.16681896244E+03  0.12509000000E+03 0.  0.
         25    1    4    4    0    0  0.39699981692E+02 -0.32427109781E+02  0.28150034768E+02  0.13808525827E+03  0.12509000000E+03 0.  0.
<mgrwt>
<rscale>  2 0.43908925E+03</rscale>
<asrwt>0</asrwt>
<pdfrwt beam="1">  1       21 0.36679915E-01 0.43908925E+03</pdfrwt>
<pdfrwt beam="2">  1       21 0.28418390E-01 0.43908925E+03</pdfrwt>
<totfact> 0.79023467E+04</totfact>
</mgrwt>
</event>
<event>
 7    0  0.4725730E-002  0.4558848E+03  0.7546771E-02  0.1025982E+00
         21   -1    0    0  502  501  0.00000000000E+00  0.00000000000E+00  0.29069457565E+03  0.29069457565E+03  0.00000000000E+00 0. -1.
         21   -1    0    0  501  502 -0.00000000000E+00 -0.00000000000E+00 -0.17873650208E+03  0.17873650208E+03  0.00000000000E+00 0. -1.
      99926    2    1    2    0    0  0.00000000000E+00  0.71054273576E-14  0.11195807356E+03  0.46943107773E+03  0.45588477327E+03 0.  0.
      99925    2    3    3    0    0 -0.51982981776E+02 -0.35739355557E+02  0.16823885340E+03  0.31845238317E+03  0.26292218739E+03 0.  0.
         25    1    4    4    0    0 -0.16323697062E+02 -0.51747795408E+02  0.62188409530E+02  0.14986395095E+03  0.12509000000E+03 0.  0.
         25    1    4    4    0    0 -0.35659284714E+02  0.16008439850E+02  0.10605044387E+03  0.16858843222E+03  0.12509000000E+03 0.  0.
         25    1    3    3    0    0  0.51982981776E+02  0.35739355557E+02 -0.56280779839E+02  0.15097869455E+03  0.12509000000E+03 0.  0.
<mgrwt>
<rscale>  2 0.45588477E+03</rscale>
<asrwt>0</asrwt>
<pdfrwt beam="1">  1       21 0.42749202E-01 0.45588477E+03</pdfrwt>
<pdfrwt beam="2">  1       21 0.26284780E-01 0.45588477E+03</pdfrwt>
<totfact> 0.67006583E+04</totfact>
</mgrwt>
</event>
<event>
 7    0  0.4725730E-002  0.4481069E+03  0.7546771E-02  0.1028288E+00
         21   -1    0    0  502  501  0.00000000000E+00  0.00000000000E+00  0.76328116946E+02  0.76328116946E+02  0.00000000000E+00 0.  1.
         21   -1    0    0  501  502 -0.00000000000E+00 -0.00000000000E+00 -0.65768616360E+03  0.65768616360E+03  0.00000000000E+00 0.  1.
      99926    2    1    2    0    0  0.88817841970E-15 -0.71054273576E-14 -0.58135804666E+03  0.73401428055E+03  0.44810689086E+03 0.  0.
      99925    2    3    3    0    0 -0.70324879572E+01  0.57741390398E+02 -0.51481975781E+03  0.58085300596E+03  0.26261627414E+03 0.  0.
         25    1    4    4    0    0 -0.36179700577E+02  0.52329217393E+02 -0.26126331489E+03  0.29656929298E+03  0.12509000000E+03 0.  0.
         25    1    4    4    0    0  0.29147212620E+02  0.54121730051E+01 -0.25355644292E+03  0.28428371298E+03  0.12509000000E+03 0.  0.
         25    1    3    3    0    0  0.70324879572E+01 -0.57741390398E+02 -0.66538288841E+02  0.15316127459E+03  0.12509000000E+03 0.  0.
<mgrwt>
<rscale>  2 0.44810689E+03</rscale>
<asrwt>0</asrwt>
<pdfrwt beam="1">  1       21 0.11224723E-01 0.44810689E+03</pdfrwt>
<pdfrwt beam="2">  1       21 0.96718552E-01 0.44810689E+03</pdfrwt>
<totfact> 0.53960447E+04</totfact>
</mgrwt>
</event>
<event>
 7    0  0.4725730E-002  0.4512806E+03  0.7546771E-02  0.1027341E+00
         21   -1    0    0  502  501  0.00000000000E+00  0.00000000000E+00  0.10907514080E+03  0.10907514080E+03  0.00000000000E+00 0.  1.
         21   -1    0    0  501  502 -0.00000000000E+00 -0.00000000000E+00 -0.46677494357E+03  0.46677494357E+03  0.00000000000E+00 0.  1.
      99926    2    1    2    0    0 -0.71054273576E-14 -0.17763568394E-14 -0.35769980277E+03  0.57585008438E+03  0.45128058985E+03 0.  0.
      99925    2    3    3    0    0  0.54389464212E+02  0.90073799082E+01 -0.10487603475E+03  0.28843624948E+03  0.26297745273E+03 0.  0.
         25    1    3    3    0    0 -0.54389464212E+02 -0.90073799082E+01 -0.25282376802E+03  0.28741383489E+03  0.12509000000E+03 0.  0.
         25    1    4    4    0    0  0.44119629587E+02  0.16293709756E+02 -0.16267179995E+02  0.13462598537E+03  0.12509000000E+03 0.  0.
         25    1    4    4    0    0  0.10269834625E+02 -0.72863298481E+01 -0.88608854751E+02  0.15381026411E+03  0.12509000000E+03 0.  0.
<mgrwt>
<rscale>  2 0.45128059E+03</rscale>
<asrwt>0</asrwt>
<pdfrwt beam="1">  1       21 0.16040462E-01 0.45128059E+03</pdfrwt>
<pdfrwt beam="2">  1       21 0.68643373E-01 0.45128059E+03</pdfrwt>
<totfact> 0.61992985E+04</totfact>
</mgrwt>
</event>
<event>
 7    0  0.4725730E-002  0.4572372E+03  0.7546771E-02  0.1025586E+00
         21   -1    0    0  502  501  0.00000000000E+00  0.00000000000E+00  0.35839733397E+03  0.35839733397E+03  0.00000000000E+00 0.  1.
         21   -1    0    0  501  502 -0.00000000000E+00 -0.00000000000E+00 -0.14583384207E+03  0.14583384207E+03  0.00000000000E+00 0.  1.
      99926    2    1    2    0    0  0.00000000000E+00 -0.14210854715E-13  0.21256349190E+03  0.50423117605E+03  0.45723718222E+03 0.  0.
      99925    2    3    3    0    0  0.91136419707E+02 -0.70617619978E+02  0.13583992690E+03  0.31761202168E+03  0.26293005786E+03 0.  0.
         25    1    4    4    0    0  0.43709780438E+02 -0.67802952203E+02  0.43632438182E+02  0.15510990618E+03  0.12509000000E+03 0.  0.
         25    1    3    3    0    0 -0.91136419707E+02  0.70617619978E+02  0.76723565005E+02  0.18661915436E+03  0.12509000000E+03 0.  0.
         25    1    4    4    0    0  0.47426639269E+02 -0.28146677747E+01  0.92207488717E+02  0.16250211550E+03  0.12509000000E+03 0.  0.
<mgrwt>
<rscale>  2 0.45723718E+03</rscale>
<asrwt>0</asrwt>
<pdfrwt beam="1">  1       21 0.52705490E-01 0.45723718E+03</pdfrwt>
<pdfrwt beam="2">  1       21 0.21446153E-01 0.45723718E+03</pdfrwt>
<totfact> 0.63833320E+04</totfact>
</mgrwt>
</event>
<event>
 7    0  0.4725730E-002  0.4605366E+03  0.7546771E-02  0.1024626E+00
         21   -1    0    0  502  501  0.00000000000E+00  0.00000000000E+00  0.87576990879E+02  0.87576990879E+02  0.00000000000E+00 0.  1.
         21   -1    0    0  501  502 -0.00000000000E+00 -0.00000000000E+00 -0.60545007281E+03  0.60545007281E+03  0.00000000000E+00 0.  1.
      99926    2    1    2    0    0  0.00000000000E+00  0.00000000000E+00 -0.51787308193E+03  0.69302706369E+03  0.46053662397E+03 0.  0.
      99925    2    3    3    0    0  0.96409294203E+02 -0.52729407618E+01 -0.42704658333E+03  0.51076484363E+03  0.26303875235E+03 0.  0.
         25    1    4    4    0    0  0.29392324532E+02  0.39522109494E+01 -0.26909323077E+03  0.29822508892E+03  0.12509000000E+03 0.  0.
         25    1    3    3    0    0 -0.96409294203E+02  0.52729407618E+01 -0.90826498596E+02  0.18226222006E+03  0.12509000000E+03 0.  0.
         25    1    4    4    0    0  0.67016969670E+02 -0.92251517111E+01 -0.15795335256E+03  0.21253975471E+03  0.12509000000E+03 0.  0.
<mgrwt>
<rscale>  2 0.46053662E+03</rscale>
<asrwt>0</asrwt>
<pdfrwt beam="1">  1       21 0.12878970E-01 0.46053662E+03</pdfrwt>
<pdfrwt beam="2">  1       21 0.89036771E-01 0.46053662E+03</pdfrwt>
<totfact> 0.51022957E+04</totfact>
</mgrwt>
</event>
<event>
 6    0  0.4725730E-002  0.4565346E+03  0.7546771E-02  0.1025791E+00
         21   -1    0    0  502  501  0.00000000000E+00  0.00000000000E+00  0.79849180773E+02  0.79849180773E+02  0.00000000000E+00 0. -1.
         21   -1    0    0  501  502 -0.00000000000E+00 -0.00000000000E+00 -0.65255461379E+03  0.65255461379E+03  0.00000000000E+00 0. -1.
      99926    2    1    2    0    0  0.00000000000E+00 -0.71054273576E-14 -0.57270543302E+03  0.73240379456E+03  0.45653456089E+03 0.  0.
         25    1    3    3    0    0  0.68933466228E+02 -0.62087606051E+02 -0.10805508992E+03  0.18955237838E+03  0.12509000000E+03 0.  0.
         25    1    3    3    0    0 -0.28766429111E+02 -0.34722024272E+01 -0.16421043107E+03  0.20845176278E+03  0.12509000000E+03 0.  0.
         25    1    3    3    0    0 -0.40167037117E+02  0.65559808478E+02 -0.30043991203E+03  0.33439965341E+03  0.12509000000E+03 0.  0.
<mgrwt>
<rscale>  2 0.45653456E+03</rscale>
<asrwt>0</asrwt>
<pdfrwt beam="1">  1       21 0.11742527E-01 0.45653456E+03</pdfrwt>
<pdfrwt beam="2">  1       21 0.95963910E-01 0.45653456E+03</pdfrwt>
<totfact> 0.50565820E+04</totfact>
</mgrwt>
</event>
<event>
 7    0  0.4725730E-002  0.4490100E+03  0.7546771E-02  0.1028018E+00
         21   -1    0    0  502  501  0.00000000000E+00  0.00000000000E+00  0.54636510710E+03  0.54636510710E+03  0.00000000000E+00 0.  1.
         21   -1    0    0  501  502 -0.00000000000E+00 -0.00000000000E+00 -0.92250558832E+02  0.92250558832E+02  0.00000000000E+00 0.  1.
      99926    2    1    2    0    0 -0.35527136788E-14 -0.14210854715E-13  0.45411454827E+03  0.63861566593E+03  0.44900996183E+03 0.  0.
      99925    2    3    3    0    0 -0.21788197968E+02 -0.73162137510E+02  0.39488723488E+03  0.48055616231E+03  0.26300356066E+03 0.  0.
         25    1    4    4    0    0  0.18043918271E+02 -0.65340556368E+02  0.19975228954E+03  0.24524162895E+03  0.12509000000E+03 0.  0.
         25    1    3    3    0    0  0.21788197968E+02  0.73162137510E+02  0.59227313386E+02  0.15805950363E+03  0.12509000000E+03 0.  0.
         25    1    4    4    0    0 -0.39832116239E+02 -0.78215811412E+01  0.19513494534E+03  0.23531453336E+03  0.12509000000E+03 0.  0.
<mgrwt>
<rscale>  2 0.44900996E+03</rscale>
<asrwt>0</asrwt>
<pdfrwt beam="1">  1       21 0.80347808E-01 0.44900996E+03</pdfrwt>
<pdfrwt beam="2">  1       21 0.13566259E-01 0.44900996E+03</pdfrwt>
<totfact> 0.59107007E+04</totfact>
</mgrwt>
</event>
<event>
 7    0  0.4725730E-002  0.4555580E+03  0.7546771E-02  0.1026077E+00
         21   -1    0    0  502  501  0.00000000000E+00  0.00000000000E+00  0.31953650548E+02  0.31953650548E+02  0.00000000000E+00 0. -1.
         21   -1    0    0  501  502 -0.00000000000E+00 -0.00000000000E+00 -0.16237041806E+04  0.16237041806E+04  0.00000000000E+00 0. -1.
      99926    2    1    2    0    0  0.00000000000E+00  0.00000000000E+00 -0.15917505300E+04  0.16556578311E+04  0.45555801378E+03 0.  0.
      99925    2    3    3    0    0 -0.85311319162E+02  0.75155857696E+02 -0.99458948638E+03  0.10350329490E+04  0.26298010388E+03 0.  0.
         25    1    4    4    0    0 -0.54768805840E+02  0.74254575689E+02 -0.47806754132E+03  0.50270214469E+03  0.12509000000E+03 0.  0.
         25    1    3    3    0    0  0.85311319162E+02 -0.75155857696E+02 -0.59716104364E+03  0.62062488209E+03  0.12509000000E+03 0.  0.
         25    1    4    4    0    0 -0.30542513321E+02  0.90128200740E+00 -0.51652194505E+03  0.53233080434E+03  0.12509000000E+03 0.  0.
<mgrwt>
<rscale>  2 0.45555801E+03</rscale>
<asrwt>0</asrwt>
<pdfrwt beam="1">  1       21 0.46990671E-02 0.45555801E+03</pdfrwt>
<pdfrwt beam="2">  1       21 0.23877998E+00 0.45555801E+03</pdfrwt>
<totfact> 0.20113503E+04</totfact>
</mgrwt>
</event>
<event>
 7    0  0.4725730E-002  0.4379957E+03  0.7546771E-02  0.1031364E+00
         21   -1    0    0  502  501  0.00000000000E+00  0.00000000000E+00  0.22430536092E+03  0.22430536092E+03  0.00000000000E+00 0.  1.
         21   -1    0    0  501  502 -0.00000000000E+00 -0.00000000000E+00 -0.21381591811E+03  0.21381591811E+03  0.00000000000E+00 0.  1.
      99926    2    1    2    0    0  0.00000000000E+00 -0.71054273576E-14  0.10489442805E+02  0.43812127903E+03  0.43799569259E+03 0.  0.
      99925    2    3    3    0    0  0.55480297426E+02  0.32123759871E+02  0.78745558773E+02  0.28186378379E+03  0.26293788284E+03 0.  0.
         25    1    3    3    0    0 -0.55480297426E+02 -0.32123759871E+02 -0.68256115968E+02  0.15625749524E+03  0.12509000000E+03 0.  0.
         25    1    4    4    0    0  0.32089642944E+02  0.15151090229E+00  0.77567941118E+02  0.15064548360E+03  0.12509000000E+03 0.  0.
         25    1    4    4    0    0  0.23390654483E+02  0.31972248969E+02  0.11776176547E+01  0.13121830019E+03  0.12509000000E+03 0.  0.
<mgrwt>
<rscale>  2 0.43799569E+03</rscale>
<asrwt>0</asrwt>
<pdfrwt beam="1">  1       21 0.32986083E-01 0.43799569E+03</pdfrwt>
<pdfrwt beam="2">  1       21 0.31443517E-01 0.43799569E+03</pdfrwt>
<totfact> 0.80133112E+04</totfact>
</mgrwt>
</event>
<event>
 7    0  0.4725730E-002  0.4576873E+03  0.7546771E-02  0.1025454E+00
         21   -1    0    0  502  501  0.00000000000E+00  0.00000000000E+00  0.26192772680E+04  0.26192772680E+04  0.00000000000E+00 0. -1.
         21   -1    0    0  501  502 -0.00000000000E+00 -0.00000000000E+00 -0.19993837772E+02  0.19993837772E+02  0.00000000000E+00 0. -1.
      99926    2    1    2    0    0  0.31086244690E-14  0.00000000000E+00  0.25992834303E+04  0.26392711058E+04  0.45768725032E+03 0.  0.
      99925    2    3    3    0    0  0.12473092642E+01 -0.11561050236E+03  0.16475689184E+04  0.16724332889E+04  0.26302551371E+03 0.  0.
         25    1    4    4    0    0  0.37685880049E+02 -0.41041334544E+02  0.75070639833E+03  0.76309384829E+03  0.12509000000E+03 0.  0.
         25    1    3    3    0    0 -0.12473092642E+01  0.11561050236E+03  0.95171451187E+03  0.96683781692E+03  0.12509000000E+03 0.  0.
         25    1    4    4    0    0 -0.36438570785E+02 -0.74569167812E+02  0.89686252007E+03  0.90933944061E+03  0.12509000000E+03 0.  0.
<mgrwt>
<rscale>  2 0.45768725E+03</rscale>
<asrwt>0</asrwt>
<pdfrwt beam="1">  1       21 0.38518760E+00 0.45768725E+03</pdfrwt>
<pdfrwt beam="2">  1       21 0.29402721E-02 0.45768725E+03</pdfrwt>
<totfact> 0.56894707E+03</totfact>
</mgrwt>
</event>
<event>
 7    0  0.4725730E-002  0.4683295E+03  0.7546771E-02  0.1022393E+00
         21   -1    0    0  502  501  0.00000000000E+00  0.00000000000E+00  0.20305478456E+03  0.20305478456E+03  0.00000000000E+00 0.  1.
         21   -1    0    0  501  502 -0.00000000000E+00 -0.00000000000E+00 -0.27004105149E+03  0.27004105149E+03  0.00000000000E+00 0.  1.
      99926    2    1    2    0    0  0.00000000000E+00  0.00000000000E+00 -0.66986266926E+02  0.47309583605E+03  0.46832948886E+03 0.  0.
      99925    2    3    3    0    0  0.46429919331E+02 -0.10843942552E+03 -0.84613621548E+02  0.30025753547E+03  0.26283126953E+03 0.  0.
         25    1    4    4    0    0  0.47476208950E+02 -0.89806828054E+02 -0.55919814841E+02  0.17056901997E+03  0.12509000000E+03 0.  0.
         25    1    3    3    0    0 -0.46429919331E+02  0.10843942552E+03  0.17627354622E+02  0.17283830058E+03  0.12509000000E+03 0.  0.
         25    1    4    4    0    0 -0.10462896190E+01 -0.18632597464E+02 -0.28693806708E+02  0.12968851550E+03  0.12509000000E+03 0.  0.
<mgrwt>
<rscale>  2 0.46832949E+03</rscale>
<asrwt>0</asrwt>
<pdfrwt beam="1">  1       21 0.29860998E-01 0.46832949E+03</pdfrwt>
<pdfrwt beam="2">  1       21 0.39711919E-01 0.46832949E+03</pdfrwt>
<totfact> 0.60539720E+04</totfact>
</mgrwt>
</event>
<event>
 7    0  0.4725730E-002  0.4582945E+03  0.7546771E-02  0.1025277E+00
         21   -1    0    0  502  501  0.00000000000E+00  0.00000000000E+00  0.31034687750E+03  0.31034687750E+03  0.00000000000E+00 0. -1.
         21   -1    0    0  501  502 -0.00000000000E+00 -0.00000000000E+00 -0.16919284076E+03  0.16919284076E+03  0.00000000000E+00 0. -1.
      99926    2    1    2    0    0  0.00000000000E+00  0.71054273576E-14  0.14115403675E+03  0.47953971826E+03  0.45829453335E+03 0.  0.
      99925    2    3    3    0    0 -0.89585904816E+02  0.61945805146E+02  0.46034066126E+02  0.28833764184E+03  0.26297631707E+03 0.  0.
         25    1    4    4    0    0 -0.75823909714E+02  0.24382123409E+02 -0.25264275605E+01  0.14831602800E+03  0.12509000000E+03 0.  0.
         25    1    4    4    0    0 -0.13761995101E+02  0.37563681736E+02  0.48560493687E+02  0.14002161384E+03  0.12509000000E+03 0.  0.
         25    1    3    3    0    0  0.89585904816E+02 -0.61945805146E+02  0.95119970619E+02  0.19120207642E+03  0.12509000000E+03 0.  0.
<mgrwt>
<rscale>  2 0.45829453E+03</rscale>
<asrwt>0</asrwt>
<pdfrwt beam="1">  1       21 0.45639247E-01 0.45829453E+03</pdfrwt>
<pdfrwt beam="2">  1       21 0.24881300E-01 0.45829453E+03</pdfrwt>
<totfact> 0.65016856E+04</totfact>
</mgrwt>
</event>
<event>
 7    0  0.4725730E-002  0.4587038E+03  0.7546771E-02  0.1025158E+00
         21   -1    0    0  502  501  0.00000000000E+00  0.00000000000E+00  0.89921218055E+03  0.89921218055E+03  0.00000000000E+00 0. -1.
         21   -1    0    0  501  502 -0.00000000000E+00 -0.00000000000E+00 -0.58498187885E+02  0.58498187885E+02  0.00000000000E+00 0. -1.
      99926    2    1    2    0    0 -0.14210854715E-13  0.00000000000E+00  0.84071399266E+03  0.95771036843E+03  0.45870375227E+03 0.  0.
      99925    2    3    3    0    0 -0.83091852633E+02  0.33637740546E+01  0.35690739128E+03  0.45112187016E+03  0.26308265779E+03 0.  0.
         25    1    4    4    0    0 -0.77760116078E+02  0.14182129622E+01  0.22773624554E+03  0.27121938097E+03  0.12509000000E+03 0.  0.
         25    1    4    4    0    0 -0.53317365556E+01  0.19455610925E+01  0.12917114574E+03  0.17990248919E+03  0.12509000000E+03 0.  0.
         25    1    3    3    0    0  0.83091852633E+02 -0.33637740546E+01  0.48380660138E+03  0.50658849828E+03  0.12509000000E+03 0.  0.
<mgrwt>
<rscale>  2 0.45870375E+03</rscale>
<asrwt>0</asrwt>
<pdfrwt beam="1">  1       21 0.13223708E+00 0.45870375E+03</pdfrwt>
<pdfrwt beam="2">  1       21 0.86026752E-02 0.45870375E+03</pdfrwt>
<totfact> 0.39668842E+04</totfact>
</mgrwt>
</event>
<event>
 7    0  0.4725730E-002  0.4587356E+03  0.7546771E-02  0.1025149E+00
         21   -1    0    0  502  501  0.00000000000E+00  0.00000000000E+00  0.40044799340E+02  0.40044799340E+02  0.00000000000E+00 0. -1.
         21   -1    0    0  501  502 -0.00000000000E+00 -0.00000000000E+00 -0.13137685548E+04  0.13137685548E+04  0.00000000000E+00 0. -1.
      99926    2    1    2    0    0  0.00000000000E+00  0.00000000000E+00 -0.12737237554E+04  0.13538133541E+04  0.45873564568E+03 0.  0.
      99925    2    3    3    0    0 -0.17661017488E+02 -0.91382310101E+02 -0.59110583817E+03  0.65361526271E+03  0.26295277445E+03 0.  0.
         25    1    3    3    0    0  0.17661017488E+02  0.91382310101E+02 -0.68261791724E+03  0.70019809138E+03  0.12509000000E+03 0.  0.
         25    1    4    4    0    0 -0.20943121882E+02 -0.50999201341E+01 -0.27156083439E+03  0.29976226983E+03  0.12509000000E+03 0.  0.
         25    1    4    4    0    0  0.32821043946E+01 -0.86282389967E+02 -0.31954500378E+03  0.35385299288E+03  0.12509000000E+03 0.  0.
<mgrwt>
<rscale>  2 0.45873565E+03</rscale>
<asrwt>0</asrwt>
<pdfrwt beam="1">  1       21 0.58889413E-02 0.45873565E+03</pdfrwt>
<pdfrwt beam="2">  1       21 0.19320125E+00 0.45873565E+03</pdfrwt>
<totfact> 0.26802439E+04</totfact>
</mgrwt>
</event>
<event>
 7    0  0.4725730E-002  0.4552362E+03  0.7546771E-02  0.1026172E+00
         21   -1    0    0  502  501  0.00000000000E+00  0.00000000000E+00  0.50697586837E+02  0.50697586837E+02  0.00000000000E+00 0.  1.
         21   -1    0    0  501  502 -0.00000000000E+00 -0.00000000000E+00 -0.10219421842E+04  0.10219421842E+04  0.00000000000E+00 0.  1.
      99926    2    1    2    0    0 -0.71054273576E-14  0.00000000000E+00 -0.97124459739E+03  0.10726397711E+04  0.45523621397E+03 0.  0.
      99925    2    3    3    0    0 -0.40174288419E+02  0.16759830904E+02 -0.85774341575E+03  0.89821244604E+03  0.26299613223E+03 0.  0.
         25    1    3    3    0    0  0.40174288419E+02 -0.16759830904E+02 -0.11350118163E+03  0.17442732502E+03  0.12509000000E+03 0.  0.
         25    1    4    4    0    0 -0.66412910129E+01 -0.24478250697E+02 -0.34827056909E+03  0.37092207928E+03  0.12509000000E+03 0.  0.
         25    1    4    4    0    0 -0.33532997406E+02  0.41238081600E+02 -0.50947284667E+03  0.52729036676E+03  0.12509000000E+03 0.  0.
<mgrwt>
<rscale>  2 0.45523621E+03</rscale>
<asrwt>0</asrwt>
<pdfrwt beam="1">  1       21 0.74555276E-02 0.45523621E+03</pdfrwt>
<pdfrwt beam="2">  1       21 0.15028561E+00 0.45523621E+03</pdfrwt>
<totfact> 0.36390361E+04</totfact>
</mgrwt>
</event>
<event>
 7    0  0.4725730E-002  0.4496409E+03  0.7546771E-02  0.1027829E+00
         21   -1    0    0  502  501  0.00000000000E+00  0.00000000000E+00  0.87098546389E+02  0.87098546389E+02  0.00000000000E+00 0.  1.
         21   -1    0    0  501  502 -0.00000000000E+00 -0.00000000000E+00 -0.58031085327E+03  0.58031085327E+03  0.00000000000E+00 0.  1.
      99926    2    1    2    0    0  0.00000000000E+00  0.00000000000E+00 -0.49321230688E+03  0.66740939965E+03  0.44964088681E+03 0.  0.
      99925    2    3    3    0    0  0.37836304626E+02  0.93426440630E+02 -0.36956847058E+03  0.46468941516E+03  0.26305001875E+03 0.  0.
         25    1    4    4    0    0 -0.25114880214E+01  0.54496890619E+02 -0.12890418235E+03  0.18772324040E+03  0.12509000000E+03 0.  0.
         25    1    3    3    0    0 -0.37836304626E+02 -0.93426440630E+02 -0.12364383630E+03  0.20271998449E+03  0.12509000000E+03 0.  0.
         25    1    4    4    0    0  0.40347792648E+02  0.38929550011E+02 -0.24066428822E+03  0.27696617476E+03  0.12509000000E+03 0.  0.
<mgrwt>
<rscale>  2 0.44964089E+03</rscale>
<asrwt>0</asrwt>
<pdfrwt beam="1">  1       21 0.12808609E-01 0.44964089E+03</pdfrwt>
<pdfrwt beam="2">  1       21 0.85339834E-01 0.44964089E+03</pdfrwt>
<totfact> 0.57081344E+04</totfact>
</mgrwt>
</event>
<event>
 7    0  0.4725730E-002  0.4553470E+03  0.7546771E-02  0.1026139E+00
         21   -1    0    0  502  501  0.00000000000E+00  0.00000000000E+00  0.25556008362E+03  0.25556008362E+03  0.00000000000E+00 0. -1.
         21   -1    0    0  501  502 -0.00000000000E+00 -0.00000000000E+00 -0.20282986214E+03  0.20282986214E+03  0.00000000000E+00 0. -1.
      99926    2    1    2    0    0 -0.35527136788E-14  0.00000000000E+00  0.52730221478E+02  0.45838994576E+03  0.45534697332E+03 0.  0.
      99925    2    3    3    0    0  0.21750332380E+02  0.83460900033E+02 -0.41580190466E+02  0.27955829114E+03  0.26265019914E+03 0.  0.
         25    1    4    4    0    0  0.43476652394E+02  0.59259316465E+02 -0.39204328132E+02  0.15028763534E+03  0.12509000000E+03 0.  0.
         25    1    3    3    0    0 -0.21750332380E+02 -0.83460900033E+02  0.94310411944E+02  0.17883165462E+03  0.12509000000E+03 0.  0.
         25    1    4    4    0    0 -0.21726320014E+02  0.24201583568E+02 -0.23758623343E+01  0.12927065580E+03  0.12509000000E+03 0.  0.
<mgrwt>
<rscale>  2 0.45534697E+03</rscale>
<asrwt>0</asrwt>
<pdfrwt beam="1">  1       21 0.37582365E-01 0.45534697E+03</pdfrwt>
<pdfrwt beam="2">  1       21 0.29827921E-01 0.45534697E+03</pdfrwt>
<totfact> 0.68109327E+04</totfact>
</mgrwt>
</event>
<event>
 7    0  0.4725730E-002  0.4490903E+03  0.7546771E-02  0.1027994E+00
         21   -1    0    0  502  501  0.00000000000E+00  0.00000000000E+00  0.10657044110E+03  0.10657044110E+03  0.00000000000E+00 0.  1.
         21   -1    0    0  501  502 -0.00000000000E+00 -0.00000000000E+00 -0.47311923457E+03  0.47311923457E+03  0.00000000000E+00 0.  1.
      99926    2    1    2    0    0 -0.14210854715E-13  0.00000000000E+00 -0.36654879347E+03  0.57968967568E+03  0.44909030505E+03 0.  0.
      99925    2    3    3    0    0  0.71120223417E+02 -0.80322387466E+02 -0.22214871038E+03  0.36058088032E+03  0.26298051187E+03 0.  0.
         25    1    4    4    0    0  0.74804895110E+02 -0.30086555004E+02 -0.12543885696E+03  0.19463655376E+03  0.12509000000E+03 0.  0.
         25    1    4    4    0    0 -0.36846716925E+01 -0.50235832461E+02 -0.96709853420E+02  0.16594432656E+03  0.12509000000E+03 0.  0.
         25    1    3    3    0    0 -0.71120223417E+02  0.80322387466E+02 -0.14440008308E+03  0.21910879536E+03  0.12509000000E+03 0.  0.
<mgrwt>
<rscale>  2 0.44909031E+03</rscale>
<asrwt>0</asrwt>
<pdfrwt beam="1">  1       21 0.15672123E-01 0.44909031E+03</pdfrwt>
<pdfrwt beam="2">  1       21 0.69576360E-01 0.44909031E+03</pdfrwt>
<totfact> 0.62830546E+04</totfact>
</mgrwt>
</event>
<event>
 7    0  0.4725730E-002  0.4543987E+03  0.7546771E-02  0.1026418E+00
         21   -1    0    0  502  501  0.00000000000E+00  0.00000000000E+00  0.11380439445E+03  0.11380439445E+03  0.00000000000E+00 0.  1.
         21   -1    0    0  501  502 -0.00000000000E+00 -0.00000000000E+00 -0.45358133602E+03  0.45358133602E+03  0.00000000000E+00 0.  1.
      99926    2    1    2    0    0 -0.71054273576E-14  0.00000000000E+00 -0.33977694158E+03  0.56738573047E+03  0.45439872041E+03 0.  0.
      99925    2    3    3    0    0  0.56476617664E+02 -0.80046085010E+02 -0.14255800483E+03  0.31412736204E+03  0.26221409339E+03 0.  0.
         25    1    4    4    0    0 -0.73287344092E+01 -0.50232437530E+02 -0.53625315227E+02  0.14525904675E+03  0.12509000000E+03 0.  0.
         25    1    4    4    0    0  0.63805352073E+02 -0.29813647480E+02 -0.88932689600E+02  0.16886831529E+03  0.12509000000E+03 0.  0.
         25    1    3    3    0    0 -0.56476617664E+02  0.80046085010E+02 -0.19721893675E+03  0.25325836843E+03  0.12509000000E+03 0.  0.
<mgrwt>
<rscale>  2 0.45439872E+03</rscale>
<asrwt>0</asrwt>
<pdfrwt beam="1">  1       21 0.16735940E-01 0.45439872E+03</pdfrwt>
<pdfrwt beam="2">  1       21 0.66703137E-01 0.45439872E+03</pdfrwt>
<totfact> 0.61021707E+04</totfact>
</mgrwt>
</event>
<event>
 7    0  0.4725730E-002  0.4548090E+03  0.7546771E-02  0.1026298E+00
         21   -1    0    0  502  501  0.00000000000E+00  0.00000000000E+00  0.45090124542E+02  0.45090124542E+02  0.00000000000E+00 0.  1.
         21   -1    0    0  501  502 -0.00000000000E+00 -0.00000000000E+00 -0.11468765687E+04  0.11468765687E+04  0.00000000000E+00 0.  1.
      99926    2    1    2    0    0  0.00000000000E+00  0.00000000000E+00 -0.11017864441E+04  0.11919666932E+04  0.45480900306E+03 0.  0.
      99925    2    3    3    0    0  0.23847951339E+02 -0.10387133738E+03 -0.79226534838E+03  0.84152583326E+03  0.26291322957E+03 0.  0.
         25    1    3    3    0    0 -0.23847951339E+02  0.10387133738E+03 -0.30952109575E+03  0.35044085996E+03  0.12509000000E+03 0.  0.
         25    1    4    4    0    0  0.23348193881E+02 -0.46767457513E+02 -0.50753060363E+03  0.52532576080E+03  0.12509000000E+03 0.  0.
         25    1    4    4    0    0  0.49975745823E+00 -0.57103879872E+02 -0.28473474475E+03  0.31620007246E+03  0.12509000000E+03 0.  0.
<mgrwt>
<rscale>  2 0.45480900E+03</rscale>
<asrwt>0</asrwt>
<pdfrwt beam="1">  1       21 0.66309017E-02 0.45480900E+03</pdfrwt>
<pdfrwt beam="2">  1       21 0.16865829E+00 0.45480900E+03</pdfrwt>
<totfact> 0.32459872E+04</totfact>
</mgrwt>
</event>
<event>
 7    0  0.4725730E-002  0.4531479E+03  0.7546771E-02  0.1026787E+00
         21   -1    0    0  502  501  0.00000000000E+00  0.00000000000E+00  0.53836556173E+03  0.53836556173E+03  0.00000000000E+00 0.  1.
         21   -1    0    0  501  502 -0.00000000000E+00 -0.00000000000E+00 -0.95354809564E+02  0.95354809564E+02  0.00000000000E+00 0.  1.
      99926    2    1    2    0    0  0.00000000000E+00  0.00000000000E+00  0.44301075217E+03  0.63372037130E+03  0.45314785938E+03 0.  0.
      99925    2    3    3    0    0  0.11077986110E+03 -0.86243715378E+01  0.28932937991E+03  0.40653756013E+03  0.26308694439E+03 0.  0.
         25    1    4    4    0    0  0.29077474320E+02  0.40985692699E+01  0.88995434540E+02  0.15630097009E+03  0.12509000000E+03 0.  0.
         25    1    3    3    0    0 -0.11077986110E+03  0.86243715378E+01  0.15368137226E+03  0.22718281117E+03  0.12509000000E+03 0.  0.
         25    1    4    4    0    0  0.81702386775E+02 -0.12722940808E+02  0.20033394537E+03  0.25023659004E+03  0.12509000000E+03 0.  0.
<mgrwt>
<rscale>  2 0.45314786E+03</rscale>
<asrwt>0</asrwt>
<pdfrwt beam="1">  1       21 0.79171405E-01 0.45314786E+03</pdfrwt>
<pdfrwt beam="2">  1       21 0.14022766E-01 0.45314786E+03</pdfrwt>
<totfact> 0.57485018E+04</totfact>
</mgrwt>
</event>
<event>
 7    0  0.4725730E-002  0.4562129E+03  0.7546771E-02  0.1025885E+00
         21   -1    0    0  502  501  0.00000000000E+00  0.00000000000E+00  0.18424302026E+03  0.18424302026E+03  0.00000000000E+00 0.  1.
         21   -1    0    0  501  502 -0.00000000000E+00 -0.00000000000E+00 -0.28241261660E+03  0.28241261660E+03  0.00000000000E+00 0.  1.
      99926    2    1    2    0    0  0.00000000000E+00  0.00000000000E+00 -0.98169596344E+02  0.46665563686E+03  0.45621290399E+03 0.  0.
      99925    2    3    3    0    0  0.42653977041E+02 -0.31097265627E+02 -0.16540958288E+03  0.31514614680E+03  0.26300258943E+03 0.  0.
         25    1    4    4    0    0  0.22603242601E+02 -0.54464980453E+02 -0.10005785244E+03  0.17069394426E+03  0.12509000000E+03 0.  0.
         25    1    3    3    0    0 -0.42653977041E+02  0.31097265627E+02  0.67239986539E+02  0.15150949005E+03  0.12509000000E+03 0.  0.
         25    1    4    4    0    0  0.20050734440E+02  0.23367714827E+02 -0.65351730442E+02  0.14445220254E+03  0.12509000000E+03 0.  0.
<mgrwt>
<rscale>  2 0.45621290E+03</rscale>
<asrwt>0</asrwt>
<pdfrwt beam="1">  1       21 0.27094562E-01 0.45621290E+03</pdfrwt>
<pdfrwt beam="2">  1       21 0.41531267E-01 0.45621290E+03</pdfrwt>
<totfact> 0.67038538E+04</totfact>
</mgrwt>
</event>
<event>
 7    0  0.4725730E-002  0.4667788E+03  0.7546771E-02  0.1022833E+00
         21   -1    0    0  502  501  0.00000000000E+00  0.00000000000E+00  0.25246828350E+02  0.25246828350E+02  0.00000000000E+00 0.  1.
         21   -1    0    0  501  502 -0.00000000000E+00 -0.00000000000E+00 -0.21575233493E+04  0.21575233493E+04  0.00000000000E+00 0.  1.
      99926    2    1    2    0    0  0.00000000000E+00 -0.35527136788E-14 -0.21322765209E+04  0.21827701776E+04  0.46677884125E+03 0.  0.
      99925    2    3    3    0    0 -0.65802251545E+02  0.19670016283E+02 -0.18102048966E+04  0.18304997061E+04  0.26300296636E+03 0.  0.
         25    1    4    4    0    0 -0.19420291906E+02 -0.22648242146E+02 -0.10089337165E+04  0.10170962802E+04  0.12509000000E+03 0.  0.
         25    1    4    4    0    0 -0.46381959638E+02  0.42318258428E+02 -0.80127118007E+03  0.81340342592E+03  0.12509000000E+03 0.  0.
         25    1    3    3    0    0  0.65802251545E+02 -0.19670016283E+02 -0.32207162430E+03  0.35227047155E+03  0.12509000000E+03 0.  0.
<mgrwt>
<rscale>  2 0.46677884E+03</rscale>
<asrwt>0</asrwt>
<pdfrwt beam="1">  1       21 0.37127680E-02 0.46677884E+03</pdfrwt>
<pdfrwt beam="2">  1       21 0.31728292E+00 0.46677884E+03</pdfrwt>
<totfact> 0.10002117E+04</totfact>
</mgrwt>
</event>
<event>
 7    0  0.4725730E-002  0.4439316E+03  0.7546771E-02  0.1029547E+00
         21   -1    0    0  502  501  0.00000000000E+00  0.00000000000E+00  0.17064446468E+03  0.17064446468E+03  0.00000000000E+00 0. -1.
         21   -1    0    0  501  502 -0.00000000000E+00 -0.00000000000E+00 -0.28872208486E+03  0.28872208486E+03  0.00000000000E+00 0. -1.
      99926    2    1    2    0    0  0.17763568394E-14  0.14210854715E-13 -0.11807762018E+03  0.45936654954E+03  0.44393164164E+03 0.  0.
      99925    2    3    3    0    0 -0.96891035214E+01 -0.82604324431E+02 -0.12770335985E+02  0.27591496098E+03  0.26277106209E+03 0.  0.
         25    1    4    4    0    0 -0.34845488932E+02 -0.64490003764E+02  0.87842827272E+01  0.14525095665E+03  0.12509000000E+03 0.  0.
         25    1    4    4    0    0  0.25156385411E+02 -0.18114320666E+02 -0.21554618712E+02  0.13066400433E+03  0.12509000000E+03 0.  0.
         25    1    3    3    0    0  0.96891035214E+01  0.82604324431E+02 -0.10530728420E+03  0.18345158856E+03  0.12509000000E+03 0.  0.
<mgrwt>
<rscale>  2 0.44393164E+03</rscale>
<asrwt>0</asrwt>
<pdfrwt beam="1">  1       21 0.25094774E-01 0.44393164E+03</pdfrwt>
<pdfrwt beam="2">  1       21 0.42459130E-01 0.44393164E+03</pdfrwt>
<totfact> 0.74570138E+04</totfact>
</mgrwt>
</event>
<event>
 7    0  0.4725730E-002  0.4558419E+03  0.7546771E-02  0.1025994E+00
         21   -1    0    0  502  501  0.00000000000E+00  0.00000000000E+00  0.22863347405E+03  0.22863347405E+03  0.00000000000E+00 0.  1.
         21   -1    0    0  501  502 -0.00000000000E+00 -0.00000000000E+00 -0.22721064464E+03  0.22721064464E+03  0.00000000000E+00 0.  1.
      99926    2    1    2    0    0  0.35527136788E-14  0.35527136788E-14  0.14228294085E+01  0.45584411870E+03  0.45584189815E+03 0.  0.
      99925    2    3    3    0    0 -0.86876017267E+01 -0.24175167092E+02  0.11184494754E+03  0.28702331014E+03  0.26308396976E+03 0.  0.
         25    1    3    3    0    0  0.86876017267E+01  0.24175167092E+02 -0.11042211814E+03  0.16882080856E+03  0.12509000000E+03 0.  0.
         25    1    4    4    0    0  0.28694047543E+02  0.37724446490E+01  0.74248302370E+02  0.14831688443E+03  0.12509000000E+03 0.  0.
         25    1    4    4    0    0 -0.37381649270E+02 -0.27947611741E+02  0.37596645175E+02  0.13870642571E+03  0.12509000000E+03 0.  0.
<mgrwt>
<rscale>  2 0.45584190E+03</rscale>
<asrwt>0</asrwt>
<pdfrwt beam="1">  1       21 0.33622570E-01 0.45584190E+03</pdfrwt>
<pdfrwt beam="2">  1       21 0.33413330E-01 0.45584190E+03</pdfrwt>
<totfact> 0.68025882E+04</totfact>
</mgrwt>
</event>
<event>
 7    0  0.4725730E-002  0.4538589E+03  0.7546771E-02  0.1026577E+00
         21   -1    0    0  502  501  0.00000000000E+00  0.00000000000E+00  0.41920484226E+02  0.41920484226E+02  0.00000000000E+00 0. -1.
         21   -1    0    0  501  502 -0.00000000000E+00 -0.00000000000E+00 -0.12284443912E+04  0.12284443912E+04  0.00000000000E+00 0. -1.
      99926    2    1    2    0    0 -0.35527136788E-14  0.00000000000E+00 -0.11865239070E+04  0.12703648754E+04  0.45385893722E+03 0.  0.
      99925    2    3    3    0    0 -0.25940255521E+02  0.15909486074E+02 -0.44683982490E+03  0.51956126730E+03  0.26334781707E+03 0.  0.
         25    1    4    4    0    0  0.75737468180E+01 -0.26790197322E+02 -0.23382830203E+03  0.26664256832E+03  0.12509000000E+03 0.  0.
         25    1    4    4    0    0 -0.33514002339E+02  0.42699683396E+02 -0.21301152288E+03  0.25291869898E+03  0.12509000000E+03 0.  0.
         25    1    3    3    0    0  0.25940255521E+02 -0.15909486074E+02 -0.73968408208E+03  0.75080360814E+03  0.12509000000E+03 0.  0.
<mgrwt>
<rscale>  2 0.45385894E+03</rscale>
<asrwt>0</asrwt>
<pdfrwt beam="1">  1       21 0.61647777E-02 0.45385894E+03</pdfrwt>
<pdfrwt beam="2">  1       21 0.18065357E+00 0.45385894E+03</pdfrwt>
<totfact> 0.30255479E+04</totfact>
</mgrwt>
</event>
<event>
 7    0  0.4725730E-002  0.4548109E+03  0.7546771E-02  0.1026297E+00
         21   -1    0    0  502  501  0.00000000000E+00  0.00000000000E+00  0.26404021502E+03  0.26404021502E+03  0.00000000000E+00 0.  1.
         21   -1    0    0  501  502 -0.00000000000E+00 -0.00000000000E+00 -0.19585363199E+03  0.19585363199E+03  0.00000000000E+00 0.  1.
      99926    2    1    2    0    0 -0.17763568394E-14  0.00000000000E+00  0.68186583031E+02  0.45989384701E+03  0.45481088423E+03 0.  0.
      99925    2    3    3    0    0  0.14999173805E+02  0.69404516797E+02  0.13180484929E+03  0.30261462376E+03  0.26298503769E+03 0.  0.
         25    1    3    3    0    0 -0.14999173805E+02 -0.69404516797E+02 -0.63618266254E+02  0.15727922326E+03  0.12509000000E+03 0.  0.
         25    1    4    4    0    0 -0.70619035956E+01  0.61617209670E+02  0.99113697830E+02  0.17122378400E+03  0.12509000000E+03 0.  0.
         25    1    4    4    0    0  0.22061077400E+02  0.77873071274E+01  0.32691151455E+02  0.13139083976E+03  0.12509000000E+03 0.  0.
<mgrwt>
<rscale>  2 0.45481088E+03</rscale>
<asrwt>0</asrwt>
<pdfrwt beam="1">  1       21 0.38829443E-01 0.45481088E+03</pdfrwt>
<pdfrwt beam="2">  1       21 0.28802005E-01 0.45481088E+03</pdfrwt>
<totfact> 0.68291240E+04</totfact>
</mgrwt>
</event>
<event>
 7    0  0.4725730E-002  0.4446587E+03  0.7546771E-02  0.1029327E+00
         21   -1    0    0  502  501  0.00000000000E+00  0.00000000000E+00  0.25862663127E+03  0.25862663127E+03  0.00000000000E+00 0.  1.
         21   -1    0    0  501  502 -0.00000000000E+00 -0.00000000000E+00 -0.19112627005E+03  0.19112627005E+03  0.00000000000E+00 0.  1.
      99926    2    1    2    0    0  0.00000000000E+00  0.71054273576E-14  0.67500361214E+02  0.44975290132E+03  0.44465871574E+03 0.  0.
      99925    2    3    3    0    0 -0.39892966942E+02  0.42835624204E+02  0.12899775683E+03  0.29857162841E+03  0.26282742724E+03 0.  0.
         25    1    4    4    0    0 -0.35307245497E+02  0.38514637845E+02  0.10398012992E+03  0.17084892283E+03  0.12509000000E+03 0.  0.
         25    1    4    4    0    0 -0.45857214451E+01  0.43209863592E+01  0.25017626910E+02  0.12772270558E+03  0.12509000000E+03 0.  0.
         25    1    3    3    0    0  0.39892966942E+02 -0.42835624204E+02 -0.61497395616E+02  0.15118127291E+03  0.12509000000E+03 0.  0.
<mgrwt>
<rscale>  2 0.44465872E+03</rscale>
<asrwt>0</asrwt>
<pdfrwt beam="1">  1       21 0.38033328E-01 0.44465872E+03</pdfrwt>
<pdfrwt beam="2">  1       21 0.28106804E-01 0.44465872E+03</pdfrwt>
<totfact> 0.74924715E+04</totfact>
</mgrwt>
</event>
<event>
 7    0  0.4725730E-002  0.4544394E+03  0.7546771E-02  0.1026406E+00
         21   -1    0    0  502  501  0.00000000000E+00  0.00000000000E+00  0.48380670948E+03  0.48380670948E+03  0.00000000000E+00 0. -1.
         21   -1    0    0  501  502 -0.00000000000E+00 -0.00000000000E+00 -0.10671367465E+03  0.10671367465E+03  0.00000000000E+00 0. -1.
      99926    2    1    2    0    0  0.00000000000E+00  0.00000000000E+00  0.37709303483E+03  0.59052038414E+03  0.45443939878E+03 0.  0.
      99925    2    3    3    0    0 -0.78453898171E+02  0.67284993542E+02  0.29566574522E+03  0.40897095261E+03  0.26297665807E+03 0.  0.
         25    1    4    4    0    0 -0.55600192234E+01  0.56031640580E+02  0.13667859276E+03  0.19364659661E+03  0.12509000000E+03 0.  0.
         25    1    4    4    0    0 -0.72893878948E+02  0.11253352962E+02  0.15898715245E+03  0.21532435600E+03  0.12509000000E+03 0.  0.
         25    1    3    3    0    0  0.78453898171E+02 -0.67284993542E+02  0.81427289615E+02  0.18154943153E+03  0.12509000000E+03 0.  0.
<mgrwt>
<rscale>  2 0.45443940E+03</rscale>
<asrwt>0</asrwt>
<pdfrwt beam="1">  1       21 0.71148045E-01 0.45443940E+03</pdfrwt>
<pdfrwt beam="2">  1       21 0.15693188E-01 0.45443940E+03</pdfrwt>
<totfact> 0.59528901E+04</totfact>
</mgrwt>
</event>
<event>
 7    0  0.4725730E-002  0.4603145E+03  0.7546771E-02  0.1024690E+00
         21   -1    0    0  502  501  0.00000000000E+00  0.00000000000E+00  0.11373418219E+03  0.11373418219E+03  0.00000000000E+00 0.  1.
         21   -1    0    0  501  502 -0.00000000000E+00 -0.00000000000E+00 -0.46575582019E+03  0.46575582019E+03  0.00000000000E+00 0.  1.
      99926    2    1    2    0    0 -0.88817841970E-15  0.00000000000E+00 -0.35202163801E+03  0.57949000238E+03  0.46031448949E+03 0.  0.
      99925    2    3    3    0    0  0.70029467229E+01  0.38986043482E+02 -0.36067123240E+03  0.44799370421E+03  0.26276542444E+03 0.  0.
         25    1    4    4    0    0  0.12235710755E+02 -0.20089761484E+02 -0.17510742965E+03  0.21647963219E+03  0.12509000000E+03 0.  0.
         25    1    4    4    0    0 -0.52327640317E+01  0.59075804967E+02 -0.18556380275E+03  0.23151407202E+03  0.12509000000E+03 0.  0.
         25    1    3    3    0    0 -0.70029467229E+01 -0.38986043482E+02  0.86495943935E+01  0.13149629817E+03  0.12509000000E+03 0.  0.
<mgrwt>
<rscale>  2 0.46031449E+03</rscale>
<asrwt>0</asrwt>
<pdfrwt beam="1">  1       21 0.16725615E-01 0.46031449E+03</pdfrwt>
<pdfrwt beam="2">  1       21 0.68493504E-01 0.46031449E+03</pdfrwt>
<totfact> 0.57504345E+04</totfact>
</mgrwt>
</event>
<event>
 7    0  0.4725730E-002  0.4568575E+03  0.7546771E-02  0.1025697E+00
         21   -1    0    0  502  501  0.00000000000E+00  0.00000000000E+00  0.29721396241E+03  0.29721396241E+03  0.00000000000E+00 0. -1.
         21   -1    0    0  501  502 -0.00000000000E+00 -0.00000000000E+00 -0.17556273337E+03  0.17556273337E+03  0.00000000000E+00 0. -1.
      99926    2    1    2    0    0  0.00000000000E+00  0.00000000000E+00  0.12165122904E+03  0.47277669578E+03  0.45685750793E+03 0.  0.
      99925    2    3    3    0    0 -0.31342523147E+02 -0.36055980558E+01  0.19079621175E+03  0.32640767301E+03  0.26295136525E+03 0.  0.
         25    1    4    4    0    0 -0.45736828477E+02  0.83496212218E+01  0.12911536594E+03  0.18568753183E+03  0.12509000000E+03 0.  0.
         25    1    3    3    0    0  0.31342523147E+02  0.36055980558E+01 -0.69144982713E+02  0.14636902278E+03  0.12509000000E+03 0.  0.
         25    1    4    4    0    0  0.14394305330E+02 -0.11955219278E+02  0.61680845806E+02  0.14072014118E+03  0.12509000000E+03 0.  0.
<mgrwt>
<rscale>  2 0.45685751E+03</rscale>
<asrwt>0</asrwt>
<pdfrwt beam="1">  1       21 0.43707936E-01 0.45685751E+03</pdfrwt>
<pdfrwt beam="2">  1       21 0.25818049E-01 0.45685751E+03</pdfrwt>
<totfact> 0.66248102E+04</totfact>
</mgrwt>
</event>
<event>
 7    0  0.4725730E-002  0.4564120E+03  0.7546771E-02  0.1025827E+00
         21   -1    0    0  502  501  0.00000000000E+00  0.00000000000E+00  0.42296805056E+03  0.42296805056E+03  0.00000000000E+00 0. -1.
         21   -1    0    0  501  502 -0.00000000000E+00 -0.00000000000E+00 -0.12312509736E+03  0.12312509736E+03  0.00000000000E+00 0. -1.
      99926    2    1    2    0    0  0.00000000000E+00 -0.35527136788E-14  0.29984295320E+03  0.54609314792E+03  0.45641201739E+03 0.  0.
      99925    2    3    3    0    0 -0.44589676111E+02  0.25691293063E+02  0.66180773566E+02  0.27610462215E+03  0.26306954561E+03 0.  0.
         25    1    4    4    0    0 -0.13908841246E+02  0.32538480017E+02  0.68833606863E+02  0.14709786566E+03  0.12509000000E+03 0.  0.
         25    1    3    3    0    0  0.44589676111E+02 -0.25691293063E+02  0.23366217964E+03  0.26998852577E+03  0.12509000000E+03 0.  0.
         25    1    4    4    0    0 -0.30680834865E+02 -0.68471869543E+01 -0.26528332970E+01  0.12900675650E+03  0.12509000000E+03 0.  0.
<mgrwt>
<rscale>  2 0.45641202E+03</rscale>
<asrwt>0</asrwt>
<pdfrwt beam="1">  1       21 0.62201184E-01 0.45641202E+03</pdfrwt>
<pdfrwt beam="2">  1       21 0.18106632E-01 0.45641202E+03</pdfrwt>
<totfact> 0.61436119E+04</totfact>
</mgrwt>
</event>
<event>
 7    0  0.4725730E-002  0.4510238E+03  0.7546771E-02  0.1027417E+00
         21   -1    0    0  502  501  0.00000000000E+00  0.00000000000E+00  0.34230262374E+03  0.34230262374E+03  0.00000000000E+00 0.  1.
         21   -1    0    0  501  502 -0.00000000000E+00 -0.00000000000E+00 -0.14856915626E+03  0.14856915626E+03  0.00000000000E+00 0.  1.
      99926    2    1    2    0    0 -0.71054273576E-14  0.00000000000E+00  0.19373346748E+03  0.49087178001E+03  0.45102377763E+03 0.  0.
      99925    2    3    3    0    0  0.50982626257E+02  0.75752520590E+02  0.56830789714E+02  0.28416540895E+03  0.26302579423E+03 0.  0.
         25    1    4    4    0    0  0.59161895366E+02  0.51847089849E+02  0.95687889793E+01  0.14807876422E+03  0.12509000000E+03 0.  0.
         25    1    3    3    0    0 -0.50982626257E+02 -0.75752520590E+02  0.13690267776E+03  0.20670637105E+03  0.12509000000E+03 0.  0.
         25    1    4    4    0    0 -0.81792691091E+01  0.23905430741E+02  0.47262000735E+02  0.13608664474E+03  0.12509000000E+03 0.  0.
<mgrwt>
<rscale>  2 0.45102378E+03</rscale>
<asrwt>0</asrwt>
<pdfrwt beam="1">  1       21 0.50338621E-01 0.45102378E+03</pdfrwt>
<pdfrwt beam="2">  1       21 0.21848405E-01 0.45102378E+03</pdfrwt>
<totfact> 0.68039304E+04</totfact>
</mgrwt>
</event>
<event>
 7    0  0.4725730E-002  0.4590323E+03  0.7546771E-02  0.1025062E+00
         21   -1    0    0  502  501  0.00000000000E+00  0.00000000000E+00  0.44389490116E+03  0.44389490116E+03  0.00000000000E+00 0.  1.
         21   -1    0    0  501  502 -0.00000000000E+00 -0.00000000000E+00 -0.11867148546E+03  0.11867148546E+03  0.00000000000E+00 0.  1.
      99926    2    1    2    0    0  0.00000000000E+00  0.00000000000E+00  0.32522341570E+03  0.56256638663E+03  0.45903231830E+03 0.  0.
      99925    2    3    3    0    0  0.68731149480E+02 -0.76400278104E+02  0.13585711709E+03  0.31343173116E+03  0.26309944970E+03 0.  0.
         25    1    3    3    0    0 -0.68731149480E+02  0.76400278104E+02  0.18936629861E+03  0.24913465546E+03  0.12509000000E+03 0.  0.
         25    1    4    4    0    0  0.46477414924E+02 -0.78395180339E+02  0.84893315148E+02  0.17652290915E+03  0.12509000000E+03 0.  0.
         25    1    4    4    0    0  0.22253734555E+02  0.19949022357E+01  0.50963801943E+02  0.13690882201E+03  0.12509000000E+03 0.  0.
<mgrwt>
<rscale>  2 0.45903232E+03</rscale>
<asrwt>0</asrwt>
<pdfrwt beam="1">  1       21 0.65278661E-01 0.45903232E+03</pdfrwt>
<pdfrwt beam="2">  1       21 0.17451689E-01 0.45903232E+03</pdfrwt>
<totfact> 0.59134972E+04</totfact>
</mgrwt>
</event>
<event>
 7    0  0.4725730E-002  0.4556238E+03  0.7546771E-02  0.1026058E+00
         21   -1    0    0  502  501  0.00000000000E+00  0.00000000000E+00  0.24187020453E+02  0.24187020453E+02  0.00000000000E+00 0. -1.
         21   -1    0    0  501  502 -0.00000000000E+00 -0.00000000000E+00 -0.21457069398E+04  0.21457069398E+04  0.00000000000E+00 0. -1.
      99926    2    1    2    0    0  0.00000000000E+00  0.00000000000E+00 -0.21215199194E+04  0.21698939603E+04  0.45562378182E+03 0.  0.
      99925    2    3    3    0    0 -0.51404853231E+02 -0.44131529500E+02 -0.17690598449E+04  0.17898075714E+04  0.26315082536E+03 0.  0.
         25    1    4    4    0    0 -0.22457208402E+02 -0.10882373286E+02 -0.11267583985E+04  0.11339553558E+04  0.12509000000E+03 0.  0.
         25    1    3    3    0    0  0.51404853231E+02  0.44131529500E+02 -0.35246007449E+03  0.38008638892E+03  0.12509000000E+03 0.  0.
         25    1    4    4    0    0 -0.28947644830E+02 -0.33249156214E+02 -0.64230144643E+03  0.65585221560E+03  0.12509000000E+03 0.  0.
<mgrwt>
<rscale>  2 0.45562378E+03</rscale>
<asrwt>0</asrwt>
<pdfrwt beam="1">  1       21 0.35569142E-02 0.45562378E+03</pdfrwt>
<pdfrwt beam="2">  1       21 0.31554519E+00 0.45562378E+03</pdfrwt>
<totfact> 0.11075323E+04</totfact>
</mgrwt>
</event>
<event>
 7    0  0.4725730E-002  0.4276376E+03  0.7546771E-02  0.1034609E+00
         21   -1    0    0  502  501  0.00000000000E+00  0.00000000000E+00  0.77781113301E+02  0.77781113301E+02  0.00000000000E+00 0.  1.
         21   -1    0    0  501  502 -0.00000000000E+00 -0.00000000000E+00 -0.58778377290E+03  0.58778377290E+03  0.00000000000E+00 0.  1.
      99926    2    1    2    0    0  0.00000000000E+00  0.00000000000E+00 -0.51000265960E+03  0.66556488621E+03  0.42763758598E+03 0.  0.
      99925    2    3    3    0    0 -0.50673669533E+02 -0.68540249793E+02 -0.32009236509E+03  0.42270893160E+03  0.26259880434E+03 0.  0.
         25    1    4    4    0    0 -0.17892846231E+02 -0.74329003929E+02 -0.17357964722E+03  0.22720553867E+03  0.12509000000E+03 0.  0.
         25    1    3    3    0    0  0.50673669533E+02  0.68540249793E+02 -0.18991029451E+03  0.24285595460E+03  0.12509000000E+03 0.  0.
         25    1    4    4    0    0 -0.32780823302E+02  0.57887541359E+01 -0.14651271787E+03  0.19550339293E+03  0.12509000000E+03 0.  0.
<mgrwt>
<rscale>  2 0.42763759E+03</rscale>
<asrwt>0</asrwt>
<pdfrwt beam="1">  1       21 0.11438399E-01 0.42763759E+03</pdfrwt>
<pdfrwt beam="2">  1       21 0.86438787E-01 0.42763759E+03</pdfrwt>
<totfact> 0.68408751E+04</totfact>
</mgrwt>
</event>
<event>
 7    0  0.4725730E-002  0.4647841E+03  0.7546771E-02  0.1023403E+00
         21   -1    0    0  502  501  0.00000000000E+00  0.00000000000E+00  0.59524628448E+03  0.59524628448E+03  0.00000000000E+00 0. -1.
         21   -1    0    0  501  502 -0.00000000000E+00 -0.00000000000E+00 -0.90728929564E+02  0.90728929564E+02  0.00000000000E+00 0. -1.
      99926    2    1    2    0    0  0.00000000000E+00  0.00000000000E+00  0.50451735492E+03  0.68597521404E+03  0.46478407123E+03 0.  0.
      99925    2    3    3    0    0 -0.57782043091E+02 -0.65730732196E+02  0.18882207234E+03  0.33530398169E+03  0.26289863346E+03 0.  0.
         25    1    4    4    0    0 -0.31990891017E+02 -0.55553890880E+02  0.13943832450E+03  0.19799041981E+03  0.12509000000E+03 0.  0.
         25    1    4    4    0    0 -0.25791152074E+02 -0.10176841316E+02  0.49383747846E+02  0.13731356188E+03  0.12509000000E+03 0.  0.
         25    1    3    3    0    0  0.57782043091E+02  0.65730732196E+02  0.31569528257E+03  0.35067123235E+03  0.12509000000E+03 0.  0.
<mgrwt>
<rscale>  2 0.46478407E+03</rscale>
<asrwt>0</asrwt>
<pdfrwt beam="1">  1       21 0.87536217E-01 0.46478407E+03</pdfrwt>
<pdfrwt beam="2">  1       21 0.13342490E-01 0.46478407E+03</pdfrwt>
<totfact> 0.49726362E+04</totfact>
</mgrwt>
</event>
<event>
 7    0  0.4725730E-002  0.4552726E+03  0.7546771E-02  0.1026161E+00
         21   -1    0    0  502  501  0.00000000000E+00  0.00000000000E+00  0.74286555490E+03  0.74286555490E+03  0.00000000000E+00 0. -1.
         21   -1    0    0  501  502 -0.00000000000E+00 -0.00000000000E+00 -0.69754594352E+02  0.69754594352E+02  0.00000000000E+00 0. -1.
      99926    2    1    2    0    0  0.00000000000E+00  0.00000000000E+00  0.67311096055E+03  0.81262014926E+03  0.45527260159E+03 0.  0.
      99925    2    3    3    0    0 -0.96947198507E+01 -0.83845601572E+02  0.28973675675E+03  0.40061607072E+03  0.26348012336E+03 0.  0.
         25    1    4    4    0    0  0.14634182600E+02 -0.12968448658E+02  0.16982143983E+03  0.21182343942E+03  0.12509000000E+03 0.  0.
         25    1    4    4    0    0 -0.24328902451E+02 -0.70877152913E+02  0.11991531693E+03  0.18879263130E+03  0.12509000000E+03 0.  0.
         25    1    3    3    0    0  0.96947198507E+01  0.83845601572E+02  0.38337420380E+03  0.41200407854E+03  0.12509000000E+03 0.  0.
<mgrwt>
<rscale>  2 0.45527260E+03</rscale>
<asrwt>0</asrwt>
<pdfrwt beam="1">  1       21 0.10924493E+00 0.45527260E+03</pdfrwt>
<pdfrwt beam="2">  1       21 0.10258029E-01 0.45527260E+03</pdfrwt>
<totfact> 0.47059694E+04</totfact>
</mgrwt>
</event>
<event>
 7    0  0.4725730E-002  0.4589435E+03  0.7546771E-02  0.1025088E+00
         21   -1    0    0  502  501  0.00000000000E+00  0.00000000000E+00  0.11986982362E+03  0.11986982362E+03  0.00000000000E+00 0.  1.
         21   -1    0    0  501  502 -0.00000000000E+00 -0.00000000000E+00 -0.43928724281E+03  0.43928724281E+03  0.00000000000E+00 0.  1.
      99926    2    1    2    0    0  0.00000000000E+00  0.00000000000E+00 -0.31941741919E+03  0.55915706643E+03  0.45894350117E+03 0.  0.
      99925    2    3    3    0    0  0.28770121581E+02 -0.57428583729E+02 -0.81399568383E+02  0.28270495932E+03  0.26300274175E+03 0.  0.
         25    1    4    4    0    0  0.55890090253E+01 -0.25072612989E+02  0.10223781493E+01  0.12770444903E+03  0.12509000000E+03 0.  0.
         25    1    4    4    0    0  0.23181112556E+02 -0.32355970740E+02 -0.82421946533E+02  0.15500051030E+03  0.12509000000E+03 0.  0.
         25    1    3    3    0    0 -0.28770121581E+02  0.57428583729E+02 -0.23801785080E+03  0.27645210711E+03  0.12509000000E+03 0.  0.
<mgrwt>
<rscale>  2 0.45894350E+03</rscale>
<asrwt>0</asrwt>
<pdfrwt beam="1">  1       21 0.17627915E-01 0.45894350E+03</pdfrwt>
<pdfrwt beam="2">  1       21 0.64601064E-01 0.45894350E+03</pdfrwt>
<totfact> 0.59391016E+04</totfact>
</mgrwt>
</event>
<event>
 7    0  0.4725730E-002  0.4512243E+03  0.7546771E-02  0.1027358E+00
         21   -1    0    0  502  501  0.00000000000E+00  0.00000000000E+00  0.29851059205E+03  0.29851059205E+03  0.00000000000E+00 0.  1.
         21   -1    0    0  501  502 -0.00000000000E+00 -0.00000000000E+00 -0.17051606189E+03  0.17051606189E+03  0.00000000000E+00 0.  1.
      99926    2    1    2    0    0  0.00000000000E+00  0.00000000000E+00  0.12799453017E+03  0.46902665394E+03  0.45122433706E+03 0.  0.
      99925    2    3    3    0    0 -0.45842620712E+02  0.43456423131E+02 -0.12303079961E+02  0.27073158569E+03  0.26297189798E+03 0.  0.
         25    1    4    4    0    0 -0.27254140061E+02  0.62660392556E+02 -0.59477976497E+01  0.14266042669E+03  0.12509000000E+03 0.  0.
         25    1    4    4    0    0 -0.18588480651E+02 -0.19203969425E+02 -0.63552823112E+01  0.12807115900E+03  0.12509000000E+03 0.  0.
         25    1    3    3    0    0  0.45842620712E+02 -0.43456423131E+02  0.14029761013E+03  0.19829506825E+03  0.12509000000E+03 0.  0.
<mgrwt>
<rscale>  2 0.45122434E+03</rscale>
<asrwt>0</asrwt>
<pdfrwt beam="1">  1       21 0.43898617E-01 0.45122434E+03</pdfrwt>
<pdfrwt beam="2">  1       21 0.25075891E-01 0.45122434E+03</pdfrwt>
<totfact> 0.69568869E+04</totfact>
</mgrwt>
</event>
<event>
 7    0  0.4725730E-002  0.4476653E+03  0.7546771E-02  0.1028421E+00
         21   -1    0    0  502  501  0.00000000000E+00  0.00000000000E+00  0.33881598203E+02  0.33881598203E+02  0.00000000000E+00 0.  1.
         21   -1    0    0  501  502 -0.00000000000E+00 -0.00000000000E+00 -0.14787098157E+04  0.14787098157E+04  0.00000000000E+00 0.  1.
      99926    2    1    2    0    0  0.00000000000E+00  0.00000000000E+00 -0.14448282175E+04  0.15125914139E+04  0.44766528494E+03 0.  0.
      99925    2    3    3    0    0 -0.73482057972E+02 -0.52920661756E+02 -0.11029466299E+04  0.11374504573E+04  0.26287271658E+03 0.  0.
         25    1    3    3    0    0  0.73482057972E+02  0.52920661756E+02 -0.34188158763E+03  0.37514095663E+03  0.12509000000E+03 0.  0.
         25    1    4    4    0    0 -0.19853142350E+02 -0.61637636638E+02 -0.60330394241E+03  0.61952925721E+03  0.12509000000E+03 0.  0.
         25    1    4    4    0    0 -0.53628915622E+02  0.87169748821E+01 -0.49964268748E+03  0.51792120008E+03  0.12509000000E+03 0.  0.
<mgrwt>
<rscale>  2 0.44766528E+03</rscale>
<asrwt>0</asrwt>
<pdfrwt beam="1">  1       21 0.49825887E-02 0.44766528E+03</pdfrwt>
<pdfrwt beam="2">  1       21 0.21745729E+00 0.44766528E+03</pdfrwt>
<totfact> 0.24858525E+04</totfact>
</mgrwt>
</event>
<event>
 7    0  0.4725730E-002  0.4567766E+03  0.7546771E-02  0.1025720E+00
         21   -1    0    0  502  501  0.00000000000E+00  0.00000000000E+00  0.33044499533E+03  0.33044499533E+03  0.00000000000E+00 0.  1.
         21   -1    0    0  501  502 -0.00000000000E+00 -0.00000000000E+00 -0.15785141773E+03  0.15785141773E+03  0.00000000000E+00 0.  1.
      99926    2    1    2    0    0  0.00000000000E+00  0.35527136788E-14  0.17259357760E+03  0.48829641306E+03  0.45677657994E+03 0.  0.
      99925    2    3    3    0    0  0.86931789563E+02  0.19172102700E+02  0.18557674860E+03  0.33421599124E+03  0.26331899594E+03 0.  0.
         25    1    3    3    0    0 -0.86931789563E+02 -0.19172102700E+02 -0.12983170998E+02  0.15408042182E+03  0.12509000000E+03 0.  0.
         25    1    4    4    0    0  0.62002310371E+02 -0.93613357356E+01  0.57682192522E+02  0.15134947814E+03  0.12509000000E+03 0.  0.
         25    1    4    4    0    0  0.24929479192E+02  0.28533438436E+02  0.12789455608E+03  0.18286651311E+03  0.12509000000E+03 0.  0.
<mgrwt>
<rscale>  2 0.45677658E+03</rscale>
<asrwt>0</asrwt>
<pdfrwt beam="1">  1       21 0.48594852E-01 0.45677658E+03</pdfrwt>
<pdfrwt beam="2">  1       21 0.23213444E-01 0.45677658E+03</pdfrwt>
<totfact> 0.65176879E+04</totfact>
</mgrwt>
</event>
<event>
 7    0  0.4725730E-002  0.4539989E+03  0.7546771E-02  0.1026536E+00
         21   -1    0    0  502  501  0.00000000000E+00  0.00000000000E+00  0.37710696924E+02  0.37710696924E+02  0.00000000000E+00 0. -1.
         21   -1    0    0  501  502 -0.00000000000E+00 -0.00000000000E+00 -0.13664224913E+04  0.13664224913E+04  0.00000000000E+00 0. -1.
      99926    2    1    2    0    0  0.17763568394E-14  0.71054273576E-14 -0.13287117943E+04  0.14041331882E+04  0.45399887418E+03 0.  0.
      99925    2    3    3    0    0 -0.59901731377E+01 -0.57955787886E+02 -0.54096967333E+03  0.60439578576E+03  0.26315646080E+03 0.  0.
         25    1    4    4    0    0 -0.17755193026E+02 -0.44480152912E+02 -0.35617529946E+03  0.38052868871E+03  0.12509000000E+03 0.  0.
         25    1    3    3    0    0  0.59901731377E+01  0.57955787886E+02 -0.78774212102E+03  0.79973740243E+03  0.12509000000E+03 0.  0.
         25    1    4    4    0    0  0.11765019888E+02 -0.13475634974E+02 -0.18479437387E+03  0.22386709705E+03  0.12509000000E+03 0.  0.
<mgrwt>
<rscale>  2 0.45399887E+03</rscale>
<asrwt>0</asrwt>
<pdfrwt beam="1">  1       21 0.55456918E-02 0.45399887E+03</pdfrwt>
<pdfrwt beam="2">  1       21 0.20094445E+00 0.45399887E+03</pdfrwt>
<totfact> 0.26427073E+04</totfact>
</mgrwt>
</event>
<event>
 7    0  0.4725730E-002  0.4402767E+03  0.7546771E-02  0.1030662E+00
         21   -1    0    0  502  501  0.00000000000E+00  0.00000000000E+00  0.63518751583E+02  0.63518751583E+02  0.00000000000E+00 0. -1.
         21   -1    0    0  501  502 -0.00000000000E+00 -0.00000000000E+00 -0.76293834603E+03  0.76293834603E+03  0.00000000000E+00 0. -1.
      99926    2    1    2    0    0  0.00000000000E+00  0.00000000000E+00 -0.69941959445E+03  0.82645709762E+03  0.44027669152E+03 0.  0.
      99925    2    3    3    0    0  0.39590811890E+02 -0.75119971759E+02 -0.54075608929E+03  0.60729492362E+03  0.26302002509E+03 0.  0.
         25    1    3    3    0    0 -0.39590811890E+02  0.75119971759E+02 -0.15866350516E+03  0.21916217400E+03  0.12509000000E+03 0.  0.
         25    1    4    4    0    0  0.31810352203E+02 -0.12250083149E+02 -0.32580123039E+03  0.35065069923E+03  0.12509000000E+03 0.  0.
         25    1    4    4    0    0  0.77804596870E+01 -0.62869888609E+02 -0.21495485890E+03  0.25664422439E+03  0.12509000000E+03 0.  0.
<mgrwt>
<rscale>  2 0.44027669E+03</rscale>
<asrwt>0</asrwt>
<pdfrwt beam="1">  1       21 0.93409936E-02 0.44027669E+03</pdfrwt>
<pdfrwt beam="2">  1       21 0.11219681E+00 0.44027669E+03</pdfrwt>
<totfact> 0.52296265E+04</totfact>
</mgrwt>
</event>
<event>
 7    0  0.4725730E-002  0.4563653E+03  0.7546771E-02  0.1025841E+00
         21   -1    0    0  502  501  0.00000000000E+00  0.00000000000E+00  0.12838798283E+03  0.12838798283E+03  0.00000000000E+00 0. -1.
         21   -1    0    0  501  502 -0.00000000000E+00 -0.00000000000E+00 -0.40554676675E+03  0.40554676675E+03  0.00000000000E+00 0. -1.
      99926    2    1    2    0    0  0.00000000000E+00  0.14210854715E-13 -0.27715878393E+03  0.53393474958E+03  0.45636534192E+03 0.  0.
      99925    2    3    3    0    0  0.39733124431E+02 -0.98754354864E+02 -0.12514727167E+03  0.31013539359E+03  0.26304178180E+03 0.  0.
         25    1    4    4    0    0  0.39837623628E+02 -0.42775204338E+02 -0.10078081471E+03  0.17094161306E+03  0.12509000000E+03 0.  0.
         25    1    4    4    0    0 -0.10449919762E+00 -0.55979150526E+02 -0.24366456959E+02  0.13919378053E+03  0.12509000000E+03 0.  0.
         25    1    3    3    0    0 -0.39733124431E+02  0.98754354864E+02 -0.15201151226E+03  0.22379935599E+03  0.12509000000E+03 0.  0.
<mgrwt>
<rscale>  2 0.45636534E+03</rscale>
<asrwt>0</asrwt>
<pdfrwt beam="1">  1       21 0.18880586E-01 0.45636534E+03</pdfrwt>
<pdfrwt beam="2">  1       21 0.59639230E-01 0.45636534E+03</pdfrwt>
<totfact> 0.62264421E+04</totfact>
</mgrwt>
</event>
<event>
 7    0  0.4725730E-002  0.4027079E+03  0.7546771E-02  0.1042846E+00
         21   -1    0    0  502  501  0.00000000000E+00  0.00000000000E+00  0.11797065581E+03  0.11797065581E+03  0.00000000000E+00 0.  1.
         21   -1    0    0  501  502 -0.00000000000E+00 -0.00000000000E+00 -0.34367370276E+03  0.34367370276E+03  0.00000000000E+00 0.  1.
      99926    2    1    2    0    0 -0.17763568394E-14  0.00000000000E+00 -0.22570304694E+03  0.46164435857E+03  0.40270789463E+03 0.  0.
      99925    2    3    3    0    0 -0.14303382761E+02  0.35794222907E+02 -0.11274502177E+03  0.28874890836E+03  0.26301840048E+03 0.  0.
         25    1    3    3    0    0  0.14303382761E+02 -0.35794222907E+02 -0.11295802517E+03  0.17289545021E+03  0.12509000000E+03 0.  0.
         25    1    4    4    0    0 -0.38522425048E+02  0.40728968171E+02 -0.72320804760E+02  0.15498591220E+03  0.12509000000E+03 0.  0.
         25    1    4    4    0    0  0.24219042288E+02 -0.49347452632E+01 -0.40424217012E+02  0.13376299616E+03  0.12509000000E+03 0.  0.
<mgrwt>
<rscale>  2 0.40270789E+03</rscale>
<asrwt>0</asrwt>
<pdfrwt beam="1">  1       21 0.17348626E-01 0.40270789E+03</pdfrwt>
<pdfrwt beam="2">  1       21 0.50540250E-01 0.40270789E+03</pdfrwt>
<totfact> 0.10550196E+05</totfact>
</mgrwt>
</event>
<event>
 7    0  0.4725730E-002  0.4549203E+03  0.7546771E-02  0.1026265E+00
         21   -1    0    0  502  501  0.00000000000E+00  0.00000000000E+00  0.48629618817E+03  0.48629618817E+03  0.00000000000E+00 0. -1.
         21   -1    0    0  501  502 -0.00000000000E+00 -0.00000000000E+00 -0.10639217884E+03  0.10639217884E+03  0.00000000000E+00 0. -1.
      99926    2    1    2    0    0 -0.14210854715E-13 -0.44408920985E-15  0.37990400932E+03  0.59268836701E+03  0.45492026124E+03 0.  0.
      99925    2    3    3    0    0  0.11219150225E+03  0.18063861622E+01  0.26657107682E+03  0.39000127345E+03  0.26163076670E+03 0.  0.
         25    1    4    4    0    0  0.34239177137E+02 -0.29866775021E+02  0.13993459194E+03  0.19311536351E+03  0.12509000000E+03 0.  0.
         25    1    4    4    0    0  0.77952325109E+02  0.31673161183E+02  0.12663648488E+03  0.19688590994E+03  0.12509000000E+03 0.  0.
         25    1    3    3    0    0 -0.11219150225E+03 -0.18063861622E+01  0.11333293250E+03  0.20268709356E+03  0.12509000000E+03 0.  0.
<mgrwt>
<rscale>  2 0.45492026E+03</rscale>
<asrwt>0</asrwt>
<pdfrwt beam="1">  1       21 0.71514144E-01 0.45492026E+03</pdfrwt>
<pdfrwt beam="2">  1       21 0.15645909E-01 0.45492026E+03</pdfrwt>
<totfact> 0.59167865E+04</totfact>
</mgrwt>
</event>
<event>
 7    0  0.4725730E-002  0.4584096E+03  0.7546771E-02  0.1025243E+00
         21   -1    0    0  502  501  0.00000000000E+00  0.00000000000E+00  0.52333762897E+03  0.52333762897E+03  0.00000000000E+00 0.  1.
         21   -1    0    0  501  502 -0.00000000000E+00 -0.00000000000E+00 -0.10038423112E+03  0.10038423112E+03  0.00000000000E+00 0.  1.
      99926    2    1    2    0    0 -0.14210854715E-13  0.00000000000E+00  0.42295339785E+03  0.62372186009E+03  0.45840962250E+03 0.  0.
      99925    2    3    3    0    0  0.71875714474E+02 -0.48229839946E+02  0.15935636394E+03  0.31938135970E+03  0.26290257968E+03 0.  0.
         25    1    4    4    0    0  0.51588539303E+02 -0.88123840788E+01  0.11969459623E+03  0.18086829453E+03  0.12509000000E+03 0.  0.
         25    1    3    3    0    0 -0.71875714474E+02  0.48229839946E+02  0.26359703391E+03  0.30434050039E+03  0.12509000000E+03 0.  0.
         25    1    4    4    0    0  0.20287175170E+02 -0.39417455867E+02  0.39661767714E+02  0.13851306517E+03  0.12509000000E+03 0.  0.
<mgrwt>
<rscale>  2 0.45840962E+03</rscale>
<asrwt>0</asrwt>
<pdfrwt beam="1">  1       21 0.76961415E-01 0.45840962E+03</pdfrwt>
<pdfrwt beam="2">  1       21 0.14762387E-01 0.45840962E+03</pdfrwt>
<totfact> 0.55725920E+04</totfact>
</mgrwt>
</event>
<event>
 7    0  0.4725730E-002  0.4456207E+03  0.7546771E-02  0.1029036E+00
         21   -1    0    0  502  501  0.00000000000E+00  0.00000000000E+00  0.18640015690E+03  0.18640015690E+03  0.00000000000E+00 0. -1.
         21   -1    0    0  501  502 -0.00000000000E+00 -0.00000000000E+00 -0.26633267705E+03  0.26633267705E+03  0.00000000000E+00 0. -1.
      99926    2    1    2    0    0 -0.71054273576E-14  0.00000000000E+00 -0.79932520147E+02  0.45273283395E+03  0.44562070325E+03 0.  0.
      99925    2    3    3    0    0 -0.49760118463E+02  0.87160775763E+01  0.41938071334E+02  0.27093077520E+03  0.26285479590E+03 0.  0.
         25    1    4    4    0    0  0.13348177041E+02  0.10975622663E+02  0.67715450032E+01  0.12645947985E+03  0.12509000000E+03 0.  0.
         25    1    4    4    0    0 -0.63108295504E+02 -0.22595450868E+01  0.35166526331E+02  0.14447129535E+03  0.12509000000E+03 0.  0.
         25    1    3    3    0    0  0.49760118463E+02 -0.87160775763E+01 -0.12187059148E+03  0.18180205875E+03  0.12509000000E+03 0.  0.
<mgrwt>
<rscale>  2 0.44562070E+03</rscale>
<asrwt>0</asrwt>
<pdfrwt beam="1">  1       21 0.27411788E-01 0.44562070E+03</pdfrwt>
<pdfrwt beam="2">  1       21 0.39166570E-01 0.44562070E+03</pdfrwt>
<totfact> 0.74102424E+04</totfact>
</mgrwt>
</event>
<event>
 7    0  0.4725730E-002  0.4551439E+03  0.7546771E-02  0.1026199E+00
         21   -1    0    0  502  501  0.00000000000E+00  0.00000000000E+00  0.61773366706E+03  0.61773366706E+03  0.00000000000E+00 0.  1.
         21   -1    0    0  501  502 -0.00000000000E+00 -0.00000000000E+00 -0.83837099708E+02  0.83837099708E+02  0.00000000000E+00 0.  1.
      99926    2    1    2    0    0 -0.14210854715E-13  0.53290705182E-14  0.53389656735E+03  0.70157076677E+03  0.45514392905E+03 0.  0.
      99925    2    3    3    0    0  0.10136649025E+03 -0.12878845986E+02  0.26066314737E+03  0.38416717524E+03  0.26305534040E+03 0.  0.
         25    1    4    4    0    0  0.74070761977E+02 -0.40374293588E+02  0.14938122245E+03  0.21231773144E+03  0.12509000000E+03 0.  0.
         25    1    4    4    0    0  0.27295728276E+02  0.27495447602E+02  0.11128192492E+03  0.17184944380E+03  0.12509000000E+03 0.  0.
         25    1    3    3    0    0 -0.10136649025E+03  0.12878845986E+02  0.27323341998E+03  0.31740359152E+03  0.12509000000E+03 0.  0.
<mgrwt>
<rscale>  2 0.45514393E+03</rscale>
<asrwt>0</asrwt>
<pdfrwt beam="1">  1       21 0.90843184E-01 0.45514393E+03</pdfrwt>
<pdfrwt beam="2">  1       21 0.12328986E-01 0.45514393E+03</pdfrwt>
<totfact> 0.52757973E+04</totfact>
</mgrwt>
</event>
<event>
 7    0  0.4725730E-002  0.4553263E+03  0.7546771E-02  0.1026145E+00
         21   -1    0    0  502  501  0.00000000000E+00  0.00000000000E+00  0.66628757332E+02  0.66628757332E+02  0.00000000000E+00 0.  1.
         21   -1    0    0  501  502 -0.00000000000E+00 -0.00000000000E+00 -0.77789994067E+03  0.77789994067E+03  0.00000000000E+00 0.  1.
      99926    2    1    2    0    0 -0.14210854715E-13  0.17763568394E-14 -0.71127118334E+03  0.84452869800E+03  0.45532628466E+03 0.  0.
      99925    2    3    3    0    0  0.11336499422E+03 -0.29060579230E+01 -0.43932883817E+03  0.52443462701E+03  0.26298627887E+03 0.  0.
         25    1    4    4    0    0  0.29553885468E+02  0.26529950439E+02 -0.23144296757E+03  0.26606507805E+03  0.12509000000E+03 0.  0.
         25    1    4    4    0    0  0.83811108753E+02 -0.29436008362E+02 -0.20788587060E+03  0.25836954897E+03  0.12509000000E+03 0.  0.
         25    1    3    3    0    0 -0.11336499422E+03  0.29060579230E+01 -0.27194234516E+03  0.32009407099E+03  0.12509000000E+03 0.  0.
<mgrwt>
<rscale>  2 0.45532628E+03</rscale>
<asrwt>0</asrwt>
<pdfrwt beam="1">  1       21 0.97983469E-02 0.45532628E+03</pdfrwt>
<pdfrwt beam="2">  1       21 0.11439705E+00 0.45532628E+03</pdfrwt>
<totfact> 0.45568375E+04</totfact>
</mgrwt>
</event>
<event>
 7    0  0.4725730E-002  0.4451428E+03  0.7546771E-02  0.1029180E+00
         21   -1    0    0  502  501  0.00000000000E+00  0.00000000000E+00  0.38504402215E+02  0.38504402215E+02  0.00000000000E+00 0.  1.
         21   -1    0    0  501  502 -0.00000000000E+00 -0.00000000000E+00 -0.12865549938E+04  0.12865549938E+04  0.00000000000E+00 0.  1.
      99926    2    1    2    0    0  0.00000000000E+00  0.00000000000E+00 -0.12480505916E+04  0.13250593960E+04  0.44514281283E+03 0.  0.
      99925    2    3    3    0    0 -0.40761434906E+02 -0.92210467958E+02 -0.86648333333E+03  0.91104810915E+03  0.26277561774E+03 0.  0.
         25    1    3    3    0    0  0.40761434906E+02  0.92210467958E+02 -0.38156725827E+03  0.41401128687E+03  0.12509000000E+03 0.  0.
         25    1    4    4    0    0 -0.51428243470E+02 -0.41235823540E+02 -0.52380638927E+03  0.54255497317E+03  0.12509000000E+03 0.  0.
         25    1    4    4    0    0  0.10666808564E+02 -0.50974644418E+02 -0.34267694406E+03  0.36849313599E+03  0.12509000000E+03 0.  0.
<mgrwt>
<rscale>  2 0.44514281E+03</rscale>
<asrwt>0</asrwt>
<pdfrwt beam="1">  1       21 0.56624125E-02 0.44514281E+03</pdfrwt>
<pdfrwt beam="2">  1       21 0.18919925E+00 0.44514281E+03</pdfrwt>
<totfact> 0.30680603E+04</totfact>
</mgrwt>
</event>
<event>
 7    0  0.4725730E-002  0.4547038E+03  0.7546771E-02  0.1026329E+00
         21   -1    0    0  502  501  0.00000000000E+00  0.00000000000E+00  0.74713900077E+02  0.74713900077E+02  0.00000000000E+00 0. -1.
         21   -1    0    0  501  502 -0.00000000000E+00 -0.00000000000E+00 -0.69182410524E+03  0.69182410524E+03  0.00000000000E+00 0. -1.
      99926    2    1    2    0    0  0.00000000000E+00  0.00000000000E+00 -0.61711020516E+03  0.76653800532E+03  0.45470375881E+03 0.  0.
      99925    2    3    3    0    0 -0.37514967404E+02  0.80790318018E+02 -0.50519524868E+03  0.57651981185E+03  0.26309391080E+03 0.  0.
         25    1    4    4    0    0 -0.24249506839E+02  0.12231699347E+02 -0.30094214437E+03  0.32703415022E+03  0.12509000000E+03 0.  0.
         25    1    3    3    0    0  0.37514967404E+02 -0.80790318018E+02 -0.11191495648E+03  0.19001819347E+03  0.12509000000E+03 0.  0.
         25    1    4    4    0    0 -0.13265460565E+02  0.68558618671E+02 -0.20425310432E+03  0.24948566163E+03  0.12509000000E+03 0.  0.
<mgrwt>
<rscale>  2 0.45470376E+03</rscale>
<asrwt>0</asrwt>
<pdfrwt beam="1">  1       21 0.10987339E-01 0.45470376E+03</pdfrwt>
<pdfrwt beam="2">  1       21 0.10173883E+00 0.45470376E+03</pdfrwt>
<totfact> 0.49540883E+04</totfact>
</mgrwt>
</event>
<event>
 7    0  0.4725730E-002  0.4514564E+03  0.7546771E-02  0.1027289E+00
         21   -1    0    0  502  501  0.00000000000E+00  0.00000000000E+00  0.96709708424E+02  0.96709708424E+02  0.00000000000E+00 0. -1.
         21   -1    0    0  501  502 -0.00000000000E+00 -0.00000000000E+00 -0.52686778540E+03  0.52686778540E+03  0.00000000000E+00 0. -1.
      99926    2    1    2    0    0  0.00000000000E+00  0.00000000000E+00 -0.43015807698E+03  0.62357749383E+03  0.45145644266E+03 0.  0.
      99925    2    3    3    0    0  0.61037631153E+02  0.55401207241E+02 -0.17103243027E+03  0.32426412115E+03  0.26286924864E+03 0.  0.
         25    1    4    4    0    0  0.56563884480E+02  0.52337200104E+02 -0.11734427809E+03  0.18803149535E+03  0.12509000000E+03 0.  0.
         25    1    3    3    0    0 -0.61037631153E+02 -0.55401207241E+02 -0.25912564671E+03  0.29931337267E+03  0.12509000000E+03 0.  0.
         25    1    4    4    0    0  0.44737466730E+01  0.30640071371E+01 -0.53688152182E+02  0.13623262581E+03  0.12509000000E+03 0.  0.
<mgrwt>
<rscale>  2 0.45145644E+03</rscale>
<asrwt>0</asrwt>
<pdfrwt beam="1">  1       21 0.14222016E-01 0.45145644E+03</pdfrwt>
<pdfrwt beam="2">  1       21 0.77480558E-01 0.45145644E+03</pdfrwt>
<totfact> 0.58880122E+04</totfact>
</mgrwt>
</event>
<event>
 7    0  0.4725730E-002  0.5383947E+03  0.7546771E-02  0.1004216E+00
         21   -1    0    0  502  501  0.00000000000E+00  0.00000000000E+00  0.24459141085E+03  0.24459141085E+03  0.00000000000E+00 0. -1.
         21   -1    0    0  501  502 -0.00000000000E+00 -0.00000000000E+00 -0.29627864838E+03  0.29627864838E+03  0.00000000000E+00 0. -1.
      99926    2    1    2    0    0  0.35527136788E-14 -0.35527136788E-14 -0.51687237529E+02  0.54087005922E+03  0.53839469764E+03 0.  0.
      99925    2    3    3    0    0  0.21446988984E+02 -0.14106131072E+02  0.14874532025E+03  0.30321553142E+03  0.26297439405E+03 0.  0.
         25    1    4    4    0    0  0.30047092825E+02 -0.30005410953E+02  0.44539608754E+02  0.13940745074E+03  0.12509000000E+03 0.  0.
         25    1    4    4    0    0 -0.86001038412E+01  0.15899279881E+02  0.10420571149E+03  0.16380808068E+03  0.12509000000E+03 0.  0.
         25    1    3    3    0    0 -0.21446988984E+02  0.14106131072E+02 -0.20043255778E+03  0.23765452781E+03  0.12509000000E+03 0.  0.
<mgrwt>
<rscale>  2 0.53839470E+03</rscale>
<asrwt>0</asrwt>
<pdfrwt beam="1">  1       21 0.35969325E-01 0.53839470E+03</pdfrwt>
<pdfrwt beam="2">  1       21 0.43570389E-01 0.53839470E+03</pdfrwt>
<totfact> 0.33865073E+04</totfact>
</mgrwt>
</event>
<event>
 7    0  0.4725730E-002  0.4518696E+03  0.7546771E-02  0.1027166E+00
         21   -1    0    0  502  501  0.00000000000E+00  0.00000000000E+00  0.19787497846E+03  0.19787497846E+03  0.00000000000E+00 0. -1.
         21   -1    0    0  501  502 -0.00000000000E+00 -0.00000000000E+00 -0.25797363434E+03  0.25797363434E+03  0.00000000000E+00 0. -1.
      99926    2    1    2    0    0  0.00000000000E+00  0.00000000000E+00 -0.60098655877E+02  0.45584861280E+03  0.45186957118E+03 0.  0.
      99925    2    3    3    0    0  0.80893517753E+02  0.32049059390E+02  0.30503674990E+02  0.27857144597E+03  0.26287006847E+03 0.  0.
         25    1    3    3    0    0 -0.80893517753E+02 -0.32049059390E+02 -0.90602330867E+02  0.17727716683E+03  0.12509000000E+03 0.  0.
         25    1    4    4    0    0  0.25399459115E+02  0.36084739996E+02  0.46887160350E+02  0.14068814765E+03  0.12509000000E+03 0.  0.
         25    1    4    4    0    0  0.55494058638E+02 -0.40356806056E+01 -0.16383485360E+02  0.13788329832E+03  0.12509000000E+03 0.  0.
<mgrwt>
<rscale>  2 0.45186957E+03</rscale>
<asrwt>0</asrwt>
<pdfrwt beam="1">  1       21 0.29099262E-01 0.45186957E+03</pdfrwt>
<pdfrwt beam="2">  1       21 0.37937299E-01 0.45186957E+03</pdfrwt>
<totfact> 0.70220899E+04</totfact>
</mgrwt>
</event>
<event>
 7    0  0.4725730E-002  0.4457182E+03  0.7546771E-02  0.1029007E+00
         21   -1    0    0  502  501  0.00000000000E+00  0.00000000000E+00  0.58989000844E+02  0.58989000844E+02  0.00000000000E+00 0.  1.
         21   -1    0    0  501  502 -0.00000000000E+00 -0.00000000000E+00 -0.84195647680E+03  0.84195647680E+03  0.00000000000E+00 0.  1.
      99926    2    1    2    0    0  0.00000000000E+00  0.00000000000E+00 -0.78296747595E+03  0.90094547764E+03  0.44571816800E+03 0.  0.
      99925    2    3    3    0    0  0.39701644849E+02  0.61447000678E+02 -0.34662039020E+03  0.44116483229E+03  0.26292348668E+03 0.  0.
         25    1    4    4    0    0 -0.12931229431E+02  0.52376835769E+02 -0.18887967546E+03  0.23288106304E+03  0.12509000000E+03 0.  0.
         25    1    4    4    0    0  0.52632874280E+02  0.90701649087E+01 -0.15774071474E+03  0.20828376925E+03  0.12509000000E+03 0.  0.
         25    1    3    3    0    0 -0.39701644849E+02 -0.61447000678E+02 -0.43634708575E+03  0.45978064535E+03  0.12509000000E+03 0.  0.
<mgrwt>
<rscale>  2 0.44571817E+03</rscale>
<asrwt>0</asrwt>
<pdfrwt beam="1">  1       21 0.86748535E-02 0.44571817E+03</pdfrwt>
<pdfrwt beam="2">  1       21 0.12381712E+00 0.44571817E+03</pdfrwt>
<totfact> 0.46478332E+04</totfact>
</mgrwt>
</event>
<event>
 7    0  0.4725730E-002  0.4564087E+03  0.7546771E-02  0.1025828E+00
         21   -1    0    0  502  501  0.00000000000E+00  0.00000000000E+00  0.39180239800E+02  0.39180239800E+02  0.00000000000E+00 0. -1.
         21   -1    0    0  501  502 -0.00000000000E+00 -0.00000000000E+00 -0.13291705306E+04  0.13291705306E+04  0.00000000000E+00 0. -1.
      99926    2    1    2    0    0 -0.14210854715E-13  0.00000000000E+00 -0.12899902908E+04  0.13683507704E+04  0.45640867707E+03 0.  0.
      99925    2    3    3    0    0 -0.82918985255E+02 -0.68859126670E+02 -0.92699277700E+03  0.96956280598E+03  0.26290547483E+03 0.  0.
         25    1    4    4    0    0 -0.36169697499E+02 -0.33765225063E+01 -0.34220323613E+03  0.36615599250E+03  0.12509000000E+03 0.  0.
         25    1    4    4    0    0 -0.46749287757E+02 -0.65482604163E+02 -0.58478954087E+03  0.60340681349E+03  0.12509000000E+03 0.  0.
         25    1    3    3    0    0  0.82918985255E+02  0.68859126670E+02 -0.36299751383E+03  0.39878796445E+03  0.12509000000E+03 0.  0.
<mgrwt>
<rscale>  2 0.45640868E+03</rscale>
<asrwt>0</asrwt>
<pdfrwt beam="1">  1       21 0.57617993E-02 0.45640868E+03</pdfrwt>
<pdfrwt beam="2">  1       21 0.19546628E+00 0.45640868E+03</pdfrwt>
<totfact> 0.26892102E+04</totfact>
</mgrwt>
</event>
<event>
 7    0  0.4725730E-002  0.4501164E+03  0.7546771E-02  0.1027687E+00
         21   -1    0    0  502  501  0.00000000000E+00  0.00000000000E+00  0.12868010060E+03  0.12868010060E+03  0.00000000000E+00 0.  1.
         21   -1    0    0  501  502 -0.00000000000E+00 -0.00000000000E+00 -0.39362095973E+03  0.39362095973E+03  0.00000000000E+00 0.  1.
      99926    2    1    2    0    0  0.00000000000E+00  0.00000000000E+00 -0.26494085912E+03  0.52230106033E+03  0.45011636139E+03 0.  0.
      99925    2    3    3    0    0  0.21354189662E+02  0.85427315688E+01 -0.29068865300E+03  0.39253420529E+03  0.26278171485E+03 0.  0.
         25    1    4    4    0    0  0.40119058932E+02  0.56892234422E+01 -0.18885850139E+03  0.23012376626E+03  0.12509000000E+03 0.  0.
         25    1    3    3    0    0 -0.21354189662E+02 -0.85427315688E+01  0.25747793872E+02  0.12976685504E+03  0.12509000000E+03 0.  0.
         25    1    4    4    0    0 -0.18764869270E+02  0.28535081267E+01 -0.10183015161E+03  0.16241043902E+03  0.12509000000E+03 0.  0.
<mgrwt>
<rscale>  2 0.45011636E+03</rscale>
<asrwt>0</asrwt>
<pdfrwt beam="1">  1       21 0.18923544E-01 0.45011636E+03</pdfrwt>
<pdfrwt beam="2">  1       21 0.57885435E-01 0.45011636E+03</pdfrwt>
<totfact> 0.66258901E+04</totfact>
</mgrwt>
</event>
<event>
 7    0  0.4725730E-002  0.4552924E+03  0.7546771E-02  0.1026155E+00
         21   -1    0    0  502  501  0.00000000000E+00  0.00000000000E+00  0.87673966811E+02  0.87673966811E+02  0.00000000000E+00 0.  1.
         21   -1    0    0  501  502 -0.00000000000E+00 -0.00000000000E+00 -0.59108524128E+03  0.59108524128E+03  0.00000000000E+00 0.  1.
      99926    2    1    2    0    0  0.00000000000E+00  0.00000000000E+00 -0.50341127447E+03  0.67875920809E+03  0.45529238002E+03 0.  0.
      99925    2    3    3    0    0  0.10118394417E+03  0.33970374181E+02 -0.25908915266E+03  0.38425456605E+03  0.26293003940E+03 0.  0.
         25    1    4    4    0    0  0.44974011984E+02  0.55696354798E+02 -0.11759380312E+03  0.18601224778E+03  0.12509000000E+03 0.  0.
         25    1    3    3    0    0 -0.10118394417E+03 -0.33970374181E+02 -0.24432212181E+03  0.29450464205E+03  0.12509000000E+03 0.  0.
         25    1    4    4    0    0  0.56209932188E+02 -0.21725980617E+02 -0.14149534954E+03  0.19824231827E+03  0.12509000000E+03 0.  0.
<mgrwt>
<rscale>  2 0.45529238E+03</rscale>
<asrwt>0</asrwt>
<pdfrwt beam="1">  1       21 0.12893230E-01 0.45529238E+03</pdfrwt>
<pdfrwt beam="2">  1       21 0.86924301E-01 0.45529238E+03</pdfrwt>
<totfact> 0.53947605E+04</totfact>
</mgrwt>
</event>
<event>
 7    0  0.4725730E-002  0.4546026E+03  0.7546771E-02  0.1026358E+00
         21   -1    0    0  502  501  0.00000000000E+00  0.00000000000E+00  0.15736616348E+04  0.15736616348E+04  0.00000000000E+00 0. -1.
         21   -1    0    0  501  502 -0.00000000000E+00 -0.00000000000E+00 -0.32831639649E+02  0.32831639649E+02  0.00000000000E+00 0. -1.
      99926    2    1    2    0    0 -0.14210854715E-13 -0.71054273576E-14  0.15408299951E+04  0.16064932744E+04  0.45460264725E+03 0.  0.
      99925    2    3    3    0    0 -0.97493129863E+02 -0.48652431853E+02  0.86193207093E+03  0.90762141988E+03  0.26263620739E+03 0.  0.
         25    1    4    4    0    0 -0.25248495301E+02 -0.28574038040E+02  0.51366910421E+03  0.53005416599E+03  0.12509000000E+03 0.  0.
         25    1    3    3    0    0  0.97493129863E+02  0.48652431853E+02  0.67889792419E+03  0.69887185454E+03  0.12509000000E+03 0.  0.
         25    1    4    4    0    0 -0.72244634562E+02 -0.20078393813E+02  0.34826296673E+03  0.37756725390E+03  0.12509000000E+03 0.  0.
<mgrwt>
<rscale>  2 0.45460265E+03</rscale>
<asrwt>0</asrwt>
<pdfrwt beam="1">  1       21 0.23142078E+00 0.45460265E+03</pdfrwt>
<pdfrwt beam="2">  1       21 0.48281834E-02 0.45460265E+03</pdfrwt>
<totfact> 0.21349255E+04</totfact>
</mgrwt>
</event>
<event>
 7    0  0.4725730E-002  0.4556854E+03  0.7546771E-02  0.1026040E+00
         21   -1    0    0  502  501  0.00000000000E+00  0.00000000000E+00  0.18408913691E+04  0.18408913691E+04  0.00000000000E+00 0.  1.
         21   -1    0    0  501  502 -0.00000000000E+00 -0.00000000000E+00 -0.28199542623E+02  0.28199542623E+02  0.00000000000E+00 0.  1.
      99926    2    1    2    0    0  0.00000000000E+00  0.00000000000E+00  0.18126918265E+04  0.18690909118E+04  0.45568539423E+03 0.  0.
      99925    2    3    3    0    0  0.19295618046E+02  0.10604595650E+03  0.13030435539E+04  0.13333606293E+04  0.26136181510E+03 0.  0.
         25    1    3    3    0    0 -0.19295618046E+02 -0.10604595650E+03  0.50964827258E+03  0.53573028252E+03  0.12509000000E+03 0.  0.
         25    1    4    4    0    0 -0.11174527392E+02  0.55752251939E+02  0.79801872618E+03  0.80976205091E+03  0.12509000000E+03 0.  0.
         25    1    4    4    0    0  0.30470145438E+02  0.50293704562E+02  0.50502482776E+03  0.52359857834E+03  0.12509000000E+03 0.  0.
<mgrwt>
<rscale>  2 0.45568539E+03</rscale>
<asrwt>0</asrwt>
<pdfrwt beam="1">  1       21 0.27071924E+00 0.45568539E+03</pdfrwt>
<pdfrwt beam="2">  1       21 0.41469928E-02 0.45568539E+03</pdfrwt>
<totfact> 0.15882553E+04</totfact>
</mgrwt>
</event>
<event>
 7    0  0.4725730E-002  0.4899740E+03  0.7546771E-02  0.1016429E+00
         21   -1    0    0  502  501  0.00000000000E+00  0.00000000000E+00  0.18830502470E+03  0.18830502470E+03  0.00000000000E+00 0. -1.
         21   -1    0    0  501  502 -0.00000000000E+00 -0.00000000000E+00 -0.31873084098E+03  0.31873084098E+03  0.00000000000E+00 0. -1.
      99926    2    1    2    0    0  0.00000000000E+00  0.00000000000E+00 -0.13042581627E+03  0.50703586568E+03  0.48997395394E+03 0.  0.
      99925    2    3    3    0    0 -0.14107113769E+03  0.18300127557E+01 -0.10689937729E+03  0.31702161288E+03  0.26300344358E+03 0.  0.
         25    1    4    4    0    0 -0.67956258798E+02  0.22867946881E+02 -0.16918186844E+02  0.14517137890E+03  0.12509000000E+03 0.  0.
         25    1    4    4    0    0 -0.73114878892E+02 -0.21037934126E+02 -0.89981190443E+02  0.17185023399E+03  0.12509000000E+03 0.  0.
         25    1    3    3    0    0  0.14107113769E+03 -0.18300127557E+01 -0.23526438988E+02  0.19001425280E+03  0.12509000000E+03 0.  0.
<mgrwt>
<rscale>  2 0.48997395E+03</rscale>
<asrwt>0</asrwt>
<pdfrwt beam="1">  1       21 0.27691916E-01 0.48997395E+03</pdfrwt>
<pdfrwt beam="2">  1       21 0.46872182E-01 0.48997395E+03</pdfrwt>
<totfact> 0.49530901E+04</totfact>
</mgrwt>
</event>
<event>
 7    0  0.4725730E-002  0.4561668E+03  0.7546771E-02  0.1025899E+00
         21   -1    0    0  502  501  0.00000000000E+00  0.00000000000E+00  0.17563715825E+03  0.17563715825E+03  0.00000000000E+00 0.  1.
         21   -1    0    0  501  502 -0.00000000000E+00 -0.00000000000E+00 -0.29619043808E+03  0.29619043808E+03  0.00000000000E+00 0.  1.
      99926    2    1    2    0    0  0.14210854715E-13 -0.71054273576E-14 -0.12055327983E+03  0.47182759634E+03  0.45616684161E+03 0.  0.
      99925    2    3    3    0    0 -0.86370261201E+02  0.44907147531E+02 -0.13768865636E+03  0.31239860541E+03  0.26297955938E+03 0.  0.
         25    1    4    4    0    0 -0.67118192952E+02  0.56981338870E+02 -0.67828763826E+02  0.16733192794E+03  0.12509000000E+03 0.  0.
         25    1    4    4    0    0 -0.19252068248E+02 -0.12074191339E+02 -0.69859892532E+02  0.14506667747E+03  0.12509000000E+03 0.  0.
         25    1    3    3    0    0  0.86370261201E+02 -0.44907147531E+02  0.17135376532E+02  0.15942899093E+03  0.12509000000E+03 0.  0.
<mgrwt>
<rscale>  2 0.45616684E+03</rscale>
<asrwt>0</asrwt>
<pdfrwt beam="1">  1       21 0.25828994E-01 0.45616684E+03</pdfrwt>
<pdfrwt beam="2">  1       21 0.43557417E-01 0.45616684E+03</pdfrwt>
<totfact> 0.66680628E+04</totfact>
</mgrwt>
</event>
<event>
 7    0  0.4725730E-002  0.4528406E+03  0.7546771E-02  0.1026878E+00
         21   -1    0    0  502  501  0.00000000000E+00  0.00000000000E+00  0.79100053781E+03  0.79100053781E+03  0.00000000000E+00 0.  1.
         21   -1    0    0  501  502 -0.00000000000E+00 -0.00000000000E+00 -0.64811775857E+02  0.64811775857E+02  0.00000000000E+00 0.  1.
      99926    2    1    2    0    0  0.00000000000E+00  0.00000000000E+00  0.72618876196E+03  0.85581231367E+03  0.45284058811E+03 0.  0.
      99925    2    3    3    0    0  0.18829561884E+02 -0.39554770987E+02  0.26618316573E+03  0.37709340975E+03  0.26348971451E+03 0.  0.
         25    1    3    3    0    0 -0.18829561884E+02  0.39554770987E+02  0.46000559623E+03  0.47871890392E+03  0.12509000000E+03 0.  0.
         25    1    4    4    0    0  0.12473633552E+02  0.19327330599E+01  0.17976625516E+03  0.21936896222E+03  0.12509000000E+03 0.  0.
         25    1    4    4    0    0  0.63559283316E+01 -0.41487504047E+02  0.86416910572E+02  0.15772444753E+03  0.12509000000E+03 0.  0.
<mgrwt>
<rscale>  2 0.45284059E+03</rscale>
<asrwt>0</asrwt>
<pdfrwt beam="1">  1       21 0.11632360E+00 0.45284059E+03</pdfrwt>
<pdfrwt beam="2">  1       21 0.95311439E-02 0.45284059E+03</pdfrwt>
<totfact> 0.45953922E+04</totfact>
</mgrwt>
</event>
<event>
 7    0  0.4725730E-002  0.4533081E+03  0.7546771E-02  0.1026740E+00
         21   -1    0    0  502  501  0.00000000000E+00  0.00000000000E+00  0.18206349080E+03  0.18206349080E+03  0.00000000000E+00 0. -1.
         21   -1    0    0  501  502 -0.00000000000E+00 -0.00000000000E+00 -0.28216556605E+03  0.28216556605E+03  0.00000000000E+00 0. -1.
      99926    2    1    2    0    0  0.00000000000E+00  0.00000000000E+00 -0.10010207525E+03  0.46422905685E+03  0.45330805393E+03 0.  0.
      99925    2    3    3    0    0 -0.42624693547E+02 -0.53924748001E+01  0.42313717452E+02  0.26986931463E+03  0.26304572418E+03 0.  0.
         25    1    4    4    0    0 -0.58127153573E+02 -0.69895772604E+01  0.42009553200E+01  0.13817661270E+03  0.12509000000E+03 0.  0.
         25    1    4    4    0    0  0.15502460026E+02  0.15971024603E+01  0.38112762132E+02  0.13169270193E+03  0.12509000000E+03 0.  0.
         25    1    3    3    0    0  0.42624693547E+02  0.53924748001E+01 -0.14241579270E+03  0.19435974222E+03  0.12509000000E+03 0.  0.
<mgrwt>
<rscale>  2 0.45330805E+03</rscale>
<asrwt>0</asrwt>
<pdfrwt beam="1">  1       21 0.26774043E-01 0.45330805E+03</pdfrwt>
<pdfrwt beam="2">  1       21 0.41494935E-01 0.45330805E+03</pdfrwt>
<totfact> 0.68786343E+04</totfact>
</mgrwt>
</event>
<event>
 7    0  0.4725730E-002  0.4542015E+03  0.7546771E-02  0.1026476E+00
         21   -1    0    0  502  501  0.00000000000E+00  0.00000000000E+00  0.17957648676E+03  0.17957648676E+03  0.00000000000E+00 0. -1.
         21   -1    0    0  501  502 -0.00000000000E+00 -0.00000000000E+00 -0.28720218859E+03  0.28720218859E+03  0.00000000000E+00 0. -1.
      99926    2    1    2    0    0  0.00000000000E+00  0.14210854715E-13 -0.10762570183E+03  0.46677867536E+03  0.45420154125E+03 0.  0.
      99925    2    3    3    0    0 -0.63788578536E+02 -0.89785134484E+02 -0.91031355973E+02  0.29928767996E+03  0.26297538759E+03 0.  0.
         25    1    3    3    0    0  0.63788578536E+02  0.89785134484E+02 -0.16594345857E+02  0.16749099540E+03  0.12509000000E+03 0.  0.
         25    1    4    4    0    0 -0.19935394641E+02 -0.63379881715E+01 -0.24810106375E+02  0.12923095423E+03  0.12509000000E+03 0.  0.
         25    1    4    4    0    0 -0.43853183895E+02 -0.83447146312E+02 -0.66221249598E+02  0.17005672572E+03  0.12509000000E+03 0.  0.
<mgrwt>
<rscale>  2 0.45420154E+03</rscale>
<asrwt>0</asrwt>
<pdfrwt beam="1">  1       21 0.26408307E-01 0.45420154E+03</pdfrwt>
<pdfrwt beam="2">  1       21 0.42235616E-01 0.45420154E+03</pdfrwt>
<totfact> 0.68106574E+04</totfact>
</mgrwt>
</event>
<event>
 7    0  0.4725730E-002  0.4580744E+03  0.7546771E-02  0.1025341E+00
         21   -1    0    0  502  501  0.00000000000E+00  0.00000000000E+00  0.80455209191E+03  0.80455209191E+03  0.00000000000E+00 0. -1.
         21   -1    0    0  501  502 -0.00000000000E+00 -0.00000000000E+00 -0.65201546870E+02  0.65201546870E+02  0.00000000000E+00 0. -1.
      99926    2    1    2    0    0  0.35527136788E-14  0.00000000000E+00  0.73935054504E+03  0.86975363878E+03  0.45807440850E+03 0.  0.
      99925    2    3    3    0    0  0.18759758096E+02  0.68341248002E+02  0.63817466370E+03  0.69395113092E+03  0.26320869292E+03 0.  0.
         25    1    3    3    0    0 -0.18759758096E+02 -0.68341248002E+02  0.10117588134E+03  0.17580250785E+03  0.12509000000E+03 0.  0.
         25    1    4    4    0    0 -0.30187082689E+02  0.30325926985E+02  0.33659985647E+03  0.36163226251E+03  0.12509000000E+03 0.  0.
         25    1    4    4    0    0  0.48946840785E+02  0.38015321017E+02  0.30157480722E+03  0.33231886842E+03  0.12509000000E+03 0.  0.
<mgrwt>
<rscale>  2 0.45807441E+03</rscale>
<asrwt>0</asrwt>
<pdfrwt beam="1">  1       21 0.11831648E+00 0.45807441E+03</pdfrwt>
<pdfrwt beam="2">  1       21 0.95884632E-02 0.45807441E+03</pdfrwt>
<totfact> 0.43509492E+04</totfact>
</mgrwt>
</event>
<event>
 7    0  0.4725730E-002  0.4506938E+03  0.7546771E-02  0.1027515E+00
         21   -1    0    0  502  501  0.00000000000E+00  0.00000000000E+00  0.94903455848E+02  0.94903455848E+02  0.00000000000E+00 0. -1.
         21   -1    0    0  501  502 -0.00000000000E+00 -0.00000000000E+00 -0.53508291406E+03  0.53508291406E+03  0.00000000000E+00 0. -1.
      99926    2    1    2    0    0  0.14210854715E-13  0.00000000000E+00 -0.44017945822E+03  0.62998636991E+03  0.45069376614E+03 0.  0.
      99925    2    3    3    0    0  0.83241154347E+02  0.67267043906E+02 -0.30704925824E+03  0.41826697255E+03  0.26308566736E+03 0.  0.
         25    1    4    4    0    0  0.65205733571E+00  0.42164758856E+02 -0.14586581095E+03  0.19672985277E+03  0.12509000000E+03 0.  0.
         25    1    3    3    0    0 -0.83241154347E+02 -0.67267043906E+02 -0.13313019998E+03  0.21171939736E+03  0.12509000000E+03 0.  0.
         25    1    4    4    0    0  0.82589097011E+02  0.25102285051E+02 -0.16118344729E+03  0.22153711978E+03  0.12509000000E+03 0.  0.
<mgrwt>
<rscale>  2 0.45069377E+03</rscale>
<asrwt>0</asrwt>
<pdfrwt beam="1">  1       21 0.13956391E-01 0.45069377E+03</pdfrwt>
<pdfrwt beam="2">  1       21 0.78688664E-01 0.45069377E+03</pdfrwt>
<totfact> 0.58844378E+04</totfact>
</mgrwt>
</event>
<event>
 7    0  0.4725730E-002  0.4396495E+03  0.7546771E-02  0.1030854E+00
         21   -1    0    0  502  501  0.00000000000E+00  0.00000000000E+00  0.15647267680E+03  0.15647267680E+03  0.00000000000E+00 0.  1.
         21   -1    0    0  501  502 -0.00000000000E+00 -0.00000000000E+00 -0.30882661193E+03  0.30882661193E+03  0.00000000000E+00 0.  1.
      99926    2    1    2    0    0  0.00000000000E+00  0.00000000000E+00 -0.15235393513E+03  0.46529928872E+03  0.43964952694E+03 0.  0.
      99925    2    3    3    0    0  0.78297499983E+02  0.27619007408E+02 -0.41552263270E+02  0.27870393331E+03  0.26278505244E+03 0.  0.
         25    1    4    4    0    0  0.51268894781E+02  0.39679407292E+02 -0.50940204524E+02  0.14981778089E+03  0.12509000000E+03 0.  0.
         25    1    3    3    0    0 -0.78297499983E+02 -0.27619007408E+02 -0.11080167186E+03  0.18659535541E+03  0.12509000000E+03 0.  0.
         25    1    4    4    0    0  0.27028605202E+02 -0.12060399883E+02  0.93879412535E+01  0.12888615242E+03  0.12509000000E+03 0.  0.
<mgrwt>
<rscale>  2 0.43964953E+03</rscale>
<asrwt>0</asrwt>
<pdfrwt beam="1">  1       21 0.23010688E-01 0.43964953E+03</pdfrwt>
<pdfrwt beam="2">  1       21 0.45415678E-01 0.43964953E+03</pdfrwt>
<totfact> 0.76714230E+04</totfact>
</mgrwt>
</event>
<event>
 7    0  0.4725730E-002  0.4474611E+03  0.7546771E-02  0.1028482E+00
         21   -1    0    0  502  501  0.00000000000E+00  0.00000000000E+00  0.18213021581E+03  0.18213021581E+03  0.00000000000E+00 0.  1.
         21   -1    0    0  501  502 -0.00000000000E+00 -0.00000000000E+00 -0.27483286450E+03  0.27483286450E+03  0.00000000000E+00 0.  1.
      99926    2    1    2    0    0 -0.35527136788E-14  0.00000000000E+00 -0.92702648686E+02  0.45696308031E+03  0.44746114434E+03 0.  0.
      99925    2    3    3    0    0 -0.21999439617E+02  0.50655286164E+02  0.33614726405E+02  0.27080851897E+03  0.26297789024E+03 0.  0.
         25    1    3    3    0    0  0.21999439617E+02 -0.50655286164E+02 -0.12631737509E+03  0.18615456135E+03  0.12509000000E+03 0.  0.
         25    1    4    4    0    0 -0.44305707734E+02  0.43190403602E+02  0.33523585049E+02  0.14352611454E+03  0.12509000000E+03 0.  0.
         25    1    4    4    0    0  0.22306268117E+02  0.74648825629E+01  0.91141355307E-01  0.12728240442E+03  0.12509000000E+03 0.  0.
<mgrwt>
<rscale>  2 0.44746114E+03</rscale>
<asrwt>0</asrwt>
<pdfrwt beam="1">  1       21 0.26783855E-01 0.44746114E+03</pdfrwt>
<pdfrwt beam="2">  1       21 0.40416597E-01 0.44746114E+03</pdfrwt>
<totfact> 0.72667460E+04</totfact>
</mgrwt>
</event>
<event>
 7    0  0.4725730E-002  0.4584098E+03  0.7546771E-02  0.1025243E+00
         21   -1    0    0  502  501  0.00000000000E+00  0.00000000000E+00  0.16512341197E+03  0.16512341197E+03  0.00000000000E+00 0. -1.
         21   -1    0    0  501  502 -0.00000000000E+00 -0.00000000000E+00 -0.31815532425E+03  0.31815532425E+03  0.00000000000E+00 0. -1.
      99926    2    1    2    0    0  0.88817841970E-15  0.00000000000E+00 -0.15303191227E+03  0.48327873622E+03  0.45840982832E+03 0.  0.
      99925    2    3    3    0    0 -0.54600608312E+01  0.84317331293E+02 -0.18025196196E+03  0.32989143614E+03  0.26305582150E+03 0.  0.
         25    1    4    4    0    0 -0.31650850902E+01  0.16242255696E+02 -0.46417634362E+02  0.13444676833E+03  0.12509000000E+03 0.  0.
         25    1    3    3    0    0  0.54600608312E+01 -0.84317331293E+02  0.27220049689E+02  0.15338730008E+03  0.12509000000E+03 0.  0.
         25    1    4    4    0    0 -0.22949757409E+01  0.68075075596E+02 -0.13383432760E+03  0.19544466781E+03  0.12509000000E+03 0.  0.
<mgrwt>
<rscale>  2 0.45840983E+03</rscale>
<asrwt>0</asrwt>
<pdfrwt beam="1">  1       21 0.24282855E-01 0.45840983E+03</pdfrwt>
<pdfrwt beam="2">  1       21 0.46787547E-01 0.45840983E+03</pdfrwt>
<totfact> 0.64693373E+04</totfact>
</mgrwt>
</event>
<event>
 7    0  0.4725730E-002  0.4516339E+03  0.7546771E-02  0.1027236E+00
         21   -1    0    0  502  501  0.00000000000E+00  0.00000000000E+00  0.92033291718E+03  0.92033291718E+03  0.00000000000E+00 0. -1.
         21   -1    0    0  501  502 -0.00000000000E+00 -0.00000000000E+00 -0.55407455944E+02  0.55407455944E+02  0.00000000000E+00 0. -1.
      99926    2    1    2    0    0  0.00000000000E+00  0.71054273576E-14  0.86492546123E+03  0.97574037312E+03  0.45163394718E+03 0.  0.
      99925    2    3    3    0    0  0.95829877293E+02 -0.49722263382E+02  0.49502483871E+03  0.57061119927E+03  0.26247262893E+03 0.  0.
         25    1    4    4    0    0  0.33998620558E+02 -0.61860400779E+02  0.24257245664E+03  0.28190693536E+03  0.12509000000E+03 0.  0.
         25    1    4    4    0    0  0.61831256735E+02  0.12138137397E+02  0.25245238207E+03  0.28870426391E+03  0.12509000000E+03 0.  0.
         25    1    3    3    0    0 -0.95829877293E+02  0.49722263382E+02  0.36990062253E+03  0.40512917385E+03  0.12509000000E+03 0.  0.
<mgrwt>
<rscale>  2 0.45163395E+03</rscale>
<asrwt>0</asrwt>
<pdfrwt beam="1">  1       21 0.13534307E+00 0.45163395E+03</pdfrwt>
<pdfrwt beam="2">  1       21 0.81481559E-02 0.45163395E+03</pdfrwt>
<totfact> 0.41188852E+04</totfact>
</mgrwt>
</event>
<event>
 7    0  0.4725730E-002  0.4366920E+03  0.7546771E-02  0.1031767E+00
         21   -1    0    0  502  501  0.00000000000E+00  0.00000000000E+00  0.47799065474E+02  0.47799065474E+02  0.00000000000E+00 0. -1.
         21   -1    0    0  501  502 -0.00000000000E+00 -0.00000000000E+00 -0.99740401953E+03  0.99740401953E+03  0.00000000000E+00 0. -1.
      99926    2    1    2    0    0  0.00000000000E+00  0.35527136788E-14 -0.94960495406E+03  0.10452030850E+04  0.43669201978E+03 0.  0.
      99925    2    3    3    0    0  0.38467831476E+02 -0.27877185709E+02 -0.80508332778E+03  0.84824897842E+03  0.26288829029E+03 0.  0.
         25    1    3    3    0    0 -0.38467831476E+02  0.27877185709E+02 -0.14452162628E+03  0.19695410659E+03  0.12509000000E+03 0.  0.
         25    1    4    4    0    0 -0.77681326709E+01 -0.38513886280E+02 -0.34367059985E+03  0.36783237028E+03  0.12509000000E+03 0.  0.
         25    1    4    4    0    0  0.46235964147E+02  0.10636700571E+02 -0.46141272793E+03  0.48041660814E+03  0.12509000000E+03 0.  0.
<mgrwt>
<rscale>  2 0.43669202E+03</rscale>
<asrwt>0</asrwt>
<pdfrwt beam="1">  1       21 0.70292743E-02 0.43669202E+03</pdfrwt>
<pdfrwt beam="2">  1       21 0.14667706E+00 0.43669202E+03</pdfrwt>
<totfact> 0.43321435E+04</totfact>
</mgrwt>
</event>
<event>
 7    0  0.4725730E-002  0.4411454E+03  0.7546771E-02  0.1030396E+00
         21   -1    0    0  502  501  0.00000000000E+00  0.00000000000E+00  0.78957994699E+03  0.78957994699E+03  0.00000000000E+00 0. -1.
         21   -1    0    0  501  502 -0.00000000000E+00 -0.00000000000E+00 -0.61617979304E+02  0.61617979304E+02  0.00000000000E+00 0. -1.
      99926    2    1    2    0    0  0.00000000000E+00  0.17763568394E-14  0.72796196768E+03  0.85119792629E+03  0.44114542197E+03 0.  0.
      99925    2    3    3    0    0  0.98559093530E+02 -0.13309753352E+02  0.45238113265E+03  0.53263341291E+03  0.26298026335E+03 0.  0.
         25    1    4    4    0    0  0.57225868858E+02 -0.19693022554E+02  0.30306796268E+03  0.33340712846E+03  0.12509000000E+03 0.  0.
         25    1    3    3    0    0 -0.98559093530E+02  0.13309753352E+02  0.27558083503E+03  0.31856451338E+03  0.12509000000E+03 0.  0.
         25    1    4    4    0    0  0.41333224673E+02  0.63832692018E+01  0.14931316997E+03  0.19922628445E+03  0.12509000000E+03 0.  0.
<mgrwt>
<rscale>  2 0.44114542E+03</rscale>
<asrwt>0</asrwt>
<pdfrwt beam="1">  1       21 0.11611469E+00 0.44114542E+03</pdfrwt>
<pdfrwt beam="2">  1       21 0.90614680E-02 0.44114542E+03</pdfrwt>
<totfact> 0.50672374E+04</totfact>
</mgrwt>
</event>
<event>
 7    0  0.4725730E-002  0.4550963E+03  0.7546771E-02  0.1026213E+00
         21   -1    0    0  502  501  0.00000000000E+00  0.00000000000E+00  0.17006625522E+03  0.17006625522E+03  0.00000000000E+00 0. -1.
         21   -1    0    0  501  502 -0.00000000000E+00 -0.00000000000E+00 -0.30445877493E+03  0.30445877493E+03  0.00000000000E+00 0. -1.
      99926    2    1    2    0    0  0.00000000000E+00 -0.14210854715E-13 -0.13439251971E+03  0.47452503015E+03  0.45509631385E+03 0.  0.
      99925    2    3    3    0    0  0.40413534579E+02 -0.80174849335E+02 -0.15654855593E+03  0.31896263661E+03  0.26299895997E+03 0.  0.
         25    1    4    4    0    0  0.60343630446E+02 -0.33136392864E+02 -0.80462418476E+02  0.16389351163E+03  0.12509000000E+03 0.  0.
         25    1    4    4    0    0 -0.19930095867E+02 -0.47038456471E+02 -0.76086137452E+02  0.15506912498E+03  0.12509000000E+03 0.  0.
         25    1    3    3    0    0 -0.40413534579E+02  0.80174849335E+02  0.22156036220E+02  0.15556239354E+03  0.12509000000E+03 0.  0.
<mgrwt>
<rscale>  2 0.45509631E+03</rscale>
<asrwt>0</asrwt>
<pdfrwt beam="1">  1       21 0.25009744E-01 0.45509631E+03</pdfrwt>
<pdfrwt beam="2">  1       21 0.44773349E-01 0.45509631E+03</pdfrwt>
<totfact> 0.67049599E+04</totfact>
</mgrwt>
</event>
<event>
 7    0  0.4725730E-002  0.4450268E+03  0.7546771E-02  0.1029216E+00
         21   -1    0    0  502  501  0.00000000000E+00  0.00000000000E+00  0.59317253307E+02  0.59317253307E+02  0.00000000000E+00 0.  1.
         21   -1    0    0  501  502 -0.00000000000E+00 -0.00000000000E+00 -0.83470160744E+03  0.83470160744E+03  0.00000000000E+00 0.  1.
      99926    2    1    2    0    0 -0.71054273576E-14  0.00000000000E+00 -0.77538435413E+03  0.89401886075E+03  0.44502677081E+03 0.  0.
      99925    2    3    3    0    0  0.48239867524E+02 -0.38227257786E+02 -0.65964473248E+03  0.71282400382E+03  0.26305603828E+03 0.  0.
         25    1    4    4    0    0  0.53346120099E+02 -0.31112740171E+02 -0.27681181209E+03  0.30997757748E+03  0.12509000000E+03 0.  0.
         25    1    4    4    0    0 -0.51062525749E+01 -0.71145176151E+01 -0.38283292039E+03  0.40284642634E+03  0.12509000000E+03 0.  0.
         25    1    3    3    0    0 -0.48239867524E+02  0.38227257786E+02 -0.11573962165E+03  0.18119485693E+03  0.12509000000E+03 0.  0.
<mgrwt>
<rscale>  2 0.44502677E+03</rscale>
<asrwt>0</asrwt>
<pdfrwt beam="1">  1       21 0.87231265E-02 0.44502677E+03</pdfrwt>
<pdfrwt beam="2">  1       21 0.12275022E+00 0.44502677E+03</pdfrwt>
<totfact> 0.47061220E+04</totfact>
</mgrwt>
</event>
<event>
 7    0  0.4725730E-002  0.4545383E+03  0.7546771E-02  0.1026377E+00
         21   -1    0    0  502  501  0.00000000000E+00  0.00000000000E+00  0.11347781663E+03  0.11347781663E+03  0.00000000000E+00 0.  1.
         21   -1    0    0  501  502 -0.00000000000E+00 -0.00000000000E+00 -0.45516615305E+03  0.45516615305E+03  0.00000000000E+00 0.  1.
      99926    2    1    2    0    0  0.35527136788E-14  0.00000000000E+00 -0.34168833642E+03  0.56864396968E+03  0.45453827673E+03 0.  0.
      99925    2    3    3    0    0 -0.27995147961E+02 -0.10910579141E+03 -0.21453869855E+03  0.35768819105E+03  0.26310869772E+03 0.  0.
         25    1    4    4    0    0  0.44059090025E+01 -0.15519188695E+02 -0.83946022878E+02  0.15150808595E+03  0.12509000000E+03 0.  0.
         25    1    3    3    0    0  0.27995147961E+02  0.10910579141E+03 -0.12714963787E+03  0.21095577863E+03  0.12509000000E+03 0.  0.
         25    1    4    4    0    0 -0.32401056963E+02 -0.93586602712E+02 -0.13059267567E+03  0.20618010510E+03  0.12509000000E+03 0.  0.
<mgrwt>
<rscale>  2 0.45453828E+03</rscale>
<asrwt>0</asrwt>
<pdfrwt beam="1">  1       21 0.16687914E-01 0.45453828E+03</pdfrwt>
<pdfrwt beam="2">  1       21 0.66936201E-01 0.45453828E+03</pdfrwt>
<totfact> 0.60873020E+04</totfact>
</mgrwt>
</event>
<event>
 7    0  0.4725730E-002  0.4634826E+03  0.7546771E-02  0.1023776E+00
         21   -1    0    0  502  501  0.00000000000E+00  0.00000000000E+00  0.84902052865E+02  0.84902052865E+02  0.00000000000E+00 0. -1.
         21   -1    0    0  501  502 -0.00000000000E+00 -0.00000000000E+00 -0.63254087237E+03  0.63254087237E+03  0.00000000000E+00 0. -1.
      99926    2    1    2    0    0  0.00000000000E+00  0.00000000000E+00 -0.54763881950E+03  0.71744292523E+03  0.46348255020E+03 0.  0.
      99925    2    3    3    0    0 -0.46618972964E+02 -0.11152800215E+03 -0.34690694716E+03  0.45182550002E+03  0.26303997524E+03 0.  0.
         25    1    4    4    0    0 -0.39395968801E+02 -0.95719648487E+02 -0.17803624227E+03  0.24095374063E+03  0.12509000000E+03 0.  0.
         25    1    3    3    0    0  0.46618972964E+02  0.11152800215E+03 -0.20073187234E+03  0.26561742521E+03  0.12509000000E+03 0.  0.
         25    1    4    4    0    0 -0.72230041632E+01 -0.15808353663E+02 -0.16887070489E+03  0.21087175938E+03  0.12509000000E+03 0.  0.
<mgrwt>
<rscale>  2 0.46348255E+03</rscale>
<asrwt>0</asrwt>
<pdfrwt beam="1">  1       21 0.12485596E-01 0.46348255E+03</pdfrwt>
<pdfrwt beam="2">  1       21 0.93020716E-01 0.46348255E+03</pdfrwt>
<totfact> 0.48638533E+04</totfact>
</mgrwt>
</event>
<event>
 7    0  0.4725730E-002  0.4666089E+03  0.7546771E-02  0.1022882E+00
         21   -1    0    0  502  501  0.00000000000E+00  0.00000000000E+00  0.11397005293E+04  0.11397005293E+04  0.00000000000E+00 0. -1.
         21   -1    0    0  501  502 -0.00000000000E+00 -0.00000000000E+00 -0.47759014527E+02  0.47759014527E+02  0.00000000000E+00 0. -1.
      99926    2    1    2    0    0  0.00000000000E+00 -0.88817841970E-15  0.10919415147E+04  0.11874595438E+04  0.46660893319E+03 0.  0.
      99925    2    3    3    0    0 -0.97610952432E+02  0.56411531600E+01  0.87306523744E+03  0.91706343896E+03  0.26306410171E+03 0.  0.
         25    1    4    4    0    0 -0.51169511341E+02 -0.23900196531E+02  0.33757253751E+03  0.36440672945E+03  0.12509000000E+03 0.  0.
         25    1    4    4    0    0 -0.46441441091E+02  0.29541349691E+02  0.53549269993E+03  0.55265670951E+03  0.12509000000E+03 0.  0.
         25    1    3    3    0    0  0.97610952432E+02 -0.56411531600E+01  0.21887627729E+03  0.27039610482E+03  0.12509000000E+03 0.  0.
<mgrwt>
<rscale>  2 0.46660893E+03</rscale>
<asrwt>0</asrwt>
<pdfrwt beam="1">  1       21 0.16760300E+00 0.46660893E+03</pdfrwt>
<pdfrwt beam="2">  1       21 0.70233852E-02 0.46660893E+03</pdfrwt>
<totfact> 0.29770818E+04</totfact>
</mgrwt>
</event>
<event>
 7    0  0.4725730E-002  0.4547821E+03  0.7546771E-02  0.1026305E+00
         21   -1    0    0  502  501  0.00000000000E+00  0.00000000000E+00  0.45890348049E+03  0.45890348049E+03  0.00000000000E+00 0. -1.
         21   -1    0    0  501  502 -0.00000000000E+00 -0.00000000000E+00 -0.11267444656E+03  0.11267444656E+03  0.00000000000E+00 0. -1.
      99926    2    1    2    0    0  0.00000000000E+00  0.00000000000E+00  0.34622903393E+03  0.57157792706E+03  0.45478212670E+03 0.  0.
      99925    2    3    3    0    0  0.72384636213E+02 -0.57060230845E+02  0.29998805130E+03  0.40946333154E+03  0.26300567190E+03 0.  0.
         25    1    3    3    0    0 -0.72384636213E+02  0.57060230845E+02  0.46240982624E+02  0.16211459551E+03  0.12509000000E+03 0.  0.
         25    1    4    4    0    0  0.17534706991E+02  0.12961020777E+01  0.17195668279E+03  0.21336765145E+03  0.12509000000E+03 0.  0.
         25    1    4    4    0    0  0.54849929221E+02 -0.58356332923E+02  0.12803136851E+03  0.19609568009E+03  0.12509000000E+03 0.  0.
<mgrwt>
<rscale>  2 0.45478213E+03</rscale>
<asrwt>0</asrwt>
<pdfrwt beam="1">  1       21 0.67485805E-01 0.45478213E+03</pdfrwt>
<pdfrwt beam="2">  1       21 0.16569772E-01 0.45478213E+03</pdfrwt>
<totfact> 0.60567020E+04</totfact>
</mgrwt>
</event>
<event>
 7    0  0.4725730E-002  0.4551483E+03  0.7546771E-02  0.1026198E+00
         21   -1    0    0  502  501  0.00000000000E+00  0.00000000000E+00  0.11064889806E+03  0.11064889806E+03  0.00000000000E+00 0.  1.
         21   -1    0    0  501  502 -0.00000000000E+00 -0.00000000000E+00 -0.46805695368E+03  0.46805695368E+03  0.00000000000E+00 0.  1.
      99926    2    1    2    0    0  0.00000000000E+00  0.00000000000E+00 -0.35740805562E+03  0.57870585175E+03  0.45514826664E+03 0.  0.
      99925    2    3    3    0    0  0.96147571451E+02 -0.58771132699E+02 -0.24140069981E+03  0.37424652514E+03  0.26284551009E+03 0.  0.
         25    1    3    3    0    0 -0.96147571451E+02  0.58771132699E+02 -0.11600735581E+03  0.20445932661E+03  0.12509000000E+03 0.  0.
         25    1    4    4    0    0  0.45101853574E+02 -0.55190245168E+02 -0.83613080399E+02  0.16648962632E+03  0.12509000000E+03 0.  0.
         25    1    4    4    0    0  0.51045717876E+02 -0.35808875310E+01 -0.15778761941E+03  0.20775689882E+03  0.12509000000E+03 0.  0.
<mgrwt>
<rscale>  2 0.45514827E+03</rscale>
<asrwt>0</asrwt>
<pdfrwt beam="1">  1       21 0.16271897E-01 0.45514827E+03</pdfrwt>
<pdfrwt beam="2">  1       21 0.68831904E-01 0.45514827E+03</pdfrwt>
<totfact> 0.59938212E+04</totfact>
</mgrwt>
</event>
<event>
 7    0  0.4725730E-002  0.4588221E+03  0.7546771E-02  0.1025123E+00
         21   -1    0    0  502  501  0.00000000000E+00  0.00000000000E+00  0.33129257655E+02  0.33129257655E+02  0.00000000000E+00 0.  1.
         21   -1    0    0  501  502 -0.00000000000E+00 -0.00000000000E+00 -0.15886089230E+04  0.15886089230E+04  0.00000000000E+00 0.  1.
      99926    2    1    2    0    0  0.00000000000E+00  0.35527136788E-14 -0.15554796654E+04  0.16217381807E+04  0.45882211945E+03 0.  0.
      99925    2    3    3    0    0  0.41199148682E+02  0.25921119919E+02 -0.60077601289E+03  0.65764490383E+03  0.26305080794E+03 0.  0.
         25    1    4    4    0    0  0.13963575498E+02  0.51805245073E+02 -0.33185521420E+03  0.35868392235E+03  0.12509000000E+03 0.  0.
         25    1    4    4    0    0  0.27235573184E+02 -0.25884125154E+02 -0.26892079868E+03  0.29896098148E+03  0.12509000000E+03 0.  0.
         25    1    3    3    0    0 -0.41199148682E+02 -0.25921119919E+02 -0.95470365250E+03  0.96409327687E+03  0.12509000000E+03 0.  0.
<mgrwt>
<rscale>  2 0.45882212E+03</rscale>
<asrwt>0</asrwt>
<pdfrwt beam="1">  1       21 0.48719509E-02 0.45882212E+03</pdfrwt>
<pdfrwt beam="2">  1       21 0.23361890E+00 0.45882212E+03</pdfrwt>
<totfact> 0.20332837E+04</totfact>
</mgrwt>
</event>
<event>
 7    0  0.4725730E-002  0.4593993E+03  0.7546771E-02  0.1024956E+00
         21   -1    0    0  502  501  0.00000000000E+00  0.00000000000E+00  0.11488795311E+03  0.11488795311E+03  0.00000000000E+00 0.  1.
         21   -1    0    0  501  502 -0.00000000000E+00 -0.00000000000E+00 -0.45924679545E+03  0.45924679545E+03  0.00000000000E+00 0.  1.
      99926    2    1    2    0    0  0.00000000000E+00  0.35527136788E-14 -0.34435884234E+03  0.57413474856E+03  0.45939927864E+03 0.  0.
      99925    2    3    3    0    0 -0.10813383802E+03  0.24376952869E+02 -0.16835130834E+03  0.33141408014E+03  0.26307026958E+03 0.  0.
         25    1    3    3    0    0  0.10813383802E+03 -0.24376952869E+02 -0.17600753400E+03  0.24272066842E+03  0.12509000000E+03 0.  0.
         25    1    4    4    0    0 -0.21437582342E+02 -0.85375516366E+01 -0.97851518384E+02  0.16048329344E+03  0.12509000000E+03 0.  0.
         25    1    4    4    0    0 -0.86696255681E+02  0.32914504506E+02 -0.70499789956E+02  0.17093078669E+03  0.12509000000E+03 0.  0.
<mgrwt>
<rscale>  2 0.45939928E+03</rscale>
<asrwt>0</asrwt>
<pdfrwt beam="1">  1       21 0.16895287E-01 0.45939928E+03</pdfrwt>
<pdfrwt beam="2">  1       21 0.67536293E-01 0.45939928E+03</pdfrwt>
<totfact> 0.58246549E+04</totfact>
</mgrwt>
</event>
<event>
 7    0  0.4725730E-002  0.4451634E+03  0.7546771E-02  0.1029174E+00
         21   -1    0    0  502  501  0.00000000000E+00  0.00000000000E+00  0.13387956629E+04  0.13387956629E+04  0.00000000000E+00 0.  1.
         21   -1    0    0  501  502 -0.00000000000E+00 -0.00000000000E+00 -0.37005351912E+02  0.37005351912E+02  0.00000000000E+00 0.  1.
      99926    2    1    2    0    0  0.71054273576E-14  0.14210854715E-13  0.13017903110E+04  0.13758010148E+04  0.44516336167E+03 0.  0.
      99925    2    3    3    0    0  0.53263550132E+02  0.64252815366E+02  0.10169988796E+04  0.10537465201E+04  0.26292504163E+03 0.  0.
         25    1    4    4    0    0  0.48293395212E+02  0.87783473591E+00  0.44322917116E+03  0.46306870860E+03  0.12509000000E+03 0.  0.
         25    1    4    4    0    0  0.49701549201E+01  0.63374980630E+02  0.57376970845E+03  0.59067781154E+03  0.12509000000E+03 0.  0.
         25    1    3    3    0    0 -0.53263550132E+02 -0.64252815366E+02  0.28479143139E+03  0.32205449469E+03  0.12509000000E+03 0.  0.
<mgrwt>
<rscale>  2 0.44516336E+03</rscale>
<asrwt>0</asrwt>
<pdfrwt beam="1">  1       21 0.19688168E+00 0.44516336E+03</pdfrwt>
<pdfrwt beam="2">  1       21 0.54419644E-02 0.44516336E+03</pdfrwt>
<totfact> 0.29149764E+04</totfact>
</mgrwt>
</event>
<event>
 7    0  0.4725730E-002  0.4547245E+03  0.7546771E-02  0.1026322E+00
         21   -1    0    0  502  501  0.00000000000E+00  0.00000000000E+00  0.11569431735E+03  0.11569431735E+03  0.00000000000E+00 0. -1.
         21   -1    0    0  501  502 -0.00000000000E+00 -0.00000000000E+00 -0.44681191103E+03  0.44681191103E+03  0.00000000000E+00 0. -1.
      99926    2    1    2    0    0 -0.17763568394E-14  0.35527136788E-14 -0.33111759368E+03  0.56250622838E+03  0.45472452773E+03 0.  0.
      99925    2    3    3    0    0 -0.14981298510E+02  0.27854483428E+02 -0.34235965989E+03  0.43299096401E+03  0.26319332560E+03 0.  0.
         25    1    4    4    0    0 -0.37128029307E+02  0.41205050079E+02 -0.19054804017E+03  0.23458987707E+03  0.12509000000E+03 0.  0.
         25    1    3    3    0    0  0.14981298510E+02 -0.27854483428E+02  0.11242066213E+02  0.12951526437E+03  0.12509000000E+03 0.  0.
         25    1    4    4    0    0  0.22146730797E+02 -0.13350566651E+02 -0.15181161973E+03  0.19840108694E+03  0.12509000000E+03 0.  0.
<mgrwt>
<rscale>  2 0.45472453E+03</rscale>
<asrwt>0</asrwt>
<pdfrwt beam="1">  1       21 0.17013870E-01 0.45472453E+03</pdfrwt>
<pdfrwt beam="2">  1       21 0.65707633E-01 0.45472453E+03</pdfrwt>
<totfact> 0.61180770E+04</totfact>
</mgrwt>
</event>
<event>
 7    0  0.4725730E-002  0.4520390E+03  0.7546771E-02  0.1027116E+00
         21   -1    0    0  502  501  0.00000000000E+00  0.00000000000E+00  0.93659252565E+02  0.93659252565E+02  0.00000000000E+00 0.  1.
         21   -1    0    0  501  502 -0.00000000000E+00 -0.00000000000E+00 -0.54543263145E+03  0.54543263145E+03  0.00000000000E+00 0.  1.
      99926    2    1    2    0    0 -0.35527136788E-14  0.00000000000E+00 -0.45177337888E+03  0.63909188401E+03  0.45203899206E+03 0.  0.
      99925    2    3    3    0    0 -0.19148124608E+02  0.23344156890E+02 -0.43508868541E+03  0.50933253971E+03  0.26307008856E+03 0.  0.
         25    1    4    4    0    0  0.17157333023E+02  0.45171813494E+01 -0.27086845212E+03  0.29888460224E+03  0.12509000000E+03 0.  0.
         25    1    3    3    0    0  0.19148124608E+02 -0.23344156890E+02 -0.16684693468E+02  0.12975934430E+03  0.12509000000E+03 0.  0.
         25    1    4    4    0    0 -0.36305457631E+02  0.18826975541E+02 -0.16422023329E+03  0.21044793747E+03  0.12509000000E+03 0.  0.
<mgrwt>
<rscale>  2 0.45203899E+03</rscale>
<asrwt>0</asrwt>
<pdfrwt beam="1">  1       21 0.13773420E-01 0.45203899E+03</pdfrwt>
<pdfrwt beam="2">  1       21 0.80210679E-01 0.45203899E+03</pdfrwt>
<totfact> 0.57670133E+04</totfact>
</mgrwt>
</event>
<event>
 7    0  0.4725730E-002  0.4600311E+03  0.7546771E-02  0.1024772E+00
         21   -1    0    0  502  501  0.00000000000E+00  0.00000000000E+00  0.21293503961E+03  0.21293503961E+03  0.00000000000E+00 0.  1.
         21   -1    0    0  501  502 -0.00000000000E+00 -0.00000000000E+00 -0.24846618835E+03  0.24846618835E+03  0.00000000000E+00 0.  1.
      99926    2    1    2    0    0 -0.14210854715E-13  0.00000000000E+00 -0.35531148745E+02  0.46140122796E+03  0.46003111920E+03 0.  0.
      99925    2    3    3    0    0 -0.64900002022E+02 -0.39961900302E+02 -0.11234275618E+03  0.29600323862E+03  0.26303623072E+03 0.  0.
         25    1    4    4    0    0 -0.69772708171E+01  0.12031446553E+02 -0.41495318032E+02  0.13252474310E+03  0.12509000000E+03 0.  0.
         25    1    3    3    0    0  0.64900002022E+02  0.39961900302E+02  0.76811607436E+02  0.16539798933E+03  0.12509000000E+03 0.  0.
         25    1    4    4    0    0 -0.57922731205E+02 -0.51993346856E+02 -0.70847438150E+02  0.16347849553E+03  0.12509000000E+03 0.  0.
<mgrwt>
<rscale>  2 0.46003112E+03</rscale>
<asrwt>0</asrwt>
<pdfrwt beam="1">  1       21 0.31313977E-01 0.46003112E+03</pdfrwt>
<pdfrwt beam="2">  1       21 0.36539145E-01 0.46003112E+03</pdfrwt>
<totfact> 0.65413861E+04</totfact>
</mgrwt>
</event>
<event>
 7    0  0.4725730E-002  0.4558978E+03  0.7546771E-02  0.1025978E+00
         21   -1    0    0  502  501  0.00000000000E+00  0.00000000000E+00  0.53324389397E+03  0.53324389397E+03  0.00000000000E+00 0. -1.
         21   -1    0    0  501  502 -0.00000000000E+00 -0.00000000000E+00 -0.97442644520E+02  0.97442644520E+02  0.00000000000E+00 0. -1.
      99926    2    1    2    0    0  0.71054273576E-14  0.00000000000E+00  0.43580124945E+03  0.63068653849E+03  0.45589777452E+03 0.  0.
      99925    2    3    3    0    0  0.60316456708E+02 -0.43993626032E+02  0.39321981487E+03  0.47891631495E+03  0.26299334562E+03 0.  0.
         25    1    4    4    0    0  0.68250338262E+02 -0.25963302351E+02  0.23780288535E+03  0.27844195468E+03  0.12509000000E+03 0.  0.
         25    1    3    3    0    0 -0.60316456708E+02  0.43993626032E+02  0.42581434582E+02  0.15177022354E+03  0.12509000000E+03 0.  0.
         25    1    4    4    0    0 -0.79338815537E+01 -0.18030323681E+02  0.15541692952E+03  0.20047436028E+03  0.12509000000E+03 0.  0.
<mgrwt>
<rscale>  2 0.45589777E+03</rscale>
<asrwt>0</asrwt>
<pdfrwt beam="1">  1       21 0.78418218E-01 0.45589777E+03</pdfrwt>
<pdfrwt beam="2">  1       21 0.14329801E-01 0.45589777E+03</pdfrwt>
<totfact> 0.56427129E+04</totfact>
</mgrwt>
</event>
<event>
 7    0  0.4725730E-002  0.4498645E+03  0.7546771E-02  0.1027762E+00
         21   -1    0    0  502  501  0.00000000000E+00  0.00000000000E+00  0.14185457441E+03  0.14185457441E+03  0.00000000000E+00 0. -1.
         21   -1    0    0  501  502 -0.00000000000E+00 -0.00000000000E+00 -0.35666467774E+03  0.35666467774E+03  0.00000000000E+00 0. -1.
      99926    2    1    2    0    0  0.00000000000E+00 -0.35527136788E-14 -0.21481010333E+03  0.49851925216E+03  0.44986449546E+03 0.  0.
      99925    2    3    3    0    0 -0.35086400376E+02 -0.27062921398E+02 -0.26431631966E+02  0.26809049141E+03  0.26307873956E+03 0.  0.
         25    1    3    3    0    0  0.35086400376E+02  0.27062921398E+02 -0.18837847137E+03  0.23042876075E+03  0.12509000000E+03 0.  0.
         25    1    4    4    0    0 -0.42090176945E+02  0.17235361316E+02 -0.28824686482E+01  0.13313323177E+03  0.12509000000E+03 0.  0.
         25    1    4    4    0    0  0.70037765689E+01 -0.44298282714E+02 -0.23549163318E+02  0.13495725964E+03  0.12509000000E+03 0.  0.
<mgrwt>
<rscale>  2 0.44986450E+03</rscale>
<asrwt>0</asrwt>
<pdfrwt beam="1">  1       21 0.20860967E-01 0.44986450E+03</pdfrwt>
<pdfrwt beam="2">  1       21 0.52450687E-01 0.44986450E+03</pdfrwt>
<totfact> 0.68109216E+04</totfact>
</mgrwt>
</event>
<event>
 6    0  0.4725730E-002  0.4488987E+03  0.7546771E-02  0.1028051E+00
         21   -1    0    0  502  501  0.00000000000E+00  0.00000000000E+00  0.29952087401E+02  0.29952087401E+02  0.00000000000E+00 0. -1.
         21   -1    0    0  501  502 -0.00000000000E+00 -0.00000000000E+00 -0.16819366955E+04  0.16819366955E+04  0.00000000000E+00 0. -1.
      99926    2    1    2    0    0  0.00000000000E+00 -0.14210854715E-13 -0.16519846081E+04  0.17118887829E+04  0.44889871867E+03 0.  0.
         25    1    3    3    0    0  0.22219615284E+02 -0.44536607557E+02 -0.74569409938E+03  0.75774957517E+03  0.12509000000E+03 0.  0.
         25    1    3    3    0    0 -0.28828038703E+02  0.98231383874E+02 -0.51715751706E+03  0.54183010819E+03  0.12509000000E+03 0.  0.
         25    1    3    3    0    0  0.66084234193E+01 -0.53694776318E+02 -0.38913299161E+03  0.41230909949E+03  0.12509000000E+03 0.  0.
<mgrwt>
<rscale>  2 0.44889872E+03</rscale>
<asrwt>0</asrwt>
<pdfrwt beam="1">  1       21 0.44047170E-02 0.44889872E+03</pdfrwt>
<pdfrwt beam="2">  1       21 0.24734373E+00 0.44889872E+03</pdfrwt>
<totfact> 0.19943597E+04</totfact>
</mgrwt>
</event>
<event>
 7    0  0.4725730E-002  0.4424980E+03  0.7546771E-02  0.1029983E+00
         21   -1    0    0  502  501  0.00000000000E+00  0.00000000000E+00  0.24141598228E+04  0.24141598228E+04  0.00000000000E+00 0. -1.
         21   -1    0    0  501  502 -0.00000000000E+00 -0.00000000000E+00 -0.20276664869E+02  0.20276664869E+02  0.00000000000E+00 0. -1.
      99926    2    1    2    0    0  0.14210854715E-13  0.71054273576E-14  0.23938831580E+04  0.24344364877E+04  0.44249795330E+03 0.  0.
      99925    2    3    3    0    0  0.90788411098E+02  0.44224246812E+02  0.15187546872E+04  0.15446636695E+04  0.26300519451E+03 0.  0.
         25    1    4    4    0    0  0.60157679122E+02  0.16690342217E+02  0.57431356967E+03  0.59108467946E+03  0.12509000000E+03 0.  0.
         25    1    3    3    0    0 -0.90788411098E+02 -0.44224246812E+02  0.87512847081E+03  0.88977281826E+03  0.12509000000E+03 0.  0.
         25    1    4    4    0    0  0.30630731976E+02  0.27533904596E+02  0.94444111750E+03  0.95357899000E+03  0.12509000000E+03 0.  0.
<mgrwt>
<rscale>  2 0.44249795E+03</rscale>
<asrwt>0</asrwt>
<pdfrwt beam="1">  1       21 0.35502331E+00 0.44249795E+03</pdfrwt>
<pdfrwt beam="2">  1       21 0.29818641E-02 0.44249795E+03</pdfrwt>
<totfact> 0.86352994E+03</totfact>
</mgrwt>
</event>
<event>
 7    0  0.4725730E-002  0.4548510E+03  0.7546771E-02  0.1026285E+00
         21   -1    0    0  502  501  0.00000000000E+00  0.00000000000E+00  0.60112098606E+02  0.60112098606E+02  0.00000000000E+00 0.  1.
         21   -1    0    0  501  502 -0.00000000000E+00 -0.00000000000E+00 -0.86043171319E+03  0.86043171319E+03  0.00000000000E+00 0.  1.
      99926    2    1    2    0    0  0.00000000000E+00  0.00000000000E+00 -0.80031961458E+03  0.92054381180E+03  0.45485099093E+03 0.  0.
      99925    2    3    3    0    0  0.73197032095E+02  0.74634889306E+02 -0.41786238342E+03  0.50479242698E+03  0.26320761890E+03 0.  0.
         25    1    4    4    0    0  0.32546291612E+02  0.27669183221E+02 -0.27438134287E+03  0.30456111737E+03  0.12509000000E+03 0.  0.
         25    1    3    3    0    0 -0.73197032095E+02 -0.74634889306E+02 -0.38245723116E+03  0.41575138481E+03  0.12509000000E+03 0.  0.
         25    1    4    4    0    0  0.40650740483E+02  0.46965706084E+02 -0.14348104055E+03  0.20023130961E+03  0.12509000000E+03 0.  0.
<mgrwt>
<rscale>  2 0.45485099E+03</rscale>
<asrwt>0</asrwt>
<pdfrwt beam="1">  1       21 0.88400148E-02 0.45485099E+03</pdfrwt>
<pdfrwt beam="2">  1       21 0.12653407E+00 0.45485099E+03</pdfrwt>
<totfact> 0.42406653E+04</totfact>
</mgrwt>
</event>
<event>
 7    0  0.4725730E-002  0.4552869E+03  0.7546771E-02  0.1026157E+00
         21   -1    0    0  502  501  0.00000000000E+00  0.00000000000E+00  0.24021772785E+02  0.24021772785E+02  0.00000000000E+00 0. -1.
         21   -1    0    0  501  502 -0.00000000000E+00 -0.00000000000E+00 -0.21572736340E+04  0.21572736340E+04  0.00000000000E+00 0. -1.
      99926    2    1    2    0    0 -0.35527136788E-14 -0.14210854715E-13 -0.21332518612E+04  0.21812954068E+04  0.45528688569E+03 0.  0.
      99925    2    3    3    0    0  0.26848363017E+02  0.10456615363E+03 -0.15089873132E+04  0.15355333383E+04  0.26299240779E+03 0.  0.
         25    1    3    3    0    0 -0.26848363017E+02 -0.10456615363E+03 -0.62426454798E+03  0.64576206845E+03  0.12509000000E+03 0.  0.
         25    1    4    4    0    0  0.54934883740E+01  0.85780455865E+02 -0.94741241149E+03  0.95949270480E+03  0.12509000000E+03 0.  0.
         25    1    4    4    0    0  0.21354874643E+02  0.18785697767E+02 -0.56157490173E+03  0.57604063352E+03  0.12509000000E+03 0.  0.
<mgrwt>
<rscale>  2 0.45528689E+03</rscale>
<asrwt>0</asrwt>
<pdfrwt beam="1">  1       21 0.35326139E-02 0.45528689E+03</pdfrwt>
<pdfrwt beam="2">  1       21 0.31724610E+00 0.45528689E+03</pdfrwt>
<totfact> 0.10944956E+04</totfact>
</mgrwt>
</event>
<event>
 7    0  0.4725730E-002  0.4507848E+03  0.7546771E-02  0.1027488E+00
         21   -1    0    0  502  501  0.00000000000E+00  0.00000000000E+00  0.42532186554E+03  0.42532186554E+03  0.00000000000E+00 0. -1.
         21   -1    0    0  501  502 -0.00000000000E+00 -0.00000000000E+00 -0.11944304171E+03  0.11944304171E+03  0.00000000000E+00 0. -1.
      99926    2    1    2    0    0  0.35527136788E-14  0.00000000000E+00  0.30587882384E+03  0.54476490725E+03  0.45078481485E+03 0.  0.
      99925    2    3    3    0    0  0.20730805451E+02  0.54106920935E+02  0.30496989299E+03  0.40690389230E+03  0.26307188514E+03 0.  0.
         25    1    4    4    0    0  0.17448111411E+02  0.16815946270E+02  0.20930622329E+03  0.24503839668E+03  0.12509000000E+03 0.  0.
         25    1    4    4    0    0  0.32826940395E+01  0.37290974666E+02  0.95663669693E+02  0.16186549562E+03  0.12509000000E+03 0.  0.
         25    1    3    3    0    0 -0.20730805451E+02 -0.54106920935E+02  0.90893085193E+00  0.13786101495E+03  0.12509000000E+03 0.  0.
<mgrwt>
<rscale>  2 0.45078481E+03</rscale>
<asrwt>0</asrwt>
<pdfrwt beam="1">  1       21 0.62547332E-01 0.45078481E+03</pdfrwt>
<pdfrwt beam="2">  1       21 0.17565153E-01 0.45078481E+03</pdfrwt>
<totfact> 0.64332859E+04</totfact>
</mgrwt>
</event>
<event>
 7    0  0.4725730E-002  0.4572917E+03  0.7546771E-02  0.1025570E+00
         21   -1    0    0  502  501  0.00000000000E+00  0.00000000000E+00  0.27354321531E+03  0.27354321531E+03  0.00000000000E+00 0. -1.
         21   -1    0    0  501  502 -0.00000000000E+00 -0.00000000000E+00 -0.19111763172E+03  0.19111763172E+03  0.00000000000E+00 0. -1.
      99926    2    1    2    0    0 -0.71054273576E-14 -0.14210854715E-13  0.82425583591E+02  0.46466084702E+03  0.45729172956E+03 0.  0.
      99925    2    3    3    0    0  0.38892103414E+02  0.10809755677E+03  0.41188366810E+02  0.28988758352E+03  0.26294610100E+03 0.  0.
         25    1    3    3    0    0 -0.38892103414E+02 -0.10809755677E+03  0.41237216780E+02  0.17477326350E+03  0.12509000000E+03 0.  0.
         25    1    4    4    0    0  0.58663974532E+02  0.44223952739E+02  0.18416441415E+02  0.14623232652E+03  0.12509000000E+03 0.  0.
         25    1    4    4    0    0 -0.19771871117E+02  0.63873604027E+02  0.22771925395E+02  0.14365525700E+03  0.12509000000E+03 0.  0.
<mgrwt>
<rscale>  2 0.45729173E+03</rscale>
<asrwt>0</asrwt>
<pdfrwt beam="1">  1       21 0.40226943E-01 0.45729173E+03</pdfrwt>
<pdfrwt beam="2">  1       21 0.28105534E-01 0.45729173E+03</pdfrwt>
<totfact> 0.66613471E+04</totfact>
</mgrwt>
</event>
<event>
 7    0  0.4725730E-002  0.4537139E+03  0.7546771E-02  0.1026620E+00
         21   -1    0    0  502  501  0.00000000000E+00  0.00000000000E+00  0.84769414336E+02  0.84769414336E+02  0.00000000000E+00 0.  1.
         21   -1    0    0  501  502 -0.00000000000E+00 -0.00000000000E+00 -0.60710670256E+03  0.60710670256E+03  0.00000000000E+00 0.  1.
      99926    2    1    2    0    0  0.88817841970E-15  0.00000000000E+00 -0.52233728823E+03  0.69187611690E+03  0.45371391698E+03 0.  0.
      99925    2    3    3    0    0  0.78412937962E+01 -0.99718483475E+02 -0.25214348330E+03  0.37777826247E+03  0.26293500640E+03 0.  0.
         25    1    4    4    0    0  0.42305899225E+01 -0.92766709473E+02 -0.14664216581E+03  0.21395091300E+03  0.12509000000E+03 0.  0.
         25    1    3    3    0    0 -0.78412937962E+01  0.99718483475E+02 -0.27019380493E+03  0.31409785443E+03  0.12509000000E+03 0.  0.
         25    1    4    4    0    0  0.36107038737E+01 -0.69517740015E+01 -0.10550131748E+03  0.16382734947E+03  0.12509000000E+03 0.  0.
<mgrwt>
<rscale>  2 0.45371392E+03</rscale>
<asrwt>0</asrwt>
<pdfrwt beam="1">  1       21 0.12466091E-01 0.45371392E+03</pdfrwt>
<pdfrwt beam="2">  1       21 0.89280395E-01 0.45371392E+03</pdfrwt>
<totfact> 0.53889807E+04</totfact>
</mgrwt>
</event>
<event>
 7    0  0.4725730E-002  0.4541002E+03  0.7546771E-02  0.1026506E+00
         21   -1    0    0  502  501  0.00000000000E+00  0.00000000000E+00  0.13956911380E+03  0.13956911380E+03  0.00000000000E+00 0. -1.
         21   -1    0    0  501  502 -0.00000000000E+00 -0.00000000000E+00 -0.36936361061E+03  0.36936361061E+03  0.00000000000E+00 0. -1.
      99926    2    1    2    0    0  0.00000000000E+00  0.00000000000E+00 -0.22979449681E+03  0.50893272441E+03  0.45410021714E+03 0.  0.
      99925    2    3    3    0    0 -0.95201256715E+02 -0.21555534426E+02 -0.82533052748E+02  0.29245787286E+03  0.26304368888E+03 0.  0.
         25    1    4    4    0    0 -0.56128886064E+02 -0.44404684770E+02 -0.20112372371E+02  0.14551372273E+03  0.12509000000E+03 0.  0.
         25    1    4    4    0    0 -0.39072370650E+02  0.22849150344E+02 -0.62420680376E+02  0.14694415013E+03  0.12509000000E+03 0.  0.
         25    1    3    3    0    0  0.95201256715E+02  0.21555534426E+02 -0.14726144406E+03  0.21647485154E+03  0.12509000000E+03 0.  0.
<mgrwt>
<rscale>  2 0.45410022E+03</rscale>
<asrwt>0</asrwt>
<pdfrwt beam="1">  1       21 0.20524870E-01 0.45410022E+03</pdfrwt>
<pdfrwt beam="2">  1       21 0.54318178E-01 0.45410022E+03</pdfrwt>
<totfact> 0.65111278E+04</totfact>
</mgrwt>
</event>
<event>
 7    0  0.4725730E-002  0.4564362E+03  0.7546771E-02  0.1025820E+00
         21   -1    0    0  502  501  0.00000000000E+00  0.00000000000E+00  0.48431243709E+03  0.48431243709E+03  0.00000000000E+00 0.  1.
         21   -1    0    0  501  502 -0.00000000000E+00 -0.00000000000E+00 -0.10754113645E+03  0.10754113645E+03  0.00000000000E+00 0.  1.
      99926    2    1    2    0    0  0.00000000000E+00  0.00000000000E+00  0.37677130065E+03  0.59185357354E+03  0.45643623818E+03 0.  0.
      99925    2    3    3    0    0  0.10611522046E+03 -0.34180476953E+02  0.20272341442E+03  0.35025696798E+03  0.26297227202E+03 0.  0.
         25    1    4    4    0    0  0.80398414278E+02  0.91715355534E+01  0.12584950998E+03  0.19502212527E+03  0.12509000000E+03 0.  0.
         25    1    4    4    0    0  0.25716806178E+02 -0.43352012506E+02  0.76873904439E+02  0.15523484271E+03  0.12509000000E+03 0.  0.
         25    1    3    3    0    0 -0.10611522046E+03  0.34180476953E+02  0.17404788623E+03  0.24159660556E+03  0.12509000000E+03 0.  0.
<mgrwt>
<rscale>  2 0.45643624E+03</rscale>
<asrwt>0</asrwt>
<pdfrwt beam="1">  1       21 0.71222417E-01 0.45643624E+03</pdfrwt>
<pdfrwt beam="2">  1       21 0.15814873E-01 0.45643624E+03</pdfrwt>
<totfact> 0.58515490E+04</totfact>
</mgrwt>
</event>
<event>
 7    0  0.4725730E-002  0.4594536E+03  0.7546771E-02  0.1024940E+00
         21   -1    0    0  502  501  0.00000000000E+00  0.00000000000E+00  0.13279243610E+04  0.13279243610E+04  0.00000000000E+00 0. -1.
         21   -1    0    0  501  502 -0.00000000000E+00 -0.00000000000E+00 -0.39742029970E+02  0.39742029970E+02  0.00000000000E+00 0. -1.
      99926    2    1    2    0    0  0.00000000000E+00  0.00000000000E+00  0.12881823310E+04  0.13676663909E+04  0.45945363096E+03 0.  0.
      99925    2    3    3    0    0 -0.75534052382E+02 -0.71420238174E+02  0.96930697890E+03  0.10097065583E+04  0.26295450383E+03 0.  0.
         25    1    4    4    0    0 -0.60480892220E+02 -0.35993735958E+02  0.62734476189E+03  0.64355453982E+03  0.12509000000E+03 0.  0.
         25    1    3    3    0    0  0.75534052382E+02  0.71420238174E+02  0.31887535209E+03  0.35795983261E+03  0.12509000000E+03 0.  0.
         25    1    4    4    0    0 -0.15053160161E+02 -0.35426502216E+02  0.34196221701E+03  0.36615201850E+03  0.12509000000E+03 0.  0.
<mgrwt>
<rscale>  2 0.45945363E+03</rscale>
<asrwt>0</asrwt>
<pdfrwt beam="1">  1       21 0.19528297E+00 0.45945363E+03</pdfrwt>
<pdfrwt beam="2">  1       21 0.58444170E-02 0.45945363E+03</pdfrwt>
<totfact> 0.26284828E+04</totfact>
</mgrwt>
</event>
<event>
 7    0  0.4725730E-002  0.4431633E+03  0.7546771E-02  0.1029781E+00
         21   -1    0    0  502  501  0.00000000000E+00  0.00000000000E+00  0.75280053821E+03  0.75280053821E+03  0.00000000000E+00 0. -1.
         21   -1    0    0  501  502 -0.00000000000E+00 -0.00000000000E+00 -0.65221042791E+02  0.65221042791E+02  0.00000000000E+00 0. -1.
      99926    2    1    2    0    0  0.00000000000E+00  0.00000000000E+00  0.68757949542E+03  0.81802158101E+03  0.44316333836E+03 0.  0.
      99925    2    3    3    0    0  0.33067088836E+02  0.91209286898E+02  0.38266249886E+03  0.47446016106E+03  0.26319059637E+03 0.  0.
         25    1    3    3    0    0 -0.33067088836E+02 -0.91209286898E+02  0.30491699657E+03  0.34356141995E+03  0.12509000000E+03 0.  0.
         25    1    4    4    0    0  0.20617356407E+02  0.26187341466E+02  0.12215118895E+03  0.17798672226E+03  0.12509000000E+03 0.  0.
         25    1    4    4    0    0  0.12449732429E+02  0.65021945432E+02  0.26051130990E+03  0.29647343880E+03  0.12509000000E+03 0.  0.
<mgrwt>
<rscale>  2 0.44316334E+03</rscale>
<asrwt>0</asrwt>
<pdfrwt beam="1">  1       21 0.11070596E+00 0.44316334E+03</pdfrwt>
<pdfrwt beam="2">  1       21 0.95913303E-02 0.44316334E+03</pdfrwt>
<totfact> 0.51527161E+04</totfact>
</mgrwt>
</event>
<event>
 7    0  0.4725730E-002  0.4515994E+03  0.7546771E-02  0.1027246E+00
         21   -1    0    0  502  501  0.00000000000E+00  0.00000000000E+00  0.10398274129E+03  0.10398274129E+03  0.00000000000E+00 0. -1.
         21   -1    0    0  501  502 -0.00000000000E+00 -0.00000000000E+00 -0.49032655275E+03  0.49032655275E+03  0.00000000000E+00 0. -1.
      99926    2    1    2    0    0  0.00000000000E+00  0.00000000000E+00 -0.38634381146E+03  0.59430929404E+03  0.45159937591E+03 0.  0.
      99925    2    3    3    0    0 -0.10083667679E+02 -0.10064734662E+03 -0.18863482897E+03  0.33942124294E+03  0.26342382717E+03 0.  0.
         25    1    4    4    0    0  0.19917295990E+02 -0.84588223790E+02 -0.95101398449E+02  0.17956517026E+03  0.12509000000E+03 0.  0.
         25    1    3    3    0    0  0.10083667679E+02  0.10064734662E+03 -0.19770898249E+03  0.25488805110E+03  0.12509000000E+03 0.  0.
         25    1    4    4    0    0 -0.30000963669E+02 -0.16059122827E+02 -0.93533430524E+02  0.15985607268E+03  0.12509000000E+03 0.  0.
<mgrwt>
<rscale>  2 0.45159938E+03</rscale>
<asrwt>0</asrwt>
<pdfrwt beam="1">  1       21 0.15291580E-01 0.45159938E+03</pdfrwt>
<pdfrwt beam="2">  1       21 0.72106845E-01 0.45159938E+03</pdfrwt>
<totfact> 0.60643240E+04</totfact>
</mgrwt>
</event>
<event>
 7    0  0.4725730E-002  0.4640533E+03  0.7546771E-02  0.1023612E+00
         21   -1    0    0  502  501  0.00000000000E+00  0.00000000000E+00  0.16021715819E+03  0.16021715819E+03  0.00000000000E+00 0.  1.
         21   -1    0    0  501  502 -0.00000000000E+00 -0.00000000000E+00 -0.33602119249E+03  0.33602119249E+03  0.00000000000E+00 0.  1.
      99926    2    1    2    0    0  0.00000000000E+00  0.14210854715E-13 -0.17580403429E+03  0.49623835068E+03  0.46405327519E+03 0.  0.
      99925    2    3    3    0    0  0.35352016949E+02 -0.73837241180E+02 -0.13632229944E+02  0.27567338176E+03  0.26288452300E+03 0.  0.
         25    1    3    3    0    0 -0.35352016949E+02  0.73837241180E+02 -0.16217180435E+03  0.22056496892E+03  0.12509000000E+03 0.  0.
         25    1    4    4    0    0  0.22343399820E+02 -0.78619654693E+02 -0.10163589771E+02  0.14977010475E+03  0.12509000000E+03 0.  0.
         25    1    4    4    0    0  0.13008617129E+02  0.47824135122E+01 -0.34686401731E+01  0.12590327702E+03  0.12509000000E+03 0.  0.
<mgrwt>
<rscale>  2 0.46405328E+03</rscale>
<asrwt>0</asrwt>
<pdfrwt beam="1">  1       21 0.23561347E-01 0.46405328E+03</pdfrwt>
<pdfrwt beam="2">  1       21 0.49414881E-01 0.46405328E+03</pdfrwt>
<totfact> 0.61030119E+04</totfact>
</mgrwt>
</event>
<event>
 7    0  0.4725730E-002  0.4535427E+03  0.7546771E-02  0.1026671E+00
         21   -1    0    0  502  501  0.00000000000E+00  0.00000000000E+00  0.31404135641E+03  0.31404135641E+03  0.00000000000E+00 0.  1.
         21   -1    0    0  501  502 -0.00000000000E+00 -0.00000000000E+00 -0.16375309359E+03  0.16375309359E+03  0.00000000000E+00 0.  1.
      99926    2    1    2    0    0  0.00000000000E+00  0.00000000000E+00  0.15028826281E+03  0.47779445000E+03  0.45354269316E+03 0.  0.
      99925    2    3    3    0    0 -0.77233792632E+02  0.74588674933E+02  0.63142848629E+02  0.29132632815E+03  0.26335428797E+03 0.  0.
         25    1    3    3    0    0  0.77233792632E+02 -0.74588674933E+02  0.87145414186E+02  0.18646812185E+03  0.12509000000E+03 0.  0.
         25    1    4    4    0    0 -0.22790061411E+02  0.63017206080E+02  0.60818736500E+02  0.15439229894E+03  0.12509000000E+03 0.  0.
         25    1    4    4    0    0 -0.54443731221E+02  0.11571468853E+02  0.23241121293E+01  0.13693402922E+03  0.12509000000E+03 0.  0.
<mgrwt>
<rscale>  2 0.45354269E+03</rscale>
<asrwt>0</asrwt>
<pdfrwt beam="1">  1       21 0.46182552E-01 0.45354269E+03</pdfrwt>
<pdfrwt beam="2">  1       21 0.24081337E-01 0.45354269E+03</pdfrwt>
<totfact> 0.67639992E+04</totfact>
</mgrwt>
</event>
<event>
 7    0  0.4725730E-002  0.3931777E+03  0.7546771E-02  0.1046168E+00
         21   -1    0    0  502  501  0.00000000000E+00  0.00000000000E+00  0.17438701841E+03  0.17438701841E+03  0.00000000000E+00 0. -1.
         21   -1    0    0  501  502 -0.00000000000E+00 -0.00000000000E+00 -0.22161726602E+03  0.22161726602E+03  0.00000000000E+00 0. -1.
      99926    2    1    2    0    0  0.00000000000E+00 -0.17763568394E-14 -0.47230247610E+02  0.39600428443E+03  0.39317769138E+03 0.  0.
      99925    2    3    3    0    0 -0.14781329803E+02 -0.13753001948E+02 -0.52890877930E+02  0.26916902274E+03  0.26314802880E+03 0.  0.
         25    1    4    4    0    0 -0.58789640752E+01  0.11888714529E+02  0.10694077799E+02  0.12624490149E+03  0.12509000000E+03 0.  0.
         25    1    3    3    0    0  0.14781329803E+02  0.13753001948E+02  0.56606303197E+01  0.12683526169E+03  0.12509000000E+03 0.  0.
         25    1    4    4    0    0 -0.89023657278E+01 -0.25641716476E+02 -0.63584955729E+02  0.14292412125E+03  0.12509000000E+03 0.  0.
<mgrwt>
<rscale>  2 0.39317769E+03</rscale>
<asrwt>0</asrwt>
<pdfrwt beam="1">  1       21 0.25645150E-01 0.39317769E+03</pdfrwt>
<pdfrwt beam="2">  1       21 0.32590774E-01 0.39317769E+03</pdfrwt>
<totfact> 0.12378197E+05</totfact>
</mgrwt>
</event>
<event>
 7    0  0.4725730E-002  0.4592856E+03  0.7546771E-02  0.1024989E+00
         21   -1    0    0  502  501  0.00000000000E+00  0.00000000000E+00  0.80653045255E+02  0.80653045255E+02  0.00000000000E+00 0. -1.
         21   -1    0    0  501  502 -0.00000000000E+00 -0.00000000000E+00 -0.65386027935E+03  0.65386027935E+03  0.00000000000E+00 0. -1.
      99926    2    1    2    0    0  0.00000000000E+00 -0.17763568394E-14 -0.57320723410E+03  0.73451332461E+03  0.45928563096E+03 0.  0.
      99925    2    3    3    0    0 -0.60090904390E+02  0.10712312027E+02 -0.51931349682E+03  0.58525611896E+03  0.26289265182E+03 0.  0.
         25    1    4    4    0    0 -0.21311222675E+02  0.40802169596E+02 -0.29606991477E+03  0.32469044918E+03  0.12509000000E+03 0.  0.
         25    1    3    3    0    0  0.60090904390E+02 -0.10712312027E+02 -0.53893737276E+02  0.14925720565E+03  0.12509000000E+03 0.  0.
         25    1    4    4    0    0 -0.38779681715E+02 -0.30089857570E+02 -0.22324358205E+03  0.26056566978E+03  0.12509000000E+03 0.  0.
<mgrwt>
<rscale>  2 0.45928563E+03</rscale>
<asrwt>0</asrwt>
<pdfrwt beam="1">  1       21 0.11860742E-01 0.45928563E+03</pdfrwt>
<pdfrwt beam="2">  1       21 0.96155926E-01 0.45928563E+03</pdfrwt>
<totfact> 0.49383652E+04</totfact>
</mgrwt>
</event>
<event>
 7    0  0.4725730E-002  0.4549536E+03  0.7546771E-02  0.1026255E+00
         21   -1    0    0  502  501  0.00000000000E+00  0.00000000000E+00  0.10685827064E+03  0.10685827064E+03  0.00000000000E+00 0. -1.
         21   -1    0    0  501  502 -0.00000000000E+00 -0.00000000000E+00 -0.48424595688E+03  0.48424595688E+03  0.00000000000E+00 0. -1.
      99926    2    1    2    0    0  0.14210854715E-13 -0.17763568394E-14 -0.37738768625E+03  0.59110422752E+03  0.45495356033E+03 0.  0.
      99925    2    3    3    0    0 -0.10933735565E+03 -0.51850563539E+01 -0.27440862456E+03  0.39556973595E+03  0.26304710722E+03 0.  0.
         25    1    4    4    0    0 -0.72214006225E+02  0.34546193030E+02 -0.14402429989E+03  0.20687873068E+03  0.12509000000E+03 0.  0.
         25    1    3    3    0    0  0.10933735565E+03  0.51850563539E+01 -0.10297906169E+03  0.19553449157E+03  0.12509000000E+03 0.  0.
         25    1    4    4    0    0 -0.37123349420E+02 -0.39731249384E+02 -0.13038432467E+03  0.18869100527E+03  0.12509000000E+03 0.  0.
<mgrwt>
<rscale>  2 0.45495356E+03</rscale>
<asrwt>0</asrwt>
<pdfrwt beam="1">  1       21 0.15714452E-01 0.45495356E+03</pdfrwt>
<pdfrwt beam="2">  1       21 0.71212640E-01 0.45495356E+03</pdfrwt>
<totfact> 0.59250935E+04</totfact>
</mgrwt>
</event>
<event>
 7    0  0.4725730E-002  0.4571682E+03  0.7546771E-02  0.1025606E+00
         21   -1    0    0  502  501  0.00000000000E+00  0.00000000000E+00  0.59420396417E+02  0.59420396417E+02  0.00000000000E+00 0.  1.
         21   -1    0    0  501  502 -0.00000000000E+00 -0.00000000000E+00 -0.87933917842E+03  0.87933917842E+03  0.00000000000E+00 0.  1.
      99926    2    1    2    0    0  0.00000000000E+00  0.00000000000E+00 -0.81991878200E+03  0.93875957484E+03  0.45716816410E+03 0.  0.
      99925    2    3    3    0    0 -0.85386914031E+02 -0.70254745448E+02 -0.44886685266E+03  0.53187667189E+03  0.26302982404E+03 0.  0.
         25    1    4    4    0    0 -0.19745951150E+02 -0.11602293115E+02 -0.25484522523E+03  0.28481241671E+03  0.12509000000E+03 0.  0.
         25    1    3    3    0    0  0.85386914031E+02  0.70254745448E+02 -0.37105192934E+03  0.40688290295E+03  0.12509000000E+03 0.  0.
         25    1    4    4    0    0 -0.65640962881E+02 -0.58652452333E+02 -0.19402162743E+03  0.24706425517E+03  0.12509000000E+03 0.  0.
<mgrwt>
<rscale>  2 0.45716816E+03</rscale>
<asrwt>0</asrwt>
<pdfrwt beam="1">  1       21 0.87382941E-02 0.45716816E+03</pdfrwt>
<pdfrwt beam="2">  1       21 0.12931458E+00 0.45716816E+03</pdfrwt>
<totfact> 0.40901372E+04</totfact>
</mgrwt>
</event>
<event>
 7    0  0.4725730E-002  0.4550573E+03  0.7546771E-02  0.1026225E+00
         21   -1    0    0  502  501  0.00000000000E+00  0.00000000000E+00  0.16846537162E+03  0.16846537162E+03  0.00000000000E+00 0. -1.
         21   -1    0    0  501  502 -0.00000000000E+00 -0.00000000000E+00 -0.30729929684E+03  0.30729929684E+03  0.00000000000E+00 0. -1.
      99926    2    1    2    0    0  0.00000000000E+00 -0.14210854715E-13 -0.13883392522E+03  0.47576466846E+03  0.45505731613E+03 0.  0.
      99925    2    3    3    0    0 -0.40358341391E+02  0.10255652066E+03 -0.60001715052E+02  0.29135029508E+03  0.26294134895E+03 0.  0.
         25    1    3    3    0    0  0.40358341391E+02 -0.10255652066E+03 -0.78832210166E+02  0.18441437338E+03  0.12509000000E+03 0.  0.
         25    1    4    4    0    0 -0.13682781345E+01  0.44101740628E+02 -0.65159427823E+02  0.14778394651E+03  0.12509000000E+03 0.  0.
         25    1    4    4    0    0 -0.38990063256E+02  0.58454780035E+02  0.51577127719E+01  0.14356634857E+03  0.12509000000E+03 0.  0.
<mgrwt>
<rscale>  2 0.45505732E+03</rscale>
<asrwt>0</asrwt>
<pdfrwt beam="1">  1       21 0.24774320E-01 0.45505732E+03</pdfrwt>
<pdfrwt beam="2">  1       21 0.45191072E-01 0.45505732E+03</pdfrwt>
<totfact> 0.66979245E+04</totfact>
</mgrwt>
</event>
<event>
 7    0  0.4725730E-002  0.4620651E+03  0.7546771E-02  0.1024184E+00
         21   -1    0    0  502  501  0.00000000000E+00  0.00000000000E+00  0.58043669981E+02  0.58043669981E+02  0.00000000000E+00 0. -1.
         21   -1    0    0  501  502 -0.00000000000E+00 -0.00000000000E+00 -0.91958422030E+03  0.91958422030E+03  0.00000000000E+00 0. -1.
      99926    2    1    2    0    0  0.14210854715E-13  0.00000000000E+00 -0.86154055032E+03  0.97762789028E+03  0.46206511664E+03 0.  0.
      99925    2    3    3    0    0  0.11456163458E+03  0.11800101365E+02 -0.47015460376E+03  0.55090306352E+03  0.26303084125E+03 0.  0.
         25    1    3    3    0    0 -0.11456163458E+03 -0.11800101365E+02 -0.39138594656E+03  0.42672482676E+03  0.12509000000E+03 0.  0.
         25    1    4    4    0    0  0.65776752238E+02 -0.29512944841E+02 -0.20358869147E+03  0.24958657505E+03  0.12509000000E+03 0.  0.
         25    1    4    4    0    0  0.48784882344E+02  0.41313046206E+02 -0.26656591229E+03  0.30131648847E+03  0.12509000000E+03 0.  0.
<mgrwt>
<rscale>  2 0.46206512E+03</rscale>
<asrwt>0</asrwt>
<pdfrwt beam="1">  1       21 0.85358341E-02 0.46206512E+03</pdfrwt>
<pdfrwt beam="2">  1       21 0.13523297E+00 0.46206512E+03</pdfrwt>
<totfact> 0.37904596E+04</totfact>
</mgrwt>
</event>
<event>
 7    0  0.4725730E-002  0.4564698E+03  0.7546771E-02  0.1025810E+00
         21   -1    0    0  502  501  0.00000000000E+00  0.00000000000E+00  0.87225673403E+02  0.87225673403E+02  0.00000000000E+00 0.  1.
         21   -1    0    0  501  502 -0.00000000000E+00 -0.00000000000E+00 -0.59720008503E+03  0.59720008503E+03  0.00000000000E+00 0.  1.
      99926    2    1    2    0    0  0.00000000000E+00 -0.35527136788E-14 -0.50997441163E+03  0.68442575844E+03  0.45646984380E+03 0.  0.
      99925    2    3    3    0    0  0.98447166024E+02 -0.27153467477E+02 -0.39821544514E+03  0.48804161960E+03  0.26302077185E+03 0.  0.
         25    1    4    4    0    0  0.27799158872E+02 -0.29257765868E+02 -0.13658907443E+03  0.18955973584E+03  0.12509000000E+03 0.  0.
         25    1    4    4    0    0  0.70648007152E+02  0.21042983915E+01 -0.26162637070E+03  0.29848188376E+03  0.12509000000E+03 0.  0.
         25    1    3    3    0    0 -0.98447166024E+02  0.27153467477E+02 -0.11175896649E+03  0.19638413883E+03  0.12509000000E+03 0.  0.
<mgrwt>
<rscale>  2 0.45646984E+03</rscale>
<asrwt>0</asrwt>
<pdfrwt beam="1">  1       21 0.12827305E-01 0.45646984E+03</pdfrwt>
<pdfrwt beam="2">  1       21 0.87823539E-01 0.45646984E+03</pdfrwt>
<totfact> 0.53139345E+04</totfact>
</mgrwt>
</event>
<event>
 7    0  0.4725730E-002  0.4495478E+03  0.7546771E-02  0.1027857E+00
         21   -1    0    0  502  501  0.00000000000E+00  0.00000000000E+00  0.11749937982E+04  0.11749937982E+04  0.00000000000E+00 0.  1.
         21   -1    0    0  501  502 -0.00000000000E+00 -0.00000000000E+00 -0.42998789197E+02  0.42998789197E+02  0.00000000000E+00 0.  1.
      99926    2    1    2    0    0  0.17763568394E-14 -0.71054273576E-14  0.11319950090E+04  0.12179925874E+04  0.44954782009E+03 0.  0.
      99925    2    3    3    0    0 -0.15229381869E+02  0.44412889271E+02  0.45361686320E+03  0.52658181542E+03  0.26327877040E+03 0.  0.
         25    1    4    4    0    0 -0.76759384860E+01  0.63547566635E+02  0.22976211672E+03  0.26932387870E+03  0.12509000000E+03 0.  0.
         25    1    4    4    0    0 -0.75534433827E+01 -0.19134677364E+02  0.22385474648E+03  0.25725793672E+03  0.12509000000E+03 0.  0.
         25    1    3    3    0    0  0.15229381869E+02 -0.44412889271E+02  0.67837814583E+03  0.69141077200E+03  0.12509000000E+03 0.  0.
<mgrwt>
<rscale>  2 0.44954782E+03</rscale>
<asrwt>0</asrwt>
<pdfrwt beam="1">  1       21 0.17279318E+00 0.44954782E+03</pdfrwt>
<pdfrwt beam="2">  1       21 0.63233521E-02 0.44954782E+03</pdfrwt>
<totfact> 0.32968729E+04</totfact>
</mgrwt>
</event>
<event>
 7    0  0.4725730E-002  0.4542205E+03  0.7546771E-02  0.1026471E+00
         21   -1    0    0  502  501  0.00000000000E+00  0.00000000000E+00  0.38001753806E+03  0.38001753806E+03  0.00000000000E+00 0. -1.
         21   -1    0    0  501  502 -0.00000000000E+00 -0.00000000000E+00 -0.13572812137E+03  0.13572812137E+03  0.00000000000E+00 0. -1.
      99926    2    1    2    0    0  0.00000000000E+00  0.00000000000E+00  0.24428941669E+03  0.51574565944E+03  0.45422050385E+03 0.  0.
      99925    2    3    3    0    0 -0.94206752490E+02 -0.66019729766E+01  0.84705047269E+02  0.29206468723E+03  0.26307477688E+03 0.  0.
         25    1    3    3    0    0  0.94206752490E+02  0.66019729766E+01  0.15958436943E+03  0.22368097221E+03  0.12509000000E+03 0.  0.
         25    1    4    4    0    0 -0.24961154451E+02 -0.37351180214E+02  0.33003946940E+02  0.13694867107E+03  0.12509000000E+03 0.  0.
         25    1    4    4    0    0 -0.69245598039E+02  0.30749207238E+02  0.51701100328E+02  0.15511601616E+03  0.12509000000E+03 0.  0.
<mgrwt>
<rscale>  2 0.45422050E+03</rscale>
<asrwt>0</asrwt>
<pdfrwt beam="1">  1       21 0.55884932E-01 0.45422050E+03</pdfrwt>
<pdfrwt beam="2">  1       21 0.19960018E-01 0.45422050E+03</pdfrwt>
<totfact> 0.64576541E+04</totfact>
</mgrwt>
</event>
<event>
 7    0  0.4725730E-002  0.4530383E+03  0.7546771E-02  0.1026820E+00
         21   -1    0    0  502  501  0.00000000000E+00  0.00000000000E+00  0.64412950040E+02  0.64412950040E+02  0.00000000000E+00 0.  1.
         21   -1    0    0  501  502 -0.00000000000E+00 -0.00000000000E+00 -0.79659345196E+03  0.79659345196E+03  0.00000000000E+00 0.  1.
      99926    2    1    2    0    0  0.00000000000E+00  0.17763568394E-14 -0.73218050192E+03  0.86100640200E+03  0.45303833932E+03 0.  0.
      99925    2    3    3    0    0  0.66316953076E+02  0.13224617776E+02 -0.29342579937E+03  0.39978408479E+03  0.26297487701E+03 0.  0.
         25    1    3    3    0    0 -0.66316953076E+02 -0.13224617776E+02 -0.43875470255E+03  0.46122231721E+03  0.12509000000E+03 0.  0.
         25    1    4    4    0    0  0.35342447608E+02 -0.21090505645E+02 -0.18925621174E+03  0.23056304954E+03  0.12509000000E+03 0.  0.
         25    1    4    4    0    0  0.30974505469E+02  0.34315123420E+02 -0.10416958763E+03  0.16922103525E+03  0.12509000000E+03 0.  0.
<mgrwt>
<rscale>  2 0.45303834E+03</rscale>
<asrwt>0</asrwt>
<pdfrwt beam="1">  1       21 0.94724938E-02 0.45303834E+03</pdfrwt>
<pdfrwt beam="2">  1       21 0.11714608E+00 0.45303834E+03</pdfrwt>
<totfact> 0.45649249E+04</totfact>
</mgrwt>
</event>
<event>
 7    0  0.4725730E-002  0.4661193E+03  0.7546771E-02  0.1023021E+00
         21   -1    0    0  502  501  0.00000000000E+00  0.00000000000E+00  0.81617205539E+03  0.81617205539E+03  0.00000000000E+00 0. -1.
         21   -1    0    0  501  502 -0.00000000000E+00 -0.00000000000E+00 -0.66550660287E+02  0.66550660287E+02  0.00000000000E+00 0. -1.
      99926    2    1    2    0    0  0.71054273576E-14  0.00000000000E+00  0.74962139510E+03  0.88272271568E+03  0.46611925167E+03 0.  0.
      99925    2    3    3    0    0  0.45974185466E+02  0.11337226942E+03  0.43406571603E+03  0.52190449012E+03  0.26268679785E+03 0.  0.
         25    1    4    4    0    0  0.53459374558E+02  0.57867317425E+02  0.17725840658E+03  0.23081287216E+03  0.12509000000E+03 0.  0.
         25    1    3    3    0    0 -0.45974185466E+02 -0.11337226942E+03  0.31555567907E+03  0.36081822556E+03  0.12509000000E+03 0.  0.
         25    1    4    4    0    0 -0.74851890925E+01  0.55504951999E+02  0.25680730946E+03  0.29109161795E+03  0.12509000000E+03 0.  0.
<mgrwt>
<rscale>  2 0.46611925E+03</rscale>
<asrwt>0</asrwt>
<pdfrwt beam="1">  1       21 0.12002530E+00 0.46611925E+03</pdfrwt>
<pdfrwt beam="2">  1       21 0.97868623E-02 0.46611925E+03</pdfrwt>
<totfact> 0.40358213E+04</totfact>
</mgrwt>
</event>
<event>
 7    0  0.4725730E-002  0.4347092E+03  0.7546771E-02  0.1032383E+00
         21   -1    0    0  502  501  0.00000000000E+00  0.00000000000E+00  0.72214896617E+02  0.72214896617E+02  0.00000000000E+00 0.  1.
         21   -1    0    0  501  502 -0.00000000000E+00 -0.00000000000E+00 -0.65420047578E+03  0.65420047578E+03  0.00000000000E+00 0.  1.
      99926    2    1    2    0    0  0.00000000000E+00  0.00000000000E+00 -0.58198557916E+03  0.72641537240E+03  0.43470918888E+03 0.  0.
      99925    2    3    3    0    0 -0.25129468656E+02 -0.73828363629E+02 -0.45743763389E+03  0.53343398406E+03  0.26309790760E+03 0.  0.
         25    1    4    4    0    0 -0.53407011995E+02 -0.38145186457E+02 -0.23134186935E+03  0.27106075480E+03  0.12509000000E+03 0.  0.
         25    1    3    3    0    0  0.25129468656E+02  0.73828363629E+02 -0.12454794528E+03  0.19298138834E+03  0.12509000000E+03 0.  0.
         25    1    4    4    0    0  0.28277543339E+02 -0.35683177172E+02 -0.22609576453E+03  0.26237322926E+03  0.12509000000E+03 0.  0.
<mgrwt>
<rscale>  2 0.43470919E+03</rscale>
<asrwt>0</asrwt>
<pdfrwt beam="1">  1       21 0.10619838E-01 0.43470919E+03</pdfrwt>
<pdfrwt beam="2">  1       21 0.96205950E-01 0.43470919E+03</pdfrwt>
<totfact> 0.60598278E+04</totfact>
</mgrwt>
</event>
<event>
 7    0  0.4725730E-002  0.4577140E+03  0.7546771E-02  0.1025446E+00
         21   -1    0    0  502  501  0.00000000000E+00  0.00000000000E+00  0.28929851640E+03  0.28929851640E+03  0.00000000000E+00 0. -1.
         21   -1    0    0  501  502 -0.00000000000E+00 -0.00000000000E+00 -0.18104321747E+03  0.18104321747E+03  0.00000000000E+00 0. -1.
      99926    2    1    2    0    0  0.71054273576E-14  0.14210854715E-13  0.10825529893E+03  0.47034173387E+03  0.45771403394E+03 0.  0.
      99925    2    3    3    0    0 -0.48812240542E+02  0.99443498491E+02  0.33675765371E+02  0.28736288497E+03  0.26300518296E+03 0.  0.
         25    1    3    3    0    0  0.48812240542E+02 -0.99443498491E+02  0.74579533556E+02  0.18297884890E+03  0.12509000000E+03 0.  0.
         25    1    4    4    0    0 -0.11431686721E+02  0.79693236156E+01  0.18757840000E+02  0.12725391248E+03  0.12509000000E+03 0.  0.
         25    1    4    4    0    0 -0.37380553821E+02  0.91474174876E+02  0.14917925371E+02  0.16010897249E+03  0.12509000000E+03 0.  0.
<mgrwt>
<rscale>  2 0.45771403E+03</rscale>
<asrwt>0</asrwt>
<pdfrwt beam="1">  1       21 0.42543900E-01 0.45771403E+03</pdfrwt>
<pdfrwt beam="2">  1       21 0.26624002E-01 0.45771403E+03</pdfrwt>
<totfact> 0.65978486E+04</totfact>
</mgrwt>
</event>
<event>
 6    0  0.4725730E-002  0.4442628E+03  0.7546771E-02  0.1029447E+00
         21   -1    0    0  502  501  0.00000000000E+00  0.00000000000E+00  0.43367494912E+02  0.43367494912E+02  0.00000000000E+00 0.  1.
         21   -1    0    0  501  502 -0.00000000000E+00 -0.00000000000E+00 -0.11377730821E+04  0.11377730821E+04  0.00000000000E+00 0.  1.
      99926    2    1    2    0    0  0.00000000000E+00  0.00000000000E+00 -0.10944055872E+04  0.11811405770E+04  0.44426284269E+03 0.  0.
         25    1    3    3    0    0  0.24087781128E+02  0.55844046659E+02 -0.19580398420E+03  0.24017803204E+03  0.12509000000E+03 0.  0.
         25    1    3    3    0    0  0.24313061542E+02  0.42879098704E+01 -0.50384797986E+03  0.51973051290E+03  0.12509000000E+03 0.  0.
         25    1    3    3    0    0 -0.48400842670E+02 -0.60131956530E+02 -0.39475362314E+03  0.42123203208E+03  0.12509000000E+03 0.  0.
<mgrwt>
<rscale>  2 0.44426284E+03</rscale>
<asrwt>0</asrwt>
<pdfrwt beam="1">  1       21 0.63775733E-02 0.44426284E+03</pdfrwt>
<pdfrwt beam="2">  1       21 0.16731956E+00 0.44426284E+03</pdfrwt>
<totfact> 0.35649732E+04</totfact>
</mgrwt>
</event>
<event>
 6    0  0.4725730E-002  0.4535580E+03  0.7546771E-02  0.1026666E+00
         21   -1    0    0  502  501  0.00000000000E+00  0.00000000000E+00  0.94454018001E+02  0.94454018001E+02  0.00000000000E+00 0. -1.
         21   -1    0    0  501  502 -0.00000000000E+00 -0.00000000000E+00 -0.54448418067E+03  0.54448418067E+03  0.00000000000E+00 0. -1.
      99926    2    1    2    0    0  0.88817841970E-15  0.00000000000E+00 -0.45003016267E+03  0.63893819867E+03  0.45355801659E+03 0.  0.
         25    1    3    3    0    0 -0.77199390768E+01  0.56184935932E+02 -0.34317172047E+02  0.14156807861E+03  0.12509000000E+03 0.  0.
         25    1    3    3    0    0  0.32712799119E+02 -0.41397267552E+02 -0.15039273348E+03  0.20260637545E+03  0.12509000000E+03 0.  0.
         25    1    3    3    0    0 -0.24992860043E+02 -0.14787668380E+02 -0.26532025714E+03  0.29476374461E+03  0.12509000000E+03 0.  0.
<mgrwt>
<rscale>  2 0.45355802E+03</rscale>
<asrwt>0</asrwt>
<pdfrwt beam="1">  1       21 0.13890297E-01 0.45355802E+03</pdfrwt>
<pdfrwt beam="2">  1       21 0.80071200E-01 0.45355802E+03</pdfrwt>
<totfact> 0.56989057E+04</totfact>
</mgrwt>
</event>
<event>
 7    0  0.4725730E-002  0.4576439E+03  0.7546771E-02  0.1025467E+00
         21   -1    0    0  502  501  0.00000000000E+00  0.00000000000E+00  0.42177497583E+03  0.42177497583E+03  0.00000000000E+00 0.  1.
         21   -1    0    0  501  502 -0.00000000000E+00 -0.00000000000E+00 -0.12414082771E+03  0.12414082771E+03  0.00000000000E+00 0.  1.
      99926    2    1    2    0    0  0.00000000000E+00  0.00000000000E+00  0.29763414812E+03  0.54591580354E+03  0.45764394285E+03 0.  0.
      99925    2    3    3    0    0  0.10800468042E+03 -0.32808869741E+02  0.15660479575E+03  0.32619275227E+03  0.26293576527E+03 0.  0.
         25    1    4    4    0    0  0.93134814310E+02 -0.21586168190E+02  0.66505647461E+02  0.17091098718E+03  0.12509000000E+03 0.  0.
         25    1    3    3    0    0 -0.10800468042E+03  0.32808869741E+02  0.14102935237E+03  0.21972305127E+03  0.12509000000E+03 0.  0.
         25    1    4    4    0    0  0.14869866114E+02 -0.11222701551E+02  0.90099148291E+02  0.15528176510E+03  0.12509000000E+03 0.  0.
<mgrwt>
<rscale>  2 0.45764394E+03</rscale>
<asrwt>0</asrwt>
<pdfrwt beam="1">  1       21 0.62025731E-01 0.45764394E+03</pdfrwt>
<pdfrwt beam="2">  1       21 0.18256004E-01 0.45764394E+03</pdfrwt>
<totfact> 0.60854057E+04</totfact>
</mgrwt>
</event>
<event>
 7    0  0.4725730E-002  0.4361792E+03  0.7546771E-02  0.1031926E+00
         21   -1    0    0  502  501  0.00000000000E+00  0.00000000000E+00  0.13828996559E+02  0.13828996559E+02  0.00000000000E+00 0. -1.
         21   -1    0    0  501  502 -0.00000000000E+00 -0.00000000000E+00 -0.34393731452E+04  0.34393731452E+04  0.00000000000E+00 0. -1.
      99926    2    1    2    0    0  0.00000000000E+00  0.00000000000E+00 -0.34255441486E+04  0.34532021418E+04  0.43617922642E+03 0.  0.
      99925    2    3    3    0    0 -0.67918213972E+02  0.30494998365E+02 -0.26538243113E+04  0.26678730107E+04  0.26309712469E+03 0.  0.
         25    1    4    4    0    0 -0.64416470009E+02  0.32276235129E+02 -0.16432866217E+04  0.16496150054E+04  0.12509000000E+03 0.  0.
         25    1    3    3    0    0  0.67918213972E+02 -0.30494998365E+02 -0.77171983730E+03  0.78532913106E+03  0.12509000000E+03 0.  0.
         25    1    4    4    0    0 -0.35017439628E+01 -0.17812367642E+01 -0.10105376896E+04  0.10182580053E+04  0.12509000000E+03 0.  0.
<mgrwt>
<rscale>  2 0.43617923E+03</rscale>
<asrwt>0</asrwt>
<pdfrwt beam="1">  1       21 0.20336753E-02 0.43617923E+03</pdfrwt>
<pdfrwt beam="2">  1       21 0.50579035E+00 0.43617923E+03</pdfrwt>
<totfact> 0.16394553E+03</totfact>
</mgrwt>
</event>
<event>
 7    0  0.4725730E-002  0.4536785E+03  0.7546771E-02  0.1026631E+00
         21   -1    0    0  502  501  0.00000000000E+00  0.00000000000E+00  0.23735753054E+03  0.23735753054E+03  0.00000000000E+00 0.  1.
         21   -1    0    0  501  502 -0.00000000000E+00 -0.00000000000E+00 -0.21678708492E+03  0.21678708492E+03  0.00000000000E+00 0.  1.
      99926    2    1    2    0    0 -0.44408920985E-15  0.14210854715E-13  0.20570445621E+02  0.45414461546E+03  0.45367850788E+03 0.  0.
      99925    2    3    3    0    0  0.19088993445E+01 -0.10881235297E+03 -0.12903262485E+02  0.28499447715E+03  0.26308094908E+03 0.  0.
         25    1    4    4    0    0 -0.33751589130E+02 -0.68026608404E+02 -0.23726636689E+02  0.14824726172E+03  0.12509000000E+03 0.  0.
         25    1    4    4    0    0  0.35660488475E+02 -0.40785744563E+02  0.10823374204E+02  0.13674721543E+03  0.12509000000E+03 0.  0.
         25    1    3    3    0    0 -0.19088993445E+01  0.10881235297E+03  0.33473708105E+02  0.16915013831E+03  0.12509000000E+03 0.  0.
<mgrwt>
<rscale>  2 0.45367851E+03</rscale>
<asrwt>0</asrwt>
<pdfrwt beam="1">  1       21 0.34905519E-01 0.45367851E+03</pdfrwt>
<pdfrwt beam="2">  1       21 0.31880454E-01 0.45367851E+03</pdfrwt>
<totfact> 0.69336735E+04</totfact>
</mgrwt>
</event>
<event>
 7    0  0.4725730E-002  0.4701947E+03  0.7546771E-02  0.1021865E+00
         21   -1    0    0  502  501  0.00000000000E+00  0.00000000000E+00  0.66816055669E+03  0.66816055669E+03  0.00000000000E+00 0.  1.
         21   -1    0    0  501  502 -0.00000000000E+00 -0.00000000000E+00 -0.82720782463E+02  0.82720782463E+02  0.00000000000E+00 0.  1.
      99926    2    1    2    0    0  0.00000000000E+00  0.14210854715E-13  0.58543977422E+03  0.75088133915E+03  0.47019470035E+03 0.  0.
      99925    2    3    3    0    0 -0.20730506206E+02 -0.11994950651E+03  0.30490199052E+03  0.42047765547E+03  0.26271390700E+03 0.  0.
         25    1    4    4    0    0  0.10301349374E+02 -0.70855104449E+02  0.10811839371E+03  0.18017674318E+03  0.12509000000E+03 0.  0.
         25    1    4    4    0    0 -0.31031855580E+02 -0.49094402065E+02  0.19678359681E+03  0.24030091229E+03  0.12509000000E+03 0.  0.
         25    1    3    3    0    0  0.20730506206E+02  0.11994950651E+03  0.28053778371E+03  0.33040368368E+03  0.12509000000E+03 0.  0.
<mgrwt>
<rscale>  2 0.47019470E+03</rscale>
<asrwt>0</asrwt>
<pdfrwt beam="1">  1       21 0.98258902E-01 0.47019470E+03</pdfrwt>
<pdfrwt beam="2">  1       21 0.12164821E-01 0.47019470E+03</pdfrwt>
<totfact> 0.44649955E+04</totfact>
</mgrwt>
</event>
<event>
 7    0  0.4725730E-002  0.4586995E+03  0.7546771E-02  0.1025159E+00
         21   -1    0    0  502  501  0.00000000000E+00  0.00000000000E+00  0.43796561333E+03  0.43796561333E+03  0.00000000000E+00 0. -1.
         21   -1    0    0  501  502 -0.00000000000E+00 -0.00000000000E+00 -0.12010376108E+03  0.12010376108E+03  0.00000000000E+00 0. -1.
      99926    2    1    2    0    0  0.00000000000E+00  0.00000000000E+00  0.31786185225E+03  0.55806937441E+03  0.45869954168E+03 0.  0.
      99925    2    3    3    0    0  0.25373742752E+02 -0.78499529646E+02  0.29944534256E+03  0.40709693022E+03  0.26316229677E+03 0.  0.
         25    1    4    4    0    0  0.50832098481E+02 -0.26104724222E+02  0.15860520747E+03  0.20992493611E+03  0.12509000000E+03 0.  0.
         25    1    3    3    0    0 -0.25373742752E+02  0.78499529646E+02  0.18416509694E+02  0.15097244419E+03  0.12509000000E+03 0.  0.
         25    1    4    4    0    0 -0.25458355729E+02 -0.52394805424E+02  0.14084013508E+03  0.19717199411E+03  0.12509000000E+03 0.  0.
<mgrwt>
<rscale>  2 0.45869954E+03</rscale>
<asrwt>0</asrwt>
<pdfrwt beam="1">  1       21 0.64406707E-01 0.45869954E+03</pdfrwt>
<pdfrwt beam="2">  1       21 0.17662318E-01 0.45869954E+03</pdfrwt>
<totfact> 0.59573769E+04</totfact>
</mgrwt>
</event>
<event>
 7    0  0.4725730E-002  0.4570715E+03  0.7546771E-02  0.1025634E+00
         21   -1    0    0  502  501  0.00000000000E+00  0.00000000000E+00  0.32468516233E+03  0.32468516233E+03  0.00000000000E+00 0. -1.
         21   -1    0    0  501  502 -0.00000000000E+00 -0.00000000000E+00 -0.16085914512E+03  0.16085914512E+03  0.00000000000E+00 0. -1.
      99926    2    1    2    0    0 -0.71054273576E-14  0.00000000000E+00  0.16382601722E+03  0.48554430745E+03  0.45707145019E+03 0.  0.
      99925    2    3    3    0    0  0.59158207848E+02  0.78165876624E+02  0.38713388078E+02  0.28328141937E+03  0.26294493400E+03 0.  0.
         25    1    4    4    0    0 -0.23081373885E+01  0.10198688289E+02  0.19458265798E+02  0.12702548149E+03  0.12509000000E+03 0.  0.
         25    1    4    4    0    0  0.61466345237E+02  0.67967188336E+02  0.19255122280E+02  0.15625593787E+03  0.12509000000E+03 0.  0.
         25    1    3    3    0    0 -0.59158207848E+02 -0.78165876624E+02  0.12511262914E+03  0.20226288808E+03  0.12509000000E+03 0.  0.
<mgrwt>
<rscale>  2 0.45707145E+03</rscale>
<asrwt>0</asrwt>
<pdfrwt beam="1">  1       21 0.47747818E-01 0.45707145E+03</pdfrwt>
<pdfrwt beam="2">  1       21 0.23655757E-01 0.45707145E+03</pdfrwt>
<totfact> 0.65219610E+04</totfact>
</mgrwt>
</event>
<event>
 7    0  0.4725730E-002  0.4607689E+03  0.7546771E-02  0.1024558E+00
         21   -1    0    0  502  501  0.00000000000E+00  0.00000000000E+00  0.62692426680E+02  0.62692426680E+02  0.00000000000E+00 0. -1.
         21   -1    0    0  501  502 -0.00000000000E+00 -0.00000000000E+00 -0.84662516810E+03  0.84662516810E+03  0.00000000000E+00 0. -1.
      99926    2    1    2    0    0  0.00000000000E+00  0.00000000000E+00 -0.78393274142E+03  0.90931759478E+03  0.46076886300E+03 0.  0.
      99925    2    3    3    0    0  0.50335426831E+02 -0.43354129265E+02 -0.29585154537E+03  0.40110110769E+03  0.26256566030E+03 0.  0.
         25    1    3    3    0    0 -0.50335426831E+02  0.43354129265E+02 -0.48808119605E+03  0.50821648709E+03  0.12509000000E+03 0.  0.
         25    1    4    4    0    0  0.24117995695E+02 -0.14984336537E+02 -0.20472309457E+03  0.24158903454E+03  0.12509000000E+03 0.  0.
         25    1    4    4    0    0  0.26217431136E+02 -0.28369792728E+02 -0.91128450799E+02  0.15951207315E+03  0.12509000000E+03 0.  0.
<mgrwt>
<rscale>  2 0.46076886E+03</rscale>
<asrwt>0</asrwt>
<pdfrwt beam="1">  1       21 0.92194750E-02 0.46076886E+03</pdfrwt>
<pdfrwt beam="2">  1       21 0.12450369E+00 0.46076886E+03</pdfrwt>
<totfact> 0.40952287E+04</totfact>
</mgrwt>
</event>
<event>
 7    0  0.4725730E-002  0.4687388E+03  0.7546771E-02  0.1022277E+00
         21   -1    0    0  502  501  0.00000000000E+00  0.00000000000E+00  0.13738287127E+03  0.13738287127E+03  0.00000000000E+00 0.  1.
         21   -1    0    0  501  502 -0.00000000000E+00 -0.00000000000E+00 -0.39982425575E+03  0.39982425575E+03  0.00000000000E+00 0.  1.
      99926    2    1    2    0    0  0.00000000000E+00  0.00000000000E+00 -0.26244138447E+03  0.53720712702E+03  0.46873875137E+03 0.  0.
      99925    2    3    3    0    0  0.58337421133E+02  0.11137594129E+03 -0.16613709234E+03  0.33539067629E+03  0.26282602095E+03 0.  0.
         25    1    4    4    0    0  0.28949376373E+02  0.48203736160E+02 -0.12708627792E+03  0.18697619289E+03  0.12509000000E+03 0.  0.
         25    1    3    3    0    0 -0.58337421133E+02 -0.11137594129E+03 -0.96304292130E+02  0.20181645073E+03  0.12509000000E+03 0.  0.
         25    1    4    4    0    0  0.29388044760E+02  0.63172205133E+02 -0.39050814427E+02  0.14841448340E+03  0.12509000000E+03 0.  0.
<mgrwt>
<rscale>  2 0.46873875E+03</rscale>
<asrwt>0</asrwt>
<pdfrwt beam="1">  1       21 0.20203364E-01 0.46873875E+03</pdfrwt>
<pdfrwt beam="2">  1       21 0.58797684E-01 0.46873875E+03</pdfrwt>
<totfact> 0.56332326E+04</totfact>
</mgrwt>
</event>
<event>
 7    0  0.4725730E-002  0.4501205E+03  0.7546771E-02  0.1027686E+00
         21   -1    0    0  502  501  0.00000000000E+00  0.00000000000E+00  0.40537668535E+03  0.40537668535E+03  0.00000000000E+00 0.  1.
         21   -1    0    0  501  502 -0.00000000000E+00 -0.00000000000E+00 -0.12495071622E+03  0.12495071622E+03  0.00000000000E+00 0.  1.
      99926    2    1    2    0    0  0.00000000000E+00 -0.14210854715E-13  0.28042596912E+03  0.53032740157E+03  0.45012046021E+03 0.  0.
      99925    2    3    3    0    0 -0.62873702599E+01  0.81659086508E+02  0.93311693630E+02  0.29081331508E+03  0.26297827786E+03 0.  0.
         25    1    3    3    0    0  0.62873702599E+01 -0.81659086508E+02  0.18711427550E+03  0.23951408649E+03  0.12509000000E+03 0.  0.
         25    1    4    4    0    0 -0.28394746431E+02  0.91328241756E+01  0.34379089198E+02  0.13311310971E+03  0.12509000000E+03 0.  0.
         25    1    4    4    0    0  0.22107376171E+02  0.72526262333E+02  0.58932604432E+02  0.15770020537E+03  0.12509000000E+03 0.  0.
<mgrwt>
<rscale>  2 0.45012046E+03</rscale>
<asrwt>0</asrwt>
<pdfrwt beam="1">  1       21 0.59614218E-01 0.45012046E+03</pdfrwt>
<pdfrwt beam="2">  1       21 0.18375105E-01 0.45012046E+03</pdfrwt>
<totfact> 0.65686139E+04</totfact>
</mgrwt>
</event>
<event>
 6    0  0.4725730E-002  0.4515324E+03  0.7546771E-02  0.1027266E+00
         21   -1    0    0  502  501  0.00000000000E+00  0.00000000000E+00  0.16517860596E+03  0.16517860596E+03  0.00000000000E+00 0. -1.
         21   -1    0    0  501  502 -0.00000000000E+00 -0.00000000000E+00 -0.30857740415E+03  0.30857740415E+03  0.00000000000E+00 0. -1.
      99926    2    1    2    0    0  0.00000000000E+00 -0.35527136788E-14 -0.14339879819E+03  0.47375601011E+03  0.45153243715E+03 0.  0.
         25    1    3    3    0    0 -0.75519743360E+02 -0.18213442454E+01 -0.45087032903E+02  0.15292775277E+03  0.12509000000E+03 0.  0.
         25    1    3    3    0    0 -0.15205611749E+02  0.29632432100E+02 -0.10037562870E+03  0.16380496512E+03  0.12509000000E+03 0.  0.
         25    1    3    3    0    0  0.90725355109E+02 -0.27811087854E+02  0.20638634114E+01  0.15702329222E+03  0.12509000000E+03 0.  0.
<mgrwt>
<rscale>  2 0.45153244E+03</rscale>
<asrwt>0</asrwt>
<pdfrwt beam="1">  1       21 0.24290971E-01 0.45153244E+03</pdfrwt>
<pdfrwt beam="2">  1       21 0.45379030E-01 0.45153244E+03</pdfrwt>
<totfact> 0.69037885E+04</totfact>
</mgrwt>
</event>
<event>
 7    0  0.4725730E-002  0.4512825E+03  0.7546771E-02  0.1027340E+00
         21   -1    0    0  502  501  0.00000000000E+00  0.00000000000E+00  0.45262594253E+03  0.45262594253E+03  0.00000000000E+00 0.  1.
         21   -1    0    0  501  502 -0.00000000000E+00 -0.00000000000E+00 -0.11248578462E+03  0.11248578462E+03  0.00000000000E+00 0.  1.
      99926    2    1    2    0    0  0.88817841970E-15  0.00000000000E+00  0.34014015792E+03  0.56511172715E+03  0.45128254690E+03 0.  0.
      99925    2    3    3    0    0 -0.73667171090E+01 -0.10613214136E+03  0.24814557149E+03  0.37688629852E+03  0.26296151318E+03 0.  0.
         25    1    3    3    0    0  0.73667171090E+01  0.10613214136E+03  0.91994586430E+02  0.18822542863E+03  0.12509000000E+03 0.  0.
         25    1    4    4    0    0  0.54002956853E+01 -0.95281913238E+02  0.14317258506E+03  0.21272917853E+03  0.12509000000E+03 0.  0.
         25    1    4    4    0    0 -0.12767012794E+02 -0.10850228121E+02  0.10497298642E+03  0.16415711999E+03  0.12509000000E+03 0.  0.
<mgrwt>
<rscale>  2 0.45128255E+03</rscale>
<asrwt>0</asrwt>
<pdfrwt beam="1">  1       21 0.66562638E-01 0.45128255E+03</pdfrwt>
<pdfrwt beam="2">  1       21 0.16542027E-01 0.45128255E+03</pdfrwt>
<totfact> 0.62702061E+04</totfact>
</mgrwt>
</event>
<event>
 6    0  0.4725730E-002  0.4608931E+03  0.7546771E-02  0.1024523E+00
         21   -1    0    0  502  501  0.00000000000E+00  0.00000000000E+00  0.11321682563E+04  0.11321682563E+04  0.00000000000E+00 0.  1.
         21   -1    0    0  501  502 -0.00000000000E+00 -0.00000000000E+00 -0.46906122472E+02  0.46906122472E+02  0.00000000000E+00 0.  1.
      99926    2    1    2    0    0  0.00000000000E+00 -0.14210854715E-13  0.10852621338E+04  0.11790743788E+04  0.46089314549E+03 0.  0.
         25    1    3    3    0    0 -0.98487593661E+01  0.66846229787E+01  0.17850350187E+03  0.21829496220E+03  0.12509000000E+03 0.  0.
         25    1    3    3    0    0 -0.49521607546E+02 -0.64355161141E+02  0.61376011154E+03  0.63161931493E+03  0.12509000000E+03 0.  0.
         25    1    3    3    0    0  0.59370366912E+02  0.57670538162E+02  0.29299852043E+03  0.32916010164E+03  0.12509000000E+03 0.  0.
<mgrwt>
<rscale>  2 0.46089315E+03</rscale>
<asrwt>0</asrwt>
<pdfrwt beam="1">  1       21 0.16649531E+00 0.46089315E+03</pdfrwt>
<pdfrwt beam="2">  1       21 0.68979599E-02 0.46089315E+03</pdfrwt>
<totfact> 0.31361381E+04</totfact>
</mgrwt>
</event>
<event>
 7    0  0.4725730E-002  0.4442092E+03  0.7546771E-02  0.1029463E+00
         21   -1    0    0  502  501  0.00000000000E+00  0.00000000000E+00  0.23837622488E+04  0.23837622488E+04  0.00000000000E+00 0. -1.
         21   -1    0    0  501  502 -0.00000000000E+00 -0.00000000000E+00 -0.20694368138E+02  0.20694368138E+02  0.00000000000E+00 0. -1.
      99926    2    1    2    0    0 -0.71054273576E-14  0.00000000000E+00  0.23630678806E+04  0.24044566169E+04  0.44420920085E+03 0.  0.
      99925    2    3    3    0    0 -0.62313129890E+02  0.42178694862E+01  0.10609381664E+04  0.10948421632E+04  0.26303774028E+03 0.  0.
         25    1    4    4    0    0  0.20446639789E+01 -0.84584872346E+01  0.40952490763E+03  0.42829182192E+03  0.12509000000E+03 0.  0.
         25    1    3    3    0    0  0.62313129890E+02 -0.42178694862E+01  0.13021297142E+04  0.13096144537E+04  0.12509000000E+03 0.  0.
         25    1    4    4    0    0 -0.64357793869E+02  0.12676356721E+02  0.65141325874E+03  0.66655034124E+03  0.12509000000E+03 0.  0.
<mgrwt>
<rscale>  2 0.44420920E+03</rscale>
<asrwt>0</asrwt>
<pdfrwt beam="1">  1       21 0.35055308E+00 0.44420920E+03</pdfrwt>
<pdfrwt beam="2">  1       21 0.30432911E-02 0.44420920E+03</pdfrwt>
<totfact> 0.88811770E+03</totfact>
</mgrwt>
</event>
<event>
 7    0  0.4725730E-002  0.4595800E+03  0.7546771E-02  0.1024903E+00
         21   -1    0    0  502  501  0.00000000000E+00  0.00000000000E+00  0.23847742530E+03  0.23847742530E+03  0.00000000000E+00 0.  1.
         21   -1    0    0  501  502 -0.00000000000E+00 -0.00000000000E+00 -0.22141901712E+03  0.22141901712E+03  0.00000000000E+00 0.  1.
      99926    2    1    2    0    0  0.00000000000E+00  0.00000000000E+00  0.17058408182E+02  0.45989644242E+03  0.45957996960E+03 0.  0.
      99925    2    3    3    0    0 -0.86376154874E+01  0.77740493534E+02  0.97940193415E+02  0.29164792379E+03  0.26334015499E+03 0.  0.
         25    1    4    4    0    0  0.91311001068E+00  0.77836118010E+02  0.35665584760E+02  0.15158772072E+03  0.12509000000E+03 0.  0.
         25    1    3    3    0    0  0.86376154874E+01 -0.77740493534E+02 -0.80881785233E+02  0.16824851862E+03  0.12509000000E+03 0.  0.
         25    1    4    4    0    0 -0.95507254981E+01 -0.95624475618E-01  0.62274608656E+02  0.14006020307E+03  0.12509000000E+03 0.  0.
<mgrwt>
<rscale>  2 0.45957997E+03</rscale>
<asrwt>0</asrwt>
<pdfrwt beam="1">  1       21 0.35070210E-01 0.45957997E+03</pdfrwt>
<pdfrwt beam="2">  1       21 0.32561620E-01 0.45957997E+03</pdfrwt>
<totfact> 0.65752716E+04</totfact>
</mgrwt>
</event>
<event>
 7    0  0.4725730E-002  0.4597132E+03  0.7546771E-02  0.1024864E+00
         21   -1    0    0  502  501  0.00000000000E+00  0.00000000000E+00  0.59453929267E+03  0.59453929267E+03  0.00000000000E+00 0. -1.
         21   -1    0    0  501  502 -0.00000000000E+00 -0.00000000000E+00 -0.88865527635E+02  0.88865527635E+02  0.00000000000E+00 0. -1.
      99926    2    1    2    0    0  0.00000000000E+00  0.00000000000E+00  0.50567376504E+03  0.68340482031E+03  0.45971316249E+03 0.  0.
      99925    2    3    3    0    0  0.79342643459E+02 -0.24689559931E+02  0.19314199839E+03  0.33666508693E+03  0.26293482039E+03 0.  0.
         25    1    3    3    0    0 -0.79342643459E+02  0.24689559931E+02  0.31253176664E+03  0.34673973337E+03  0.12509000000E+03 0.  0.
         25    1    4    4    0    0  0.20071964423E+02 -0.28652714155E+02  0.54967167772E+02  0.14104169390E+03  0.12509000000E+03 0.  0.
         25    1    4    4    0    0  0.59270679036E+02  0.39631542235E+01  0.13817483062E+03  0.19562339304E+03  0.12509000000E+03 0.  0.
<mgrwt>
<rscale>  2 0.45971316E+03</rscale>
<asrwt>0</asrwt>
<pdfrwt beam="1">  1       21 0.87432247E-01 0.45971316E+03</pdfrwt>
<pdfrwt beam="2">  1       21 0.13068460E-01 0.45971316E+03</pdfrwt>
<totfact> 0.51861249E+04</totfact>
</mgrwt>
</event>
<event>
 7    0  0.4725730E-002  0.4522088E+03  0.7546771E-02  0.1027065E+00
         21   -1    0    0  502  501  0.00000000000E+00  0.00000000000E+00  0.42526460638E+03  0.42526460638E+03  0.00000000000E+00 0. -1.
         21   -1    0    0  501  502 -0.00000000000E+00 -0.00000000000E+00 -0.12021505379E+03  0.12021505379E+03  0.00000000000E+00 0. -1.
      99926    2    1    2    0    0  0.00000000000E+00 -0.14210854715E-13  0.30504955258E+03  0.54547966017E+03  0.45220883464E+03 0.  0.
      99925    2    3    3    0    0 -0.55007606228E+01 -0.97262586152E+02  0.25548211443E+03  0.37936311055E+03  0.26297336333E+03 0.  0.
         25    1    3    3    0    0  0.55007606228E+01  0.97262586152E+02  0.49567438154E+02  0.16611654962E+03  0.12509000000E+03 0.  0.
         25    1    4    4    0    0 -0.11431741338E+02 -0.16114204274E+02  0.83617372946E+02  0.15175547914E+03  0.12509000000E+03 0.  0.
         25    1    4    4    0    0  0.59309807153E+01 -0.81148381878E+02  0.17186474148E+03  0.22760763142E+03  0.12509000000E+03 0.  0.
<mgrwt>
<rscale>  2 0.45220883E+03</rscale>
<asrwt>0</asrwt>
<pdfrwt beam="1">  1       21 0.62538912E-01 0.45220883E+03</pdfrwt>
<pdfrwt beam="2">  1       21 0.17678685E-01 0.45220883E+03</pdfrwt>
<totfact> 0.63558364E+04</totfact>
</mgrwt>
</event>
<event>
 7    0  0.4725730E-002  0.4516961E+03  0.7546771E-02  0.1027217E+00
         21   -1    0    0  502  501  0.00000000000E+00  0.00000000000E+00  0.75705245596E+03  0.75705245596E+03  0.00000000000E+00 0. -1.
         21   -1    0    0  501  502 -0.00000000000E+00 -0.00000000000E+00 -0.67376233407E+02  0.67376233407E+02  0.00000000000E+00 0. -1.
      99926    2    1    2    0    0 -0.44408920985E-15  0.00000000000E+00  0.68967622255E+03  0.82442868937E+03  0.45169610569E+03 0.  0.
      99925    2    3    3    0    0  0.37613700022E+01 -0.10553437061E+03  0.49190521498E+03  0.56769433089E+03  0.26297235886E+03 0.  0.
         25    1    4    4    0    0  0.31171532777E+02 -0.58218163101E+02  0.19495051403E+03  0.24086143318E+03  0.12509000000E+03 0.  0.
         25    1    3    3    0    0 -0.37613700022E+01  0.10553437061E+03  0.19777100757E+03  0.25673435847E+03  0.12509000000E+03 0.  0.
         25    1    4    4    0    0 -0.27410162775E+02 -0.47316207506E+02  0.29695470095E+03  0.32683289772E+03  0.12509000000E+03 0.  0.
<mgrwt>
<rscale>  2 0.45169611E+03</rscale>
<asrwt>0</asrwt>
<pdfrwt beam="1">  1       21 0.11133124E+00 0.45169611E+03</pdfrwt>
<pdfrwt beam="2">  1       21 0.99082700E-02 0.45169611E+03</pdfrwt>
<totfact> 0.47833846E+04</totfact>
</mgrwt>
</event>
<event>
 7    0  0.4725730E-002  0.4468489E+03  0.7546771E-02  0.1028666E+00
         21   -1    0    0  502  501  0.00000000000E+00  0.00000000000E+00  0.77363308712E+02  0.77363308712E+02  0.00000000000E+00 0. -1.
         21   -1    0    0  501  502 -0.00000000000E+00 -0.00000000000E+00 -0.64524765175E+03  0.64524765175E+03  0.00000000000E+00 0. -1.
      99926    2    1    2    0    0 -0.24424906542E-14  0.14210854715E-13 -0.56788434304E+03  0.72261096046E+03  0.44684893769E+03 0.  0.
      99925    2    3    3    0    0  0.15704337159E+01  0.88645751710E+02 -0.26783222793E+03  0.38565500571E+03  0.26293563006E+03 0.  0.
         25    1    4    4    0    0 -0.36637457723E+02  0.32586125910E+02 -0.14491654870E+03  0.19761698585E+03  0.12509000000E+03 0.  0.
         25    1    4    4    0    0  0.38207891438E+02  0.56059625801E+02 -0.12291567923E+03  0.18803801986E+03  0.12509000000E+03 0.  0.
         25    1    3    3    0    0 -0.15704337159E+01 -0.88645751710E+02 -0.30005211511E+03  0.33695595475E+03  0.12509000000E+03 0.  0.
<mgrwt>
<rscale>  2 0.44684894E+03</rscale>
<asrwt>0</asrwt>
<pdfrwt beam="1">  1       21 0.11376957E-01 0.44684894E+03</pdfrwt>
<pdfrwt beam="2">  1       21 0.94889362E-01 0.44684894E+03</pdfrwt>
<totfact> 0.55143510E+04</totfact>
</mgrwt>
</event>
<event>
 7    0  0.4725730E-002  0.4511263E+03  0.7546771E-02  0.1027387E+00
         21   -1    0    0  502  501  0.00000000000E+00  0.00000000000E+00  0.63871909860E+03  0.63871909860E+03  0.00000000000E+00 0. -1.
         21   -1    0    0  501  502 -0.00000000000E+00 -0.00000000000E+00 -0.79657438510E+02  0.79657438510E+02  0.00000000000E+00 0. -1.
      99926    2    1    2    0    0  0.00000000000E+00  0.00000000000E+00  0.55906166009E+03  0.71837653711E+03  0.45112626757E+03 0.  0.
      99925    2    3    3    0    0  0.71897124825E+02  0.23007434666E+02  0.22621138797E+03  0.35487227255E+03  0.26280068334E+03 0.  0.
         25    1    4    4    0    0  0.49978123821E+02  0.39685747799E+02  0.84670520357E+02  0.16397980533E+03  0.12509000000E+03 0.  0.
         25    1    4    4    0    0  0.21919001005E+02 -0.16678313132E+02  0.14154086762E+03  0.19089246722E+03  0.12509000000E+03 0.  0.
         25    1    3    3    0    0 -0.71897124825E+02 -0.23007434666E+02  0.33285027212E+03  0.36350426456E+03  0.12509000000E+03 0.  0.
<mgrwt>
<rscale>  2 0.45112627E+03</rscale>
<asrwt>0</asrwt>
<pdfrwt beam="1">  1       21 0.93929276E-01 0.45112627E+03</pdfrwt>
<pdfrwt beam="2">  1       21 0.11714330E-01 0.45112627E+03</pdfrwt>
<totfact> 0.53529092E+04</totfact>
</mgrwt>
</event>
<event>
 7    0  0.4725730E-002  0.4523697E+03  0.7546771E-02  0.1027018E+00
         21   -1    0    0  502  501  0.00000000000E+00  0.00000000000E+00  0.64028385148E+03  0.64028385148E+03  0.00000000000E+00 0.  1.
         21   -1    0    0  501  502 -0.00000000000E+00 -0.00000000000E+00 -0.79901421835E+02  0.79901421835E+02  0.00000000000E+00 0.  1.
      99926    2    1    2    0    0  0.00000000000E+00  0.00000000000E+00  0.56038242965E+03  0.72018527331E+03  0.45236971654E+03 0.  0.
      99925    2    3    3    0    0  0.10244568893E+03  0.41270390407E+02  0.34156891889E+03  0.44500310657E+03  0.26298303025E+03 0.  0.
         25    1    4    4    0    0  0.64407732105E+02  0.24042838147E+02  0.11693712275E+03  0.18452157813E+03  0.12509000000E+03 0.  0.
         25    1    3    3    0    0 -0.10244568893E+03 -0.41270390407E+02  0.21881351075E+03  0.27518216674E+03  0.12509000000E+03 0.  0.
         25    1    4    4    0    0  0.38037956830E+02  0.17227552260E+02  0.22463179615E+03  0.26048152844E+03  0.12509000000E+03 0.  0.
<mgrwt>
<rscale>  2 0.45236972E+03</rscale>
<asrwt>0</asrwt>
<pdfrwt beam="1">  1       21 0.94159387E-01 0.45236972E+03</pdfrwt>
<pdfrwt beam="2">  1       21 0.11750209E-01 0.45236972E+03</pdfrwt>
<totfact> 0.52906830E+04</totfact>
</mgrwt>
</event>
<event>
 7    0  0.4725730E-002  0.4680487E+03  0.7546771E-02  0.1022472E+00
         21   -1    0    0  502  501  0.00000000000E+00  0.00000000000E+00  0.16330759168E+02  0.16330759168E+02  0.00000000000E+00 0. -1.
         21   -1    0    0  501  502 -0.00000000000E+00 -0.00000000000E+00 -0.33536347186E+04  0.33536347186E+04  0.00000000000E+00 0. -1.
      99926    2    1    2    0    0 -0.35527136788E-14  0.00000000000E+00 -0.33373039594E+04  0.33699654778E+04  0.46804871937E+03 0.  0.
      99925    2    3    3    0    0 -0.26949878431E+02 -0.11569222949E+03 -0.23574237414E+04  0.23750163646E+04  0.26295445976E+03 0.  0.
         25    1    3    3    0    0  0.26949878431E+02  0.11569222949E+03 -0.97988021806E+03  0.99494911315E+03  0.12509000000E+03 0.  0.
         25    1    4    4    0    0  0.24151723603E+02 -0.72675643800E+02 -0.11739044956E+04  0.11830318372E+04  0.12509000000E+03 0.  0.
         25    1    4    4    0    0 -0.51101602034E+02 -0.43016585691E+02 -0.11835192457E+04  0.11919845274E+04  0.12509000000E+03 0.  0.
<mgrwt>
<rscale>  2 0.46804872E+03</rscale>
<asrwt>0</asrwt>
<pdfrwt beam="1">  1       21 0.24015819E-02 0.46804872E+03</pdfrwt>
<pdfrwt beam="2">  1       21 0.49318165E+00 0.46804872E+03</pdfrwt>
<totfact> 0.15012267E+03</totfact>
</mgrwt>
</event>
<event>
 7    0  0.4725730E-002  0.4615356E+03  0.7546771E-02  0.1024337E+00
         21   -1    0    0  502  501  0.00000000000E+00  0.00000000000E+00  0.11166197650E+03  0.11166197650E+03  0.00000000000E+00 0. -1.
         21   -1    0    0  501  502 -0.00000000000E+00 -0.00000000000E+00 -0.47691959196E+03  0.47691959196E+03  0.00000000000E+00 0. -1.
      99926    2    1    2    0    0  0.00000000000E+00  0.00000000000E+00 -0.36525761546E+03  0.58858156846E+03  0.46153562927E+03 0.  0.
      99925    2    3    3    0    0  0.50356384478E+02  0.80782368460E+02 -0.31984287241E+03  0.42496138787E+03  0.26311815147E+03 0.  0.
         25    1    4    4    0    0  0.42827386767E+02  0.72982279031E+02 -0.20634608199E+03  0.25570845071E+03  0.12509000000E+03 0.  0.
         25    1    4    4    0    0  0.75289977115E+01  0.78000894293E+01 -0.11349679043E+03  0.16925293716E+03  0.12509000000E+03 0.  0.
         25    1    3    3    0    0 -0.50356384478E+02 -0.80782368460E+02 -0.45414743045E+02  0.16362018059E+03  0.12509000000E+03 0.  0.
<mgrwt>
<rscale>  2 0.46153563E+03</rscale>
<asrwt>0</asrwt>
<pdfrwt beam="1">  1       21 0.16420879E-01 0.46153563E+03</pdfrwt>
<pdfrwt beam="2">  1       21 0.70135233E-01 0.46153563E+03</pdfrwt>
<totfact> 0.56415390E+04</totfact>
</mgrwt>
</event>
<event>
 7    0  0.4725730E-002  0.4528717E+03  0.7546771E-02  0.1026869E+00
         21   -1    0    0  502  501  0.00000000000E+00  0.00000000000E+00  0.89920633676E+03  0.89920633676E+03  0.00000000000E+00 0.  1.
         21   -1    0    0  501  502 -0.00000000000E+00 -0.00000000000E+00 -0.57020503784E+02  0.57020503784E+02  0.00000000000E+00 0.  1.
      99926    2    1    2    0    0  0.00000000000E+00  0.71054273576E-14  0.84218583298E+03  0.95622684055E+03  0.45287171838E+03 0.  0.
      99925    2    3    3    0    0 -0.41545933746E+02  0.49139585645E+02  0.72261387329E+03  0.77160364284E+03  0.26279385131E+03 0.  0.
         25    1    4    4    0    0 -0.20575100938E+02  0.33025453162E+01  0.25292399976E+03  0.28293515041E+03  0.12509000000E+03 0.  0.
         25    1    3    3    0    0  0.41545933746E+02 -0.49139585645E+02  0.11957195969E+03  0.18462319771E+03  0.12509000000E+03 0.  0.
         25    1    4    4    0    0 -0.20970832808E+02  0.45837040329E+02  0.46968987353E+03  0.48866849242E+03  0.12509000000E+03 0.  0.
<mgrwt>
<rscale>  2 0.45287172E+03</rscale>
<asrwt>0</asrwt>
<pdfrwt beam="1">  1       21 0.13223622E+00 0.45287172E+03</pdfrwt>
<pdfrwt beam="2">  1       21 0.83853688E-02 0.45287172E+03</pdfrwt>
<totfact> 0.41577313E+04</totfact>
</mgrwt>
</event>
<event>
 7    0  0.4725730E-002  0.4571846E+03  0.7546771E-02  0.1025601E+00
         21   -1    0    0  502  501  0.00000000000E+00  0.00000000000E+00  0.65774947503E+02  0.65774947503E+02  0.00000000000E+00 0. -1.
         21   -1    0    0  501  502 -0.00000000000E+00 -0.00000000000E+00 -0.79444280529E+03  0.79444280529E+03  0.00000000000E+00 0. -1.
      99926    2    1    2    0    0 -0.71054273576E-14  0.00000000000E+00 -0.72866785778E+03  0.86021775279E+03  0.45718457460E+03 0.  0.
      99925    2    3    3    0    0  0.55806244089E+02  0.35848610695E+02 -0.63479093292E+03  0.69033589711E+03  0.26306779078E+03 0.  0.
         25    1    4    4    0    0  0.26741532289E+01 -0.13859559930E+02 -0.32024070694E+03  0.34409425595E+03  0.12509000000E+03 0.  0.
         25    1    4    4    0    0  0.53132090860E+02  0.49708170626E+02 -0.31455022598E+03  0.34624164116E+03  0.12509000000E+03 0.  0.
         25    1    3    3    0    0 -0.55806244089E+02 -0.35848610695E+02 -0.93876924860E+02  0.16988185568E+03  0.12509000000E+03 0.  0.
<mgrwt>
<rscale>  2 0.45718457E+03</rscale>
<asrwt>0</asrwt>
<pdfrwt beam="1">  1       21 0.96727869E-02 0.45718457E+03</pdfrwt>
<pdfrwt beam="2">  1       21 0.11682982E+00 0.45718457E+03</pdfrwt>
<totfact> 0.44223034E+04</totfact>
</mgrwt>
</event>
<event>
 7    0  0.4725730E-002  0.4335231E+03  0.7546771E-02  0.1032753E+00
         21   -1    0    0  502  501  0.00000000000E+00  0.00000000000E+00  0.18204888928E+03  0.18204888928E+03  0.00000000000E+00 0. -1.
         21   -1    0    0  501  502 -0.00000000000E+00 -0.00000000000E+00 -0.25809313384E+03  0.25809313384E+03  0.00000000000E+00 0. -1.
      99926    2    1    2    0    0  0.00000000000E+00  0.00000000000E+00 -0.76044244561E+02  0.44014202313E+03  0.43352309442E+03 0.  0.
      99925    2    3    3    0    0 -0.25874299869E+02  0.84223098129E+02 -0.24773210419E+02  0.27877524621E+03  0.26332283663E+03 0.  0.
         25    1    4    4    0    0 -0.70398749072E+01  0.75611212972E+01  0.12783678730E+02  0.12616521286E+03  0.12509000000E+03 0.  0.
         25    1    3    3    0    0  0.25874299869E+02 -0.84223098129E+02 -0.51271034142E+02  0.16136677692E+03  0.12509000000E+03 0.  0.
         25    1    4    4    0    0 -0.18834424962E+02  0.76661976832E+02 -0.37556889149E+02  0.15261003335E+03  0.12509000000E+03 0.  0.
<mgrwt>
<rscale>  2 0.43352309E+03</rscale>
<asrwt>0</asrwt>
<pdfrwt beam="1">  1       21 0.26771896E-01 0.43352309E+03</pdfrwt>
<pdfrwt beam="2">  1       21 0.37954872E-01 0.43352309E+03</pdfrwt>
<totfact> 0.82976650E+04</totfact>
</mgrwt>
</event>
<event>
 7    0  0.4725730E-002  0.4568888E+03  0.7546771E-02  0.1025687E+00
         21   -1    0    0  502  501  0.00000000000E+00  0.00000000000E+00  0.12938117580E+03  0.12938117580E+03  0.00000000000E+00 0.  1.
         21   -1    0    0  501  502 -0.00000000000E+00 -0.00000000000E+00 -0.40335736417E+03  0.40335736417E+03  0.00000000000E+00 0.  1.
      99926    2    1    2    0    0  0.00000000000E+00  0.00000000000E+00 -0.27397618837E+03  0.53273853997E+03  0.45688882693E+03 0.  0.
      99925    2    3    3    0    0  0.23949059371E+02  0.67281062558E+02 -0.66965734532E+02  0.28054588559E+03  0.26290927237E+03 0.  0.
         25    1    4    4    0    0  0.46197050379E+02  0.56370664010E+02 -0.31077067162E+02  0.14807130522E+03  0.12509000000E+03 0.  0.
         25    1    4    4    0    0 -0.22247991008E+02  0.10910398548E+02 -0.35888667371E+02  0.13247458038E+03  0.12509000000E+03 0.  0.
         25    1    3    3    0    0 -0.23949059371E+02 -0.67281062558E+02 -0.20701045384E+03  0.25219265438E+03  0.12509000000E+03 0.  0.
<mgrwt>
<rscale>  2 0.45688883E+03</rscale>
<asrwt>0</asrwt>
<pdfrwt beam="1">  1       21 0.19026644E-01 0.45688883E+03</pdfrwt>
<pdfrwt beam="2">  1       21 0.59317259E-01 0.45688883E+03</pdfrwt>
<totfact> 0.62086838E+04</totfact>
</mgrwt>
</event>
<event>
 7    0  0.4725730E-002  0.4545943E+03  0.7546771E-02  0.1026361E+00
         21   -1    0    0  502  501  0.00000000000E+00  0.00000000000E+00  0.11427231628E+03  0.11427231628E+03  0.00000000000E+00 0. -1.
         21   -1    0    0  501  502 -0.00000000000E+00 -0.00000000000E+00 -0.45211291959E+03  0.45211291959E+03  0.00000000000E+00 0. -1.
      99926    2    1    2    0    0  0.71054273576E-14  0.00000000000E+00 -0.33784060331E+03  0.56638523586E+03  0.45459428302E+03 0.  0.
      99925    2    3    3    0    0 -0.43740032185E+02 -0.83803814931E+02 -0.13612382768E+03  0.31089857186E+03  0.26304363841E+03 0.  0.
         25    1    4    4    0    0 -0.47392393193E+02 -0.73902574989E+02 -0.60623764167E+02  0.16440917981E+03  0.12509000000E+03 0.  0.
         25    1    4    4    0    0  0.36523610071E+01 -0.99012399414E+01 -0.75500063509E+02  0.14648939205E+03  0.12509000000E+03 0.  0.
         25    1    3    3    0    0  0.43740032185E+02  0.83803814931E+02 -0.20171677563E+03  0.25548666401E+03  0.12509000000E+03 0.  0.
<mgrwt>
<rscale>  2 0.45459428E+03</rscale>
<asrwt>0</asrwt>
<pdfrwt beam="1">  1       21 0.16804753E-01 0.45459428E+03</pdfrwt>
<pdfrwt beam="2">  1       21 0.66487194E-01 0.45459428E+03</pdfrwt>
<totfact> 0.60992038E+04</totfact>
</mgrwt>
</event>
<event>
 7    0  0.4725730E-002  0.4571170E+03  0.7546771E-02  0.1025621E+00
         21   -1    0    0  502  501  0.00000000000E+00  0.00000000000E+00  0.66330282492E+03  0.66330282492E+03  0.00000000000E+00 0.  1.
         21   -1    0    0  501  502 -0.00000000000E+00 -0.00000000000E+00 -0.78755856830E+02  0.78755856830E+02  0.00000000000E+00 0.  1.
      99926    2    1    2    0    0  0.00000000000E+00  0.00000000000E+00  0.58454696809E+03  0.74205868175E+03  0.45711697546E+03 0.  0.
      99925    2    3    3    0    0 -0.12557125502E+02  0.44290709859E+02  0.19495891518E+03  0.33029939837E+03  0.26262019263E+03 0.  0.
         25    1    4    4    0    0  0.21426103581E+02  0.17123603683E+01  0.11978758989E+03  0.17452388056E+03  0.12509000000E+03 0.  0.
         25    1    4    4    0    0 -0.33983229083E+02  0.42578349490E+02  0.75171325292E+02  0.15577551781E+03  0.12509000000E+03 0.  0.
         25    1    3    3    0    0  0.12557125502E+02 -0.44290709859E+02  0.38958805291E+03  0.41175928338E+03  0.12509000000E+03 0.  0.
<mgrwt>
<rscale>  2 0.45711698E+03</rscale>
<asrwt>0</asrwt>
<pdfrwt beam="1">  1       21 0.97544530E-01 0.45711698E+03</pdfrwt>
<pdfrwt beam="2">  1       21 0.11581744E-01 0.45711698E+03</pdfrwt>
<totfact> 0.49843538E+04</totfact>
</mgrwt>
</event>
<event>
 7    0  0.4725730E-002  0.4688198E+03  0.7546771E-02  0.1022254E+00
         21   -1    0    0  502  501  0.00000000000E+00  0.00000000000E+00  0.13018815753E+04  0.13018815753E+04  0.00000000000E+00 0.  1.
         21   -1    0    0  501  502 -0.00000000000E+00 -0.00000000000E+00 -0.42206603215E+02  0.42206603215E+02  0.00000000000E+00 0.  1.
      99926    2    1    2    0    0 -0.13322676296E-14  0.00000000000E+00  0.12596749721E+04  0.13440881785E+04  0.46881979089E+03 0.  0.
      99925    2    3    3    0    0  0.29548057707E+01  0.12184509851E+03  0.69392135550E+03  0.75199053311E+03  0.26288391996E+03 0.  0.
         25    1    4    4    0    0 -0.12890389844E+02  0.25747455146E+02  0.36366581791E+03  0.38565454595E+03  0.12509000000E+03 0.  0.
         25    1    4    4    0    0  0.15845195615E+02  0.96097643361E+02  0.33025553758E+03  0.36633598716E+03  0.12509000000E+03 0.  0.
         25    1    3    3    0    0 -0.29548057707E+01 -0.12184509851E+03  0.56575361659E+03  0.59209764541E+03  0.12509000000E+03 0.  0.
<mgrwt>
<rscale>  2 0.46881979E+03</rscale>
<asrwt>0</asrwt>
<pdfrwt beam="1">  1       21 0.19145315E+00 0.46881979E+03</pdfrwt>
<pdfrwt beam="2">  1       21 0.62068543E-02 0.46881979E+03</pdfrwt>
<totfact> 0.25057929E+04</totfact>
</mgrwt>
</event>
<event>
 6    0  0.4725730E-002  0.4511969E+03  0.7546771E-02  0.1027366E+00
         21   -1    0    0  502  501  0.00000000000E+00  0.00000000000E+00  0.40301819868E+02  0.40301819868E+02  0.00000000000E+00 0. -1.
         21   -1    0    0  501  502 -0.00000000000E+00 -0.00000000000E+00 -0.12628375194E+04  0.12628375194E+04  0.00000000000E+00 0. -1.
      99926    2    1    2    0    0  0.17763568394E-14  0.35527136788E-14 -0.12225356995E+04  0.13031393393E+04  0.45119685385E+03 0.  0.
         25    1    3    3    0    0 -0.15221220596E+02 -0.21301925363E+02 -0.14547403167E+03  0.19363796004E+03  0.12509000000E+03 0.  0.
         25    1    3    3    0    0  0.34752191897E+02 -0.23207405779E+02 -0.55752087579E+03  0.57290778801E+03  0.12509000000E+03 0.  0.
         25    1    3    3    0    0 -0.19530971301E+02  0.44509331143E+02 -0.51954079209E+03  0.53659359123E+03  0.12509000000E+03 0.  0.
<mgrwt>
<rscale>  2 0.45119685E+03</rscale>
<asrwt>0</asrwt>
<pdfrwt beam="1">  1       21 0.59267394E-02 0.45119685E+03</pdfrwt>
<pdfrwt beam="2">  1       21 0.18571136E+00 0.45119685E+03</pdfrwt>
<totfact> 0.29898210E+04</totfact>
</mgrwt>
</event>
<event>
 7    0  0.4725730E-002  0.4583920E+03  0.7546771E-02  0.1025249E+00
         21   -1    0    0  502  501  0.00000000000E+00  0.00000000000E+00  0.24059238135E+02  0.24059238135E+02  0.00000000000E+00 0.  1.
         21   -1    0    0  501  502 -0.00000000000E+00 -0.00000000000E+00 -0.21833941978E+04  0.21833941978E+04  0.00000000000E+00 0.  1.
      99926    2    1    2    0    0  0.00000000000E+00  0.00000000000E+00 -0.21593349597E+04  0.22074534360E+04  0.45839197614E+03 0.  0.
      99925    2    3    3    0    0 -0.56023390505E+02 -0.97895324924E+02 -0.14911923521E+04  0.15184075978E+04  0.26303020193E+03 0.  0.
         25    1    3    3    0    0  0.56023390505E+02  0.97895324924E+02 -0.66814260756E+03  0.68904583814E+03  0.12509000000E+03 0.  0.
         25    1    4    4    0    0  0.44160582549E+01 -0.47371207027E+02 -0.57527124471E+03  0.59063359701E+03  0.12509000000E+03 0.  0.
         25    1    4    4    0    0 -0.60439448760E+02 -0.50524117897E+02 -0.91592110743E+03  0.92777400082E+03  0.12509000000E+03 0.  0.
<mgrwt>
<rscale>  2 0.45839198E+03</rscale>
<asrwt>0</asrwt>
<pdfrwt beam="1">  1       21 0.35381224E-02 0.45839198E+03</pdfrwt>
<pdfrwt beam="2">  1       21 0.32108746E+00 0.45839198E+03</pdfrwt>
<totfact> 0.10334107E+04</totfact>
</mgrwt>
</event>
<event>
 7    0  0.4725730E-002  0.4493921E+03  0.7546771E-02  0.1027903E+00
         21   -1    0    0  502  501  0.00000000000E+00  0.00000000000E+00  0.21716394421E+03  0.21716394421E+03  0.00000000000E+00 0. -1.
         21   -1    0    0  501  502 -0.00000000000E+00 -0.00000000000E+00 -0.23248938411E+03  0.23248938411E+03  0.00000000000E+00 0. -1.
      99926    2    1    2    0    0  0.71054273576E-14 -0.88817841970E-15 -0.15325439895E+02  0.44965332832E+03  0.44939208555E+03 0.  0.
      99925    2    3    3    0    0 -0.54629883213E+02  0.57824767643E+01 -0.10250001281E+03  0.28758921927E+03  0.26302746099E+03 0.  0.
         25    1    4    4    0    0 -0.20780669174E+02  0.19889104001E+02 -0.12031879512E+02  0.12891736459E+03  0.12509000000E+03 0.  0.
         25    1    3    3    0    0  0.54629883213E+02 -0.57824767643E+01  0.87174572919E+02  0.16206410905E+03  0.12509000000E+03 0.  0.
         25    1    4    4    0    0 -0.33849214040E+02 -0.14106627236E+02 -0.90468133303E+02  0.15867185468E+03  0.12509000000E+03 0.  0.
<mgrwt>
<rscale>  2 0.44939209E+03</rscale>
<asrwt>0</asrwt>
<pdfrwt beam="1">  1       21 0.31935874E-01 0.44939209E+03</pdfrwt>
<pdfrwt beam="2">  1       21 0.34189615E-01 0.44939209E+03</pdfrwt>
<totfact> 0.72112344E+04</totfact>
</mgrwt>
</event>
<event>
 7    0  0.4725730E-002  0.4533575E+03  0.7546771E-02  0.1026726E+00
         21   -1    0    0  502  501  0.00000000000E+00  0.00000000000E+00  0.14804451806E+03  0.14804451806E+03  0.00000000000E+00 0. -1.
         21   -1    0    0  501  502 -0.00000000000E+00 -0.00000000000E+00 -0.34707969806E+03  0.34707969806E+03  0.00000000000E+00 0. -1.
      99926    2    1    2    0    0  0.00000000000E+00  0.14210854715E-13 -0.19903518000E+03  0.49512421612E+03  0.45335745997E+03 0.  0.
      99925    2    3    3    0    0  0.18449681208E+02  0.10718646597E+03 -0.98112399294E+02  0.30105658618E+03  0.26302033375E+03 0.  0.
         25    1    3    3    0    0 -0.18449681208E+02 -0.10718646597E+03 -0.10092278071E+03  0.19406762994E+03  0.12509000000E+03 0.  0.
         25    1    4    4    0    0  0.16223988558E+02  0.33655834825E+02 -0.84031761433E+02  0.15525713527E+03  0.12509000000E+03 0.  0.
         25    1    4    4    0    0  0.22256926494E+01  0.73530631144E+02 -0.14080637861E+02  0.14579945091E+03  0.12509000000E+03 0.  0.
<mgrwt>
<rscale>  2 0.45335746E+03</rscale>
<asrwt>0</asrwt>
<pdfrwt beam="1">  1       21 0.21771253E-01 0.45335746E+03</pdfrwt>
<pdfrwt beam="2">  1       21 0.51041131E-01 0.45335746E+03</pdfrwt>
<totfact> 0.66477162E+04</totfact>
</mgrwt>
</event>
<event>
 7    0  0.4725730E-002  0.4507289E+03  0.7546771E-02  0.1027505E+00
         21   -1    0    0  502  501  0.00000000000E+00  0.00000000000E+00  0.72263134502E+03  0.72263134502E+03  0.00000000000E+00 0. -1.
         21   -1    0    0  501  502 -0.00000000000E+00 -0.00000000000E+00 -0.70283609270E+02  0.70283609270E+02  0.00000000000E+00 0. -1.
      99926    2    1    2    0    0  0.00000000000E+00  0.00000000000E+00  0.65234773575E+03  0.79291495429E+03  0.45072891675E+03 0.  0.
      99925    2    3    3    0    0  0.89068855105E+02 -0.27033548958E+02  0.51219237923E+03  0.58326022437E+03  0.26303494495E+03 0.  0.
         25    1    4    4    0    0  0.61568194375E+02 -0.30090220340E+02  0.33942317137E+03  0.36817341197E+03  0.12509000000E+03 0.  0.
         25    1    4    4    0    0  0.27500660730E+02  0.30566713813E+01  0.17276920786E+03  0.21508681239E+03  0.12509000000E+03 0.  0.
         25    1    3    3    0    0 -0.89068855105E+02  0.27033548958E+02  0.14015535651E+03  0.20965472992E+03  0.12509000000E+03 0.  0.
<mgrwt>
<rscale>  2 0.45072892E+03</rscale>
<asrwt>0</asrwt>
<pdfrwt beam="1">  1       21 0.10626931E+00 0.45072892E+03</pdfrwt>
<pdfrwt beam="2">  1       21 0.10335825E-01 0.45072892E+03</pdfrwt>
<totfact> 0.49756448E+04</totfact>
</mgrwt>
</event>
<event>
 7    0  0.4725730E-002  0.4560539E+03  0.7546771E-02  0.1025932E+00
         21   -1    0    0  502  501  0.00000000000E+00  0.00000000000E+00  0.13514870414E+03  0.13514870414E+03  0.00000000000E+00 0.  1.
         21   -1    0    0  501  502 -0.00000000000E+00 -0.00000000000E+00 -0.38473399527E+03  0.38473399527E+03  0.00000000000E+00 0.  1.
      99926    2    1    2    0    0  0.00000000000E+00 -0.14210854715E-13 -0.24958529113E+03  0.51988269942E+03  0.45605394813E+03 0.  0.
      99925    2    3    3    0    0 -0.69199055252E+02  0.86307035916E+02 -0.12484729791E+03  0.31144928379E+03  0.26301405834E+03 0.  0.
         25    1    4    4    0    0 -0.55496928585E+02  0.69531924237E+02 -0.96685926980E+02  0.18141189086E+03  0.12509000000E+03 0.  0.
         25    1    4    4    0    0 -0.13702126667E+02  0.16775111679E+02 -0.28161370931E+02  0.13003739293E+03  0.12509000000E+03 0.  0.
         25    1    3    3    0    0  0.69199055252E+02 -0.86307035916E+02 -0.12473799322E+03  0.20843341562E+03  0.12509000000E+03 0.  0.
<mgrwt>
<rscale>  2 0.45605395E+03</rscale>
<asrwt>0</asrwt>
<pdfrwt beam="1">  1       21 0.19874810E-01 0.45605395E+03</pdfrwt>
<pdfrwt beam="2">  1       21 0.56578527E-01 0.45605395E+03</pdfrwt>
<totfact> 0.63363754E+04</totfact>
</mgrwt>
</event>
<event>
 7    0  0.4725730E-002  0.4436637E+03  0.7546771E-02  0.1029629E+00
         21   -1    0    0  502  501  0.00000000000E+00  0.00000000000E+00  0.13249490608E+04  0.13249490608E+04  0.00000000000E+00 0.  1.
         21   -1    0    0  501  502 -0.00000000000E+00 -0.00000000000E+00 -0.37140582784E+02  0.37140582784E+02  0.00000000000E+00 0.  1.
      99926    2    1    2    0    0  0.31086244690E-14  0.00000000000E+00  0.12878084780E+04  0.13620896436E+04  0.44366374779E+03 0.  0.
      99925    2    3    3    0    0  0.28939214155E+01  0.28869839567E+02  0.51822759168E+03  0.58186910352E+03  0.26300185254E+03 0.  0.
         25    1    4    4    0    0 -0.38815274691E+02  0.10054045131E+02  0.26251411219E+03  0.29354535692E+03  0.12509000000E+03 0.  0.
         25    1    4    4    0    0  0.41709196106E+02  0.18815794436E+02  0.25571347949E+03  0.28832374660E+03  0.12509000000E+03 0.  0.
         25    1    3    3    0    0 -0.28939214155E+01 -0.28869839567E+02  0.76958088632E+03  0.78022054005E+03  0.12509000000E+03 0.  0.
<mgrwt>
<rscale>  2 0.44366375E+03</rscale>
<asrwt>0</asrwt>
<pdfrwt beam="1">  1       21 0.19484542E+00 0.44366375E+03</pdfrwt>
<pdfrwt beam="2">  1       21 0.54618513E-02 0.44366375E+03</pdfrwt>
<totfact> 0.29909979E+04</totfact>
</mgrwt>
</event>
<event>
 7    0  0.4725730E-002  0.4643994E+03  0.7546771E-02  0.1023513E+00
         21   -1    0    0  502  501  0.00000000000E+00  0.00000000000E+00  0.10270924279E+03  0.10270924279E+03  0.00000000000E+00 0. -1.
         21   -1    0    0  501  502 -0.00000000000E+00 -0.00000000000E+00 -0.52494486725E+03  0.52494486725E+03  0.00000000000E+00 0. -1.
      99926    2    1    2    0    0  0.35527136788E-14  0.00000000000E+00 -0.42223562446E+03  0.62765411004E+03  0.46439935323E+03 0.  0.
      99925    2    3    3    0    0  0.27761341923E+02 -0.11822237326E+03 -0.25124664106E+03  0.38345754538E+03  0.26299732474E+03 0.  0.
         25    1    4    4    0    0  0.27091454623E+02 -0.10137558299E+03 -0.14848038726E+03  0.22069184227E+03  0.12509000000E+03 0.  0.
         25    1    3    3    0    0 -0.27761341923E+02  0.11822237326E+03 -0.17098898341E+03  0.24419656466E+03  0.12509000000E+03 0.  0.
         25    1    4    4    0    0  0.66988730048E+00 -0.16846790267E+02 -0.10276625379E+03  0.16276570311E+03  0.12509000000E+03 0.  0.
<mgrwt>
<rscale>  2 0.46439935E+03</rscale>
<asrwt>0</asrwt>
<pdfrwt beam="1">  1       21 0.15104301E-01 0.46439935E+03</pdfrwt>
<pdfrwt beam="2">  1       21 0.77197774E-01 0.46439935E+03</pdfrwt>
<totfact> 0.52966176E+04</totfact>
</mgrwt>
</event>
<event>
 7    0  0.4725730E-002  0.4531754E+03  0.7546771E-02  0.1026779E+00
         21   -1    0    0  502  501  0.00000000000E+00  0.00000000000E+00  0.15898497707E+04  0.15898497707E+04  0.00000000000E+00 0. -1.
         21   -1    0    0  501  502 -0.00000000000E+00 -0.00000000000E+00 -0.32293612767E+02  0.32293612767E+02  0.00000000000E+00 0. -1.
      99926    2    1    2    0    0  0.00000000000E+00  0.37747582837E-14  0.15575561579E+04  0.16221433834E+04  0.45317543116E+03 0.  0.
      99925    2    3    3    0    0 -0.18454930402E+02  0.15638665699E+01  0.58863506115E+03  0.64500540445E+03  0.26305456930E+03 0.  0.
         25    1    4    4    0    0  0.60220401776E+01 -0.31340322688E+02  0.24326184166E+03  0.27539483020E+03  0.12509000000E+03 0.  0.
         25    1    3    3    0    0  0.18454930402E+02 -0.15638665699E+01  0.96892109676E+03  0.97713797899E+03  0.12509000000E+03 0.  0.
         25    1    4    4    0    0 -0.24476970580E+02  0.32904189258E+02  0.34537321948E+03  0.36961057425E+03  0.12509000000E+03 0.  0.
<mgrwt>
<rscale>  2 0.45317543E+03</rscale>
<asrwt>0</asrwt>
<pdfrwt beam="1">  1       21 0.23380138E+00 0.45317543E+03</pdfrwt>
<pdfrwt beam="2">  1       21 0.47490618E-02 0.45317543E+03</pdfrwt>
<totfact> 0.21233219E+04</totfact>
</mgrwt>
</event>
<event>
 7    0  0.4725730E-002  0.4523260E+03  0.7546771E-02  0.1027031E+00
         21   -1    0    0  502  501  0.00000000000E+00  0.00000000000E+00  0.49441113758E+02  0.49441113758E+02  0.00000000000E+00 0.  1.
         21   -1    0    0  501  502 -0.00000000000E+00 -0.00000000000E+00 -0.10345580517E+04  0.10345580517E+04  0.00000000000E+00 0.  1.
      99926    2    1    2    0    0 -0.14210854715E-13  0.11102230246E-15 -0.98511693797E+03  0.10839991655E+04  0.45232599892E+03 0.  0.
      99925    2    3    3    0    0 -0.10725587672E+03  0.84412741320E+00 -0.68663208586E+03  0.74305158787E+03  0.26297814598E+03 0.  0.
         25    1    4    4    0    0 -0.26481890539E+02 -0.30548695844E+02 -0.29930447198E+03  0.32690241418E+03  0.12509000000E+03 0.  0.
         25    1    4    4    0    0 -0.80773986183E+02  0.31392823257E+02 -0.38732761388E+03  0.41614917370E+03  0.12509000000E+03 0.  0.
         25    1    3    3    0    0  0.10725587672E+03 -0.84412741320E+00 -0.29848485211E+03  0.34094757761E+03  0.12509000000E+03 0.  0.
<mgrwt>
<rscale>  2 0.45232600E+03</rscale>
<asrwt>0</asrwt>
<pdfrwt beam="1">  1       21 0.72707525E-02 0.45232600E+03</pdfrwt>
<pdfrwt beam="2">  1       21 0.15214088E+00 0.45232600E+03</pdfrwt>
<totfact> 0.36816171E+04</totfact>
</mgrwt>
</event>
<event>
 7    0  0.4725730E-002  0.4513428E+03  0.7546771E-02  0.1027322E+00
         21   -1    0    0  502  501  0.00000000000E+00  0.00000000000E+00  0.49154525398E+02  0.49154525398E+02  0.00000000000E+00 0. -1.
         21   -1    0    0  501  502 -0.00000000000E+00 -0.00000000000E+00 -0.10360712403E+04  0.10360712403E+04  0.00000000000E+00 0. -1.
      99926    2    1    2    0    0  0.14210854715E-13  0.00000000000E+00 -0.98691671494E+03  0.10852257657E+04  0.45134284130E+03 0.  0.
      99925    2    3    3    0    0  0.82135045500E+02  0.22031876955E+02 -0.78965108817E+03  0.83664417972E+03  0.26304576239E+03 0.  0.
         25    1    4    4    0    0  0.41410689471E+02  0.17200430172E+02 -0.51806131090E+03  0.53483243165E+03  0.12509000000E+03 0.  0.
         25    1    4    4    0    0  0.40724356029E+02  0.48314467828E+01 -0.27158977727E+03  0.30181174806E+03  0.12509000000E+03 0.  0.
         25    1    3    3    0    0 -0.82135045500E+02 -0.22031876955E+02 -0.19726562677E+03  0.24858158602E+03  0.12509000000E+03 0.  0.
<mgrwt>
<rscale>  2 0.45134284E+03</rscale>
<asrwt>0</asrwt>
<pdfrwt beam="1">  1       21 0.72286067E-02 0.45134284E+03</pdfrwt>
<pdfrwt beam="2">  1       21 0.15236342E+00 0.45134284E+03</pdfrwt>
<totfact> 0.37056917E+04</totfact>
</mgrwt>
</event>
<event>
 7    0  0.4725730E-002  0.4591211E+03  0.7546771E-02  0.1025036E+00
         21   -1    0    0  502  501  0.00000000000E+00  0.00000000000E+00  0.10763239428E+03  0.10763239428E+03  0.00000000000E+00 0. -1.
         21   -1    0    0  501  502 -0.00000000000E+00 -0.00000000000E+00 -0.48961138425E+03  0.48961138425E+03  0.00000000000E+00 0. -1.
      99926    2    1    2    0    0  0.88817841970E-15 -0.35527136788E-14 -0.38197898996E+03  0.59724377853E+03  0.45912109756E+03 0.  0.
      99925    2    3    3    0    0 -0.17285042212E+01  0.22690206880E+02 -0.90676337702E+02  0.27940328940E+03  0.26329862646E+03 0.  0.
         25    1    4    4    0    0 -0.15456276528E+02  0.25565415614E+02 -0.81042427848E+01  0.12886300404E+03  0.12509000000E+03 0.  0.
         25    1    3    3    0    0  0.17285042212E+01 -0.22690206880E+02 -0.29130265226E+03  0.31784048913E+03  0.12509000000E+03 0.  0.
         25    1    4    4    0    0  0.13727772307E+02 -0.28752087344E+01 -0.82572094917E+02  0.15054028536E+03  0.12509000000E+03 0.  0.
<mgrwt>
<rscale>  2 0.45912110E+03</rscale>
<asrwt>0</asrwt>
<pdfrwt beam="1">  1       21 0.15828293E-01 0.45912110E+03</pdfrwt>
<pdfrwt beam="2">  1       21 0.72001675E-01 0.45912110E+03</pdfrwt>
<totfact> 0.56970210E+04</totfact>
</mgrwt>
</event>
<event>
 7    0  0.4725730E-002  0.4541064E+03  0.7546771E-02  0.1026505E+00
         21   -1    0    0  502  501  0.00000000000E+00  0.00000000000E+00  0.42377149741E+03  0.42377149741E+03  0.00000000000E+00 0.  1.
         21   -1    0    0  501  502 -0.00000000000E+00 -0.00000000000E+00 -0.12165319827E+03  0.12165319827E+03  0.00000000000E+00 0.  1.
      99926    2    1    2    0    0  0.00000000000E+00  0.00000000000E+00  0.30211829914E+03  0.54542469568E+03  0.45410641041E+03 0.  0.
      99925    2    3    3    0    0  0.88795876328E+02  0.34634421961E+02  0.11887610642E+03  0.30395117719E+03  0.26300292508E+03 0.  0.
         25    1    4    4    0    0  0.22011785505E+02 -0.18416047654E+02  0.54806780239E+02  0.13955271682E+03  0.12509000000E+03 0.  0.
         25    1    4    4    0    0  0.66784090823E+02  0.53050469615E+02  0.64069326177E+02  0.16439846036E+03  0.12509000000E+03 0.  0.
         25    1    3    3    0    0 -0.88795876328E+02 -0.34634421961E+02  0.18324219272E+03  0.24147351849E+03  0.12509000000E+03 0.  0.
<mgrwt>
<rscale>  2 0.45410641E+03</rscale>
<asrwt>0</asrwt>
<pdfrwt beam="1">  1       21 0.62319337E-01 0.45410641E+03</pdfrwt>
<pdfrwt beam="2">  1       21 0.17890176E-01 0.45410641E+03</pdfrwt>
<totfact> 0.62611408E+04</totfact>
</mgrwt>
</event>
<event>
 7    0  0.4725730E-002  0.4527046E+03  0.7546771E-02  0.1026919E+00
         21   -1    0    0  502  501  0.00000000000E+00  0.00000000000E+00  0.11811675988E+03  0.11811675988E+03  0.00000000000E+00 0. -1.
         21   -1    0    0  501  502 -0.00000000000E+00 -0.00000000000E+00 -0.43376876240E+03  0.43376876240E+03  0.00000000000E+00 0. -1.
      99926    2    1    2    0    0  0.17763568394E-14  0.14210854715E-13 -0.31565200252E+03  0.55188552228E+03  0.45270458690E+03 0.  0.
      99925    2    3    3    0    0 -0.13477239927E+02  0.10528663928E+03 -0.23847347230E+03  0.37058205834E+03  0.26304857454E+03 0.  0.
         25    1    4    4    0    0 -0.36625833152E+02  0.73738456527E+02 -0.10093537516E+03  0.18059421277E+03  0.12509000000E+03 0.  0.
         25    1    4    4    0    0  0.23148593225E+02  0.31548182752E+02 -0.13753809713E+03  0.18998784558E+03  0.12509000000E+03 0.  0.
         25    1    3    3    0    0  0.13477239927E+02 -0.10528663928E+03 -0.77178530225E+02  0.18130346393E+03  0.12509000000E+03 0.  0.
<mgrwt>
<rscale>  2 0.45270459E+03</rscale>
<asrwt>0</asrwt>
<pdfrwt beam="1">  1       21 0.17370112E-01 0.45270459E+03</pdfrwt>
<pdfrwt beam="2">  1       21 0.63789523E-01 0.45270459E+03</pdfrwt>
<totfact> 0.62876170E+04</totfact>
</mgrwt>
</event>
<event>
 7    0  0.4725730E-002  0.4590549E+03  0.7546771E-02  0.1025056E+00
         21   -1    0    0  502  501  0.00000000000E+00  0.00000000000E+00  0.82424611270E+02  0.82424611270E+02  0.00000000000E+00 0. -1.
         21   -1    0    0  501  502 -0.00000000000E+00 -0.00000000000E+00 -0.63916398506E+03  0.63916398506E+03  0.00000000000E+00 0. -1.
      99926    2    1    2    0    0  0.00000000000E+00  0.00000000000E+00 -0.55673937379E+03  0.72158859633E+03  0.45905486821E+03 0.  0.
      99925    2    3    3    0    0 -0.40618693010E+02 -0.45358640384E+02 -0.50581949971E+03  0.57344128399E+03  0.26320002927E+03 0.  0.
         25    1    4    4    0    0  0.29518379380E+01 -0.54010954034E+02 -0.23009179499E+03  0.26742408030E+03  0.12509000000E+03 0.  0.
         25    1    3    3    0    0  0.40618693010E+02  0.45358640384E+02 -0.50919874076E+02  0.14814731235E+03  0.12509000000E+03 0.  0.
         25    1    4    4    0    0 -0.43570530948E+02  0.86523136499E+01 -0.27572770473E+03  0.30601720369E+03  0.12509000000E+03 0.  0.
<mgrwt>
<rscale>  2 0.45905487E+03</rscale>
<asrwt>0</asrwt>
<pdfrwt beam="1">  1       21 0.12121266E-01 0.45905487E+03</pdfrwt>
<pdfrwt beam="2">  1       21 0.93994705E-01 0.45905487E+03</pdfrwt>
<totfact> 0.50128528E+04</totfact>
</mgrwt>
</event>
<event>
 7    0  0.4725730E-002  0.4627551E+03  0.7546771E-02  0.1023985E+00
         21   -1    0    0  502  501  0.00000000000E+00  0.00000000000E+00  0.27435197347E+03  0.27435197347E+03  0.00000000000E+00 0. -1.
         21   -1    0    0  501  502 -0.00000000000E+00 -0.00000000000E+00 -0.19513460448E+03  0.19513460448E+03  0.00000000000E+00 0. -1.
      99926    2    1    2    0    0  0.00000000000E+00  0.00000000000E+00  0.79217368993E+02  0.46948657795E+03  0.46275507056E+03 0.  0.
      99925    2    3    3    0    0 -0.89710285098E+02 -0.41635989038E+02 -0.19755762112E+02  0.28180418769E+03  0.26313840317E+03 0.  0.
         25    1    3    3    0    0  0.89710285098E+02  0.41635989038E+02  0.98973131105E+02  0.18768239027E+03  0.12509000000E+03 0.  0.
         25    1    4    4    0    0 -0.43358421923E+02 -0.32747466766E+02  0.29115574572E+02  0.13945455932E+03  0.12509000000E+03 0.  0.
         25    1    4    4    0    0 -0.46351863175E+02 -0.88885222714E+01 -0.48871336685E+02  0.14234962837E+03  0.12509000000E+03 0.  0.
<mgrwt>
<rscale>  2 0.46275507E+03</rscale>
<asrwt>0</asrwt>
<pdfrwt beam="1">  1       21 0.40345879E-01 0.46275507E+03</pdfrwt>
<pdfrwt beam="2">  1       21 0.28696265E-01 0.46275507E+03</pdfrwt>
<totfact> 0.63474146E+04</totfact>
</mgrwt>
</event>
<event>
 7    0  0.4725730E-002  0.4526537E+03  0.7546771E-02  0.1026934E+00
         21   -1    0    0  502  501  0.00000000000E+00  0.00000000000E+00  0.11842019481E+03  0.11842019481E+03  0.00000000000E+00 0.  1.
         21   -1    0    0  501  502 -0.00000000000E+00 -0.00000000000E+00 -0.43256011745E+03  0.43256011745E+03  0.00000000000E+00 0.  1.
      99926    2    1    2    0    0  0.00000000000E+00  0.00000000000E+00 -0.31413992264E+03  0.55098031226E+03  0.45265374570E+03 0.  0.
      99925    2    3    3    0    0 -0.18506343148E+02  0.79102129928E+02 -0.29000822467E+03  0.39988604154E+03  0.26306737568E+03 0.  0.
         25    1    3    3    0    0  0.18506343148E+02 -0.79102129928E+02 -0.24131697977E+02  0.15109427072E+03  0.12509000000E+03 0.  0.
         25    1    4    4    0    0  0.56821008116E+01  0.71073705041E+02 -0.18601865121E+03  0.23523223528E+03  0.12509000000E+03 0.  0.
         25    1    4    4    0    0 -0.24188443960E+02  0.80284248872E+01 -0.10398957345E+03  0.16465380625E+03  0.12509000000E+03 0.  0.
<mgrwt>
<rscale>  2 0.45265375E+03</rscale>
<asrwt>0</asrwt>
<pdfrwt beam="1">  1       21 0.17414735E-01 0.45265375E+03</pdfrwt>
<pdfrwt beam="2">  1       21 0.63611781E-01 0.45265375E+03</pdfrwt>
<totfact> 0.62962423E+04</totfact>
</mgrwt>
</event>
<event>
 7    0  0.4725730E-002  0.4489531E+03  0.7546771E-02  0.1028035E+00
         21   -1    0    0  502  501  0.00000000000E+00  0.00000000000E+00  0.33058002731E+03  0.33058002731E+03  0.00000000000E+00 0.  1.
         21   -1    0    0  501  502 -0.00000000000E+00 -0.00000000000E+00 -0.15242819503E+03  0.15242819503E+03  0.00000000000E+00 0.  1.
      99926    2    1    2    0    0  0.35527136788E-14  0.14210854715E-13  0.17815183228E+03  0.48300822233E+03  0.44895307939E+03 0.  0.
      99925    2    3    3    0    0 -0.26728656066E+02 -0.10367361525E+03  0.10238163983E+03  0.30175903001E+03  0.26289517390E+03 0.  0.
         25    1    4    4    0    0 -0.48121458570E+02 -0.46732354181E+02  0.30468823689E+02  0.14517384413E+03  0.12509000000E+03 0.  0.
         25    1    4    4    0    0  0.21392802503E+02 -0.56941261071E+02  0.71912816139E+02  0.15658518588E+03  0.12509000000E+03 0.  0.
         25    1    3    3    0    0  0.26728656066E+02  0.10367361525E+03  0.75770192450E+02  0.18124919233E+03  0.12509000000E+03 0.  0.
<mgrwt>
<rscale>  2 0.44895308E+03</rscale>
<asrwt>0</asrwt>
<pdfrwt beam="1">  1       21 0.48614710E-01 0.44895308E+03</pdfrwt>
<pdfrwt beam="2">  1       21 0.22415911E-01 0.44895308E+03</pdfrwt>
<totfact> 0.69771363E+04</totfact>
</mgrwt>
</event>
<event>
 7    0  0.4725730E-002  0.4549887E+03  0.7546771E-02  0.1026245E+00
         21   -1    0    0  502  501  0.00000000000E+00  0.00000000000E+00  0.49352255311E+03  0.49352255311E+03  0.00000000000E+00 0. -1.
         21   -1    0    0  501  502 -0.00000000000E+00 -0.00000000000E+00 -0.10486590436E+03  0.10486590436E+03  0.00000000000E+00 0. -1.
      99926    2    1    2    0    0  0.00000000000E+00  0.00000000000E+00  0.38865664874E+03  0.59838845747E+03  0.45498874208E+03 0.  0.
      99925    2    3    3    0    0  0.85383688903E+02 -0.48309101671E+02  0.17034360182E+03  0.32832876372E+03  0.26298039997E+03 0.  0.
         25    1    4    4    0    0  0.55816987879E+02 -0.23301841427E+02  0.13256718180E+03  0.19204186455E+03  0.12509000000E+03 0.  0.
         25    1    3    3    0    0 -0.85383688903E+02  0.48309101671E+02  0.21831304692E+03  0.27005969375E+03  0.12509000000E+03 0.  0.
         25    1    4    4    0    0  0.29566701024E+02 -0.25007260245E+02  0.37776420022E+02  0.13628689917E+03  0.12509000000E+03 0.  0.
<mgrwt>
<rscale>  2 0.45498874E+03</rscale>
<asrwt>0</asrwt>
<pdfrwt beam="1">  1       21 0.72576845E-01 0.45498874E+03</pdfrwt>
<pdfrwt beam="2">  1       21 0.15421457E-01 0.45498874E+03</pdfrwt>
<totfact> 0.58782800E+04</totfact>
</mgrwt>
</event>
<event>
 7    0  0.4725730E-002  0.4500636E+03  0.7546771E-02  0.1027703E+00
         21   -1    0    0  502  501  0.00000000000E+00  0.00000000000E+00  0.40565608967E+03  0.40565608967E+03  0.00000000000E+00 0.  1.
         21   -1    0    0  501  502 -0.00000000000E+00 -0.00000000000E+00 -0.12483313694E+03  0.12483313694E+03  0.00000000000E+00 0.  1.
      99926    2    1    2    0    0  0.00000000000E+00 -0.35527136788E-14  0.28082295273E+03  0.53048922661E+03  0.45006364969E+03 0.  0.
      99925    2    3    3    0    0 -0.55991233642E+02 -0.24250750892E+02  0.28312800661E+03  0.39129174625E+03  0.26310576846E+03 0.  0.
         25    1    4    4    0    0 -0.17108581500E+02 -0.17878458074E+02  0.83441790303E+02  0.15238892116E+03  0.12509000000E+03 0.  0.
         25    1    4    4    0    0 -0.38882652142E+02 -0.63722928177E+01  0.19968621631E+03  0.23890282509E+03  0.12509000000E+03 0.  0.
         25    1    3    3    0    0  0.55991233642E+02  0.24250750892E+02 -0.23050538857E+01  0.13919748035E+03  0.12509000000E+03 0.  0.
<mgrwt>
<rscale>  2 0.45006365E+03</rscale>
<asrwt>0</asrwt>
<pdfrwt beam="1">  1       21 0.59655307E-01 0.45006365E+03</pdfrwt>
<pdfrwt beam="2">  1       21 0.18357814E-01 0.45006365E+03</pdfrwt>
<totfact> 0.65704515E+04</totfact>
</mgrwt>
</event>
<event>
 7    0  0.4725730E-002  0.4545130E+03  0.7546771E-02  0.1026385E+00
         21   -1    0    0  502  501  0.00000000000E+00  0.00000000000E+00  0.15427064546E+03  0.15427064546E+03  0.00000000000E+00 0.  1.
         21   -1    0    0  501  502 -0.00000000000E+00 -0.00000000000E+00 -0.33477219908E+03  0.33477219908E+03  0.00000000000E+00 0.  1.
      99926    2    1    2    0    0  0.00000000000E+00  0.35527136788E-14 -0.18050155362E+03  0.48904284455E+03  0.45451302835E+03 0.  0.
      99925    2    3    3    0    0 -0.10940495392E+03  0.17207387700E+02 -0.90516341616E+02  0.29927882105E+03  0.26288603329E+03 0.  0.
         25    1    4    4    0    0 -0.37796257832E+02  0.44960216185E+02 -0.37215605108E+02  0.14311704130E+03  0.12509000000E+03 0.  0.
         25    1    3    3    0    0  0.10940495392E+03 -0.17207387700E+02 -0.89985212005E+02  0.18976402350E+03  0.12509000000E+03 0.  0.
         25    1    4    4    0    0 -0.71608696087E+02 -0.27752828485E+02 -0.53300736507E+02  0.15616177976E+03  0.12509000000E+03 0.  0.
<mgrwt>
<rscale>  2 0.45451303E+03</rscale>
<asrwt>0</asrwt>
<pdfrwt beam="1">  1       21 0.22686860E-01 0.45451303E+03</pdfrwt>
<pdfrwt beam="2">  1       21 0.49231206E-01 0.45451303E+03</pdfrwt>
<totfact> 0.66303457E+04</totfact>
</mgrwt>
</event>
<event>
 7    0  0.4725730E-002  0.5189931E+03  0.7546771E-02  0.1008937E+00
         21   -1    0    0  502  501  0.00000000000E+00  0.00000000000E+00  0.33175253314E+03  0.33175253314E+03  0.00000000000E+00 0. -1.
         21   -1    0    0  501  502 -0.00000000000E+00 -0.00000000000E+00 -0.20297796060E+03  0.20297796060E+03  0.00000000000E+00 0. -1.
      99926    2    1    2    0    0  0.00000000000E+00  0.14210854715E-13  0.12877457254E+03  0.53473049375E+03  0.51899307357E+03 0.  0.
      99925    2    3    3    0    0 -0.10231266250E+03  0.97578291546E+02  0.16712274801E+03  0.34209743700E+03  0.26289016644E+03 0.  0.
         25    1    3    3    0    0  0.10231266250E+03 -0.97578291546E+02 -0.38348175473E+02  0.19263305674E+03  0.12509000000E+03 0.  0.
         25    1    4    4    0    0 -0.42390909659E+02  0.10850452153E+02  0.53449183823E+02  0.14289522345E+03  0.12509000000E+03 0.  0.
         25    1    4    4    0    0 -0.59921752839E+02  0.86727839393E+02  0.11367356419E+03  0.19920221355E+03  0.12509000000E+03 0.  0.
<mgrwt>
<rscale>  2 0.51899307E+03</rscale>
<asrwt>0</asrwt>
<pdfrwt beam="1">  1       21 0.48787137E-01 0.51899307E+03</pdfrwt>
<pdfrwt beam="2">  1       21 0.29849700E-01 0.51899307E+03</pdfrwt>
<totfact> 0.38990502E+04</totfact>
</mgrwt>
</event>
<event>
 7    0  0.4725730E-002  0.4093864E+03  0.7546771E-02  0.1040577E+00
         21   -1    0    0  502  501  0.00000000000E+00  0.00000000000E+00  0.47111861411E+02  0.47111861411E+02  0.00000000000E+00 0. -1.
         21   -1    0    0  501  502 -0.00000000000E+00 -0.00000000000E+00 -0.88935793574E+03  0.88935793574E+03  0.00000000000E+00 0. -1.
      99926    2    1    2    0    0  0.00000000000E+00 -0.35527136788E-14 -0.84224607433E+03  0.93646979716E+03  0.40938640824E+03 0.  0.
      99925    2    3    3    0    0 -0.99311859977E+01  0.12657807831E+02 -0.42026899263E+03  0.49604839198E+03  0.26301926254E+03 0.  0.
         25    1    3    3    0    0  0.99311859977E+01 -0.12657807831E+02 -0.42197708170E+03  0.44042140517E+03  0.12509000000E+03 0.  0.
         25    1    4    4    0    0  0.16463636549E+02  0.36501446654E+02 -0.24255005660E+03  0.27582865151E+03  0.12509000000E+03 0.  0.
         25    1    4    4    0    0 -0.26394822547E+02 -0.23843638823E+02 -0.17771893603E+03  0.22021974047E+03  0.12509000000E+03 0.  0.
<mgrwt>
<rscale>  2 0.40938641E+03</rscale>
<asrwt>0</asrwt>
<pdfrwt beam="1">  1       21 0.69282147E-02 0.40938641E+03</pdfrwt>
<pdfrwt beam="2">  1       21 0.13078794E+00 0.40938641E+03</pdfrwt>
<totfact> 0.60589646E+04</totfact>
</mgrwt>
</event>
<event>
 7    0  0.4725730E-002  0.4539377E+03  0.7546771E-02  0.1026554E+00
         21   -1    0    0  502  501  0.00000000000E+00  0.00000000000E+00  0.22858890382E+03  0.22858890382E+03  0.00000000000E+00 0.  1.
         21   -1    0    0  501  502 -0.00000000000E+00 -0.00000000000E+00 -0.22536025994E+03  0.22536025994E+03  0.00000000000E+00 0.  1.
      99926    2    1    2    0    0  0.71054273576E-14  0.14210854715E-13  0.32286438792E+01  0.45394916376E+03  0.45393768199E+03 0.  0.
      99925    2    3    3    0    0  0.52734649315E+02  0.87779915640E+02 -0.43895341769E+02  0.28556141197E+03  0.26293014690E+03 0.  0.
         25    1    3    3    0    0 -0.52734649315E+02 -0.87779915640E+02  0.47123985648E+02  0.16838775179E+03  0.12509000000E+03 0.  0.
         25    1    4    4    0    0  0.19592419484E+02  0.83211440694E+02 -0.36603707496E+02  0.15586964511E+03  0.12509000000E+03 0.  0.
         25    1    4    4    0    0  0.33142229832E+02  0.45684749460E+01 -0.72916342735E+01  0.12969176686E+03  0.12509000000E+03 0.  0.
<mgrwt>
<rscale>  2 0.45393768E+03</rscale>
<asrwt>0</asrwt>
<pdfrwt beam="1">  1       21 0.33616015E-01 0.45393768E+03</pdfrwt>
<pdfrwt beam="2">  1       21 0.33141214E-01 0.45393768E+03</pdfrwt>
<totfact> 0.69207601E+04</totfact>
</mgrwt>
</event>
<event>
 7    0  0.4725730E-002  0.4595053E+03  0.7546771E-02  0.1024925E+00
         21   -1    0    0  502  501  0.00000000000E+00  0.00000000000E+00  0.98774480543E+02  0.98774480543E+02  0.00000000000E+00 0.  1.
         21   -1    0    0  501  502 -0.00000000000E+00 -0.00000000000E+00 -0.53441203188E+03  0.53441203188E+03  0.00000000000E+00 0.  1.
      99926    2    1    2    0    0  0.00000000000E+00 -0.71054273576E-14 -0.43563755134E+03  0.63318651242E+03  0.45950525936E+03 0.  0.
      99925    2    3    3    0    0 -0.85595953675E+02 -0.46058485005E+02 -0.18215979902E+03  0.33427761268E+03  0.26289024066E+03 0.  0.
         25    1    4    4    0    0 -0.38577967129E+02 -0.32217166276E+02 -0.13784539337E+03  0.19280836580E+03  0.12509000000E+03 0.  0.
         25    1    3    3    0    0  0.85595953675E+02  0.46058485005E+02 -0.25347775232E+03  0.29890889974E+03  0.12509000000E+03 0.  0.
         25    1    4    4    0    0 -0.47017986546E+02 -0.13841318729E+02 -0.44314405649E+02  0.14146924687E+03  0.12509000000E+03 0.  0.
<mgrwt>
<rscale>  2 0.45950526E+03</rscale>
<asrwt>0</asrwt>
<pdfrwt beam="1">  1       21 0.14525659E-01 0.45950526E+03</pdfrwt>
<pdfrwt beam="2">  1       21 0.78590007E-01 0.45950526E+03</pdfrwt>
<totfact> 0.54708967E+04</totfact>
</mgrwt>
</event>
<event>
 7    0  0.4725730E-002  0.4961536E+03  0.7546771E-02  0.1014788E+00
         21   -1    0    0  502  501  0.00000000000E+00  0.00000000000E+00  0.15436452050E+03  0.15436452050E+03  0.00000000000E+00 0. -1.
         21   -1    0    0  501  502 -0.00000000000E+00 -0.00000000000E+00 -0.39868030646E+03  0.39868030646E+03  0.00000000000E+00 0. -1.
      99926    2    1    2    0    0  0.00000000000E+00 -0.35527136788E-14 -0.24431578596E+03  0.55304482696E+03  0.49615358243E+03 0.  0.
      99925    2    3    3    0    0 -0.13296794542E+03 -0.21667364136E+02 -0.79372182437E+02  0.30605525305E+03  0.26309679853E+03 0.  0.
         25    1    4    4    0    0 -0.11067136145E+03 -0.77904938926E+01 -0.54339360914E+02  0.17580988677E+03  0.12509000000E+03 0.  0.
         25    1    4    4    0    0 -0.22296583965E+02 -0.13876870244E+02 -0.25032821523E+02  0.13024536628E+03  0.12509000000E+03 0.  0.
         25    1    3    3    0    0  0.13296794542E+03  0.21667364136E+02 -0.16494360352E+03  0.24698957391E+03  0.12509000000E+03 0.  0.
<mgrwt>
<rscale>  2 0.49615358E+03</rscale>
<asrwt>0</asrwt>
<pdfrwt beam="1">  1       21 0.22700665E-01 0.49615358E+03</pdfrwt>
<pdfrwt beam="2">  1       21 0.58629456E-01 0.49615358E+03</pdfrwt>
<totfact> 0.45075464E+04</totfact>
</mgrwt>
</event>
<event>
 7    0  0.4725730E-002  0.4467120E+03  0.7546771E-02  0.1028707E+00
         21   -1    0    0  502  501  0.00000000000E+00  0.00000000000E+00  0.28344588063E+04  0.28344588063E+04  0.00000000000E+00 0.  1.
         21   -1    0    0  501  502 -0.00000000000E+00 -0.00000000000E+00 -0.17600501852E+02  0.17600501852E+02  0.00000000000E+00 0.  1.
      99926    2    1    2    0    0  0.00000000000E+00  0.71054273576E-14  0.28168583045E+04  0.28520593082E+04  0.44671197642E+03 0.  0.
      99925    2    3    3    0    0 -0.86154104245E+02  0.44342489967E+02  0.15259302732E+04  0.15514704123E+04  0.26307499962E+03 0.  0.
         25    1    3    3    0    0  0.86154104245E+02 -0.44342489967E+02  0.12909280312E+04  0.13005888959E+04  0.12509000000E+03 0.  0.
         25    1    4    4    0    0 -0.76656143410E+01  0.35527546416E+02  0.61951648262E+03  0.63306330531E+03  0.12509000000E+03 0.  0.
         25    1    4    4    0    0 -0.78488489904E+02  0.88149435518E+01  0.90641379060E+03  0.91840710699E+03  0.12509000000E+03 0.  0.
<mgrwt>
<rscale>  2 0.44671198E+03</rscale>
<asrwt>0</asrwt>
<pdfrwt beam="1">  1       21 0.41683186E+00 0.44671198E+03</pdfrwt>
<pdfrwt beam="2">  1       21 0.25883111E-02 0.44671198E+03</pdfrwt>
<totfact> 0.44380434E+03</totfact>
</mgrwt>
</event>
<event>
 7    0  0.4725730E-002  0.4493397E+03  0.7546771E-02  0.1027919E+00
         21   -1    0    0  502  501  0.00000000000E+00  0.00000000000E+00  0.98290633843E+02  0.98290633843E+02  0.00000000000E+00 0. -1.
         21   -1    0    0  501  502 -0.00000000000E+00 -0.00000000000E+00 -0.51354380947E+03  0.51354380947E+03  0.00000000000E+00 0. -1.
      99926    2    1    2    0    0  0.00000000000E+00  0.71054273576E-14 -0.41525317563E+03  0.61183444332E+03  0.44933972244E+03 0.  0.
      99925    2    3    3    0    0 -0.96762694820E+02 -0.40569165487E+02 -0.22856775777E+03  0.36382672239E+03  0.26290262025E+03 0.  0.
         25    1    3    3    0    0  0.96762694820E+02  0.40569165487E+02 -0.18668541787E+03  0.24800772093E+03  0.12509000000E+03 0.  0.
         25    1    4    4    0    0 -0.31492875073E+02  0.12546391069E+01 -0.67279313767E+02  0.14549016964E+03  0.12509000000E+03 0.  0.
         25    1    4    4    0    0 -0.65269819746E+02 -0.41823804594E+02 -0.16128844400E+03  0.21833655275E+03  0.12509000000E+03 0.  0.
<mgrwt>
<rscale>  2 0.44933972E+03</rscale>
<asrwt>0</asrwt>
<pdfrwt beam="1">  1       21 0.14454505E-01 0.44933972E+03</pdfrwt>
<pdfrwt beam="2">  1       21 0.75521148E-01 0.44933972E+03</pdfrwt>
<totfact> 0.60620682E+04</totfact>
</mgrwt>
</event>
<event>
 7    0  0.4725730E-002  0.4537819E+03  0.7546771E-02  0.1026600E+00
         21   -1    0    0  502  501  0.00000000000E+00  0.00000000000E+00  0.37761978420E+03  0.37761978420E+03  0.00000000000E+00 0. -1.
         21   -1    0    0  501  502 -0.00000000000E+00 -0.00000000000E+00 -0.13632628054E+03  0.13632628054E+03  0.00000000000E+00 0. -1.
      99926    2    1    2    0    0  0.00000000000E+00  0.00000000000E+00  0.24129350366E+03  0.51394606474E+03  0.45378188874E+03 0.  0.
      99925    2    3    3    0    0 -0.82462862650E+02  0.47816204398E+02  0.85316648803E+02  0.29244482214E+03  0.26298009490E+03 0.  0.
         25    1    4    4    0    0 -0.77476470349E+02  0.44179647324E+02  0.58317480269E+02  0.16432553454E+03  0.12509000000E+03 0.  0.
         25    1    3    3    0    0  0.82462862650E+02 -0.47816204398E+02  0.15597685486E+03  0.22150124260E+03  0.12509000000E+03 0.  0.
         25    1    4    4    0    0 -0.49863923009E+01  0.36365570739E+01  0.26999168534E+02  0.12811928761E+03  0.12509000000E+03 0.  0.
<mgrwt>
<rscale>  2 0.45378189E+03</rscale>
<asrwt>0</asrwt>
<pdfrwt beam="1">  1       21 0.55532321E-01 0.45378189E+03</pdfrwt>
<pdfrwt beam="2">  1       21 0.20047982E-01 0.45378189E+03</pdfrwt>
<totfact> 0.64926914E+04</totfact>
</mgrwt>
</event>
<event>
 7    0  0.4725730E-002  0.4553678E+03  0.7546771E-02  0.1026133E+00
         21   -1    0    0  502  501  0.00000000000E+00  0.00000000000E+00  0.49877187243E+02  0.49877187243E+02  0.00000000000E+00 0.  1.
         21   -1    0    0  501  502 -0.00000000000E+00 -0.00000000000E+00 -0.10393520871E+04  0.10393520871E+04  0.00000000000E+00 0.  1.
      99926    2    1    2    0    0  0.00000000000E+00  0.14432899320E-14 -0.98947489988E+03  0.10892292744E+04  0.45536780150E+03 0.  0.
      99925    2    3    3    0    0 -0.11339338323E+03 -0.51492800432E+00 -0.63682953845E+03  0.69825026783E+03  0.26295104292E+03 0.  0.
         25    1    3    3    0    0  0.11339338323E+03  0.51492800432E+00 -0.35264536143E+03  0.39097900653E+03  0.12509000000E+03 0.  0.
         25    1    4    4    0    0 -0.91084952949E+02  0.19571220083E+02 -0.38694305992E+03  0.41719532719E+03  0.12509000000E+03 0.  0.
         25    1    4    4    0    0 -0.22308430283E+02 -0.20086148088E+02 -0.24988647853E+03  0.28105494064E+03  0.12509000000E+03 0.  0.
<mgrwt>
<rscale>  2 0.45536780E+03</rscale>
<asrwt>0</asrwt>
<pdfrwt beam="1">  1       21 0.73348801E-02 0.45536780E+03</pdfrwt>
<pdfrwt beam="2">  1       21 0.15284590E+00 0.45536780E+03</pdfrwt>
<totfact> 0.35767229E+04</totfact>
</mgrwt>
</event>
<event>
 7    0  0.4725730E-002  0.4286415E+03  0.7546771E-02  0.1034290E+00
         21   -1    0    0  502  501  0.00000000000E+00  0.00000000000E+00  0.51654971968E+03  0.51654971968E+03  0.00000000000E+00 0.  1.
         21   -1    0    0  501  502 -0.00000000000E+00 -0.00000000000E+00 -0.88923458247E+02  0.88923458247E+02  0.00000000000E+00 0.  1.
      99926    2    1    2    0    0 -0.71054273576E-14  0.00000000000E+00  0.42762626143E+03  0.60547317793E+03  0.42864151656E+03 0.  0.
      99925    2    3    3    0    0 -0.46624100863E+02 -0.69909948266E+02  0.30315681510E+03  0.41002149894E+03  0.26296837720E+03 0.  0.
         25    1    4    4    0    0  0.35726162954E+00 -0.24620994819E+02  0.19168644457E+03  0.23021190706E+03  0.12509000000E+03 0.  0.
         25    1    3    3    0    0  0.46624100863E+02  0.69909948266E+02  0.12446944634E+03  0.19545167899E+03  0.12509000000E+03 0.  0.
         25    1    4    4    0    0 -0.46981362493E+02 -0.45288953447E+02  0.11147037053E+03  0.17980959188E+03  0.12509000000E+03 0.  0.
<mgrwt>
<rscale>  2 0.42864152E+03</rscale>
<asrwt>0</asrwt>
<pdfrwt beam="1">  1       21 0.75963193E-01 0.42864152E+03</pdfrwt>
<pdfrwt beam="2">  1       21 0.13076979E-01 0.42864152E+03</pdfrwt>
<totfact> 0.72250827E+04</totfact>
</mgrwt>
</event>
<event>
 7    0  0.4725730E-002  0.4537653E+03  0.7546771E-02  0.1026605E+00
         21   -1    0    0  502  501  0.00000000000E+00  0.00000000000E+00  0.88791804630E+03  0.88791804630E+03  0.00000000000E+00 0. -1.
         21   -1    0    0  501  502 -0.00000000000E+00 -0.00000000000E+00 -0.57973522302E+02  0.57973522302E+02  0.00000000000E+00 0. -1.
      99926    2    1    2    0    0 -0.17763568394E-14 -0.71054273576E-14  0.82994452399E+03  0.94589156860E+03  0.45376529907E+03 0.  0.
      99925    2    3    3    0    0  0.13381143792E+02 -0.48640453156E+02  0.73136160348E+03  0.77882556664E+03  0.26293443958E+03 0.  0.
         25    1    3    3    0    0 -0.13381143792E+02  0.48640453156E+02  0.98582920509E+02  0.16706600195E+03  0.12509000000E+03 0.  0.
         25    1    4    4    0    0  0.35188842653E+02 -0.43282280286E+01  0.41991342457E+03  0.43958136953E+03  0.12509000000E+03 0.  0.
         25    1    4    4    0    0 -0.21807698861E+02 -0.44312225128E+02  0.31144817891E+03  0.33924419711E+03  0.12509000000E+03 0.  0.
<mgrwt>
<rscale>  2 0.45376530E+03</rscale>
<asrwt>0</asrwt>
<pdfrwt beam="1">  1       21 0.13057618E+00 0.45376530E+03</pdfrwt>
<pdfrwt beam="2">  1       21 0.85255185E-02 0.45376530E+03</pdfrwt>
<totfact> 0.41708880E+04</totfact>
</mgrwt>
</event>
<event>
 7    0  0.4725730E-002  0.4446035E+03  0.7546771E-02  0.1029344E+00
         21   -1    0    0  502  501  0.00000000000E+00  0.00000000000E+00  0.26475455790E+03  0.26475455790E+03  0.00000000000E+00 0.  1.
         21   -1    0    0  501  502 -0.00000000000E+00 -0.00000000000E+00 -0.18665615771E+03  0.18665615771E+03  0.00000000000E+00 0.  1.
      99926    2    1    2    0    0  0.00000000000E+00  0.00000000000E+00  0.78098400191E+02  0.45141071561E+03  0.44460350207E+03 0.  0.
      99925    2    3    3    0    0  0.74910543629E+02 -0.52114562665E+02  0.98003063030E+02  0.29529786895E+03  0.26318950180E+03 0.  0.
         25    1    4    4    0    0  0.34612356851E+02 -0.27128191030E+02  0.92004006749E+02  0.16138834950E+03  0.12509000000E+03 0.  0.
         25    1    3    3    0    0 -0.74910543629E+02  0.52114562665E+02 -0.19904662839E+02  0.15611284666E+03  0.12509000000E+03 0.  0.
         25    1    4    4    0    0  0.40298186778E+02 -0.24986371635E+02  0.59990562808E+01  0.13390951946E+03  0.12509000000E+03 0.  0.
<mgrwt>
<rscale>  2 0.44460350E+03</rscale>
<asrwt>0</asrwt>
<pdfrwt beam="1">  1       21 0.38934494E-01 0.44460350E+03</pdfrwt>
<pdfrwt beam="2">  1       21 0.27449435E-01 0.44460350E+03</pdfrwt>
<totfact> 0.74824507E+04</totfact>
</mgrwt>
</event>
<event>
 7    0  0.4725730E-002  0.3974637E+03  0.7546771E-02  0.1044661E+00
         21   -1    0    0  502  501  0.00000000000E+00  0.00000000000E+00  0.42547703008E+03  0.42547703008E+03  0.00000000000E+00 0.  1.
         21   -1    0    0  501  502 -0.00000000000E+00 -0.00000000000E+00 -0.92823710661E+02  0.92823710661E+02  0.00000000000E+00 0.  1.
      99926    2    1    2    0    0  0.00000000000E+00  0.35527136788E-14  0.33265331941E+03  0.51830074074E+03  0.39746374291E+03 0.  0.
      99925    2    3    3    0    0  0.18869587902E+02  0.26697202655E+02  0.25411259188E+03  0.36702299631E+03  0.26280005421E+03 0.  0.
         25    1    4    4    0    0  0.43598649519E+02 -0.53665740703E+01  0.11363069295E+03  0.17461123915E+03  0.12509000000E+03 0.  0.
         25    1    3    3    0    0 -0.18869587902E+02 -0.26697202655E+02  0.78540727535E+02  0.15127774443E+03  0.12509000000E+03 0.  0.
         25    1    4    4    0    0 -0.24729061617E+02  0.32063776725E+02  0.14048189893E+03  0.19241175716E+03  0.12509000000E+03 0.  0.
<mgrwt>
<rscale>  2 0.39746374E+03</rscale>
<asrwt>0</asrwt>
<pdfrwt beam="1">  1       21 0.62570151E-01 0.39746374E+03</pdfrwt>
<pdfrwt beam="2">  1       21 0.13650546E-01 0.39746374E+03</pdfrwt>
<totfact> 0.10383385E+05</totfact>
</mgrwt>
</event>
<event>
 7    0  0.4725730E-002  0.4422183E+03  0.7546771E-02  0.1030068E+00
         21   -1    0    0  502  501  0.00000000000E+00  0.00000000000E+00  0.33041237537E+03  0.33041237537E+03  0.00000000000E+00 0. -1.
         21   -1    0    0  501  502 -0.00000000000E+00 -0.00000000000E+00 -0.14796439060E+03  0.14796439060E+03  0.00000000000E+00 0. -1.
      99926    2    1    2    0    0  0.13322676296E-14 -0.14210854715E-13  0.18244798478E+03  0.47837676597E+03  0.44221834321E+03 0.  0.
      99925    2    3    3    0    0 -0.26661387835E+01  0.68965951101E+02  0.36787899015E+02  0.27434789695E+03  0.26296389171E+03 0.  0.
         25    1    4    4    0    0  0.38721080966E+02  0.29170662069E+02  0.21423254484E+02  0.13585548781E+03  0.12509000000E+03 0.  0.
         25    1    4    4    0    0 -0.41387219749E+02  0.39795289032E+02  0.15364644531E+02  0.13849240914E+03  0.12509000000E+03 0.  0.
         25    1    3    3    0    0  0.26661387835E+01 -0.68965951101E+02  0.14566008576E+03  0.20402886901E+03  0.12509000000E+03 0.  0.
<mgrwt>
<rscale>  2 0.44221834E+03</rscale>
<asrwt>0</asrwt>
<pdfrwt beam="1">  1       21 0.48590055E-01 0.44221834E+03</pdfrwt>
<pdfrwt beam="2">  1       21 0.21759469E-01 0.44221834E+03</pdfrwt>
<totfact> 0.74051664E+04</totfact>
</mgrwt>
</event>
<event>
 7    0  0.4725730E-002  0.4582727E+03  0.7546771E-02  0.1025283E+00
         21   -1    0    0  502  501  0.00000000000E+00  0.00000000000E+00  0.21823586739E+03  0.21823586739E+03  0.00000000000E+00 0.  1.
         21   -1    0    0  501  502 -0.00000000000E+00 -0.00000000000E+00 -0.24058125123E+03  0.24058125123E+03  0.00000000000E+00 0.  1.
      99926    2    1    2    0    0 -0.14210854715E-13  0.00000000000E+00 -0.22345383836E+02  0.45881711862E+03  0.45827266137E+03 0.  0.
      99925    2    3    3    0    0  0.10990951783E+03 -0.29830631874E+02 -0.37785937934E+02  0.28894691076E+03  0.26285465836E+03 0.  0.
         25    1    4    4    0    0  0.39316865865E+02 -0.51169394795E+02 -0.27139373364E+02  0.14334635186E+03  0.12509000000E+03 0.  0.
         25    1    3    3    0    0 -0.10990951783E+03  0.29830631874E+02  0.15440554099E+02  0.16987020786E+03  0.12509000000E+03 0.  0.
         25    1    4    4    0    0  0.70592651963E+02  0.21338762921E+02 -0.10646564571E+02  0.14560055890E+03  0.12509000000E+03 0.  0.
<mgrwt>
<rscale>  2 0.45827266E+03</rscale>
<asrwt>0</asrwt>
<pdfrwt beam="1">  1       21 0.32093510E-01 0.45827266E+03</pdfrwt>
<pdfrwt beam="2">  1       21 0.35379596E-01 0.45827266E+03</pdfrwt>
<totfact> 0.66513237E+04</totfact>
</mgrwt>
</event>
<event>
 7    0  0.4725730E-002  0.4779330E+03  0.7546771E-02  0.1019705E+00
         21   -1    0    0  502  501  0.00000000000E+00  0.00000000000E+00  0.49116544569E+02  0.49116544569E+02  0.00000000000E+00 0. -1.
         21   -1    0    0  501  502 -0.00000000000E+00 -0.00000000000E+00 -0.11626426745E+04  0.11626426745E+04  0.00000000000E+00 0. -1.
      99926    2    1    2    0    0 -0.14210854715E-13  0.14210854715E-13 -0.11135261299E+04  0.12117592190E+04  0.47793301095E+03 0.  0.
      99925    2    3    3    0    0 -0.73929327562E+02 -0.10704098464E+03 -0.61025107504E+03  0.67710362259E+03  0.26294414477E+03 0.  0.
         25    1    3    3    0    0  0.73929327562E+02  0.10704098464E+03 -0.50327505487E+03  0.53465559645E+03  0.12509000000E+03 0.  0.
         25    1    4    4    0    0 -0.75619899865E+02 -0.53811374440E+02 -0.36137057324E+03  0.39351014292E+03  0.12509000000E+03 0.  0.
         25    1    4    4    0    0  0.16905723028E+01 -0.53229610204E+02 -0.24888050180E+03  0.28359347967E+03  0.12509000000E+03 0.  0.
<mgrwt>
<rscale>  2 0.47793301E+03</rscale>
<asrwt>0</asrwt>
<pdfrwt beam="1">  1       21 0.72230222E-02 0.47793301E+03</pdfrwt>
<pdfrwt beam="2">  1       21 0.17097684E+00 0.47793301E+03</pdfrwt>
<totfact> 0.26689496E+04</totfact>
</mgrwt>
</event>
<event>
 7    0  0.4725730E-002  0.4529104E+03  0.7546771E-02  0.1026858E+00
         21   -1    0    0  502  501  0.00000000000E+00  0.00000000000E+00  0.80301363429E+03  0.80301363429E+03  0.00000000000E+00 0. -1.
         21   -1    0    0  501  502 -0.00000000000E+00 -0.00000000000E+00 -0.63861887864E+02  0.63861887864E+02  0.00000000000E+00 0. -1.
      99926    2    1    2    0    0  0.00000000000E+00 -0.71054273576E-14  0.73915174643E+03  0.86687552216E+03  0.45291044000E+03 0.  0.
      99925    2    3    3    0    0  0.62112908689E+02  0.45827833315E+02  0.31302624298E+03  0.41611099768E+03  0.26306791874E+03 0.  0.
         25    1    3    3    0    0 -0.62112908689E+02 -0.45827833315E+02  0.42612550345E+03  0.45076452447E+03  0.12509000000E+03 0.  0.
         25    1    4    4    0    0  0.24807890843E+02  0.49011011611E+02  0.11328769044E+03  0.17747991326E+03  0.12509000000E+03 0.  0.
         25    1    4    4    0    0  0.37305017846E+02 -0.31831782958E+01  0.19973855254E+03  0.23863108442E+03  0.12509000000E+03 0.  0.
<mgrwt>
<rscale>  2 0.45291044E+03</rscale>
<asrwt>0</asrwt>
<pdfrwt beam="1">  1       21 0.11809023E+00 0.45291044E+03</pdfrwt>
<pdfrwt beam="2">  1       21 0.93914546E-02 0.45291044E+03</pdfrwt>
<totfact> 0.45433531E+04</totfact>
</mgrwt>
</event>
<event>
 7    0  0.4725730E-002  0.4232210E+03  0.7546771E-02  0.1036023E+00
         21   -1    0    0  502  501  0.00000000000E+00  0.00000000000E+00  0.86178137962E+03  0.86178137962E+03  0.00000000000E+00 0. -1.
         21   -1    0    0  501  502 -0.00000000000E+00 -0.00000000000E+00 -0.51960976367E+02  0.51960976367E+02  0.00000000000E+00 0. -1.
      99926    2    1    2    0    0  0.00000000000E+00  0.00000000000E+00  0.80982040325E+03  0.91374235598E+03  0.42322099144E+03 0.  0.
      99925    2    3    3    0    0  0.45751419735E+02  0.26020035384E+02  0.65515652765E+03  0.70797876065E+03  0.26312281383E+03 0.  0.
         25    1    4    4    0    0  0.24849572707E+02  0.34608551515E+02  0.42477398797E+03  0.44485469769E+03  0.12509000000E+03 0.  0.
         25    1    3    3    0    0 -0.45751419735E+02 -0.26020035384E+02  0.15466387560E+03  0.20576359533E+03  0.12509000000E+03 0.  0.
         25    1    4    4    0    0  0.20901847028E+02 -0.85885161310E+01  0.23038253968E+03  0.26312406296E+03  0.12509000000E+03 0.  0.
<mgrwt>
<rscale>  2 0.42322099E+03</rscale>
<asrwt>0</asrwt>
<pdfrwt beam="1">  1       21 0.12673255E+00 0.42322099E+03</pdfrwt>
<pdfrwt beam="2">  1       21 0.76413206E-02 0.42322099E+03</pdfrwt>
<totfact> 0.55125827E+04</totfact>
</mgrwt>
</event>
<event>
 7    0  0.4725730E-002  0.4587608E+03  0.7546771E-02  0.1025141E+00
         21   -1    0    0  502  501  0.00000000000E+00  0.00000000000E+00  0.31886574689E+03  0.31886574689E+03  0.00000000000E+00 0.  1.
         21   -1    0    0  501  502 -0.00000000000E+00 -0.00000000000E+00 -0.16500789884E+03  0.16500789884E+03  0.00000000000E+00 0.  1.
      99926    2    1    2    0    0  0.00000000000E+00  0.00000000000E+00  0.15385784805E+03  0.48387364573E+03  0.45876079565E+03 0.  0.
      99925    2    3    3    0    0  0.36135052722E+02  0.79979368529E+02  0.15768067270E+02  0.27791555028E+03  0.26322230095E+03 0.  0.
         25    1    4    4    0    0 -0.15732859622E+02  0.29103435533E+02  0.29166762687E+02  0.13263763032E+03  0.12509000000E+03 0.  0.
         25    1    3    3    0    0 -0.36135052722E+02 -0.79979368529E+02  0.13808978078E+03  0.20595809545E+03  0.12509000000E+03 0.  0.
         25    1    4    4    0    0  0.51867912344E+02  0.50875932996E+02 -0.13398695418E+02  0.14527791996E+03  0.12509000000E+03 0.  0.
<mgrwt>
<rscale>  2 0.45876080E+03</rscale>
<asrwt>0</asrwt>
<pdfrwt beam="1">  1       21 0.46892022E-01 0.45876080E+03</pdfrwt>
<pdfrwt beam="2">  1       21 0.24265867E-01 0.45876080E+03</pdfrwt>
<totfact> 0.64472910E+04</totfact>
</mgrwt>
</event>
<event>
 7    0  0.4725730E-002  0.4529122E+03  0.7546771E-02  0.1026857E+00
         21   -1    0    0  502  501  0.00000000000E+00  0.00000000000E+00  0.52852685838E+03  0.52852685838E+03  0.00000000000E+00 0. -1.
         21   -1    0    0  501  502 -0.00000000000E+00 -0.00000000000E+00 -0.97028893500E+02  0.97028893500E+02  0.00000000000E+00 0. -1.
      99926    2    1    2    0    0  0.00000000000E+00 -0.35527136788E-14  0.43149796488E+03  0.62555575188E+03  0.45291224869E+03 0.  0.
      99925    2    3    3    0    0 -0.10457887023E+03  0.28922995108E+02  0.30618324268E+03  0.41789119678E+03  0.26289084143E+03 0.  0.
         25    1    4    4    0    0 -0.63119787336E+02 -0.21213685009E+02  0.13068612230E+03  0.19277058553E+03  0.12509000000E+03 0.  0.
         25    1    3    3    0    0  0.10457887023E+03 -0.28922995108E+02  0.12531472220E+03  0.20766455510E+03  0.12509000000E+03 0.  0.
         25    1    4    4    0    0 -0.41459082891E+02  0.50136680117E+02  0.17549712038E+03  0.22512061125E+03  0.12509000000E+03 0.  0.
<mgrwt>
<rscale>  2 0.45291225E+03</rscale>
<asrwt>0</asrwt>
<pdfrwt beam="1">  1       21 0.77724537E-01 0.45291225E+03</pdfrwt>
<pdfrwt beam="2">  1       21 0.14268955E-01 0.45291225E+03</pdfrwt>
<totfact> 0.58083668E+04</totfact>
</mgrwt>
</event>
<event>
 7    0  0.4725730E-002  0.4533754E+03  0.7546771E-02  0.1026720E+00
         21   -1    0    0  502  501  0.00000000000E+00  0.00000000000E+00  0.34951955538E+03  0.34951955538E+03  0.00000000000E+00 0.  1.
         21   -1    0    0  501  502 -0.00000000000E+00 -0.00000000000E+00 -0.14702270280E+03  0.14702270280E+03  0.00000000000E+00 0.  1.
      99926    2    1    2    0    0  0.88817841970E-15  0.00000000000E+00  0.20249685258E+03  0.49654225818E+03  0.45337538404E+03 0.  0.
      99925    2    3    3    0    0  0.56530967287E+01  0.77387318778E+02  0.21544431478E+03  0.34877250658E+03  0.26306891486E+03 0.  0.
         25    1    4    4    0    0  0.29860076254E+02  0.30275521081E+02  0.14348625431E+03  0.19504882621E+03  0.12509000000E+03 0.  0.
         25    1    4    4    0    0 -0.24206979525E+02  0.47111797697E+02  0.71958060468E+02  0.15372368037E+03  0.12509000000E+03 0.  0.
         25    1    3    3    0    0 -0.56530967287E+01 -0.77387318778E+02 -0.12947462200E+02  0.14776975160E+03  0.12509000000E+03 0.  0.
<mgrwt>
<rscale>  2 0.45337538E+03</rscale>
<asrwt>0</asrwt>
<pdfrwt beam="1">  1       21 0.51399935E-01 0.45337538E+03</pdfrwt>
<pdfrwt beam="2">  1       21 0.21620986E-01 0.45337538E+03</pdfrwt>
<totfact> 0.66366049E+04</totfact>
</mgrwt>
</event>
<event>
 7    0  0.4725730E-002  0.4546456E+03  0.7546771E-02  0.1026346E+00
         21   -1    0    0  502  501  0.00000000000E+00  0.00000000000E+00  0.10397289940E+03  0.10397289940E+03  0.00000000000E+00 0.  1.
         21   -1    0    0  501  502 -0.00000000000E+00 -0.00000000000E+00 -0.49701086954E+03  0.49701086954E+03  0.00000000000E+00 0.  1.
      99926    2    1    2    0    0  0.00000000000E+00  0.00000000000E+00 -0.39303797013E+03  0.60098376894E+03  0.45464562525E+03 0.  0.
      99925    2    3    3    0    0 -0.83873640239E+02  0.36310915891E+02 -0.33527432164E+03  0.43564346131E+03  0.26272244764E+03 0.  0.
         25    1    4    4    0    0 -0.60451487788E+02  0.47519630620E+02 -0.14425211320E+03  0.20583653206E+03  0.12509000000E+03 0.  0.
         25    1    3    3    0    0  0.83873640239E+02 -0.36310915891E+02 -0.57763648492E+02  0.16534030763E+03  0.12509000000E+03 0.  0.
         25    1    4    4    0    0 -0.23422152450E+02 -0.11208714729E+02 -0.19102220845E+03  0.22980692925E+03  0.12509000000E+03 0.  0.
<mgrwt>
<rscale>  2 0.45464563E+03</rscale>
<asrwt>0</asrwt>
<pdfrwt beam="1">  1       21 0.15290132E-01 0.45464563E+03</pdfrwt>
<pdfrwt beam="2">  1       21 0.73089835E-01 0.45464563E+03</pdfrwt>
<totfact> 0.58782167E+04</totfact>
</mgrwt>
</event>
<event>
 7    0  0.4725730E-002  0.4564388E+03  0.7546771E-02  0.1025819E+00
         21   -1    0    0  502  501  0.00000000000E+00  0.00000000000E+00  0.28387752034E+03  0.28387752034E+03  0.00000000000E+00 0.  1.
         21   -1    0    0  501  502 -0.00000000000E+00 -0.00000000000E+00 -0.18347385501E+03  0.18347385501E+03  0.00000000000E+00 0.  1.
      99926    2    1    2    0    0  0.14210854715E-13  0.00000000000E+00  0.10040366533E+03  0.46735137535E+03  0.45643883712E+03 0.  0.
      99925    2    3    3    0    0  0.10908219099E+03 -0.92506168437E+01  0.28722508059E+02  0.28632597737E+03  0.26300776518E+03 0.  0.
         25    1    4    4    0    0  0.13132268272E+02 -0.64325447480E+01 -0.61615157110E+00  0.12594332791E+03  0.12509000000E+03 0.  0.
         25    1    4    4    0    0  0.95949922722E+02 -0.28180720957E+01  0.29338659630E+02  0.16038264947E+03  0.12509000000E+03 0.  0.
         25    1    3    3    0    0 -0.10908219099E+03  0.92506168437E+01  0.71681157273E+02  0.18102539798E+03  0.12509000000E+03 0.  0.
<mgrwt>
<rscale>  2 0.45643884E+03</rscale>
<asrwt>0</asrwt>
<pdfrwt beam="1">  1       21 0.41746694E-01 0.45643884E+03</pdfrwt>
<pdfrwt beam="2">  1       21 0.26981449E-01 0.45643884E+03</pdfrwt>
<totfact> 0.66867237E+04</totfact>
</mgrwt>
</event>
<event>
 7    0  0.4725730E-002  0.4552681E+03  0.7546771E-02  0.1026163E+00
         21   -1    0    0  502  501  0.00000000000E+00  0.00000000000E+00  0.15153106007E+03  0.15153106007E+03  0.00000000000E+00 0. -1.
         21   -1    0    0  501  502 -0.00000000000E+00 -0.00000000000E+00 -0.34195803219E+03  0.34195803219E+03  0.00000000000E+00 0. -1.
      99926    2    1    2    0    0 -0.71054273576E-14  0.14210854715E-13 -0.19042697212E+03  0.49348909227E+03  0.45526811054E+03 0.  0.
      99925    2    3    3    0    0  0.61454109562E+02 -0.73206131595E+02 -0.18587199439E+03  0.33599623145E+03  0.26307665036E+03 0.  0.
         25    1    4    4    0    0  0.48329040503E+02 -0.26723259431E+01 -0.10736533650E+03  0.17180704602E+03  0.12509000000E+03 0.  0.
         25    1    4    4    0    0  0.13125069060E+02 -0.70533805652E+02 -0.78506657900E+02  0.16418918543E+03  0.12509000000E+03 0.  0.
         25    1    3    3    0    0 -0.61454109562E+02  0.73206131595E+02 -0.45549777296E+01  0.15749286081E+03  0.12509000000E+03 0.  0.
<mgrwt>
<rscale>  2 0.45526811E+03</rscale>
<asrwt>0</asrwt>
<pdfrwt beam="1">  1       21 0.22283979E-01 0.45526811E+03</pdfrwt>
<pdfrwt beam="2">  1       21 0.50287946E-01 0.45526811E+03</pdfrwt>
<totfact> 0.65590813E+04</totfact>
</mgrwt>
</event>
<event>
 7    0  0.4725730E-002  0.4554574E+03  0.7546771E-02  0.1026107E+00
         21   -1    0    0  502  501  0.00000000000E+00  0.00000000000E+00  0.59884798288E+03  0.59884798288E+03  0.00000000000E+00 0.  1.
         21   -1    0    0  501  502 -0.00000000000E+00 -0.00000000000E+00 -0.86600210684E+02  0.86600210684E+02  0.00000000000E+00 0.  1.
      99926    2    1    2    0    0  0.00000000000E+00  0.00000000000E+00  0.51224777220E+03  0.68544819357E+03  0.45545740299E+03 0.  0.
      99925    2    3    3    0    0 -0.80773282501E+02  0.79645278095E+02  0.31396455714E+03  0.42500350661E+03  0.26303335151E+03 0.  0.
         25    1    4    4    0    0 -0.74927712536E+02  0.30744271852E+02  0.19550290735E+03  0.24582161671E+03  0.12509000000E+03 0.  0.
         25    1    3    3    0    0  0.80773282501E+02 -0.79645278095E+02  0.19828321506E+03  0.26044468696E+03  0.12509000000E+03 0.  0.
         25    1    4    4    0    0 -0.58455699647E+01  0.48901006242E+02  0.11846164979E+03  0.17918188991E+03  0.12509000000E+03 0.  0.
<mgrwt>
<rscale>  2 0.45545740E+03</rscale>
<asrwt>0</asrwt>
<pdfrwt beam="1">  1       21 0.88065877E-01 0.45545740E+03</pdfrwt>
<pdfrwt beam="2">  1       21 0.12735325E-01 0.45545740E+03</pdfrwt>
<totfact> 0.53507440E+04</totfact>
</mgrwt>
</event>
<event>
 7    0  0.4725730E-002  0.4401746E+03  0.7546771E-02  0.1030693E+00
         21   -1    0    0  502  501  0.00000000000E+00  0.00000000000E+00  0.66453615692E+02  0.66453615692E+02  0.00000000000E+00 0. -1.
         21   -1    0    0  501  502 -0.00000000000E+00 -0.00000000000E+00 -0.72890561804E+03  0.72890561804E+03  0.00000000000E+00 0. -1.
      99926    2    1    2    0    0  0.00000000000E+00  0.00000000000E+00 -0.66245200234E+03  0.79535923373E+03  0.44017457363E+03 0.  0.
      99925    2    3    3    0    0  0.75050694776E+02  0.26610576006E+02 -0.52772062096E+03  0.59500758594E+03  0.26306699526E+03 0.  0.
         25    1    4    4    0    0  0.41934996752E+02  0.53188735981E+02 -0.25559366819E+03  0.29251190900E+03  0.12509000000E+03 0.  0.
         25    1    4    4    0    0  0.33115698024E+02 -0.26578159975E+02 -0.27212695277E+03  0.30249567694E+03  0.12509000000E+03 0.  0.
         25    1    3    3    0    0 -0.75050694776E+02 -0.26610576006E+02 -0.13473138138E+03  0.20035164779E+03  0.12509000000E+03 0.  0.
<mgrwt>
<rscale>  2 0.44017457E+03</rscale>
<asrwt>0</asrwt>
<pdfrwt beam="1">  1       21 0.97725901E-02 0.44017457E+03</pdfrwt>
<pdfrwt beam="2">  1       21 0.10719201E+00 0.44017457E+03</pdfrwt>
<totfact> 0.54004896E+04</totfact>
</mgrwt>
</event>
<event>
 7    0  0.4725730E-002  0.4601589E+03  0.7546771E-02  0.1024735E+00
         21   -1    0    0  502  501  0.00000000000E+00  0.00000000000E+00  0.16083177689E+04  0.16083177689E+04  0.00000000000E+00 0. -1.
         21   -1    0    0  501  502 -0.00000000000E+00 -0.00000000000E+00 -0.32914233438E+02  0.32914233438E+02  0.00000000000E+00 0. -1.
      99926    2    1    2    0    0  0.44408920985E-15  0.00000000000E+00  0.15754035354E+04  0.16412320023E+04  0.46015887033E+03 0.  0.
      99925    2    3    3    0    0  0.18012180508E+01  0.10460505350E+03  0.79337953359E+03  0.84238626678E+03  0.26309328487E+03 0.  0.
         25    1    3    3    0    0 -0.18012180508E+01 -0.10460505350E+03  0.78202400185E+03  0.79884573553E+03  0.12509000000E+03 0.  0.
         25    1    4    4    0    0  0.24154315961E+02  0.40975177831E+02  0.29109139958E+03  0.32038119044E+03  0.12509000000E+03 0.  0.
         25    1    4    4    0    0 -0.22353097911E+02  0.63629875671E+02  0.50228813400E+03  0.52200507634E+03  0.12509000000E+03 0.  0.
<mgrwt>
<rscale>  2 0.46015887E+03</rscale>
<asrwt>0</asrwt>
<pdfrwt beam="1">  1       21 0.23651727E+00 0.46015887E+03</pdfrwt>
<pdfrwt beam="2">  1       21 0.48403295E-02 0.46015887E+03</pdfrwt>
<totfact> 0.19712382E+04</totfact>
</mgrwt>
</event>
<event>
 7    0  0.4725730E-002  0.4557126E+03  0.7546771E-02  0.1026032E+00
         21   -1    0    0  502  501  0.00000000000E+00  0.00000000000E+00  0.40054412111E+02  0.40054412111E+02  0.00000000000E+00 0. -1.
         21   -1    0    0  501  502 -0.00000000000E+00 -0.00000000000E+00 -0.12961992209E+04  0.12961992209E+04  0.00000000000E+00 0. -1.
      99926    2    1    2    0    0  0.00000000000E+00  0.00000000000E+00 -0.12561448088E+04  0.13362536330E+04  0.45571261897E+03 0.  0.
      99925    2    3    3    0    0  0.97723683439E+02 -0.54302708203E+02 -0.85277480218E+03  0.89938572076E+03  0.26300400957E+03 0.  0.
         25    1    4    4    0    0  0.74914349967E+02 -0.25636739202E+02 -0.35069081499E+03  0.38065858462E+03  0.12509000000E+03 0.  0.
         25    1    3    3    0    0 -0.97723683439E+02  0.54302708203E+02 -0.40337000660E+03  0.43686791224E+03  0.12509000000E+03 0.  0.
         25    1    4    4    0    0  0.22809333472E+02 -0.28665969002E+02 -0.50208398720E+03  0.51872713614E+03  0.12509000000E+03 0.  0.
<mgrwt>
<rscale>  2 0.45571262E+03</rscale>
<asrwt>0</asrwt>
<pdfrwt beam="1">  1       21 0.58903563E-02 0.45571262E+03</pdfrwt>
<pdfrwt beam="2">  1       21 0.19061748E+00 0.45571262E+03</pdfrwt>
<totfact> 0.27924742E+04</totfact>
</mgrwt>
</event>
<event>
 7    0  0.4725730E-002  0.4435737E+03  0.7546771E-02  0.1029656E+00
         21   -1    0    0  502  501  0.00000000000E+00  0.00000000000E+00  0.37934548362E+03  0.37934548362E+03  0.00000000000E+00 0. -1.
         21   -1    0    0  501  502 -0.00000000000E+00 -0.00000000000E+00 -0.12966912521E+03  0.12966912521E+03  0.00000000000E+00 0. -1.
      99926    2    1    2    0    0 -0.71054273576E-14  0.00000000000E+00  0.24967635842E+03  0.50901460883E+03  0.44357365572E+03 0.  0.
      99925    2    3    3    0    0 -0.56970896757E+02 -0.30772919820E+02  0.68249622146E+02  0.27932824788E+03  0.26300875170E+03 0.  0.
         25    1    3    3    0    0  0.56970896757E+02  0.30772919820E+02  0.18142673627E+03  0.22968636095E+03  0.12509000000E+03 0.  0.
         25    1    4    4    0    0 -0.63650123020E+01  0.19702154181E+02  0.31994254645E+02  0.13076631329E+03  0.12509000000E+03 0.  0.
         25    1    4    4    0    0 -0.50605884455E+02 -0.50475074002E+02  0.36255367500E+02  0.14856193459E+03  0.12509000000E+03 0.  0.
<mgrwt>
<rscale>  2 0.44357366E+03</rscale>
<asrwt>0</asrwt>
<pdfrwt beam="1">  1       21 0.55786100E-01 0.44357366E+03</pdfrwt>
<pdfrwt beam="2">  1       21 0.19068989E-01 0.44357366E+03</pdfrwt>
<totfact> 0.70851067E+04</totfact>
</mgrwt>
</event>
<event>
 7    0  0.4725730E-002  0.4542290E+03  0.7546771E-02  0.1026468E+00
         21   -1    0    0  502  501  0.00000000000E+00  0.00000000000E+00  0.25321228426E+04  0.25321228426E+04  0.00000000000E+00 0.  1.
         21   -1    0    0  501  502 -0.00000000000E+00 -0.00000000000E+00 -0.20370650704E+02  0.20370650704E+02  0.00000000000E+00 0.  1.
      99926    2    1    2    0    0  0.00000000000E+00  0.14210854715E-13  0.25117521919E+04  0.25524934933E+04  0.45422897295E+03 0.  0.
      99925    2    3    3    0    0 -0.87933121411E+02 -0.68162135559E+02  0.14906814568E+04  0.15177900263E+04  0.26301529912E+03 0.  0.
         25    1    3    3    0    0  0.87933121411E+02  0.68162135559E+02  0.10210707350E+04  0.10347034670E+04  0.12509000000E+03 0.  0.
         25    1    4    4    0    0 -0.71882228958E+02 -0.50701410491E+02  0.95637435684E+03  0.96852315738E+03  0.12509000000E+03 0.  0.
         25    1    4    4    0    0 -0.16050892454E+02 -0.17460725068E+02  0.53430710000E+03  0.54926686891E+03  0.12509000000E+03 0.  0.
<mgrwt>
<rscale>  2 0.45422897E+03</rscale>
<asrwt>0</asrwt>
<pdfrwt beam="1">  1       21 0.37237079E+00 0.45422897E+03</pdfrwt>
<pdfrwt beam="2">  1       21 0.29956857E-02 0.45422897E+03</pdfrwt>
<totfact> 0.66493166E+03</totfact>
</mgrwt>
</event>
<event>
 7    0  0.4725730E-002  0.4458386E+03  0.7546771E-02  0.1028970E+00
         21   -1    0    0  502  501  0.00000000000E+00  0.00000000000E+00  0.17512857351E+03  0.17512857351E+03  0.00000000000E+00 0.  1.
         21   -1    0    0  501  502 -0.00000000000E+00 -0.00000000000E+00 -0.28375156864E+03  0.28375156864E+03  0.00000000000E+00 0.  1.
      99926    2    1    2    0    0  0.14210854715E-13  0.00000000000E+00 -0.10862299512E+03  0.45888014215E+03  0.44583856920E+03 0.  0.
      99925    2    3    3    0    0 -0.99632530724E+02  0.80162278907E+01 -0.38310037085E+02  0.28400212393E+03  0.26305635587E+03 0.  0.
         25    1    4    4    0    0 -0.83014762260E+02  0.15065785740E+02 -0.44964753555E+02  0.15744130911E+03  0.12509000000E+03 0.  0.
         25    1    3    3    0    0  0.99632530724E+02 -0.80162278907E+01 -0.70312958040E+02  0.17487801822E+03  0.12509000000E+03 0.  0.
         25    1    4    4    0    0 -0.16617768464E+02 -0.70495578492E+01  0.66547164699E+01  0.12656081481E+03  0.12509000000E+03 0.  0.
<mgrwt>
<rscale>  2 0.44583857E+03</rscale>
<asrwt>0</asrwt>
<pdfrwt beam="1">  1       21 0.25754202E-01 0.44583857E+03</pdfrwt>
<pdfrwt beam="2">  1       21 0.41728171E-01 0.44583857E+03</pdfrwt>
<totfact> 0.73467330E+04</totfact>
</mgrwt>
</event>
<event>
 7    0  0.4725730E-002  0.4621031E+03  0.7546771E-02  0.1024173E+00
         21   -1    0    0  502  501  0.00000000000E+00  0.00000000000E+00  0.81664166510E+02  0.81664166510E+02  0.00000000000E+00 0.  1.
         21   -1    0    0  501  502 -0.00000000000E+00 -0.00000000000E+00 -0.65371160957E+03  0.65371160957E+03  0.00000000000E+00 0.  1.
      99926    2    1    2    0    0  0.00000000000E+00 -0.35527136788E-14 -0.57204744306E+03  0.73537577608E+03  0.46210307826E+03 0.  0.
      99925    2    3    3    0    0  0.32462736186E+02  0.26600051598E+02 -0.17934228863E+03  0.32109780370E+03  0.26301853749E+03 0.  0.
         25    1    4    4    0    0 -0.12549188612E+02 -0.14719203800E+02 -0.75085925769E+02  0.14717180927E+03  0.12509000000E+03 0.  0.
         25    1    4    4    0    0  0.45011924798E+02  0.41319255398E+02 -0.10425636286E+03  0.17392599443E+03  0.12509000000E+03 0.  0.
         25    1    3    3    0    0 -0.32462736186E+02 -0.26600051598E+02 -0.39270515443E+03  0.41427797239E+03  0.12509000000E+03 0.  0.
<mgrwt>
<rscale>  2 0.46210308E+03</rscale>
<asrwt>0</asrwt>
<pdfrwt beam="1">  1       21 0.12009437E-01 0.46210308E+03</pdfrwt>
<pdfrwt beam="2">  1       21 0.96134055E-01 0.46210308E+03</pdfrwt>
<totfact> 0.48271153E+04</totfact>
</mgrwt>
</event>
<event>
 7    0  0.4725730E-002  0.4553203E+03  0.7546771E-02  0.1026147E+00
         21   -1    0    0  502  501  0.00000000000E+00  0.00000000000E+00  0.40592292718E+03  0.40592292718E+03  0.00000000000E+00 0.  1.
         21   -1    0    0  501  502 -0.00000000000E+00 -0.00000000000E+00 -0.12768223570E+03  0.12768223570E+03  0.00000000000E+00 0.  1.
      99926    2    1    2    0    0 -0.17763568394E-14  0.14210854715E-13  0.27824069149E+03  0.53360516288E+03  0.45532031303E+03 0.  0.
      99925    2    3    3    0    0  0.13818318906E+02 -0.10463829026E+03  0.22364260565E+03  0.36106943672E+03  0.26308744809E+03 0.  0.
         25    1    4    4    0    0  0.45655570100E+02 -0.64066623838E+02  0.12623963861E+03  0.19435256064E+03  0.12509000000E+03 0.  0.
         25    1    3    3    0    0 -0.13818318906E+02  0.10463829026E+03  0.54598085836E+02  0.17253572616E+03  0.12509000000E+03 0.  0.
         25    1    4    4    0    0 -0.31837251194E+02 -0.40571666423E+02  0.97402967041E+02  0.16671687608E+03  0.12509000000E+03 0.  0.
<mgrwt>
<rscale>  2 0.45532031E+03</rscale>
<asrwt>0</asrwt>
<pdfrwt beam="1">  1       21 0.59694548E-01 0.45532031E+03</pdfrwt>
<pdfrwt beam="2">  1       21 0.18776799E-01 0.45532031E+03</pdfrwt>
<totfact> 0.62803492E+04</totfact>
</mgrwt>
</event>
<event>
 7    0  0.4725730E-002  0.4545506E+03  0.7546771E-02  0.1026374E+00
         21   -1    0    0  502  501  0.00000000000E+00  0.00000000000E+00  0.10932486760E+03  0.10932486760E+03  0.00000000000E+00 0.  1.
         21   -1    0    0  501  502 -0.00000000000E+00 -0.00000000000E+00 -0.47248228212E+03  0.47248228212E+03  0.00000000000E+00 0.  1.
      99926    2    1    2    0    0  0.00000000000E+00  0.00000000000E+00 -0.36315741452E+03  0.58180714972E+03  0.45455060416E+03 0.  0.
      99925    2    3    3    0    0 -0.50462725647E+02  0.80332636173E+02 -0.30655472859E+03  0.41492038791E+03  0.26302719929E+03 0.  0.
         25    1    4    4    0    0 -0.40573122213E+02  0.65861941863E+02 -0.20781529918E+03  0.25459513016E+03  0.12509000000E+03 0.  0.
         25    1    4    4    0    0 -0.98896034345E+01  0.14470694310E+02 -0.98739429411E+02  0.16032525774E+03  0.12509000000E+03 0.  0.
         25    1    3    3    0    0  0.50462725647E+02 -0.80332636173E+02 -0.56602685935E+02  0.16688676182E+03  0.12509000000E+03 0.  0.
<mgrwt>
<rscale>  2 0.45455060E+03</rscale>
<asrwt>0</asrwt>
<pdfrwt beam="1">  1       21 0.16077186E-01 0.45455060E+03</pdfrwt>
<pdfrwt beam="2">  1       21 0.69482689E-01 0.45455060E+03</pdfrwt>
<totfact> 0.60025256E+04</totfact>
</mgrwt>
</event>
<event>
 7    0  0.4725730E-002  0.4337801E+03  0.7546771E-02  0.1032672E+00
         21   -1    0    0  502  501  0.00000000000E+00  0.00000000000E+00  0.16182303889E+03  0.16182303889E+03  0.00000000000E+00 0.  1.
         21   -1    0    0  501  502 -0.00000000000E+00 -0.00000000000E+00 -0.29069594321E+03  0.29069594321E+03  0.00000000000E+00 0.  1.
      99926    2    1    2    0    0  0.00000000000E+00 -0.35527136788E-14 -0.12887290432E+03  0.45251898211E+03  0.43378013290E+03 0.  0.
      99925    2    3    3    0    0 -0.50548645905E+02 -0.26673626137E+02 -0.75480828980E+01  0.26912359414E+03  0.26287618270E+03 0.  0.
         25    1    3    3    0    0  0.50548645905E+02  0.26673626137E+02 -0.12132482142E+03  0.18339538797E+03  0.12509000000E+03 0.  0.
         25    1    4    4    0    0 -0.17988158134E+02 -0.11103044231E+01  0.34162343011E+02  0.13091745639E+03  0.12509000000E+03 0.  0.
         25    1    4    4    0    0 -0.32560487772E+02 -0.25563321714E+02 -0.41710425909E+02  0.13820613775E+03  0.12509000000E+03 0.  0.
<mgrwt>
<rscale>  2 0.43378013E+03</rscale>
<asrwt>0</asrwt>
<pdfrwt beam="1">  1       21 0.23797506E-01 0.43378013E+03</pdfrwt>
<pdfrwt beam="2">  1       21 0.42749403E-01 0.43378013E+03</pdfrwt>
<totfact> 0.81663298E+04</totfact>
</mgrwt>
</event>
<event>
 7    0  0.4725730E-002  0.4557320E+03  0.7546771E-02  0.1026026E+00
         21   -1    0    0  502  501  0.00000000000E+00  0.00000000000E+00  0.71311773224E+02  0.71311773224E+02  0.00000000000E+00 0.  1.
         21   -1    0    0  501  502 -0.00000000000E+00 -0.00000000000E+00 -0.72811152009E+03  0.72811152009E+03  0.00000000000E+00 0.  1.
      99926    2    1    2    0    0  0.00000000000E+00  0.00000000000E+00 -0.65679974686E+03  0.79942329331E+03  0.45573204233E+03 0.  0.
      99925    2    3    3    0    0 -0.21144171972E+02  0.10525793607E+03 -0.34531155673E+03  0.44700492006E+03  0.26276799316E+03 0.  0.
         25    1    4    4    0    0 -0.36785170647E+02  0.80974974443E+02 -0.21412047942E+03  0.26344863460E+03  0.12509000000E+03 0.  0.
         25    1    3    3    0    0  0.21144171972E+02 -0.10525793607E+03 -0.31148819014E+03  0.35241837326E+03  0.12509000000E+03 0.  0.
         25    1    4    4    0    0  0.15640998675E+02  0.24282961629E+02 -0.13119107730E+03  0.18355628545E+03  0.12509000000E+03 0.  0.
<mgrwt>
<rscale>  2 0.45573204E+03</rscale>
<asrwt>0</asrwt>
<pdfrwt beam="1">  1       21 0.10487024E-01 0.45573204E+03</pdfrwt>
<pdfrwt beam="2">  1       21 0.10707523E+00 0.45573204E+03</pdfrwt>
<totfact> 0.47519129E+04</totfact>
</mgrwt>
</event>
<event>
 7    0  0.4725730E-002  0.4630035E+03  0.7546771E-02  0.1023914E+00
         21   -1    0    0  502  501  0.00000000000E+00  0.00000000000E+00  0.11672206674E+04  0.11672206674E+04  0.00000000000E+00 0.  1.
         21   -1    0    0  501  502 -0.00000000000E+00 -0.00000000000E+00 -0.45915103359E+02  0.45915103359E+02  0.00000000000E+00 0.  1.
      99926    2    1    2    0    0  0.35527136788E-14  0.14210854715E-13  0.11213055640E+04  0.12131357707E+04  0.46300348847E+03 0.  0.
      99925    2    3    3    0    0  0.28664195751E+02  0.75891084683E+02  0.93456631148E+03  0.97417939523E+03  0.26273600951E+03 0.  0.
         25    1    3    3    0    0 -0.28664195751E+02 -0.75891084683E+02  0.18673925252E+03  0.23895637549E+03  0.12509000000E+03 0.  0.
         25    1    4    4    0    0  0.28283278056E+02  0.77103473570E+02  0.48878721158E+03  0.51118033584E+03  0.12509000000E+03 0.  0.
         25    1    4    4    0    0  0.38091769527E+00 -0.12123888863E+01  0.44577909990E+03  0.46299905939E+03  0.12509000000E+03 0.  0.
<mgrwt>
<rscale>  2 0.46300349E+03</rscale>
<asrwt>0</asrwt>
<pdfrwt beam="1">  1       21 0.17165008E+00 0.46300349E+03</pdfrwt>
<pdfrwt beam="2">  1       21 0.67522218E-02 0.46300349E+03</pdfrwt>
<totfact> 0.29838416E+04</totfact>
</mgrwt>
</event>
<event>
 7    0  0.4725730E-002  0.4517278E+03  0.7546771E-02  0.1027208E+00
         21   -1    0    0  502  501  0.00000000000E+00  0.00000000000E+00  0.48299594309E+02  0.48299594309E+02  0.00000000000E+00 0. -1.
         21   -1    0    0  501  502 -0.00000000000E+00 -0.00000000000E+00 -0.10562096569E+04  0.10562096569E+04  0.00000000000E+00 0. -1.
      99926    2    1    2    0    0 -0.17763568394E-14  0.00000000000E+00 -0.10079100626E+04  0.11045092512E+04  0.45172778500E+03 0.  0.
      99925    2    3    3    0    0 -0.14970758189E+02 -0.44951759109E+02 -0.39346137237E+03  0.47566945820E+03  0.26306804761E+03 0.  0.
         25    1    3    3    0    0  0.14970758189E+02  0.44951759109E+02 -0.61444869026E+03  0.62883979303E+03  0.12509000000E+03 0.  0.
         25    1    4    4    0    0 -0.32957515547E+02 -0.35460136964E+02 -0.15018426213E+03  0.20136146562E+03  0.12509000000E+03 0.  0.
         25    1    4    4    0    0  0.17986757358E+02 -0.94916221450E+01 -0.24327711024E+03  0.27430799259E+03  0.12509000000E+03 0.  0.
<mgrwt>
<rscale>  2 0.45172778E+03</rscale>
<asrwt>0</asrwt>
<pdfrwt beam="1">  1       21 0.71028818E-02 0.45172778E+03</pdfrwt>
<pdfrwt beam="2">  1       21 0.15532494E+00 0.45172778E+03</pdfrwt>
<totfact> 0.36254090E+04</totfact>
</mgrwt>
</event>
<event>
 7    0  0.4725730E-002  0.4503318E+03  0.7546771E-02  0.1027623E+00
         21   -1    0    0  502  501  0.00000000000E+00  0.00000000000E+00  0.22925275200E+03  0.22925275200E+03  0.00000000000E+00 0. -1.
         21   -1    0    0  501  502 -0.00000000000E+00 -0.00000000000E+00 -0.22115189711E+03  0.22115189711E+03  0.00000000000E+00 0. -1.
      99926    2    1    2    0    0  0.00000000000E+00  0.17763568394E-14  0.81008548934E+01  0.45040464911E+03  0.45033179334E+03 0.  0.
      99925    2    3    3    0    0 -0.59060910788E+02  0.42271284924E+01 -0.86050613688E+02  0.28301866722E+03  0.26303763624E+03 0.  0.
         25    1    3    3    0    0  0.59060910788E+02 -0.42271284924E+01  0.94151468582E+02  0.16738598189E+03  0.12509000000E+03 0.  0.
         25    1    4    4    0    0 -0.93146078942E+01  0.37388183304E+02 -0.45383608980E+02  0.13853453806E+03  0.12509000000E+03 0.  0.
         25    1    4    4    0    0 -0.49746302894E+02 -0.33161054811E+02 -0.40667004709E+02  0.14448412916E+03  0.12509000000E+03 0.  0.
<mgrwt>
<rscale>  2 0.45033179E+03</rscale>
<asrwt>0</asrwt>
<pdfrwt beam="1">  1       21 0.33713640E-01 0.45033179E+03</pdfrwt>
<pdfrwt beam="2">  1       21 0.32522338E-01 0.45033179E+03</pdfrwt>
<totfact> 0.71510455E+04</totfact>
</mgrwt>
</event>
<event>
 7    0  0.4725730E-002  0.4544546E+03  0.7546771E-02  0.1026402E+00
         21   -1    0    0  502  501  0.00000000000E+00  0.00000000000E+00  0.43249260022E+02  0.43249260022E+02  0.00000000000E+00 0. -1.
         21   -1    0    0  501  502 -0.00000000000E+00 -0.00000000000E+00 -0.11938296162E+04  0.11938296162E+04  0.00000000000E+00 0. -1.
      99926    2    1    2    0    0  0.00000000000E+00  0.00000000000E+00 -0.11505803562E+04  0.12370788762E+04  0.45445460717E+03 0.  0.
      99925    2    3    3    0    0 -0.14448342676E+02 -0.77663260862E+02 -0.50549952702E+03  0.57525025721E+03  0.26295009015E+03 0.  0.
         25    1    3    3    0    0  0.14448342676E+02  0.77663260862E+02 -0.64508082918E+03  0.66182861903E+03  0.12509000000E+03 0.  0.
         25    1    4    4    0    0 -0.29239464465E+02 -0.38859852943E+01 -0.24277656650E+03  0.27469622586E+03  0.12509000000E+03 0.  0.
         25    1    4    4    0    0  0.14791121789E+02 -0.73777275568E+02 -0.26272296052E+03  0.30055403135E+03  0.12509000000E+03 0.  0.
<mgrwt>
<rscale>  2 0.45445461E+03</rscale>
<asrwt>0</asrwt>
<pdfrwt beam="1">  1       21 0.63601856E-02 0.45445461E+03</pdfrwt>
<pdfrwt beam="2">  1       21 0.17556317E+00 0.45445461E+03</pdfrwt>
<totfact> 0.31130174E+04</totfact>
</mgrwt>
</event>
<event>
 7    0  0.4725730E-002  0.4524450E+03  0.7546771E-02  0.1026995E+00
         21   -1    0    0  502  501  0.00000000000E+00  0.00000000000E+00  0.42505796925E+03  0.42505796925E+03  0.00000000000E+00 0. -1.
         21   -1    0    0  501  502 -0.00000000000E+00 -0.00000000000E+00 -0.12039914206E+03  0.12039914206E+03  0.00000000000E+00 0. -1.
      99926    2    1    2    0    0 -0.88817841970E-15  0.00000000000E+00  0.30465882719E+03  0.54545711132E+03  0.45244497931E+03 0.  0.
      99925    2    3    3    0    0 -0.72982389089E+01  0.11046107494E+03  0.19489417494E+03  0.34558039844E+03  0.26303452053E+03 0.  0.
         25    1    3    3    0    0  0.72982389089E+01 -0.11046107494E+03  0.10976465225E+03  0.19987671288E+03  0.12509000000E+03 0.  0.
         25    1    4    4    0    0 -0.42059644330E+01  0.88480465278E+02  0.13849938544E+03  0.20658187418E+03  0.12509000000E+03 0.  0.
         25    1    4    4    0    0 -0.30922744758E+01  0.21980609660E+02  0.56394789495E+02  0.13899852425E+03  0.12509000000E+03 0.  0.
<mgrwt>
<rscale>  2 0.45244498E+03</rscale>
<asrwt>0</asrwt>
<pdfrwt beam="1">  1       21 0.62508525E-01 0.45244498E+03</pdfrwt>
<pdfrwt beam="2">  1       21 0.17705756E-01 0.45244498E+03</pdfrwt>
<totfact> 0.63440615E+04</totfact>
</mgrwt>
</event>
<event>
 7    0  0.4725730E-002  0.4503376E+03  0.7546771E-02  0.1027621E+00
         21   -1    0    0  502  501  0.00000000000E+00  0.00000000000E+00  0.13720297801E+03  0.13720297801E+03  0.00000000000E+00 0. -1.
         21   -1    0    0  501  502 -0.00000000000E+00 -0.00000000000E+00 -0.36953273430E+03  0.36953273430E+03  0.00000000000E+00 0. -1.
      99926    2    1    2    0    0 -0.35527136788E-14 -0.71054273576E-14 -0.23232975628E+03  0.50673571231E+03  0.45033761388E+03 0.  0.
      99925    2    3    3    0    0  0.12965170050E+02 -0.24725153964E+02 -0.28617392821E+02  0.26605820193E+03  0.26303722697E+03 0.  0.
         25    1    4    4    0    0 -0.25702469075E+02  0.12191290719E+02 -0.87742574441E+01  0.12858359219E+03  0.12509000000E+03 0.  0.
         25    1    3    3    0    0 -0.12965170050E+02  0.24725153964E+02 -0.20371236346E+03  0.24067751037E+03  0.12509000000E+03 0.  0.
         25    1    4    4    0    0  0.38667639125E+02 -0.36916444683E+02 -0.19843135377E+02  0.13747460975E+03  0.12509000000E+03 0.  0.
<mgrwt>
<rscale>  2 0.45033761E+03</rscale>
<asrwt>0</asrwt>
<pdfrwt beam="1">  1       21 0.20176909E-01 0.45033761E+03</pdfrwt>
<pdfrwt beam="2">  1       21 0.54343049E-01 0.45033761E+03</pdfrwt>
<totfact> 0.67254344E+04</totfact>
</mgrwt>
</event>
<event>
 7    0  0.4725730E-002  0.4264254E+03  0.7546771E-02  0.1034995E+00
         21   -1    0    0  502  501  0.00000000000E+00  0.00000000000E+00  0.53683925474E+02  0.53683925474E+02  0.00000000000E+00 0. -1.
         21   -1    0    0  501  502 -0.00000000000E+00 -0.00000000000E+00 -0.84680180288E+03  0.84680180288E+03  0.00000000000E+00 0. -1.
      99926    2    1    2    0    0 -0.27755575616E-14  0.00000000000E+00 -0.79311787741E+03  0.90048572836E+03  0.42642535045E+03 0.  0.
      99925    2    3    3    0    0  0.35138076942E+00  0.35714852203E+02 -0.67309934314E+03  0.72348959618E+03  0.26286649827E+03 0.  0.
         25    1    4    4    0    0  0.32010465536E+02  0.58530906553E+01 -0.39181401790E+03  0.41258291445E+03  0.12509000000E+03 0.  0.
         25    1    3    3    0    0 -0.35138076942E+00 -0.35714852203E+02 -0.12001853427E+03  0.17699613217E+03  0.12509000000E+03 0.  0.
         25    1    4    4    0    0 -0.31659084766E+02  0.29861761547E+02 -0.28128532524E+03  0.31090668173E+03  0.12509000000E+03 0.  0.
<mgrwt>
<rscale>  2 0.42642535E+03</rscale>
<asrwt>0</asrwt>
<pdfrwt beam="1">  1       21 0.78946953E-02 0.42642535E+03</pdfrwt>
<pdfrwt beam="2">  1       21 0.12452967E+00 0.42642535E+03</pdfrwt>
<totfact> 0.54393761E+04</totfact>
</mgrwt>
</event>
<event>
 7    0  0.4725730E-002  0.4516586E+03  0.7546771E-02  0.1027229E+00
         21   -1    0    0  502  501  0.00000000000E+00  0.00000000000E+00  0.47854347916E+03  0.47854347916E+03  0.00000000000E+00 0. -1.
         21   -1    0    0  501  502 -0.00000000000E+00 -0.00000000000E+00 -0.10657104140E+03  0.10657104140E+03  0.00000000000E+00 0. -1.
      99926    2    1    2    0    0  0.00000000000E+00  0.00000000000E+00  0.37197243776E+03  0.58511452056E+03  0.45165861856E+03 0.  0.
      99925    2    3    3    0    0  0.38772972817E+02 -0.42472702480E+02  0.11325411360E+03  0.29204464283E+03  0.26297586445E+03 0.  0.
         25    1    4    4    0    0  0.46920060970E+02  0.60865336044E+01  0.43781116739E+02  0.14072253656E+03  0.12509000000E+03 0.  0.
         25    1    4    4    0    0 -0.81470881528E+01 -0.48559236084E+02  0.69472996859E+02  0.15132210627E+03  0.12509000000E+03 0.  0.
         25    1    3    3    0    0 -0.38772972817E+02  0.42472702480E+02  0.25871832416E+03  0.29306987773E+03  0.12509000000E+03 0.  0.
<mgrwt>
<rscale>  2 0.45165862E+03</rscale>
<asrwt>0</asrwt>
<pdfrwt beam="1">  1       21 0.70374040E-01 0.45165862E+03</pdfrwt>
<pdfrwt beam="2">  1       21 0.15672212E-01 0.45165862E+03</pdfrwt>
<totfact> 0.61204574E+04</totfact>
</mgrwt>
</event>
<event>
 7    0  0.4725730E-002  0.4553964E+03  0.7546771E-02  0.1026125E+00
         21   -1    0    0  502  501  0.00000000000E+00  0.00000000000E+00  0.13650140264E+03  0.13650140264E+03  0.00000000000E+00 0.  1.
         21   -1    0    0  501  502 -0.00000000000E+00 -0.00000000000E+00 -0.37982374270E+03  0.37982374270E+03  0.00000000000E+00 0.  1.
      99926    2    1    2    0    0  0.00000000000E+00  0.00000000000E+00 -0.24332234006E+03  0.51632514534E+03  0.45539641472E+03 0.  0.
      99925    2    3    3    0    0  0.92473484584E+02  0.50369663810E+02 -0.20124553626E+03  0.34748671991E+03  0.26298061957E+03 0.  0.
         25    1    4    4    0    0  0.10870370698E+02  0.30594984895E+01 -0.10421695753E+03  0.16320602877E+03  0.12509000000E+03 0.  0.
         25    1    4    4    0    0  0.81603113886E+02  0.47310165321E+02 -0.97028578734E+02  0.18428069115E+03  0.12509000000E+03 0.  0.
         25    1    3    3    0    0 -0.92473484584E+02 -0.50369663810E+02 -0.42076803804E+02  0.16883842543E+03  0.12509000000E+03 0.  0.
<mgrwt>
<rscale>  2 0.45539641E+03</rscale>
<asrwt>0</asrwt>
<pdfrwt beam="1">  1       21 0.20073736E-01 0.45539641E+03</pdfrwt>
<pdfrwt beam="2">  1       21 0.55856432E-01 0.45539641E+03</pdfrwt>
<totfact> 0.63936986E+04</totfact>
</mgrwt>
</event>
<event>
 7    0  0.4725730E-002  0.4553329E+03  0.7546771E-02  0.1026144E+00
         21   -1    0    0  502  501  0.00000000000E+00  0.00000000000E+00  0.29784946376E+03  0.29784946376E+03  0.00000000000E+00 0. -1.
         21   -1    0    0  501  502 -0.00000000000E+00 -0.00000000000E+00 -0.17402081547E+03  0.17402081547E+03  0.00000000000E+00 0. -1.
      99926    2    1    2    0    0  0.00000000000E+00  0.00000000000E+00  0.12382864830E+03  0.47187027923E+03  0.45533287415E+03 0.  0.
      99925    2    3    3    0    0 -0.88633989203E+02 -0.18931021851E+02  0.68417064451E+01  0.27809767979E+03  0.26282530877E+03 0.  0.
         25    1    3    3    0    0  0.88633989203E+02  0.18931021851E+02  0.11698694185E+03  0.19377259944E+03  0.12509000000E+03 0.  0.
         25    1    4    4    0    0 -0.84442474981E+02 -0.36479599219E+00 -0.50615851114E+01  0.15100924608E+03  0.12509000000E+03 0.  0.
         25    1    4    4    0    0 -0.41915142215E+01 -0.18566225859E+02  0.11903291557E+02  0.12708843371E+03  0.12509000000E+03 0.  0.
<mgrwt>
<rscale>  2 0.45533287E+03</rscale>
<asrwt>0</asrwt>
<pdfrwt beam="1">  1       21 0.43801392E-01 0.45533287E+03</pdfrwt>
<pdfrwt beam="2">  1       21 0.25591296E-01 0.45533287E+03</pdfrwt>
<totfact> 0.67119450E+04</totfact>
</mgrwt>
</event>
<event>
 7    0  0.4725730E-002  0.4670680E+03  0.7546771E-02  0.1022751E+00
         21   -1    0    0  502  501  0.00000000000E+00  0.00000000000E+00  0.35529251234E+03  0.35529251234E+03  0.00000000000E+00 0. -1.
         21   -1    0    0  501  502 -0.00000000000E+00 -0.00000000000E+00 -0.15350207137E+03  0.15350207137E+03  0.00000000000E+00 0. -1.
      99926    2    1    2    0    0  0.71054273576E-14  0.14210854715E-13  0.20179044097E+03  0.50879458371E+03  0.46706803182E+03 0.  0.
      99925    2    3    3    0    0  0.61310297144E+02 -0.10553663865E+03  0.10090407556E+03  0.30699641360E+03  0.26299853777E+03 0.  0.
         25    1    4    4    0    0 -0.91840709090E+01 -0.39705566814E+02  0.54097133773E+02  0.14224938375E+03  0.12509000000E+03 0.  0.
         25    1    4    4    0    0  0.70494368053E+02 -0.65831071834E+02  0.46806941789E+02  0.16474702985E+03  0.12509000000E+03 0.  0.
         25    1    3    3    0    0 -0.61310297144E+02  0.10553663865E+03  0.10088636541E+03  0.20179817011E+03  0.12509000000E+03 0.  0.
<mgrwt>
<rscale>  2 0.46706803E+03</rscale>
<asrwt>0</asrwt>
<pdfrwt beam="1">  1       21 0.52248899E-01 0.46706803E+03</pdfrwt>
<pdfrwt beam="2">  1       21 0.22573834E-01 0.46706803E+03</pdfrwt>
<totfact> 0.58817641E+04</totfact>
</mgrwt>
</event>
<event>
 7    0  0.4725730E-002  0.4553308E+03  0.7546771E-02  0.1026144E+00
         21   -1    0    0  502  501  0.00000000000E+00  0.00000000000E+00  0.85758596390E+02  0.85758596390E+02  0.00000000000E+00 0.  1.
         21   -1    0    0  501  502 -0.00000000000E+00 -0.00000000000E+00 -0.60438880392E+03  0.60438880392E+03  0.00000000000E+00 0.  1.
      99926    2    1    2    0    0  0.00000000000E+00  0.71054273576E-14 -0.51863020753E+03  0.69014740031E+03  0.45533080501E+03 0.  0.
      99925    2    3    3    0    0 -0.94698380474E+02 -0.60955479709E+02 -0.34313341790E+03  0.44698082152E+03  0.26337797660E+03 0.  0.
         25    1    4    4    0    0 -0.15688015289E+02 -0.88654049721E+01 -0.12034546369E+03  0.17451432022E+03  0.12509000000E+03 0.  0.
         25    1    4    4    0    0 -0.79010365185E+02 -0.52090074737E+02 -0.22278795420E+03  0.27246650130E+03  0.12509000000E+03 0.  0.
         25    1    3    3    0    0  0.94698380474E+02  0.60955479709E+02 -0.17549678964E+03  0.24316657880E+03  0.12509000000E+03 0.  0.
<mgrwt>
<rscale>  2 0.45533081E+03</rscale>
<asrwt>0</asrwt>
<pdfrwt beam="1">  1       21 0.12611559E-01 0.45533081E+03</pdfrwt>
<pdfrwt beam="2">  1       21 0.88880704E-01 0.45533081E+03</pdfrwt>
<totfact> 0.53302324E+04</totfact>
</mgrwt>
</event>
<event>
 7    0  0.4725730E-002  0.4442108E+03  0.7546771E-02  0.1029463E+00
         21   -1    0    0  502  501  0.00000000000E+00  0.00000000000E+00  0.75964613614E+02  0.75964613614E+02  0.00000000000E+00 0. -1.
         21   -1    0    0  501  502 -0.00000000000E+00 -0.00000000000E+00 -0.64939189229E+03  0.64939189229E+03  0.00000000000E+00 0. -1.
      99926    2    1    2    0    0 -0.35527136788E-14 -0.14210854715E-13 -0.57342727868E+03  0.72535650590E+03  0.44421077962E+03 0.  0.
      99925    2    3    3    0    0  0.24832133682E+02  0.86033021013E+02 -0.44675184355E+03  0.52607657833E+03  0.26296585518E+03 0.  0.
         25    1    4    4    0    0  0.35386787588E+02  0.46017740242E+02 -0.29133765163E+03  0.32232746162E+03  0.12509000000E+03 0.  0.
         25    1    3    3    0    0 -0.24832133682E+02 -0.86033021013E+02 -0.12667543513E+03  0.19927992757E+03  0.12509000000E+03 0.  0.
         25    1    4    4    0    0 -0.10554653906E+02  0.40015280771E+02 -0.15541419191E+03  0.20374911672E+03  0.12509000000E+03 0.  0.
<mgrwt>
<rscale>  2 0.44421078E+03</rscale>
<asrwt>0</asrwt>
<pdfrwt beam="1">  1       21 0.11171267E-01 0.44421078E+03</pdfrwt>
<pdfrwt beam="2">  1       21 0.95498805E-01 0.44421078E+03</pdfrwt>
<totfact> 0.56163797E+04</totfact>
</mgrwt>
</event>
<event>
 7    0  0.4725730E-002  0.4576382E+03  0.7546771E-02  0.1025468E+00
         21   -1    0    0  502  501  0.00000000000E+00  0.00000000000E+00  0.44827029841E+02  0.44827029841E+02  0.00000000000E+00 0. -1.
         21   -1    0    0  501  502 -0.00000000000E+00 -0.00000000000E+00 -0.11680047708E+04  0.11680047708E+04  0.00000000000E+00 0. -1.
      99926    2    1    2    0    0  0.00000000000E+00 -0.14210854715E-13 -0.11231777410E+04  0.12128318007E+04  0.45763821831E+03 0.  0.
      99925    2    3    3    0    0 -0.56653536234E+02  0.90197674844E+02 -0.58591298459E+03  0.65100783333E+03  0.26300556995E+03 0.  0.
         25    1    4    4    0    0 -0.28664485367E+02  0.10537928000E+02 -0.21563118123E+03  0.25115137879E+03  0.12509000000E+03 0.  0.
         25    1    4    4    0    0 -0.27989050867E+02  0.79659746844E+02 -0.37028180336E+03  0.39985645454E+03  0.12509000000E+03 0.  0.
         25    1    3    3    0    0  0.56653536234E+02 -0.90197674844E+02 -0.53726475638E+03  0.56182396732E+03  0.12509000000E+03 0.  0.
<mgrwt>
<rscale>  2 0.45763822E+03</rscale>
<asrwt>0</asrwt>
<pdfrwt beam="1">  1       21 0.65922110E-02 0.45763822E+03</pdfrwt>
<pdfrwt beam="2">  1       21 0.17176539E+00 0.45763822E+03</pdfrwt>
<totfact> 0.31107715E+04</totfact>
</mgrwt>
</event>
<event>
 6    0  0.4725730E-002  0.4648485E+03  0.7546771E-02  0.1023384E+00
         21   -1    0    0  502  501  0.00000000000E+00  0.00000000000E+00  0.28718895302E+03  0.28718895302E+03  0.00000000000E+00 0. -1.
         21   -1    0    0  501  502 -0.00000000000E+00 -0.00000000000E+00 -0.18810275693E+03  0.18810275693E+03  0.00000000000E+00 0. -1.
      99926    2    1    2    0    0  0.00000000000E+00  0.00000000000E+00  0.99086196085E+02  0.47529170995E+03  0.46484850790E+03 0.  0.
         25    1    3    3    0    0 -0.23495133177E+02  0.27875281388E+02  0.65655669492E+01  0.13045944720E+03  0.12509000000E+03 0.  0.
         25    1    3    3    0    0 -0.36127001463E+02 -0.81413183487E+02  0.11857158030E+03  0.19401029466E+03  0.12509000000E+03 0.  0.
         25    1    3    3    0    0  0.59622134639E+02  0.53537902099E+02 -0.26050951165E+02  0.15082196808E+03  0.12509000000E+03 0.  0.
<mgrwt>
<rscale>  2 0.46484851E+03</rscale>
<asrwt>0</asrwt>
<pdfrwt beam="1">  1       21 0.42233670E-01 0.46484851E+03</pdfrwt>
<pdfrwt beam="2">  1       21 0.27662170E-01 0.46484851E+03</pdfrwt>
<totfact> 0.62051215E+04</totfact>
</mgrwt>
</event>
<event>
 7    0  0.4725730E-002  0.4499458E+03  0.7546771E-02  0.1027738E+00
         21   -1    0    0  502  501  0.00000000000E+00  0.00000000000E+00  0.17339912514E+03  0.17339912514E+03  0.00000000000E+00 0. -1.
         21   -1    0    0  501  502 -0.00000000000E+00 -0.00000000000E+00 -0.29188620200E+03  0.29188620200E+03  0.00000000000E+00 0. -1.
      99926    2    1    2    0    0  0.00000000000E+00  0.00000000000E+00 -0.11848707686E+03  0.46528532714E+03  0.44994582815E+03 0.  0.
      99925    2    3    3    0    0  0.72786990621E+02  0.80257348481E+02 -0.77749694056E+02  0.29485578027E+03  0.26297476731E+03 0.  0.
         25    1    3    3    0    0 -0.72786990621E+02 -0.80257348481E+02 -0.40737382806E+02  0.17042954687E+03  0.12509000000E+03 0.  0.
         25    1    4    4    0    0  0.68757051350E+02  0.15761450763E+02 -0.37707554349E+02  0.14847667559E+03  0.12509000000E+03 0.  0.
         25    1    4    4    0    0  0.40299392707E+01  0.64495897718E+02 -0.40042139707E+02  0.14637910467E+03  0.12509000000E+03 0.  0.
<mgrwt>
<rscale>  2 0.44994583E+03</rscale>
<asrwt>0</asrwt>
<pdfrwt beam="1">  1       21 0.25499872E-01 0.44994583E+03</pdfrwt>
<pdfrwt beam="2">  1       21 0.42924441E-01 0.44994583E+03</pdfrwt>
<totfact> 0.70575455E+04</totfact>
</mgrwt>
</event>
<event>
 7    0  0.4725730E-002  0.4523163E+03  0.7546771E-02  0.1027034E+00
         21   -1    0    0  502  501  0.00000000000E+00  0.00000000000E+00  0.16904934520E+03  0.16904934520E+03  0.00000000000E+00 0. -1.
         21   -1    0    0  501  502 -0.00000000000E+00 -0.00000000000E+00 -0.30255960478E+03  0.30255960478E+03  0.00000000000E+00 0. -1.
      99926    2    1    2    0    0  0.00000000000E+00  0.71054273576E-14 -0.13351025958E+03  0.47160894998E+03  0.45231627463E+03 0.  0.
      99925    2    3    3    0    0 -0.10098475552E+02 -0.60824980055E+02  0.11601536803E+02  0.27034643744E+03  0.26296566919E+03 0.  0.
         25    1    3    3    0    0  0.10098475552E+02  0.60824980055E+02 -0.14511179638E+03  0.20126251254E+03  0.12509000000E+03 0.  0.
         25    1    4    4    0    0 -0.65379024897E+01 -0.22252998713E+02  0.45442167450E+02  0.13509418494E+03  0.12509000000E+03 0.  0.
         25    1    4    4    0    0 -0.35605730627E+01 -0.38571981342E+02 -0.33840630648E+02  0.13525225251E+03  0.12509000000E+03 0.  0.
<mgrwt>
<rscale>  2 0.45231627E+03</rscale>
<asrwt>0</asrwt>
<pdfrwt beam="1">  1       21 0.24860198E-01 0.45231627E+03</pdfrwt>
<pdfrwt beam="2">  1       21 0.44494059E-01 0.45231627E+03</pdfrwt>
<totfact> 0.68769045E+04</totfact>
</mgrwt>
</event>
<event>
 7    0  0.4725730E-002  0.4528600E+03  0.7546771E-02  0.1026873E+00
         21   -1    0    0  502  501  0.00000000000E+00  0.00000000000E+00  0.38614425507E+02  0.38614425507E+02  0.00000000000E+00 0. -1.
         21   -1    0    0  501  502 -0.00000000000E+00 -0.00000000000E+00 -0.13277563099E+04  0.13277563099E+04  0.00000000000E+00 0. -1.
      99926    2    1    2    0    0 -0.71054273576E-14  0.00000000000E+00 -0.12891418844E+04  0.13663707354E+04  0.45286000980E+03 0.  0.
      99925    2    3    3    0    0  0.53928438972E+02  0.21882294028E+02 -0.52795630340E+03  0.59278292000E+03  0.26318552512E+03 0.  0.
         25    1    3    3    0    0 -0.53928438972E+02 -0.21882294028E+02 -0.76118558101E+03  0.77358781541E+03  0.12509000000E+03 0.  0.
         25    1    4    4    0    0  0.41756606229E+01  0.35491390901E+02 -0.31070073172E+03  0.33683753912E+03  0.12509000000E+03 0.  0.
         25    1    4    4    0    0  0.49752778349E+02 -0.13609096873E+02 -0.21725557168E+03  0.25594538089E+03  0.12509000000E+03 0.  0.
<mgrwt>
<rscale>  2 0.45286001E+03</rscale>
<asrwt>0</asrwt>
<pdfrwt beam="1">  1       21 0.56785919E-02 0.45286001E+03</pdfrwt>
<pdfrwt beam="2">  1       21 0.19525829E+00 0.45286001E+03</pdfrwt>
<totfact> 0.27700000E+04</totfact>
</mgrwt>
</event>
<event>
 7    0  0.4725730E-002  0.4575278E+03  0.7546771E-02  0.1025501E+00
         21   -1    0    0  502  501  0.00000000000E+00  0.00000000000E+00  0.40655672350E+02  0.40655672350E+02  0.00000000000E+00 0.  1.
         21   -1    0    0  501  502 -0.00000000000E+00 -0.00000000000E+00 -0.12872233267E+04  0.12872233267E+04  0.00000000000E+00 0.  1.
      99926    2    1    2    0    0  0.00000000000E+00  0.00000000000E+00 -0.12465676543E+04  0.13278789990E+04  0.45752783439E+03 0.  0.
      99925    2    3    3    0    0  0.35738262349E+02 -0.57774579597E+02 -0.51124556522E+03  0.57890556274E+03  0.26295341254E+03 0.  0.
         25    1    3    3    0    0 -0.35738262349E+02  0.57774579597E+02 -0.73532208910E+03  0.74897343629E+03  0.12509000000E+03 0.  0.
         25    1    4    4    0    0  0.12957549732E+02 -0.69744869274E+02 -0.26406835808E+03  0.30068563438E+03  0.12509000000E+03 0.  0.
         25    1    4    4    0    0  0.22780712617E+02  0.11970289677E+02 -0.24717720715E+03  0.27821992836E+03  0.12509000000E+03 0.  0.
<mgrwt>
<rscale>  2 0.45752783E+03</rscale>
<asrwt>0</asrwt>
<pdfrwt beam="1">  1       21 0.59787763E-02 0.45752783E+03</pdfrwt>
<pdfrwt beam="2">  1       21 0.18929752E+00 0.45752783E+03</pdfrwt>
<totfact> 0.27765927E+04</totfact>
</mgrwt>
</event>
<event>
 7    0  0.4725730E-002  0.4302015E+03  0.7546771E-02  0.1033796E+00
         21   -1    0    0  502  501  0.00000000000E+00  0.00000000000E+00  0.43310918617E+02  0.43310918617E+02  0.00000000000E+00 0. -1.
         21   -1    0    0  501  502 -0.00000000000E+00 -0.00000000000E+00 -0.10682832617E+04  0.10682832617E+04  0.00000000000E+00 0. -1.
      99926    2    1    2    0    0  0.71054273576E-14 -0.35527136788E-14 -0.10249723431E+04  0.11115941803E+04  0.43020148492E+03 0.  0.
      99925    2    3    3    0    0  0.56756776412E+02 -0.20959276700E+02 -0.49577714063E+03  0.56446010776E+03  0.26298216125E+03 0.  0.
         25    1    4    4    0    0  0.14449953133E+02  0.12091245872E+02 -0.30412537053E+03  0.32938541023E+03  0.12509000000E+03 0.  0.
         25    1    4    4    0    0  0.42306823280E+02 -0.33050522572E+02 -0.19165177010E+03  0.23507469754E+03  0.12509000000E+03 0.  0.
         25    1    3    3    0    0 -0.56756776412E+02  0.20959276700E+02 -0.52919520244E+03  0.54713407254E+03  0.12509000000E+03 0.  0.
<mgrwt>
<rscale>  2 0.43020148E+03</rscale>
<asrwt>0</asrwt>
<pdfrwt beam="1">  1       21 0.63692522E-02 0.43020148E+03</pdfrwt>
<pdfrwt beam="2">  1       21 0.15710049E+00 0.43020148E+03</pdfrwt>
<totfact> 0.42783621E+04</totfact>
</mgrwt>
</event>
<event>
 7    0  0.4725730E-002  0.4566949E+03  0.7546771E-02  0.1025744E+00
         21   -1    0    0  502  501  0.00000000000E+00  0.00000000000E+00  0.56069334503E+03  0.56069334503E+03  0.00000000000E+00 0.  1.
         21   -1    0    0  501  502 -0.00000000000E+00 -0.00000000000E+00 -0.92996575014E+02  0.92996575014E+02  0.00000000000E+00 0.  1.
      99926    2    1    2    0    0  0.00000000000E+00  0.00000000000E+00  0.46769677001E+03  0.65368992004E+03  0.45669491226E+03 0.  0.
      99925    2    3    3    0    0  0.66459065594E+02  0.11693890462E+02  0.16147034039E+03  0.31608706346E+03  0.26322007216E+03 0.  0.
         25    1    4    4    0    0  0.66781119346E+02 -0.18599147653E+02  0.83537524271E+02  0.16562509549E+03  0.12509000000E+03 0.  0.
         25    1    3    3    0    0 -0.66459065594E+02 -0.11693890462E+02  0.30622642962E+03  0.33760285658E+03  0.12509000000E+03 0.  0.
         25    1    4    4    0    0 -0.32205375144E+00  0.30293038115E+02  0.77932816124E+02  0.15046196797E+03  0.12509000000E+03 0.  0.
<mgrwt>
<rscale>  2 0.45669491E+03</rscale>
<asrwt>0</asrwt>
<pdfrwt beam="1">  1       21 0.82454902E-01 0.45669491E+03</pdfrwt>
<pdfrwt beam="2">  1       21 0.13675967E-01 0.45669491E+03</pdfrwt>
<totfact> 0.54753699E+04</totfact>
</mgrwt>
</event>
<event>
 7    0  0.4725730E-002  0.4560620E+03  0.7546771E-02  0.1025930E+00
         21   -1    0    0  502  501  0.00000000000E+00  0.00000000000E+00  0.80161897141E+03  0.80161897141E+03  0.00000000000E+00 0. -1.
         21   -1    0    0  501  502 -0.00000000000E+00 -0.00000000000E+00 -0.64866397988E+02  0.64866397988E+02  0.00000000000E+00 0. -1.
      99926    2    1    2    0    0  0.00000000000E+00  0.35527136788E-14  0.73675257343E+03  0.86648536940E+03  0.45606199243E+03 0.  0.
      99925    2    3    3    0    0  0.53071145199E+02  0.27741534757E+02  0.27855043325E+03  0.38775491438E+03  0.26301595115E+03 0.  0.
         25    1    4    4    0    0  0.13024838735E+02 -0.22957641472E+02  0.11504225718E+03  0.17198525740E+03  0.12509000000E+03 0.  0.
         25    1    4    4    0    0  0.40046306464E+02  0.50699176229E+02  0.16350817607E+03  0.21576965698E+03  0.12509000000E+03 0.  0.
         25    1    3    3    0    0 -0.53071145199E+02 -0.27741534757E+02  0.45820214018E+03  0.47873045502E+03  0.12509000000E+03 0.  0.
<mgrwt>
<rscale>  2 0.45606199E+03</rscale>
<asrwt>0</asrwt>
<pdfrwt beam="1">  1       21 0.11788514E+00 0.45606199E+03</pdfrwt>
<pdfrwt beam="2">  1       21 0.95391766E-02 0.45606199E+03</pdfrwt>
<totfact> 0.44340126E+04</totfact>
</mgrwt>
</event>
<event>
 7    0  0.4725730E-002  0.4524607E+03  0.7546771E-02  0.1026991E+00
         21   -1    0    0  502  501  0.00000000000E+00  0.00000000000E+00  0.37052430244E+02  0.37052430244E+02  0.00000000000E+00 0.  1.
         21   -1    0    0  501  502 -0.00000000000E+00 -0.00000000000E+00 -0.13812904054E+04  0.13812904054E+04  0.00000000000E+00 0.  1.
      99926    2    1    2    0    0  0.00000000000E+00  0.00000000000E+00 -0.13442379752E+04  0.14183428357E+04  0.45246067849E+03 0.  0.
      99925    2    3    3    0    0  0.35754222094E+02  0.65496272437E+02 -0.11045344377E+04  0.11378550105E+04  0.26296306718E+03 0.  0.
         25    1    4    4    0    0  0.19888189275E+02 -0.63499117125E+01 -0.45808250582E+03  0.47531352988E+03  0.12509000000E+03 0.  0.
         25    1    4    4    0    0  0.15866032819E+02  0.71846184149E+02 -0.64645193191E+03  0.66254148062E+03  0.12509000000E+03 0.  0.
         25    1    3    3    0    0 -0.35754222094E+02 -0.65496272437E+02 -0.23970353747E+03  0.28048782519E+03  0.12509000000E+03 0.  0.
<mgrwt>
<rscale>  2 0.45246068E+03</rscale>
<asrwt>0</asrwt>
<pdfrwt beam="1">  1       21 0.54488887E-02 0.45246068E+03</pdfrwt>
<pdfrwt beam="2">  1       21 0.20313087E+00 0.45246068E+03</pdfrwt>
<totfact> 0.26363680E+04</totfact>
</mgrwt>
</event>
<event>
 7    0  0.4725730E-002  0.4498738E+03  0.7546771E-02  0.1027760E+00
         21   -1    0    0  502  501  0.00000000000E+00  0.00000000000E+00  0.16484254990E+03  0.16484254990E+03  0.00000000000E+00 0. -1.
         21   -1    0    0  501  502 -0.00000000000E+00 -0.00000000000E+00 -0.30693897283E+03  0.30693897283E+03  0.00000000000E+00 0. -1.
      99926    2    1    2    0    0  0.00000000000E+00  0.00000000000E+00 -0.14209642293E+03  0.47178152273E+03  0.44987377317E+03 0.  0.
      99925    2    3    3    0    0 -0.46384456887E+02  0.97711796249E+02 -0.84515257071E+02  0.29667523579E+03  0.26300998818E+03 0.  0.
         25    1    3    3    0    0  0.46384456887E+02 -0.97711796249E+02 -0.57581165855E+02  0.17510628695E+03  0.12509000000E+03 0.  0.
         25    1    4    4    0    0 -0.49288187907E+02  0.54022354424E+02 -0.76620591730E+02  0.16390839949E+03  0.12509000000E+03 0.  0.
         25    1    4    4    0    0  0.29037310204E+01  0.43689441824E+02 -0.78946653413E+01  0.13276683630E+03  0.12509000000E+03 0.  0.
<mgrwt>
<rscale>  2 0.44987377E+03</rscale>
<asrwt>0</asrwt>
<pdfrwt beam="1">  1       21 0.24241552E-01 0.44987377E+03</pdfrwt>
<pdfrwt beam="2">  1       21 0.45138084E-01 0.44987377E+03</pdfrwt>
<totfact> 0.70112480E+04</totfact>
</mgrwt>
</event>
<event>
 7    0  0.4725730E-002  0.4656946E+03  0.7546771E-02  0.1023142E+00
         21   -1    0    0  502  501  0.00000000000E+00  0.00000000000E+00  0.28684372244E+04  0.28684372244E+04  0.00000000000E+00 0. -1.
         21   -1    0    0  501  502 -0.00000000000E+00 -0.00000000000E+00 -0.18901538032E+02  0.18901538032E+02  0.00000000000E+00 0. -1.
      99926    2    1    2    0    0  0.17763568394E-14  0.00000000000E+00  0.28495356864E+04  0.28873387624E+04  0.46569464369E+03 0.  0.
      99925    2    3    3    0    0 -0.15662807430E+02 -0.11039919177E+03  0.20971789056E+04  0.21165459636E+04  0.26300978844E+03 0.  0.
         25    1    3    3    0    0  0.15662807430E+02  0.11039919177E+03  0.75235678074E+03  0.77079279882E+03  0.12509000000E+03 0.  0.
         25    1    4    4    0    0 -0.13643594541E+02 -0.91725639867E+02  0.13179670833E+04  0.13271339350E+04  0.12509000000E+03 0.  0.
         25    1    4    4    0    0 -0.20192128882E+01 -0.18673551899E+02  0.77921182235E+03  0.78941202863E+03  0.12509000000E+03 0.  0.
<mgrwt>
<rscale>  2 0.46569464E+03</rscale>
<asrwt>0</asrwt>
<pdfrwt beam="1">  1       21 0.42182870E+00 0.46569464E+03</pdfrwt>
<pdfrwt beam="2">  1       21 0.27796399E-02 0.46569464E+03</pdfrwt>
<totfact> 0.36148159E+03</totfact>
</mgrwt>
</event>
<event>
 7    0  0.4725730E-002  0.4459277E+03  0.7546771E-02  0.1028943E+00
         21   -1    0    0  502  501  0.00000000000E+00  0.00000000000E+00  0.11249081865E+04  0.11249081865E+04  0.00000000000E+00 0.  1.
         21   -1    0    0  501  502 -0.00000000000E+00 -0.00000000000E+00 -0.44192841278E+02  0.44192841278E+02  0.00000000000E+00 0.  1.
      99926    2    1    2    0    0 -0.71054273576E-14 -0.71054273576E-14  0.10807153453E+04  0.11691010278E+04  0.44592774724E+03 0.  0.
      99925    2    3    3    0    0  0.33060984162E+02  0.49747329329E+02  0.91019003102E+03  0.94934157672E+03  0.26312679695E+03 0.  0.
         25    1    3    3    0    0 -0.33060984162E+02 -0.49747329329E+02  0.17052531423E+03  0.21975945109E+03  0.12509000000E+03 0.  0.
         25    1    4    4    0    0  0.35334102853E+02  0.56391069621E+02  0.55108692905E+03  0.56901033649E+03  0.12509000000E+03 0.  0.
         25    1    4    4    0    0 -0.22731186918E+01 -0.66437402923E+01  0.35910310197E+03  0.38033124023E+03  0.12509000000E+03 0.  0.
<mgrwt>
<rscale>  2 0.44592775E+03</rscale>
<asrwt>0</asrwt>
<pdfrwt beam="1">  1       21 0.16542766E+00 0.44592775E+03</pdfrwt>
<pdfrwt beam="2">  1       21 0.64989480E-02 0.44592775E+03</pdfrwt>
<totfact> 0.35601989E+04</totfact>
</mgrwt>
</event>
<event>
 7    0  0.4725730E-002  0.4533369E+03  0.7546771E-02  0.1026732E+00
         21   -1    0    0  502  501  0.00000000000E+00  0.00000000000E+00  0.15541696165E+03  0.15541696165E+03  0.00000000000E+00 0.  1.
         21   -1    0    0  501  502 -0.00000000000E+00 -0.00000000000E+00 -0.33058544639E+03  0.33058544639E+03  0.00000000000E+00 0.  1.
      99926    2    1    2    0    0  0.00000000000E+00  0.00000000000E+00 -0.17516848474E+03  0.48600240805E+03  0.45333689744E+03 0.  0.
      99925    2    3    3    0    0  0.99093937538E+02 -0.16059610033E+02 -0.57113015354E+02  0.28684889569E+03  0.26256974865E+03 0.  0.
         25    1    4    4    0    0  0.16865550675E+02 -0.52665543691E+01 -0.19002102599E+00  0.12633181548E+03  0.12509000000E+03 0.  0.
         25    1    3    3    0    0 -0.99093937538E+02  0.16059610033E+02 -0.11805546938E+03  0.19915351235E+03  0.12509000000E+03 0.  0.
         25    1    4    4    0    0  0.82228386863E+02 -0.10793055663E+02 -0.56922994328E+02  0.16051708021E+03  0.12509000000E+03 0.  0.
<mgrwt>
<rscale>  2 0.45333690E+03</rscale>
<asrwt>0</asrwt>
<pdfrwt beam="1">  1       21 0.22855436E-01 0.45333690E+03</pdfrwt>
<pdfrwt beam="2">  1       21 0.48615507E-01 0.45333690E+03</pdfrwt>
<totfact> 0.67147858E+04</totfact>
</mgrwt>
</event>
<event>
 7    0  0.4725730E-002  0.4536687E+03  0.7546771E-02  0.1026634E+00
         21   -1    0    0  502  501  0.00000000000E+00  0.00000000000E+00  0.34759592249E+03  0.34759592249E+03  0.00000000000E+00 0.  1.
         21   -1    0    0  501  502 -0.00000000000E+00 -0.00000000000E+00 -0.14802766244E+03  0.14802766244E+03  0.00000000000E+00 0.  1.
      99926    2    1    2    0    0  0.00000000000E+00  0.00000000000E+00  0.19956826005E+03  0.49562358492E+03  0.45366865388E+03 0.  0.
      99925    2    3    3    0    0  0.29207174629E+02 -0.55695726244E+02  0.24412233202E+02  0.27138662362E+03  0.26286815969E+03 0.  0.
         25    1    4    4    0    0  0.92709705103E+01 -0.67500654730E+02  0.22111371826E+02  0.14414822284E+03  0.12509000000E+03 0.  0.
         25    1    3    3    0    0 -0.29207174629E+02  0.55695726244E+02  0.17515602685E+03  0.22423696130E+03  0.12509000000E+03 0.  0.
         25    1    4    4    0    0  0.19936204119E+02  0.11804928487E+02  0.23008613768E+01  0.12723840078E+03  0.12509000000E+03 0.  0.
<mgrwt>
<rscale>  2 0.45366865E+03</rscale>
<asrwt>0</asrwt>
<pdfrwt beam="1">  1       21 0.51117047E-01 0.45366865E+03</pdfrwt>
<pdfrwt beam="2">  1       21 0.21768774E-01 0.45366865E+03</pdfrwt>
<totfact> 0.66276922E+04</totfact>
</mgrwt>
</event>
<event>
 7    0  0.4725730E-002  0.4588399E+03  0.7546771E-02  0.1025118E+00
         21   -1    0    0  502  501  0.00000000000E+00  0.00000000000E+00  0.88595622397E+03  0.88595622397E+03  0.00000000000E+00 0.  1.
         21   -1    0    0  501  502 -0.00000000000E+00 -0.00000000000E+00 -0.59408709184E+02  0.59408709184E+02  0.00000000000E+00 0.  1.
      99926    2    1    2    0    0  0.00000000000E+00 -0.37747582837E-14  0.82654751479E+03  0.94536493316E+03  0.45883990960E+03 0.  0.
      99925    2    3    3    0    0 -0.13578643116E+02  0.12017382711E+01  0.75721409210E+03  0.80169706853E+03  0.26298133906E+03 0.  0.
         25    1    4    4    0    0  0.59900632687E+01 -0.33617127302E+02  0.32276745464E+03  0.34783951757E+03  0.12509000000E+03 0.  0.
         25    1    3    3    0    0  0.13578643116E+02 -0.12017382711E+01  0.69333422690E+02  0.14366786462E+03  0.12509000000E+03 0.  0.
         25    1    4    4    0    0 -0.19568706385E+02  0.34818865573E+02  0.43444663746E+03  0.45385755096E+03  0.12509000000E+03 0.  0.
<mgrwt>
<rscale>  2 0.45883991E+03</rscale>
<asrwt>0</asrwt>
<pdfrwt beam="1">  1       21 0.13028767E+00 0.45883991E+03</pdfrwt>
<pdfrwt beam="2">  1       21 0.87365754E-02 0.45883991E+03</pdfrwt>
<totfact> 0.40110951E+04</totfact>
</mgrwt>
</event>
<event>
 7    0  0.4725730E-002  0.4607097E+03  0.7546771E-02  0.1024576E+00
         21   -1    0    0  502  501  0.00000000000E+00  0.00000000000E+00  0.13343930945E+03  0.13343930945E+03  0.00000000000E+00 0. -1.
         21   -1    0    0  501  502 -0.00000000000E+00 -0.00000000000E+00 -0.39765913056E+03  0.39765913056E+03  0.00000000000E+00 0. -1.
      99926    2    1    2    0    0  0.00000000000E+00  0.14210854715E-13 -0.26421982111E+03  0.53109844001E+03  0.46070971241E+03 0.  0.
      99925    2    3    3    0    0  0.60332213339E+02  0.95730669842E+02 -0.12514254936E+03  0.31247929004E+03  0.26301770269E+03 0.  0.
         25    1    3    3    0    0 -0.60332213339E+02 -0.95730669842E+02 -0.13907727174E+03  0.21861914996E+03  0.12509000000E+03 0.  0.
         25    1    4    4    0    0  0.14084628276E+02  0.44968372244E+02 -0.10148727292E+03  0.16783237447E+03  0.12509000000E+03 0.  0.
         25    1    4    4    0    0  0.46247585063E+02  0.50762297598E+02 -0.23655276448E+02  0.14464691557E+03  0.12509000000E+03 0.  0.
<mgrwt>
<rscale>  2 0.46070971E+03</rscale>
<asrwt>0</asrwt>
<pdfrwt beam="1">  1       21 0.19623428E-01 0.46070971E+03</pdfrwt>
<pdfrwt beam="2">  1       21 0.58479284E-01 0.46070971E+03</pdfrwt>
<totfact> 0.60354104E+04</totfact>
</mgrwt>
</event>
<event>
 7    0  0.4725730E-002  0.4209635E+03  0.7546771E-02  0.1036753E+00
         21   -1    0    0  502  501  0.00000000000E+00  0.00000000000E+00  0.84800335274E+03  0.84800335274E+03  0.00000000000E+00 0. -1.
         21   -1    0    0  501  502 -0.00000000000E+00 -0.00000000000E+00 -0.52243387034E+02  0.52243387034E+02  0.00000000000E+00 0. -1.
      99926    2    1    2    0    0  0.00000000000E+00  0.00000000000E+00  0.79575996570E+03  0.90024673977E+03  0.42096350133E+03 0.  0.
      99925    2    3    3    0    0  0.70213343576E+02  0.86993141780E+01  0.58339479860E+03  0.64382508706E+03  0.26297463756E+03 0.  0.
         25    1    4    4    0    0  0.38310942022E+02 -0.29145013987E+02  0.23782085420E+03  0.27298979269E+03  0.12509000000E+03 0.  0.
         25    1    3    3    0    0 -0.70213343576E+02 -0.86993141780E+01  0.21236516710E+03  0.25642165271E+03  0.12509000000E+03 0.  0.
         25    1    4    4    0    0  0.31902401553E+02  0.37844328165E+02  0.34557394440E+03  0.37083529437E+03  0.12509000000E+03 0.  0.
<mgrwt>
<rscale>  2 0.42096350E+03</rscale>
<asrwt>0</asrwt>
<pdfrwt beam="1">  1       21 0.12470637E+00 0.42096350E+03</pdfrwt>
<pdfrwt beam="2">  1       21 0.76828516E-02 0.42096350E+03</pdfrwt>
<totfact> 0.56941862E+04</totfact>
</mgrwt>
</event>
<event>
 7    0  0.4725730E-002  0.4473639E+03  0.7546771E-02  0.1028511E+00
         21   -1    0    0  502  501  0.00000000000E+00  0.00000000000E+00  0.14338379892E+03  0.14338379892E+03  0.00000000000E+00 0.  1.
         21   -1    0    0  501  502 -0.00000000000E+00 -0.00000000000E+00 -0.34894879369E+03  0.34894879369E+03  0.00000000000E+00 0.  1.
      99926    2    1    2    0    0  0.00000000000E+00  0.00000000000E+00 -0.20556499477E+03  0.49233259260E+03  0.44736385042E+03 0.  0.
      99925    2    3    3    0    0 -0.10251300147E+03 -0.22305305457E+02 -0.14586549573E+03  0.31849939552E+03  0.26298037945E+03 0.  0.
         25    1    4    4    0    0 -0.10614178736E+02  0.28400315047E+01 -0.57257810731E+02  0.13800975168E+03  0.12509000000E+03 0.  0.
         25    1    3    3    0    0  0.10251300147E+03  0.22305305457E+02 -0.59699499043E+02  0.17383319708E+03  0.12509000000E+03 0.  0.
         25    1    4    4    0    0 -0.91898822738E+02 -0.25145336962E+02 -0.88607684998E+02  0.18048964384E+03  0.12509000000E+03 0.  0.
<mgrwt>
<rscale>  2 0.44736385E+03</rscale>
<asrwt>0</asrwt>
<pdfrwt beam="1">  1       21 0.21085853E-01 0.44736385E+03</pdfrwt>
<pdfrwt beam="2">  1       21 0.51315998E-01 0.44736385E+03</pdfrwt>
<totfact> 0.69958317E+04</totfact>
</mgrwt>
</event>
<event>
 7    0  0.4725730E-002  0.4569499E+03  0.7546771E-02  0.1025670E+00
         21   -1    0    0  502  501  0.00000000000E+00  0.00000000000E+00  0.13957921274E+03  0.13957921274E+03  0.00000000000E+00 0. -1.
         21   -1    0    0  501  502 -0.00000000000E+00 -0.00000000000E+00 -0.37398695813E+03  0.37398695813E+03  0.00000000000E+00 0. -1.
      99926    2    1    2    0    0  0.00000000000E+00  0.00000000000E+00 -0.23440774538E+03  0.51356617087E+03  0.45694991056E+03 0.  0.
      99925    2    3    3    0    0 -0.43530465669E+02  0.98335779365E+02 -0.10160144820E+03  0.30178834479E+03  0.26303711493E+03 0.  0.
         25    1    4    4    0    0 -0.56809682291E+02  0.59784870488E+02 -0.33046132433E+02  0.15343117581E+03  0.12509000000E+03 0.  0.
         25    1    4    4    0    0  0.13279216623E+02  0.38550908878E+02 -0.68555315765E+02  0.14835716898E+03  0.12509000000E+03 0.  0.
         25    1    3    3    0    0  0.43530465669E+02 -0.98335779365E+02 -0.13280629719E+03  0.21177782607E+03  0.12509000000E+03 0.  0.
<mgrwt>
<rscale>  2 0.45694991E+03</rscale>
<asrwt>0</asrwt>
<pdfrwt beam="1">  1       21 0.20526355E-01 0.45694991E+03</pdfrwt>
<pdfrwt beam="2">  1       21 0.54998082E-01 0.45694991E+03</pdfrwt>
<totfact> 0.63341885E+04</totfact>
</mgrwt>
</event>
<event>
 7    0  0.4725730E-002  0.4559625E+03  0.7546771E-02  0.1025959E+00
         21   -1    0    0  502  501  0.00000000000E+00  0.00000000000E+00  0.18991126508E+03  0.18991126508E+03  0.00000000000E+00 0. -1.
         21   -1    0    0  501  502 -0.00000000000E+00 -0.00000000000E+00 -0.27368278863E+03  0.27368278863E+03  0.00000000000E+00 0. -1.
      99926    2    1    2    0    0 -0.35527136788E-14  0.00000000000E+00 -0.83771523550E+02  0.46359405372E+03  0.45596247487E+03 0.  0.
      99925    2    3    3    0    0 -0.18614735236E+02  0.11245222854E+03 -0.56008790333E+02  0.29209976948E+03  0.26304615310E+03 0.  0.
         25    1    4    4    0    0  0.51083526815E+01  0.86049321284E+02 -0.37450675193E+01  0.15196089823E+03  0.12509000000E+03 0.  0.
         25    1    4    4    0    0 -0.23723087918E+02  0.26402907255E+02 -0.52263722814E+02  0.14013887125E+03  0.12509000000E+03 0.  0.
         25    1    3    3    0    0  0.18614735236E+02 -0.11245222854E+03 -0.27762733217E+02  0.17149428424E+03  0.12509000000E+03 0.  0.
<mgrwt>
<rscale>  2 0.45596247E+03</rscale>
<asrwt>0</asrwt>
<pdfrwt beam="1">  1       21 0.27928127E-01 0.45596247E+03</pdfrwt>
<pdfrwt beam="2">  1       21 0.40247469E-01 0.45596247E+03</pdfrwt>
<totfact> 0.67397497E+04</totfact>
</mgrwt>
</event>
<event>
 7    0  0.4725730E-002  0.4479987E+03  0.7546771E-02  0.1028321E+00
         21   -1    0    0  502  501  0.00000000000E+00  0.00000000000E+00  0.64281286740E+02  0.64281286740E+02  0.00000000000E+00 0.  1.
         21   -1    0    0  501  502 -0.00000000000E+00 -0.00000000000E+00 -0.78056482272E+03  0.78056482272E+03  0.00000000000E+00 0.  1.
      99926    2    1    2    0    0  0.35527136788E-14  0.00000000000E+00 -0.71628353598E+03  0.84484610946E+03  0.44799871066E+03 0.  0.
      99925    2    3    3    0    0 -0.26968018549E+02  0.30447715393E+02 -0.26846215240E+03  0.37810652780E+03  0.26313168128E+03 0.  0.
         25    1    3    3    0    0  0.26968018549E+02 -0.30447715393E+02 -0.44782138358E+03  0.46673958166E+03  0.12509000000E+03 0.  0.
         25    1    4    4    0    0  0.26133768283E+02  0.63255557034E+01 -0.12033425612E+03  0.17564403718E+03  0.12509000000E+03 0.  0.
         25    1    4    4    0    0 -0.53101786832E+02  0.24122159690E+02 -0.14812789627E+03  0.20246249062E+03  0.12509000000E+03 0.  0.
<mgrwt>
<rscale>  2 0.44799871E+03</rscale>
<asrwt>0</asrwt>
<pdfrwt beam="1">  1       21 0.94531312E-02 0.44799871E+03</pdfrwt>
<pdfrwt beam="2">  1       21 0.11478894E+00 0.44799871E+03</pdfrwt>
<totfact> 0.48267778E+04</totfact>
</mgrwt>
</event>
<event>
 7    0  0.4725730E-002  0.4508183E+03  0.7546771E-02  0.1027478E+00
         21   -1    0    0  502  501  0.00000000000E+00  0.00000000000E+00  0.12167544434E+03  0.12167544434E+03  0.00000000000E+00 0. -1.
         21   -1    0    0  501  502 -0.00000000000E+00 -0.00000000000E+00 -0.41758041776E+03  0.41758041776E+03  0.00000000000E+00 0. -1.
      99926    2    1    2    0    0  0.00000000000E+00 -0.14210854715E-13 -0.29590497341E+03  0.53925586210E+03  0.45081829102E+03 0.  0.
      99925    2    3    3    0    0  0.16372236504E+02  0.10670895834E+03 -0.16755102872E+03  0.33002609573E+03  0.26303806705E+03 0.  0.
         25    1    4    4    0    0  0.19655384967E+02  0.81184469823E+02 -0.12449683501E+03  0.19525425047E+03  0.12509000000E+03 0.  0.
         25    1    3    3    0    0 -0.16372236504E+02 -0.10670895834E+03 -0.12835394469E+03  0.20922976637E+03  0.12509000000E+03 0.  0.
         25    1    4    4    0    0 -0.32831484635E+01  0.25524488519E+02 -0.43054193707E+02  0.13477184526E+03  0.12509000000E+03 0.  0.
<mgrwt>
<rscale>  2 0.45081829E+03</rscale>
<asrwt>0</asrwt>
<pdfrwt beam="1">  1       21 0.17893448E-01 0.45081829E+03</pdfrwt>
<pdfrwt beam="2">  1       21 0.61408885E-01 0.45081829E+03</pdfrwt>
<totfact> 0.64696768E+04</totfact>
</mgrwt>
</event>
<event>
 7    0  0.4725730E-002  0.4630757E+03  0.7546771E-02  0.1023893E+00
         21   -1    0    0  502  501  0.00000000000E+00  0.00000000000E+00  0.28794372892E+03  0.28794372892E+03  0.00000000000E+00 0. -1.
         21   -1    0    0  501  502 -0.00000000000E+00 -0.00000000000E+00 -0.18618145770E+03  0.18618145770E+03  0.00000000000E+00 0. -1.
      99926    2    1    2    0    0  0.00000000000E+00  0.00000000000E+00  0.10176227122E+03  0.47412518662E+03  0.46307573111E+03 0.  0.
      99925    2    3    3    0    0  0.85387954642E+02  0.10866703457E+02  0.15003114150E+03  0.31479352003E+03  0.26301412279E+03 0.  0.
         25    1    3    3    0    0 -0.85387954642E+02 -0.10866703457E+02 -0.48268870277E+02  0.15933166659E+03  0.12509000000E+03 0.  0.
         25    1    4    4    0    0  0.52884648693E+02 -0.27326136143E+01  0.32726124369E+02  0.13972387255E+03  0.12509000000E+03 0.  0.
         25    1    4    4    0    0  0.32503305949E+02  0.13599317071E+02  0.11730501713E+03  0.17506964747E+03  0.12509000000E+03 0.  0.
<mgrwt>
<rscale>  2 0.46307573E+03</rscale>
<asrwt>0</asrwt>
<pdfrwt beam="1">  1       21 0.42344666E-01 0.46307573E+03</pdfrwt>
<pdfrwt beam="2">  1       21 0.27379626E-01 0.46307573E+03</pdfrwt>
<totfact> 0.62996190E+04</totfact>
</mgrwt>
</event>
<event>
 7    0  0.4725730E-002  0.4437437E+03  0.7546771E-02  0.1029604E+00
         21   -1    0    0  502  501  0.00000000000E+00  0.00000000000E+00  0.98328879061E+03  0.98328879061E+03  0.00000000000E+00 0.  1.
         21   -1    0    0  501  502 -0.00000000000E+00 -0.00000000000E+00 -0.50063736673E+02  0.50063736673E+02  0.00000000000E+00 0.  1.
      99926    2    1    2    0    0  0.00000000000E+00 -0.14210854715E-13  0.93322505393E+03  0.10333525273E+04  0.44374366964E+03 0.  0.
      99925    2    3    3    0    0 -0.66929084765E+02  0.76350457471E+02  0.62131509085E+03  0.68229095445E+03  0.26302016970E+03 0.  0.
         25    1    4    4    0    0 -0.29131918886E+02  0.56603026433E+01  0.22643464713E+03  0.26038599280E+03  0.12509000000E+03 0.  0.
         25    1    3    3    0    0  0.66929084765E+02 -0.76350457471E+02  0.31190996308E+03  0.35106157283E+03  0.12509000000E+03 0.  0.
         25    1    4    4    0    0 -0.37797165879E+02  0.70690154828E+02  0.39488044372E+03  0.42190496166E+03  0.12509000000E+03 0.  0.
<mgrwt>
<rscale>  2 0.44374367E+03</rscale>
<asrwt>0</asrwt>
<pdfrwt beam="1">  1       21 0.14460128E+00 0.44374367E+03</pdfrwt>
<pdfrwt beam="2">  1       21 0.73623148E-02 0.44374367E+03</pdfrwt>
<totfact> 0.41415625E+04</totfact>
</mgrwt>
</event>
<event>
 7    0  0.4725730E-002  0.4433665E+03  0.7546771E-02  0.1029719E+00
         21   -1    0    0  502  501  0.00000000000E+00  0.00000000000E+00  0.11286058622E+04  0.11286058622E+04  0.00000000000E+00 0. -1.
         21   -1    0    0  501  502 -0.00000000000E+00 -0.00000000000E+00 -0.43543507730E+02  0.43543507730E+02  0.00000000000E+00 0. -1.
      99926    2    1    2    0    0 -0.14210854715E-13 -0.14210854715E-13  0.10850623545E+04  0.11721493699E+04  0.44336647634E+03 0.  0.
      99925    2    3    3    0    0  0.72765318770E+02  0.70847907494E+02  0.71084942579E+03  0.76472202462E+03  0.26301834763E+03 0.  0.
         25    1    4    4    0    0  0.19479779308E+02 -0.82061374321E+00  0.28039929400E+03  0.30765468855E+03  0.12509000000E+03 0.  0.
         25    1    4    4    0    0  0.53285539462E+02  0.71668521238E+02  0.43045013179E+03  0.45706733608E+03  0.12509000000E+03 0.  0.
         25    1    3    3    0    0 -0.72765318770E+02 -0.70847907494E+02  0.37421292869E+03  0.40742734532E+03  0.12509000000E+03 0.  0.
<mgrwt>
<rscale>  2 0.44336648E+03</rscale>
<asrwt>0</asrwt>
<pdfrwt beam="1">  1       21 0.16597143E+00 0.44336648E+03</pdfrwt>
<pdfrwt beam="2">  1       21 0.64034578E-02 0.44336648E+03</pdfrwt>
<totfact> 0.36225433E+04</totfact>
</mgrwt>
</event>
<event>
 6    0  0.4725730E-002  0.4494371E+03  0.7546771E-02  0.1027890E+00
         21   -1    0    0  502  501  0.00000000000E+00  0.00000000000E+00  0.31089084053E+03  0.31089084053E+03  0.00000000000E+00 0.  1.
         21   -1    0    0  501  502 -0.00000000000E+00 -0.00000000000E+00 -0.16243136951E+03  0.16243136951E+03  0.00000000000E+00 0.  1.
      99926    2    1    2    0    0  0.71054273576E-14  0.00000000000E+00  0.14845947102E+03  0.47332221003E+03  0.44943709235E+03 0.  0.
         25    1    3    3    0    0  0.70339265503E+02 -0.32773784255E+02  0.87050940532E+02  0.17101785741E+03  0.12509000000E+03 0.  0.
         25    1    3    3    0    0 -0.39825469689E+02  0.17355349664E+02 -0.39284471249E+02  0.13812332887E+03  0.12509000000E+03 0.  0.
         25    1    3    3    0    0 -0.30513795814E+02  0.15418434591E+02  0.10069300174E+03  0.16418102375E+03  0.12509000000E+03 0.  0.
<mgrwt>
<rscale>  2 0.44943709E+03</rscale>
<asrwt>0</asrwt>
<pdfrwt beam="1">  1       21 0.45719241E-01 0.44943709E+03</pdfrwt>
<pdfrwt beam="2">  1       21 0.23886966E-01 0.44943709E+03</pdfrwt>
<totfact> 0.70239693E+04</totfact>
</mgrwt>
</event>
<event>
 7    0  0.4725730E-002  0.3951132E+03  0.7546771E-02  0.1045485E+00
         21   -1    0    0  502  501  0.00000000000E+00  0.00000000000E+00  0.73565450626E+02  0.73565450626E+02  0.00000000000E+00 0.  1.
         21   -1    0    0  501  502 -0.00000000000E+00 -0.00000000000E+00 -0.53052906660E+03  0.53052906660E+03  0.00000000000E+00 0.  1.
      99926    2    1    2    0    0  0.17763568394E-14  0.88817841970E-15 -0.45696361597E+03  0.60409451722E+03  0.39511319823E+03 0.  0.
      99925    2    3    3    0    0  0.15458547321E+02  0.49760155119E+01 -0.25982577377E+03  0.37005485318E+03  0.26299702324E+03 0.  0.
         25    1    3    3    0    0 -0.15458547321E+02 -0.49760155119E+01 -0.19713784220E+03  0.23403966404E+03  0.12509000000E+03 0.  0.
         25    1    4    4    0    0  0.33466398813E+02 -0.26206091763E+02 -0.11312884681E+03  0.17393217981E+03  0.12509000000E+03 0.  0.
         25    1    4    4    0    0 -0.18007851493E+02  0.31182107275E+02 -0.14669692696E+03  0.19612267337E+03  0.12509000000E+03 0.  0.
<mgrwt>
<rscale>  2 0.39511320E+03</rscale>
<asrwt>0</asrwt>
<pdfrwt beam="1">  1       21 0.10818449E-01 0.39511320E+03</pdfrwt>
<pdfrwt beam="2">  1       21 0.78018981E-01 0.39511320E+03</pdfrwt>
<totfact> 0.96640955E+04</totfact>
</mgrwt>
</event>
<event>
 7    0  0.4725730E-002  0.4518132E+03  0.7546771E-02  0.1027183E+00
         21   -1    0    0  502  501  0.00000000000E+00  0.00000000000E+00  0.89065589434E+02  0.89065589434E+02  0.00000000000E+00 0.  1.
         21   -1    0    0  501  502 -0.00000000000E+00 -0.00000000000E+00 -0.57299109108E+03  0.57299109108E+03  0.00000000000E+00 0.  1.
      99926    2    1    2    0    0  0.00000000000E+00 -0.88817841970E-15 -0.48392550165E+03  0.66205668052E+03  0.45181318824E+03 0.  0.
      99925    2    3    3    0    0 -0.55278773087E+02  0.58164109353E+01 -0.44477376866E+03  0.51968414213E+03  0.26297971197E+03 0.  0.
         25    1    4    4    0    0  0.94386099251E+01  0.91305759019E+01 -0.17736958944E+03  0.21743949533E+03  0.12509000000E+03 0.  0.
         25    1    4    4    0    0 -0.64717383012E+02 -0.33141649666E+01 -0.26740417922E+03  0.30224464680E+03  0.12509000000E+03 0.  0.
         25    1    3    3    0    0  0.55278773087E+02 -0.58164109353E+01 -0.39151732990E+02  0.14237253839E+03  0.12509000000E+03 0.  0.
<mgrwt>
<rscale>  2 0.45181319E+03</rscale>
<asrwt>0</asrwt>
<pdfrwt beam="1">  1       21 0.13097881E-01 0.45181319E+03</pdfrwt>
<pdfrwt beam="2">  1       21 0.84263393E-01 0.45181319E+03</pdfrwt>
<totfact> 0.56415824E+04</totfact>
</mgrwt>
</event>
<event>
 7    0  0.4725730E-002  0.4563950E+03  0.7546771E-02  0.1025832E+00
         21   -1    0    0  502  501  0.00000000000E+00  0.00000000000E+00  0.18981527415E+03  0.18981527415E+03  0.00000000000E+00 0. -1.
         21   -1    0    0  501  502 -0.00000000000E+00 -0.00000000000E+00 -0.27434088088E+03  0.27434088088E+03  0.00000000000E+00 0. -1.
      99926    2    1    2    0    0 -0.71054273576E-14 -0.71054273576E-14 -0.84525606733E+02  0.46415615504E+03  0.45639495841E+03 0.  0.
      99925    2    3    3    0    0  0.47732859929E+02  0.57198985736E+02  0.35049709655E+02  0.27575256092E+03  0.26317454820E+03 0.  0.
         25    1    4    4    0    0 -0.87873129534E+01  0.47715813062E+02  0.32889510648E+02  0.13814211413E+03  0.12509000000E+03 0.  0.
         25    1    3    3    0    0 -0.47732859929E+02 -0.57198985736E+02 -0.11957531639E+03  0.18840359411E+03  0.12509000000E+03 0.  0.
         25    1    4    4    0    0  0.56520172883E+02  0.94831726742E+01  0.21601990065E+01  0.13761044679E+03  0.12509000000E+03 0.  0.
<mgrwt>
<rscale>  2 0.45639496E+03</rscale>
<asrwt>0</asrwt>
<pdfrwt beam="1">  1       21 0.27914011E-01 0.45639496E+03</pdfrwt>
<pdfrwt beam="2">  1       21 0.40344247E-01 0.45639496E+03</pdfrwt>
<totfact> 0.67125391E+04</totfact>
</mgrwt>
</event>
<event>
 7    0  0.4725730E-002  0.4538650E+03  0.7546771E-02  0.1026576E+00
         21   -1    0    0  502  501  0.00000000000E+00  0.00000000000E+00  0.53695108480E+03  0.53695108480E+03  0.00000000000E+00 0.  1.
         21   -1    0    0  501  502 -0.00000000000E+00 -0.00000000000E+00 -0.95908850365E+02  0.95908850365E+02  0.00000000000E+00 0.  1.
      99926    2    1    2    0    0  0.00000000000E+00  0.00000000000E+00  0.44104223443E+03  0.63285993516E+03  0.45386500744E+03 0.  0.
      99925    2    3    3    0    0 -0.34498372525E+02 -0.94948756918E+02  0.21060167555E+03  0.35186925307E+03  0.26316059994E+03 0.  0.
         25    1    3    3    0    0  0.34498372525E+02  0.94948756918E+02  0.23044055888E+03  0.28099068210E+03  0.12509000000E+03 0.  0.
         25    1    4    4    0    0 -0.48125436628E+02 -0.51448140108E+02  0.14268663765E+03  0.20241035901E+03  0.12509000000E+03 0.  0.
         25    1    4    4    0    0  0.13627064102E+02 -0.43500616810E+02  0.67915037899E+02  0.14945889405E+03  0.12509000000E+03 0.  0.
<mgrwt>
<rscale>  2 0.45386501E+03</rscale>
<asrwt>0</asrwt>
<pdfrwt beam="1">  1       21 0.78963393E-01 0.45386501E+03</pdfrwt>
<pdfrwt beam="2">  1       21 0.14104243E-01 0.45386501E+03</pdfrwt>
<totfact> 0.57210715E+04</totfact>
</mgrwt>
</event>
<event>
 7    0  0.4725730E-002  0.4549780E+03  0.7546771E-02  0.1026248E+00
         21   -1    0    0  502  501  0.00000000000E+00  0.00000000000E+00  0.12237225453E+03  0.12237225453E+03  0.00000000000E+00 0. -1.
         21   -1    0    0  501  502 -0.00000000000E+00 -0.00000000000E+00 -0.42290011659E+03  0.42290011659E+03  0.00000000000E+00 0. -1.
      99926    2    1    2    0    0  0.00000000000E+00  0.00000000000E+00 -0.30052786206E+03  0.54527237113E+03  0.45497798061E+03 0.  0.
      99925    2    3    3    0    0 -0.38738486653E+02  0.10617057016E+03 -0.18183451050E+03  0.33909652356E+03  0.26296350082E+03 0.  0.
         25    1    3    3    0    0  0.38738486653E+02 -0.10617057016E+03 -0.11869335156E+03  0.20617584757E+03  0.12509000000E+03 0.  0.
         25    1    4    4    0    0  0.97443091008E+01  0.41627898152E+02 -0.53744703200E+02  0.14270190849E+03  0.12509000000E+03 0.  0.
         25    1    4    4    0    0 -0.48482795754E+02  0.64542672008E+02 -0.12808980730E+03  0.19639461507E+03  0.12509000000E+03 0.  0.
<mgrwt>
<rscale>  2 0.45497798E+03</rscale>
<asrwt>0</asrwt>
<pdfrwt beam="1">  1       21 0.17995919E-01 0.45497798E+03</pdfrwt>
<pdfrwt beam="2">  1       21 0.62191195E-01 0.45497798E+03</pdfrwt>
<totfact> 0.62190838E+04</totfact>
</mgrwt>
</event>
<event>
 7    0  0.4725730E-002  0.4600505E+03  0.7546771E-02  0.1024767E+00
         21   -1    0    0  502  501  0.00000000000E+00  0.00000000000E+00  0.52594851330E+03  0.52594851330E+03  0.00000000000E+00 0.  1.
         21   -1    0    0  501  502 -0.00000000000E+00 -0.00000000000E+00 -0.10060228827E+03  0.10060228827E+03  0.00000000000E+00 0.  1.
      99926    2    1    2    0    0 -0.53290705182E-14  0.00000000000E+00  0.42534622503E+03  0.62655080158E+03  0.46005053615E+03 0.  0.
      99925    2    3    3    0    0  0.14188167282E+02  0.79042307271E+02  0.14904813686E+03  0.31280387800E+03  0.26302457786E+03 0.  0.
         25    1    4    4    0    0  0.46315791933E+02  0.45456068510E+02  0.87234360536E+02  0.16573698593E+03  0.12509000000E+03 0.  0.
         25    1    4    4    0    0 -0.32127624652E+02  0.33586238760E+02  0.61813776327E+02  0.14706689207E+03  0.12509000000E+03 0.  0.
         25    1    3    3    0    0 -0.14188167282E+02 -0.79042307271E+02  0.27629808817E+03  0.31374692358E+03  0.12509000000E+03 0.  0.
<mgrwt>
<rscale>  2 0.46005054E+03</rscale>
<asrwt>0</asrwt>
<pdfrwt beam="1">  1       21 0.77345368E-01 0.46005054E+03</pdfrwt>
<pdfrwt beam="2">  1       21 0.14794454E-01 0.46005054E+03</pdfrwt>
<totfact> 0.54852852E+04</totfact>
</mgrwt>
</event>
<event>
 6    0  0.4725730E-002  0.4574777E+03  0.7546771E-02  0.1025515E+00
         21   -1    0    0  502  501  0.00000000000E+00  0.00000000000E+00  0.97662147385E+03  0.97662147385E+03  0.00000000000E+00 0.  1.
         21   -1    0    0  501  502 -0.00000000000E+00 -0.00000000000E+00 -0.53573938573E+02  0.53573938573E+02  0.00000000000E+00 0.  1.
      99926    2    1    2    0    0  0.00000000000E+00  0.00000000000E+00  0.92304753527E+03  0.10301954124E+04  0.45747768841E+03 0.  0.
         25    1    3    3    0    0  0.77846217536E+01 -0.44584662519E+02  0.20069513410E+03  0.24077881431E+03  0.12509000000E+03 0.  0.
         25    1    3    3    0    0 -0.71372775525E+02  0.91280502374E+02  0.39008034405E+03  0.42571867015E+03  0.12509000000E+03 0.  0.
         25    1    3    3    0    0  0.63588153771E+02 -0.46695839855E+02  0.33227205711E+03  0.36369792795E+03  0.12509000000E+03 0.  0.
<mgrwt>
<rscale>  2 0.45747769E+03</rscale>
<asrwt>0</asrwt>
<pdfrwt beam="1">  1       21 0.14362079E+00 0.45747769E+03</pdfrwt>
<pdfrwt beam="2">  1       21 0.78785210E-02 0.45747769E+03</pdfrwt>
<totfact> 0.37286117E+04</totfact>
</mgrwt>
</event>
<event>
 7    0  0.4725730E-002  0.4464114E+03  0.7546771E-02  0.1028798E+00
         21   -1    0    0  502  501  0.00000000000E+00  0.00000000000E+00  0.78926633281E+03  0.78926633281E+03  0.00000000000E+00 0. -1.
         21   -1    0    0  501  502 -0.00000000000E+00 -0.00000000000E+00 -0.63122901303E+02  0.63122901303E+02  0.00000000000E+00 0. -1.
      99926    2    1    2    0    0  0.00000000000E+00  0.00000000000E+00  0.72614343151E+03  0.85238923412E+03  0.44641138349E+03 0.  0.
      99925    2    3    3    0    0 -0.79465469888E+02  0.62457121057E+02  0.51433919029E+03  0.58644901983E+03  0.26298668658E+03 0.  0.
         25    1    3    3    0    0  0.79465469888E+02 -0.62457121057E+02  0.21180424122E+03  0.26594021429E+03  0.12509000000E+03 0.  0.
         25    1    4    4    0    0 -0.66189191481E+02  0.43815837930E+02  0.21379825565E+03  0.26011158941E+03  0.12509000000E+03 0.  0.
         25    1    4    4    0    0 -0.13276278407E+02  0.18641283127E+02  0.30054093464E+03  0.32633743043E+03  0.12509000000E+03 0.  0.
<mgrwt>
<rscale>  2 0.44641138E+03</rscale>
<asrwt>0</asrwt>
<pdfrwt beam="1">  1       21 0.11606857E+00 0.44641138E+03</pdfrwt>
<pdfrwt beam="2">  1       21 0.92827801E-02 0.44641138E+03</pdfrwt>
<totfact> 0.48519811E+04</totfact>
</mgrwt>
</event>
<event>
 7    0  0.4725730E-002  0.4600156E+03  0.7546771E-02  0.1024777E+00
         21   -1    0    0  502  501  0.00000000000E+00  0.00000000000E+00  0.16596930468E+03  0.16596930468E+03  0.00000000000E+00 0.  1.
         21   -1    0    0  501  502 -0.00000000000E+00 -0.00000000000E+00 -0.31875528558E+03  0.31875528558E+03  0.00000000000E+00 0.  1.
      99926    2    1    2    0    0  0.71054273576E-14 -0.14210854715E-13 -0.15278598090E+03  0.48472459026E+03  0.46001562195E+03 0.  0.
      99925    2    3    3    0    0 -0.26750555408E+02  0.83817611777E+02 -0.13146973539E+02  0.27763150796E+03  0.26299320721E+03 0.  0.
         25    1    3    3    0    0  0.26750555408E+02 -0.83817611777E+02 -0.13963900736E+03  0.20709308230E+03  0.12509000000E+03 0.  0.
         25    1    4    4    0    0  0.20715251818E+02  0.46860373102E+02  0.14991957048E+02  0.13600471720E+03  0.12509000000E+03 0.  0.
         25    1    4    4    0    0 -0.47465807227E+02  0.36957238674E+02 -0.28138930587E+02  0.14162679076E+03  0.12509000000E+03 0.  0.
<mgrwt>
<rscale>  2 0.46001562E+03</rscale>
<asrwt>0</asrwt>
<pdfrwt beam="1">  1       21 0.24407251E-01 0.46001562E+03</pdfrwt>
<pdfrwt beam="2">  1       21 0.46875776E-01 0.46001562E+03</pdfrwt>
<totfact> 0.63780386E+04</totfact>
</mgrwt>
</event>
<event>
 7    0  0.4725730E-002  0.4534947E+03  0.7546771E-02  0.1026685E+00
         21   -1    0    0  502  501  0.00000000000E+00  0.00000000000E+00  0.76941997445E+02  0.76941997445E+02  0.00000000000E+00 0.  1.
         21   -1    0    0  501  502 -0.00000000000E+00 -0.00000000000E+00 -0.66822239330E+03  0.66822239330E+03  0.00000000000E+00 0.  1.
      99926    2    1    2    0    0  0.00000000000E+00  0.00000000000E+00 -0.59128039586E+03  0.74516439075E+03  0.45349472181E+03 0.  0.
      99925    2    3    3    0    0 -0.74571845035E+02  0.40358241500E+02 -0.25295370156E+03  0.37462126518E+03  0.26299385823E+03 0.  0.
         25    1    4    4    0    0 -0.20457033834E+02 -0.17486288363E+02 -0.10840402632E+03  0.16769973624E+03  0.12509000000E+03 0.  0.
         25    1    4    4    0    0 -0.54114811201E+02  0.57844529862E+02 -0.14454967524E+03  0.20692152894E+03  0.12509000000E+03 0.  0.
         25    1    3    3    0    0  0.74571845035E+02 -0.40358241500E+02 -0.33832669430E+03  0.37054312557E+03  0.12509000000E+03 0.  0.
<mgrwt>
<rscale>  2 0.45349472E+03</rscale>
<asrwt>0</asrwt>
<pdfrwt beam="1">  1       21 0.11315000E-01 0.45349472E+03</pdfrwt>
<pdfrwt beam="2">  1       21 0.98267997E-01 0.45349472E+03</pdfrwt>
<totfact> 0.51120650E+04</totfact>
</mgrwt>
</event>
<event>
 7    0  0.4725730E-002  0.4503813E+03  0.7546771E-02  0.1027608E+00
         21   -1    0    0  502  501  0.00000000000E+00  0.00000000000E+00  0.22855577229E+02  0.22855577229E+02  0.00000000000E+00 0. -1.
         21   -1    0    0  501  502 -0.00000000000E+00 -0.00000000000E+00 -0.22187507977E+04  0.22187507977E+04  0.00000000000E+00 0. -1.
      99926    2    1    2    0    0  0.00000000000E+00 -0.71054273576E-14 -0.21958952205E+04  0.22416063749E+04  0.45038130605E+03 0.  0.
      99925    2    3    3    0    0  0.15208826470E+02 -0.55340286507E+02 -0.92696916954E+03  0.96523860405E+03  0.26290657229E+03 0.  0.
         25    1    4    4    0    0  0.20323628054E+02  0.93568412659E+01 -0.39620655316E+03  0.41608621847E+03  0.12509000000E+03 0.  0.
         25    1    4    4    0    0 -0.51148015840E+01 -0.64697127773E+02 -0.53076261639E+03  0.54915238558E+03  0.12509000000E+03 0.  0.
         25    1    3    3    0    0 -0.15208826470E+02  0.55340286507E+02 -0.12689260509E+04  0.12763677709E+04  0.12509000000E+03 0.  0.
<mgrwt>
<rscale>  2 0.45038131E+03</rscale>
<asrwt>0</asrwt>
<pdfrwt beam="1">  1       21 0.33611138E-02 0.45038131E+03</pdfrwt>
<pdfrwt beam="2">  1       21 0.32628693E+00 0.45038131E+03</pdfrwt>
<totfact> 0.10523498E+04</totfact>
</mgrwt>
</event>
<event>
 7    0  0.4725730E-002  0.4452603E+03  0.7546771E-02  0.1029145E+00
         21   -1    0    0  502  501  0.00000000000E+00  0.00000000000E+00  0.35557641198E+03  0.35557641198E+03  0.00000000000E+00 0. -1.
         21   -1    0    0  501  502 -0.00000000000E+00 -0.00000000000E+00 -0.13939112036E+03  0.13939112036E+03  0.00000000000E+00 0. -1.
      99926    2    1    2    0    0  0.00000000000E+00  0.00000000000E+00  0.21618529162E+03  0.49496753234E+03  0.44526034829E+03 0.  0.
      99925    2    3    3    0    0 -0.73005463241E+02 -0.61218130845E+02  0.18288901032E+03  0.33423916628E+03  0.26303986955E+03 0.  0.
         25    1    4    4    0    0 -0.46964235192E+02 -0.85976798159E+01  0.51175879433E+02  0.14333889291E+03  0.12509000000E+03 0.  0.
         25    1    4    4    0    0 -0.26041228049E+02 -0.52620451029E+02  0.13171313089E+03  0.19090027337E+03  0.12509000000E+03 0.  0.
         25    1    3    3    0    0  0.73005463241E+02  0.61218130845E+02  0.33296281304E+02  0.16072836606E+03  0.12509000000E+03 0.  0.
<mgrwt>
<rscale>  2 0.44526035E+03</rscale>
<asrwt>0</asrwt>
<pdfrwt beam="1">  1       21 0.52290649E-01 0.44526035E+03</pdfrwt>
<pdfrwt beam="2">  1       21 0.20498694E-01 0.44526035E+03</pdfrwt>
<totfact> 0.70954738E+04</totfact>
</mgrwt>
</event>
<event>
 7    0  0.4725730E-002  0.5374690E+03  0.7546771E-02  0.1004437E+00
         21   -1    0    0  502  501  0.00000000000E+00  0.00000000000E+00  0.24012579579E+03  0.24012579579E+03  0.00000000000E+00 0. -1.
         21   -1    0    0  501  502 -0.00000000000E+00 -0.00000000000E+00 -0.30075169334E+03  0.30075169334E+03  0.00000000000E+00 0. -1.
      99926    2    1    2    0    0  0.00000000000E+00  0.00000000000E+00 -0.60625897553E+02  0.54087748914E+03  0.53746903055E+03 0.  0.
      99925    2    3    3    0    0  0.71709501233E+02  0.10096401412E+03  0.95176740364E+02  0.30580738301E+03  0.26291359585E+03 0.  0.
         25    1    4    4    0    0  0.26739716682E+02  0.90999751059E+02  0.44134184599E+02  0.16306839513E+03  0.12509000000E+03 0.  0.
         25    1    3    3    0    0 -0.71709501233E+02 -0.10096401412E+03 -0.15580263792E+03  0.23507010613E+03  0.12509000000E+03 0.  0.
         25    1    4    4    0    0  0.44969784550E+02  0.99642630568E+01  0.51042555765E+02  0.14273898788E+03  0.12509000000E+03 0.  0.
<mgrwt>
<rscale>  2 0.53746903E+03</rscale>
<asrwt>0</asrwt>
<pdfrwt beam="1">  1       21 0.35312617E-01 0.53746903E+03</pdfrwt>
<pdfrwt beam="2">  1       21 0.44228190E-01 0.53746903E+03</pdfrwt>
<totfact> 0.34078889E+04</totfact>
</mgrwt>
</event>
<event>
 7    0  0.4725730E-002  0.4824159E+03  0.7546771E-02  0.1018473E+00
         21   -1    0    0  502  501  0.00000000000E+00  0.00000000000E+00  0.22505547608E+04  0.22505547608E+04  0.00000000000E+00 0. -1.
         21   -1    0    0  501  502 -0.00000000000E+00 -0.00000000000E+00 -0.25851974233E+02  0.25851974233E+02  0.00000000000E+00 0. -1.
      99926    2    1    2    0    0  0.00000000000E+00  0.00000000000E+00  0.22247027865E+04  0.22764067350E+04  0.48241593542E+03 0.  0.
      99925    2    3    3    0    0  0.77422067684E+02  0.11325758713E+03  0.13317638876E+04  0.13643711858E+04  0.26285399526E+03 0.  0.
         25    1    3    3    0    0 -0.77422067684E+02 -0.11325758713E+03  0.89293889895E+03  0.91203554918E+03  0.12509000000E+03 0.  0.
         25    1    4    4    0    0  0.27355889456E+02  0.68012481868E+02  0.84234839744E+03  0.85473526495E+03  0.12509000000E+03 0.  0.
         25    1    4    4    0    0  0.50066178227E+02  0.45245105259E+02  0.48941549015E+03  0.50963592088E+03  0.12509000000E+03 0.  0.
<mgrwt>
<rscale>  2 0.48241594E+03</rscale>
<asrwt>0</asrwt>
<pdfrwt beam="1">  1       21 0.33096380E+00 0.48241594E+03</pdfrwt>
<pdfrwt beam="2">  1       21 0.38017624E-02 0.48241594E+03</pdfrwt>
<totfact> 0.78819696E+03</totfact>
</mgrwt>
</event>
<event>
 7    0  0.4725730E-002  0.4523488E+03  0.7546771E-02  0.1027024E+00
         21   -1    0    0  502  501  0.00000000000E+00  0.00000000000E+00  0.64535268714E+03  0.64535268714E+03  0.00000000000E+00 0. -1.
         21   -1    0    0  501  502 -0.00000000000E+00 -0.00000000000E+00 -0.79266510286E+02  0.79266510286E+02  0.00000000000E+00 0. -1.
      99926    2    1    2    0    0 -0.57731597281E-14  0.00000000000E+00  0.56608617685E+03  0.72461919742E+03  0.45234878319E+03 0.  0.
      99925    2    3    3    0    0  0.23089136563E+01 -0.71386816610E+02  0.22187672865E+03  0.35148509150E+03  0.26307998435E+03 0.  0.
         25    1    4    4    0    0  0.35434843372E+02 -0.56689623029E+02  0.10464982241E+03  0.17626240357E+03  0.12509000000E+03 0.  0.
         25    1    3    3    0    0 -0.23089136563E+01  0.71386816610E+02  0.34420944820E+03  0.37313410592E+03  0.12509000000E+03 0.  0.
         25    1    4    4    0    0 -0.33125929715E+02 -0.14697193581E+02  0.11722690624E+03  0.17522268793E+03  0.12509000000E+03 0.  0.
<mgrwt>
<rscale>  2 0.45234878E+03</rscale>
<asrwt>0</asrwt>
<pdfrwt beam="1">  1       21 0.94904804E-01 0.45234878E+03</pdfrwt>
<pdfrwt beam="2">  1       21 0.11656840E-01 0.45234878E+03</pdfrwt>
<totfact> 0.52676418E+04</totfact>
</mgrwt>
</event>
<event>
 7    0  0.4725730E-002  0.3957553E+03  0.7546771E-02  0.1045259E+00
         21   -1    0    0  502  501  0.00000000000E+00  0.00000000000E+00  0.17691963559E+03  0.17691963559E+03  0.00000000000E+00 0.  1.
         21   -1    0    0  501  502 -0.00000000000E+00 -0.00000000000E+00 -0.22131840269E+03  0.22131840269E+03  0.00000000000E+00 0.  1.
      99926    2    1    2    0    0  0.00000000000E+00  0.00000000000E+00 -0.44398767104E+02  0.39823803828E+03  0.39575533428E+03 0.  0.
      99925    2    3    3    0    0  0.26844041640E+02  0.23124097467E+02 -0.37275132314E+02  0.26803212164E+03  0.26305219308E+03 0.  0.
         25    1    4    4    0    0  0.14100934856E+02 -0.11937507702E+02  0.15175068228E+02  0.12735435308E+03  0.12509000000E+03 0.  0.
         25    1    4    4    0    0  0.12743106784E+02  0.35061605169E+02 -0.52450200543E+02  0.14067776855E+03  0.12509000000E+03 0.  0.
         25    1    3    3    0    0 -0.26844041640E+02 -0.23124097467E+02 -0.71236347898E+01  0.13020591664E+03  0.12509000000E+03 0.  0.
<mgrwt>
<rscale>  2 0.39575533E+03</rscale>
<asrwt>0</asrwt>
<pdfrwt beam="1">  1       21 0.26017594E-01 0.39575533E+03</pdfrwt>
<pdfrwt beam="2">  1       21 0.32546824E-01 0.39575533E+03</pdfrwt>
<totfact> 0.12061889E+05</totfact>
</mgrwt>
</event>
<event>
 7    0  0.4725730E-002  0.4616985E+03  0.7546771E-02  0.1024290E+00
         21   -1    0    0  502  501  0.00000000000E+00  0.00000000000E+00  0.64462598526E+03  0.64462598526E+03  0.00000000000E+00 0.  1.
         21   -1    0    0  501  502 -0.00000000000E+00 -0.00000000000E+00 -0.82670235585E+02  0.82670235585E+02  0.00000000000E+00 0.  1.
      99926    2    1    2    0    0  0.00000000000E+00  0.00000000000E+00  0.56195574968E+03  0.72729622085E+03  0.46169852530E+03 0.  0.
      99925    2    3    3    0    0  0.57471937522E+01 -0.87781885717E+02  0.47859141409E+03  0.55312443713E+03  0.26297948895E+03 0.  0.
         25    1    4    4    0    0  0.52001500856E+01 -0.68379308009E+02  0.18666887634E+03  0.23493732956E+03  0.12509000000E+03 0.  0.
         25    1    4    4    0    0  0.54704366655E+00 -0.19402577708E+02  0.29192253775E+03  0.31818710757E+03  0.12509000000E+03 0.  0.
         25    1    3    3    0    0 -0.57471937522E+01  0.87781885717E+02  0.83364335587E+02  0.17417178372E+03  0.12509000000E+03 0.  0.
<mgrwt>
<rscale>  2 0.46169853E+03</rscale>
<asrwt>0</asrwt>
<pdfrwt beam="1">  1       21 0.94797936E-01 0.46169853E+03</pdfrwt>
<pdfrwt beam="2">  1       21 0.12157388E-01 0.46169853E+03</pdfrwt>
<totfact> 0.48822730E+04</totfact>
</mgrwt>
</event>
<event>
 7    0  0.4725730E-002  0.4634192E+03  0.7546771E-02  0.1023794E+00
         21   -1    0    0  502  501  0.00000000000E+00  0.00000000000E+00  0.93013204317E+03  0.93013204317E+03  0.00000000000E+00 0. -1.
         21   -1    0    0  501  502 -0.00000000000E+00 -0.00000000000E+00 -0.57722278485E+02  0.57722278485E+02  0.00000000000E+00 0. -1.
      99926    2    1    2    0    0  0.17763568394E-14  0.00000000000E+00  0.87240976469E+03  0.98785432166E+03  0.46341920903E+03 0.  0.
      99925    2    3    3    0    0  0.96831876333E+01 -0.96056378011E+02  0.38983876200E+03  0.48007201336E+03  0.26301004882E+03 0.  0.
         25    1    3    3    0    0 -0.96831876333E+01  0.96056378011E+02  0.48257100269E+03  0.50778230829E+03  0.12509000000E+03 0.  0.
         25    1    4    4    0    0 -0.10380126083E+02 -0.33403831913E+02  0.12708682204E+03  0.18171992582E+03  0.12509000000E+03 0.  0.
         25    1    4    4    0    0  0.20063313717E+02 -0.62652546098E+02  0.26275193996E+03  0.29835208754E+03  0.12509000000E+03 0.  0.
<mgrwt>
<rscale>  2 0.46341921E+03</rscale>
<asrwt>0</asrwt>
<pdfrwt beam="1">  1       21 0.13678412E+00 0.46341921E+03</pdfrwt>
<pdfrwt beam="2">  1       21 0.84885709E-02 0.46341921E+03</pdfrwt>
<totfact> 0.37139226E+04</totfact>
</mgrwt>
</event>
<event>
 7    0  0.4725730E-002  0.4557615E+03  0.7546771E-02  0.1026018E+00
         21   -1    0    0  502  501  0.00000000000E+00  0.00000000000E+00  0.75549831514E+02  0.75549831514E+02  0.00000000000E+00 0. -1.
         21   -1    0    0  501  502 -0.00000000000E+00 -0.00000000000E+00 -0.68735605391E+03  0.68735605391E+03  0.00000000000E+00 0. -1.
      99926    2    1    2    0    0 -0.14210854715E-13  0.00000000000E+00 -0.61180622239E+03  0.76290588542E+03  0.45576149053E+03 0.  0.
      99925    2    3    3    0    0 -0.97989112334E+02  0.52631402745E+02 -0.34356413006E+03  0.44672040363E+03  0.26296554313E+03 0.  0.
         25    1    4    4    0    0 -0.29660733143E+02  0.61790841795E+02 -0.16725849152E+03  0.21981987696E+03  0.12509000000E+03 0.  0.
         25    1    4    4    0    0 -0.68328379191E+02 -0.91594390495E+01 -0.17630563854E+03  0.22690052668E+03  0.12509000000E+03 0.  0.
         25    1    3    3    0    0  0.97989112334E+02 -0.52631402745E+02 -0.26824209234E+03  0.31618548179E+03  0.12509000000E+03 0.  0.
<mgrwt>
<rscale>  2 0.45576149E+03</rscale>
<asrwt>0</asrwt>
<pdfrwt beam="1">  1       21 0.11110269E-01 0.45576149E+03</pdfrwt>
<pdfrwt beam="2">  1       21 0.10108177E+00 0.45576149E+03</pdfrwt>
<totfact> 0.49315557E+04</totfact>
</mgrwt>
</event>
<event>
 7    0  0.4725730E-002  0.4551920E+03  0.7546771E-02  0.1026185E+00
         21   -1    0    0  502  501  0.00000000000E+00  0.00000000000E+00  0.30724409921E+03  0.30724409921E+03  0.00000000000E+00 0.  1.
         21   -1    0    0  501  502 -0.00000000000E+00 -0.00000000000E+00 -0.16859538550E+03  0.16859538550E+03  0.00000000000E+00 0.  1.
      99926    2    1    2    0    0  0.00000000000E+00  0.00000000000E+00  0.13864871370E+03  0.47583948471E+03  0.45519199180E+03 0.  0.
      99925    2    3    3    0    0  0.15600826810E+02  0.20629819321E+02  0.20248443613E+03  0.33304073542E+03  0.26314864493E+03 0.  0.
         25    1    3    3    0    0 -0.15600826810E+02 -0.20629819321E+02 -0.63835722428E+02  0.14279874929E+03  0.12509000000E+03 0.  0.
         25    1    4    4    0    0  0.33392709698E+02  0.20367651735E+01  0.63255699523E+02  0.14411111371E+03  0.12509000000E+03 0.  0.
         25    1    4    4    0    0 -0.17791882888E+02  0.18593054147E+02  0.13922873661E+03  0.18892962170E+03  0.12509000000E+03 0.  0.
<mgrwt>
<rscale>  2 0.45519199E+03</rscale>
<asrwt>0</asrwt>
<pdfrwt beam="1">  1       21 0.45182956E-01 0.45519199E+03</pdfrwt>
<pdfrwt beam="2">  1       21 0.24793439E-01 0.45519199E+03</pdfrwt>
<totfact> 0.66902229E+04</totfact>
</mgrwt>
</event>
<event>
 7    0  0.4725730E-002  0.4466133E+03  0.7546771E-02  0.1028737E+00
         21   -1    0    0  502  501  0.00000000000E+00  0.00000000000E+00  0.23266335662E+03  0.23266335662E+03  0.00000000000E+00 0. -1.
         21   -1    0    0  501  502 -0.00000000000E+00 -0.00000000000E+00 -0.21432625901E+03  0.21432625901E+03  0.00000000000E+00 0. -1.
      99926    2    1    2    0    0  0.00000000000E+00  0.00000000000E+00  0.18337097608E+02  0.44698961563E+03  0.44661333090E+03 0.  0.
      99925    2    3    3    0    0 -0.36727887837E+02 -0.38216040321E+02 -0.79181246967E+02  0.27975702577E+03  0.26303026464E+03 0.  0.
         25    1    4    4    0    0  0.72133432879E+01 -0.50508324487E+02 -0.43088895599E+02  0.14180015581E+03  0.12509000000E+03 0.  0.
         25    1    4    4    0    0 -0.43941231125E+02  0.12292284165E+02 -0.36092351367E+02  0.13795686996E+03  0.12509000000E+03 0.  0.
         25    1    3    3    0    0  0.36727887837E+02  0.38216040321E+02  0.97518344575E+02  0.16723258986E+03  0.12509000000E+03 0.  0.
<mgrwt>
<rscale>  2 0.44661333E+03</rscale>
<asrwt>0</asrwt>
<pdfrwt beam="1">  1       21 0.34215200E-01 0.44661333E+03</pdfrwt>
<pdfrwt beam="2">  1       21 0.31518568E-01 0.44661333E+03</pdfrwt>
<totfact> 0.73963509E+04</totfact>
</mgrwt>
</event>
<event>
 7    0  0.4725730E-002  0.4517320E+03  0.7546771E-02  0.1027207E+00
         21   -1    0    0  502  501  0.00000000000E+00  0.00000000000E+00  0.25102248024E+03  0.25102248024E+03  0.00000000000E+00 0.  1.
         21   -1    0    0  501  502 -0.00000000000E+00 -0.00000000000E+00 -0.20323060474E+03  0.20323060474E+03  0.00000000000E+00 0.  1.
      99926    2    1    2    0    0  0.00000000000E+00  0.35527136788E-14  0.47791875508E+02  0.45425308498E+03  0.45173200224E+03 0.  0.
      99925    2    3    3    0    0  0.10101681543E+03  0.19247557716E+02 -0.87671874093E+01  0.28272669874E+03  0.26321598950E+03 0.  0.
         25    1    4    4    0    0  0.98702233144E+01 -0.37188591595E+01 -0.12960336942E+02  0.12620114760E+03  0.12509000000E+03 0.  0.
         25    1    3    3    0    0 -0.10101681543E+03 -0.19247557716E+02  0.56559062918E+02  0.17152638624E+03  0.12509000000E+03 0.  0.
         25    1    4    4    0    0  0.91146592114E+02  0.22966416875E+02  0.41931495328E+01  0.15652555114E+03  0.12509000000E+03 0.  0.
<mgrwt>
<rscale>  2 0.45173200E+03</rscale>
<asrwt>0</asrwt>
<pdfrwt beam="1">  1       21 0.36915071E-01 0.45173200E+03</pdfrwt>
<pdfrwt beam="2">  1       21 0.29886854E-01 0.45173200E+03</pdfrwt>
<totfact> 0.70418761E+04</totfact>
</mgrwt>
</event>
<event>
 7    0  0.4725730E-002  0.4627265E+03  0.7546771E-02  0.1023993E+00
         21   -1    0    0  502  501  0.00000000000E+00  0.00000000000E+00  0.76544392894E+02  0.76544392894E+02  0.00000000000E+00 0. -1.
         21   -1    0    0  501  502 -0.00000000000E+00 -0.00000000000E+00 -0.69931896924E+03  0.69931896924E+03  0.00000000000E+00 0. -1.
      99926    2    1    2    0    0 -0.71054273576E-14  0.00000000000E+00 -0.62277457634E+03  0.77586336213E+03  0.46272646753E+03 0.  0.
      99925    2    3    3    0    0  0.32072432264E+02  0.54095999460E+02 -0.21792772448E+03  0.34749027750E+03  0.26325269570E+03 0.  0.
         25    1    4    4    0    0 -0.25000926545E+02  0.21637527989E+02 -0.10417970556E+03  0.16611486416E+03  0.12509000000E+03 0.  0.
         25    1    4    4    0    0  0.57073358808E+02  0.32458471471E+02 -0.11374801892E+03  0.18137541334E+03  0.12509000000E+03 0.  0.
         25    1    3    3    0    0 -0.32072432264E+02 -0.54095999460E+02 -0.40484685187E+03  0.42837308463E+03  0.12509000000E+03 0.  0.
<mgrwt>
<rscale>  2 0.46272647E+03</rscale>
<asrwt>0</asrwt>
<pdfrwt beam="1">  1       21 0.11256528E-01 0.46272647E+03</pdfrwt>
<pdfrwt beam="2">  1       21 0.10284103E+00 0.46272647E+03</pdfrwt>
<totfact> 0.46094639E+04</totfact>
</mgrwt>
</event>
<event>
 7    0  0.4725730E-002  0.4480515E+03  0.7546771E-02  0.1028305E+00
         21   -1    0    0  502  501  0.00000000000E+00  0.00000000000E+00  0.86609329540E+03  0.86609329540E+03  0.00000000000E+00 0. -1.
         21   -1    0    0  501  502 -0.00000000000E+00 -0.00000000000E+00 -0.57947025861E+02  0.57947025861E+02  0.00000000000E+00 0. -1.
      99926    2    1    2    0    0  0.00000000000E+00  0.00000000000E+00  0.80814626954E+03  0.92404032127E+03  0.44805147288E+03 0.  0.
      99925    2    3    3    0    0 -0.64060238440E+02 -0.81168174025E+02  0.45915739206E+03  0.53916016936E+03  0.26301367059E+03 0.  0.
         25    1    4    4    0    0 -0.52147422066E+02 -0.17447193995E+02  0.27705672657E+03  0.30892020983E+03  0.12509000000E+03 0.  0.
         25    1    4    4    0    0 -0.11912816373E+02 -0.63720980030E+02  0.18210066549E+03  0.23023995952E+03  0.12509000000E+03 0.  0.
         25    1    3    3    0    0  0.64060238440E+02  0.81168174025E+02  0.34898887749E+03  0.38488015191E+03  0.12509000000E+03 0.  0.
<mgrwt>
<rscale>  2 0.44805147E+03</rscale>
<asrwt>0</asrwt>
<pdfrwt beam="1">  1       21 0.12736665E+00 0.44805147E+03</pdfrwt>
<pdfrwt beam="2">  1       21 0.85216220E-02 0.44805147E+03</pdfrwt>
<totfact> 0.44584657E+04</totfact>
</mgrwt>
</event>
<event>
 7    0  0.4725730E-002  0.4551832E+03  0.7546771E-02  0.1026188E+00
         21   -1    0    0  502  501  0.00000000000E+00  0.00000000000E+00  0.23649853179E+03  0.23649853179E+03  0.00000000000E+00 0. -1.
         21   -1    0    0  501  502 -0.00000000000E+00 -0.00000000000E+00 -0.21902014897E+03  0.21902014897E+03  0.00000000000E+00 0. -1.
      99926    2    1    2    0    0  0.00000000000E+00  0.00000000000E+00  0.17478382820E+02  0.45551868076E+03  0.45518323196E+03 0.  0.
      99925    2    3    3    0    0 -0.10237512164E+03 -0.21217423547E+02 -0.34185199179E+02  0.28449973913E+03  0.26237497809E+03 0.  0.
         25    1    4    4    0    0 -0.33677413044E+02 -0.46224496344E+02 -0.15621703054E+02  0.13842838552E+03  0.12509000000E+03 0.  0.
         25    1    4    4    0    0 -0.68697708592E+02  0.25007072798E+02 -0.18563496125E+02  0.14607135361E+03  0.12509000000E+03 0.  0.
         25    1    3    3    0    0  0.10237512164E+03  0.21217423547E+02  0.51663581999E+02  0.17101894163E+03  0.12509000000E+03 0.  0.
<mgrwt>
<rscale>  2 0.45518323E+03</rscale>
<asrwt>0</asrwt>
<pdfrwt beam="1">  1       21 0.34779196E-01 0.45518323E+03</pdfrwt>
<pdfrwt beam="2">  1       21 0.32208845E-01 0.45518323E+03</pdfrwt>
<totfact> 0.68407762E+04</totfact>
</mgrwt>
</event>
<event>
 7    0  0.4725730E-002  0.4430011E+03  0.7546771E-02  0.1029830E+00
         21   -1    0    0  502  501  0.00000000000E+00  0.00000000000E+00  0.21556105426E+02  0.21556105426E+02  0.00000000000E+00 0.  1.
         21   -1    0    0  501  502 -0.00000000000E+00 -0.00000000000E+00 -0.22760374383E+04  0.22760374383E+04  0.00000000000E+00 0.  1.
      99926    2    1    2    0    0  0.00000000000E+00  0.00000000000E+00 -0.22544813329E+04  0.22975935437E+04  0.44300114209E+03 0.  0.
      99925    2    3    3    0    0  0.72516957052E+02  0.98629538703E+01 -0.17991091056E+04  0.18197155673E+04  0.26308778943E+03 0.  0.
         25    1    4    4    0    0  0.31881617058E+02  0.36054692921E+02 -0.10715935367E+04  0.10799428662E+04  0.12509000000E+03 0.  0.
         25    1    3    3    0    0 -0.72516957052E+02 -0.98629538703E+01 -0.45537222723E+03  0.47787797643E+03  0.12509000000E+03 0.  0.
         25    1    4    4    0    0  0.40635339993E+02 -0.26191739051E+02 -0.72751556894E+03  0.73977270104E+03  0.12509000000E+03 0.  0.
<mgrwt>
<rscale>  2 0.44300114E+03</rscale>
<asrwt>0</asrwt>
<pdfrwt beam="1">  1       21 0.31700175E-02 0.44300114E+03</pdfrwt>
<pdfrwt beam="2">  1       21 0.33471117E+00 0.44300114E+03</pdfrwt>
<totfact> 0.10364171E+04</totfact>
</mgrwt>
</event>
<event>
 7    0  0.4725730E-002  0.4526707E+03  0.7546771E-02  0.1026929E+00
         21   -1    0    0  502  501  0.00000000000E+00  0.00000000000E+00  0.33479210350E+03  0.33479210350E+03  0.00000000000E+00 0.  1.
         21   -1    0    0  501  502 -0.00000000000E+00 -0.00000000000E+00 -0.15301342351E+03  0.15301342351E+03  0.00000000000E+00 0.  1.
      99926    2    1    2    0    0  0.71054273576E-14  0.88817841970E-15  0.18177867999E+03  0.48780552701E+03  0.45267067906E+03 0.  0.
      99925    2    3    3    0    0  0.51099733803E+02 -0.50941451370E+01  0.22071285627E+03  0.34709123743E+03  0.26290878470E+03 0.  0.
         25    1    3    3    0    0 -0.51099733803E+02  0.50941451370E+01 -0.38934176277E+02  0.14071428958E+03  0.12509000000E+03 0.  0.
         25    1    4    4    0    0 -0.26841673572E+01  0.90237370365E+01  0.70654365100E+02  0.14397284463E+03  0.12509000000E+03 0.  0.
         25    1    4    4    0    0  0.53783901160E+02 -0.14117882174E+02  0.15005849117E+03  0.20311839280E+03  0.12509000000E+03 0.  0.
<mgrwt>
<rscale>  2 0.45267068E+03</rscale>
<asrwt>0</asrwt>
<pdfrwt beam="1">  1       21 0.49234133E-01 0.45267068E+03</pdfrwt>
<pdfrwt beam="2">  1       21 0.22501974E-01 0.45267068E+03</pdfrwt>
<totfact> 0.67373411E+04</totfact>
</mgrwt>
</event>
<event>
 7    0  0.4725730E-002  0.4567582E+03  0.7546771E-02  0.1025726E+00
         21   -1    0    0  502  501  0.00000000000E+00  0.00000000000E+00  0.43137516058E+03  0.43137516058E+03  0.00000000000E+00 0.  1.
         21   -1    0    0  501  502 -0.00000000000E+00 -0.00000000000E+00 -0.12090872306E+03  0.12090872306E+03  0.00000000000E+00 0.  1.
      99926    2    1    2    0    0 -0.88817841970E-15  0.35527136788E-14  0.31046643752E+03  0.55228388364E+03  0.45675822849E+03 0.  0.
      99925    2    3    3    0    0  0.74284815008E+01 -0.23820378680E+02  0.59525938743E+02  0.27078568683E+03  0.26298090811E+03 0.  0.
         25    1    4    4    0    0 -0.49790698875E+01 -0.44490794842E+02  0.53574124774E+02  0.14325472735E+03  0.12509000000E+03 0.  0.
         25    1    4    4    0    0  0.12407551388E+02  0.20670416161E+02  0.59518139689E+01  0.12753095948E+03  0.12509000000E+03 0.  0.
         25    1    3    3    0    0 -0.74284815008E+01  0.23820378680E+02  0.25094049878E+03  0.28149819681E+03  0.12509000000E+03 0.  0.
<mgrwt>
<rscale>  2 0.45675823E+03</rscale>
<asrwt>0</asrwt>
<pdfrwt beam="1">  1       21 0.63437523E-01 0.45675823E+03</pdfrwt>
<pdfrwt beam="2">  1       21 0.17780695E-01 0.45675823E+03</pdfrwt>
<totfact> 0.60864774E+04</totfact>
</mgrwt>
</event>
<event>
 7    0  0.4725730E-002  0.4550388E+03  0.7546771E-02  0.1026230E+00
         21   -1    0    0  502  501  0.00000000000E+00  0.00000000000E+00  0.96037972688E+02  0.96037972688E+02  0.00000000000E+00 0.  1.
         21   -1    0    0  501  502 -0.00000000000E+00 -0.00000000000E+00 -0.53900636408E+03  0.53900636408E+03  0.00000000000E+00 0.  1.
      99926    2    1    2    0    0  0.14210854715E-13 -0.88817841970E-15 -0.44296839140E+03  0.63504433677E+03  0.45503880482E+03 0.  0.
      99925    2    3    3    0    0  0.11066648186E+03  0.58473086702E+01 -0.24600365234E+03  0.37673468199E+03  0.26292577359E+03 0.  0.
         25    1    3    3    0    0 -0.11066648186E+03 -0.58473086702E+01 -0.19696473905E+03  0.25830965478E+03  0.12509000000E+03 0.  0.
         25    1    4    4    0    0  0.41241710824E+02  0.17474131050E+02 -0.16525459417E+03  0.21204436555E+03  0.12509000000E+03 0.  0.
         25    1    4    4    0    0  0.69424771035E+02 -0.11626822379E+02 -0.80749058173E+02  0.16469031644E+03  0.12509000000E+03 0.  0.
<mgrwt>
<rscale>  2 0.45503880E+03</rscale>
<asrwt>0</asrwt>
<pdfrwt beam="1">  1       21 0.14123231E-01 0.45503880E+03</pdfrwt>
<pdfrwt beam="2">  1       21 0.79265641E-01 0.45503880E+03</pdfrwt>
<totfact> 0.56554093E+04</totfact>
</mgrwt>
</event>
<event>
 7    0  0.4725730E-002  0.4560024E+03  0.7546771E-02  0.1025947E+00
         21   -1    0    0  502  501  0.00000000000E+00  0.00000000000E+00  0.54044470975E+03  0.54044470975E+03  0.00000000000E+00 0. -1.
         21   -1    0    0  501  502 -0.00000000000E+00 -0.00000000000E+00 -0.96188456476E+02  0.96188456476E+02  0.00000000000E+00 0. -1.
      99926    2    1    2    0    0 -0.17763568394E-14  0.00000000000E+00  0.44425625327E+03  0.63663316623E+03  0.45600237912E+03 0.  0.
      99925    2    3    3    0    0 -0.92400263465E+01  0.19678284876E+02  0.12286119521E+03  0.29106854936E+03  0.26297036745E+03 0.  0.
         25    1    4    4    0    0 -0.27187749647E+02 -0.10306013269E+02  0.90825576183E+02  0.15729647494E+03  0.12509000000E+03 0.  0.
         25    1    4    4    0    0  0.17947723301E+02  0.29984298145E+02  0.32035619024E+02  0.13377207441E+03  0.12509000000E+03 0.  0.
         25    1    3    3    0    0  0.92400263465E+01 -0.19678284876E+02  0.32139505807E+03  0.34556461687E+03  0.12509000000E+03 0.  0.
<mgrwt>
<rscale>  2 0.45600238E+03</rscale>
<asrwt>0</asrwt>
<pdfrwt beam="1">  1       21 0.79477162E-01 0.45600238E+03</pdfrwt>
<pdfrwt beam="2">  1       21 0.14145362E-01 0.45600238E+03</pdfrwt>
<totfact> 0.56033585E+04</totfact>
</mgrwt>
</event>
<event>
 7    0  0.4725730E-002  0.4576438E+03  0.7546771E-02  0.1025467E+00
         21   -1    0    0  502  501  0.00000000000E+00  0.00000000000E+00  0.18952381579E+03  0.18952381579E+03  0.00000000000E+00 0. -1.
         21   -1    0    0  501  502 -0.00000000000E+00 -0.00000000000E+00 -0.27626856841E+03  0.27626856841E+03  0.00000000000E+00 0. -1.
      99926    2    1    2    0    0  0.00000000000E+00  0.14210854715E-13 -0.86744752624E+02  0.46579238419E+03  0.45764384959E+03 0.  0.
      99925    2    3    3    0    0 -0.62936611740E+02 -0.97020156802E+02 -0.57848289682E+02  0.29300221783E+03  0.26292574448E+03 0.  0.
         25    1    3    3    0    0  0.62936611740E+02  0.97020156802E+02 -0.28896462942E+02  0.17279016637E+03  0.12509000000E+03 0.  0.
         25    1    4    4    0    0  0.53589453038E+01 -0.25639029196E+02 -0.23436348761E+02  0.12993401655E+03  0.12509000000E+03 0.  0.
         25    1    4    4    0    0 -0.68295557044E+02 -0.71381127606E+02 -0.34411940921E+02  0.16306820128E+03  0.12509000000E+03 0.  0.
<mgrwt>
<rscale>  2 0.45764385E+03</rscale>
<asrwt>0</asrwt>
<pdfrwt beam="1">  1       21 0.27871150E-01 0.45764385E+03</pdfrwt>
<pdfrwt beam="2">  1       21 0.40627730E-01 0.45764385E+03</pdfrwt>
<totfact> 0.66346020E+04</totfact>
</mgrwt>
</event>
<event>
 7    0  0.4725730E-002  0.4248303E+03  0.7546771E-02  0.1035506E+00
         21   -1    0    0  502  501  0.00000000000E+00  0.00000000000E+00  0.41807794780E+02  0.41807794780E+02  0.00000000000E+00 0.  1.
         21   -1    0    0  501  502 -0.00000000000E+00 -0.00000000000E+00 -0.10792290737E+04  0.10792290737E+04  0.00000000000E+00 0.  1.
      99926    2    1    2    0    0  0.00000000000E+00  0.00000000000E+00 -0.10374212789E+04  0.11210368685E+04  0.42483026085E+03 0.  0.
      99925    2    3    3    0    0  0.71156642378E+02 -0.38097685944E+02 -0.70107923325E+03  0.75322145117E+03  0.26327886692E+03 0.  0.
         25    1    3    3    0    0 -0.71156642378E+02  0.38097685944E+02 -0.33634204565E+03  0.36781541729E+03  0.12509000000E+03 0.  0.
         25    1    4    4    0    0  0.43463279792E+02  0.69047463071E+01 -0.26236362273E+03  0.29397093537E+03  0.12509000000E+03 0.  0.
         25    1    4    4    0    0  0.27693362586E+02 -0.45002432251E+02 -0.43871561052E+03  0.45925051579E+03  0.12509000000E+03 0.  0.
<mgrwt>
<rscale>  2 0.42483026E+03</rscale>
<asrwt>0</asrwt>
<pdfrwt beam="1">  1       21 0.61482049E-02 0.42483026E+03</pdfrwt>
<pdfrwt beam="2">  1       21 0.15871016E+00 0.42483026E+03</pdfrwt>
<totfact> 0.44302834E+04</totfact>
</mgrwt>
</event>
<event>
 7    0  0.4725730E-002  0.4542947E+03  0.7546771E-02  0.1026449E+00
         21   -1    0    0  502  501  0.00000000000E+00  0.00000000000E+00  0.42552070192E+02  0.42552070192E+02  0.00000000000E+00 0. -1.
         21   -1    0    0  501  502 -0.00000000000E+00 -0.00000000000E+00 -0.12125358262E+04  0.12125358262E+04  0.00000000000E+00 0. -1.
      99926    2    1    2    0    0  0.00000000000E+00  0.00000000000E+00 -0.11699837560E+04  0.12550878964E+04  0.45429466027E+03 0.  0.
      99925    2    3    3    0    0  0.10539511309E+03 -0.39322571447E+02 -0.74715277515E+03  0.80001873576E+03  0.26294165448E+03 0.  0.
         25    1    4    4    0    0  0.94104203422E+02 -0.30115667554E+02 -0.44403351257E+03  0.47177942189E+03  0.12509000000E+03 0.  0.
         25    1    4    4    0    0  0.11290909665E+02 -0.92069038926E+01 -0.30311926257E+03  0.32823931386E+03  0.12509000000E+03 0.  0.
         25    1    3    3    0    0 -0.10539511309E+03  0.39322571447E+02 -0.42283098084E+03  0.45506916062E+03  0.12509000000E+03 0.  0.
<mgrwt>
<rscale>  2 0.45429466E+03</rscale>
<asrwt>0</asrwt>
<pdfrwt beam="1">  1       21 0.62576573E-02 0.45429466E+03</pdfrwt>
<pdfrwt beam="2">  1       21 0.17831409E+00 0.45429466E+03</pdfrwt>
<totfact> 0.30615165E+04</totfact>
</mgrwt>
</event>
<event>
 7    0  0.4725730E-002  0.4529268E+03  0.7546771E-02  0.1026853E+00
         21   -1    0    0  502  501  0.00000000000E+00  0.00000000000E+00  0.10027747990E+03  0.10027747990E+03  0.00000000000E+00 0.  1.
         21   -1    0    0  501  502 -0.00000000000E+00 -0.00000000000E+00 -0.51143767786E+03  0.51143767786E+03  0.00000000000E+00 0.  1.
      99926    2    1    2    0    0  0.00000000000E+00 -0.14210854715E-13 -0.41116019796E+03  0.61171515776E+03  0.45292684381E+03 0.  0.
      99925    2    3    3    0    0  0.15969426682E+02  0.10487142079E+03 -0.21405200711E+03  0.35529327007E+03  0.26298670788E+03 0.  0.
         25    1    4    4    0    0 -0.13841475679E+02  0.27520395329E+02 -0.13120621631E+03  0.18387913940E+03  0.12509000000E+03 0.  0.
         25    1    4    4    0    0  0.29810902360E+02  0.77351025457E+02 -0.82845790802E+02  0.17141413067E+03  0.12509000000E+03 0.  0.
         25    1    3    3    0    0 -0.15969426682E+02 -0.10487142079E+03 -0.19710819085E+03  0.25642188769E+03  0.12509000000E+03 0.  0.
<mgrwt>
<rscale>  2 0.45292684E+03</rscale>
<asrwt>0</asrwt>
<pdfrwt beam="1">  1       21 0.14746688E-01 0.45292684E+03</pdfrwt>
<pdfrwt beam="2">  1       21 0.75211424E-01 0.45292684E+03</pdfrwt>
<totfact> 0.58921818E+04</totfact>
</mgrwt>
</event>
<event>
 7    0  0.4725730E-002  0.4521255E+03  0.7546771E-02  0.1027090E+00
         21   -1    0    0  502  501  0.00000000000E+00  0.00000000000E+00  0.75880741136E+02  0.75880741136E+02  0.00000000000E+00 0. -1.
         21   -1    0    0  501  502 -0.00000000000E+00 -0.00000000000E+00 -0.67348271047E+03  0.67348271047E+03  0.00000000000E+00 0. -1.
      99926    2    1    2    0    0  0.00000000000E+00  0.00000000000E+00 -0.59760196933E+03  0.74936345160E+03  0.45212550122E+03 0.  0.
      99925    2    3    3    0    0  0.20721455961E+02 -0.10520554805E+03 -0.33359507316E+03  0.43816458367E+03  0.26306832471E+03 0.  0.
         25    1    4    4    0    0  0.36986136869E+02 -0.55391180779E+02 -0.21772739602E+03  0.25978622809E+03  0.12509000000E+03 0.  0.
         25    1    3    3    0    0 -0.20721455961E+02  0.10520554805E+03 -0.26400689617E+03  0.31119886793E+03  0.12509000000E+03 0.  0.
         25    1    4    4    0    0 -0.16264680908E+02 -0.49814367274E+02 -0.11586767714E+03  0.17837835558E+03  0.12509000000E+03 0.  0.
<mgrwt>
<rscale>  2 0.45212550E+03</rscale>
<asrwt>0</asrwt>
<pdfrwt beam="1">  1       21 0.11158932E-01 0.45212550E+03</pdfrwt>
<pdfrwt beam="2">  1       21 0.99041577E-01 0.45212550E+03</pdfrwt>
<totfact> 0.51456127E+04</totfact>
</mgrwt>
</event>
<event>
 7    0  0.4725730E-002  0.4549697E+03  0.7546771E-02  0.1026250E+00
         21   -1    0    0  502  501  0.00000000000E+00  0.00000000000E+00  0.85767657058E+03  0.85767657058E+03  0.00000000000E+00 0.  1.
         21   -1    0    0  501  502 -0.00000000000E+00 -0.00000000000E+00 -0.60336680562E+02  0.60336680562E+02  0.00000000000E+00 0.  1.
      99926    2    1    2    0    0  0.71054273576E-14  0.00000000000E+00  0.79733989002E+03  0.91801325114E+03  0.45496970125E+03 0.  0.
      99925    2    3    3    0    0 -0.38584519061E+02 -0.11261671226E+02  0.71533025880E+03  0.76313046300E+03  0.26278343565E+03 0.  0.
         25    1    4    4    0    0  0.23756519120E+01 -0.76835886153E+00  0.25196432783E+03  0.28131790682E+03  0.12509000000E+03 0.  0.
         25    1    3    3    0    0  0.38584519061E+02  0.11261671226E+02  0.82009631213E+02  0.15488278814E+03  0.12509000000E+03 0.  0.
         25    1    4    4    0    0 -0.40960170973E+02 -0.10493312365E+02  0.46336593097E+03  0.48181255618E+03  0.12509000000E+03 0.  0.
<mgrwt>
<rscale>  2 0.45496970E+03</rscale>
<asrwt>0</asrwt>
<pdfrwt beam="1">  1       21 0.12612890E+00 0.45496970E+03</pdfrwt>
<pdfrwt beam="2">  1       21 0.88730417E-02 0.45496970E+03</pdfrwt>
<totfact> 0.42474081E+04</totfact>
</mgrwt>
</event>
<event>
 7    0  0.4725730E-002  0.4548517E+03  0.7546771E-02  0.1026285E+00
         21   -1    0    0  502  501  0.00000000000E+00  0.00000000000E+00  0.67512118259E+02  0.67512118259E+02  0.00000000000E+00 0.  1.
         21   -1    0    0  501  502 -0.00000000000E+00 -0.00000000000E+00 -0.76612184908E+03  0.76612184908E+03  0.00000000000E+00 0.  1.
      99926    2    1    2    0    0  0.35527136788E-14  0.00000000000E+00 -0.69860973082E+03  0.83363396734E+03  0.45485166319E+03 0.  0.
      99925    2    3    3    0    0 -0.25599425843E+02 -0.80426300847E+02 -0.57745995172E+03  0.64011782448E+03  0.26299641234E+03 0.  0.
         25    1    4    4    0    0 -0.15200635382E+02 -0.81912216427E+02 -0.33138381198E+03  0.36387279296E+03  0.12509000000E+03 0.  0.
         25    1    4    4    0    0 -0.10398790461E+02  0.14859155792E+01 -0.24607613974E+03  0.27624503152E+03  0.12509000000E+03 0.  0.
         25    1    3    3    0    0  0.25599425843E+02  0.80426300847E+02 -0.12114977910E+03  0.19351614286E+03  0.12509000000E+03 0.  0.
<mgrwt>
<rscale>  2 0.45485166E+03</rscale>
<asrwt>0</asrwt>
<pdfrwt beam="1">  1       21 0.99282528E-02 0.45485166E+03</pdfrwt>
<pdfrwt beam="2">  1       21 0.11266498E+00 0.45485166E+03</pdfrwt>
<totfact> 0.46234383E+04</totfact>
</mgrwt>
</event>
<event>
 7    0  0.4725730E-002  0.4558643E+03  0.7546771E-02  0.1025988E+00
         21   -1    0    0  502  501  0.00000000000E+00  0.00000000000E+00  0.54163912088E+03  0.54163912088E+03  0.00000000000E+00 0. -1.
         21   -1    0    0  501  502 -0.00000000000E+00 -0.00000000000E+00 -0.95918240782E+02  0.95918240782E+02  0.00000000000E+00 0. -1.
      99926    2    1    2    0    0  0.00000000000E+00  0.71054273576E-14  0.44572088010E+03  0.63755736166E+03  0.45586432900E+03 0.  0.
      99925    2    3    3    0    0  0.10270656948E+03 -0.33038903528E+02  0.22901431057E+03  0.36506983179E+03  0.26303653563E+03 0.  0.
         25    1    4    4    0    0  0.79391598564E+01 -0.10896601548E+02  0.10107691950E+03  0.16138716783E+03  0.12509000000E+03 0.  0.
         25    1    4    4    0    0  0.94767409621E+02 -0.22142301980E+02  0.12793739107E+03  0.20368266396E+03  0.12509000000E+03 0.  0.
         25    1    3    3    0    0 -0.10270656948E+03  0.33038903528E+02  0.21670656952E+03  0.27248752987E+03  0.12509000000E+03 0.  0.
<mgrwt>
<rscale>  2 0.45586433E+03</rscale>
<asrwt>0</asrwt>
<pdfrwt beam="1">  1       21 0.79652811E-01 0.45586433E+03</pdfrwt>
<pdfrwt beam="2">  1       21 0.14105624E-01 0.45586433E+03</pdfrwt>
<totfact> 0.56040802E+04</totfact>
</mgrwt>
</event>
<event>
 7    0  0.4725730E-002  0.4572525E+03  0.7546771E-02  0.1025581E+00
         21   -1    0    0  502  501  0.00000000000E+00  0.00000000000E+00  0.22889008306E+03  0.22889008306E+03  0.00000000000E+00 0. -1.
         21   -1    0    0  501  502 -0.00000000000E+00 -0.00000000000E+00 -0.22836275294E+03  0.22836275294E+03  0.00000000000E+00 0. -1.
      99926    2    1    2    0    0  0.00000000000E+00 -0.14210854715E-13  0.52733012681E+00  0.45725283600E+03  0.45725253192E+03 0.  0.
      99925    2    3    3    0    0  0.42519022112E+02  0.97257117969E+02  0.45206476333E+02  0.28722181400E+03  0.26303218566E+03 0.  0.
         25    1    4    4    0    0  0.32446683522E+02  0.56488868281E+02  0.62271563012E+02  0.15417209596E+03  0.12509000000E+03 0.  0.
         25    1    4    4    0    0  0.10072338590E+02  0.40768249688E+02 -0.17065086679E+02  0.13304971804E+03  0.12509000000E+03 0.  0.
         25    1    3    3    0    0 -0.42519022112E+02 -0.97257117969E+02 -0.44679146206E+02  0.17003102200E+03  0.12509000000E+03 0.  0.
<mgrwt>
<rscale>  2 0.45725253E+03</rscale>
<asrwt>0</asrwt>
<pdfrwt beam="1">  1       21 0.33660306E-01 0.45725253E+03</pdfrwt>
<pdfrwt beam="2">  1       21 0.33582758E-01 0.45725253E+03</pdfrwt>
<totfact> 0.67165760E+04</totfact>
</mgrwt>
</event>
<event>
 7    0  0.4725730E-002  0.4577087E+03  0.7546771E-02  0.1025448E+00
         21   -1    0    0  502  501  0.00000000000E+00  0.00000000000E+00  0.10340801295E+03  0.10340801295E+03  0.00000000000E+00 0. -1.
         21   -1    0    0  501  502 -0.00000000000E+00 -0.00000000000E+00 -0.50648218074E+03  0.50648218074E+03  0.00000000000E+00 0. -1.
      99926    2    1    2    0    0  0.00000000000E+00  0.00000000000E+00 -0.40307416779E+03  0.60989019369E+03  0.45770871045E+03 0.  0.
      99925    2    3    3    0    0  0.11291499563E+03 -0.43380216598E+01 -0.28633374933E+03  0.40484276485E+03  0.26294872804E+03 0.  0.
         25    1    4    4    0    0  0.71182642150E+02 -0.73605202080E+01 -0.95587175667E+02  0.17293224700E+03  0.12509000000E+03 0.  0.
         25    1    4    4    0    0  0.41732353485E+02  0.30224985482E+01 -0.19074657366E+03  0.23191051785E+03  0.12509000000E+03 0.  0.
         25    1    3    3    0    0 -0.11291499563E+03  0.43380216598E+01 -0.11674041846E+03  0.20504742884E+03  0.12509000000E+03 0.  0.
<mgrwt>
<rscale>  2 0.45770871E+03</rscale>
<asrwt>0</asrwt>
<pdfrwt beam="1">  1       21 0.15207061E-01 0.45770871E+03</pdfrwt>
<pdfrwt beam="2">  1       21 0.74482674E-01 0.45770871E+03</pdfrwt>
<totfact> 0.56847471E+04</totfact>
</mgrwt>
</event>
<event>
 7    0  0.4725730E-002  0.4233583E+03  0.7546771E-02  0.1035979E+00
         21   -1    0    0  502  501  0.00000000000E+00  0.00000000000E+00  0.60781066512E+03  0.60781066512E+03  0.00000000000E+00 0.  1.
         21   -1    0    0  501  502 -0.00000000000E+00 -0.00000000000E+00 -0.73720442420E+02  0.73720442420E+02  0.00000000000E+00 0.  1.
      99926    2    1    2    0    0  0.17763568394E-14 -0.31086244690E-14  0.53409022270E+03  0.68153110754E+03  0.42335834061E+03 0.  0.
      99925    2    3    3    0    0  0.11373962196E+02  0.28705150974E+01  0.21935938766E+03  0.34264969244E+03  0.26296894095E+03 0.  0.
         25    1    4    4    0    0 -0.14719462247E+01 -0.33185895966E+02  0.83359253040E+02  0.15394721006E+03  0.12509000000E+03 0.  0.
         25    1    3    3    0    0 -0.11373962196E+02 -0.28705150974E+01  0.31473083504E+03  0.33888141510E+03  0.12509000000E+03 0.  0.
         25    1    4    4    0    0  0.12845908421E+02  0.36056411063E+02  0.13600013462E+03  0.18870248238E+03  0.12509000000E+03 0.  0.
<mgrwt>
<rscale>  2 0.42335834E+03</rscale>
<asrwt>0</asrwt>
<pdfrwt beam="1">  1       21 0.89383919E-01 0.42335834E+03</pdfrwt>
<pdfrwt beam="2">  1       21 0.10841242E-01 0.42335834E+03</pdfrwt>
<totfact> 0.69733325E+04</totfact>
</mgrwt>
</event>
<event>
 7    0  0.4725730E-002  0.4463697E+03  0.7546771E-02  0.1028810E+00
         21   -1    0    0  502  501  0.00000000000E+00  0.00000000000E+00  0.62221039323E+03  0.62221039323E+03  0.00000000000E+00 0.  1.
         21   -1    0    0  501  502 -0.00000000000E+00 -0.00000000000E+00 -0.80055682849E+02  0.80055682849E+02  0.00000000000E+00 0.  1.
      99926    2    1    2    0    0  0.35527136788E-14  0.00000000000E+00  0.54215471038E+03  0.70226607608E+03  0.44636970285E+03 0.  0.
      99925    2    3    3    0    0  0.18249474858E+02 -0.85203292731E+02  0.25204456879E+03  0.37454050983E+03  0.26298571143E+03 0.  0.
         25    1    4    4    0    0 -0.29703836059E+02 -0.29355851399E+02  0.12259985953E+03  0.18006198251E+03  0.12509000000E+03 0.  0.
         25    1    4    4    0    0  0.47953310917E+02 -0.55847441332E+02  0.12944470926E+03  0.19447852732E+03  0.12509000000E+03 0.  0.
         25    1    3    3    0    0 -0.18249474858E+02  0.85203292731E+02  0.29011014159E+03  0.32772556625E+03  0.12509000000E+03 0.  0.
<mgrwt>
<rscale>  2 0.44636970E+03</rscale>
<asrwt>0</asrwt>
<pdfrwt beam="1">  1       21 0.91501526E-01 0.44636970E+03</pdfrwt>
<pdfrwt beam="2">  1       21 0.11772895E-01 0.44636970E+03</pdfrwt>
<totfact> 0.56521986E+04</totfact>
</mgrwt>
</event>
<event>
 7    0  0.4725730E-002  0.4695305E+03  0.7546771E-02  0.1022053E+00
         21   -1    0    0  502  501  0.00000000000E+00  0.00000000000E+00  0.20176878797E+04  0.20176878797E+04  0.00000000000E+00 0. -1.
         21   -1    0    0  501  502 -0.00000000000E+00 -0.00000000000E+00 -0.27315781354E+02  0.27315781354E+02  0.00000000000E+00 0. -1.
      99926    2    1    2    0    0  0.71054273576E-14 -0.14210854715E-13  0.19903720984E+04  0.20450036611E+04  0.46953049299E+03 0.  0.
      99925    2    3    3    0    0  0.48741978523E+02 -0.10436870305E+03  0.14622704641E+04  0.14901996859E+04  0.26304293766E+03 0.  0.
         25    1    4    4    0    0  0.57254328172E+02 -0.62612732190E+02  0.90035760051E+03  0.91295658671E+03  0.12509000000E+03 0.  0.
         25    1    4    4    0    0 -0.85123496484E+01 -0.41755970857E+02  0.56191286358E+03  0.57724309918E+03  0.12509000000E+03 0.  0.
         25    1    3    3    0    0 -0.48741978523E+02  0.10436870305E+03  0.52810163427E+03  0.55480397517E+03  0.12509000000E+03 0.  0.
<mgrwt>
<rscale>  2 0.46953049E+03</rscale>
<asrwt>0</asrwt>
<pdfrwt beam="1">  1       21 0.29671871E+00 0.46953049E+03</pdfrwt>
<pdfrwt beam="2">  1       21 0.40170280E-02 0.46953049E+03</pdfrwt>
<totfact> 0.11621679E+04</totfact>
</mgrwt>
</event>
<event>
 7    0  0.4725730E-002  0.4312271E+03  0.7546771E-02  0.1033473E+00
         21   -1    0    0  502  501  0.00000000000E+00  0.00000000000E+00  0.79450479778E+03  0.79450479778E+03  0.00000000000E+00 0.  1.
         21   -1    0    0  501  502 -0.00000000000E+00 -0.00000000000E+00 -0.58513443728E+02  0.58513443728E+02  0.00000000000E+00 0.  1.
      99926    2    1    2    0    0  0.71054273576E-14  0.00000000000E+00  0.73599135405E+03  0.85301824150E+03  0.43122714096E+03 0.  0.
      99925    2    3    3    0    0 -0.41029225611E+02 -0.65391636957E+02  0.56384665610E+03  0.62665400256E+03  0.26232179436E+03 0.  0.
         25    1    3    3    0    0  0.41029225611E+02  0.65391636957E+02  0.17214469795E+03  0.22636423894E+03  0.12509000000E+03 0.  0.
         25    1    4    4    0    0 -0.41930355515E+02 -0.34200610350E+02  0.36555851073E+03  0.39013891030E+03  0.12509000000E+03 0.  0.
         25    1    4    4    0    0  0.90112990447E+00 -0.31191026607E+02  0.19828814537E+03  0.23651509227E+03  0.12509000000E+03 0.  0.
<mgrwt>
<rscale>  2 0.43122714E+03</rscale>
<asrwt>0</asrwt>
<pdfrwt beam="1">  1       21 0.11683893E+00 0.43122714E+03</pdfrwt>
<pdfrwt beam="2">  1       21 0.86049187E-02 0.43122714E+03</pdfrwt>
<totfact> 0.54835117E+04</totfact>
</mgrwt>
</event>
<event>
 7    0  0.4725730E-002  0.4560488E+03  0.7546771E-02  0.1025933E+00
         21   -1    0    0  502  501  0.00000000000E+00  0.00000000000E+00  0.72682015204E+03  0.72682015204E+03  0.00000000000E+00 0.  1.
         21   -1    0    0  501  502 -0.00000000000E+00 -0.00000000000E+00 -0.71537810247E+02  0.71537810247E+02  0.00000000000E+00 0.  1.
      99926    2    1    2    0    0  0.00000000000E+00  0.00000000000E+00  0.65528234179E+03  0.79835796229E+03  0.45604877862E+03 0.  0.
      99925    2    3    3    0    0  0.11261676393E+03 -0.79771833399E+01  0.44086349671E+03  0.52565093964E+03  0.26306295187E+03 0.  0.
         25    1    4    4    0    0  0.80719645802E+02 -0.51459359461E+01  0.17303886277E+03  0.22832454534E+03  0.12509000000E+03 0.  0.
         25    1    4    4    0    0  0.31897118127E+02 -0.28312473938E+01  0.26782463393E+03  0.29732639430E+03  0.12509000000E+03 0.  0.
         25    1    3    3    0    0 -0.11261676393E+03  0.79771833399E+01  0.21441884509E+03  0.27270702264E+03  0.12509000000E+03 0.  0.
<mgrwt>
<rscale>  2 0.45604878E+03</rscale>
<asrwt>0</asrwt>
<pdfrwt beam="1">  1       21 0.10688531E+00 0.45604878E+03</pdfrwt>
<pdfrwt beam="2">  1       21 0.10520267E-01 0.45604878E+03</pdfrwt>
<totfact> 0.47452561E+04</totfact>
</mgrwt>
</event>
<event>
 7    0  0.4725730E-002  0.4541590E+03  0.7546771E-02  0.1026489E+00
         21   -1    0    0  502  501  0.00000000000E+00  0.00000000000E+00  0.89321670835E+02  0.89321670835E+02  0.00000000000E+00 0. -1.
         21   -1    0    0  501  502 -0.00000000000E+00 -0.00000000000E+00 -0.57729670100E+03  0.57729670100E+03  0.00000000000E+00 0. -1.
      99926    2    1    2    0    0  0.00000000000E+00  0.00000000000E+00 -0.48797503017E+03  0.66661837184E+03  0.45415902898E+03 0.  0.
      99925    2    3    3    0    0  0.42676190686E+02  0.81124213329E+02 -0.40359741569E+03  0.49006955376E+03  0.26244027574E+03 0.  0.
         25    1    3    3    0    0 -0.42676190686E+02 -0.81124213329E+02 -0.84377614475E+02  0.17654881808E+03  0.12509000000E+03 0.  0.
         25    1    4    4    0    0  0.38984480847E+02  0.75981950331E+02 -0.19738826948E+03  0.24880249909E+03  0.12509000000E+03 0.  0.
         25    1    4    4    0    0  0.36917098390E+01  0.51422629981E+01 -0.20620914621E+03  0.24126705467E+03  0.12509000000E+03 0.  0.
<mgrwt>
<rscale>  2 0.45415903E+03</rscale>
<asrwt>0</asrwt>
<pdfrwt beam="1">  1       21 0.13135540E-01 0.45415903E+03</pdfrwt>
<pdfrwt beam="2">  1       21 0.84896571E-01 0.45415903E+03</pdfrwt>
<totfact> 0.55117522E+04</totfact>
</mgrwt>
</event>
<event>
 7    0  0.4725730E-002  0.4590193E+03  0.7546771E-02  0.1025066E+00
         21   -1    0    0  502  501  0.00000000000E+00  0.00000000000E+00  0.24263745574E+03  0.24263745574E+03  0.00000000000E+00 0. -1.
         21   -1    0    0  501  502 -0.00000000000E+00 -0.00000000000E+00 -0.21709207219E+03  0.21709207219E+03  0.00000000000E+00 0. -1.
      99926    2    1    2    0    0  0.00000000000E+00 -0.71054273576E-14  0.25545383553E+02  0.45972952793E+03  0.45901925039E+03 0.  0.
      99925    2    3    3    0    0  0.45352754274E+02 -0.59809394898E+02  0.10590040072E+03  0.29318081757E+03  0.26288031665E+03 0.  0.
         25    1    3    3    0    0 -0.45352754274E+02  0.59809394898E+02 -0.80355017170E+02  0.16654871036E+03  0.12509000000E+03 0.  0.
         25    1    4    4    0    0  0.33958606435E+02 -0.69608069975E+02  0.63547550938E+02  0.16026312641E+03  0.12509000000E+03 0.  0.
         25    1    4    4    0    0  0.11394147839E+02  0.97986750770E+01  0.42352849785E+02  0.13291769116E+03  0.12509000000E+03 0.  0.
<mgrwt>
<rscale>  2 0.45901925E+03</rscale>
<asrwt>0</asrwt>
<pdfrwt beam="1">  1       21 0.35681979E-01 0.45901925E+03</pdfrwt>
<pdfrwt beam="2">  1       21 0.31925305E-01 0.45901925E+03</pdfrwt>
<totfact> 0.66056798E+04</totfact>
</mgrwt>
</event>
<event>
 7    0  0.4725730E-002  0.4538890E+03  0.7546771E-02  0.1026569E+00
         21   -1    0    0  502  501  0.00000000000E+00  0.00000000000E+00  0.41921299545E+03  0.41921299545E+03  0.00000000000E+00 0.  1.
         21   -1    0    0  501  502 -0.00000000000E+00 -0.00000000000E+00 -0.12285832409E+03  0.12285832409E+03  0.00000000000E+00 0.  1.
      99926    2    1    2    0    0  0.00000000000E+00  0.14210854715E-13  0.29635467137E+03  0.54207131954E+03  0.45388899990E+03 0.  0.
      99925    2    3    3    0    0  0.27454043973E+02 -0.84057348443E+02  0.26896741663E+03  0.38645341511E+03  0.26302739113E+03 0.  0.
         25    1    3    3    0    0 -0.27454043973E+02  0.84057348443E+02  0.27387254734E+02  0.15561790443E+03  0.12509000000E+03 0.  0.
         25    1    4    4    0    0  0.35791101246E+02 -0.58738967063E+02  0.18408500267E+03  0.23295077911E+03  0.12509000000E+03 0.  0.
         25    1    4    4    0    0 -0.83370572731E+01 -0.25318381380E+02  0.84882413966E+02  0.15350263600E+03  0.12509000000E+03 0.  0.
<mgrwt>
<rscale>  2 0.45388900E+03</rscale>
<asrwt>0</asrwt>
<pdfrwt beam="1">  1       21 0.61648969E-01 0.45388900E+03</pdfrwt>
<pdfrwt beam="2">  1       21 0.18067401E-01 0.45388900E+03</pdfrwt>
<totfact> 0.62945089E+04</totfact>
</mgrwt>
</event>
<event>
 7    0  0.4725730E-002  0.4576303E+03  0.7546771E-02  0.1025471E+00
         21   -1    0    0  502  501  0.00000000000E+00  0.00000000000E+00  0.75303671302E+02  0.75303671302E+02  0.00000000000E+00 0.  1.
         21   -1    0    0  501  502 -0.00000000000E+00 -0.00000000000E+00 -0.69526976623E+03  0.69526976623E+03  0.00000000000E+00 0.  1.
      99926    2    1    2    0    0  0.00000000000E+00  0.00000000000E+00 -0.61996609492E+03  0.77057343753E+03  0.45763026972E+03 0.  0.
      99925    2    3    3    0    0 -0.11244336565E+03 -0.18021430035E+02 -0.35529451882E+03  0.45646066523E+03  0.26297121779E+03 0.  0.
         25    1    4    4    0    0 -0.98787447243E+02 -0.17103093951E+02 -0.21130668204E+03  0.26523479698E+03  0.12509000000E+03 0.  0.
         25    1    4    4    0    0 -0.13655918405E+02 -0.91833608342E+00 -0.14398783678E+03  0.19122586825E+03  0.12509000000E+03 0.  0.
         25    1    3    3    0    0  0.11244336565E+03  0.18021430035E+02 -0.26467157611E+03  0.31411277229E+03  0.12509000000E+03 0.  0.
<mgrwt>
<rscale>  2 0.45763027E+03</rscale>
<asrwt>0</asrwt>
<pdfrwt beam="1">  1       21 0.11074069E-01 0.45763027E+03</pdfrwt>
<pdfrwt beam="2">  1       21 0.10224555E+00 0.45763027E+03</pdfrwt>
<totfact> 0.48217707E+04</totfact>
</mgrwt>
</event>
<event>
 7    0  0.4725730E-002  0.4514964E+03  0.7546771E-02  0.1027277E+00
         21   -1    0    0  502  501  0.00000000000E+00  0.00000000000E+00  0.20980672312E+03  0.20980672312E+03  0.00000000000E+00 0. -1.
         21   -1    0    0  501  502 -0.00000000000E+00 -0.00000000000E+00 -0.24290090774E+03  0.24290090774E+03  0.00000000000E+00 0. -1.
      99926    2    1    2    0    0 -0.14210854715E-13 -0.35527136788E-14 -0.33094184626E+02  0.45270763086E+03  0.45149637206E+03 0.  0.
      99925    2    3    3    0    0 -0.70027392222E+02 -0.27707109561E+02 -0.10103233961E+03  0.29166533646E+03  0.26303918960E+03 0.  0.
         25    1    4    4    0    0 -0.48078855475E+02 -0.13970473366E+02 -0.10601076990E+02  0.13515413942E+03  0.12509000000E+03 0.  0.
         25    1    4    4    0    0 -0.21948536746E+02 -0.13736636195E+02 -0.90431262623E+02  0.15651119704E+03  0.12509000000E+03 0.  0.
         25    1    3    3    0    0  0.70027392222E+02  0.27707109561E+02  0.67938154988E+02  0.16104229440E+03  0.12509000000E+03 0.  0.
<mgrwt>
<rscale>  2 0.45149637E+03</rscale>
<asrwt>0</asrwt>
<pdfrwt beam="1">  1       21 0.30853930E-01 0.45149637E+03</pdfrwt>
<pdfrwt beam="2">  1       21 0.35720722E-01 0.45149637E+03</pdfrwt>
<totfact> 0.70669048E+04</totfact>
</mgrwt>
</event>
<event>
 7    0  0.4725730E-002  0.4555948E+03  0.7546771E-02  0.1026067E+00
         21   -1    0    0  502  501  0.00000000000E+00  0.00000000000E+00  0.64404881395E+03  0.64404881395E+03  0.00000000000E+00 0.  1.
         21   -1    0    0  501  502 -0.00000000000E+00 -0.00000000000E+00 -0.80571015158E+02  0.80571015158E+02  0.00000000000E+00 0.  1.
      99926    2    1    2    0    0  0.00000000000E+00  0.00000000000E+00  0.56347779880E+03  0.72461982911E+03  0.45559484963E+03 0.  0.
      99925    2    3    3    0    0 -0.10748274463E+03  0.11063948917E+02  0.41133586494E+03  0.49996536667E+03  0.26285589725E+03 0.  0.
         25    1    4    4    0    0 -0.62987128165E+02 -0.25725088996E+02  0.16702198403E+03  0.21948350682E+03  0.12509000000E+03 0.  0.
         25    1    4    4    0    0 -0.44495616468E+02  0.36789037913E+02  0.24431388091E+03  0.28048185985E+03  0.12509000000E+03 0.  0.
         25    1    3    3    0    0  0.10748274463E+03 -0.11063948917E+02  0.15214193386E+03  0.22465446245E+03  0.12509000000E+03 0.  0.
<mgrwt>
<rscale>  2 0.45559485E+03</rscale>
<asrwt>0</asrwt>
<pdfrwt beam="1">  1       21 0.94713058E-01 0.45559485E+03</pdfrwt>
<pdfrwt beam="2">  1       21 0.11848679E-01 0.45559485E+03</pdfrwt>
<totfact> 0.51345973E+04</totfact>
</mgrwt>
</event>
<event>
 7    0  0.4725730E-002  0.4607303E+03  0.7546771E-02  0.1024570E+00
         21   -1    0    0  502  501  0.00000000000E+00  0.00000000000E+00  0.80077688491E+03  0.80077688491E+03  0.00000000000E+00 0. -1.
         21   -1    0    0  501  502 -0.00000000000E+00 -0.00000000000E+00 -0.66270763517E+02  0.66270763517E+02  0.00000000000E+00 0. -1.
      99926    2    1    2    0    0  0.00000000000E+00  0.00000000000E+00  0.73450612139E+03  0.86704764843E+03  0.46073027063E+03 0.  0.
      99925    2    3    3    0    0 -0.55775021645E+02  0.57583166062E+02  0.29577726178E+03  0.40384445931E+03  0.26301993209E+03 0.  0.
         25    1    4    4    0    0 -0.18337717736E+01  0.29355058604E+02  0.18865781742E+03  0.22826379993E+03  0.12509000000E+03 0.  0.
         25    1    4    4    0    0 -0.53941249871E+02  0.28228107457E+02  0.10711944437E+03  0.17558065938E+03  0.12509000000E+03 0.  0.
         25    1    3    3    0    0  0.55775021645E+02 -0.57583166062E+02  0.43872885961E+03  0.46320318912E+03  0.12509000000E+03 0.  0.
<mgrwt>
<rscale>  2 0.46073027E+03</rscale>
<asrwt>0</asrwt>
<pdfrwt beam="1">  1       21 0.11776130E+00 0.46073027E+03</pdfrwt>
<pdfrwt beam="2">  1       21 0.97457010E-02 0.46073027E+03</pdfrwt>
<totfact> 0.42732913E+04</totfact>
</mgrwt>
</event>
<event>
 7    0  0.4725730E-002  0.4563126E+03  0.7546771E-02  0.1025856E+00
         21   -1    0    0  502  501  0.00000000000E+00  0.00000000000E+00  0.55419794621E+02  0.55419794621E+02  0.00000000000E+00 0. -1.
         21   -1    0    0  501  502 -0.00000000000E+00 -0.00000000000E+00 -0.93929077810E+03  0.93929077810E+03  0.00000000000E+00 0. -1.
      99926    2    1    2    0    0  0.00000000000E+00  0.00000000000E+00 -0.88387098348E+03  0.99471057272E+03  0.45631262096E+03 0.  0.
      99925    2    3    3    0    0 -0.70561987146E+02 -0.80357880936E+02 -0.64411304984E+03  0.70390521187E+03  0.26299152697E+03 0.  0.
         25    1    3    3    0    0  0.70561987146E+02  0.80357880936E+02 -0.23975793363E+03  0.29080536085E+03  0.12509000000E+03 0.  0.
         25    1    4    4    0    0 -0.27582042374E+02 -0.15128982086E+01 -0.25332228371E+03  0.28387100142E+03  0.12509000000E+03 0.  0.
         25    1    4    4    0    0 -0.42979944772E+02 -0.78844982728E+02 -0.39079076613E+03  0.42003421045E+03  0.12509000000E+03 0.  0.
<mgrwt>
<rscale>  2 0.45631262E+03</rscale>
<asrwt>0</asrwt>
<pdfrwt beam="1">  1       21 0.81499706E-02 0.45631262E+03</pdfrwt>
<pdfrwt beam="2">  1       21 0.13813098E+00 0.45631262E+03</pdfrwt>
<totfact> 0.38972073E+04</totfact>
</mgrwt>
</event>
<event>
 7    0  0.4725730E-002  0.4503938E+03  0.7546771E-02  0.1027605E+00
         21   -1    0    0  502  501  0.00000000000E+00  0.00000000000E+00  0.69865467750E+03  0.69865467750E+03  0.00000000000E+00 0.  1.
         21   -1    0    0  501  502 -0.00000000000E+00 -0.00000000000E+00 -0.72587574949E+02  0.72587574949E+02  0.00000000000E+00 0.  1.
      99926    2    1    2    0    0  0.00000000000E+00  0.35527136788E-14  0.62606710255E+03  0.77124225245E+03  0.45039382219E+03 0.  0.
      99925    2    3    3    0    0  0.10532423901E+03  0.27900607567E+02  0.39782778648E+03  0.48908567761E+03  0.26280451503E+03 0.  0.
         25    1    3    3    0    0 -0.10532423901E+03 -0.27900607567E+02  0.22823931607E+03  0.28215657484E+03  0.12509000000E+03 0.  0.
         25    1    4    4    0    0  0.67784571220E+02  0.52370494894E+02  0.20959531137E+03  0.25867956912E+03  0.12509000000E+03 0.  0.
         25    1    4    4    0    0  0.37539667790E+02 -0.24469887327E+02  0.18823247512E+03  0.23040610849E+03  0.12509000000E+03 0.  0.
<mgrwt>
<rscale>  2 0.45039382E+03</rscale>
<asrwt>0</asrwt>
<pdfrwt beam="1">  1       21 0.10274333E+00 0.45039382E+03</pdfrwt>
<pdfrwt beam="2">  1       21 0.10674644E-01 0.45039382E+03</pdfrwt>
<totfact> 0.51006697E+04</totfact>
</mgrwt>
</event>
<event>
 7    0  0.4725730E-002  0.4564931E+03  0.7546771E-02  0.1025803E+00
         21   -1    0    0  502  501  0.00000000000E+00  0.00000000000E+00  0.12350705221E+03  0.12350705221E+03  0.00000000000E+00 0. -1.
         21   -1    0    0  501  502 -0.00000000000E+00 -0.00000000000E+00 -0.42180984283E+03  0.42180984283E+03  0.00000000000E+00 0. -1.
      99926    2    1    2    0    0  0.00000000000E+00  0.00000000000E+00 -0.29830279062E+03  0.54531689504E+03  0.45649311181E+03 0.  0.
      99925    2    3    3    0    0 -0.22220454712E+02 -0.74272176105E+02 -0.86706815433E+02  0.28757580486E+03  0.26300507020E+03 0.  0.
         25    1    4    4    0    0  0.28829524701E+02 -0.31539303451E+02 -0.35094871920E+02  0.13676632368E+03  0.12509000000E+03 0.  0.
         25    1    3    3    0    0  0.22220454712E+02  0.74272176105E+02 -0.21159597518E+03  0.25774109018E+03  0.12509000000E+03 0.  0.
         25    1    4    4    0    0 -0.51049979413E+02 -0.42732872655E+02 -0.51611943513E+02  0.15080948119E+03  0.12509000000E+03 0.  0.
<mgrwt>
<rscale>  2 0.45649311E+03</rscale>
<asrwt>0</asrwt>
<pdfrwt beam="1">  1       21 0.18162802E-01 0.45649311E+03</pdfrwt>
<pdfrwt beam="2">  1       21 0.62030860E-01 0.45649311E+03</pdfrwt>
<totfact> 0.61447822E+04</totfact>
</mgrwt>
</event>
<event>
 7    0  0.4725730E-002  0.4526305E+03  0.7546771E-02  0.1026941E+00
         21   -1    0    0  502  501  0.00000000000E+00  0.00000000000E+00  0.14057164042E+04  0.14057164042E+04  0.00000000000E+00 0. -1.
         21   -1    0    0  501  502 -0.00000000000E+00 -0.00000000000E+00 -0.36435931618E+02  0.36435931618E+02  0.00000000000E+00 0. -1.
      99926    2    1    2    0    0  0.00000000000E+00  0.00000000000E+00  0.13692804725E+04  0.14421523358E+04  0.45263047523E+03 0.  0.
      99925    2    3    3    0    0 -0.28533067429E+02 -0.54305164895E+02  0.56931997727E+03  0.63015018740E+03  0.26306051641E+03 0.  0.
         25    1    4    4    0    0 -0.42862860469E+02 -0.52972181936E+02  0.26614961098E+03  0.30187149649E+03  0.12509000000E+03 0.  0.
         25    1    4    4    0    0  0.14329793039E+02 -0.13329829588E+01  0.30317036629E+03  0.32827869091E+03  0.12509000000E+03 0.  0.
         25    1    3    3    0    0  0.28533067429E+02  0.54305164895E+02  0.79996049527E+03  0.81200214838E+03  0.12509000000E+03 0.  0.
<mgrwt>
<rscale>  2 0.45263048E+03</rscale>
<asrwt>0</asrwt>
<pdfrwt beam="1">  1       21 0.20672296E+00 0.45263048E+03</pdfrwt>
<pdfrwt beam="2">  1       21 0.53582262E-02 0.45263048E+03</pdfrwt>
<totfact> 0.25699975E+04</totfact>
</mgrwt>
</event>
<event>
 7    0  0.4725730E-002  0.4328303E+03  0.7546771E-02  0.1032970E+00
         21   -1    0    0  502  501  0.00000000000E+00  0.00000000000E+00  0.15600412503E+03  0.15600412503E+03  0.00000000000E+00 0. -1.
         21   -1    0    0  501  502 -0.00000000000E+00 -0.00000000000E+00 -0.30021973271E+03  0.30021973271E+03  0.00000000000E+00 0. -1.
      99926    2    1    2    0    0  0.00000000000E+00  0.00000000000E+00 -0.14421560768E+03  0.45622385774E+03  0.43283029800E+03 0.  0.
      99925    2    3    3    0    0 -0.36831990258E+02  0.70927937366E+02 -0.47152052610E+02  0.27886487254E+03  0.26297325580E+03 0.  0.
         25    1    3    3    0    0  0.36831990258E+02 -0.70927937366E+02 -0.97063555073E+02  0.17735898519E+03  0.12509000000E+03 0.  0.
         25    1    4    4    0    0 -0.36083620249E-01  0.47498132903E+02 -0.58227625931E+02  0.14592476984E+03  0.12509000000E+03 0.  0.
         25    1    4    4    0    0 -0.36795906637E+02  0.23429804463E+02  0.11075573322E+02  0.13294010270E+03  0.12509000000E+03 0.  0.
<mgrwt>
<rscale>  2 0.43283030E+03</rscale>
<asrwt>0</asrwt>
<pdfrwt beam="1">  1       21 0.22941783E-01 0.43283030E+03</pdfrwt>
<pdfrwt beam="2">  1       21 0.44149960E-01 0.43283030E+03</pdfrwt>
<totfact> 0.81971219E+04</totfact>
</mgrwt>
</event>
<event>
 7    0  0.4725730E-002  0.4521476E+03  0.7546771E-02  0.1027084E+00
         21   -1    0    0  502  501  0.00000000000E+00  0.00000000000E+00  0.14087987251E+04  0.14087987251E+04  0.00000000000E+00 0. -1.
         21   -1    0    0  501  502 -0.00000000000E+00 -0.00000000000E+00 -0.36278680923E+02  0.36278680923E+02  0.00000000000E+00 0. -1.
      99926    2    1    2    0    0 -0.71054273576E-14  0.00000000000E+00  0.13725200442E+04  0.14450774061E+04  0.45214758402E+03 0.  0.
      99925    2    3    3    0    0 -0.49388783199E+02  0.81861307706E+02  0.10428355342E+04  0.10797283814E+04  0.26299600856E+03 0.  0.
         25    1    4    4    0    0 -0.17083017299E+02  0.32443088904E+01  0.40641442276E+03  0.42558494586E+03  0.12509000000E+03 0.  0.
         25    1    3    3    0    0  0.49388783199E+02 -0.81861307706E+02  0.32968450998E+03  0.36534902467E+03  0.12509000000E+03 0.  0.
         25    1    4    4    0    0 -0.32305765900E+02  0.78616998816E+02  0.63642111147E+03  0.65414343552E+03  0.12509000000E+03 0.  0.
<mgrwt>
<rscale>  2 0.45214758E+03</rscale>
<asrwt>0</asrwt>
<pdfrwt beam="1">  1       21 0.20717625E+00 0.45214758E+03</pdfrwt>
<pdfrwt beam="2">  1       21 0.53351011E-02 0.45214758E+03</pdfrwt>
<totfact> 0.25720470E+04</totfact>
</mgrwt>
</event>
<event>
 7    0  0.4725730E-002  0.4616968E+03  0.7546771E-02  0.1024290E+00
         21   -1    0    0  502  501  0.00000000000E+00  0.00000000000E+00  0.42749462411E+03  0.42749462411E+03  0.00000000000E+00 0.  1.
         21   -1    0    0  501  502 -0.00000000000E+00 -0.00000000000E+00 -0.12465882736E+03  0.12465882736E+03  0.00000000000E+00 0.  1.
      99926    2    1    2    0    0  0.71054273576E-14  0.00000000000E+00  0.30283579676E+03  0.55215345147E+03  0.46169677731E+03 0.  0.
      99925    2    3    3    0    0 -0.60859170751E+02  0.54498984119E+02  0.85493496591E+02  0.28841274268E+03  0.26305663695E+03 0.  0.
         25    1    4    4    0    0 -0.66908159173E+02  0.35174330825E+02  0.26107313288E+02  0.14846897056E+03  0.12509000000E+03 0.  0.
         25    1    4    4    0    0  0.60489884216E+01  0.19324653295E+02  0.59386183303E+02  0.13994377211E+03  0.12509000000E+03 0.  0.
         25    1    3    3    0    0  0.60859170751E+02 -0.54498984119E+02  0.21734230016E+03  0.26374070879E+03  0.12509000000E+03 0.  0.
<mgrwt>
<rscale>  2 0.46169678E+03</rscale>
<asrwt>0</asrwt>
<pdfrwt beam="1">  1       21 0.62866856E-01 0.46169678E+03</pdfrwt>
<pdfrwt beam="2">  1       21 0.18332181E-01 0.46169678E+03</pdfrwt>
<totfact> 0.58559590E+04</totfact>
</mgrwt>
</event>
<event>
 7    0  0.4725730E-002  0.4493944E+03  0.7546771E-02  0.1027903E+00
         21   -1    0    0  502  501  0.00000000000E+00  0.00000000000E+00  0.60902177457E+02  0.60902177457E+02  0.00000000000E+00 0.  1.
         21   -1    0    0  501  502 -0.00000000000E+00 -0.00000000000E+00 -0.82901530187E+03  0.82901530187E+03  0.00000000000E+00 0.  1.
      99926    2    1    2    0    0  0.00000000000E+00  0.00000000000E+00 -0.76811312441E+03  0.88991747933E+03  0.44939442377E+03 0.  0.
      99925    2    3    3    0    0  0.49434394713E+02 -0.46937647499E+02 -0.65123239157E+03  0.70564725400E+03  0.26303520127E+03 0.  0.
         25    1    4    4    0    0  0.14459984725E+01 -0.55125093513E+02 -0.35546637471E+03  0.38084736902E+03  0.12509000000E+03 0.  0.
         25    1    3    3    0    0 -0.49434394713E+02  0.46937647499E+02 -0.11688073284E+03  0.18427022533E+03  0.12509000000E+03 0.  0.
         25    1    4    4    0    0  0.47988396240E+02  0.81874460137E+01 -0.29576601687E+03  0.32479988497E+03  0.12509000000E+03 0.  0.
<mgrwt>
<rscale>  2 0.44939442E+03</rscale>
<asrwt>0</asrwt>
<pdfrwt beam="1">  1       21 0.89562033E-02 0.44939442E+03</pdfrwt>
<pdfrwt beam="2">  1       21 0.12191400E+00 0.44939442E+03</pdfrwt>
<totfact> 0.45643270E+04</totfact>
</mgrwt>
</event>
<event>
 7    0  0.4725730E-002  0.4553041E+03  0.7546771E-02  0.1026152E+00
         21   -1    0    0  502  501  0.00000000000E+00  0.00000000000E+00  0.62578041864E+02  0.62578041864E+02  0.00000000000E+00 0. -1.
         21   -1    0    0  501  502 -0.00000000000E+00 -0.00000000000E+00 -0.82817305458E+03  0.82817305458E+03  0.00000000000E+00 0. -1.
      99926    2    1    2    0    0 -0.17763568394E-14  0.00000000000E+00 -0.76559501271E+03  0.89075109644E+03  0.45530406578E+03 0.  0.
      99925    2    3    3    0    0 -0.91409691975E+01  0.36516669734E+02 -0.27340559496E+03  0.38152132951E+03  0.26342148930E+03 0.  0.
         25    1    4    4    0    0  0.30622338341E+02  0.32080965712E+02 -0.11380316108E+03  0.17483015626E+03  0.12509000000E+03 0.  0.
         25    1    4    4    0    0 -0.39763307539E+02  0.44357040226E+01 -0.15960243388E+03  0.20669117325E+03  0.12509000000E+03 0.  0.
         25    1    3    3    0    0  0.91409691975E+01 -0.36516669734E+02 -0.49218941775E+03  0.50922976693E+03  0.12509000000E+03 0.  0.
<mgrwt>
<rscale>  2 0.45530407E+03</rscale>
<asrwt>0</asrwt>
<pdfrwt beam="1">  1       21 0.92026530E-02 0.45530407E+03</pdfrwt>
<pdfrwt beam="2">  1       21 0.12179016E+00 0.45530407E+03</pdfrwt>
<totfact> 0.43532251E+04</totfact>
</mgrwt>
</event>
<event>
 7    0  0.4725730E-002  0.4550240E+03  0.7546771E-02  0.1026234E+00
         21   -1    0    0  502  501  0.00000000000E+00  0.00000000000E+00  0.11053469340E+03  0.11053469340E+03  0.00000000000E+00 0.  1.
         21   -1    0    0  501  502 -0.00000000000E+00 -0.00000000000E+00 -0.46828475530E+03  0.46828475530E+03  0.00000000000E+00 0.  1.
      99926    2    1    2    0    0  0.00000000000E+00  0.00000000000E+00 -0.35775006190E+03  0.57881944870E+03  0.45502400750E+03 0.  0.
      99925    2    3    3    0    0 -0.11343701331E+02  0.45706000465E+02 -0.94159279830E+02  0.28327702106E+03  0.26298703893E+03 0.  0.
         25    1    3    3    0    0  0.11343701331E+02 -0.45706000465E+02 -0.26359078207E+03  0.29554242763E+03  0.12509000000E+03 0.  0.
         25    1    4    4    0    0 -0.35219158334E+02  0.14565824842E+02 -0.18942667422E+02  0.13213207452E+03  0.12509000000E+03 0.  0.
         25    1    4    4    0    0  0.23875457003E+02  0.31140175623E+02 -0.75216612408E+02  0.15114494655E+03  0.12509000000E+03 0.  0.
<mgrwt>
<rscale>  2 0.45502401E+03</rscale>
<asrwt>0</asrwt>
<pdfrwt beam="1">  1       21 0.16255102E-01 0.45502401E+03</pdfrwt>
<pdfrwt beam="2">  1       21 0.68865405E-01 0.45502401E+03</pdfrwt>
<totfact> 0.59989913E+04</totfact>
</mgrwt>
</event>
<event>
 7    0  0.4725730E-002  0.4541310E+03  0.7546771E-02  0.1026497E+00
         21   -1    0    0  502  501  0.00000000000E+00  0.00000000000E+00  0.20295447097E+03  0.20295447097E+03  0.00000000000E+00 0. -1.
         21   -1    0    0  501  502 -0.00000000000E+00 -0.00000000000E+00 -0.25404092586E+03  0.25404092586E+03  0.00000000000E+00 0. -1.
      99926    2    1    2    0    0  0.00000000000E+00  0.00000000000E+00 -0.51086454890E+02  0.45699539684E+03  0.45413100187E+03 0.  0.
      99925    2    3    3    0    0 -0.98660406315E+02  0.53894880235E+02 -0.33087906032E+02  0.28785051885E+03  0.26291553356E+03 0.  0.
         25    1    4    4    0    0 -0.39201821140E+02  0.45223511833E+02 -0.51367302891E+02  0.14787852011E+03  0.12509000000E+03 0.  0.
         25    1    3    3    0    0  0.98660406315E+02 -0.53894880235E+02 -0.17998548858E+02  0.16914487799E+03  0.12509000000E+03 0.  0.
         25    1    4    4    0    0 -0.59458585175E+02  0.86713684013E+01  0.18279396859E+02  0.13997199874E+03  0.12509000000E+03 0.  0.
<mgrwt>
<rscale>  2 0.45413100E+03</rscale>
<asrwt>0</asrwt>
<pdfrwt beam="1">  1       21 0.29846246E-01 0.45413100E+03</pdfrwt>
<pdfrwt beam="2">  1       21 0.37358960E-01 0.45413100E+03</pdfrwt>
<totfact> 0.68876089E+04</totfact>
</mgrwt>
</event>
<event>
 7    0  0.4725730E-002  0.4531015E+03  0.7546771E-02  0.1026801E+00
         21   -1    0    0  502  501  0.00000000000E+00  0.00000000000E+00  0.67897181459E+02  0.67897181459E+02  0.00000000000E+00 0. -1.
         21   -1    0    0  501  502 -0.00000000000E+00 -0.00000000000E+00 -0.75592586414E+03  0.75592586414E+03  0.00000000000E+00 0. -1.
      99926    2    1    2    0    0  0.00000000000E+00  0.00000000000E+00 -0.68802868269E+03  0.82382304560E+03  0.45310147017E+03 0.  0.
      99925    2    3    3    0    0  0.27040565260E+02  0.10759664658E+03 -0.41695736590E+03  0.50533380339E+03  0.26306002612E+03 0.  0.
         25    1    4    4    0    0  0.47901078041E+02  0.67992251412E+02 -0.18825689658E+03  0.24084357318E+03  0.12509000000E+03 0.  0.
         25    1    3    3    0    0 -0.27040565260E+02 -0.10759664658E+03 -0.27107131678E+03  0.31848924222E+03  0.12509000000E+03 0.  0.
         25    1    4    4    0    0 -0.20860512782E+02  0.39604395169E+02 -0.22870046932E+03  0.26449023021E+03  0.12509000000E+03 0.  0.
<mgrwt>
<rscale>  2 0.45310147E+03</rscale>
<asrwt>0</asrwt>
<pdfrwt beam="1">  1       21 0.99848800E-02 0.45310147E+03</pdfrwt>
<pdfrwt beam="2">  1       21 0.11116556E+00 0.45310147E+03</pdfrwt>
<totfact> 0.47335223E+04</totfact>
</mgrwt>
</event>
<event>
 7    0  0.4725730E-002  0.4522623E+03  0.7546771E-02  0.1027050E+00
         21   -1    0    0  502  501  0.00000000000E+00  0.00000000000E+00  0.18024147995E+03  0.18024147995E+03  0.00000000000E+00 0. -1.
         21   -1    0    0  501  502 -0.00000000000E+00 -0.00000000000E+00 -0.28370433960E+03  0.28370433960E+03  0.00000000000E+00 0. -1.
      99926    2    1    2    0    0  0.35527136788E-14  0.14210854715E-13 -0.10346285965E+03  0.46394581955E+03  0.45226226921E+03 0.  0.
      99925    2    3    3    0    0 -0.18061303759E+02 -0.97024305527E+02 -0.14052420917E+02  0.28123933031E+03  0.26297939810E+03 0.  0.
         25    1    4    4    0    0 -0.26254340567E+02 -0.99430761616E+01 -0.90661892205E+01  0.12852182324E+03  0.12509000000E+03 0.  0.
         25    1    3    3    0    0  0.18061303759E+02  0.97024305527E+02 -0.89410438730E+02  0.18270648924E+03  0.12509000000E+03 0.  0.
         25    1    4    4    0    0  0.81930368086E+01 -0.87081229366E+02 -0.49862316967E+01  0.15271750707E+03  0.12509000000E+03 0.  0.
<mgrwt>
<rscale>  2 0.45226227E+03</rscale>
<asrwt>0</asrwt>
<pdfrwt beam="1">  1       21 0.26506100E-01 0.45226227E+03</pdfrwt>
<pdfrwt beam="2">  1       21 0.41721226E-01 0.45226227E+03</pdfrwt>
<totfact> 0.69383513E+04</totfact>
</mgrwt>
</event>
<event>
 7    0  0.4725730E-002  0.4561818E+03  0.7546771E-02  0.1025894E+00
         21   -1    0    0  502  501  0.00000000000E+00  0.00000000000E+00  0.11025258170E+03  0.11025258170E+03  0.00000000000E+00 0.  1.
         21   -1    0    0  501  502 -0.00000000000E+00 -0.00000000000E+00 -0.47187524779E+03  0.47187524779E+03  0.00000000000E+00 0.  1.
      99926    2    1    2    0    0  0.00000000000E+00  0.00000000000E+00 -0.36162266609E+03  0.58212782949E+03  0.45618182476E+03 0.  0.
      99925    2    3    3    0    0 -0.10811173091E+03 -0.35982521821E+02 -0.21898993559E+03  0.36082601715E+03  0.26316522287E+03 0.  0.
         25    1    4    4    0    0 -0.20535871017E+02 -0.33985256951E+02 -0.76210613212E+02  0.15176391322E+03  0.12509000000E+03 0.  0.
         25    1    3    3    0    0  0.10811173091E+03  0.35982521821E+02 -0.14263273050E+03  0.22130181234E+03  0.12509000000E+03 0.  0.
         25    1    4    4    0    0 -0.87575859890E+02 -0.19972648696E+01 -0.14277932238E+03  0.20906210394E+03  0.12509000000E+03 0.  0.
<mgrwt>
<rscale>  2 0.45618182E+03</rscale>
<asrwt>0</asrwt>
<pdfrwt beam="1">  1       21 0.16213615E-01 0.45618182E+03</pdfrwt>
<pdfrwt beam="2">  1       21 0.69393419E-01 0.45618182E+03</pdfrwt>
<totfact> 0.59236684E+04</totfact>
</mgrwt>
</event>
<event>
 7    0  0.4725730E-002  0.4629949E+03  0.7546771E-02  0.1023916E+00
         21   -1    0    0  502  501  0.00000000000E+00  0.00000000000E+00  0.44519267828E+03  0.44519267828E+03  0.00000000000E+00 0. -1.
         21   -1    0    0  501  502 -0.00000000000E+00 -0.00000000000E+00 -0.12037724473E+03  0.12037724473E+03  0.00000000000E+00 0. -1.
      99926    2    1    2    0    0  0.00000000000E+00  0.00000000000E+00  0.32481543355E+03  0.56556992302E+03  0.46299489409E+03 0.  0.
      99925    2    3    3    0    0 -0.84266701876E+02 -0.15826510632E+02  0.30655129417E+03  0.41282031624E+03  0.26286034706E+03 0.  0.
         25    1    4    4    0    0 -0.46732621045E+02  0.11068377184E+02  0.10094215051E+03  0.16775956811E+03  0.12509000000E+03 0.  0.
         25    1    3    3    0    0  0.84266701876E+02  0.15826510632E+02  0.18264139375E+02  0.15274960678E+03  0.12509000000E+03 0.  0.
         25    1    4    4    0    0 -0.37534080831E+02 -0.26894887816E+02  0.20560914366E+03  0.24506074813E+03  0.12509000000E+03 0.  0.
<mgrwt>
<rscale>  2 0.46299489E+03</rscale>
<asrwt>0</asrwt>
<pdfrwt beam="1">  1       21 0.65469511E-01 0.46299489E+03</pdfrwt>
<pdfrwt beam="2">  1       21 0.17702536E-01 0.46299489E+03</pdfrwt>
<totfact> 0.57148989E+04</totfact>
</mgrwt>
</event>
<event>
 7    0  0.4725730E-002  0.4641447E+03  0.7546771E-02  0.1023586E+00
         21   -1    0    0  502  501  0.00000000000E+00  0.00000000000E+00  0.13822417670E+04  0.13822417670E+04  0.00000000000E+00 0. -1.
         21   -1    0    0  501  502 -0.00000000000E+00 -0.00000000000E+00 -0.38963926575E+02  0.38963926575E+02  0.00000000000E+00 0. -1.
      99926    2    1    2    0    0  0.00000000000E+00  0.00000000000E+00  0.13432778404E+04  0.14212056935E+04  0.46414466158E+03 0.  0.
      99925    2    3    3    0    0 -0.11183757936E+03 -0.43397559582E+02  0.89876603087E+03  0.94410062205E+03  0.26297264873E+03 0.  0.
         25    1    3    3    0    0  0.11183757936E+03  0.43397559582E+02  0.44451180952E+03  0.47710507148E+03  0.12509000000E+03 0.  0.
         25    1    4    4    0    0 -0.73329893238E+02 -0.38776856145E+02  0.58824032256E+03  0.60708739322E+03  0.12509000000E+03 0.  0.
         25    1    4    4    0    0 -0.38507686126E+02 -0.46207034363E+01  0.31052570830E+03  0.33701322883E+03  0.12509000000E+03 0.  0.
<mgrwt>
<rscale>  2 0.46414466E+03</rscale>
<asrwt>0</asrwt>
<pdfrwt beam="1">  1       21 0.20327082E+00 0.46414466E+03</pdfrwt>
<pdfrwt beam="2">  1       21 0.57299901E-02 0.46414466E+03</pdfrwt>
<totfact> 0.24019708E+04</totfact>
</mgrwt>
</event>
<event>
 7    0  0.4725730E-002  0.4556159E+03  0.7546771E-02  0.1026060E+00
         21   -1    0    0  502  501  0.00000000000E+00  0.00000000000E+00  0.11443983455E+04  0.11443983455E+04  0.00000000000E+00 0.  1.
         21   -1    0    0  501  502 -0.00000000000E+00 -0.00000000000E+00 -0.45348242407E+02  0.45348242407E+02  0.00000000000E+00 0.  1.
      99926    2    1    2    0    0  0.14210854715E-13  0.00000000000E+00  0.10990501031E+04  0.11897465879E+04  0.45561586268E+03 0.  0.
      99925    2    3    3    0    0  0.78271171029E+02 -0.68581000825E+02  0.81115522339E+03  0.85904929468E+03  0.26298890541E+03 0.  0.
         25    1    4    4    0    0  0.22888048774E+01 -0.13608461023E+02  0.33325373169E+03  0.35622462945E+03  0.12509000000E+03 0.  0.
         25    1    3    3    0    0 -0.78271171029E+02  0.68581000825E+02  0.28789487971E+03  0.33069729323E+03  0.12509000000E+03 0.  0.
         25    1    4    4    0    0  0.75982366152E+02 -0.54972539802E+02  0.47790149170E+03  0.50282466523E+03  0.12509000000E+03 0.  0.
<mgrwt>
<rscale>  2 0.45561586E+03</rscale>
<asrwt>0</asrwt>
<pdfrwt beam="1">  1       21 0.16829386E+00 0.45561586E+03</pdfrwt>
<pdfrwt beam="2">  1       21 0.66688599E-02 0.45561586E+03</pdfrwt>
<totfact> 0.32327237E+04</totfact>
</mgrwt>
</event>
<event>
 7    0  0.4725730E-002  0.4573810E+03  0.7546771E-02  0.1025544E+00
         21   -1    0    0  502  501  0.00000000000E+00  0.00000000000E+00  0.91363891732E+02  0.91363891732E+02  0.00000000000E+00 0. -1.
         21   -1    0    0  501  502 -0.00000000000E+00 -0.00000000000E+00 -0.57242900069E+03  0.57242900069E+03  0.00000000000E+00 0. -1.
      99926    2    1    2    0    0  0.00000000000E+00  0.00000000000E+00 -0.48106510896E+03  0.66379289242E+03  0.45738098449E+03 0.  0.
      99925    2    3    3    0    0 -0.88723007500E+02  0.66353108025E+02 -0.34917056346E+03  0.45091220697E+03  0.26292057547E+03 0.  0.
         25    1    4    4    0    0 -0.45912683429E+02  0.41099539036E+02 -0.24014255484E+03  0.27769245822E+03  0.12509000000E+03 0.  0.
         25    1    4    4    0    0 -0.42810324071E+02  0.25253568989E+02 -0.10902800862E+03  0.17321974875E+03  0.12509000000E+03 0.  0.
         25    1    3    3    0    0  0.88723007500E+02 -0.66353108025E+02 -0.13189454550E+03  0.21288068545E+03  0.12509000000E+03 0.  0.
<mgrwt>
<rscale>  2 0.45738098E+03</rscale>
<asrwt>0</asrwt>
<pdfrwt beam="1">  1       21 0.13435867E-01 0.45738098E+03</pdfrwt>
<pdfrwt beam="2">  1       21 0.84180732E-01 0.45738098E+03</pdfrwt>
<totfact> 0.53894041E+04</totfact>
</mgrwt>
</event>
<event>
 7    0  0.4725730E-002  0.4501587E+03  0.7546771E-02  0.1027675E+00
         21   -1    0    0  502  501  0.00000000000E+00  0.00000000000E+00  0.49434312044E+03  0.49434312044E+03  0.00000000000E+00 0.  1.
         21   -1    0    0  501  502 -0.00000000000E+00 -0.00000000000E+00 -0.10248086790E+03  0.10248086790E+03  0.00000000000E+00 0.  1.
      99926    2    1    2    0    0  0.00000000000E+00  0.14210854715E-13  0.39186225254E+03  0.59682398834E+03  0.45015869213E+03 0.  0.
      99925    2    3    3    0    0  0.17353878862E+02  0.10707720028E+03  0.25391875635E+03  0.38131853558E+03  0.26298746514E+03 0.  0.
         25    1    4    4    0    0  0.35247580706E+02  0.79711551398E+02  0.11094354691E+03  0.18855318102E+03  0.12509000000E+03 0.  0.
         25    1    3    3    0    0 -0.17353878862E+02 -0.10707720028E+03  0.13794349619E+03  0.21550545277E+03  0.12509000000E+03 0.  0.
         25    1    4    4    0    0 -0.17893701844E+02  0.27365648878E+02  0.14297520944E+03  0.19276535456E+03  0.12509000000E+03 0.  0.
<mgrwt>
<rscale>  2 0.45015869E+03</rscale>
<asrwt>0</asrwt>
<pdfrwt beam="1">  1       21 0.72697517E-01 0.45015869E+03</pdfrwt>
<pdfrwt beam="2">  1       21 0.15070716E-01 0.45015869E+03</pdfrwt>
<totfact> 0.61181305E+04</totfact>
</mgrwt>
</event>
<event>
 7    0  0.4725730E-002  0.4699388E+03  0.7546771E-02  0.1021937E+00
         21   -1    0    0  502  501  0.00000000000E+00  0.00000000000E+00  0.17598044146E+03  0.17598044146E+03  0.00000000000E+00 0.  1.
         21   -1    0    0  501  502 -0.00000000000E+00 -0.00000000000E+00 -0.31373160939E+03  0.31373160939E+03  0.00000000000E+00 0.  1.
      99926    2    1    2    0    0  0.00000000000E+00  0.00000000000E+00 -0.13775116793E+03  0.48971205084E+03  0.46993883482E+03 0.  0.
      99925    2    3    3    0    0  0.33787334867E+02 -0.27631087424E+02  0.38915922508E+02  0.26888671277E+03  0.26245105123E+03 0.  0.
         25    1    4    4    0    0  0.24231911737E+02 -0.14951333266E+02 -0.19772265312E+02  0.12980438547E+03  0.12509000000E+03 0.  0.
         25    1    3    3    0    0 -0.33787334867E+02  0.27631087424E+02 -0.17666709044E+03  0.22082533807E+03  0.12509000000E+03 0.  0.
         25    1    4    4    0    0  0.95554231299E+01 -0.12679754158E+02  0.58688187820E+02  0.13908232730E+03  0.12509000000E+03 0.  0.
<mgrwt>
<rscale>  2 0.46993883E+03</rscale>
<asrwt>0</asrwt>
<pdfrwt beam="1">  1       21 0.25879477E-01 0.46993883E+03</pdfrwt>
<pdfrwt beam="2">  1       21 0.46137001E-01 0.46993883E+03</pdfrwt>
<totfact> 0.58721543E+04</totfact>
</mgrwt>
</event>
<event>
 7    0  0.4725730E-002  0.4526862E+03  0.7546771E-02  0.1026924E+00
         21   -1    0    0  502  501  0.00000000000E+00  0.00000000000E+00  0.21328422987E+03  0.21328422987E+03  0.00000000000E+00 0.  1.
         21   -1    0    0  501  502 -0.00000000000E+00 -0.00000000000E+00 -0.24020149000E+03  0.24020149000E+03  0.00000000000E+00 0.  1.
      99926    2    1    2    0    0 -0.14210854715E-13  0.00000000000E+00 -0.26917260126E+02  0.45348571987E+03  0.45268615976E+03 0.  0.
      99925    2    3    3    0    0  0.76782821806E+02 -0.73032555637E+02  0.15940713581E+02  0.28403463573E+03  0.26304412565E+03 0.  0.
         25    1    3    3    0    0 -0.76782821806E+02  0.73032555637E+02 -0.42857973708E+02  0.16945108414E+03  0.12509000000E+03 0.  0.
         25    1    4    4    0    0  0.53135409684E+02 -0.64573409220E+02  0.36425905026E+02  0.15481424869E+03  0.12509000000E+03 0.  0.
         25    1    4    4    0    0  0.23647412122E+02 -0.84591464171E+01 -0.20485191445E+02  0.12922038704E+03  0.12509000000E+03 0.  0.
<mgrwt>
<rscale>  2 0.45268616E+03</rscale>
<asrwt>0</asrwt>
<pdfrwt beam="1">  1       21 0.31365328E-01 0.45268616E+03</pdfrwt>
<pdfrwt beam="2">  1       21 0.35323749E-01 0.45268616E+03</pdfrwt>
<totfact> 0.69939210E+04</totfact>
</mgrwt>
</event>
<event>
 7    0  0.4725730E-002  0.4414379E+03  0.7546771E-02  0.1030307E+00
         21   -1    0    0  502  501  0.00000000000E+00  0.00000000000E+00  0.39706778632E+03  0.39706778632E+03  0.00000000000E+00 0.  1.
         21   -1    0    0  501  502 -0.00000000000E+00 -0.00000000000E+00 -0.12269153391E+03  0.12269153391E+03  0.00000000000E+00 0.  1.
      99926    2    1    2    0    0  0.00000000000E+00 -0.53290705182E-14  0.27437625241E+03  0.51975932024E+03  0.44143790400E+03 0.  0.
      99925    2    3    3    0    0 -0.91527218345E+02 -0.15403042345E+02  0.21841554771E+03  0.35424921788E+03  0.26300697990E+03 0.  0.
         25    1    4    4    0    0 -0.39188757486E+02 -0.43662320499E+02  0.86735992533E+02  0.16313429267E+03  0.12509000000E+03 0.  0.
         25    1    3    3    0    0  0.91527218345E+02  0.15403042345E+02  0.55960704701E+02  0.16551010236E+03  0.12509000000E+03 0.  0.
         25    1    4    4    0    0 -0.52338460859E+02  0.28259278154E+02  0.13167955518E+03  0.19111492521E+03  0.12509000000E+03 0.  0.
<mgrwt>
<rscale>  2 0.44143790E+03</rscale>
<asrwt>0</asrwt>
<pdfrwt beam="1">  1       21 0.58392321E-01 0.44143790E+03</pdfrwt>
<pdfrwt beam="2">  1       21 0.18042873E-01 0.44143790E+03</pdfrwt>
<totfact> 0.71259428E+04</totfact>
</mgrwt>
</event>
<event>
 7    0  0.4725730E-002  0.4546356E+03  0.7546771E-02  0.1026349E+00
         21   -1    0    0  502  501  0.00000000000E+00  0.00000000000E+00  0.62665745967E+02  0.62665745967E+02  0.00000000000E+00 0. -1.
         21   -1    0    0  501  502 -0.00000000000E+00 -0.00000000000E+00 -0.82458738872E+03  0.82458738872E+03  0.00000000000E+00 0. -1.
      99926    2    1    2    0    0  0.00000000000E+00  0.00000000000E+00 -0.76192164276E+03  0.88725313469E+03  0.45463560718E+03 0.  0.
      99925    2    3    3    0    0 -0.21377367646E+02  0.43348439779E+02 -0.28076221523E+03  0.38775540509E+03  0.26304135340E+03 0.  0.
         25    1    4    4    0    0 -0.40466933587E+02  0.32168838285E+02 -0.10713834593E+03  0.17262253659E+03  0.12509000000E+03 0.  0.
         25    1    3    3    0    0  0.21377367646E+02 -0.43348439779E+02 -0.48115942753E+03  0.49949772960E+03  0.12509000000E+03 0.  0.
         25    1    4    4    0    0  0.19089565941E+02  0.11179601494E+02 -0.17362386930E+03  0.21513286850E+03  0.12509000000E+03 0.  0.
<mgrwt>
<rscale>  2 0.45463561E+03</rscale>
<asrwt>0</asrwt>
<pdfrwt beam="1">  1       21 0.92155512E-02 0.45463561E+03</pdfrwt>
<pdfrwt beam="2">  1       21 0.12126285E+00 0.45463561E+03</pdfrwt>
<totfact> 0.43914596E+04</totfact>
</mgrwt>
</event>
<event>
 7    0  0.4725730E-002  0.4452307E+03  0.7546771E-02  0.1029154E+00
         21   -1    0    0  502  501  0.00000000000E+00  0.00000000000E+00  0.20805386501E+03  0.20805386501E+03  0.00000000000E+00 0.  1.
         21   -1    0    0  501  502 -0.00000000000E+00 -0.00000000000E+00 -0.23819592770E+03  0.23819592770E+03  0.00000000000E+00 0.  1.
      99926    2    1    2    0    0  0.00000000000E+00  0.00000000000E+00 -0.30142062684E+02  0.44624979271E+03  0.44523065208E+03 0.  0.
      99925    2    3    3    0    0  0.83808641463E+02  0.37869271202E+02 -0.67347225726E+02  0.28659484496E+03  0.26295053956E+03 0.  0.
         25    1    4    4    0    0  0.65736383286E+02  0.62443609483E+01 -0.34661587273E+01  0.14149129474E+03  0.12509000000E+03 0.  0.
         25    1    4    4    0    0  0.18072258178E+02  0.31624910253E+02 -0.63881066999E+02  0.14510355022E+03  0.12509000000E+03 0.  0.
         25    1    3    3    0    0 -0.83808641463E+02 -0.37869271202E+02  0.37205163042E+02  0.15965494775E+03  0.12509000000E+03 0.  0.
<mgrwt>
<rscale>  2 0.44523065E+03</rscale>
<asrwt>0</asrwt>
<pdfrwt beam="1">  1       21 0.30596157E-01 0.44523065E+03</pdfrwt>
<pdfrwt beam="2">  1       21 0.35028813E-01 0.44523065E+03</pdfrwt>
<totfact> 0.74858754E+04</totfact>
</mgrwt>
</event>
<event>
 7    0  0.4725730E-002  0.4659453E+03  0.7546771E-02  0.1023071E+00
         21   -1    0    0  502  501  0.00000000000E+00  0.00000000000E+00  0.83674551353E+03  0.83674551353E+03  0.00000000000E+00 0.  1.
         21   -1    0    0  501  502 -0.00000000000E+00 -0.00000000000E+00 -0.64865908853E+02  0.64865908853E+02  0.00000000000E+00 0.  1.
      99926    2    1    2    0    0  0.00000000000E+00  0.35527136788E-14  0.77187960468E+03  0.90161142239E+03  0.46594531101E+03 0.  0.
      99925    2    3    3    0    0  0.74701595266E+02 -0.23555054618E+02  0.66494727262E+03  0.71935555644E+03  0.26302542135E+03 0.  0.
         25    1    4    4    0    0  0.12485567543E+02  0.19237750309E+02  0.27680398145E+03  0.30462096559E+03  0.12509000000E+03 0.  0.
         25    1    4    4    0    0  0.62216027722E+02 -0.42792804927E+02  0.38814329117E+03  0.41473459084E+03  0.12509000000E+03 0.  0.
         25    1    3    3    0    0 -0.74701595266E+02  0.23555054618E+02  0.10693233206E+03  0.18225586595E+03  0.12509000000E+03 0.  0.
<mgrwt>
<rscale>  2 0.46594531E+03</rscale>
<asrwt>0</asrwt>
<pdfrwt beam="1">  1       21 0.12305080E+00 0.46594531E+03</pdfrwt>
<pdfrwt beam="2">  1       21 0.95391047E-02 0.46594531E+03</pdfrwt>
<totfact> 0.39655037E+04</totfact>
</mgrwt>
</event>
<event>
 7    0  0.4725730E-002  0.4581653E+03  0.7546771E-02  0.1025315E+00
         21   -1    0    0  502  501  0.00000000000E+00  0.00000000000E+00  0.31472983985E+03  0.31472983985E+03  0.00000000000E+00 0.  1.
         21   -1    0    0  501  502 -0.00000000000E+00 -0.00000000000E+00 -0.16674259794E+03  0.16674259794E+03  0.00000000000E+00 0.  1.
      99926    2    1    2    0    0 -0.35527136788E-14  0.14210854715E-13  0.14798724191E+03  0.48147243779E+03  0.45816534634E+03 0.  0.
      99925    2    3    3    0    0  0.28476102121E+02 -0.80621877898E+02  0.17543573771E+03  0.32748638775E+03  0.26298072269E+03 0.  0.
         25    1    3    3    0    0 -0.28476102121E+02  0.80621877898E+02 -0.27448495799E+02  0.15398605005E+03  0.12509000000E+03 0.  0.
         25    1    4    4    0    0  0.15417030685E+02 -0.75977775072E+02  0.68463165383E+02  0.16231149144E+03  0.12509000000E+03 0.  0.
         25    1    4    4    0    0  0.13059071435E+02 -0.46441028259E+01  0.10697257233E+03  0.16517489630E+03  0.12509000000E+03 0.  0.
<mgrwt>
<rscale>  2 0.45816535E+03</rscale>
<asrwt>0</asrwt>
<pdfrwt beam="1">  1       21 0.46283800E-01 0.45816535E+03</pdfrwt>
<pdfrwt beam="2">  1       21 0.24520970E-01 0.45816535E+03</pdfrwt>
<totfact> 0.64945937E+04</totfact>
</mgrwt>
</event>
<event>
 7    0  0.4725730E-002  0.4615675E+03  0.7546771E-02  0.1024328E+00
         21   -1    0    0  502  501  0.00000000000E+00  0.00000000000E+00  0.45852644571E+03  0.45852644571E+03  0.00000000000E+00 0.  1.
         21   -1    0    0  501  502 -0.00000000000E+00 -0.00000000000E+00 -0.11615720299E+03  0.11615720299E+03  0.00000000000E+00 0.  1.
      99926    2    1    2    0    0  0.14210854715E-13  0.00000000000E+00  0.34236924272E+03  0.57468364871E+03  0.46156754406E+03 0.  0.
      99925    2    3    3    0    0 -0.79519694052E+02 -0.78772282546E+02  0.16322859379E+03  0.32918958678E+03  0.26304706039E+03 0.  0.
         25    1    4    4    0    0 -0.22619618023E+02  0.59641392552E+00  0.75798286698E+02  0.14800301076E+03  0.12509000000E+03 0.  0.
         25    1    4    4    0    0 -0.56900076029E+02 -0.79368696472E+02  0.87430307092E+02  0.18118657602E+03  0.12509000000E+03 0.  0.
         25    1    3    3    0    0  0.79519694052E+02  0.78772282546E+02  0.17914064893E+03  0.24549406192E+03  0.12509000000E+03 0.  0.
<mgrwt>
<rscale>  2 0.46156754E+03</rscale>
<asrwt>0</asrwt>
<pdfrwt beam="1">  1       21 0.67430359E-01 0.46156754E+03</pdfrwt>
<pdfrwt beam="2">  1       21 0.17081942E-01 0.46156754E+03</pdfrwt>
<totfact> 0.57233723E+04</totfact>
</mgrwt>
</event>
<event>
 7    0  0.4725730E-002  0.4557558E+03  0.7546771E-02  0.1026019E+00
         21   -1    0    0  502  501  0.00000000000E+00  0.00000000000E+00  0.13178006937E+03  0.13178006937E+03  0.00000000000E+00 0.  1.
         21   -1    0    0  501  502 -0.00000000000E+00 -0.00000000000E+00 -0.39405306118E+03  0.39405306118E+03  0.00000000000E+00 0.  1.
      99926    2    1    2    0    0 -0.71054273576E-14 -0.17763568394E-14 -0.26227299181E+03  0.52583313055E+03  0.45575581066E+03 0.  0.
      99925    2    3    3    0    0 -0.51106329494E+02 -0.14176964172E+02 -0.48628302095E+02  0.27264465378E+03  0.26297823530E+03 0.  0.
         25    1    3    3    0    0  0.51106329494E+02  0.14176964172E+02 -0.21364468971E+03  0.25318847677E+03  0.12509000000E+03 0.  0.
         25    1    4    4    0    0  0.55512233595E+01 -0.30625344435E+02 -0.35590191293E+02  0.13372695173E+03  0.12509000000E+03 0.  0.
         25    1    4    4    0    0 -0.56657552854E+02  0.16448380264E+02 -0.13038110802E+02  0.13891770205E+03  0.12509000000E+03 0.  0.
<mgrwt>
<rscale>  2 0.45575581E+03</rscale>
<asrwt>0</asrwt>
<pdfrwt beam="1">  1       21 0.19379423E-01 0.45575581E+03</pdfrwt>
<pdfrwt beam="2">  1       21 0.57948978E-01 0.45575581E+03</pdfrwt>
<totfact> 0.63110507E+04</totfact>
</mgrwt>
</event>
<event>
 7    0  0.4725730E-002  0.4569823E+03  0.7546771E-02  0.1025660E+00
         21   -1    0    0  502  501  0.00000000000E+00  0.00000000000E+00  0.16497402405E+04  0.16497402405E+04  0.00000000000E+00 0. -1.
         21   -1    0    0  501  502 -0.00000000000E+00 -0.00000000000E+00 -0.31646321992E+02  0.31646321992E+02  0.00000000000E+00 0. -1.
      99926    2    1    2    0    0  0.00000000000E+00  0.00000000000E+00  0.16180939185E+04  0.16813865625E+04  0.45698232287E+03 0.  0.
      99925    2    3    3    0    0  0.31586112297E+02  0.71997065180E+02  0.70717119695E+03  0.75855994137E+03  0.26294642607E+03 0.  0.
         25    1    4    4    0    0  0.23453798094E+02  0.20498943132E+02  0.24386758062E+03  0.27584269483E+03  0.12509000000E+03 0.  0.
         25    1    3    3    0    0 -0.31586112297E+02 -0.71997065180E+02  0.91092272153E+03  0.92282662109E+03  0.12509000000E+03 0.  0.
         25    1    4    4    0    0  0.81323142023E+01  0.51498122048E+02  0.46330361632E+03  0.48271724654E+03  0.12509000000E+03 0.  0.
<mgrwt>
<rscale>  2 0.45698232E+03</rscale>
<asrwt>0</asrwt>
<pdfrwt beam="1">  1       21 0.24260880E+00 0.45698232E+03</pdfrwt>
<pdfrwt beam="2">  1       21 0.46538720E-02 0.45698232E+03</pdfrwt>
<totfact> 0.19352105E+04</totfact>
</mgrwt>
</event>
<event>
 7    0  0.4725730E-002  0.4547230E+03  0.7546771E-02  0.1026323E+00
         21   -1    0    0  502  501  0.00000000000E+00  0.00000000000E+00  0.47880745986E+03  0.47880745986E+03  0.00000000000E+00 0.  1.
         21   -1    0    0  501  502 -0.00000000000E+00 -0.00000000000E+00 -0.10796252086E+03  0.10796252086E+03  0.00000000000E+00 0.  1.
      99926    2    1    2    0    0  0.00000000000E+00  0.00000000000E+00  0.37084493900E+03  0.58676998071E+03  0.45472303821E+03 0.  0.
      99925    2    3    3    0    0 -0.37699661078E+02 -0.36716791894E+02  0.10525938661E+03  0.28852078794E+03  0.26342991355E+03 0.  0.
         25    1    4    4    0    0 -0.22223697190E+02 -0.54872166139E+02  0.33654695048E+02  0.14242539778E+03  0.12509000000E+03 0.  0.
         25    1    4    4    0    0 -0.15475963888E+02  0.18155374245E+02  0.71604691566E+02  0.14609539016E+03  0.12509000000E+03 0.  0.
         25    1    3    3    0    0  0.37699661078E+02  0.36716791894E+02  0.26558555239E+03  0.29824919277E+03  0.12509000000E+03 0.  0.
<mgrwt>
<rscale>  2 0.45472304E+03</rscale>
<asrwt>0</asrwt>
<pdfrwt beam="1">  1       21 0.70412861E-01 0.45472304E+03</pdfrwt>
<pdfrwt beam="2">  1       21 0.15876841E-01 0.45472304E+03</pdfrwt>
<totfact> 0.59630522E+04</totfact>
</mgrwt>
</event>
<event>
 7    0  0.4725730E-002  0.4564873E+03  0.7546771E-02  0.1025805E+00
         21   -1    0    0  502  501  0.00000000000E+00  0.00000000000E+00  0.29233323395E+03  0.29233323395E+03  0.00000000000E+00 0.  1.
         21   -1    0    0  501  502 -0.00000000000E+00 -0.00000000000E+00 -0.17820475384E+03  0.17820475384E+03  0.00000000000E+00 0.  1.
      99926    2    1    2    0    0 -0.71054273576E-14  0.00000000000E+00  0.11412848012E+03  0.47053798779E+03  0.45648733605E+03 0.  0.
      99925    2    3    3    0    0  0.57577512063E+02  0.71445692530E+02  0.95571270663E+00  0.27850871851E+03  0.26295728935E+03 0.  0.
         25    1    4    4    0    0 -0.87076281092E+00  0.31610453497E+02  0.28634472831E+02  0.13216436786E+03  0.12509000000E+03 0.  0.
         25    1    4    4    0    0  0.58448274874E+02  0.39835239033E+02 -0.27678760124E+02  0.14634435065E+03  0.12509000000E+03 0.  0.
         25    1    3    3    0    0 -0.57577512063E+02 -0.71445692530E+02  0.11317276741E+03  0.19202926928E+03  0.12509000000E+03 0.  0.
<mgrwt>
<rscale>  2 0.45648734E+03</rscale>
<asrwt>0</asrwt>
<pdfrwt beam="1">  1       21 0.42990182E-01 0.45648734E+03</pdfrwt>
<pdfrwt beam="2">  1       21 0.26206581E-01 0.45648734E+03</pdfrwt>
<totfact> 0.66606394E+04</totfact>
</mgrwt>
</event>
<event>
 7    0  0.4725730E-002  0.4540108E+03  0.7546771E-02  0.1026533E+00
         21   -1    0    0  502  501  0.00000000000E+00  0.00000000000E+00  0.99063238272E+03  0.99063238272E+03  0.00000000000E+00 0.  1.
         21   -1    0    0  501  502 -0.00000000000E+00 -0.00000000000E+00 -0.52018748713E+02  0.52018748713E+02  0.00000000000E+00 0.  1.
      99926    2    1    2    0    0  0.00000000000E+00  0.00000000000E+00  0.93861363400E+03  0.10426511314E+04  0.45401082359E+03 0.  0.
      99925    2    3    3    0    0 -0.10444953705E+03 -0.39196827719E+02  0.61983189668E+03  0.68249088758E+03  0.26297553956E+03 0.  0.
         25    1    3    3    0    0  0.10444953705E+03  0.39196827719E+02  0.31878173733E+03  0.36016024385E+03  0.12509000000E+03 0.  0.
         25    1    4    4    0    0 -0.18941474107E+02 -0.10934339443E+02  0.22062418705E+03  0.25456016820E+03  0.12509000000E+03 0.  0.
         25    1    4    4    0    0 -0.85508062944E+02 -0.28262488276E+02  0.39920770962E+03  0.42793071939E+03  0.12509000000E+03 0.  0.
<mgrwt>
<rscale>  2 0.45401082E+03</rscale>
<asrwt>0</asrwt>
<pdfrwt beam="1">  1       21 0.14568122E+00 0.45401082E+03</pdfrwt>
<pdfrwt beam="2">  1       21 0.76498166E-02 0.45401082E+03</pdfrwt>
<totfact> 0.37839534E+04</totfact>
</mgrwt>
</event>
<event>
 7    0  0.4725730E-002  0.4541923E+03  0.7546771E-02  0.1026479E+00
         21   -1    0    0  502  501  0.00000000000E+00  0.00000000000E+00  0.93315064683E+02  0.93315064683E+02  0.00000000000E+00 0. -1.
         21   -1    0    0  501  502 -0.00000000000E+00 -0.00000000000E+00 -0.55267238276E+03  0.55267238276E+03  0.00000000000E+00 0. -1.
      99926    2    1    2    0    0  0.00000000000E+00  0.00000000000E+00 -0.45935731807E+03  0.64598744744E+03  0.45419229032E+03 0.  0.
      99925    2    3    3    0    0  0.42742670078E+02  0.81024156174E+01 -0.43667741298E+03  0.51162052004E+03  0.26301294366E+03 0.  0.
         25    1    3    3    0    0 -0.42742670078E+02 -0.81024156174E+01 -0.22679905096E+02  0.13436692740E+03  0.12509000000E+03 0.  0.
         25    1    4    4    0    0  0.32793946285E+02  0.26875242314E+01 -0.29602694439E+03  0.32305127396E+03  0.12509000000E+03 0.  0.
         25    1    4    4    0    0  0.99487237933E+01  0.54148913859E+01 -0.14065046858E+03  0.18856924608E+03  0.12509000000E+03 0.  0.
<mgrwt>
<rscale>  2 0.45419229E+03</rscale>
<asrwt>0</asrwt>
<pdfrwt beam="1">  1       21 0.13722804E-01 0.45419229E+03</pdfrwt>
<pdfrwt beam="2">  1       21 0.81275349E-01 0.45419229E+03</pdfrwt>
<totfact> 0.56291120E+04</totfact>
</mgrwt>
</event>
<event>
 7    0  0.4725730E-002  0.4537384E+03  0.7546771E-02  0.1026613E+00
         21   -1    0    0  502  501  0.00000000000E+00  0.00000000000E+00  0.56656950567E+03  0.56656950567E+03  0.00000000000E+00 0. -1.
         21   -1    0    0  501  502 -0.00000000000E+00 -0.00000000000E+00 -0.90844326528E+02  0.90844326528E+02  0.00000000000E+00 0. -1.
      99926    2    1    2    0    0 -0.38857805862E-15 -0.14210854715E-13  0.47572517915E+03  0.65741383220E+03  0.45373836150E+03 0.  0.
      99925    2    3    3    0    0  0.40247385312E+00 -0.10935909510E+03  0.33447477652E+03  0.43933412657E+03  0.26302381067E+03 0.  0.
         25    1    4    4    0    0 -0.95945898765E+01 -0.81509121652E+02  0.22654949703E+03  0.27149212838E+03  0.12509000000E+03 0.  0.
         25    1    3    3    0    0 -0.40247385312E+00  0.10935909510E+03  0.14125040262E+03  0.21807970563E+03  0.12509000000E+03 0.  0.
         25    1    4    4    0    0  0.99970637296E+01 -0.27849973444E+02  0.10792527949E+03  0.16784199819E+03  0.12509000000E+03 0.  0.
<mgrwt>
<rscale>  2 0.45373836E+03</rscale>
<asrwt>0</asrwt>
<pdfrwt beam="1">  1       21 0.83319043E-01 0.45373836E+03</pdfrwt>
<pdfrwt beam="2">  1       21 0.13359460E-01 0.45373836E+03</pdfrwt>
<totfact> 0.55829660E+04</totfact>
</mgrwt>
</event>
<event>
 7    0  0.4725730E-002  0.4516578E+03  0.7546771E-02  0.1027229E+00
         21   -1    0    0  502  501  0.00000000000E+00  0.00000000000E+00  0.22089990471E+03  0.22089990471E+03  0.00000000000E+00 0. -1.
         21   -1    0    0  501  502 -0.00000000000E+00 -0.00000000000E+00 -0.23086782704E+03  0.23086782704E+03  0.00000000000E+00 0. -1.
      99926    2    1    2    0    0  0.71054273576E-14  0.00000000000E+00 -0.99679223305E+01  0.45176773176E+03  0.45165775094E+03 0.  0.
      99925    2    3    3    0    0  0.44225245495E+02  0.97597510528E+02  0.18686769768E+02  0.28458595679E+03  0.26298065526E+03 0.  0.
         25    1    3    3    0    0 -0.44225245495E+02 -0.97597510528E+02 -0.28654692099E+02  0.16718177496E+03  0.12509000000E+03 0.  0.
         25    1    4    4    0    0  0.15335241121E+00  0.80235486508E+02  0.24903514874E+02  0.15068327699E+03  0.12509000000E+03 0.  0.
         25    1    4    4    0    0  0.44071893084E+02  0.17362024020E+02 -0.62167451057E+01  0.13390267980E+03  0.12509000000E+03 0.  0.
<mgrwt>
<rscale>  2 0.45165775E+03</rscale>
<asrwt>0</asrwt>
<pdfrwt beam="1">  1       21 0.32485281E-01 0.45165775E+03</pdfrwt>
<pdfrwt beam="2">  1       21 0.33951151E-01 0.45165775E+03</pdfrwt>
<totfact> 0.70648556E+04</totfact>
</mgrwt>
</event>
<event>
 7    0  0.4725730E-002  0.4394167E+03  0.7546771E-02  0.1030926E+00
         21   -1    0    0  502  501  0.00000000000E+00  0.00000000000E+00  0.94376610761E+02  0.94376610761E+02  0.00000000000E+00 0. -1.
         21   -1    0    0  501  502 -0.00000000000E+00 -0.00000000000E+00 -0.51148000569E+03  0.51148000569E+03  0.00000000000E+00 0. -1.
      99926    2    1    2    0    0  0.00000000000E+00 -0.71054273576E-14 -0.41710339493E+03  0.60585661645E+03  0.43941665608E+03 0.  0.
      99925    2    3    3    0    0  0.85200534597E+02  0.47957551424E+02 -0.26009096343E+03  0.38256427539E+03  0.26296208416E+03 0.  0.
         25    1    3    3    0    0 -0.85200534597E+02 -0.47957551424E+02 -0.15701243150E+03  0.22329234107E+03  0.12509000000E+03 0.  0.
         25    1    4    4    0    0  0.58264648299E+02  0.94325061316E+01 -0.17914993806E+03  0.22633150426E+03  0.12509000000E+03 0.  0.
         25    1    4    4    0    0  0.26935886298E+02  0.38525045292E+02 -0.80941025373E+02  0.15623277113E+03  0.12509000000E+03 0.  0.
<mgrwt>
<rscale>  2 0.43941666E+03</rscale>
<asrwt>0</asrwt>
<pdfrwt beam="1">  1       21 0.13878913E-01 0.43941666E+03</pdfrwt>
<pdfrwt beam="2">  1       21 0.75217649E-01 0.43941666E+03</pdfrwt>
<totfact> 0.66086195E+04</totfact>
</mgrwt>
</event>
<event>
 7    0  0.4725730E-002  0.4548601E+03  0.7546771E-02  0.1026283E+00
         21   -1    0    0  502  501  0.00000000000E+00  0.00000000000E+00  0.14597638111E+04  0.14597638111E+04  0.00000000000E+00 0.  1.
         21   -1    0    0  501  502 -0.00000000000E+00 -0.00000000000E+00 -0.35433426797E+02  0.35433426797E+02  0.00000000000E+00 0.  1.
      99926    2    1    2    0    0  0.00000000000E+00  0.00000000000E+00  0.14243303843E+04  0.14951972379E+04  0.45486012858E+03 0.  0.
      99925    2    3    3    0    0  0.13613465057E+02  0.45903631149E+02  0.12330058150E+04  0.12616483807E+04  0.26298446137E+03 0.  0.
         25    1    4    4    0    0 -0.29594496970E+02  0.38208549205E+02  0.66367126700E+03  0.67708403188E+03  0.12509000000E+03 0.  0.
         25    1    3    3    0    0 -0.13613465057E+02 -0.45903631149E+02  0.19132456937E+03  0.23354885726E+03  0.12509000000E+03 0.  0.
         25    1    4    4    0    0  0.43207962026E+02  0.76950819443E+01  0.56933454795E+03  0.58456434878E+03  0.12509000000E+03 0.  0.
<mgrwt>
<rscale>  2 0.45486013E+03</rscale>
<asrwt>0</asrwt>
<pdfrwt beam="1">  1       21 0.21467111E+00 0.45486013E+03</pdfrwt>
<pdfrwt beam="2">  1       21 0.52107990E-02 0.45486013E+03</pdfrwt>
<totfact> 0.23923062E+04</totfact>
</mgrwt>
</event>
<event>
 7    0  0.4725730E-002  0.4370291E+03  0.7546771E-02  0.1031662E+00
         21   -1    0    0  502  501  0.00000000000E+00  0.00000000000E+00  0.24353855959E+03  0.24353855959E+03  0.00000000000E+00 0. -1.
         21   -1    0    0  501  502 -0.00000000000E+00 -0.00000000000E+00 -0.19606181362E+03  0.19606181362E+03  0.00000000000E+00 0. -1.
      99926    2    1    2    0    0  0.00000000000E+00  0.00000000000E+00  0.47476745966E+02  0.43960037321E+03  0.43702911427E+03 0.  0.
      99925    2    3    3    0    0  0.90107227155E+02 -0.29943127085E+02  0.21503344514E+02  0.28042113798E+03  0.26297854961E+03 0.  0.
         25    1    4    4    0    0  0.66582547171E+02 -0.25454335235E+02  0.45138788676E+02  0.15088464837E+03  0.12509000000E+03 0.  0.
         25    1    4    4    0    0  0.23524679983E+02 -0.44887918502E+01 -0.23635444162E+02  0.12953648961E+03  0.12509000000E+03 0.  0.
         25    1    3    3    0    0 -0.90107227155E+02  0.29943127085E+02  0.25973401452E+02  0.15917923523E+03  0.12509000000E+03 0.  0.
<mgrwt>
<rscale>  2 0.43702911E+03</rscale>
<asrwt>0</asrwt>
<pdfrwt beam="1">  1       21 0.35814494E-01 0.43702911E+03</pdfrwt>
<pdfrwt beam="2">  1       21 0.28832620E-01 0.43702911E+03</pdfrwt>
<totfact> 0.80646465E+04</totfact>
</mgrwt>
</event>
<event>
 7    0  0.4725730E-002  0.4570465E+03  0.7546771E-02  0.1025641E+00
         21   -1    0    0  502  501  0.00000000000E+00  0.00000000000E+00  0.42223748554E+03  0.42223748554E+03  0.00000000000E+00 0. -1.
         21   -1    0    0  501  502 -0.00000000000E+00 -0.00000000000E+00 -0.12368131111E+03  0.12368131111E+03  0.00000000000E+00 0. -1.
      99926    2    1    2    0    0  0.00000000000E+00  0.00000000000E+00  0.29855617442E+03  0.54591879665E+03  0.45704654386E+03 0.  0.
      99925    2    3    3    0    0 -0.40599116939E+02  0.83185631664E+02  0.27031146372E+03  0.38776251510E+03  0.26215137437E+03 0.  0.
         25    1    3    3    0    0  0.40599116939E+02 -0.83185631664E+02  0.28244710701E+02  0.15815628155E+03  0.12509000000E+03 0.  0.
         25    1    4    4    0    0 -0.43489465818E+02  0.48505214402E+02  0.96851522479E+02  0.17109007852E+03  0.12509000000E+03 0.  0.
         25    1    4    4    0    0  0.28903488793E+01  0.34680417262E+02  0.17345994124E+03  0.21667243658E+03  0.12509000000E+03 0.  0.
<mgrwt>
<rscale>  2 0.45704654E+03</rscale>
<asrwt>0</asrwt>
<pdfrwt beam="1">  1       21 0.62093748E-01 0.45704654E+03</pdfrwt>
<pdfrwt beam="2">  1       21 0.18188428E-01 0.45704654E+03</pdfrwt>
<totfact> 0.61140874E+04</totfact>
</mgrwt>
</event>
<event>
 7    0  0.4725730E-002  0.4623177E+03  0.7546771E-02  0.1024111E+00
         21   -1    0    0  502  501  0.00000000000E+00  0.00000000000E+00  0.21685069243E+03  0.21685069243E+03  0.00000000000E+00 0.  1.
         21   -1    0    0  501  502 -0.00000000000E+00 -0.00000000000E+00 -0.24641104521E+03  0.24641104521E+03  0.00000000000E+00 0.  1.
      99926    2    1    2    0    0  0.00000000000E+00  0.35527136788E-14 -0.29560352778E+02  0.46326173764E+03  0.46231766471E+03 0.  0.
      99925    2    3    3    0    0 -0.26088449812E+02 -0.31332082416E+02 -0.13150995593E+03  0.29681794447E+03  0.26295192916E+03 0.  0.
         25    1    4    4    0    0 -0.11527956798E+02  0.61263180751E+01 -0.26281715688E+02  0.12848603909E+03  0.12509000000E+03 0.  0.
         25    1    4    4    0    0 -0.14560493013E+02 -0.37458400491E+02 -0.10522824024E+03  0.16833190538E+03  0.12509000000E+03 0.  0.
         25    1    3    3    0    0  0.26088449812E+02  0.31332082416E+02  0.10194960315E+03  0.16644379317E+03  0.12509000000E+03 0.  0.
<mgrwt>
<rscale>  2 0.46231766E+03</rscale>
<asrwt>0</asrwt>
<pdfrwt beam="1">  1       21 0.31889808E-01 0.46231766E+03</pdfrwt>
<pdfrwt beam="2">  1       21 0.36236918E-01 0.46231766E+03</pdfrwt>
<totfact> 0.64118556E+04</totfact>
</mgrwt>
</event>
<event>
 7    0  0.4725730E-002  0.4550654E+03  0.7546771E-02  0.1026222E+00
         21   -1    0    0  502  501  0.00000000000E+00  0.00000000000E+00  0.37419942546E+02  0.37419942546E+02  0.00000000000E+00 0. -1.
         21   -1    0    0  501  502 -0.00000000000E+00 -0.00000000000E+00 -0.13835168439E+04  0.13835168439E+04  0.00000000000E+00 0. -1.
      99926    2    1    2    0    0  0.00000000000E+00  0.00000000000E+00 -0.13460969014E+04  0.14209367865E+04  0.45506536151E+03 0.  0.
      99925    2    3    3    0    0  0.84296117213E+02 -0.58034035845E+02 -0.69624084949E+03  0.75128450285E+03  0.26306519918E+03 0.  0.
         25    1    3    3    0    0 -0.84296117213E+02  0.58034035845E+02 -0.64985605189E+03  0.66965228363E+03  0.12509000000E+03 0.  0.
         25    1    4    4    0    0  0.57214702442E+02  0.13201882114E+01 -0.40388097826E+03  0.42666452603E+03  0.12509000000E+03 0.  0.
         25    1    4    4    0    0  0.27081414770E+02 -0.59354224056E+02 -0.29235987123E+03  0.32461997681E+03  0.12509000000E+03 0.  0.
<mgrwt>
<rscale>  2 0.45506536E+03</rscale>
<asrwt>0</asrwt>
<pdfrwt beam="1">  1       21 0.55029339E-02 0.45506536E+03</pdfrwt>
<pdfrwt beam="2">  1       21 0.20345832E+00 0.45506536E+03</pdfrwt>
<totfact> 0.25766310E+04</totfact>
</mgrwt>
</event>
<event>
 7    0  0.4725730E-002  0.4459567E+03  0.7546771E-02  0.1028935E+00
         21   -1    0    0  502  501  0.00000000000E+00  0.00000000000E+00  0.37735417789E+03  0.37735417789E+03  0.00000000000E+00 0.  1.
         21   -1    0    0  501  502 -0.00000000000E+00 -0.00000000000E+00 -0.13175777633E+03  0.13175777633E+03  0.00000000000E+00 0.  1.
      99926    2    1    2    0    0  0.00000000000E+00  0.00000000000E+00  0.24559640156E+03  0.50911195423E+03  0.44595671256E+03 0.  0.
      99925    2    3    3    0    0 -0.68282455570E+02 -0.56005256592E+02  0.22007323897E+03  0.35387657671E+03  0.26267340659E+03 0.  0.
         25    1    3    3    0    0  0.68282455570E+02  0.56005256592E+02  0.25523162594E+02  0.15523537752E+03  0.12509000000E+03 0.  0.
         25    1    4    4    0    0  0.34588192061E+01 -0.20808966451E+02  0.81285848108E+02  0.15066477265E+03  0.12509000000E+03 0.  0.
         25    1    4    4    0    0 -0.71741274776E+02 -0.35196290141E+02  0.13878739086E+03  0.20321180406E+03  0.12509000000E+03 0.  0.
<mgrwt>
<rscale>  2 0.44595671E+03</rscale>
<asrwt>0</asrwt>
<pdfrwt beam="1">  1       21 0.55493261E-01 0.44595671E+03</pdfrwt>
<pdfrwt beam="2">  1       21 0.19376144E-01 0.44595671E+03</pdfrwt>
<totfact> 0.69489448E+04</totfact>
</mgrwt>
</event>
<event>
 7    0  0.4725730E-002  0.4621630E+03  0.7546771E-02  0.1024156E+00
         21   -1    0    0  502  501  0.00000000000E+00  0.00000000000E+00  0.98865430571E+02  0.98865430571E+02  0.00000000000E+00 0.  1.
         21   -1    0    0  501  502 -0.00000000000E+00 -0.00000000000E+00 -0.54011463792E+03  0.54011463792E+03  0.00000000000E+00 0.  1.
      99926    2    1    2    0    0  0.00000000000E+00  0.00000000000E+00 -0.44124920734E+03  0.63898006849E+03  0.46216302853E+03 0.  0.
      99925    2    3    3    0    0  0.31279726102E+02 -0.11446102416E+03 -0.29853621381E+03  0.41516261175E+03  0.26297599876E+03 0.  0.
         25    1    4    4    0    0  0.47172412932E+02 -0.56179942702E+02 -0.18920821703E+03  0.23838766746E+03  0.12509000000E+03 0.  0.
         25    1    4    4    0    0 -0.15892686830E+02 -0.58281081456E+02 -0.10932799678E+03  0.17677494429E+03  0.12509000000E+03 0.  0.
         25    1    3    3    0    0 -0.31279726102E+02  0.11446102416E+03 -0.14271299354E+03  0.22381745674E+03  0.12509000000E+03 0.  0.
<mgrwt>
<rscale>  2 0.46216303E+03</rscale>
<asrwt>0</asrwt>
<pdfrwt beam="1">  1       21 0.14539034E-01 0.46216303E+03</pdfrwt>
<pdfrwt beam="2">  1       21 0.79428623E-01 0.46216303E+03</pdfrwt>
<totfact> 0.53265173E+04</totfact>
</mgrwt>
</event>
<event>
 7    0  0.4725730E-002  0.4319394E+03  0.7546771E-02  0.1033249E+00
         21   -1    0    0  502  501  0.00000000000E+00  0.00000000000E+00  0.11516847139E+03  0.11516847139E+03  0.00000000000E+00 0. -1.
         21   -1    0    0  501  502 -0.00000000000E+00 -0.00000000000E+00 -0.40499725938E+03  0.40499725938E+03  0.00000000000E+00 0. -1.
      99926    2    1    2    0    0  0.00000000000E+00  0.00000000000E+00 -0.28982878799E+03  0.52016573077E+03  0.43193941834E+03 0.  0.
      99925    2    3    3    0    0 -0.24207662455E+02  0.49467857374E+02 -0.10130295628E+03  0.28730831269E+03  0.26315527308E+03 0.  0.
         25    1    4    4    0    0 -0.44432111898E+02  0.61663288822E+01 -0.32722108729E+02  0.13685934634E+03  0.12509000000E+03 0.  0.
         25    1    4    4    0    0  0.20224449443E+02  0.43301528492E+02 -0.68580847552E+02  0.15044896635E+03  0.12509000000E+03 0.  0.
         25    1    3    3    0    0  0.24207662455E+02 -0.49467857374E+02 -0.18852583171E+03  0.23285741808E+03  0.12509000000E+03 0.  0.
<mgrwt>
<rscale>  2 0.43193942E+03</rscale>
<asrwt>0</asrwt>
<pdfrwt beam="1">  1       21 0.16936540E-01 0.43193942E+03</pdfrwt>
<pdfrwt beam="2">  1       21 0.59558421E-01 0.43193942E+03</pdfrwt>
<totfact> 0.77009030E+04</totfact>
</mgrwt>
</event>
<event>
 7    0  0.4725730E-002  0.4575053E+03  0.7546771E-02  0.1025507E+00
         21   -1    0    0  502  501  0.00000000000E+00  0.00000000000E+00  0.77837249175E+03  0.77837249175E+03  0.00000000000E+00 0. -1.
         21   -1    0    0  501  502 -0.00000000000E+00 -0.00000000000E+00 -0.67227149115E+02  0.67227149115E+02  0.00000000000E+00 0. -1.
      99926    2    1    2    0    0  0.14210854715E-13  0.00000000000E+00  0.71114534264E+03  0.84559964087E+03  0.45750525055E+03 0.  0.
      99925    2    3    3    0    0  0.11312815072E+03 -0.81523098054E+01  0.48711365930E+03  0.56506062062E+03  0.26296263853E+03 0.  0.
         25    1    3    3    0    0 -0.11312815072E+03  0.81523098054E+01  0.22403168334E+03  0.28053902025E+03  0.12509000000E+03 0.  0.
         25    1    4    4    0    0  0.88567102890E+02 -0.20532596907E+02  0.22100577962E+03  0.26973465104E+03  0.12509000000E+03 0.  0.
         25    1    4    4    0    0  0.24561047829E+02  0.12380287101E+02  0.26610787968E+03  0.29532596958E+03  0.12509000000E+03 0.  0.
<mgrwt>
<rscale>  2 0.45750525E+03</rscale>
<asrwt>0</asrwt>
<pdfrwt beam="1">  1       21 0.11446654E+00 0.45750525E+03</pdfrwt>
<pdfrwt beam="2">  1       21 0.98863459E-02 0.45750525E+03</pdfrwt>
<totfact> 0.44750847E+04</totfact>
</mgrwt>
</event>
<event>
 7    0  0.4725730E-002  0.4487846E+03  0.7546771E-02  0.1028085E+00
         21   -1    0    0  502  501  0.00000000000E+00  0.00000000000E+00  0.31001776253E+02  0.31001776253E+02  0.00000000000E+00 0.  1.
         21   -1    0    0  501  502 -0.00000000000E+00 -0.00000000000E+00 -0.16241615554E+04  0.16241615554E+04  0.00000000000E+00 0.  1.
      99926    2    1    2    0    0 -0.71054273576E-14 -0.14210854715E-13 -0.15931597792E+04  0.16551633317E+04  0.44878455027E+03 0.  0.
      99925    2    3    3    0    0  0.62044946047E+02  0.77606324645E+02 -0.85972324489E+03  0.90453094837E+03  0.26302064899E+03 0.  0.
         25    1    4    4    0    0  0.25174644710E+02 -0.59713817065E+00 -0.43915798795E+03  0.45731976317E+03  0.12509000000E+03 0.  0.
         25    1    3    3    0    0 -0.62044946047E+02 -0.77606324645E+02 -0.73343653431E+03  0.75063238334E+03  0.12509000000E+03 0.  0.
         25    1    4    4    0    0  0.36870301338E+02  0.78203462816E+02 -0.42056525694E+03  0.44721118519E+03  0.12509000000E+03 0.  0.
<mgrwt>
<rscale>  2 0.44878455E+03</rscale>
<asrwt>0</asrwt>
<pdfrwt beam="1">  1       21 0.45590839E-02 0.44878455E+03</pdfrwt>
<pdfrwt beam="2">  1       21 0.23884733E+00 0.44878455E+03</pdfrwt>
<totfact> 0.21217051E+04</totfact>
</mgrwt>
</event>
<event>
 7    0  0.4725730E-002  0.4586274E+03  0.7546771E-02  0.1025180E+00
         21   -1    0    0  502  501  0.00000000000E+00  0.00000000000E+00  0.11047688515E+04  0.11047688515E+04  0.00000000000E+00 0. -1.
         21   -1    0    0  501  502 -0.00000000000E+00 -0.00000000000E+00 -0.47597993823E+02  0.47597993823E+02  0.00000000000E+00 0. -1.
      99926    2    1    2    0    0  0.00000000000E+00  0.88817841970E-15  0.10571708577E+04  0.11523668454E+04  0.45862743473E+03 0.  0.
      99925    2    3    3    0    0  0.97539355534E+02 -0.62915886025E+01  0.50398087106E+03  0.57684953077E+03  0.26306872255E+03 0.  0.
         25    1    4    4    0    0  0.16739885748E+02 -0.24322895305E+02  0.19766801385E+03  0.23577951312E+03  0.12509000000E+03 0.  0.
         25    1    4    4    0    0  0.80799469786E+02  0.18031306703E+02  0.30631285722E+03  0.34107001765E+03  0.12509000000E+03 0.  0.
         25    1    3    3    0    0 -0.97539355534E+02  0.62915886025E+01  0.55318998666E+03  0.57551731460E+03  0.12509000000E+03 0.  0.
<mgrwt>
<rscale>  2 0.45862743E+03</rscale>
<asrwt>0</asrwt>
<pdfrwt beam="1">  1       21 0.16246599E+00 0.45862743E+03</pdfrwt>
<pdfrwt beam="2">  1       21 0.69997057E-02 0.45862743E+03</pdfrwt>
<totfact> 0.32767251E+04</totfact>
</mgrwt>
</event>
<event>
 7    0  0.4725730E-002  0.4454941E+03  0.7546771E-02  0.1029074E+00
         21   -1    0    0  502  501  0.00000000000E+00  0.00000000000E+00  0.29783008595E+03  0.29783008595E+03  0.00000000000E+00 0. -1.
         21   -1    0    0  501  502 -0.00000000000E+00 -0.00000000000E+00 -0.16659249873E+03  0.16659249873E+03  0.00000000000E+00 0. -1.
      99926    2    1    2    0    0  0.00000000000E+00  0.00000000000E+00  0.13123758722E+03  0.46442258468E+03  0.44549414459E+03 0.  0.
      99925    2    3    3    0    0 -0.10026491046E+03  0.21688457452E+02  0.10042395349E+03  0.29973976962E+03  0.26312642893E+03 0.  0.
         25    1    3    3    0    0  0.10026491046E+03 -0.21688457452E+02  0.30813633733E+02  0.16468281507E+03  0.12509000000E+03 0.  0.
         25    1    4    4    0    0 -0.43340991289E+02 -0.29707903798E+02  0.47036288053E+02  0.14359986618E+03  0.12509000000E+03 0.  0.
         25    1    4    4    0    0 -0.56923919168E+02  0.51396361250E+02  0.53387665436E+02  0.15613990343E+03  0.12509000000E+03 0.  0.
<mgrwt>
<rscale>  2 0.44549414E+03</rscale>
<asrwt>0</asrwt>
<pdfrwt beam="1">  1       21 0.43798542E-01 0.44549414E+03</pdfrwt>
<pdfrwt beam="2">  1       21 0.24498897E-01 0.44549414E+03</pdfrwt>
<totfact> 0.73220907E+04</totfact>
</mgrwt>
</event>
<event>
 7    0  0.4725730E-002  0.4490566E+03  0.7546771E-02  0.1028004E+00
         21   -1    0    0  502  501  0.00000000000E+00  0.00000000000E+00  0.54281975175E+03  0.54281975175E+03  0.00000000000E+00 0.  1.
         21   -1    0    0  501  502 -0.00000000000E+00 -0.00000000000E+00 -0.92872376305E+02  0.92872376305E+02  0.00000000000E+00 0.  1.
      99926    2    1    2    0    0  0.00000000000E+00  0.00000000000E+00  0.44994737545E+03  0.63569212806E+03  0.44905661225E+03 0.  0.
      99925    2    3    3    0    0 -0.62817767228E+02  0.22252727481E+02  0.16526006703E+03  0.31767384646E+03  0.26299149645E+03 0.  0.
         25    1    4    4    0    0 -0.19497753890E+02  0.49611897520E+02  0.88209432936E+02  0.16207996465E+03  0.12509000000E+03 0.  0.
         25    1    4    4    0    0 -0.43320013338E+02 -0.27359170039E+02  0.77050634098E+02  0.15559388181E+03  0.12509000000E+03 0.  0.
         25    1    3    3    0    0  0.62817767228E+02 -0.22252727481E+02  0.28468730841E+03  0.31801828160E+03  0.12509000000E+03 0.  0.
<mgrwt>
<rscale>  2 0.44905661E+03</rscale>
<asrwt>0</asrwt>
<pdfrwt beam="1">  1       21 0.79826433E-01 0.44905661E+03</pdfrwt>
<pdfrwt beam="2">  1       21 0.13657703E-01 0.44905661E+03</pdfrwt>
<totfact> 0.59264769E+04</totfact>
</mgrwt>
</event>
<event>
 7    0  0.4725730E-002  0.4555335E+03  0.7546771E-02  0.1026085E+00
         21   -1    0    0  502  501  0.00000000000E+00  0.00000000000E+00  0.12153602274E+03  0.12153602274E+03  0.00000000000E+00 0. -1.
         21   -1    0    0  501  502 -0.00000000000E+00 -0.00000000000E+00 -0.42685041998E+03  0.42685041998E+03  0.00000000000E+00 0. -1.
      99926    2    1    2    0    0  0.00000000000E+00  0.00000000000E+00 -0.30531439724E+03  0.54838644272E+03  0.45553354366E+03 0.  0.
      99925    2    3    3    0    0 -0.93635975413E+02 -0.59478879409E+02 -0.16152563288E+03  0.32786852998E+03  0.26287223110E+03 0.  0.
         25    1    4    4    0    0 -0.65193447850E+01 -0.37731099167E+02 -0.84084837044E+02  0.15551175397E+03  0.12509000000E+03 0.  0.
         25    1    4    4    0    0 -0.87116630628E+02 -0.21747780241E+02 -0.77440795841E+02  0.17235677601E+03  0.12509000000E+03 0.  0.
         25    1    3    3    0    0  0.93635975413E+02  0.59478879409E+02 -0.14378876435E+03  0.22051791274E+03  0.12509000000E+03 0.  0.
<mgrwt>
<rscale>  2 0.45553354E+03</rscale>
<asrwt>0</asrwt>
<pdfrwt beam="1">  1       21 0.17872945E-01 0.45553354E+03</pdfrwt>
<pdfrwt beam="2">  1       21 0.62772119E-01 0.45553354E+03</pdfrwt>
<totfact> 0.61712331E+04</totfact>
</mgrwt>
</event>
<event>
 7    0  0.4725730E-002  0.4588361E+03  0.7546771E-02  0.1025119E+00
         21   -1    0    0  502  501  0.00000000000E+00  0.00000000000E+00  0.73512613962E+03  0.73512613962E+03  0.00000000000E+00 0. -1.
         21   -1    0    0  501  502 -0.00000000000E+00 -0.00000000000E+00 -0.71596759865E+02  0.71596759865E+02  0.00000000000E+00 0. -1.
      99926    2    1    2    0    0  0.00000000000E+00  0.00000000000E+00  0.66352937976E+03  0.80672289949E+03  0.45883613497E+03 0.  0.
      99925    2    3    3    0    0 -0.57869891062E+02  0.10063860903E+03  0.39471150509E+03  0.48830868536E+03  0.26300407987E+03 0.  0.
         25    1    4    4    0    0 -0.48635789606E+02  0.79054346220E+02  0.17404099896E+03  0.23356542361E+03  0.12509000000E+03 0.  0.
         25    1    3    3    0    0  0.57869891062E+02 -0.10063860903E+03  0.26881787466E+03  0.31841421413E+03  0.12509000000E+03 0.  0.
         25    1    4    4    0    0 -0.92341014553E+01  0.21584262811E+02  0.22067050613E+03  0.25474326175E+03  0.12509000000E+03 0.  0.
<mgrwt>
<rscale>  2 0.45883613E+03</rscale>
<asrwt>0</asrwt>
<pdfrwt beam="1">  1       21 0.10810678E+00 0.45883613E+03</pdfrwt>
<pdfrwt beam="2">  1       21 0.10528936E-01 0.45883613E+03</pdfrwt>
<totfact> 0.46039659E+04</totfact>
</mgrwt>
</event>
<event>
 7    0  0.4725730E-002  0.4552574E+03  0.7546771E-02  0.1026166E+00
         21   -1    0    0  502  501  0.00000000000E+00  0.00000000000E+00  0.33341219078E+03  0.33341219078E+03  0.00000000000E+00 0. -1.
         21   -1    0    0  501  502 -0.00000000000E+00 -0.00000000000E+00 -0.15540773402E+03  0.15540773402E+03  0.00000000000E+00 0. -1.
      99926    2    1    2    0    0  0.00000000000E+00  0.00000000000E+00  0.17800445676E+03  0.48881992480E+03  0.45525743515E+03 0.  0.
      99925    2    3    3    0    0  0.67529364465E+02 -0.17611327456E+02  0.16077019401E+02  0.27262932142E+03  0.26305494184E+03 0.  0.
         25    1    4    4    0    0  0.43695516543E+02 -0.90844075255E+01 -0.31373315517E+02  0.13646837602E+03  0.12509000000E+03 0.  0.
         25    1    3    3    0    0 -0.67529364465E+02  0.17611327456E+02  0.16192743736E+03  0.21619060338E+03  0.12509000000E+03 0.  0.
         25    1    4    4    0    0  0.23833847922E+02 -0.85269199305E+01  0.47450334918E+02  0.13616094541E+03  0.12509000000E+03 0.  0.
<mgrwt>
<rscale>  2 0.45525744E+03</rscale>
<asrwt>0</asrwt>
<pdfrwt beam="1">  1       21 0.49031204E-01 0.45525744E+03</pdfrwt>
<pdfrwt beam="2">  1       21 0.22854079E-01 0.45525744E+03</pdfrwt>
<totfact> 0.65928622E+04</totfact>
</mgrwt>
</event>
<event>
 7    0  0.4725730E-002  0.4612681E+03  0.7546771E-02  0.1024414E+00
         21   -1    0    0  502  501  0.00000000000E+00  0.00000000000E+00  0.92586683072E+02  0.92586683072E+02  0.00000000000E+00 0.  1.
         21   -1    0    0  501  502 -0.00000000000E+00 -0.00000000000E+00 -0.57451092491E+03  0.57451092491E+03  0.00000000000E+00 0.  1.
      99926    2    1    2    0    0  0.35527136788E-14  0.00000000000E+00 -0.48192424184E+03  0.66709760799E+03  0.46126808225E+03 0.  0.
      99925    2    3    3    0    0 -0.22072638641E+02 -0.18277248298E+02 -0.13457365047E+03  0.29679880889E+03  0.26297947900E+03 0.  0.
         25    1    4    4    0    0 -0.34900553725E+02 -0.17944716119E+02 -0.10411982392E+03  0.16741716555E+03  0.12509000000E+03 0.  0.
         25    1    3    3    0    0  0.22072638641E+02  0.18277248298E+02 -0.34735059138E+03  0.37029879910E+03  0.12509000000E+03 0.  0.
         25    1    4    4    0    0  0.12827915084E+02 -0.33253217823E+00 -0.30453826548E+02  0.12938164334E+03  0.12509000000E+03 0.  0.
<mgrwt>
<rscale>  2 0.46126808E+03</rscale>
<asrwt>0</asrwt>
<pdfrwt beam="1">  1       21 0.13615689E-01 0.46126808E+03</pdfrwt>
<pdfrwt beam="2">  1       21 0.84486900E-01 0.46126808E+03</pdfrwt>
<totfact> 0.52102925E+04</totfact>
</mgrwt>
</event>
<event>
 7    0  0.4725730E-002  0.4659623E+03  0.7546771E-02  0.1023066E+00
         21   -1    0    0  502  501  0.00000000000E+00  0.00000000000E+00  0.26254109707E+03  0.26254109707E+03  0.00000000000E+00 0.  1.
         21   -1    0    0  501  502 -0.00000000000E+00 -0.00000000000E+00 -0.20674938280E+03  0.20674938280E+03  0.00000000000E+00 0.  1.
      99926    2    1    2    0    0  0.00000000000E+00  0.14210854715E-13  0.55791714274E+02  0.46929047987E+03  0.46596227220E+03 0.  0.
      99925    2    3    3    0    0  0.61706124492E+02 -0.95573603007E+02 -0.13822687510E+02  0.28643635105E+03  0.26251239422E+03 0.  0.
         25    1    4    4    0    0 -0.59274033248E+01 -0.54647725990E+02 -0.21237496933E+02  0.13827525969E+03  0.12509000000E+03 0.  0.
         25    1    3    3    0    0 -0.61706124492E+02  0.95573603007E+02  0.69614401784E+02  0.18285412882E+03  0.12509000000E+03 0.  0.
         25    1    4    4    0    0  0.67633527816E+02 -0.40925877017E+02  0.74148094228E+01  0.14816109136E+03  0.12509000000E+03 0.  0.
<mgrwt>
<rscale>  2 0.46596227E+03</rscale>
<asrwt>0</asrwt>
<pdfrwt beam="1">  1       21 0.38608985E-01 0.46596227E+03</pdfrwt>
<pdfrwt beam="2">  1       21 0.30404321E-01 0.46596227E+03</pdfrwt>
<totfact> 0.61916105E+04</totfact>
</mgrwt>
</event>
<event>
 7    0  0.4725730E-002  0.5356496E+03  0.7546771E-02  0.1004871E+00
         21   -1    0    0  502  501  0.00000000000E+00  0.00000000000E+00  0.24942509289E+03  0.24942509289E+03  0.00000000000E+00 0.  1.
         21   -1    0    0  501  502 -0.00000000000E+00 -0.00000000000E+00 -0.28758179325E+03  0.28758179325E+03  0.00000000000E+00 0.  1.
      99926    2    1    2    0    0  0.00000000000E+00  0.00000000000E+00 -0.38156700360E+02  0.53700688615E+03  0.53564957013E+03 0.  0.
      99925    2    3    3    0    0  0.15028884738E+03 -0.94999729078E+02 -0.29095408593E+01  0.31677619681E+03  0.26215836295E+03 0.  0.
         25    1    3    3    0    0 -0.15028884738E+03  0.94999729078E+02 -0.35247159501E+02  0.22023068934E+03  0.12509000000E+03 0.  0.
         25    1    4    4    0    0  0.10266393590E+03 -0.22628936965E+02 -0.15279618053E+02  0.16411254477E+03  0.12509000000E+03 0.  0.
         25    1    4    4    0    0  0.47624911481E+02 -0.72370792113E+02  0.12370077193E+02  0.15266365204E+03  0.12509000000E+03 0.  0.
<mgrwt>
<rscale>  2 0.53564957E+03</rscale>
<asrwt>0</asrwt>
<pdfrwt beam="1">  1       21 0.36680161E-01 0.53564957E+03</pdfrwt>
<pdfrwt beam="2">  1       21 0.42291440E-01 0.53564957E+03</pdfrwt>
<totfact> 0.34647144E+04</totfact>
</mgrwt>
</event>
<event>
 7    0  0.4725730E-002  0.4555183E+03  0.7546771E-02  0.1026089E+00
         21   -1    0    0  502  501  0.00000000000E+00  0.00000000000E+00  0.26779062664E+03  0.26779062664E+03  0.00000000000E+00 0.  1.
         21   -1    0    0  501  502 -0.00000000000E+00 -0.00000000000E+00 -0.19371186235E+03  0.19371186235E+03  0.00000000000E+00 0.  1.
      99926    2    1    2    0    0 -0.35527136788E-14  0.00000000000E+00  0.74078764292E+02  0.46150248899E+03  0.45551825872E+03 0.  0.
      99925    2    3    3    0    0  0.16221269443E+02  0.60731560372E+02  0.14270223621E+03  0.30559180621E+03  0.26281356851E+03 0.  0.
         25    1    4    4    0    0 -0.22899661652E+02  0.23172077960E+02  0.97648849775E+02  0.16200044958E+03  0.12509000000E+03 0.  0.
         25    1    4    4    0    0  0.39120931095E+02  0.37559482413E+02  0.45053386439E+02  0.14359135663E+03  0.12509000000E+03 0.  0.
         25    1    3    3    0    0 -0.16221269443E+02 -0.60731560372E+02 -0.68623471922E+02  0.15591068278E+03  0.12509000000E+03 0.  0.
<mgrwt>
<rscale>  2 0.45551826E+03</rscale>
<asrwt>0</asrwt>
<pdfrwt beam="1">  1       21 0.39380974E-01 0.45551826E+03</pdfrwt>
<pdfrwt beam="2">  1       21 0.28487039E-01 0.45551826E+03</pdfrwt>
<totfact> 0.67790553E+04</totfact>
</mgrwt>
</event>
<event>
 7    0  0.4725730E-002  0.4504154E+03  0.7546771E-02  0.1027598E+00
         21   -1    0    0  502  501  0.00000000000E+00  0.00000000000E+00  0.24220327715E+03  0.24220327715E+03  0.00000000000E+00 0. -1.
         21   -1    0    0  501  502 -0.00000000000E+00 -0.00000000000E+00 -0.20940474995E+03  0.20940474995E+03  0.00000000000E+00 0. -1.
      99926    2    1    2    0    0 -0.17763568394E-14  0.00000000000E+00  0.32798527197E+02  0.45160802710E+03  0.45041543797E+03 0.  0.
      99925    2    3    3    0    0  0.15879777247E+02  0.10410674405E+03  0.48607091989E+02  0.28732838654E+03  0.26287748256E+03 0.  0.
         25    1    4    4    0    0  0.46773876643E+02  0.40960296317E+02  0.25047011636E+02  0.14191688519E+03  0.12509000000E+03 0.  0.
         25    1    4    4    0    0 -0.30894099396E+02  0.63146447733E+02  0.23560080353E+02  0.14541150135E+03  0.12509000000E+03 0.  0.
         25    1    3    3    0    0 -0.15879777247E+02 -0.10410674405E+03 -0.15808564792E+02  0.16427964056E+03  0.12509000000E+03 0.  0.
<mgrwt>
<rscale>  2 0.45041544E+03</rscale>
<asrwt>0</asrwt>
<pdfrwt beam="1">  1       21 0.35618129E-01 0.45041544E+03</pdfrwt>
<pdfrwt beam="2">  1       21 0.30794816E-01 0.45041544E+03</pdfrwt>
<totfact> 0.71370182E+04</totfact>
</mgrwt>
</event>
<event>
 7    0  0.4725730E-002  0.4538440E+03  0.7546771E-02  0.1026582E+00
         21   -1    0    0  502  501  0.00000000000E+00  0.00000000000E+00  0.29974877034E+02  0.29974877034E+02  0.00000000000E+00 0. -1.
         21   -1    0    0  501  502 -0.00000000000E+00 -0.00000000000E+00 -0.17178916765E+04  0.17178916765E+04  0.00000000000E+00 0. -1.
      99926    2    1    2    0    0  0.00000000000E+00  0.35527136788E-14 -0.16879167994E+04  0.17478665535E+04  0.45384398975E+03 0.  0.
      99925    2    3    3    0    0 -0.28385147472E+02 -0.30582686688E+02 -0.66375216903E+03  0.71524769080E+03  0.26319441481E+03 0.  0.
         25    1    4    4    0    0  0.10182486153E+02 -0.30921984013E+02 -0.40732005728E+03  0.42733709093E+03  0.12509000000E+03 0.  0.
         25    1    3    3    0    0  0.28385147472E+02  0.30582686688E+02 -0.10241646304E+04  0.10326188627E+04  0.12509000000E+03 0.  0.
         25    1    4    4    0    0 -0.38567633625E+02  0.33929732533E+00 -0.25643211175E+03  0.28791059988E+03  0.12509000000E+03 0.  0.
<mgrwt>
<rscale>  2 0.45384399E+03</rscale>
<asrwt>0</asrwt>
<pdfrwt beam="1">  1       21 0.44080709E-02 0.45384399E+03</pdfrwt>
<pdfrwt beam="2">  1       21 0.25263109E+00 0.45384399E+03</pdfrwt>
<totfact> 0.18448064E+04</totfact>
</mgrwt>
</event>
<event>
 7    0  0.4725730E-002  0.4517696E+03  0.7546771E-02  0.1027196E+00
         21   -1    0    0  502  501  0.00000000000E+00  0.00000000000E+00  0.56421069167E+03  0.56421069167E+03  0.00000000000E+00 0. -1.
         21   -1    0    0  501  502 -0.00000000000E+00 -0.00000000000E+00 -0.90434217945E+02  0.90434217945E+02  0.00000000000E+00 0. -1.
      99926    2    1    2    0    0  0.00000000000E+00  0.00000000000E+00  0.47377647372E+03  0.65464490961E+03  0.45176964332E+03 0.  0.
      99925    2    3    3    0    0 -0.19904971085E+02  0.44344324224E+01  0.45566577397E+03  0.52661609407E+03  0.26320589069E+03 0.  0.
         25    1    4    4    0    0 -0.48293019440E+02 -0.15470461457E+00  0.26126847234E+03  0.29366811608E+03  0.12509000000E+03 0.  0.
         25    1    4    4    0    0  0.28388048356E+02  0.45891370370E+01  0.19439730163E+03  0.23294797799E+03  0.12509000000E+03 0.  0.
         25    1    3    3    0    0  0.19904971085E+02 -0.44344324224E+01  0.18110699749E+02  0.12802881555E+03  0.12509000000E+03 0.  0.
<mgrwt>
<rscale>  2 0.45176964E+03</rscale>
<asrwt>0</asrwt>
<pdfrwt beam="1">  1       21 0.82972159E-01 0.45176964E+03</pdfrwt>
<pdfrwt beam="2">  1       21 0.13299150E-01 0.45176964E+03</pdfrwt>
<totfact> 0.56869916E+04</totfact>
</mgrwt>
</event>
<event>
 7    0  0.4725730E-002  0.4559098E+03  0.7546771E-02  0.1025974E+00
         21   -1    0    0  502  501  0.00000000000E+00  0.00000000000E+00  0.70578562272E+03  0.70578562272E+03  0.00000000000E+00 0.  1.
         21   -1    0    0  501  502 -0.00000000000E+00 -0.00000000000E+00 -0.73624947493E+02  0.73624947493E+02  0.00000000000E+00 0.  1.
      99926    2    1    2    0    0  0.71054273576E-14 -0.14210854715E-13  0.63216067523E+03  0.77941057021E+03  0.45590976921E+03 0.  0.
      99925    2    3    3    0    0 -0.53441365336E+02  0.99619300157E+02  0.42309965214E+03  0.51083282734E+03  0.26297695214E+03 0.  0.
         25    1    4    4    0    0 -0.29188459560E+01  0.79788181979E+02  0.19439757133E+03  0.24456614133E+03  0.12509000000E+03 0.  0.
         25    1    4    4    0    0 -0.50522519380E+02  0.19831118178E+02  0.22870208081E+03  0.26626668601E+03  0.12509000000E+03 0.  0.
         25    1    3    3    0    0  0.53441365336E+02 -0.99619300157E+02  0.20906102309E+03  0.26857774287E+03  0.12509000000E+03 0.  0.
<mgrwt>
<rscale>  2 0.45590977E+03</rscale>
<asrwt>0</asrwt>
<pdfrwt beam="1">  1       21 0.10379200E+00 0.45590977E+03</pdfrwt>
<pdfrwt beam="2">  1       21 0.10827199E-01 0.45590977E+03</pdfrwt>
<totfact> 0.48430092E+04</totfact>
</mgrwt>
</event>
<event>
 7    0  0.4725730E-002  0.4546983E+03  0.7546771E-02  0.1026330E+00
         21   -1    0    0  502  501  0.00000000000E+00  0.00000000000E+00  0.11368188981E+03  0.11368188981E+03  0.00000000000E+00 0.  1.
         21   -1    0    0  501  502 -0.00000000000E+00 -0.00000000000E+00 -0.45466909451E+03  0.45466909451E+03  0.00000000000E+00 0.  1.
      99926    2    1    2    0    0  0.00000000000E+00 -0.71054273576E-14 -0.34098720470E+03  0.56835098432E+03  0.45469832593E+03 0.  0.
      99925    2    3    3    0    0 -0.54685423198E+02 -0.35385487870E+02 -0.32985342629E+03  0.42687979508E+03  0.26302176402E+03 0.  0.
         25    1    4    4    0    0  0.39141588431E+01  0.74159503177E+01 -0.17136139368E+03  0.21232652284E+03  0.12509000000E+03 0.  0.
         25    1    4    4    0    0 -0.58599582041E+02 -0.42801438187E+02 -0.15849203261E+03  0.21455327224E+03  0.12509000000E+03 0.  0.
         25    1    3    3    0    0  0.54685423198E+02  0.35385487870E+02 -0.11133778404E+02  0.14147118924E+03  0.12509000000E+03 0.  0.
<mgrwt>
<rscale>  2 0.45469833E+03</rscale>
<asrwt>0</asrwt>
<pdfrwt beam="1">  1       21 0.16717925E-01 0.45469833E+03</pdfrwt>
<pdfrwt beam="2">  1       21 0.66863102E-01 0.45469833E+03</pdfrwt>
<totfact> 0.60814860E+04</totfact>
</mgrwt>
</event>
<event>
 7    0  0.4725730E-002  0.4572145E+03  0.7546771E-02  0.1025592E+00
         21   -1    0    0  502  501  0.00000000000E+00  0.00000000000E+00  0.31618097447E+03  0.31618097447E+03  0.00000000000E+00 0. -1.
         21   -1    0    0  501  502 -0.00000000000E+00 -0.00000000000E+00 -0.16528912349E+03  0.16528912349E+03  0.00000000000E+00 0. -1.
      99926    2    1    2    0    0  0.00000000000E+00  0.00000000000E+00  0.15089185098E+03  0.48147009796E+03  0.45721450604E+03 0.  0.
      99925    2    3    3    0    0 -0.10858127069E+03 -0.18950347917E+02  0.58688333672E+02  0.29094974541E+03  0.26278969884E+03 0.  0.
         25    1    3    3    0    0  0.10858127069E+03  0.18950347917E+02  0.92203517304E+02  0.19052035254E+03  0.12509000000E+03 0.  0.
         25    1    4    4    0    0 -0.84031595556E+02  0.17349832633E+02  0.41730793689E+02  0.15732543655E+03  0.12509000000E+03 0.  0.
         25    1    4    4    0    0 -0.24549675132E+02 -0.36300180551E+02  0.16957539983E+02  0.13362430886E+03  0.12509000000E+03 0.  0.
<mgrwt>
<rscale>  2 0.45721451E+03</rscale>
<asrwt>0</asrwt>
<pdfrwt beam="1">  1       21 0.46497202E-01 0.45721451E+03</pdfrwt>
<pdfrwt beam="2">  1       21 0.24307224E-01 0.45721451E+03</pdfrwt>
<totfact> 0.65435455E+04</totfact>
</mgrwt>
</event>
<event>
 7    0  0.4725730E-002  0.4414986E+03  0.7546771E-02  0.1030288E+00
         21   -1    0    0  502  501  0.00000000000E+00  0.00000000000E+00  0.27687602809E+03  0.27687602809E+03  0.00000000000E+00 0.  1.
         21   -1    0    0  501  502 -0.00000000000E+00 -0.00000000000E+00 -0.17600026214E+03  0.17600026214E+03  0.00000000000E+00 0.  1.
      99926    2    1    2    0    0 -0.14210854715E-13  0.00000000000E+00  0.10087576595E+03  0.45287629023E+03  0.44149860033E+03 0.  0.
      99925    2    3    3    0    0  0.87141264392E+02 -0.15640636749E+02  0.11184895190E+03  0.29923336527E+03  0.26304408257E+03 0.  0.
         25    1    4    4    0    0  0.60539798892E+02 -0.14129526862E+01  0.97484030618E+02  0.16975779219E+03  0.12509000000E+03 0.  0.
         25    1    4    4    0    0  0.26601465500E+02 -0.14227684063E+02  0.14364921286E+02  0.12947557308E+03  0.12509000000E+03 0.  0.
         25    1    3    3    0    0 -0.87141264392E+02  0.15640636749E+02 -0.10973185954E+02  0.15364292495E+03  0.12509000000E+03 0.  0.
<mgrwt>
<rscale>  2 0.44149860E+03</rscale>
<asrwt>0</asrwt>
<pdfrwt beam="1">  1       21 0.40717063E-01 0.44149860E+03</pdfrwt>
<pdfrwt beam="2">  1       21 0.25882392E-01 0.44149860E+03</pdfrwt>
<totfact> 0.76612513E+04</totfact>
</mgrwt>
</event>
<event>
 7    0  0.4725730E-002  0.4558585E+03  0.7546771E-02  0.1025989E+00
         21   -1    0    0  502  501  0.00000000000E+00  0.00000000000E+00  0.21893616225E+03  0.21893616225E+03  0.00000000000E+00 0.  1.
         21   -1    0    0  501  502 -0.00000000000E+00 -0.00000000000E+00 -0.23729173480E+03  0.23729173480E+03  0.00000000000E+00 0.  1.
      99926    2    1    2    0    0  0.00000000000E+00 -0.35527136788E-14 -0.18355572545E+02  0.45622789705E+03  0.45585849449E+03 0.  0.
      99925    2    3    3    0    0  0.29887457570E+02  0.28861260474E+02  0.94659285912E+02  0.28260157759E+03  0.26301528239E+03 0.  0.
         25    1    4    4    0    0  0.12636569850E+02 -0.10450773905E+01  0.68502961105E+01  0.12591747195E+03  0.12509000000E+03 0.  0.
         25    1    3    3    0    0 -0.29887457570E+02 -0.28861260474E+02 -0.11301485846E+03  0.17362631946E+03  0.12509000000E+03 0.  0.
         25    1    4    4    0    0  0.17250887720E+02  0.29906337865E+02  0.87808989802E+02  0.15668410564E+03  0.12509000000E+03 0.  0.
<mgrwt>
<rscale>  2 0.45585849E+03</rscale>
<asrwt>0</asrwt>
<pdfrwt beam="1">  1       21 0.32196495E-01 0.45585849E+03</pdfrwt>
<pdfrwt beam="2">  1       21 0.34895843E-01 0.45585849E+03</pdfrwt>
<totfact> 0.67989042E+04</totfact>
</mgrwt>
</event>
<event>
 7    0  0.4725730E-002  0.4639212E+03  0.7546771E-02  0.1023650E+00
         21   -1    0    0  502  501  0.00000000000E+00  0.00000000000E+00  0.82968002684E+02  0.82968002684E+02  0.00000000000E+00 0.  1.
         21   -1    0    0  501  502 -0.00000000000E+00 -0.00000000000E+00 -0.64851172138E+03  0.64851172138E+03  0.00000000000E+00 0.  1.
      99926    2    1    2    0    0  0.00000000000E+00 -0.71054273576E-14 -0.56554371870E+03  0.73147972407E+03  0.46392120986E+03 0.  0.
      99925    2    3    3    0    0 -0.73866611731E+02 -0.37030772852E+02 -0.49303976209E+03  0.56495078877E+03  0.26316084866E+03 0.  0.
         25    1    4    4    0    0 -0.43288704294E+02 -0.52907267498E+02 -0.21281837016E+03  0.25614889742E+03  0.12509000000E+03 0.  0.
         25    1    3    3    0    0  0.73866611731E+02  0.37030772852E+02 -0.72503956611E+02  0.16652893530E+03  0.12509000000E+03 0.  0.
         25    1    4    4    0    0 -0.30577907437E+02  0.15876494647E+02 -0.28022139193E+03  0.30880189135E+03  0.12509000000E+03 0.  0.
<mgrwt>
<rscale>  2 0.46392121E+03</rscale>
<asrwt>0</asrwt>
<pdfrwt beam="1">  1       21 0.12201178E-01 0.46392121E+03</pdfrwt>
<pdfrwt beam="2">  1       21 0.95369365E-01 0.46392121E+03</pdfrwt>
<totfact> 0.47785482E+04</totfact>
</mgrwt>
</event>
<event>
 7    0  0.4725730E-002  0.4967201E+03  0.7546771E-02  0.1014639E+00
         21   -1    0    0  502  501  0.00000000000E+00  0.00000000000E+00  0.22889969488E+03  0.22889969488E+03  0.00000000000E+00 0.  1.
         21   -1    0    0  501  502 -0.00000000000E+00 -0.00000000000E+00 -0.26947486592E+03  0.26947486592E+03  0.00000000000E+00 0.  1.
      99926    2    1    2    0    0  0.00000000000E+00  0.00000000000E+00 -0.40575171032E+02  0.49837456080E+03  0.49672010061E+03 0.  0.
      99925    2    3    3    0    0 -0.40859953106E+02 -0.94692685885E+02  0.83226975270E+02  0.29438750225E+03  0.26287075063E+03 0.  0.
         25    1    4    4    0    0  0.10105623973E+02 -0.53130713379E+02  0.67828075240E+02  0.15222730449E+03  0.12509000000E+03 0.  0.
         25    1    4    4    0    0 -0.50965577080E+02 -0.41561972505E+02  0.15398900030E+02  0.14216019776E+03  0.12509000000E+03 0.  0.
         25    1    3    3    0    0  0.40859953106E+02  0.94692685885E+02 -0.12380214630E+03  0.20398705855E+03  0.12509000000E+03 0.  0.
<mgrwt>
<rscale>  2 0.49672010E+03</rscale>
<asrwt>0</asrwt>
<pdfrwt beam="1">  1       21 0.33661720E-01 0.49672010E+03</pdfrwt>
<pdfrwt beam="2">  1       21 0.39628656E-01 0.49672010E+03</pdfrwt>
<totfact> 0.47562228E+04</totfact>
</mgrwt>
</event>
<event>
 7    0  0.4725730E-002  0.4515307E+03  0.7546771E-02  0.1027267E+00
         21   -1    0    0  502  501  0.00000000000E+00  0.00000000000E+00  0.31992675898E+03  0.31992675898E+03  0.00000000000E+00 0.  1.
         21   -1    0    0  501  502 -0.00000000000E+00 -0.00000000000E+00 -0.15931767065E+03  0.15931767065E+03  0.00000000000E+00 0.  1.
      99926    2    1    2    0    0  0.17763568394E-14  0.00000000000E+00  0.16060908833E+03  0.47924442962E+03  0.45153066792E+03 0.  0.
      99925    2    3    3    0    0 -0.12188747879E+02 -0.21767194697E+02  0.21504845097E+03  0.34055943171E+03  0.26289259009E+03 0.  0.
         25    1    4    4    0    0  0.97363788334E+01 -0.25239832417E+02  0.15208269791E+03  0.19876745538E+03  0.12509000000E+03 0.  0.
         25    1    3    3    0    0  0.12188747879E+02  0.21767194697E+02 -0.54439362645E+02  0.13868499791E+03  0.12509000000E+03 0.  0.
         25    1    4    4    0    0 -0.21925126712E+02  0.34726377196E+01  0.62965753059E+02  0.14179197633E+03  0.12509000000E+03 0.  0.
<mgrwt>
<rscale>  2 0.45153067E+03</rscale>
<asrwt>0</asrwt>
<pdfrwt beam="1">  1       21 0.47048053E-01 0.45153067E+03</pdfrwt>
<pdfrwt beam="2">  1       21 0.23429069E-01 0.45153067E+03</pdfrwt>
<totfact> 0.68625611E+04</totfact>
</mgrwt>
</event>
<event>
 7    0  0.4725730E-002  0.4535817E+03  0.7546771E-02  0.1026659E+00
         21   -1    0    0  502  501  0.00000000000E+00  0.00000000000E+00  0.78465256939E+03  0.78465256939E+03  0.00000000000E+00 0. -1.
         21   -1    0    0  501  502 -0.00000000000E+00 -0.00000000000E+00 -0.65550156477E+02  0.65550156477E+02  0.00000000000E+00 0. -1.
      99926    2    1    2    0    0  0.00000000000E+00  0.00000000000E+00  0.71910241291E+03  0.85020272587E+03  0.45358173995E+03 0.  0.
      99925    2    3    3    0    0  0.26182061002E+02  0.87702261877E+02  0.33250641856E+03  0.43369203212E+03  0.26296591658E+03 0.  0.
         25    1    4    4    0    0 -0.26193286485E+02  0.34136257187E+02  0.16900594196E+03  0.21462033648E+03  0.12509000000E+03 0.  0.
         25    1    4    4    0    0  0.52375347486E+02  0.53566004691E+02  0.16350047660E+03  0.21907169564E+03  0.12509000000E+03 0.  0.
         25    1    3    3    0    0 -0.26182061002E+02 -0.87702261877E+02  0.38659599435E+03  0.41651069375E+03  0.12509000000E+03 0.  0.
<mgrwt>
<rscale>  2 0.45358174E+03</rscale>
<asrwt>0</asrwt>
<pdfrwt beam="1">  1       21 0.11539008E+00 0.45358174E+03</pdfrwt>
<pdfrwt beam="2">  1       21 0.96397293E-02 0.45358174E+03</pdfrwt>
<totfact> 0.45939281E+04</totfact>
</mgrwt>
</event>
<event>
 7    0  0.4725730E-002  0.4626081E+03  0.7546771E-02  0.1024028E+00
         21   -1    0    0  502  501  0.00000000000E+00  0.00000000000E+00  0.84368220028E+03  0.84368220028E+03  0.00000000000E+00 0.  1.
         21   -1    0    0  501  502 -0.00000000000E+00 -0.00000000000E+00 -0.63414359997E+02  0.63414359997E+02  0.00000000000E+00 0.  1.
      99926    2    1    2    0    0  0.00000000000E+00  0.00000000000E+00  0.78026784029E+03  0.90709656028E+03  0.46260811394E+03 0.  0.
      99925    2    3    3    0    0  0.95303545523E+02  0.52700674311E+02  0.58759375267E+03  0.65287040309E+03  0.26289392954E+03 0.  0.
         25    1    4    4    0    0  0.77403663925E+02  0.17730315635E+02  0.37354523200E+03  0.40185723800E+03  0.12509000000E+03 0.  0.
         25    1    4    4    0    0  0.17899881598E+02  0.34970358677E+02  0.21404852067E+03  0.25101316509E+03  0.12509000000E+03 0.  0.
         25    1    3    3    0    0 -0.95303545523E+02 -0.52700674311E+02  0.19267408762E+03  0.25422615719E+03  0.12509000000E+03 0.  0.
<mgrwt>
<rscale>  2 0.46260811E+03</rscale>
<asrwt>0</asrwt>
<pdfrwt beam="1">  1       21 0.12407091E+00 0.46260811E+03</pdfrwt>
<pdfrwt beam="2">  1       21 0.93256417E-02 0.46260811E+03</pdfrwt>
<totfact> 0.40463812E+04</totfact>
</mgrwt>
</event>
<event>
 7    0  0.4725730E-002  0.4517022E+03  0.7546771E-02  0.1027216E+00
         21   -1    0    0  502  501  0.00000000000E+00  0.00000000000E+00  0.10876083754E+03  0.10876083754E+03  0.00000000000E+00 0.  1.
         21   -1    0    0  501  502 -0.00000000000E+00 -0.00000000000E+00 -0.46899897193E+03  0.46899897193E+03  0.00000000000E+00 0.  1.
      99926    2    1    2    0    0  0.71054273576E-14  0.71054273576E-14 -0.36023813439E+03  0.57775980946E+03  0.45170220717E+03 0.  0.
      99925    2    3    3    0    0  0.52814842284E+02  0.62031067922E+02 -0.32259596108E+03  0.42380623768E+03  0.26250011816E+03 0.  0.
         25    1    4    4    0    0  0.66941214285E+01  0.29796390440E+01 -0.11471395222E+03  0.16988374980E+03  0.12509000000E+03 0.  0.
         25    1    3    3    0    0 -0.52814842284E+02 -0.62031067922E+02 -0.37642173306E+02  0.15395357178E+03  0.12509000000E+03 0.  0.
         25    1    4    4    0    0  0.46120720855E+02  0.59051428878E+02 -0.20788200886E+03  0.25392248788E+03  0.12509000000E+03 0.  0.
<mgrwt>
<rscale>  2 0.45170221E+03</rscale>
<asrwt>0</asrwt>
<pdfrwt beam="1">  1       21 0.15994241E-01 0.45170221E+03</pdfrwt>
<pdfrwt beam="2">  1       21 0.68970435E-01 0.45170221E+03</pdfrwt>
<totfact> 0.61660526E+04</totfact>
</mgrwt>
</event>
<event>
 7    0  0.4725730E-002  0.4556930E+03  0.7546771E-02  0.1026038E+00
         21   -1    0    0  502  501  0.00000000000E+00  0.00000000000E+00  0.75116818869E+02  0.75116818869E+02  0.00000000000E+00 0.  1.
         21   -1    0    0  501  502 -0.00000000000E+00 -0.00000000000E+00 -0.69111053900E+03  0.69111053900E+03  0.00000000000E+00 0.  1.
      99926    2    1    2    0    0  0.14210854715E-13 -0.77715611724E-15 -0.61599372013E+03  0.76622735787E+03  0.45569298953E+03 0.  0.
      99925    2    3    3    0    0  0.96791518435E+02  0.78509561713E+00 -0.28672162980E+03  0.40093729232E+03  0.26300609302E+03 0.  0.
         25    1    3    3    0    0 -0.96791518435E+02 -0.78509561713E+00 -0.32927209033E+03  0.36529006555E+03  0.12509000000E+03 0.  0.
         25    1    4    4    0    0  0.84454213869E+02 -0.21631355024E+02 -0.15071689991E+03  0.21439104874E+03  0.12509000000E+03 0.  0.
         25    1    4    4    0    0  0.12337304566E+02  0.22416450641E+02 -0.13600472989E+03  0.18654624359E+03  0.12509000000E+03 0.  0.
<mgrwt>
<rscale>  2 0.45569299E+03</rscale>
<asrwt>0</asrwt>
<pdfrwt beam="1">  1       21 0.11046591E-01 0.45569299E+03</pdfrwt>
<pdfrwt beam="2">  1       21 0.10163391E+00 0.45569299E+03</pdfrwt>
<totfact> 0.49173509E+04</totfact>
</mgrwt>
</event>
<event>
 7    0  0.4725730E-002  0.4380530E+03  0.7546771E-02  0.1031346E+00
         21   -1    0    0  502  501  0.00000000000E+00  0.00000000000E+00  0.41272901721E+03  0.41272901721E+03  0.00000000000E+00 0.  1.
         21   -1    0    0  501  502 -0.00000000000E+00 -0.00000000000E+00 -0.11623269848E+03  0.11623269848E+03  0.00000000000E+00 0.  1.
      99926    2    1    2    0    0  0.00000000000E+00  0.00000000000E+00  0.29649631873E+03  0.52896171569E+03  0.43805299867E+03 0.  0.
      99925    2    3    3    0    0 -0.82854486339E+02  0.19245517115E+02  0.13205158356E+03  0.30552305551E+03  0.26205240105E+03 0.  0.
         25    1    4    4    0    0 -0.57813688634E+02 -0.25534174745E+02  0.72405178404E+02  0.15774800992E+03  0.12509000000E+03 0.  0.
         25    1    3    3    0    0  0.82854486339E+02 -0.19245517115E+02  0.16444473517E+03  0.22343866017E+03  0.12509000000E+03 0.  0.
         25    1    4    4    0    0 -0.25040797705E+02  0.44779691860E+02  0.59646405158E+02  0.14777504560E+03  0.12509000000E+03 0.  0.
<mgrwt>
<rscale>  2 0.43805300E+03</rscale>
<asrwt>0</asrwt>
<pdfrwt beam="1">  1       21 0.60695443E-01 0.43805300E+03</pdfrwt>
<pdfrwt beam="2">  1       21 0.17093044E-01 0.43805300E+03</pdfrwt>
<totfact> 0.72529769E+04</totfact>
</mgrwt>
</event>
<event>
 7    0  0.4725730E-002  0.4537522E+03  0.7546771E-02  0.1026609E+00
         21   -1    0    0  502  501  0.00000000000E+00  0.00000000000E+00  0.42815513995E+03  0.42815513995E+03  0.00000000000E+00 0.  1.
         21   -1    0    0  501  502 -0.00000000000E+00 -0.00000000000E+00 -0.12021986910E+03  0.12021986910E+03  0.00000000000E+00 0.  1.
      99926    2    1    2    0    0  0.35527136788E-14  0.71054273576E-14  0.30793527085E+03  0.54837500905E+03  0.45375215649E+03 0.  0.
      99925    2    3    3    0    0 -0.28664257766E+02  0.55442665873E+02  0.80843971308E+02  0.28170387207E+03  0.26253722588E+03 0.  0.
         25    1    4    4    0    0 -0.24134487745E+02 -0.45588822570E+01  0.61548802683E+02  0.14155924596E+03  0.12509000000E+03 0.  0.
         25    1    3    3    0    0  0.28664257766E+02 -0.55442665873E+02  0.22709129954E+03  0.26667113698E+03  0.12509000000E+03 0.  0.
         25    1    4    4    0    0 -0.45297700215E+01  0.60001548130E+02  0.19295168625E+02  0.14014462611E+03  0.12509000000E+03 0.  0.
<mgrwt>
<rscale>  2 0.45375216E+03</rscale>
<asrwt>0</asrwt>
<pdfrwt beam="1">  1       21 0.62963991E-01 0.45375216E+03</pdfrwt>
<pdfrwt beam="2">  1       21 0.17679393E-01 0.45375216E+03</pdfrwt>
<totfact> 0.62589696E+04</totfact>
</mgrwt>
</event>
<event>
 7    0  0.4725730E-002  0.4594832E+03  0.7546771E-02  0.1024931E+00
         21   -1    0    0  502  501  0.00000000000E+00  0.00000000000E+00  0.15348840490E+03  0.15348840490E+03  0.00000000000E+00 0. -1.
         21   -1    0    0  501  502 -0.00000000000E+00 -0.00000000000E+00 -0.34387750682E+03  0.34387750682E+03  0.00000000000E+00 0. -1.
      99926    2    1    2    0    0 -0.35527136788E-14  0.00000000000E+00 -0.19038910192E+03  0.49736591171E+03  0.45948323147E+03 0.  0.
      99925    2    3    3    0    0 -0.25715896120E+02 -0.10879160957E+03 -0.15781811073E+03  0.32647033192E+03  0.26301977097E+03 0.  0.
         25    1    3    3    0    0  0.25715896120E+02  0.10879160957E+03 -0.32570991188E+02  0.17089557980E+03  0.12509000000E+03 0.  0.
         25    1    4    4    0    0 -0.22421803840E+02 -0.12179823357E+02 -0.67950144555E+02  0.14462301210E+03  0.12509000000E+03 0.  0.
         25    1    4    4    0    0 -0.32940922802E+01 -0.96611786216E+02 -0.89867966175E+02  0.18184731982E+03  0.12509000000E+03 0.  0.
<mgrwt>
<rscale>  2 0.45948323E+03</rscale>
<asrwt>0</asrwt>
<pdfrwt beam="1">  1       21 0.22571824E-01 0.45948323E+03</pdfrwt>
<pdfrwt beam="2">  1       21 0.50570222E-01 0.45948323E+03</pdfrwt>
<totfact> 0.63177488E+04</totfact>
</mgrwt>
</event>
<event>
 7    0  0.4725730E-002  0.4479126E+03  0.7546771E-02  0.1028346E+00
         21   -1    0    0  502  501  0.00000000000E+00  0.00000000000E+00  0.17803330677E+03  0.17803330677E+03  0.00000000000E+00 0. -1.
         21   -1    0    0  501  502 -0.00000000000E+00 -0.00000000000E+00 -0.28172490370E+03  0.28172490370E+03  0.00000000000E+00 0. -1.
      99926    2    1    2    0    0  0.14210854715E-13  0.00000000000E+00 -0.10369159694E+03  0.45975821047E+03  0.44791256381E+03 0.  0.
      99925    2    3    3    0    0  0.97343360127E+02 -0.42643534759E+02 -0.60183578466E+02  0.28995050573E+03  0.26297344322E+03 0.  0.
         25    1    4    4    0    0  0.64598977689E+02 -0.19494918826E+02 -0.69595474238E+02  0.15825333460E+03  0.12509000000E+03 0.  0.
         25    1    4    4    0    0  0.32744382438E+02 -0.23148615933E+02  0.94118957727E+01  0.13169717113E+03  0.12509000000E+03 0.  0.
         25    1    3    3    0    0 -0.97343360127E+02  0.42643534759E+02 -0.43508018473E+02  0.16980770474E+03  0.12509000000E+03 0.  0.
<mgrwt>
<rscale>  2 0.44791256E+03</rscale>
<asrwt>0</asrwt>
<pdfrwt beam="1">  1       21 0.26181369E-01 0.44791256E+03</pdfrwt>
<pdfrwt beam="2">  1       21 0.41430133E-01 0.44791256E+03</pdfrwt>
<totfact> 0.72178514E+04</totfact>
</mgrwt>
</event>
<event>
 7    0  0.4725730E-002  0.4405709E+03  0.7546771E-02  0.1030572E+00
         21   -1    0    0  502  501  0.00000000000E+00  0.00000000000E+00  0.18842744678E+03  0.18842744678E+03  0.00000000000E+00 0. -1.
         21   -1    0    0  501  502 -0.00000000000E+00 -0.00000000000E+00 -0.25752973837E+03  0.25752973837E+03  0.00000000000E+00 0. -1.
      99926    2    1    2    0    0  0.00000000000E+00 -0.35527136788E-14 -0.69102291592E+02  0.44595718516E+03  0.44057086183E+03 0.  0.
      99925    2    3    3    0    0  0.88460907323E+02  0.31561095123E+02 -0.76072126873E+02  0.28937646619E+03  0.26292648373E+03 0.  0.
         25    1    4    4    0    0  0.44037239885E+02  0.12144069127E+02 -0.79650093412E+02  0.15517217016E+03  0.12509000000E+03 0.  0.
         25    1    3    3    0    0 -0.88460907323E+02 -0.31561095123E+02  0.69698352813E+01  0.15658071897E+03  0.12509000000E+03 0.  0.
         25    1    4    4    0    0  0.44423667438E+02  0.19417025996E+02  0.35779665388E+01  0.13420429603E+03  0.12509000000E+03 0.  0.
<mgrwt>
<rscale>  2 0.44057086E+03</rscale>
<asrwt>0</asrwt>
<pdfrwt beam="1">  1       21 0.27709919E-01 0.44057086E+03</pdfrwt>
<pdfrwt beam="2">  1       21 0.37872020E-01 0.44057086E+03</pdfrwt>
<totfact> 0.77789168E+04</totfact>
</mgrwt>
</event>
<event>
 7    0  0.4725730E-002  0.4503876E+03  0.7546771E-02  0.1027607E+00
         21   -1    0    0  502  501  0.00000000000E+00  0.00000000000E+00  0.62333614990E+03  0.62333614990E+03  0.00000000000E+00 0. -1.
         21   -1    0    0  501  502 -0.00000000000E+00 -0.00000000000E+00 -0.81356196495E+02  0.81356196495E+02  0.00000000000E+00 0. -1.
      99926    2    1    2    0    0  0.14210854715E-13  0.00000000000E+00  0.54197995340E+03  0.70469234639E+03  0.45038764767E+03 0.  0.
      99925    2    3    3    0    0 -0.10755230318E+03 -0.15205031646E+02  0.33411532973E+03  0.43888433150E+03  0.26303557168E+03 0.  0.
         25    1    4    4    0    0 -0.72755236469E+02 -0.15916604868E+02  0.23113558427E+03  0.27316264232E+03  0.12509000000E+03 0.  0.
         25    1    4    4    0    0 -0.34797066713E+02  0.71157322252E+00  0.10297974545E+03  0.16572168917E+03  0.12509000000E+03 0.  0.
         25    1    3    3    0    0  0.10755230318E+03  0.15205031646E+02  0.20786462368E+03  0.26580801490E+03  0.12509000000E+03 0.  0.
<mgrwt>
<rscale>  2 0.45038765E+03</rscale>
<asrwt>0</asrwt>
<pdfrwt beam="1">  1       21 0.91667078E-01 0.45038765E+03</pdfrwt>
<pdfrwt beam="2">  1       21 0.11964147E-01 0.45038765E+03</pdfrwt>
<totfact> 0.54603861E+04</totfact>
</mgrwt>
</event>
<event>
 7    0  0.4725730E-002  0.4567538E+03  0.7546771E-02  0.1025727E+00
         21   -1    0    0  502  501  0.00000000000E+00  0.00000000000E+00  0.21688703527E+03  0.21688703527E+03  0.00000000000E+00 0. -1.
         21   -1    0    0  501  502 -0.00000000000E+00 -0.00000000000E+00 -0.24047545766E+03  0.24047545766E+03  0.00000000000E+00 0. -1.
      99926    2    1    2    0    0  0.88817841970E-15 -0.14210854715E-13 -0.23588422392E+02  0.45736249292E+03  0.45675380268E+03 0.  0.
      99925    2    3    3    0    0  0.18665635785E+01  0.81669586804E+02 -0.95613379180E+02  0.29150560290E+03  0.26298325569E+03 0.  0.
         25    1    3    3    0    0 -0.18665635785E+01 -0.81669586804E+02  0.72024956788E+02  0.16585689002E+03  0.12509000000E+03 0.  0.
         25    1    4    4    0    0  0.80002062404E+01  0.67544536763E+02 -0.83075074898E+02  0.16484915504E+03  0.12509000000E+03 0.  0.
         25    1    4    4    0    0 -0.61336426619E+01  0.14125050041E+02 -0.12538304282E+02  0.12665644786E+03  0.12509000000E+03 0.  0.
<mgrwt>
<rscale>  2 0.45675380E+03</rscale>
<asrwt>0</asrwt>
<pdfrwt beam="1">  1       21 0.31895152E-01 0.45675380E+03</pdfrwt>
<pdfrwt beam="2">  1       21 0.35364038E-01 0.45675380E+03</pdfrwt>
<totfact> 0.67424646E+04</totfact>
</mgrwt>
</event>
<event>
 7    0  0.4725730E-002  0.4487882E+03  0.7546771E-02  0.1028084E+00
         21   -1    0    0  502  501  0.00000000000E+00  0.00000000000E+00  0.22127251210E+03  0.22127251210E+03  0.00000000000E+00 0. -1.
         21   -1    0    0  501  502 -0.00000000000E+00 -0.00000000000E+00 -0.22755971081E+03  0.22755971081E+03  0.00000000000E+00 0. -1.
      99926    2    1    2    0    0 -0.35527136788E-14  0.00000000000E+00 -0.62871987126E+01  0.44883222290E+03  0.44878818551E+03 0.  0.
      99925    2    3    3    0    0 -0.31986260795E+02  0.34204456756E+02 -0.10042186245E+03  0.28542503592E+03  0.26303960715E+03 0.  0.
         25    1    4    4    0    0 -0.45967048009E+02 -0.96776095572E+01 -0.44007074551E+02  0.14067962304E+03  0.12509000000E+03 0.  0.
         25    1    3    3    0    0  0.31986260795E+02 -0.34204456756E+02  0.94134663736E+02  0.16340718698E+03  0.12509000000E+03 0.  0.
         25    1    4    4    0    0  0.13980787215E+02  0.43882066313E+02 -0.56414787897E+02  0.14474541288E+03  0.12509000000E+03 0.  0.
<mgrwt>
<rscale>  2 0.44878819E+03</rscale>
<asrwt>0</asrwt>
<pdfrwt beam="1">  1       21 0.32540075E-01 0.44878819E+03</pdfrwt>
<pdfrwt beam="2">  1       21 0.33464663E-01 0.44878819E+03</pdfrwt>
<totfact> 0.72528708E+04</totfact>
</mgrwt>
</event>
<event>
 7    0  0.4725730E-002  0.4439731E+03  0.7546771E-02  0.1029535E+00
         21   -1    0    0  502  501  0.00000000000E+00  0.00000000000E+00  0.10361626000E+04  0.10361626000E+04  0.00000000000E+00 0. -1.
         21   -1    0    0  501  502 -0.00000000000E+00 -0.00000000000E+00 -0.47558190311E+02  0.47558190311E+02  0.00000000000E+00 0. -1.
      99926    2    1    2    0    0 -0.71054273576E-14  0.00000000000E+00  0.98860440972E+03  0.10837207903E+04  0.44397305380E+03 0.  0.
      99925    2    3    3    0    0  0.54529248404E+02 -0.24582649222E+02  0.83210965269E+03  0.87463740350E+03  0.26269063161E+03 0.  0.
         25    1    3    3    0    0 -0.54529248404E+02  0.24582649222E+02  0.15649475703E+03  0.20908338684E+03  0.12509000000E+03 0.  0.
         25    1    4    4    0    0  0.60124879067E+02 -0.16105179779E+02  0.36093412071E+03  0.38703401077E+03  0.12509000000E+03 0.  0.
         25    1    4    4    0    0 -0.55956306634E+01 -0.84774694426E+01  0.47117553197E+03  0.48760339273E+03  0.12509000000E+03 0.  0.
<mgrwt>
<rscale>  2 0.44397305E+03</rscale>
<asrwt>0</asrwt>
<pdfrwt beam="1">  1       21 0.15237684E+00 0.44397305E+03</pdfrwt>
<pdfrwt beam="2">  1       21 0.69938522E-02 0.44397305E+03</pdfrwt>
<totfact> 0.39341188E+04</totfact>
</mgrwt>
</event>
<event>
 7    0  0.4725730E-002  0.4571185E+03  0.7546771E-02  0.1025620E+00
         21   -1    0    0  502  501  0.00000000000E+00  0.00000000000E+00  0.23337297072E+03  0.23337297072E+03  0.00000000000E+00 0. -1.
         21   -1    0    0  501  502 -0.00000000000E+00 -0.00000000000E+00 -0.22384482280E+03  0.22384482280E+03  0.00000000000E+00 0. -1.
      99926    2    1    2    0    0  0.00000000000E+00  0.00000000000E+00  0.95281479160E+01  0.45721779352E+03  0.45711850226E+03 0.  0.
      99925    2    3    3    0    0 -0.34619803124E+02 -0.16848839771E+02 -0.10248105923E+03  0.28495060351E+03  0.26308185944E+03 0.  0.
         25    1    4    4    0    0 -0.47145937652E+02 -0.28657218781E+02 -0.32267875784E+02  0.14047312744E+03  0.12509000000E+03 0.  0.
         25    1    4    4    0    0  0.12526134528E+02  0.11808379010E+02 -0.70213183445E+02  0.14447747607E+03  0.12509000000E+03 0.  0.
         25    1    3    3    0    0  0.34619803124E+02  0.16848839771E+02  0.11200920715E+03  0.17226719001E+03  0.12509000000E+03 0.  0.
<mgrwt>
<rscale>  2 0.45711850E+03</rscale>
<asrwt>0</asrwt>
<pdfrwt beam="1">  1       21 0.34319555E-01 0.45711850E+03</pdfrwt>
<pdfrwt beam="2">  1       21 0.32918356E-01 0.45711850E+03</pdfrwt>
<totfact> 0.67239836E+04</totfact>
</mgrwt>
</event>
<event>
 7    0  0.4725730E-002  0.4525287E+03  0.7546771E-02  0.1026971E+00
         21   -1    0    0  502  501  0.00000000000E+00  0.00000000000E+00  0.39202912106E+03  0.39202912106E+03  0.00000000000E+00 0. -1.
         21   -1    0    0  501  502 -0.00000000000E+00 -0.00000000000E+00 -0.13059122948E+03  0.13059122948E+03  0.00000000000E+00 0. -1.
      99926    2    1    2    0    0  0.00000000000E+00  0.00000000000E+00  0.26143789158E+03  0.52262035054E+03  0.45252873903E+03 0.  0.
      99925    2    3    3    0    0 -0.72668167867E+02 -0.83515401066E+02  0.16232747926E+03  0.32838887326E+03  0.26312270278E+03 0.  0.
         25    1    3    3    0    0  0.72668167867E+02  0.83515401066E+02  0.99110412323E+02  0.19423147728E+03  0.12509000000E+03 0.  0.
         25    1    4    4    0    0 -0.23385891119E+02 -0.57732230159E+02  0.12245479470E+03  0.18580257035E+03  0.12509000000E+03 0.  0.
         25    1    4    4    0    0 -0.49282276748E+02 -0.25783170907E+02  0.39872684558E+02  0.14258630291E+03  0.12509000000E+03 0.  0.
<mgrwt>
<rscale>  2 0.45252874E+03</rscale>
<asrwt>0</asrwt>
<pdfrwt beam="1">  1       21 0.57651341E-01 0.45252874E+03</pdfrwt>
<pdfrwt beam="2">  1       21 0.19204593E-01 0.45252874E+03</pdfrwt>
<totfact> 0.64972388E+04</totfact>
</mgrwt>
</event>
<event>
 7    0  0.4725730E-002  0.4538727E+03  0.7546771E-02  0.1026573E+00
         21   -1    0    0  502  501  0.00000000000E+00  0.00000000000E+00  0.34911296278E+02  0.34911296278E+02  0.00000000000E+00 0. -1.
         21   -1    0    0  501  502 -0.00000000000E+00 -0.00000000000E+00 -0.14751706060E+04  0.14751706060E+04  0.00000000000E+00 0. -1.
      99926    2    1    2    0    0  0.14210854715E-13  0.00000000000E+00 -0.14402593097E+04  0.15100819022E+04  0.45387274906E+03 0.  0.
      99925    2    3    3    0    0 -0.89979645309E+02  0.39200081393E+02 -0.72697506190E+03  0.77929129667E+03  0.26300038306E+03 0.  0.
         25    1    4    4    0    0 -0.96292579373E+01  0.34129445203E+02 -0.38499719705E+03  0.40635931326E+03  0.12509000000E+03 0.  0.
         25    1    3    3    0    0  0.89979645309E+02 -0.39200081393E+02 -0.71328424778E+03  0.73079060557E+03  0.12509000000E+03 0.  0.
         25    1    4    4    0    0 -0.80350387371E+02  0.50706361903E+01 -0.34197786485E+03  0.37293198341E+03  0.12509000000E+03 0.  0.
<mgrwt>
<rscale>  2 0.45387275E+03</rscale>
<asrwt>0</asrwt>
<pdfrwt beam="1">  1       21 0.51340136E-02 0.45387275E+03</pdfrwt>
<pdfrwt beam="2">  1       21 0.21693688E+00 0.45387275E+03</pdfrwt>
<totfact> 0.23740277E+04</totfact>
</mgrwt>
</event>
<event>
 7    0  0.4725730E-002  0.4655091E+03  0.7546771E-02  0.1023195E+00
         21   -1    0    0  502  501  0.00000000000E+00  0.00000000000E+00  0.57527779378E+02  0.57527779378E+02  0.00000000000E+00 0. -1.
         21   -1    0    0  501  502 -0.00000000000E+00 -0.00000000000E+00 -0.94171352693E+03  0.94171352693E+03  0.00000000000E+00 0. -1.
      99926    2    1    2    0    0  0.00000000000E+00 -0.88817841970E-15 -0.88418574755E+03  0.99924130631E+03  0.46550913209E+03 0.  0.
      99925    2    3    3    0    0  0.11992677305E+03  0.79641525875E+01 -0.60142746326E+03  0.66751006863E+03  0.26345557411E+03 0.  0.
         25    1    4    4    0    0  0.28427102338E+02  0.15615650838E+02 -0.33683764642E+03  0.36077563228E+03  0.12509000000E+03 0.  0.
         25    1    4    4    0    0  0.91499670711E+02 -0.76514982509E+01 -0.26458981684E+03  0.30673443635E+03  0.12509000000E+03 0.  0.
         25    1    3    3    0    0 -0.11992677305E+03 -0.79641525875E+01 -0.28275828429E+03  0.33173123768E+03  0.12509000000E+03 0.  0.
<mgrwt>
<rscale>  2 0.46550913E+03</rscale>
<asrwt>0</asrwt>
<pdfrwt beam="1">  1       21 0.84599681E-02 0.46550913E+03</pdfrwt>
<pdfrwt beam="2">  1       21 0.13848727E+00 0.46550913E+03</pdfrwt>
<totfact> 0.36137872E+04</totfact>
</mgrwt>
</event>
<event>
 7    0  0.4725730E-002  0.4406135E+03  0.7546771E-02  0.1030559E+00
         21   -1    0    0  502  501  0.00000000000E+00  0.00000000000E+00  0.54841397355E+02  0.54841397355E+02  0.00000000000E+00 0. -1.
         21   -1    0    0  501  502 -0.00000000000E+00 -0.00000000000E+00 -0.88500764509E+03  0.88500764509E+03  0.00000000000E+00 0. -1.
      99926    2    1    2    0    0 -0.17763568394E-14  0.00000000000E+00 -0.83016624774E+03  0.93984904245E+03  0.44061346292E+03 0.  0.
      99925    2    3    3    0    0 -0.96022799347E+01 -0.84076395810E+02 -0.41919662358E+03  0.50200822184E+03  0.26291709997E+03 0.  0.
         25    1    3    3    0    0  0.96022799347E+01  0.84076395810E+02 -0.41096962415E+03  0.43784082061E+03  0.12509000000E+03 0.  0.
         25    1    4    4    0    0 -0.28068529526E+02 -0.63699585229E+02 -0.26816180323E+03  0.30397983539E+03  0.12509000000E+03 0.  0.
         25    1    4    4    0    0  0.18466249591E+02 -0.20376810580E+02 -0.15103482035E+03  0.19802838645E+03  0.12509000000E+03 0.  0.
<mgrwt>
<rscale>  2 0.44061346E+03</rscale>
<asrwt>0</asrwt>
<pdfrwt beam="1">  1       21 0.80649120E-02 0.44061346E+03</pdfrwt>
<pdfrwt beam="2">  1       21 0.13014817E+00 0.44061346E+03</pdfrwt>
<totfact> 0.46578469E+04</totfact>
</mgrwt>
</event>
<event>
 7    0  0.4725730E-002  0.4592985E+03  0.7546771E-02  0.1024985E+00
         21   -1    0    0  502  501  0.00000000000E+00  0.00000000000E+00  0.23386664173E+03  0.23386664173E+03  0.00000000000E+00 0. -1.
         21   -1    0    0  501  502 -0.00000000000E+00 -0.00000000000E+00 -0.22550789581E+03  0.22550789581E+03  0.00000000000E+00 0. -1.
      99926    2    1    2    0    0 -0.14210854715E-13  0.00000000000E+00  0.83587459214E+01  0.45937453753E+03  0.45929848367E+03 0.  0.
      99925    2    3    3    0    0 -0.70057658511E+02 -0.92527240619E+02 -0.91527360715E+01  0.28784166642E+03  0.26324833632E+03 0.  0.
         25    1    3    3    0    0  0.70057658511E+02  0.92527240619E+02  0.17511481993E+02  0.17153287112E+03  0.12509000000E+03 0.  0.
         25    1    4    4    0    0 -0.73047229013E+02 -0.37492154925E+02 -0.18806458313E+02  0.15080699693E+03  0.12509000000E+03 0.  0.
         25    1    4    4    0    0  0.29895705020E+01 -0.55035085694E+02  0.96537222417E+01  0.13703466949E+03  0.12509000000E+03 0.  0.
<mgrwt>
<rscale>  2 0.45929848E+03</rscale>
<asrwt>0</asrwt>
<pdfrwt beam="1">  1       21 0.34392153E-01 0.45929848E+03</pdfrwt>
<pdfrwt beam="2">  1       21 0.33162926E-01 0.45929848E+03</pdfrwt>
<totfact> 0.65935889E+04</totfact>
</mgrwt>
</event>
<event>
 7    0  0.4725730E-002  0.4524423E+03  0.7546771E-02  0.1026996E+00
         21   -1    0    0  502  501  0.00000000000E+00  0.00000000000E+00  0.68969277473E+03  0.68969277473E+03  0.00000000000E+00 0.  1.
         21   -1    0    0  501  502 -0.00000000000E+00 -0.00000000000E+00 -0.74201169005E+02  0.74201169005E+02  0.00000000000E+00 0.  1.
      99926    2    1    2    0    0  0.00000000000E+00  0.00000000000E+00  0.61549160573E+03  0.76389394374E+03  0.45244230633E+03 0.  0.
      99925    2    3    3    0    0  0.30400204588E+02  0.10118447065E+03  0.33243178851E+03  0.43688807565E+03  0.26305479865E+03 0.  0.
         25    1    4    4    0    0 -0.25593117480E+02  0.45554314593E+02  0.15779756603E+03  0.20803313002E+03  0.12509000000E+03 0.  0.
         25    1    4    4    0    0  0.55993322068E+02  0.55630156058E+02  0.17463422248E+03  0.22885494563E+03  0.12509000000E+03 0.  0.
         25    1    3    3    0    0 -0.30400204588E+02 -0.10118447065E+03  0.28305981722E+03  0.32700586808E+03  0.12509000000E+03 0.  0.
<mgrwt>
<rscale>  2 0.45244231E+03</rscale>
<asrwt>0</asrwt>
<pdfrwt beam="1">  1       21 0.10142540E+00 0.45244231E+03</pdfrwt>
<pdfrwt beam="2">  1       21 0.10911937E-01 0.45244231E+03</pdfrwt>
<totfact> 0.50568350E+04</totfact>
</mgrwt>
</event>
<event>
 7    0  0.4725730E-002  0.4535809E+03  0.7546771E-02  0.1026660E+00
         21   -1    0    0  502  501  0.00000000000E+00  0.00000000000E+00  0.57589417417E+03  0.57589417417E+03  0.00000000000E+00 0. -1.
         21   -1    0    0  501  502 -0.00000000000E+00 -0.00000000000E+00 -0.89311406869E+02  0.89311406869E+02  0.00000000000E+00 0. -1.
      99926    2    1    2    0    0  0.14210854715E-13 -0.71054273576E-14  0.48658276730E+03  0.66520558104E+03  0.45358094714E+03 0.  0.
      99925    2    3    3    0    0  0.10416532141E+03 -0.33466123371E+02  0.34148463990E+03  0.44458969251E+03  0.26282663449E+03 0.  0.
         25    1    4    4    0    0  0.24918462684E+02 -0.33235237505E+02  0.20174222708E+03  0.24098328797E+03  0.12509000000E+03 0.  0.
         25    1    4    4    0    0  0.79246858727E+02 -0.23088586670E+00  0.13974241282E+03  0.20360640453E+03  0.12509000000E+03 0.  0.
         25    1    3    3    0    0 -0.10416532141E+03  0.33466123371E+02  0.14509812740E+03  0.22061588853E+03  0.12509000000E+03 0.  0.
<mgrwt>
<rscale>  2 0.45358095E+03</rscale>
<asrwt>0</asrwt>
<pdfrwt beam="1">  1       21 0.84690318E-01 0.45358095E+03</pdfrwt>
<pdfrwt beam="2">  1       21 0.13134031E-01 0.45358095E+03</pdfrwt>
<totfact> 0.55450695E+04</totfact>
</mgrwt>
</event>
<event>
 7    0  0.4725730E-002  0.4541268E+03  0.7546771E-02  0.1026498E+00
         21   -1    0    0  502  501  0.00000000000E+00  0.00000000000E+00  0.38777635808E+02  0.38777635808E+02  0.00000000000E+00 0.  1.
         21   -1    0    0  501  502 -0.00000000000E+00 -0.00000000000E+00 -0.13295753643E+04  0.13295753643E+04  0.00000000000E+00 0.  1.
      99926    2    1    2    0    0  0.00000000000E+00  0.00000000000E+00 -0.12907977285E+04  0.13683530001E+04  0.45412680720E+03 0.  0.
      99925    2    3    3    0    0  0.90542283505E+02  0.14707882050E+01 -0.10129503102E+04  0.10504744631E+04  0.26311252046E+03 0.  0.
         25    1    4    4    0    0  0.22324634109E+02  0.10613116726E+01 -0.60945469075E+03  0.62256087562E+03  0.12509000000E+03 0.  0.
         25    1    4    4    0    0  0.68217649397E+02  0.40947653237E+00 -0.40349561946E+03  0.42791358752E+03  0.12509000000E+03 0.  0.
         25    1    3    3    0    0 -0.90542283505E+02 -0.14707882050E+01 -0.27784741827E+03  0.31787853696E+03  0.12509000000E+03 0.  0.
<mgrwt>
<rscale>  2 0.45412681E+03</rscale>
<asrwt>0</asrwt>
<pdfrwt beam="1">  1       21 0.57025936E-02 0.45412681E+03</pdfrwt>
<pdfrwt beam="2">  1       21 0.19552579E+00 0.45412681E+03</pdfrwt>
<totfact> 0.27372997E+04</totfact>
</mgrwt>
</event>
<event>
 7    0  0.4725730E-002  0.4517357E+03  0.7546771E-02  0.1027206E+00
         21   -1    0    0  502  501  0.00000000000E+00  0.00000000000E+00  0.15682818156E+03  0.15682818156E+03  0.00000000000E+00 0. -1.
         21   -1    0    0  501  502 -0.00000000000E+00 -0.00000000000E+00 -0.32530050959E+03  0.32530050959E+03  0.00000000000E+00 0. -1.
      99926    2    1    2    0    0  0.00000000000E+00  0.00000000000E+00 -0.16847232803E+03  0.48212869115E+03  0.45173570759E+03 0.  0.
      99925    2    3    3    0    0  0.90395804139E+02 -0.34738714833E+01 -0.39378851197E+02  0.28089225545E+03  0.26299485939E+03 0.  0.
         25    1    3    3    0    0 -0.90395804139E+02  0.34738714833E+01 -0.12909347684E+03  0.20123643569E+03  0.12509000000E+03 0.  0.
         25    1    4    4    0    0  0.81533305584E+02 -0.94139000961E+01 -0.10092801796E+01  0.14961560140E+03  0.12509000000E+03 0.  0.
         25    1    4    4    0    0  0.88624985553E+01  0.59400286128E+01 -0.38369571018E+02  0.13127665406E+03  0.12509000000E+03 0.  0.
<mgrwt>
<rscale>  2 0.45173571E+03</rscale>
<asrwt>0</asrwt>
<pdfrwt beam="1">  1       21 0.23062968E-01 0.45173571E+03</pdfrwt>
<pdfrwt beam="2">  1       21 0.47838310E-01 0.45173571E+03</pdfrwt>
<totfact> 0.68298179E+04</totfact>
</mgrwt>
</event>
<event>
 7    0  0.4725730E-002  0.4875346E+03  0.7546771E-02  0.1017085E+00
         21   -1    0    0  502  501  0.00000000000E+00  0.00000000000E+00  0.23644936758E+03  0.23644936758E+03  0.00000000000E+00 0. -1.
         21   -1    0    0  501  502 -0.00000000000E+00 -0.00000000000E+00 -0.25131175837E+03  0.25131175837E+03  0.00000000000E+00 0. -1.
      99926    2    1    2    0    0  0.00000000000E+00  0.88817841970E-15 -0.14862390789E+02  0.48776112595E+03  0.48753464013E+03 0.  0.
      99925    2    3    3    0    0  0.62496618830E+01 -0.49239021190E+01  0.13230412518E+03  0.29445102635E+03  0.26293292356E+03 0.  0.
         25    1    4    4    0    0 -0.22471977145E+02  0.22915071644E+02  0.45030991985E+02  0.13676764458E+03  0.12509000000E+03 0.  0.
         25    1    4    4    0    0  0.28721639028E+02 -0.27838973763E+02  0.87273133193E+02  0.15768338177E+03  0.12509000000E+03 0.  0.
         25    1    3    3    0    0 -0.62496618830E+01  0.49239021190E+01 -0.14716651597E+03  0.19331009960E+03  0.12509000000E+03 0.  0.
<mgrwt>
<rscale>  2 0.48753464E+03</rscale>
<asrwt>0</asrwt>
<pdfrwt beam="1">  1       21 0.34771966E-01 0.48753464E+03</pdfrwt>
<pdfrwt beam="2">  1       21 0.36957611E-01 0.48753464E+03</pdfrwt>
<totfact> 0.51488281E+04</totfact>
</mgrwt>
</event>
<event>
 7    0  0.4725730E-002  0.4610148E+03  0.7546771E-02  0.1024487E+00
         21   -1    0    0  502  501  0.00000000000E+00  0.00000000000E+00  0.97685453156E+02  0.97685453156E+02  0.00000000000E+00 0.  1.
         21   -1    0    0  501  502 -0.00000000000E+00 -0.00000000000E+00 -0.54392610500E+03  0.54392610500E+03  0.00000000000E+00 0.  1.
      99926    2    1    2    0    0  0.00000000000E+00 -0.88817841970E-15 -0.44624065185E+03  0.64161155816E+03  0.46101482861E+03 0.  0.
      99925    2    3    3    0    0 -0.11702122245E+03  0.78228413735E+01 -0.25076233420E+03  0.38158378249E+03  0.26262001342E+03 0.  0.
         25    1    4    4    0    0 -0.65562995124E+02 -0.12729086256E+02 -0.80133968962E+02  0.16287878023E+03  0.12509000000E+03 0.  0.
         25    1    4    4    0    0 -0.51458227329E+02  0.20551927629E+02 -0.17062836524E+03  0.21870500226E+03  0.12509000000E+03 0.  0.
         25    1    3    3    0    0  0.11702122245E+03 -0.78228413735E+01 -0.19547831764E+03  0.26002777567E+03  0.12509000000E+03 0.  0.
<mgrwt>
<rscale>  2 0.46101483E+03</rscale>
<asrwt>0</asrwt>
<pdfrwt beam="1">  1       21 0.14365508E-01 0.46101483E+03</pdfrwt>
<pdfrwt beam="2">  1       21 0.79989132E-01 0.46101483E+03</pdfrwt>
<totfact> 0.53597616E+04</totfact>
</mgrwt>
</event>
<event>
 7    0  0.4725730E-002  0.4559415E+03  0.7546771E-02  0.1025965E+00
         21   -1    0    0  502  501  0.00000000000E+00  0.00000000000E+00  0.67301664909E+02  0.67301664909E+02  0.00000000000E+00 0. -1.
         21   -1    0    0  501  502 -0.00000000000E+00 -0.00000000000E+00 -0.77220458679E+03  0.77220458679E+03  0.00000000000E+00 0. -1.
      99926    2    1    2    0    0  0.00000000000E+00  0.00000000000E+00 -0.70490292188E+03  0.83950625169E+03  0.45594146265E+03 0.  0.
      99925    2    3    3    0    0  0.42494432738E+02  0.85767814362E+02 -0.32793171076E+03  0.43095185274E+03  0.26271352775E+03 0.  0.
         25    1    4    4    0    0  0.32587519115E+02  0.75403552167E+02 -0.14128422991E+03  0.20580666608E+03  0.12509000000E+03 0.  0.
         25    1    4    4    0    0  0.99069136231E+01  0.10364262194E+02 -0.18664748086E+03  0.22514518666E+03  0.12509000000E+03 0.  0.
         25    1    3    3    0    0 -0.42494432738E+02 -0.85767814362E+02 -0.37697121112E+03  0.40855439895E+03  0.12509000000E+03 0.  0.
<mgrwt>
<rscale>  2 0.45594146E+03</rscale>
<asrwt>0</asrwt>
<pdfrwt beam="1">  1       21 0.98973041E-02 0.45594146E+03</pdfrwt>
<pdfrwt beam="2">  1       21 0.11355949E+00 0.45594146E+03</pdfrwt>
<totfact> 0.45574953E+04</totfact>
</mgrwt>
</event>
<event>
 7    0  0.4725730E-002  0.4585772E+03  0.7546771E-02  0.1025195E+00
         21   -1    0    0  502  501  0.00000000000E+00  0.00000000000E+00  0.43717858531E+02  0.43717858531E+02  0.00000000000E+00 0. -1.
         21   -1    0    0  501  502 -0.00000000000E+00 -0.00000000000E+00 -0.12025577742E+04  0.12025577742E+04  0.00000000000E+00 0. -1.
      99926    2    1    2    0    0  0.00000000000E+00  0.88817841970E-15 -0.11588399157E+04  0.12462756327E+04  0.45857715010E+03 0.  0.
      99925    2    3    3    0    0  0.11618000750E+03  0.75968438481E+01 -0.74006579243E+03  0.79397619588E+03  0.26295497015E+03 0.  0.
         25    1    4    4    0    0  0.71705069562E+02 -0.27538977178E+02 -0.32073974500E+03  0.35273432550E+03  0.12509000000E+03 0.  0.
         25    1    3    3    0    0 -0.11618000750E+03 -0.75968438481E+01 -0.41877412326E+03  0.45229943687E+03  0.12509000000E+03 0.  0.
         25    1    4    4    0    0  0.44474937940E+02  0.35135821026E+02 -0.41932604743E+03  0.44124187038E+03  0.12509000000E+03 0.  0.
<mgrwt>
<rscale>  2 0.45857715E+03</rscale>
<asrwt>0</asrwt>
<pdfrwt beam="1">  1       21 0.64290971E-02 0.45857715E+03</pdfrwt>
<pdfrwt beam="2">  1       21 0.17684672E+00 0.45857715E+03</pdfrwt>
<totfact> 0.29875101E+04</totfact>
</mgrwt>
</event>
<event>
 7    0  0.4725730E-002  0.4535542E+03  0.7546771E-02  0.1026667E+00
         21   -1    0    0  502  501  0.00000000000E+00  0.00000000000E+00  0.11120637523E+03  0.11120637523E+03  0.00000000000E+00 0. -1.
         21   -1    0    0  501  502 -0.00000000000E+00 -0.00000000000E+00 -0.46245417295E+03  0.46245417295E+03  0.00000000000E+00 0. -1.
      99926    2    1    2    0    0  0.00000000000E+00  0.00000000000E+00 -0.35124779772E+03  0.57366054819E+03  0.45355419647E+03 0.  0.
      99925    2    3    3    0    0  0.90332457808E+02  0.15908204638E+01 -0.13796328125E+03  0.31041109099E+03  0.26298040763E+03 0.  0.
         25    1    3    3    0    0 -0.90332457808E+02 -0.15908204638E+01 -0.21328451647E+03  0.26324945719E+03  0.12509000000E+03 0.  0.
         25    1    4    4    0    0  0.72403892628E+02 -0.28057748005E+02 -0.86647072574E+02  0.17083554717E+03  0.12509000000E+03 0.  0.
         25    1    4    4    0    0  0.17928565180E+02  0.29648568469E+02 -0.51316208675E+02  0.13957554383E+03  0.12509000000E+03 0.  0.
<mgrwt>
<rscale>  2 0.45355420E+03</rscale>
<asrwt>0</asrwt>
<pdfrwt beam="1">  1       21 0.16353879E-01 0.45355420E+03</pdfrwt>
<pdfrwt beam="2">  1       21 0.68007966E-01 0.45355420E+03</pdfrwt>
<totfact> 0.61024189E+04</totfact>
</mgrwt>
</event>
<event>
 7    0  0.4725730E-002  0.4531071E+03  0.7546771E-02  0.1026800E+00
         21   -1    0    0  502  501  0.00000000000E+00  0.00000000000E+00  0.83790357396E+03  0.83790357396E+03  0.00000000000E+00 0. -1.
         21   -1    0    0  501  502 -0.00000000000E+00 -0.00000000000E+00 -0.61255862346E+02  0.61255862346E+02  0.00000000000E+00 0. -1.
      99926    2    1    2    0    0  0.00000000000E+00  0.00000000000E+00  0.77664771161E+03  0.89915943630E+03  0.45310707779E+03 0.  0.
      99925    2    3    3    0    0 -0.40304929273E+02  0.98803471771E+02  0.42610236218E+03  0.51196934931E+03  0.26298817125E+03 0.  0.
         25    1    4    4    0    0 -0.10552366145E+02  0.63778748948E+02  0.28498429309E+03  0.31787204447E+03  0.12509000000E+03 0.  0.
         25    1    4    4    0    0 -0.29752563128E+02  0.35024722823E+02  0.14111806908E+03  0.19409730483E+03  0.12509000000E+03 0.  0.
         25    1    3    3    0    0  0.40304929273E+02 -0.98803471771E+02  0.35054534944E+03  0.38719008700E+03  0.12509000000E+03 0.  0.
<mgrwt>
<rscale>  2 0.45310708E+03</rscale>
<asrwt>0</asrwt>
<pdfrwt beam="1">  1       21 0.12322111E+00 0.45310708E+03</pdfrwt>
<pdfrwt beam="2">  1       21 0.90082155E-02 0.45310708E+03</pdfrwt>
<totfact> 0.43917328E+04</totfact>
</mgrwt>
</event>
<event>
 7    0  0.4725730E-002  0.4496044E+03  0.7546771E-02  0.1027840E+00
         21   -1    0    0  502  501  0.00000000000E+00  0.00000000000E+00  0.96762837789E+03  0.96762837789E+03  0.00000000000E+00 0. -1.
         21   -1    0    0  501  502 -0.00000000000E+00 -0.00000000000E+00 -0.52226703326E+02  0.52226703326E+02  0.00000000000E+00 0. -1.
      99926    2    1    2    0    0  0.00000000000E+00  0.00000000000E+00  0.91540167456E+03  0.10198550812E+04  0.44960444936E+03 0.  0.
      99925    2    3    3    0    0  0.60247212111E+02  0.75158883998E+02  0.46807757815E+03  0.54548714412E+03  0.26302285228E+03 0.  0.
         25    1    3    3    0    0 -0.60247212111E+02 -0.75158883998E+02  0.44732409641E+03  0.47436793709E+03  0.12509000000E+03 0.  0.
         25    1    4    4    0    0  0.32455941703E+01  0.20906018796E+02  0.27032267273E+03  0.29861254326E+03  0.12509000000E+03 0.  0.
         25    1    4    4    0    0  0.57001617940E+02  0.54252865201E+02  0.19775490542E+03  0.24687460086E+03  0.12509000000E+03 0.  0.
<mgrwt>
<rscale>  2 0.44960445E+03</rscale>
<asrwt>0</asrwt>
<pdfrwt beam="1">  1       21 0.14229828E+00 0.44960445E+03</pdfrwt>
<pdfrwt beam="2">  1       21 0.76803982E-02 0.44960445E+03</pdfrwt>
<totfact> 0.40064681E+04</totfact>
</mgrwt>
</event>
<event>
 7    0  0.4725730E-002  0.4482811E+03  0.7546771E-02  0.1028236E+00
         21   -1    0    0  502  501  0.00000000000E+00  0.00000000000E+00  0.45697100571E+03  0.45697100571E+03  0.00000000000E+00 0. -1.
         21   -1    0    0  501  502 -0.00000000000E+00 -0.00000000000E+00 -0.10993911679E+03  0.10993911679E+03  0.00000000000E+00 0. -1.
      99926    2    1    2    0    0 -0.71054273576E-14  0.00000000000E+00  0.34703188892E+03  0.56691012250E+03  0.44828111165E+03 0.  0.
      99925    2    3    3    0    0 -0.22863234635E+02 -0.26608624896E+02  0.34717829042E+03  0.43699370340E+03  0.26305890036E+03 0.  0.
         25    1    4    4    0    0  0.26447641723E+02 -0.14893681764E+02  0.14484250833E+03  0.19377347555E+03  0.12509000000E+03 0.  0.
         25    1    3    3    0    0  0.22863234635E+02  0.26608624896E+02 -0.14640150191E+00  0.12991641909E+03  0.12509000000E+03 0.  0.
         25    1    4    4    0    0 -0.49310876358E+02 -0.11714943132E+02  0.20233578209E+03  0.24322022785E+03  0.12509000000E+03 0.  0.
<mgrwt>
<rscale>  2 0.44828111E+03</rscale>
<asrwt>0</asrwt>
<pdfrwt beam="1">  1       21 0.67201618E-01 0.44828111E+03</pdfrwt>
<pdfrwt beam="2">  1       21 0.16167517E-01 0.44828111E+03</pdfrwt>
<totfact> 0.64101467E+04</totfact>
</mgrwt>
</event>
<event>
 7    0  0.4725730E-002  0.4488570E+03  0.7546771E-02  0.1028063E+00
         21   -1    0    0  502  501  0.00000000000E+00  0.00000000000E+00  0.35643910333E+02  0.35643910333E+02  0.00000000000E+00 0. -1.
         21   -1    0    0  501  502 -0.00000000000E+00 -0.00000000000E+00 -0.14130925700E+04  0.14130925700E+04  0.00000000000E+00 0. -1.
      99926    2    1    2    0    0 -0.35527136788E-14  0.00000000000E+00 -0.13774486596E+04  0.14487364803E+04  0.44885696989E+03 0.  0.
      99925    2    3    3    0    0  0.29190216985E+02  0.64124006789E+02 -0.61047255028E+03  0.66843921807E+03  0.26300246501E+03 0.  0.
         25    1    4    4    0    0  0.34498987352E+02  0.35179523693E+02 -0.22495926612E+03  0.26207242993E+03  0.12509000000E+03 0.  0.
         25    1    4    4    0    0 -0.53087703676E+01  0.28944483095E+02 -0.38551328416E+03  0.40636678815E+03  0.12509000000E+03 0.  0.
         25    1    3    3    0    0 -0.29190216985E+02 -0.64124006789E+02 -0.76697610934E+03  0.78029726221E+03  0.12509000000E+03 0.  0.
<mgrwt>
<rscale>  2 0.44885697E+03</rscale>
<asrwt>0</asrwt>
<pdfrwt beam="1">  1       21 0.52417507E-02 0.44885697E+03</pdfrwt>
<pdfrwt beam="2">  1       21 0.20780776E+00 0.44885697E+03</pdfrwt>
<totfact> 0.26294493E+04</totfact>
</mgrwt>
</event>
<event>
 7    0  0.4725730E-002  0.4563621E+03  0.7546771E-02  0.1025842E+00
         21   -1    0    0  502  501  0.00000000000E+00  0.00000000000E+00  0.11455016649E+04  0.11455016649E+04  0.00000000000E+00 0. -1.
         21   -1    0    0  501  502 -0.00000000000E+00 -0.00000000000E+00 -0.45453089465E+02  0.45453089465E+02  0.00000000000E+00 0. -1.
      99926    2    1    2    0    0  0.00000000000E+00  0.14210854715E-13  0.11000485755E+04  0.11909547544E+04  0.45636209158E+03 0.  0.
      99925    2    3    3    0    0  0.37494539944E+02 -0.97998280340E+02  0.81081123862E+03  0.85881736024E+03  0.26295035670E+03 0.  0.
         25    1    4    4    0    0  0.26809902426E+02 -0.20535999407E+02  0.46817791346E+03  0.48577624982E+03  0.12509000000E+03 0.  0.
         25    1    4    4    0    0  0.10684637518E+02 -0.77462280933E+02  0.34263332517E+03  0.37304111042E+03  0.12509000000E+03 0.  0.
         25    1    3    3    0    0 -0.37494539944E+02  0.97998280340E+02  0.28923733684E+03  0.33213739416E+03  0.12509000000E+03 0.  0.
<mgrwt>
<rscale>  2 0.45636209E+03</rscale>
<asrwt>0</asrwt>
<pdfrwt beam="1">  1       21 0.16845611E+00 0.45636209E+03</pdfrwt>
<pdfrwt beam="2">  1       21 0.66842786E-02 0.45636209E+03</pdfrwt>
<totfact> 0.32101944E+04</totfact>
</mgrwt>
</event>
<event>
 7    0  0.4725730E-002  0.4556898E+03  0.7546771E-02  0.1026039E+00
         21   -1    0    0  502  501  0.00000000000E+00  0.00000000000E+00  0.80758403039E+03  0.80758403039E+03  0.00000000000E+00 0. -1.
         21   -1    0    0  501  502 -0.00000000000E+00 -0.00000000000E+00 -0.64282229730E+02  0.64282229730E+02  0.00000000000E+00 0. -1.
      99926    2    1    2    0    0  0.17763568394E-14  0.00000000000E+00  0.74330180066E+03  0.87186626012E+03  0.45568981629E+03 0.  0.
      99925    2    3    3    0    0 -0.87297336030E+01  0.93153833975E+02  0.59150124502E+03  0.65404807487E+03  0.26296637874E+03 0.  0.
         25    1    4    4    0    0  0.21459312892E+02  0.43515060907E+02  0.21898962519E+03  0.25682294811E+03  0.12509000000E+03 0.  0.
         25    1    3    3    0    0  0.87297336030E+01 -0.93153833975E+02  0.15180055564E+03  0.21781818525E+03  0.12509000000E+03 0.  0.
         25    1    4    4    0    0 -0.30189046495E+02  0.49638773069E+02  0.37251161983E+03  0.39722512676E+03  0.12509000000E+03 0.  0.
<mgrwt>
<rscale>  2 0.45568982E+03</rscale>
<asrwt>0</asrwt>
<pdfrwt beam="1">  1       21 0.11876235E+00 0.45568982E+03</pdfrwt>
<pdfrwt beam="2">  1       21 0.94532696E-02 0.45568982E+03</pdfrwt>
<totfact> 0.44232980E+04</totfact>
</mgrwt>
</event>
<event>
 7    0  0.4725730E-002  0.4526426E+03  0.7546771E-02  0.1026937E+00
         21   -1    0    0  502  501  0.00000000000E+00  0.00000000000E+00  0.86992396769E+03  0.86992396769E+03  0.00000000000E+00 0.  1.
         21   -1    0    0  501  502 -0.00000000000E+00 -0.00000000000E+00 -0.58880229366E+02  0.58880229366E+02  0.00000000000E+00 0.  1.
      99926    2    1    2    0    0  0.00000000000E+00  0.00000000000E+00  0.81104373832E+03  0.92880419706E+03  0.45264256428E+03 0.  0.
      99925    2    3    3    0    0 -0.48217623122E+02  0.77177875188E+02  0.38131556623E+03  0.47208199091E+03  0.26301802503E+03 0.  0.
         25    1    4    4    0    0 -0.51519509185E+02  0.35227137847E+02  0.24674567045E+03  0.28359503707E+03  0.12509000000E+03 0.  0.
         25    1    4    4    0    0  0.33018860636E+01  0.41950737341E+02  0.13456989578E+03  0.18848695383E+03  0.12509000000E+03 0.  0.
         25    1    3    3    0    0  0.48217623122E+02 -0.77177875188E+02  0.42972817209E+03  0.45672220615E+03  0.12509000000E+03 0.  0.
<mgrwt>
<rscale>  2 0.45264256E+03</rscale>
<asrwt>0</asrwt>
<pdfrwt beam="1">  1       21 0.12792999E+00 0.45264256E+03</pdfrwt>
<pdfrwt beam="2">  1       21 0.86588578E-02 0.45264256E+03</pdfrwt>
<totfact> 0.42794908E+04</totfact>
</mgrwt>
</event>
<event>
 7    0  0.4725730E-002  0.4525323E+03  0.7546771E-02  0.1026970E+00
         21   -1    0    0  502  501  0.00000000000E+00  0.00000000000E+00  0.15300902091E+04  0.15300902091E+04  0.00000000000E+00 0. -1.
         21   -1    0    0  501  502 -0.00000000000E+00 -0.00000000000E+00 -0.33459703724E+02  0.33459703724E+02  0.00000000000E+00 0. -1.
      99926    2    1    2    0    0  0.00000000000E+00  0.00000000000E+00  0.14966305054E+04  0.15635499128E+04  0.45253227539E+03 0.  0.
      99925    2    3    3    0    0  0.77695534113E+02  0.77673430092E+02  0.99450681055E+03  0.10345456872E+04  0.26300422969E+03 0.  0.
         25    1    3    3    0    0 -0.77695534113E+02 -0.77673430092E+02  0.50212369484E+03  0.52900422567E+03  0.12509000000E+03 0.  0.
         25    1    4    4    0    0  0.36899609383E+02  0.49264754157E+02  0.36296694269E+03  0.38882014706E+03  0.12509000000E+03 0.  0.
         25    1    4    4    0    0  0.40795924730E+02  0.28408675935E+02  0.63153986786E+03  0.64572554010E+03  0.12509000000E+03 0.  0.
<mgrwt>
<rscale>  2 0.45253228E+03</rscale>
<asrwt>0</asrwt>
<pdfrwt beam="1">  1       21 0.22501322E+00 0.45253228E+03</pdfrwt>
<pdfrwt beam="2">  1       21 0.49205457E-02 0.45253228E+03</pdfrwt>
<totfact> 0.22695593E+04</totfact>
</mgrwt>
</event>
<event>
 6    0  0.4725730E-002  0.4530949E+03  0.7546771E-02  0.1026803E+00
         21   -1    0    0  502  501  0.00000000000E+00  0.00000000000E+00  0.34319242225E+03  0.34319242225E+03  0.00000000000E+00 0. -1.
         21   -1    0    0  501  502 -0.00000000000E+00 -0.00000000000E+00 -0.14954802957E+03  0.14954802957E+03  0.00000000000E+00 0. -1.
      99926    2    1    2    0    0  0.14210854715E-13  0.00000000000E+00  0.19364439268E+03  0.49274045183E+03  0.45309491505E+03 0.  0.
         25    1    3    3    0    0  0.93375672671E+02 -0.27604885309E+02  0.12351804118E+03  0.20096084329E+03  0.12509000000E+03 0.  0.
         25    1    3    3    0    0 -0.73703760200E+02 -0.22625476668E+02  0.39388521059E+02  0.15212863029E+03  0.12509000000E+03 0.  0.
         25    1    3    3    0    0 -0.19671912471E+02  0.50230361978E+02  0.30737830444E+02  0.13965097825E+03  0.12509000000E+03 0.  0.
<mgrwt>
<rscale>  2 0.45309492E+03</rscale>
<asrwt>0</asrwt>
<pdfrwt beam="1">  1       21 0.50469474E-01 0.45309492E+03</pdfrwt>
<pdfrwt beam="2">  1       21 0.21992357E-01 0.45309492E+03</pdfrwt>
<totfact> 0.66788114E+04</totfact>
</mgrwt>
</event>
<event>
 7    0  0.4725730E-002  0.4578051E+03  0.7546771E-02  0.1025420E+00
         21   -1    0    0  502  501  0.00000000000E+00  0.00000000000E+00  0.18889866605E+04  0.18889866605E+04  0.00000000000E+00 0. -1.
         21   -1    0    0  501  502 -0.00000000000E+00 -0.00000000000E+00 -0.27737820772E+02  0.27737820772E+02  0.00000000000E+00 0. -1.
      99926    2    1    2    0    0  0.00000000000E+00  0.35527136788E-14  0.18612488397E+04  0.19167244813E+04  0.45780508267E+03 0.  0.
      99925    2    3    3    0    0 -0.78255618779E+02  0.25233479791E+02  0.15095154032E+04  0.15344620206E+04  0.26301382048E+03 0.  0.
         25    1    4    4    0    0 -0.31126372278E+02  0.35291887096E+02  0.57167297023E+03  0.58708760960E+03  0.12509000000E+03 0.  0.
         25    1    3    3    0    0  0.78255618779E+02 -0.25233479791E+02  0.35173343648E+03  0.38226246063E+03  0.12509000000E+03 0.  0.
         25    1    4    4    0    0 -0.47129246501E+02 -0.10058407305E+02  0.93784243300E+03  0.94737441103E+03  0.12509000000E+03 0.  0.
<mgrwt>
<rscale>  2 0.45780508E+03</rscale>
<asrwt>0</asrwt>
<pdfrwt beam="1">  1       21 0.27779207E+00 0.45780508E+03</pdfrwt>
<pdfrwt beam="2">  1       21 0.40790926E-02 0.45780508E+03</pdfrwt>
<totfact> 0.14792710E+04</totfact>
</mgrwt>
</event>
<event>
 7    0  0.4725730E-002  0.4461790E+03  0.7546771E-02  0.1028868E+00
         21   -1    0    0  502  501  0.00000000000E+00  0.00000000000E+00  0.24733578907E+03  0.24733578907E+03  0.00000000000E+00 0. -1.
         21   -1    0    0  501  502 -0.00000000000E+00 -0.00000000000E+00 -0.20122007570E+03  0.20122007570E+03  0.00000000000E+00 0. -1.
      99926    2    1    2    0    0 -0.17763568394E-14  0.00000000000E+00  0.46115713369E+02  0.44855586477E+03  0.44617900533E+03 0.  0.
      99925    2    3    3    0    0  0.50248523545E+01  0.94153466076E+02 -0.16747651273E+02  0.27976772825E+03  0.26286759715E+03 0.  0.
         25    1    3    3    0    0 -0.50248523545E+01 -0.94153466076E+02  0.62863364641E+02  0.16878813652E+03  0.12509000000E+03 0.  0.
         25    1    4    4    0    0 -0.17729813152E+02  0.30414277922E+02 -0.39307931494E+02  0.13576448782E+03  0.12509000000E+03 0.  0.
         25    1    4    4    0    0  0.22754665506E+02  0.63739188154E+02  0.22560280222E+02  0.14400324042E+03  0.12509000000E+03 0.  0.
<mgrwt>
<rscale>  2 0.44617901E+03</rscale>
<asrwt>0</asrwt>
<pdfrwt beam="1">  1       21 0.36372911E-01 0.44617901E+03</pdfrwt>
<pdfrwt beam="2">  1       21 0.29591187E-01 0.44617901E+03</pdfrwt>
<totfact> 0.74099782E+04</totfact>
</mgrwt>
</event>
<event>
 6    0  0.4819909E-002  0.4458064E+03  0.7546771E-02  0.1028980E+00
         21   -1    0    0  502  501  0.00000000000E+00  0.00000000000E+00  0.11356489121E+03  0.11356489121E+03  0.00000000000E+00 0. -1.
         21   -1    0    0  501  502 -0.00000000000E+00 -0.00000000000E+00 -0.43751051014E+03  0.43751051014E+03  0.00000000000E+00 0. -1.
      99926    2    1    2    0    0 -0.71054273576E-14  0.00000000000E+00 -0.32394561893E+03  0.55107540135E+03  0.44580638617E+03 0.  0.
         25    1    3    3    0    0 -0.48792944569E+01  0.21502660891E+02 -0.70718226091E+02  0.14537794723E+03  0.12509000000E+03 0.  0.
         25    1    3    3    0    0  0.41709947436E+02  0.45159288926E+02 -0.21171747055E+03  0.25347756612E+03  0.12509000000E+03 0.  0.
         25    1    3    3    0    0 -0.36830652980E+02 -0.66661949817E+02 -0.41509922283E+02  0.15221988799E+03  0.12509000000E+03 0.  0.
<mgrwt>
<rscale>  2 0.44580639E+03</rscale>
<asrwt>0</asrwt>
<pdfrwt beam="1">  1       21 0.16700719E-01 0.44580639E+03</pdfrwt>
<pdfrwt beam="2">  1       21 0.64339780E-01 0.44580639E+03</pdfrwt>
<totfact> 0.66502210E+04</totfact>
</mgrwt>
</event>
<event>
 7    0  0.4725730E-002  0.4581354E+03  0.7546771E-02  0.1025323E+00
         21   -1    0    0  502  501  0.00000000000E+00  0.00000000000E+00  0.72082326893E+03  0.72082326893E+03  0.00000000000E+00 0.  1.
         21   -1    0    0  501  502 -0.00000000000E+00 -0.00000000000E+00 -0.72794564070E+02  0.72794564070E+02  0.00000000000E+00 0.  1.
      99926    2    1    2    0    0  0.35527136788E-14  0.00000000000E+00  0.64802870486E+03  0.79361783300E+03  0.45813541943E+03 0.  0.
      99925    2    3    3    0    0 -0.17544811294E+02 -0.80547857665E+02  0.26518327454E+03  0.38250482008E+03  0.26304370456E+03 0.  0.
         25    1    4    4    0    0 -0.45569913621E+02 -0.54678714198E+02  0.15482725717E+03  0.21138913519E+03  0.12509000000E+03 0.  0.
         25    1    3    3    0    0  0.17544811294E+02  0.80547857665E+02  0.38284543032E+03  0.41111301293E+03  0.12509000000E+03 0.  0.
         25    1    4    4    0    0  0.28025102327E+02 -0.25869143467E+02  0.11035601737E+03  0.17111568488E+03  0.12509000000E+03 0.  0.
<mgrwt>
<rscale>  2 0.45813542E+03</rscale>
<asrwt>0</asrwt>
<pdfrwt beam="1">  1       21 0.10600342E+00 0.45813542E+03</pdfrwt>
<pdfrwt beam="2">  1       21 0.10705083E-01 0.45813542E+03</pdfrwt>
<totfact> 0.46910041E+04</totfact>
</mgrwt>
</event>
<event>
 7    0  0.4725730E-002  0.4400004E+03  0.7546771E-02  0.1030747E+00
         21   -1    0    0  502  501  0.00000000000E+00  0.00000000000E+00  0.54578048109E+03  0.54578048109E+03  0.00000000000E+00 0. -1.
         21   -1    0    0  501  502 -0.00000000000E+00 -0.00000000000E+00 -0.88680507680E+02  0.88680507680E+02  0.00000000000E+00 0. -1.
      99926    2    1    2    0    0  0.00000000000E+00  0.71054273576E-14  0.45709997341E+03  0.63446098877E+03  0.44000040975E+03 0.  0.
      99925    2    3    3    0    0  0.31354585414E+02  0.40688534268E+02  0.41293275773E+03  0.49220446735E+03  0.26289372077E+03 0.  0.
         25    1    4    4    0    0  0.18248290417E+02  0.61069188436E+02  0.22157252021E+03  0.26230580568E+03  0.12509000000E+03 0.  0.
         25    1    4    4    0    0  0.13106294997E+02 -0.20380654168E+02  0.19136023752E+03  0.22989866167E+03  0.12509000000E+03 0.  0.
         25    1    3    3    0    0 -0.31354585414E+02 -0.40688534268E+02  0.44167215681E+02  0.14225652143E+03  0.12509000000E+03 0.  0.
<mgrwt>
<rscale>  2 0.44000041E+03</rscale>
<asrwt>0</asrwt>
<pdfrwt beam="1">  1       21 0.80261834E-01 0.44000041E+03</pdfrwt>
<pdfrwt beam="2">  1       21 0.13041251E-01 0.44000041E+03</pdfrwt>
<totfact> 0.63833083E+04</totfact>
</mgrwt>
</event>
<event>
 7    0  0.4725730E-002  0.4560653E+03  0.7546771E-02  0.1025929E+00
         21   -1    0    0  502  501  0.00000000000E+00  0.00000000000E+00  0.20655392213E+03  0.20655392213E+03  0.00000000000E+00 0. -1.
         21   -1    0    0  501  502 -0.00000000000E+00 -0.00000000000E+00 -0.25174486159E+03  0.25174486159E+03  0.00000000000E+00 0. -1.
      99926    2    1    2    0    0  0.00000000000E+00  0.00000000000E+00 -0.45190939461E+02  0.45829878373E+03  0.45606529593E+03 0.  0.
      99925    2    3    3    0    0  0.92078430798E+02  0.26902722145E+02 -0.90806144407E+02  0.29419379020E+03  0.26287266205E+03 0.  0.
         25    1    4    4    0    0  0.16047944173E+02  0.80844565791E+01 -0.12156733696E+02  0.12695743076E+03  0.12509000000E+03 0.  0.
         25    1    4    4    0    0  0.76030486626E+02  0.18818265566E+02 -0.78649410712E+02  0.16723635945E+03  0.12509000000E+03 0.  0.
         25    1    3    3    0    0 -0.92078430798E+02 -0.26902722145E+02  0.45615204946E+02  0.16410499352E+03  0.12509000000E+03 0.  0.
<mgrwt>
<rscale>  2 0.45606530E+03</rscale>
<asrwt>0</asrwt>
<pdfrwt beam="1">  1       21 0.30375577E-01 0.45606530E+03</pdfrwt>
<pdfrwt beam="2">  1       21 0.37021303E-01 0.45606530E+03</pdfrwt>
<totfact> 0.67727309E+04</totfact>
</mgrwt>
</event>
<event>
 7    0  0.4725730E-002  0.4461503E+03  0.7546771E-02  0.1028876E+00
         21   -1    0    0  502  501  0.00000000000E+00  0.00000000000E+00  0.23807198619E+03  0.23807198619E+03  0.00000000000E+00 0.  1.
         21   -1    0    0  501  502 -0.00000000000E+00 -0.00000000000E+00 -0.20902298351E+03  0.20902298351E+03  0.00000000000E+00 0.  1.
      99926    2    1    2    0    0  0.00000000000E+00  0.00000000000E+00  0.29049002687E+02  0.44709496970E+03  0.44615027443E+03 0.  0.
      99925    2    3    3    0    0  0.48783542255E+02  0.30990890526E+02 -0.69107579781E+02  0.27791313831E+03  0.26290603943E+03 0.  0.
         25    1    4    4    0    0  0.51341458584E+02  0.20171134657E+02 -0.47391242826E+01  0.13679469084E+03  0.12509000000E+03 0.  0.
         25    1    4    4    0    0 -0.25579163287E+01  0.10819755869E+02 -0.64368455498E+02  0.14111844747E+03  0.12509000000E+03 0.  0.
         25    1    3    3    0    0 -0.48783542255E+02 -0.30990890526E+02  0.98156582467E+02  0.16918183139E+03  0.12509000000E+03 0.  0.
<mgrwt>
<rscale>  2 0.44615027E+03</rscale>
<asrwt>0</asrwt>
<pdfrwt beam="1">  1       21 0.35010586E-01 0.44615027E+03</pdfrwt>
<pdfrwt beam="2">  1       21 0.30738674E-01 0.44615027E+03</pdfrwt>
<totfact> 0.74233663E+04</totfact>
</mgrwt>
</event>
<event>
 7    0  0.4725730E-002  0.4580679E+03  0.7546771E-02  0.1025343E+00
         21   -1    0    0  502  501  0.00000000000E+00  0.00000000000E+00  0.86764584283E+02  0.86764584283E+02  0.00000000000E+00 0.  1.
         21   -1    0    0  501  502 -0.00000000000E+00 -0.00000000000E+00 -0.60458473789E+03  0.60458473789E+03  0.00000000000E+00 0.  1.
      99926    2    1    2    0    0  0.00000000000E+00  0.26645352591E-14 -0.51782015361E+03  0.69134932217E+03  0.45806787029E+03 0.  0.
      99925    2    3    3    0    0  0.94626789992E+02  0.57953037118E+01 -0.42604057768E+03  0.50952849392E+03  0.26290853420E+03 0.  0.
         25    1    4    4    0    0  0.45690882545E+02  0.29033970668E+02 -0.26911231763E+03  0.30166135947E+03  0.12509000000E+03 0.  0.
         25    1    3    3    0    0 -0.94626789992E+02 -0.57953037118E+01 -0.91779575922E+02  0.18182082825E+03  0.12509000000E+03 0.  0.
         25    1    4    4    0    0  0.48935907447E+02 -0.23238666956E+02 -0.15692826006E+03  0.20786713445E+03  0.12509000000E+03 0.  0.
<mgrwt>
<rscale>  2 0.45806787E+03</rscale>
<asrwt>0</asrwt>
<pdfrwt beam="1">  1       21 0.12759498E-01 0.45806787E+03</pdfrwt>
<pdfrwt beam="2">  1       21 0.88909519E-01 0.45806787E+03</pdfrwt>
<totfact> 0.52105464E+04</totfact>
</mgrwt>
</event>
<event>
 7    0  0.4725730E-002  0.4314963E+03  0.7546771E-02  0.1033388E+00
         21   -1    0    0  502  501  0.00000000000E+00  0.00000000000E+00  0.11657268987E+04  0.11657268987E+04  0.00000000000E+00 0. -1.
         21   -1    0    0  501  502 -0.00000000000E+00 -0.00000000000E+00 -0.39929812308E+02  0.39929812308E+02  0.00000000000E+00 0. -1.
      99926    2    1    2    0    0  0.14210854715E-13  0.00000000000E+00  0.11257970864E+04  0.12056567110E+04  0.43149626310E+03 0.  0.
      99925    2    3    3    0    0  0.75166635347E+02  0.41615328639E+02  0.65556163798E+03  0.71154058732E+03  0.26295833807E+03 0.  0.
         25    1    4    4    0    0  0.79359527603E+02  0.26802710704E+02  0.36418642482E+03  0.39407560194E+03  0.12509000000E+03 0.  0.
         25    1    3    3    0    0 -0.75166635347E+02 -0.41615328639E+02  0.47023544839E+03  0.49411612367E+03  0.12509000000E+03 0.  0.
         25    1    4    4    0    0 -0.41928922558E+01  0.14812617935E+02  0.29137521317E+03  0.31746498538E+03  0.12509000000E+03 0.  0.
<mgrwt>
<rscale>  2 0.43149626E+03</rscale>
<asrwt>0</asrwt>
<pdfrwt beam="1">  1       21 0.17143040E+00 0.43149626E+03</pdfrwt>
<pdfrwt beam="2">  1       21 0.58720320E-02 0.43149626E+03</pdfrwt>
<totfact> 0.38567788E+04</totfact>
</mgrwt>
</event>
<event>
 7    0  0.4725730E-002  0.4547178E+03  0.7546771E-02  0.1026324E+00
         21   -1    0    0  502  501  0.00000000000E+00  0.00000000000E+00  0.26487819622E+03  0.26487819622E+03  0.00000000000E+00 0.  1.
         21   -1    0    0  501  502 -0.00000000000E+00 -0.00000000000E+00 -0.19515412159E+03  0.19515412159E+03  0.00000000000E+00 0.  1.
      99926    2    1    2    0    0  0.35527136788E-14  0.00000000000E+00  0.69724074626E+02  0.46003231781E+03  0.45471781012E+03 0.  0.
      99925    2    3    3    0    0 -0.21775350123E+02 -0.11105548758E+03  0.50399791602E+02  0.29024296829E+03  0.26247543591E+03 0.  0.
         25    1    4    4    0    0 -0.44903195303E+02 -0.76242426834E+02  0.16776513683E+02  0.15413683567E+03  0.12509000000E+03 0.  0.
         25    1    4    4    0    0  0.23127845180E+02 -0.34813060741E+02  0.33623277919E+02  0.13610613263E+03  0.12509000000E+03 0.  0.
         25    1    3    3    0    0  0.21775350123E+02  0.11105548758E+03  0.19324283024E+02  0.16978934951E+03  0.12509000000E+03 0.  0.
<mgrwt>
<rscale>  2 0.45471781E+03</rscale>
<asrwt>0</asrwt>
<pdfrwt beam="1">  1       21 0.38952676E-01 0.45471781E+03</pdfrwt>
<pdfrwt beam="2">  1       21 0.28699135E-01 0.45471781E+03</pdfrwt>
<totfact> 0.68331846E+04</totfact>
</mgrwt>
</event>
<event>
 7    0  0.4725730E-002  0.4666533E+03  0.7546771E-02  0.1022869E+00
         21   -1    0    0  502  501  0.00000000000E+00  0.00000000000E+00  0.22840310013E+03  0.22840310013E+03  0.00000000000E+00 0.  1.
         21   -1    0    0  501  502 -0.00000000000E+00 -0.00000000000E+00 -0.23835629721E+03  0.23835629721E+03  0.00000000000E+00 0.  1.
      99926    2    1    2    0    0 -0.14210854715E-13  0.00000000000E+00 -0.99531970768E+01  0.46675939734E+03  0.46665326408E+03 0.  0.
      99925    2    3    3    0    0  0.10923076125E+03  0.28207758517E+02 -0.57706957489E+02  0.29167379948E+03  0.26270986947E+03 0.  0.
         25    1    4    4    0    0  0.94804179369E+02  0.28991137729E+02 -0.39665276849E+02  0.16446629071E+03  0.12509000000E+03 0.  0.
         25    1    4    4    0    0  0.14426581877E+02 -0.78337921236E+00 -0.18041680640E+02  0.12720750877E+03  0.12509000000E+03 0.  0.
         25    1    3    3    0    0 -0.10923076125E+03 -0.28207758517E+02  0.47753760413E+02  0.17508559786E+03  0.12509000000E+03 0.  0.
<mgrwt>
<rscale>  2 0.46665326E+03</rscale>
<asrwt>0</asrwt>
<pdfrwt beam="1">  1       21 0.33588691E-01 0.46665326E+03</pdfrwt>
<pdfrwt beam="2">  1       21 0.35052397E-01 0.46665326E+03</pdfrwt>
<totfact> 0.61748498E+04</totfact>
</mgrwt>
</event>
<event>
 7    0  0.4725730E-002  0.4499494E+03  0.7546771E-02  0.1027737E+00
         21   -1    0    0  502  501  0.00000000000E+00  0.00000000000E+00  0.48299574443E+03  0.48299574443E+03  0.00000000000E+00 0. -1.
         21   -1    0    0  501  502 -0.00000000000E+00 -0.00000000000E+00 -0.10479100045E+03  0.10479100045E+03  0.00000000000E+00 0. -1.
      99926    2    1    2    0    0  0.00000000000E+00  0.35527136788E-14  0.37820474398E+03  0.58778674488E+03  0.44994936281E+03 0.  0.
      99925    2    3    3    0    0  0.68943192449E+02 -0.23826815935E+02  0.13440378457E+03  0.30422494060E+03  0.26299725518E+03 0.  0.
         25    1    4    4    0    0  0.69057314096E+02 -0.35578078259E+02  0.74986198825E+02  0.16524270149E+03  0.12509000000E+03 0.  0.
         25    1    4    4    0    0 -0.11412164678E+00  0.11751262324E+02  0.59417585745E+02  0.13898223910E+03  0.12509000000E+03 0.  0.
         25    1    3    3    0    0 -0.68943192449E+02  0.23826815935E+02  0.24380095941E+03  0.28356180429E+03  0.12509000000E+03 0.  0.
<mgrwt>
<rscale>  2 0.44994936E+03</rscale>
<asrwt>0</asrwt>
<pdfrwt beam="1">  1       21 0.71028785E-01 0.44994936E+03</pdfrwt>
<pdfrwt beam="2">  1       21 0.15410441E-01 0.44994936E+03</pdfrwt>
<totfact> 0.61869446E+04</totfact>
</mgrwt>
</event>
<event>
 7    0  0.4725730E-002  0.4596067E+03  0.7546771E-02  0.1024895E+00
         21   -1    0    0  502  501  0.00000000000E+00  0.00000000000E+00  0.34842996889E+03  0.34842996889E+03  0.00000000000E+00 0.  1.
         21   -1    0    0  501  502 -0.00000000000E+00 -0.00000000000E+00 -0.15156442565E+03  0.15156442565E+03  0.00000000000E+00 0.  1.
      99926    2    1    2    0    0  0.00000000000E+00  0.00000000000E+00  0.19686554324E+03  0.49999439454E+03  0.45960673673E+03 0.  0.
      99925    2    3    3    0    0  0.33049246826E+02  0.96315711241E+02  0.59799053244E+02  0.28832555005E+03  0.26303369954E+03 0.  0.
         25    1    4    4    0    0  0.34516378132E+01  0.21484361840E+02  0.57968006320E+02  0.13957538989E+03  0.12509000000E+03 0.  0.
         25    1    4    4    0    0  0.29597609013E+02  0.74831349401E+02  0.18310469237E+01  0.14875016015E+03  0.12509000000E+03 0.  0.
         25    1    3    3    0    0 -0.33049246826E+02 -0.96315711241E+02  0.13706649000E+03  0.21166884449E+03  0.12509000000E+03 0.  0.
<mgrwt>
<rscale>  2 0.45960674E+03</rscale>
<asrwt>0</asrwt>
<pdfrwt beam="1">  1       21 0.51239701E-01 0.45960674E+03</pdfrwt>
<pdfrwt beam="2">  1       21 0.22288886E-01 0.45960674E+03</pdfrwt>
<totfact> 0.62937750E+04</totfact>
</mgrwt>
</event>
<event>
 7    0  0.4725730E-002  0.4581707E+03  0.7546771E-02  0.1025313E+00
         21   -1    0    0  502  501  0.00000000000E+00  0.00000000000E+00  0.10391146761E+03  0.10391146761E+03  0.00000000000E+00 0.  1.
         21   -1    0    0  501  502 -0.00000000000E+00 -0.00000000000E+00 -0.50504617032E+03  0.50504617032E+03  0.00000000000E+00 0.  1.
      99926    2    1    2    0    0  0.71054273576E-14 -0.14210854715E-13 -0.40113470271E+03  0.60895763793E+03  0.45817066152E+03 0.  0.
      99925    2    3    3    0    0 -0.51953546327E+02  0.98793346256E+02 -0.20904744179E+03  0.35399818988E+03  0.26297260177E+03 0.  0.
         25    1    4    4    0    0  0.56411549578E+01  0.50078791864E+02 -0.13259617718E+03  0.18912684190E+03  0.12509000000E+03 0.  0.
         25    1    3    3    0    0  0.51953546327E+02 -0.98793346256E+02 -0.19208726091E+03  0.25495944804E+03  0.12509000000E+03 0.  0.
         25    1    4    4    0    0 -0.57594701285E+02  0.48714554392E+02 -0.76451264609E+02  0.16487134798E+03  0.12509000000E+03 0.  0.
<mgrwt>
<rscale>  2 0.45817066E+03</rscale>
<asrwt>0</asrwt>
<pdfrwt beam="1">  1       21 0.15281098E-01 0.45817066E+03</pdfrwt>
<pdfrwt beam="2">  1       21 0.74271494E-01 0.45817066E+03</pdfrwt>
<totfact> 0.56696833E+04</totfact>
</mgrwt>
</event>
<event>
 7    0  0.4725730E-002  0.4484707E+03  0.7546771E-02  0.1028179E+00
         21   -1    0    0  502  501  0.00000000000E+00  0.00000000000E+00  0.29836930872E+03  0.29836930872E+03  0.00000000000E+00 0. -1.
         21   -1    0    0  501  502 -0.00000000000E+00 -0.00000000000E+00 -0.16852100598E+03  0.16852100598E+03  0.00000000000E+00 0. -1.
      99926    2    1    2    0    0  0.00000000000E+00  0.00000000000E+00  0.12984830274E+03  0.46689031470E+03  0.44847071726E+03 0.  0.
      99925    2    3    3    0    0 -0.87803540055E+02 -0.51007253372E+02  0.47171028985E+02  0.28579851136E+03  0.26295338290E+03 0.  0.
         25    1    3    3    0    0  0.87803540055E+02  0.51007253372E+02  0.82677273755E+02  0.18109180334E+03  0.12509000000E+03 0.  0.
         25    1    4    4    0    0 -0.18257884446E+02 -0.55004720505E+02  0.12141878230E+02  0.13839726489E+03  0.12509000000E+03 0.  0.
         25    1    4    4    0    0 -0.69545655609E+02  0.39974671332E+01  0.35029150756E+02  0.14740124647E+03  0.12509000000E+03 0.  0.
<mgrwt>
<rscale>  2 0.44847072E+03</rscale>
<asrwt>0</asrwt>
<pdfrwt beam="1">  1       21 0.43877839E-01 0.44847072E+03</pdfrwt>
<pdfrwt beam="2">  1       21 0.24782501E-01 0.44847072E+03</pdfrwt>
<totfact> 0.71289612E+04</totfact>
</mgrwt>
</event>
<event>
 7    0  0.4725730E-002  0.4499975E+03  0.7546771E-02  0.1027723E+00
         21   -1    0    0  502  501  0.00000000000E+00  0.00000000000E+00  0.16866301123E+03  0.16866301123E+03  0.00000000000E+00 0. -1.
         21   -1    0    0  501  502 -0.00000000000E+00 -0.00000000000E+00 -0.30015145181E+03  0.30015145181E+03  0.00000000000E+00 0. -1.
      99926    2    1    2    0    0  0.00000000000E+00  0.00000000000E+00 -0.13148844059E+03  0.46881446304E+03  0.44999754527E+03 0.  0.
      99925    2    3    3    0    0  0.76810680144E+01  0.39388994653E+02  0.21918837262E+02  0.26684468138E+03  0.26289761667E+03 0.  0.
         25    1    4    4    0    0 -0.52557379094E+01 -0.18722622449E+02  0.20901101408E+02  0.12830636583E+03  0.12509000000E+03 0.  0.
         25    1    3    3    0    0 -0.76810680144E+01 -0.39388994653E+02 -0.15340727785E+03  0.20196978166E+03  0.12509000000E+03 0.  0.
         25    1    4    4    0    0  0.12936805924E+02  0.58111617102E+02  0.10177358540E+01  0.13853831555E+03  0.12509000000E+03 0.  0.
<mgrwt>
<rscale>  2 0.44999755E+03</rscale>
<asrwt>0</asrwt>
<pdfrwt beam="1">  1       21 0.24803384E-01 0.44999755E+03</pdfrwt>
<pdfrwt beam="2">  1       21 0.44139919E-01 0.44999755E+03</pdfrwt>
<totfact> 0.70271897E+04</totfact>
</mgrwt>
</event>
<event>
 7    0  0.4725730E-002  0.4505363E+03  0.7546771E-02  0.1027562E+00
         21   -1    0    0  502  501  0.00000000000E+00  0.00000000000E+00  0.68905692830E+03  0.68905692830E+03  0.00000000000E+00 0. -1.
         21   -1    0    0  501  502 -0.00000000000E+00 -0.00000000000E+00 -0.73645192623E+02  0.73645192623E+02  0.00000000000E+00 0. -1.
      99926    2    1    2    0    0  0.00000000000E+00  0.71054273576E-14  0.61541173568E+03  0.76270212092E+03  0.45053625920E+03 0.  0.
      99925    2    3    3    0    0 -0.83457998666E+02 -0.44169134148E+02  0.48075212691E+03  0.55606991558E+03  0.26301139429E+03 0.  0.
         25    1    4    4    0    0 -0.54139896061E+02 -0.61315720713E+02  0.27167029695E+03  0.31006935401E+03  0.12509000000E+03 0.  0.
         25    1    4    4    0    0 -0.29318102606E+02  0.17146586565E+02  0.20908182997E+03  0.24600056157E+03  0.12509000000E+03 0.  0.
         25    1    3    3    0    0  0.83457998666E+02  0.44169134148E+02  0.13465960876E+03  0.20663220534E+03  0.12509000000E+03 0.  0.
<mgrwt>
<rscale>  2 0.45053626E+03</rscale>
<asrwt>0</asrwt>
<pdfrwt beam="1">  1       21 0.10133190E+00 0.45053626E+03</pdfrwt>
<pdfrwt beam="2">  1       21 0.10830176E-01 0.45053626E+03</pdfrwt>
<totfact> 0.51399222E+04</totfact>
</mgrwt>
</event>
<event>
 7    0  0.4725730E-002  0.4663986E+03  0.7546771E-02  0.1022942E+00
         21   -1    0    0  502  501  0.00000000000E+00  0.00000000000E+00  0.13021669685E+03  0.13021669685E+03  0.00000000000E+00 0.  1.
         21   -1    0    0  501  502 -0.00000000000E+00 -0.00000000000E+00 -0.41762620362E+03  0.41762620362E+03  0.00000000000E+00 0.  1.
      99926    2    1    2    0    0  0.00000000000E+00 -0.14210854715E-13 -0.28740950676E+03  0.54784290047E+03  0.46639856241E+03 0.  0.
      99925    2    3    3    0    0 -0.73471943647E+02 -0.98906989928E+02 -0.18205298192E+03  0.34307907410E+03  0.26339939959E+03 0.  0.
         25    1    3    3    0    0  0.73471943647E+02  0.98906989928E+02 -0.10535652485E+03  0.20476382636E+03  0.12509000000E+03 0.  0.
         25    1    4    4    0    0 -0.51081999457E+02 -0.71422177148E+02 -0.13766894885E+03  0.20569575989E+03  0.12509000000E+03 0.  0.
         25    1    4    4    0    0 -0.22389944190E+02 -0.27484812780E+02 -0.44384033069E+02  0.13738331422E+03  0.12509000000E+03 0.  0.
<mgrwt>
<rscale>  2 0.46639856E+03</rscale>
<asrwt>0</asrwt>
<pdfrwt beam="1">  1       21 0.19149514E-01 0.46639856E+03</pdfrwt>
<pdfrwt beam="2">  1       21 0.61415619E-01 0.46639856E+03</pdfrwt>
<totfact> 0.56716113E+04</totfact>
</mgrwt>
</event>
<event>
 7    0  0.4725730E-002  0.4853400E+03  0.7546771E-02  0.1017678E+00
         21   -1    0    0  502  501  0.00000000000E+00  0.00000000000E+00  0.46362499385E+03  0.46362499385E+03  0.00000000000E+00 0. -1.
         21   -1    0    0  501  502 -0.00000000000E+00 -0.00000000000E+00 -0.12701803709E+03  0.12701803709E+03  0.00000000000E+00 0. -1.
      99926    2    1    2    0    0  0.00000000000E+00  0.00000000000E+00  0.33660695677E+03  0.59064303094E+03  0.48534003199E+03 0.  0.
      99925    2    3    3    0    0  0.34410251467E+02  0.19749861498E+02  0.43558985890E+02  0.26955309997E+03  0.26303491406E+03 0.  0.
         25    1    4    4    0    0  0.40334540199E+02  0.71700758505E+01 -0.11597332639E+02  0.13213739571E+03  0.12509000000E+03 0.  0.
         25    1    3    3    0    0 -0.34410251467E+02 -0.19749861498E+02  0.29304797088E+03  0.32108993097E+03  0.12509000000E+03 0.  0.
         25    1    4    4    0    0 -0.59242887319E+01  0.12579785647E+02  0.55156318529E+02  0.13741570426E+03  0.12509000000E+03 0.  0.
<mgrwt>
<rscale>  2 0.48534003E+03</rscale>
<asrwt>0</asrwt>
<pdfrwt beam="1">  1       21 0.68180146E-01 0.48534003E+03</pdfrwt>
<pdfrwt beam="2">  1       21 0.18679123E-01 0.48534003E+03</pdfrwt>
<totfact> 0.46944977E+04</totfact>
</mgrwt>
</event>
<event>
 7    0  0.4725730E-002  0.4440762E+03  0.7546771E-02  0.1029503E+00
         21   -1    0    0  502  501  0.00000000000E+00  0.00000000000E+00  0.19236871752E+04  0.19236871752E+04  0.00000000000E+00 0. -1.
         21   -1    0    0  501  502 -0.00000000000E+00 -0.00000000000E+00 -0.25628338984E+02  0.25628338984E+02  0.00000000000E+00 0. -1.
      99926    2    1    2    0    0  0.00000000000E+00  0.00000000000E+00  0.18980588363E+04  0.19493155142E+04  0.44407615124E+03 0.  0.
      99925    2    3    3    0    0 -0.60129149153E+02 -0.82057898542E+02  0.12170845181E+04  0.12495137256E+04  0.26389545835E+03 0.  0.
         25    1    4    4    0    0 -0.38455271344E+02 -0.16147523643E+02  0.43844250824E+03  0.45784155726E+03  0.12509000000E+03 0.  0.
         25    1    3    3    0    0  0.60129149153E+02  0.82057898542E+02  0.68097431814E+03  0.69980178862E+03  0.12509000000E+03 0.  0.
         25    1    4    4    0    0 -0.21673877808E+02 -0.65910374899E+02  0.77864200988E+03  0.79167216835E+03  0.12509000000E+03 0.  0.
<mgrwt>
<rscale>  2 0.44407615E+03</rscale>
<asrwt>0</asrwt>
<pdfrwt beam="1">  1       21 0.28289507E+00 0.44407615E+03</pdfrwt>
<pdfrwt beam="2">  1       21 0.37688747E-02 0.44407615E+03</pdfrwt>
<totfact> 0.15857758E+04</totfact>
</mgrwt>
</event>
<event>
 7    0  0.4725730E-002  0.4657984E+03  0.7546771E-02  0.1023113E+00
         21   -1    0    0  502  501  0.00000000000E+00  0.00000000000E+00  0.31551693313E+03  0.31551693313E+03  0.00000000000E+00 0.  1.
         21   -1    0    0  501  502 -0.00000000000E+00 -0.00000000000E+00 -0.17191485543E+03  0.17191485543E+03  0.00000000000E+00 0.  1.
      99926    2    1    2    0    0  0.00000000000E+00 -0.35527136788E-14  0.14360207770E+03  0.48743178856E+03  0.46579844545E+03 0.  0.
      99925    2    3    3    0    0 -0.40125196965E+02 -0.28911325622E+02  0.20732023495E+03  0.33859157947E+03  0.26309063397E+03 0.  0.
         25    1    4    4    0    0 -0.54710960392E+01 -0.30575065833E+02  0.14683833296E+03  0.19538109343E+03  0.12509000000E+03 0.  0.
         25    1    4    4    0    0 -0.34654100926E+02  0.16637402115E+01  0.60481901993E+02  0.14321048604E+03  0.12509000000E+03 0.  0.
         25    1    3    3    0    0  0.40125196965E+02  0.28911325622E+02 -0.63718157249E+02  0.14884020910E+03  0.12509000000E+03 0.  0.
<mgrwt>
<rscale>  2 0.46579845E+03</rscale>
<asrwt>0</asrwt>
<pdfrwt beam="1">  1       21 0.46399549E-01 0.46579845E+03</pdfrwt>
<pdfrwt beam="2">  1       21 0.25281596E-01 0.46579845E+03</pdfrwt>
<totfact> 0.60783495E+04</totfact>
</mgrwt>
</event>
<event>
 7    0  0.4725730E-002  0.4570503E+03  0.7546771E-02  0.1025640E+00
         21   -1    0    0  502  501  0.00000000000E+00  0.00000000000E+00  0.20621735623E+03  0.20621735623E+03  0.00000000000E+00 0.  1.
         21   -1    0    0  501  502 -0.00000000000E+00 -0.00000000000E+00 -0.25324612534E+03  0.25324612534E+03  0.00000000000E+00 0.  1.
      99926    2    1    2    0    0  0.00000000000E+00  0.00000000000E+00 -0.47028769114E+02  0.45946348157E+03  0.45705030990E+03 0.  0.
      99925    2    3    3    0    0  0.99934083423E+02  0.32679348201E+02 -0.76506801037E+02  0.29341763461E+03  0.26303204532E+03 0.  0.
         25    1    4    4    0    0  0.16621149717E+02  0.34162911527E+02 -0.17288623158E+02  0.13187028374E+03  0.12509000000E+03 0.  0.
         25    1    3    3    0    0 -0.99934083423E+02 -0.32679348201E+02  0.29478031923E+02  0.16604584697E+03  0.12509000000E+03 0.  0.
         25    1    4    4    0    0  0.83312933706E+02 -0.14835633261E+01 -0.59218177878E+02  0.16154735087E+03  0.12509000000E+03 0.  0.
<mgrwt>
<rscale>  2 0.45705031E+03</rscale>
<asrwt>0</asrwt>
<pdfrwt beam="1">  1       21 0.30326082E-01 0.45705031E+03</pdfrwt>
<pdfrwt beam="2">  1       21 0.37242077E-01 0.45705031E+03</pdfrwt>
<totfact> 0.67115367E+04</totfact>
</mgrwt>
</event>
<event>
 7    0  0.4725730E-002  0.4542002E+03  0.7546771E-02  0.1026477E+00
         21   -1    0    0  502  501  0.00000000000E+00  0.00000000000E+00  0.20043621380E+03  0.20043621380E+03  0.00000000000E+00 0.  1.
         21   -1    0    0  501  502 -0.00000000000E+00 -0.00000000000E+00 -0.25731105049E+03  0.25731105049E+03  0.00000000000E+00 0.  1.
      99926    2    1    2    0    0  0.35527136788E-14  0.00000000000E+00 -0.56874836697E+02  0.45774726429E+03  0.45420018815E+03 0.  0.
      99925    2    3    3    0    0  0.20819883002E+02  0.84015900115E+02 -0.10788272242E+03  0.29730583726E+03  0.26317283308E+03 0.  0.
         25    1    4    4    0    0 -0.28607891868E+02  0.44584903430E+02 -0.65939957615E+02  0.15100268607E+03  0.12509000000E+03 0.  0.
         25    1    3    3    0    0 -0.20819883002E+02 -0.84015900115E+02  0.51007885727E+02  0.16044142703E+03  0.12509000000E+03 0.  0.
         25    1    4    4    0    0  0.49427774870E+02  0.39430996685E+02 -0.41942764809E+02  0.14630315119E+03  0.12509000000E+03 0.  0.
<mgrwt>
<rscale>  2 0.45420019E+03</rscale>
<asrwt>0</asrwt>
<pdfrwt beam="1">  1       21 0.29475914E-01 0.45420019E+03</pdfrwt>
<pdfrwt beam="2">  1       21 0.37839860E-01 0.45420019E+03</pdfrwt>
<totfact> 0.68782701E+04</totfact>
</mgrwt>
</event>
<event>
 7    0  0.4725730E-002  0.4513769E+03  0.7546771E-02  0.1027312E+00
         21   -1    0    0  502  501  0.00000000000E+00  0.00000000000E+00  0.98428590209E+02  0.98428590209E+02  0.00000000000E+00 0.  1.
         21   -1    0    0  501  502 -0.00000000000E+00 -0.00000000000E+00 -0.51748454227E+03  0.51748454227E+03  0.00000000000E+00 0.  1.
      99926    2    1    2    0    0  0.00000000000E+00  0.00000000000E+00 -0.41905595207E+03  0.61591313248E+03  0.45137688887E+03 0.  0.
      99925    2    3    3    0    0 -0.25940194072E+02  0.10442314693E+03 -0.23517059066E+03  0.36885358192E+03  0.26300317660E+03 0.  0.
         25    1    4    4    0    0 -0.22991317855E+02  0.52117140412E+02 -0.16934340139E+03  0.21810431613E+03  0.12509000000E+03 0.  0.
         25    1    3    3    0    0  0.25940194072E+02 -0.10442314693E+03 -0.18388536140E+03  0.24705955056E+03  0.12509000000E+03 0.  0.
         25    1    4    4    0    0 -0.29488762172E+01  0.52306006522E+02 -0.65827189274E+02  0.15074926579E+03  0.12509000000E+03 0.  0.
<mgrwt>
<rscale>  2 0.45137689E+03</rscale>
<asrwt>0</asrwt>
<pdfrwt beam="1">  1       21 0.14474793E-01 0.45137689E+03</pdfrwt>
<pdfrwt beam="2">  1       21 0.76100667E-01 0.45137689E+03</pdfrwt>
<totfact> 0.59390495E+04</totfact>
</mgrwt>
</event>
<event>
 7    0  0.4725730E-002  0.4557020E+03  0.7546771E-02  0.1026035E+00
         21   -1    0    0  502  501  0.00000000000E+00  0.00000000000E+00  0.12620518751E+03  0.12620518751E+03  0.00000000000E+00 0. -1.
         21   -1    0    0  501  502 -0.00000000000E+00 -0.00000000000E+00 -0.41136249839E+03  0.41136249839E+03  0.00000000000E+00 0. -1.
      99926    2    1    2    0    0 -0.35527136788E-14  0.00000000000E+00 -0.28515731088E+03  0.53756768589E+03  0.45570201335E+03 0.  0.
      99925    2    3    3    0    0 -0.23761891945E+02 -0.69082271217E+02 -0.28325016722E+03  0.39269486925E+03  0.26199544919E+03 0.  0.
         25    1    4    4    0    0 -0.38814949720E+02 -0.11198714425E+02 -0.16097357884E+03  0.20782688159E+03  0.12509000000E+03 0.  0.
         25    1    3    3    0    0  0.23761891945E+02  0.69082271217E+02 -0.19071436597E+01  0.14487281664E+03  0.12509000000E+03 0.  0.
         25    1    4    4    0    0  0.15053057775E+02 -0.57883556793E+02 -0.12227658839E+03  0.18486798766E+03  0.12509000000E+03 0.  0.
<mgrwt>
<rscale>  2 0.45570201E+03</rscale>
<asrwt>0</asrwt>
<pdfrwt beam="1">  1       21 0.18559587E-01 0.45570201E+03</pdfrwt>
<pdfrwt beam="2">  1       21 0.60494484E-01 0.45570201E+03</pdfrwt>
<totfact> 0.62348468E+04</totfact>
</mgrwt>
</event>
<event>
 7    0  0.4725730E-002  0.4492967E+03  0.7546771E-02  0.1027932E+00
         21   -1    0    0  502  501  0.00000000000E+00  0.00000000000E+00  0.20210521289E+03  0.20210521289E+03  0.00000000000E+00 0.  1.
         21   -1    0    0  501  502 -0.00000000000E+00 -0.00000000000E+00 -0.24970600178E+03  0.24970600178E+03  0.00000000000E+00 0.  1.
      99926    2    1    2    0    0  0.00000000000E+00  0.17763568394E-14 -0.47600788896E+02  0.45181121467E+03  0.44929671554E+03 0.  0.
      99925    2    3    3    0    0 -0.88036101311E+01 -0.11788866675E+02 -0.13740269783E+03  0.29712323234E+03  0.26303276012E+03 0.  0.
         25    1    4    4    0    0  0.44915693508E+01  0.10598245448E+02 -0.10881103561E+03  0.16619219768E+03  0.12509000000E+03 0.  0.
         25    1    3    3    0    0  0.88036101311E+01  0.11788866675E+02  0.89801908938E+02  0.15468798233E+03  0.12509000000E+03 0.  0.
         25    1    4    4    0    0 -0.13295179482E+02 -0.22387112123E+02 -0.28591662229E+02  0.13093103465E+03  0.12509000000E+03 0.  0.
<mgrwt>
<rscale>  2 0.44929672E+03</rscale>
<asrwt>0</asrwt>
<pdfrwt beam="1">  1       21 0.29721355E-01 0.44929672E+03</pdfrwt>
<pdfrwt beam="2">  1       21 0.36721471E-01 0.44929672E+03</pdfrwt>
<totfact> 0.72000954E+04</totfact>
</mgrwt>
</event>
<event>
 7    0  0.4725730E-002  0.4548238E+03  0.7546771E-02  0.1026293E+00
         21   -1    0    0  502  501  0.00000000000E+00  0.00000000000E+00  0.18552045580E+03  0.18552045580E+03  0.00000000000E+00 0. -1.
         21   -1    0    0  501  502 -0.00000000000E+00 -0.00000000000E+00 -0.27876268199E+03  0.27876268199E+03  0.00000000000E+00 0. -1.
      99926    2    1    2    0    0  0.00000000000E+00  0.35527136788E-14 -0.93242226192E+02  0.46428313780E+03  0.45482383326E+03 0.  0.
      99925    2    3    3    0    0  0.90333425510E+02  0.16345007543E+02 -0.12602401553E+03  0.30569738545E+03  0.26294781221E+03 0.  0.
         25    1    4    4    0    0  0.13202422180E+02  0.78311325012E+01 -0.87844360514E+02  0.15362216755E+03  0.12509000000E+03 0.  0.
         25    1    4    4    0    0  0.77131003330E+02  0.85138750419E+01 -0.38179655014E+02  0.15207521790E+03  0.12509000000E+03 0.  0.
         25    1    3    3    0    0 -0.90333425510E+02 -0.16345007543E+02  0.32781789336E+02  0.15858575235E+03  0.12509000000E+03 0.  0.
<mgrwt>
<rscale>  2 0.45482383E+03</rscale>
<asrwt>0</asrwt>
<pdfrwt beam="1">  1       21 0.27282420E-01 0.45482383E+03</pdfrwt>
<pdfrwt beam="2">  1       21 0.40994511E-01 0.45482383E+03</pdfrwt>
<totfact> 0.67958636E+04</totfact>
</mgrwt>
</event>
<event>
 7    0  0.4725730E-002  0.4555561E+03  0.7546771E-02  0.1026078E+00
         21   -1    0    0  502  501  0.00000000000E+00  0.00000000000E+00  0.10926598095E+03  0.10926598095E+03  0.00000000000E+00 0.  1.
         21   -1    0    0  501  502 -0.00000000000E+00 -0.00000000000E+00 -0.47483058915E+03  0.47483058915E+03  0.00000000000E+00 0.  1.
      99926    2    1    2    0    0  0.00000000000E+00  0.00000000000E+00 -0.36556460820E+03  0.58409657010E+03  0.45555605630E+03 0.  0.
      99925    2    3    3    0    0  0.39887332293E+02 -0.10667626877E+03 -0.23757359888E+03  0.37196445993E+03  0.26257478738E+03 0.  0.
         25    1    3    3    0    0 -0.39887332293E+02  0.10667626877E+03 -0.12799100932E+03  0.21213211017E+03  0.12509000000E+03 0.  0.
         25    1    4    4    0    0  0.54532934042E+02 -0.33811083390E+02 -0.11135872132E+03  0.17934687945E+03  0.12509000000E+03 0.  0.
         25    1    4    4    0    0 -0.14645601749E+02 -0.72865185385E+02 -0.12621487756E+03  0.19261758048E+03  0.12509000000E+03 0.  0.
<mgrwt>
<rscale>  2 0.45555606E+03</rscale>
<asrwt>0</asrwt>
<pdfrwt beam="1">  1       21 0.16068527E-01 0.45555606E+03</pdfrwt>
<pdfrwt beam="2">  1       21 0.69828028E-01 0.45555606E+03</pdfrwt>
<totfact> 0.59406445E+04</totfact>
</mgrwt>
</event>
<event>
 7    0  0.4725730E-002  0.4263371E+03  0.7546771E-02  0.1035023E+00
         21   -1    0    0  502  501  0.00000000000E+00  0.00000000000E+00  0.32385869593E+03  0.32385869593E+03  0.00000000000E+00 0.  1.
         21   -1    0    0  501  502 -0.00000000000E+00 -0.00000000000E+00 -0.14031069482E+03  0.14031069482E+03  0.00000000000E+00 0.  1.
      99926    2    1    2    0    0 -0.71054273576E-14  0.35527136788E-14  0.18354800111E+03  0.46416939076E+03  0.42633713726E+03 0.  0.
      99925    2    3    3    0    0  0.38658595672E+02 -0.25605125621E+02  0.19438312721E+03  0.33032239776E+03  0.26301706568E+03 0.  0.
         25    1    4    4    0    0 -0.18093864136E+02 -0.18392800758E+02  0.74515536716E+02  0.14787074204E+03  0.12509000000E+03 0.  0.
         25    1    3    3    0    0 -0.38658595672E+02  0.25605125621E+02 -0.10835126096E+02  0.13384699300E+03  0.12509000000E+03 0.  0.
         25    1    4    4    0    0  0.56752459808E+02 -0.72123248634E+01  0.11986759049E+03  0.18245165572E+03  0.12509000000E+03 0.  0.
<mgrwt>
<rscale>  2 0.42633714E+03</rscale>
<asrwt>0</asrwt>
<pdfrwt beam="1">  1       21 0.47626279E-01 0.42633714E+03</pdfrwt>
<pdfrwt beam="2">  1       21 0.20633926E-01 0.42633714E+03</pdfrwt>
<totfact> 0.85789488E+04</totfact>
</mgrwt>
</event>
<event>
 7    0  0.4725730E-002  0.4183553E+03  0.7546771E-02  0.1037603E+00
         21   -1    0    0  502  501  0.00000000000E+00  0.00000000000E+00  0.47803643246E+03  0.47803643246E+03  0.00000000000E+00 0. -1.
         21   -1    0    0  501  502 -0.00000000000E+00 -0.00000000000E+00 -0.91531305729E+02  0.91531305729E+02  0.00000000000E+00 0. -1.
      99926    2    1    2    0    0 -0.71054273576E-14 -0.71054273576E-14  0.38650512674E+03  0.56956773819E+03  0.41835534585E+03 0.  0.
      99925    2    3    3    0    0 -0.61280805882E+02 -0.36706566100E+02  0.27741137395E+03  0.38887002332E+03  0.26298310872E+03 0.  0.
         25    1    3    3    0    0  0.61280805882E+02  0.36706566100E+02  0.10909375278E+03  0.18069771487E+03  0.12509000000E+03 0.  0.
         25    1    4    4    0    0 -0.47989823951E+02 -0.26369381850E+02  0.19526800798E+03  0.23827603854E+03  0.12509000000E+03 0.  0.
         25    1    4    4    0    0 -0.13290981930E+02 -0.10337184249E+02  0.82143365978E+02  0.15059398478E+03  0.12509000000E+03 0.  0.
<mgrwt>
<rscale>  2 0.41835535E+03</rscale>
<asrwt>0</asrwt>
<pdfrwt beam="1">  1       21 0.70299474E-01 0.41835535E+03</pdfrwt>
<pdfrwt beam="2">  1       21 0.13460486E-01 0.41835535E+03</pdfrwt>
<totfact> 0.81854148E+04</totfact>
</mgrwt>
</event>
<event>
 7    0  0.4725730E-002  0.4549884E+03  0.7546771E-02  0.1026245E+00
         21   -1    0    0  502  501  0.00000000000E+00  0.00000000000E+00  0.87789207530E+03  0.87789207530E+03  0.00000000000E+00 0. -1.
         21   -1    0    0  501  502 -0.00000000000E+00 -0.00000000000E+00 -0.58952141369E+02  0.58952141369E+02  0.00000000000E+00 0. -1.
      99926    2    1    2    0    0  0.00000000000E+00 -0.14210854715E-13  0.81893993393E+03  0.93684421667E+03  0.45498842943E+03 0.  0.
      99925    2    3    3    0    0  0.51660010314E+02 -0.99740069804E+02  0.48739995389E+03  0.56511433537E+03  0.26301836208E+03 0.  0.
         25    1    3    3    0    0 -0.51660010314E+02  0.99740069804E+02  0.33153998004E+03  0.37172988131E+03  0.12509000000E+03 0.  0.
         25    1    4    4    0    0  0.11974190740E+02 -0.41629708191E+02  0.30889575652E+03  0.33606622911E+03  0.12509000000E+03 0.  0.
         25    1    4    4    0    0  0.39685819573E+02 -0.58110361613E+02  0.17850419737E+03  0.22904810626E+03  0.12509000000E+03 0.  0.
<mgrwt>
<rscale>  2 0.45498843E+03</rscale>
<asrwt>0</asrwt>
<pdfrwt beam="1">  1       21 0.12910177E+00 0.45498843E+03</pdfrwt>
<pdfrwt beam="2">  1       21 0.86694331E-02 0.45498843E+03</pdfrwt>
<totfact> 0.41681937E+04</totfact>
</mgrwt>
</event>
<event>
 7    0  0.4725730E-002  0.4560644E+03  0.7546771E-02  0.1025929E+00
         21   -1    0    0  502  501  0.00000000000E+00  0.00000000000E+00  0.69555640415E+03  0.69555640415E+03  0.00000000000E+00 0.  1.
         21   -1    0    0  501  502 -0.00000000000E+00 -0.00000000000E+00 -0.74758415609E+02  0.74758415609E+02  0.00000000000E+00 0.  1.
      99926    2    1    2    0    0  0.00000000000E+00  0.00000000000E+00  0.62079798854E+03  0.77031481976E+03  0.45606444606E+03 0.  0.
      99925    2    3    3    0    0 -0.36621181390E+02 -0.10694953373E+03  0.41199720828E+03  0.50194085003E+03  0.26348359266E+03 0.  0.
         25    1    4    4    0    0 -0.21351502265E+02 -0.18462955273E+02  0.23186699244E+03  0.26496523856E+03  0.12509000000E+03 0.  0.
         25    1    3    3    0    0  0.36621181390E+02  0.10694953373E+03  0.20880078026E+03  0.26837396973E+03  0.12509000000E+03 0.  0.
         25    1    4    4    0    0 -0.15269679125E+02 -0.88486578460E+02  0.18013021585E+03  0.23697561146E+03  0.12509000000E+03 0.  0.
<mgrwt>
<rscale>  2 0.45606445E+03</rscale>
<asrwt>0</asrwt>
<pdfrwt beam="1">  1       21 0.10228770E+00 0.45606445E+03</pdfrwt>
<pdfrwt beam="2">  1       21 0.10993885E-01 0.45606445E+03</pdfrwt>
<totfact> 0.48824855E+04</totfact>
</mgrwt>
</event>
<event>
 7    0  0.4725730E-002  0.4582953E+03  0.7546771E-02  0.1025277E+00
         21   -1    0    0  502  501  0.00000000000E+00  0.00000000000E+00  0.32680731709E+03  0.32680731709E+03  0.00000000000E+00 0.  1.
         21   -1    0    0  501  502 -0.00000000000E+00 -0.00000000000E+00 -0.16067155257E+03  0.16067155257E+03  0.00000000000E+00 0.  1.
      99926    2    1    2    0    0 -0.14210854715E-13  0.71054273576E-14  0.16613576451E+03  0.48747886966E+03  0.45829527176E+03 0.  0.
      99925    2    3    3    0    0 -0.10074480324E+03  0.54092194039E+02  0.81239716614E+02  0.29792590111E+03  0.26283924776E+03 0.  0.
         25    1    3    3    0    0  0.10074480324E+03 -0.54092194039E+02  0.84896047900E+02  0.18955296855E+03  0.12509000000E+03 0.  0.
         25    1    4    4    0    0 -0.32204823156E+02  0.63008605244E+02  0.41397079325E+02  0.14956089478E+03  0.12509000000E+03 0.  0.
         25    1    4    4    0    0 -0.68539980086E+02 -0.89164112053E+01  0.39842637289E+02  0.14836500634E+03  0.12509000000E+03 0.  0.
<mgrwt>
<rscale>  2 0.45829527E+03</rscale>
<asrwt>0</asrwt>
<pdfrwt beam="1">  1       21 0.48059900E-01 0.45829527E+03</pdfrwt>
<pdfrwt beam="2">  1       21 0.23628169E-01 0.45829527E+03</pdfrwt>
<totfact> 0.64456878E+04</totfact>
</mgrwt>
</event>
<event>
 7    0  0.4725730E-002  0.4622443E+03  0.7546771E-02  0.1024132E+00
         21   -1    0    0  502  501  0.00000000000E+00  0.00000000000E+00  0.69613391296E+02  0.69613391296E+02  0.00000000000E+00 0. -1.
         21   -1    0    0  501  502 -0.00000000000E+00 -0.00000000000E+00 -0.76734445528E+03  0.76734445528E+03  0.00000000000E+00 0. -1.
      99926    2    1    2    0    0  0.00000000000E+00 -0.14210854715E-13 -0.69773106398E+03  0.83695784657E+03  0.46224430694E+03 0.  0.
      99925    2    3    3    0    0 -0.52565184767E+02  0.10624523302E+03 -0.40485543075E+03  0.49714202465E+03  0.26304205876E+03 0.  0.
         25    1    4    4    0    0 -0.43631326731E+00  0.52535903504E+02 -0.25017318709E+03  0.28459505119E+03  0.12509000000E+03 0.  0.
         25    1    4    4    0    0 -0.52128871499E+02  0.53709329518E+02 -0.15468224366E+03  0.21254697346E+03  0.12509000000E+03 0.  0.
         25    1    3    3    0    0  0.52565184767E+02 -0.10624523302E+03 -0.29287563323E+03  0.33981582193E+03  0.12509000000E+03 0.  0.
<mgrwt>
<rscale>  2 0.46224431E+03</rscale>
<asrwt>0</asrwt>
<pdfrwt beam="1">  1       21 0.10237264E-01 0.46224431E+03</pdfrwt>
<pdfrwt beam="2">  1       21 0.11284477E+00 0.46224431E+03</pdfrwt>
<totfact> 0.43502794E+04</totfact>
</mgrwt>
</event>
<event>
 7    0  0.4725730E-002  0.4669097E+03  0.7546771E-02  0.1022796E+00
         21   -1    0    0  502  501  0.00000000000E+00  0.00000000000E+00  0.18929902753E+04  0.18929902753E+04  0.00000000000E+00 0. -1.
         21   -1    0    0  501  502 -0.00000000000E+00 -0.00000000000E+00 -0.28791042060E+02  0.28791042060E+02  0.00000000000E+00 0. -1.
      99926    2    1    2    0    0 -0.26645352591E-14  0.00000000000E+00  0.18641992332E+04  0.19217813174E+04  0.46690968135E+03 0.  0.
      99925    2    3    3    0    0 -0.47282446236E+01 -0.33013580877E+02  0.66931718957E+03  0.71990659044E+03  0.26299761575E+03 0.  0.
         25    1    3    3    0    0  0.47282446236E+01  0.33013580877E+02  0.11948820437E+04  0.12018747269E+04  0.12509000000E+03 0.  0.
         25    1    4    4    0    0 -0.22643280358E+02 -0.48120775132E+01  0.42186232707E+03  0.44062592449E+03  0.12509000000E+03 0.  0.
         25    1    4    4    0    0  0.17915035734E+02 -0.28201503364E+02  0.24745486250E+03  0.27928066595E+03  0.12509000000E+03 0.  0.
<mgrwt>
<rscale>  2 0.46690968E+03</rscale>
<asrwt>0</asrwt>
<pdfrwt beam="1">  1       21 0.27838084E+00 0.46690968E+03</pdfrwt>
<pdfrwt beam="2">  1       21 0.42339781E-02 0.46690968E+03</pdfrwt>
<totfact> 0.13716854E+04</totfact>
</mgrwt>
</event>
<event>
 7    0  0.4725730E-002  0.4616977E+03  0.7546771E-02  0.1024290E+00
         21   -1    0    0  502  501  0.00000000000E+00  0.00000000000E+00  0.83871602681E+03  0.83871602681E+03  0.00000000000E+00 0.  1.
         21   -1    0    0  501  502 -0.00000000000E+00 -0.00000000000E+00 -0.63539021544E+02  0.63539021544E+02  0.00000000000E+00 0.  1.
      99926    2    1    2    0    0  0.14210854715E-13  0.14210854715E-13  0.77517700527E+03  0.90225504835E+03  0.46169771798E+03 0.  0.
      99925    2    3    3    0    0  0.74301134868E+02  0.86090254589E+02  0.41415304518E+03  0.50360984465E+03  0.26299798520E+03 0.  0.
         25    1    3    3    0    0 -0.74301134868E+02 -0.86090254589E+02  0.36102396009E+03  0.39864520370E+03  0.12509000000E+03 0.  0.
         25    1    4    4    0    0  0.56149086754E+02  0.71700577251E+02  0.27130140502E+03  0.31232299497E+03  0.12509000000E+03 0.  0.
         25    1    4    4    0    0  0.18152048114E+02  0.14389677337E+02  0.14285164016E+03  0.19128684968E+03  0.12509000000E+03 0.  0.
<mgrwt>
<rscale>  2 0.46169772E+03</rscale>
<asrwt>0</asrwt>
<pdfrwt beam="1">  1       21 0.12334059E+00 0.46169772E+03</pdfrwt>
<pdfrwt beam="2">  1       21 0.93439743E-02 0.46169772E+03</pdfrwt>
<totfact> 0.40946562E+04</totfact>
</mgrwt>
</event>
<event>
 7    0  0.4725730E-002  0.4540483E+03  0.7546771E-02  0.1026522E+00
         21   -1    0    0  502  501  0.00000000000E+00  0.00000000000E+00  0.17102587493E+04  0.17102587493E+04  0.00000000000E+00 0. -1.
         21   -1    0    0  501  502 -0.00000000000E+00 -0.00000000000E+00 -0.30135774988E+02  0.30135774988E+02  0.00000000000E+00 0. -1.
      99926    2    1    2    0    0  0.00000000000E+00 -0.14210854715E-13  0.16801229744E+04  0.17403945243E+04  0.45404833594E+03 0.  0.
      99925    2    3    3    0    0 -0.19869869963E+02  0.10287134338E+03  0.90631747090E+03  0.94957230013E+03  0.26324678552E+03 0.  0.
         25    1    4    4    0    0 -0.32255680533E+02  0.24953692756E+02  0.34934855345E+03  0.37330287383E+03  0.12509000000E+03 0.  0.
         25    1    4    4    0    0  0.12385810570E+02  0.77917650623E+02  0.55696891745E+03  0.57626942630E+03  0.12509000000E+03 0.  0.
         25    1    3    3    0    0  0.19869869963E+02 -0.10287134338E+03  0.77380550346E+03  0.79082222421E+03  0.12509000000E+03 0.  0.
<mgrwt>
<rscale>  2 0.45404834E+03</rscale>
<asrwt>0</asrwt>
<pdfrwt beam="1">  1       21 0.25150858E+00 0.45404834E+03</pdfrwt>
<pdfrwt beam="2">  1       21 0.44317328E-02 0.45404834E+03</pdfrwt>
<totfact> 0.18570232E+04</totfact>
</mgrwt>
</event>
<event>
 7    0  0.4725730E-002  0.4817772E+03  0.7546771E-02  0.1018648E+00
         21   -1    0    0  502  501  0.00000000000E+00  0.00000000000E+00  0.51051768014E+02  0.51051768014E+02  0.00000000000E+00 0.  1.
         21   -1    0    0  501  502 -0.00000000000E+00 -0.00000000000E+00 -0.11366368473E+04  0.11366368473E+04  0.00000000000E+00 0.  1.
      99926    2    1    2    0    0  0.00000000000E+00  0.00000000000E+00 -0.10855850793E+04  0.11876886153E+04  0.48177721261E+03 0.  0.
      99925    2    3    3    0    0  0.90165873216E+02  0.96466521046E+02 -0.75883072585E+03  0.81372125048E+03  0.26245481251E+03 0.  0.
         25    1    4    4    0    0  0.61869996463E+02  0.80883902679E+02 -0.35990900645E+03  0.39440094219E+03  0.12509000000E+03 0.  0.
         25    1    4    4    0    0  0.28295876753E+02  0.15582618367E+02 -0.39892171940E+03  0.41932030829E+03  0.12509000000E+03 0.  0.
         25    1    3    3    0    0 -0.90165873216E+02 -0.96466521046E+02 -0.32675435346E+03  0.37396736486E+03  0.12509000000E+03 0.  0.
<mgrwt>
<rscale>  2 0.48177721E+03</rscale>
<asrwt>0</asrwt>
<pdfrwt beam="1">  1       21 0.75076126E-02 0.48177721E+03</pdfrwt>
<pdfrwt beam="2">  1       21 0.16715249E+00 0.48177721E+03</pdfrwt>
<totfact> 0.26559676E+04</totfact>
</mgrwt>
</event>
<event>
 7    0  0.4725730E-002  0.4372375E+03  0.7546771E-02  0.1031598E+00
         21   -1    0    0  502  501  0.00000000000E+00  0.00000000000E+00  0.17536227780E+03  0.17536227780E+03  0.00000000000E+00 0. -1.
         21   -1    0    0  501  502 -0.00000000000E+00 -0.00000000000E+00 -0.27254521400E+03  0.27254521400E+03  0.00000000000E+00 0. -1.
      99926    2    1    2    0    0 -0.17763568394E-14  0.00000000000E+00 -0.97182936208E+02  0.44790749180E+03  0.43723746193E+03 0.  0.
      99925    2    3    3    0    0 -0.13071085752E+02 -0.66418780046E+02 -0.13144649797E+03  0.30160709060E+03  0.26288086208E+03 0.  0.
         25    1    4    4    0    0 -0.18671637664E+01 -0.19108760579E+02 -0.10584100052E+03  0.16498017009E+03  0.12509000000E+03 0.  0.
         25    1    4    4    0    0 -0.11203921986E+02 -0.47310019467E+02 -0.25605497452E+02  0.13662692052E+03  0.12509000000E+03 0.  0.
         25    1    3    3    0    0  0.13071085752E+02  0.66418780046E+02  0.34263561761E+02  0.14630040120E+03  0.12509000000E+03 0.  0.
<mgrwt>
<rscale>  2 0.43723746E+03</rscale>
<asrwt>0</asrwt>
<pdfrwt beam="1">  1       21 0.25788571E-01 0.43723746E+03</pdfrwt>
<pdfrwt beam="2">  1       21 0.40080178E-01 0.43723746E+03</pdfrwt>
<totfact> 0.79775437E+04</totfact>
</mgrwt>
</event>
<event>
 7    0  0.4725730E-002  0.4582008E+03  0.7546771E-02  0.1025304E+00
         21   -1    0    0  502  501  0.00000000000E+00  0.00000000000E+00  0.12713725592E+03  0.12713725592E+03  0.00000000000E+00 0. -1.
         21   -1    0    0  501  502 -0.00000000000E+00 -0.00000000000E+00 -0.41283721932E+03  0.41283721932E+03  0.00000000000E+00 0. -1.
      99926    2    1    2    0    0  0.00000000000E+00  0.00000000000E+00 -0.28569996340E+03  0.53997447524E+03  0.45820079095E+03 0.  0.
      99925    2    3    3    0    0 -0.19093594137E+02 -0.10263237343E+03 -0.11943047199E+03  0.30718482495E+03  0.26306065769E+03 0.  0.
         25    1    4    4    0    0 -0.10533033507E+01 -0.55190456807E+02 -0.17110810165E+02  0.13779471650E+03  0.12509000000E+03 0.  0.
         25    1    3    3    0    0  0.19093594137E+02  0.10263237343E+03 -0.16626949141E+03  0.23278965030E+03  0.12509000000E+03 0.  0.
         25    1    4    4    0    0 -0.18040290786E+02 -0.47441916620E+02 -0.10231966182E+03  0.16939010845E+03  0.12509000000E+03 0.  0.
<mgrwt>
<rscale>  2 0.45820079E+03</rscale>
<asrwt>0</asrwt>
<pdfrwt beam="1">  1       21 0.18696655E-01 0.45820079E+03</pdfrwt>
<pdfrwt beam="2">  1       21 0.60711357E-01 0.45820079E+03</pdfrwt>
<totfact> 0.60974614E+04</totfact>
</mgrwt>
</event>
