<event>
 5    0  0.2097162E-004  0.5173398E+03  0.7546771E-02  0.1009350E+00
         21   -1    0    0  502  501  0.00000000000E+00  0.00000000000E+00  0.17224870938E+03  0.17224870938E+03  0.00000000000E+00 0.  1.
         21   -1    0    0  501  502 -0.00000000000E+00 -0.00000000000E+00 -0.38845054333E+03  0.38845054333E+03  0.00000000000E+00 0. -1.
         25    1    1    2    0    0 -0.51643846398E+02 -0.17733449390E+02 -0.43615246642E+02  0.14328768244E+03  0.12509000000E+03 0.  0.
         25    1    1    2    0    0 -0.11168277200E+03  0.33850749357E+02 -0.10274439258E+03  0.19955659122E+03  0.12509000000E+03 0.  0.
         25    1    1    2    0    0  0.16332661840E+03 -0.16117299966E+02 -0.69842194729E+02  0.21785497906E+03  0.12509000000E+03 0.  0.
<mgrwt>
<rscale>  2 0.51733975E+03</rscale>
<asrwt>0</asrwt>
<pdfrwt beam="1">  1       21 0.25330692E-01 0.51733975E+03</pdfrwt>
<pdfrwt beam="2">  1       21 0.57125080E-01 0.51733975E+03</pdfrwt>
<totfact> 0.38396932E+04</totfact>
</mgrwt>
</event>
<event>
 5    0  0.1116919E-004  0.1190240E+04  0.7546771E-02  0.9121442E-01
         21   -1    0    0  502  501  0.00000000000E+00  0.00000000000E+00  0.64754859324E+03  0.64754859324E+03  0.00000000000E+00 0.  1.
         21   -1    0    0  501  502 -0.00000000000E+00 -0.00000000000E+00 -0.54693666112E+03  0.54693666112E+03  0.00000000000E+00 0. -1.
         25    1    1    2    0    0 -0.11019623286E+03 -0.21539838388E+03 -0.13870383437E+03  0.30565656427E+03  0.12509000000E+03 0.  0.
         25    1    1    2    0    0  0.93588307865E+02 -0.28080051995E+03  0.19277916870E+03  0.37472525850E+03  0.12509000000E+03 0.  0.
         25    1    1    2    0    0  0.16607924998E+02  0.49619890383E+03  0.46536597782E+02  0.51410343158E+03  0.12509000000E+03 0.  0.
<mgrwt>
<rscale>  2 0.11902404E+04</rscale>
<asrwt>0</asrwt>
<pdfrwt beam="1">  1       21 0.95227735E-01 0.11902404E+04</pdfrwt>
<pdfrwt beam="2">  1       21 0.80431861E-01 0.11902404E+04</pdfrwt>
<totfact> 0.89622667E+02</totfact>
</mgrwt>
</event>
<event>
 5    0  0.1116919E-004  0.5892239E+03  0.7546771E-02  0.9928019E-01
         21   -1    0    0  502  501  0.00000000000E+00  0.00000000000E+00  0.12528366001E+03  0.12528366001E+03  0.00000000000E+00 0. -1.
         21   -1    0    0  501  502 -0.00000000000E+00 -0.00000000000E+00 -0.69279745959E+03  0.69279745959E+03  0.00000000000E+00 0. -1.
         25    1    1    2    0    0  0.90553136755E+02 -0.68307290919E+02 -0.17461451142E+03  0.24290634464E+03  0.12509000000E+03 0.  0.
         25    1    1    2    0    0 -0.50915362232E+02  0.21029086179E+02  0.21109285985E+02  0.13830295236E+03  0.12509000000E+03 0.  0.
         25    1    1    2    0    0 -0.39637774522E+02  0.47278204740E+02 -0.41400857414E+03  0.43687182259E+03  0.12509000000E+03 0.  0.
<mgrwt>
<rscale>  2 0.58922390E+03</rscale>
<asrwt>0</asrwt>
<pdfrwt beam="1">  1       21 0.18424068E-01 0.58922390E+03</pdfrwt>
<pdfrwt beam="2">  1       21 0.10188198E+00 0.58922390E+03</pdfrwt>
<totfact> 0.18400474E+04</totfact>
</mgrwt>
</event>
<event>
 6    0  0.1116919E-004  0.6004975E+03  0.7546771E-02  0.9904374E-01
         21   -1    0    0  502  501  0.00000000000E+00  0.00000000000E+00  0.49746976867E+03  0.49746976867E+03  0.00000000000E+00 0.  1.
         21   -1    0    0  501  502 -0.00000000000E+00 -0.00000000000E+00 -0.18121567742E+03  0.18121567742E+03  0.00000000000E+00 0.  1.
      99926    2    1    2    0    0  0.11957283835E+03  0.72906837794E+02  0.12105004894E+03  0.40782534032E+03  0.36339417055E+03 0.  0.
         25    1    3    3    0    0  0.10583064265E+03  0.44147146129E+02 -0.64711636915E+02  0.18161552656E+03  0.12509000000E+03 0.  0.
         25    1    3    3    0    0  0.13742195693E+02  0.28759691665E+02  0.18576168586E+03  0.22620981376E+03  0.12509000000E+03 0.  0.
         25    1    1    2    0    0 -0.11957283835E+03 -0.72906837794E+02  0.19520404231E+03  0.27086010578E+03  0.12509000000E+03 0.  0.
<mgrwt>
<rscale>  2 0.60049753E+03</rscale>
<asrwt>0</asrwt>
<pdfrwt beam="1">  1       21 0.73157319E-01 0.60049753E+03</pdfrwt>
<pdfrwt beam="2">  1       21 0.26649364E-01 0.60049753E+03</pdfrwt>
<totfact> 0.19687580E+04</totfact>
</mgrwt>
</event>
<event>
 5    0  0.1116919E-004  0.6564966E+03  0.7546771E-02  0.9794665E-01
         21   -1    0    0  502  501  0.00000000000E+00  0.00000000000E+00  0.87743601276E+02  0.87743601276E+02  0.00000000000E+00 0. -1.
         21   -1    0    0  501  502 -0.00000000000E+00 -0.00000000000E+00 -0.12279750611E+04  0.12279750611E+04  0.00000000000E+00 0. -1.
         25    1    1    2    0    0  0.54852762270E+02  0.91785993203E+02 -0.35026501524E+02  0.16824939223E+03  0.12509000000E+03 0.  0.
         25    1    1    2    0    0  0.38729665618E+02 -0.34018467776E+02 -0.61614572085E+03  0.63082509507E+03  0.12509000000E+03 0.  0.
         25    1    1    2    0    0 -0.93582427888E+02 -0.57767525427E+02 -0.48905923745E+03  0.51664417507E+03  0.12509000000E+03 0.  0.
<mgrwt>
<rscale>  2 0.65649662E+03</rscale>
<asrwt>0</asrwt>
<pdfrwt beam="1">  1       21 0.12903472E-01 0.65649662E+03</pdfrwt>
<pdfrwt beam="2">  1       21 0.18058455E+00 0.65649662E+03</pdfrwt>
<totfact> 0.76402769E+03</totfact>
</mgrwt>
</event>
<event>
 6    0  0.1116919E-004  0.6750720E+03  0.7546771E-02  0.9760838E-01
         21   -1    0    0  502  501  0.00000000000E+00  0.00000000000E+00  0.10156915421E+03  0.10156915421E+03  0.00000000000E+00 0.  1.
         21   -1    0    0  501  502 -0.00000000000E+00 -0.00000000000E+00 -0.11217041532E+04  0.11217041532E+04  0.00000000000E+00 0. -1.
      99926    2    1    2    0    0  0.59466607586E+02 -0.50576025455E+02 -0.85262474231E+03  0.10001110213E+04  0.51687415477E+03 0.  0.
         25    1    3    3    0    0 -0.10469990389E+03  0.95228429389E+02 -0.11674717674E+03  0.22205390115E+03  0.12509000000E+03 0.  0.
         25    1    1    2    0    0 -0.59466607586E+02  0.50576025455E+02 -0.16751025666E+03  0.22316228614E+03  0.12509000000E+03 0.  0.
         25    1    3    3    0    0  0.16416651148E+03 -0.14580445484E+03 -0.73587756557E+03  0.77805712011E+03  0.12509000000E+03 0.  0.
<mgrwt>
<rscale>  2 0.67507197E+03</rscale>
<asrwt>0</asrwt>
<pdfrwt beam="1">  1       21 0.14936641E-01 0.67507197E+03</pdfrwt>
<pdfrwt beam="2">  1       21 0.16495648E+00 0.67507197E+03</pdfrwt>
<totfact> 0.75435595E+03</totfact>
</mgrwt>
</event>
<event>
 6    0  0.1116919E-004  0.5814096E+03  0.7546771E-02  0.9944744E-01
         21   -1    0    0  502  501  0.00000000000E+00  0.00000000000E+00  0.20326280828E+03  0.20326280828E+03  0.00000000000E+00 0. -1.
         21   -1    0    0  501  502 -0.00000000000E+00 -0.00000000000E+00 -0.41576361612E+03  0.41576361612E+03  0.00000000000E+00 0. -1.
      99926    2    1    2    0    0  0.13922840836E+03  0.50516755320E+02 -0.18888356576E+03  0.42372723217E+03  0.34918658852E+03 0.  0.
         25    1    3    3    0    0  0.74456986017E+02  0.13862084717E+03 -0.49907186734E+02  0.20711788292E+03  0.12509000000E+03 0.  0.
         25    1    3    3    0    0  0.64771422346E+02 -0.88104091853E+02 -0.13897637903E+03  0.21660934925E+03  0.12509000000E+03 0.  0.
         25    1    1    2    0    0 -0.13922840836E+03 -0.50516755320E+02 -0.23617242084E+02  0.19529919223E+03  0.12509000000E+03 0.  0.
<mgrwt>
<rscale>  2 0.58140960E+03</rscale>
<asrwt>0</asrwt>
<pdfrwt beam="1">  1       21 0.29891589E-01 0.58140960E+03</pdfrwt>
<pdfrwt beam="2">  1       21 0.61141709E-01 0.58140960E+03</pdfrwt>
<totfact> 0.23551264E+04</totfact>
</mgrwt>
</event>
<event>
 6    0  0.1116919E-004  0.9915248E+03  0.7546771E-02  0.9317889E-01
         21   -1    0    0  502  501  0.00000000000E+00  0.00000000000E+00  0.73396107781E+03  0.73396107781E+03  0.00000000000E+00 0. -1.
         21   -1    0    0  501  502 -0.00000000000E+00 -0.00000000000E+00 -0.33486838946E+03  0.33486838946E+03  0.00000000000E+00 0. -1.
      99926    2    1    2    0    0 -0.12565269422E+03 -0.33105195250E+03  0.30151739384E+02  0.54238010908E+03  0.40973535425E+03 0.  0.
         25    1    1    2    0    0  0.12565269422E+03  0.33105195250E+03  0.36894094897E+03  0.52644935819E+03  0.12509000000E+03 0.  0.
         25    1    3    3    0    0 -0.10300456830E+02  0.16094198604E+02  0.84229146862E+02  0.15201045991E+03  0.12509000000E+03 0.  0.
         25    1    3    3    0    0 -0.11535223739E+03 -0.34714615111E+03 -0.54077407478E+02  0.39036964918E+03  0.12509000000E+03 0.  0.
<mgrwt>
<rscale>  2 0.99152481E+03</rscale>
<asrwt>0</asrwt>
<pdfrwt beam="1">  1       21 0.10793545E+00 0.99152481E+03</pdfrwt>
<pdfrwt beam="2">  1       21 0.49245352E-01 0.99152481E+03</pdfrwt>
<totfact> 0.20424881E+03</totfact>
</mgrwt>
</event>
<event>
 6    0  0.1116919E-004  0.6517318E+03  0.7546771E-02  0.9803535E-01
         21   -1    0    0  502  501  0.00000000000E+00  0.00000000000E+00  0.11182704179E+03  0.11182704179E+03  0.00000000000E+00 0.  1.
         21   -1    0    0  501  502 -0.00000000000E+00 -0.00000000000E+00 -0.94957868760E+03  0.94957868760E+03  0.00000000000E+00 0.  1.
      99926    2    1    2    0    0 -0.14074312603E+03 -0.13165437103E+03 -0.49202339973E+03  0.64629486568E+03  0.37211359365E+03 0.  0.
         25    1    3    3    0    0 -0.62581732772E+02 -0.25998643492E+02 -0.23927226111E+02  0.14426511356E+03  0.12509000000E+03 0.  0.
         25    1    3    3    0    0 -0.78161393261E+02 -0.10565572754E+03 -0.46809617362E+03  0.50202975212E+03  0.12509000000E+03 0.  0.
         25    1    1    2    0    0  0.14074312603E+03  0.13165437103E+03 -0.34572824607E+03  0.41511086371E+03  0.12509000000E+03 0.  0.
<mgrwt>
<rscale>  2 0.65173177E+03</rscale>
<asrwt>0</asrwt>
<pdfrwt beam="1">  1       21 0.16445154E-01 0.65173177E+03</pdfrwt>
<pdfrwt beam="2">  1       21 0.13964392E+00 0.65173177E+03</pdfrwt>
<totfact> 0.10038058E+04</totfact>
</mgrwt>
</event>
<event>
 6    0  0.1116919E-004  0.5182118E+03  0.7546771E-02  0.1009132E+00
         21   -1    0    0  502  501  0.00000000000E+00  0.00000000000E+00  0.81023155920E+03  0.81023155920E+03  0.00000000000E+00 0.  1.
         21   -1    0    0  501  502 -0.00000000000E+00 -0.00000000000E+00 -0.82860101082E+02  0.82860101082E+02  0.00000000000E+00 0.  1.
      99926    2    1    2    0    0  0.19559531074E+02  0.10256427234E+02  0.51015669218E+03  0.64146190807E+03  0.38823415535E+03 0.  0.
         25    1    1    2    0    0 -0.19559531074E+02 -0.10256427234E+02  0.21721476594E+03  0.25162975221E+03  0.12509000000E+03 0.  0.
         25    1    3    3    0    0  0.51054952431E+02  0.41096553914E+01  0.49299052747E+03  0.51118554920E+03  0.12509000000E+03 0.  0.
         25    1    3    3    0    0 -0.31495421357E+02  0.61467718424E+01  0.17166164710E+02  0.13027635887E+03  0.12509000000E+03 0.  0.
<mgrwt>
<rscale>  2 0.51821181E+03</rscale>
<asrwt>0</asrwt>
<pdfrwt beam="1">  1       21 0.11915170E+00 0.51821181E+03</pdfrwt>
<pdfrwt beam="2">  1       21 0.12185309E-01 0.51821181E+03</pdfrwt>
<totfact> 0.27300531E+04</totfact>
</mgrwt>
</event>
<event>
 5    0  0.1116919E-004  0.1017818E+04  0.7546771E-02  0.9289215E-01
         21   -1    0    0  502  501  0.00000000000E+00  0.00000000000E+00  0.20385319679E+04  0.20385319679E+04  0.00000000000E+00 0.  1.
         21   -1    0    0  501  502 -0.00000000000E+00 -0.00000000000E+00 -0.12704660066E+03  0.12704660066E+03  0.00000000000E+00 0. -1.
         25    1    1    2    0    0 -0.96065694525E+02  0.26530836766E+03  0.53865581971E+03  0.62081780565E+03  0.12509000000E+03 0.  0.
         25    1    1    2    0    0  0.20177021772E+03  0.95383281343E+02  0.85701295927E+03  0.89438689144E+03  0.12509000000E+03 0.  0.
         25    1    1    2    0    0 -0.10570452319E+03 -0.36069164900E+03  0.51581658830E+03  0.65037387151E+03  0.12509000000E+03 0.  0.
<mgrwt>
<rscale>  2 0.10178184E+04</rscale>
<asrwt>0</asrwt>
<pdfrwt beam="1">  1       21 0.29978409E+00 0.10178184E+04</pdfrwt>
<pdfrwt beam="2">  1       21 0.18683325E-01 0.10178184E+04</pdfrwt>
<totfact> 0.59212387E+02</totfact>
</mgrwt>
</event>
<event>
 6    0  0.1116919E-004  0.8539363E+03  0.7546771E-02  0.9485069E-01
         21   -1    0    0  502  501  0.00000000000E+00  0.00000000000E+00  0.29047297264E+03  0.29047297264E+03  0.00000000000E+00 0. -1.
         21   -1    0    0  501  502 -0.00000000000E+00 -0.00000000000E+00 -0.62760338736E+03  0.62760338736E+03  0.00000000000E+00 0.  1.
      99926    2    1    2    0    0 -0.11789636212E+03  0.22916084795E+03 -0.25121847696E+03  0.61900677682E+03  0.50363123428E+03 0.  0.
         25    1    3    3    0    0 -0.84850898856E+02 -0.90833877504E+00 -0.31329416939E+03  0.34785233187E+03  0.12509000000E+03 0.  0.
         25    1    3    3    0    0 -0.33045463260E+02  0.23006918673E+03  0.62075692429E+02  0.27115444495E+03  0.12509000000E+03 0.  0.
         25    1    1    2    0    0  0.11789636212E+03 -0.22916084795E+03 -0.85911937752E+02  0.29906958318E+03  0.12509000000E+03 0.  0.
<mgrwt>
<rscale>  2 0.85393635E+03</rscale>
<asrwt>0</asrwt>
<pdfrwt beam="1">  1       21 0.42716614E-01 0.85393635E+03</pdfrwt>
<pdfrwt beam="2">  1       21 0.92294615E-01 0.85393635E+03</pdfrwt>
<totfact> 0.41672690E+03</totfact>
</mgrwt>
</event>
<event>
 5    0  0.1116919E-004  0.7356516E+03  0.7546771E-02  0.9658134E-01
         21   -1    0    0  502  501  0.00000000000E+00  0.00000000000E+00  0.17724603845E+03  0.17724603845E+03  0.00000000000E+00 0. -1.
         21   -1    0    0  501  502 -0.00000000000E+00 -0.00000000000E+00 -0.76332207433E+03  0.76332207433E+03  0.00000000000E+00 0.  1.
         25    1    1    2    0    0  0.52386489446E+02  0.10666933320E+02 -0.18969114160E+03  0.23342742994E+03  0.12509000000E+03 0.  0.
         25    1    1    2    0    0 -0.24756470000E+03 -0.11710799225E+03 -0.10264596918E+03  0.31809788686E+03  0.12509000000E+03 0.  0.
         25    1    1    2    0    0  0.19517821055E+03  0.10644105893E+03 -0.29373892509E+03  0.38904279599E+03  0.12509000000E+03 0.  0.
<mgrwt>
<rscale>  2 0.73565159E+03</rscale>
<asrwt>0</asrwt>
<pdfrwt beam="1">  1       21 0.26065594E-01 0.73565159E+03</pdfrwt>
<pdfrwt beam="2">  1       21 0.11225325E+00 0.73565159E+03</pdfrwt>
<totfact> 0.71715422E+03</totfact>
</mgrwt>
</event>
<event>
 6    0  0.1116919E-004  0.9793338E+03  0.7546771E-02  0.9331506E-01
         21   -1    0    0  502  501  0.00000000000E+00  0.00000000000E+00  0.22581850232E+03  0.22581850232E+03  0.00000000000E+00 0. -1.
         21   -1    0    0  501  502 -0.00000000000E+00 -0.00000000000E+00 -0.10617982025E+04  0.10617982025E+04  0.00000000000E+00 0.  1.
      99926    2    1    2    0    0 -0.14142185260E+03  0.27892949047E+03 -0.40614844221E+03  0.74153592372E+03  0.53583315315E+03 0.  0.
         25    1    1    2    0    0  0.14142185260E+03 -0.27892949047E+03 -0.42983125793E+03  0.54608078106E+03  0.12509000000E+03 0.  0.
         25    1    3    3    0    0 -0.30136688686E+03  0.21503370247E+03 -0.34176234704E+03  0.51914401051E+03  0.12509000000E+03 0.  0.
         25    1    3    3    0    0  0.15994503426E+03  0.63895787999E+02 -0.64386095167E+02  0.22239191321E+03  0.12509000000E+03 0.  0.
<mgrwt>
<rscale>  2 0.97933381E+03</rscale>
<asrwt>0</asrwt>
<pdfrwt beam="1">  1       21 0.33208603E-01 0.97933381E+03</pdfrwt>
<pdfrwt beam="2">  1       21 0.15614679E+00 0.97933381E+03</pdfrwt>
<totfact> 0.17506121E+03</totfact>
</mgrwt>
</event>
