<event>
 6    0  0.1539652E-007  0.4553403E+03  0.7546771E-02  0.1026141E+00
         21   -1    0    0  502  501  0.00000000000E+00  0.00000000000E+00  0.32235457177E+02  0.32235457177E+02  0.00000000000E+00 0. -1.
         21   -1    0    0  501  502 -0.00000000000E+00 -0.00000000000E+00 -0.16079716045E+04  0.16079716045E+04  0.00000000000E+00 0. -1.
      99926    2    1    2    0    0  0.00000000000E+00  0.00000000000E+00 -0.15757361474E+04  0.16402070617E+04  0.45534031142E+03 0.  0.
         25    1    3    3    0    0  0.37998708598E+02 -0.19579611906E+02 -0.26309280109E+03  0.29443605951E+03  0.12509000000E+03 0.  0.
         25    1    3    3    0    0 -0.55655402867E+02 -0.45903310851E+02 -0.83458552904E+03  0.84698592149E+03  0.12509000000E+03 0.  0.
         25    1    3    3    0    0  0.17656694269E+02  0.65482922757E+02 -0.47805781723E+03  0.49878508072E+03  0.12509000000E+03 0.  0.
<mgrwt>
<rscale>  2 0.45534031E+03</rscale>
<asrwt>0</asrwt>
<pdfrwt beam="1">  1       21 0.47405079E-02 0.45534031E+03</pdfrwt>
<pdfrwt beam="2">  1       21 0.23646644E+00 0.45534031E+03</pdfrwt>
<totfact> 0.20482074E+04</totfact>
</mgrwt>
</event>
<event>
 6    0  0.1539652E-007  0.4579880E+03  0.7546771E-02  0.1025366E+00
         21   -1    0    0  502  501  0.00000000000E+00  0.00000000000E+00  0.10502029538E+04  0.10502029538E+04  0.00000000000E+00 0.  1.
         21   -1    0    0  501  502 -0.00000000000E+00 -0.00000000000E+00 -0.49931539445E+02  0.49931539445E+02  0.00000000000E+00 0.  1.
      99926    2    1    2    0    0 -0.35527136788E-14  0.00000000000E+00  0.10002714143E+04  0.11001344932E+04  0.45798799203E+03 0.  0.
         25    1    3    3    0    0 -0.22673424275E+02  0.47566513547E+02  0.21451429092E+03  0.25385142602E+03  0.12509000000E+03 0.  0.
         25    1    3    3    0    0  0.30296184651E+02 -0.10421706998E+03  0.31545615736E+03  0.35628521131E+03  0.12509000000E+03 0.  0.
         25    1    3    3    0    0 -0.76227603762E+01  0.56650556433E+02  0.47030096604E+03  0.48999785589E+03  0.12509000000E+03 0.  0.
<mgrwt>
<rscale>  2 0.45798799E+03</rscale>
<asrwt>0</asrwt>
<pdfrwt beam="1">  1       21 0.15444160E+00 0.45798799E+03</pdfrwt>
<pdfrwt beam="2">  1       21 0.73428741E-02 0.45798799E+03</pdfrwt>
<totfact> 0.34674259E+04</totfact>
</mgrwt>
</event>
<event>
 6    0  0.1539652E-007  0.4579171E+03  0.7546771E-02  0.1025387E+00
         21   -1    0    0  502  501  0.00000000000E+00  0.00000000000E+00  0.40217428955E+02  0.40217428955E+02  0.00000000000E+00 0.  1.
         21   -1    0    0  501  502 -0.00000000000E+00 -0.00000000000E+00 -0.13034653808E+04  0.13034653808E+04  0.00000000000E+00 0.  1.
      99926    2    1    2    0    0 -0.14210854715E-13  0.71054273576E-14 -0.12632479518E+04  0.13436828097E+04  0.45791713812E+03 0.  0.
         25    1    3    3    0    0  0.18603961515E+02  0.67427867402E+01 -0.28808143613E+03  0.31469031523E+03  0.12509000000E+03 0.  0.
         25    1    3    3    0    0 -0.78122449003E+02  0.41746856682E+02 -0.28716899875E+03  0.32551414566E+03  0.12509000000E+03 0.  0.
         25    1    3    3    0    0  0.59518487488E+02 -0.48489643422E+02 -0.68799751695E+03  0.70347834886E+03  0.12509000000E+03 0.  0.
<mgrwt>
<rscale>  2 0.45791714E+03</rscale>
<asrwt>0</asrwt>
<pdfrwt beam="1">  1       21 0.59143275E-02 0.45791714E+03</pdfrwt>
<pdfrwt beam="2">  1       21 0.19168610E+00 0.45791714E+03</pdfrwt>
<totfact> 0.27248752E+04</totfact>
</mgrwt>
</event>
<event>
 6    0  0.1539652E-007  0.4558969E+03  0.7546771E-02  0.1025978E+00
         21   -1    0    0  502  501  0.00000000000E+00  0.00000000000E+00  0.47780910962E+02  0.47780910962E+02  0.00000000000E+00 0. -1.
         21   -1    0    0  501  502 -0.00000000000E+00 -0.00000000000E+00 -0.10874741436E+04  0.10874741436E+04  0.00000000000E+00 0. -1.
      99926    2    1    2    0    0  0.35527136788E-14  0.35527136788E-14 -0.10396932326E+04  0.11352550545E+04  0.45589694110E+03 0.  0.
         25    1    3    3    0    0  0.13448228136E+02  0.86802799821E+02 -0.26737738033E+03  0.30798336401E+03  0.12509000000E+03 0.  0.
         25    1    3    3    0    0 -0.36897062573E+02 -0.56304630490E+02 -0.23807156449E+03  0.27723127991E+03  0.12509000000E+03 0.  0.
         25    1    3    3    0    0  0.23448834437E+02 -0.30498169331E+02 -0.53424428779E+03  0.55004041061E+03  0.12509000000E+03 0.  0.
<mgrwt>
<rscale>  2 0.45589694E+03</rscale>
<asrwt>0</asrwt>
<pdfrwt beam="1">  1       21 0.70266044E-02 0.45589694E+03</pdfrwt>
<pdfrwt beam="2">  1       21 0.15992267E+00 0.45589694E+03</pdfrwt>
<totfact> 0.34039888E+04</totfact>
</mgrwt>
</event>
<event>
 6    0  0.1539652E-007  0.4731694E+03  0.7546771E-02  0.1021029E+00
         21   -1    0    0  502  501  0.00000000000E+00  0.00000000000E+00  0.92858392401E+02  0.92858392401E+02  0.00000000000E+00 0.  1.
         21   -1    0    0  501  502 -0.00000000000E+00 -0.00000000000E+00 -0.60277072555E+03  0.60277072555E+03  0.00000000000E+00 0.  1.
      99926    2    1    2    0    0 -0.35527136788E-14  0.00000000000E+00 -0.50991233315E+03  0.69562911795E+03  0.47316940121E+03 0.  0.
         25    1    3    3    0    0  0.25674885154E+02  0.53739289622E+02 -0.53109699883E+02  0.14837539991E+03  0.12509000000E+03 0.  0.
         25    1    3    3    0    0 -0.41864599109E+02  0.45338858093E+02 -0.23967646772E+03  0.27730952740E+03  0.12509000000E+03 0.  0.
         25    1    3    3    0    0  0.16189713955E+02 -0.99078147715E+02 -0.21712616555E+03  0.26994419064E+03  0.12509000000E+03 0.  0.
<mgrwt>
<rscale>  2 0.47316940E+03</rscale>
<asrwt>0</asrwt>
<pdfrwt beam="1">  1       21 0.13655646E-01 0.47316940E+03</pdfrwt>
<pdfrwt beam="2">  1       21 0.88642751E-01 0.47316940E+03</pdfrwt>
<totfact> 0.46170881E+04</totfact>
</mgrwt>
</event>
<event>
 6    0  0.1539652E-007  0.4548260E+03  0.7546771E-02  0.1026293E+00
         21   -1    0    0  502  501  0.00000000000E+00  0.00000000000E+00  0.70338422484E+03  0.70338422484E+03  0.00000000000E+00 0.  1.
         21   -1    0    0  501  502 -0.00000000000E+00 -0.00000000000E+00 -0.73525505048E+02  0.73525505048E+02  0.00000000000E+00 0.  1.
      99926    2    1    2    0    0  0.00000000000E+00  0.71054273576E-14  0.62985871979E+03  0.77690972989E+03  0.45482603432E+03 0.  0.
         25    1    3    3    0    0  0.19170887627E+02 -0.28813461172E+02  0.32774679636E+03  0.35250987093E+03  0.12509000000E+03 0.  0.
         25    1    3    3    0    0 -0.21221102808E+01  0.62420410906E+02  0.24442349289E+03  0.28158686586E+03  0.12509000000E+03 0.  0.
         25    1    3    3    0    0 -0.17048777346E+02 -0.33606949734E+02  0.57688430544E+02  0.14281299310E+03  0.12509000000E+03 0.  0.
<mgrwt>
<rscale>  2 0.45482603E+03</rscale>
<asrwt>0</asrwt>
<pdfrwt beam="1">  1       21 0.10343885E+00 0.45482603E+03</pdfrwt>
<pdfrwt beam="2">  1       21 0.10812575E-01 0.45482603E+03</pdfrwt>
<totfact> 0.48968801E+04</totfact>
</mgrwt>
</event>
<event>
 6    0  0.1539652E-007  0.4566433E+03  0.7546771E-02  0.1025759E+00
         21   -1    0    0  502  501  0.00000000000E+00  0.00000000000E+00  0.31727911586E+03  0.31727911586E+03  0.00000000000E+00 0. -1.
         21   -1    0    0  501  502 -0.00000000000E+00 -0.00000000000E+00 -0.16430572643E+03  0.16430572643E+03  0.00000000000E+00 0. -1.
      99926    2    1    2    0    0  0.00000000000E+00  0.00000000000E+00  0.15297338943E+03  0.48158484229E+03  0.45664329892E+03 0.  0.
         25    1    3    3    0    0  0.30607826307E+02 -0.36760848984E+02  0.96557266856E+02  0.16510303732E+03  0.12509000000E+03 0.  0.
         25    1    3    3    0    0  0.68559789432E+02  0.49268001221E+02  0.19576038402E+02  0.15217920374E+03  0.12509000000E+03 0.  0.
         25    1    3    3    0    0 -0.99167615739E+02 -0.12507152237E+02  0.36840084175E+02  0.16430260123E+03  0.12509000000E+03 0.  0.
<mgrwt>
<rscale>  2 0.45664330E+03</rscale>
<asrwt>0</asrwt>
<pdfrwt beam="1">  1       21 0.46658694E-01 0.45664330E+03</pdfrwt>
<pdfrwt beam="2">  1       21 0.24162607E-01 0.45664330E+03</pdfrwt>
<totfact> 0.65723435E+04</totfact>
</mgrwt>
</event>
<event>
 6    0  0.1539652E-007  0.4570426E+03  0.7546771E-02  0.1025642E+00
         21   -1    0    0  502  501  0.00000000000E+00  0.00000000000E+00  0.35331035082E+02  0.35331035082E+02  0.00000000000E+00 0. -1.
         21   -1    0    0  501  502 -0.00000000000E+00 -0.00000000000E+00 -0.14780765823E+04  0.14780765823E+04  0.00000000000E+00 0. -1.
      99926    2    1    2    0    0 -0.71054273576E-14  0.00000000000E+00 -0.14427455472E+04  0.15134076174E+04  0.45704256075E+03 0.  0.
         25    1    3    3    0    0  0.40127332496E+02 -0.13378399209E+02 -0.70183686175E+03  0.71415101553E+03  0.12509000000E+03 0.  0.
         25    1    3    3    0    0 -0.76225586219E+02  0.59770201346E+02 -0.33541838640E+03  0.37085821954E+03  0.12509000000E+03 0.  0.
         25    1    3    3    0    0  0.36098253723E+02 -0.46391802137E+02 -0.40549029906E+03  0.42839838230E+03  0.12509000000E+03 0.  0.
<mgrwt>
<rscale>  2 0.45704256E+03</rscale>
<asrwt>0</asrwt>
<pdfrwt beam="1">  1       21 0.51957413E-02 0.45704256E+03</pdfrwt>
<pdfrwt beam="2">  1       21 0.21736417E+00 0.45704256E+03</pdfrwt>
<totfact> 0.23084031E+04</totfact>
</mgrwt>
</event>
<event>
 6    0  0.1539652E-007  0.4536951E+03  0.7546771E-02  0.1026626E+00
         21   -1    0    0  502  501  0.00000000000E+00  0.00000000000E+00  0.10717636940E+03  0.10717636940E+03  0.00000000000E+00 0.  1.
         21   -1    0    0  501  502 -0.00000000000E+00 -0.00000000000E+00 -0.48014137933E+03  0.48014137933E+03  0.00000000000E+00 0.  1.
      99926    2    1    2    0    0  0.00000000000E+00  0.00000000000E+00 -0.37296500993E+03  0.58731774873E+03  0.45369509513E+03 0.  0.
         25    1    3    3    0    0  0.61732902613E+02 -0.24563343320E+02 -0.20933511297E+03  0.25275087878E+03  0.12509000000E+03 0.  0.
         25    1    3    3    0    0 -0.99201368186E+01 -0.35897129824E+02 -0.12638222674E+03  0.18167825511E+03  0.12509000000E+03 0.  0.
         25    1    3    3    0    0 -0.51812765794E+02  0.60460473143E+02 -0.37247670218E+02  0.15288861484E+03  0.12509000000E+03 0.  0.
<mgrwt>
<rscale>  2 0.45369510E+03</rscale>
<asrwt>0</asrwt>
<pdfrwt beam="1">  1       21 0.15761231E-01 0.45369510E+03</pdfrwt>
<pdfrwt beam="2">  1       21 0.70609027E-01 0.45369510E+03</pdfrwt>
<totfact> 0.60083067E+04</totfact>
</mgrwt>
</event>
<event>
 6    0  0.1539652E-007  0.4557208E+03  0.7546771E-02  0.1026030E+00
         21   -1    0    0  502  501  0.00000000000E+00  0.00000000000E+00  0.55405576430E+03  0.55405576430E+03  0.00000000000E+00 0.  1.
         21   -1    0    0  501  502 -0.00000000000E+00 -0.00000000000E+00 -0.93709646339E+02  0.93709646339E+02  0.00000000000E+00 0.  1.
      99926    2    1    2    0    0 -0.88817841970E-15 -0.44408920985E-15  0.46034611797E+03  0.64776541064E+03  0.45572083439E+03 0.  0.
         25    1    3    3    0    0  0.25858491871E+02 -0.89338161763E+02  0.14054667859E+03  0.20988293335E+03  0.12509000000E+03 0.  0.
         25    1    3    3    0    0  0.66078588968E+01 -0.36618584049E+01  0.20974224932E+03  0.24432845159E+03  0.12509000000E+03 0.  0.
         25    1    3    3    0    0 -0.32466350768E+02  0.93000020168E+02  0.11005719006E+03  0.19355402571E+03  0.12509000000E+03 0.  0.
<mgrwt>
<rscale>  2 0.45572083E+03</rscale>
<asrwt>0</asrwt>
<pdfrwt beam="1">  1       21 0.81478787E-01 0.45572083E+03</pdfrwt>
<pdfrwt beam="2">  1       21 0.13780831E-01 0.45572083E+03</pdfrwt>
<totfact> 0.55514021E+04</totfact>
</mgrwt>
</event>
<event>
 6    0  0.1539652E-007  0.4551220E+03  0.7546771E-02  0.1026206E+00
         21   -1    0    0  502  501  0.00000000000E+00  0.00000000000E+00  0.12334951790E+03  0.12334951790E+03  0.00000000000E+00 0. -1.
         21   -1    0    0  501  502 -0.00000000000E+00 -0.00000000000E+00 -0.41981533223E+03  0.41981533223E+03  0.00000000000E+00 0. -1.
      99926    2    1    2    0    0  0.71054273576E-14  0.00000000000E+00 -0.29646581433E+03  0.54316485013E+03  0.45512204445E+03 0.  0.
         25    1    3    3    0    0 -0.91176010544E+01  0.47878470048E+02 -0.11357993242E+03  0.17585046970E+03  0.12509000000E+03 0.  0.
         25    1    3    3    0    0  0.68645593492E+02  0.14452172644E+02 -0.20371104853E+02  0.14485707719E+03  0.12509000000E+03 0.  0.
         25    1    3    3    0    0 -0.59527992438E+02 -0.62330642693E+02 -0.16251477705E+03  0.22245730324E+03  0.12509000000E+03 0.  0.
<mgrwt>
<rscale>  2 0.45512204E+03</rscale>
<asrwt>0</asrwt>
<pdfrwt beam="1">  1       21 0.18139635E-01 0.45512204E+03</pdfrwt>
<pdfrwt beam="2">  1       21 0.61737548E-01 0.45512204E+03</pdfrwt>
<totfact> 0.62260306E+04</totfact>
</mgrwt>
</event>
<event>
 6    0  0.1539652E-007  0.4583785E+03  0.7546771E-02  0.1025253E+00
         21   -1    0    0  502  501  0.00000000000E+00  0.00000000000E+00  0.52142696794E+03  0.52142696794E+03  0.00000000000E+00 0.  1.
         21   -1    0    0  501  502 -0.00000000000E+00 -0.00000000000E+00 -0.10073839674E+03  0.10073839674E+03  0.00000000000E+00 0.  1.
      99926    2    1    2    0    0  0.00000000000E+00 -0.17763568394E-14  0.42068857119E+03  0.62216536468E+03  0.45837851943E+03 0.  0.
         25    1    3    3    0    0 -0.22954704599E+02 -0.15895906275E+02  0.12905667760E+03  0.18188659223E+03  0.12509000000E+03 0.  0.
         25    1    3    3    0    0 -0.35624492052E+02  0.53167049396E+02  0.25727442836E+03  0.29314412695E+03  0.12509000000E+03 0.  0.
         25    1    3    3    0    0  0.58579196650E+02 -0.37271143121E+02  0.34357465234E+02  0.14713464550E+03  0.12509000000E+03 0.  0.
<mgrwt>
<rscale>  2 0.45837852E+03</rscale>
<asrwt>0</asrwt>
<pdfrwt beam="1">  1       21 0.76680435E-01 0.45837852E+03</pdfrwt>
<pdfrwt beam="2">  1       21 0.14814470E-01 0.45837852E+03</pdfrwt>
<totfact> 0.55829893E+04</totfact>
</mgrwt>
</event>
<event>
 6    0  0.1539652E-007  0.4501608E+03  0.7546771E-02  0.1027674E+00
         21   -1    0    0  502  501  0.00000000000E+00  0.00000000000E+00  0.67925823174E+03  0.67925823174E+03  0.00000000000E+00 0.  1.
         21   -1    0    0  501  502 -0.00000000000E+00 -0.00000000000E+00 -0.74583097269E+02  0.74583097269E+02  0.00000000000E+00 0.  1.
      99926    2    1    2    0    0  0.53290705182E-14 -0.17763568394E-14  0.60467513447E+03  0.75384132900E+03  0.45016078358E+03 0.  0.
         25    1    3    3    0    0 -0.76940576364E+02  0.52862449639E+02  0.26876333717E+03  0.31079821489E+03  0.12509000000E+03 0.  0.
         25    1    3    3    0    0  0.14801348883E+02 -0.80574870354E+01  0.22917509039E+03  0.26163473237E+03  0.12509000000E+03 0.  0.
         25    1    3    3    0    0  0.62139227480E+02 -0.44804962604E+02  0.10673670690E+03  0.18140838174E+03  0.12509000000E+03 0.  0.
<mgrwt>
<rscale>  2 0.45016078E+03</rscale>
<asrwt>0</asrwt>
<pdfrwt beam="1">  1       21 0.99890913E-01 0.45016078E+03</pdfrwt>
<pdfrwt beam="2">  1       21 0.10968103E-01 0.45016078E+03</pdfrwt>
<totfact> 0.52025801E+04</totfact>
</mgrwt>
</event>
<event>
 6    0  0.1539652E-007  0.4546156E+03  0.7546771E-02  0.1026355E+00
         21   -1    0    0  502  501  0.00000000000E+00  0.00000000000E+00  0.28909239767E+03  0.28909239767E+03  0.00000000000E+00 0.  1.
         21   -1    0    0  501  502 -0.00000000000E+00 -0.00000000000E+00 -0.17872775653E+03  0.17872775653E+03  0.00000000000E+00 0.  1.
      99926    2    1    2    0    0  0.71054273576E-14 -0.71054273576E-14  0.11036464114E+03  0.46782015420E+03  0.45461559879E+03 0.  0.
         25    1    3    3    0    0 -0.22782859590E+02 -0.54311712667E+02  0.91365776606E+02  0.16572276264E+03  0.12509000000E+03 0.  0.
         25    1    3    3    0    0 -0.34269100373E+02 -0.37422949159E+02 -0.50042036801E+01  0.13508293200E+03  0.12509000000E+03 0.  0.
         25    1    3    3    0    0  0.57051959963E+02  0.91734661826E+02  0.24003068215E+02  0.16701445955E+03  0.12509000000E+03 0.  0.
<mgrwt>
<rscale>  2 0.45461560E+03</rscale>
<asrwt>0</asrwt>
<pdfrwt beam="1">  1       21 0.42513588E-01 0.45461560E+03</pdfrwt>
<pdfrwt beam="2">  1       21 0.26283494E-01 0.45461560E+03</pdfrwt>
<totfact> 0.67804808E+04</totfact>
</mgrwt>
</event>
<event>
 6    0  0.1539652E-007  0.4504490E+03  0.7546771E-02  0.1027588E+00
         21   -1    0    0  502  501  0.00000000000E+00  0.00000000000E+00  0.61395582249E+03  0.61395582249E+03  0.00000000000E+00 0.  1.
         21   -1    0    0  501  502 -0.00000000000E+00 -0.00000000000E+00 -0.82621717328E+02  0.82621717328E+02  0.00000000000E+00 0.  1.
      99926    2    1    2    0    0  0.00000000000E+00  0.00000000000E+00  0.53133410516E+03  0.69657753982E+03  0.45044904004E+03 0.  0.
         25    1    3    3    0    0  0.42149084373E+02 -0.39537184513E+02  0.57723470091E+02  0.14939625622E+03  0.12509000000E+03 0.  0.
         25    1    3    3    0    0 -0.29959823507E+01 -0.24018095863E+02  0.24396163077E+03  0.27522832381E+03  0.12509000000E+03 0.  0.
         25    1    3    3    0    0 -0.39153102022E+02  0.63555280376E+02  0.22964900430E+03  0.27195295979E+03  0.12509000000E+03 0.  0.
<mgrwt>
<rscale>  2 0.45044904E+03</rscale>
<asrwt>0</asrwt>
<pdfrwt beam="1">  1       21 0.90287618E-01 0.45044904E+03</pdfrwt>
<pdfrwt beam="2">  1       21 0.12150253E-01 0.45044904E+03</pdfrwt>
<totfact> 0.55034067E+04</totfact>
</mgrwt>
</event>
<event>
 6    0  0.1539652E-007  0.4534787E+03  0.7546771E-02  0.1026690E+00
         21   -1    0    0  502  501  0.00000000000E+00  0.00000000000E+00  0.56617541328E+02  0.56617541328E+02  0.00000000000E+00 0. -1.
         21   -1    0    0  501  502 -0.00000000000E+00 -0.00000000000E+00 -0.90803541224E+03  0.90803541224E+03  0.00000000000E+00 0. -1.
      99926    2    1    2    0    0  0.00000000000E+00 -0.14210854715E-13 -0.85141787091E+03  0.96465295356E+03  0.45347869842E+03 0.  0.
         25    1    3    3    0    0 -0.25117889557E+02  0.27411298780E+02 -0.20205033531E+03  0.24052886267E+03  0.12509000000E+03 0.  0.
         25    1    3    3    0    0  0.71066149053E+02  0.65209841025E+02 -0.30787156675E+03  0.34602764430E+03  0.12509000000E+03 0.  0.
         25    1    3    3    0    0 -0.45948259496E+02 -0.92621139806E+02 -0.34149596884E+03  0.37809644659E+03  0.12509000000E+03 0.  0.
<mgrwt>
<rscale>  2 0.45347870E+03</rscale>
<asrwt>0</asrwt>
<pdfrwt beam="1">  1       21 0.83261093E-02 0.45347870E+03</pdfrwt>
<pdfrwt beam="2">  1       21 0.13353461E+00 0.45347870E+03</pdfrwt>
<totfact> 0.41039081E+04</totfact>
</mgrwt>
</event>
<event>
 6    0  0.1539652E-007  0.4659948E+03  0.7546771E-02  0.1023057E+00
         21   -1    0    0  502  501  0.00000000000E+00  0.00000000000E+00  0.85206974583E+02  0.85206974583E+02  0.00000000000E+00 0. -1.
         21   -1    0    0  501  502 -0.00000000000E+00 -0.00000000000E+00 -0.63712851009E+03  0.63712851009E+03  0.00000000000E+00 0. -1.
      99926    2    1    2    0    0  0.00000000000E+00  0.71054273576E-14 -0.55192153551E+03  0.72233548467E+03  0.46599481871E+03 0.  0.
         25    1    3    3    0    0 -0.62250206325E+01  0.27663680943E+02 -0.19581574428E+03  0.23408405314E+03  0.12509000000E+03 0.  0.
         25    1    3    3    0    0  0.27476373787E+02 -0.91051011013E+02 -0.76593708911E+02  0.17481230525E+03  0.12509000000E+03 0.  0.
         25    1    3    3    0    0 -0.21251353155E+02  0.63387330071E+02 -0.27951208231E+03  0.31343912628E+03  0.12509000000E+03 0.  0.
<mgrwt>
<rscale>  2 0.46599482E+03</rscale>
<asrwt>0</asrwt>
<pdfrwt beam="1">  1       21 0.12530438E-01 0.46599482E+03</pdfrwt>
<pdfrwt beam="2">  1       21 0.93695366E-01 0.46599482E+03</pdfrwt>
<totfact> 0.47467063E+04</totfact>
</mgrwt>
</event>
<event>
 6    0  0.1539652E-007  0.4587887E+03  0.7546771E-02  0.1025133E+00
         21   -1    0    0  502  501  0.00000000000E+00  0.00000000000E+00  0.27752870188E+03  0.27752870188E+03  0.00000000000E+00 0.  1.
         21   -1    0    0  501  502 -0.00000000000E+00 -0.00000000000E+00 -0.18960837430E+03  0.18960837430E+03  0.00000000000E+00 0.  1.
      99926    2    1    2    0    0  0.71054273576E-14  0.14210854715E-13  0.87920327587E+02  0.46713707618E+03  0.45878869203E+03 0.  0.
         25    1    3    3    0    0 -0.72060560434E+02 -0.39353832477E+02  0.40098533299E+02  0.15490916362E+03  0.12509000000E+03 0.  0.
         25    1    3    3    0    0  0.41662888400E+02  0.84463425687E+02  0.74238826563E+02  0.17328813583E+03  0.12509000000E+03 0.  0.
         25    1    3    3    0    0  0.30397672033E+02 -0.45109593210E+02 -0.26417032275E+02  0.13893977673E+03  0.12509000000E+03 0.  0.
<mgrwt>
<rscale>  2 0.45878869E+03</rscale>
<asrwt>0</asrwt>
<pdfrwt beam="1">  1       21 0.40813044E-01 0.45878869E+03</pdfrwt>
<pdfrwt beam="2">  1       21 0.27883584E-01 0.45878869E+03</pdfrwt>
<totfact> 0.65652187E+04</totfact>
</mgrwt>
</event>
<event>
 6    0  0.1539652E-007  0.4817597E+03  0.7546771E-02  0.1018653E+00
         21   -1    0    0  502  501  0.00000000000E+00  0.00000000000E+00  0.23244375052E+03  0.23244375052E+03  0.00000000000E+00 0. -1.
         21   -1    0    0  501  502 -0.00000000000E+00 -0.00000000000E+00 -0.24962209266E+03  0.24962209266E+03  0.00000000000E+00 0. -1.
      99926    2    1    2    0    0  0.00000000000E+00  0.00000000000E+00 -0.17178342144E+02  0.48206584317E+03  0.48175967216E+03 0.  0.
         25    1    3    3    0    0 -0.85228647029E+02  0.32240387511E+02 -0.88587948199E+01  0.15501403552E+03  0.12509000000E+03 0.  0.
         25    1    3    3    0    0  0.56266064248E+02 -0.51830889210E+02  0.82800680435E+02  0.16839172142E+03  0.12509000000E+03 0.  0.
         25    1    3    3    0    0  0.28962582781E+02  0.19590501699E+02 -0.91120227759E+02  0.15866008624E+03  0.12509000000E+03 0.  0.
<mgrwt>
<rscale>  2 0.48175967E+03</rscale>
<asrwt>0</asrwt>
<pdfrwt beam="1">  1       21 0.34182905E-01 0.48175967E+03</pdfrwt>
<pdfrwt beam="2">  1       21 0.36709131E-01 0.48175967E+03</pdfrwt>
<totfact> 0.54099767E+04</totfact>
</mgrwt>
</event>
<event>
 6    0  0.1539652E-007  0.4545583E+03  0.7546771E-02  0.1026371E+00
         21   -1    0    0  502  501  0.00000000000E+00  0.00000000000E+00  0.52734463556E+03  0.52734463556E+03  0.00000000000E+00 0. -1.
         21   -1    0    0  501  502 -0.00000000000E+00 -0.00000000000E+00 -0.97954549072E+02  0.97954549072E+02  0.00000000000E+00 0. -1.
      99926    2    1    2    0    0 -0.71054273576E-14  0.71054273576E-14  0.42939008649E+03  0.62529918463E+03  0.45455827341E+03 0.  0.
         25    1    3    3    0    0 -0.42554105257E+02  0.31535257164E+00  0.16336122926E+03  0.21010794998E+03  0.12509000000E+03 0.  0.
         25    1    3    3    0    0 -0.49767312358E+02 -0.44462907069E+02  0.18870127933E+03  0.23602842288E+03  0.12509000000E+03 0.  0.
         25    1    3    3    0    0  0.92321417616E+02  0.44147554497E+02  0.77327577899E+02  0.17916281177E+03  0.12509000000E+03 0.  0.
<mgrwt>
<rscale>  2 0.45455827E+03</rscale>
<asrwt>0</asrwt>
<pdfrwt beam="1">  1       21 0.77550680E-01 0.45455827E+03</pdfrwt>
<pdfrwt beam="2">  1       21 0.14405081E-01 0.45455827E+03</pdfrwt>
<totfact> 0.57347183E+04</totfact>
</mgrwt>
</event>
<event>
 6    0  0.1539652E-007  0.4487115E+03  0.7546771E-02  0.1028107E+00
         21   -1    0    0  502  501  0.00000000000E+00  0.00000000000E+00  0.12489994077E+03  0.12489994077E+03  0.00000000000E+00 0.  1.
         21   -1    0    0  501  502 -0.00000000000E+00 -0.00000000000E+00 -0.40300668475E+03  0.40300668475E+03  0.00000000000E+00 0.  1.
      99926    2    1    2    0    0  0.35527136788E-14  0.00000000000E+00 -0.27810674398E+03  0.52790662551E+03  0.44871153787E+03 0.  0.
         25    1    3    3    0    0 -0.42637524295E+02  0.18532684819E+02 -0.81507076370E+02  0.15637240960E+03  0.12509000000E+03 0.  0.
         25    1    3    3    0    0  0.65280575303E+02 -0.88075134821E+01 -0.19889388211E+03  0.24401928253E+03  0.12509000000E+03 0.  0.
         25    1    3    3    0    0 -0.22643051008E+02 -0.97251713372E+01  0.22942145058E+01  0.12751493339E+03  0.12509000000E+03 0.  0.
<mgrwt>
<rscale>  2 0.44871154E+03</rscale>
<asrwt>0</asrwt>
<pdfrwt beam="1">  1       21 0.18367638E-01 0.44871154E+03</pdfrwt>
<pdfrwt beam="2">  1       21 0.59265689E-01 0.44871154E+03</pdfrwt>
<totfact> 0.66604744E+04</totfact>
</mgrwt>
</event>
<event>
 6    0  0.1539652E-007  0.4555031E+03  0.7546771E-02  0.1026094E+00
         21   -1    0    0  502  501  0.00000000000E+00  0.00000000000E+00  0.66349748354E+03  0.66349748354E+03  0.00000000000E+00 0.  1.
         21   -1    0    0  501  502 -0.00000000000E+00 -0.00000000000E+00 -0.78177779071E+02  0.78177779071E+02  0.00000000000E+00 0.  1.
      99926    2    1    2    0    0 -0.44408920985E-15  0.00000000000E+00  0.58531970446E+03  0.74167526261E+03  0.45550306116E+03 0.  0.
         25    1    3    3    0    0  0.31587669952E+02 -0.39394394886E+02  0.58166570219E+02  0.14690322404E+03  0.12509000000E+03 0.  0.
         25    1    3    3    0    0 -0.24774374496E+01  0.66691428029E+02  0.31227319131E+03  0.34295180183E+03  0.12509000000E+03 0.  0.
         25    1    3    3    0    0 -0.29110232502E+02 -0.27297033143E+02  0.21487994294E+03  0.25182023674E+03  0.12509000000E+03 0.  0.
<mgrwt>
<rscale>  2 0.45550306E+03</rscale>
<asrwt>0</asrwt>
<pdfrwt beam="1">  1       21 0.97573157E-01 0.45550306E+03</pdfrwt>
<pdfrwt beam="2">  1       21 0.11496733E-01 0.45550306E+03</pdfrwt>
<totfact> 0.50497981E+04</totfact>
</mgrwt>
</event>
<event>
 6    0  0.1539652E-007  0.4486397E+03  0.7546771E-02  0.1028128E+00
         21   -1    0    0  502  501  0.00000000000E+00  0.00000000000E+00  0.37927746797E+03  0.37927746797E+03  0.00000000000E+00 0.  1.
         21   -1    0    0  501  502 -0.00000000000E+00 -0.00000000000E+00 -0.13267174177E+03  0.13267174177E+03  0.00000000000E+00 0.  1.
      99926    2    1    2    0    0  0.00000000000E+00 -0.22204460493E-14  0.24660572620E+03  0.51194920974E+03  0.44863973204E+03 0.  0.
         25    1    3    3    0    0 -0.82353494680E+01 -0.17865364389E+01  0.96938294702E+02  0.15847887485E+03  0.12509000000E+03 0.  0.
         25    1    3    3    0    0 -0.63794740665E+02  0.54359661844E+02  0.18950482424E+02  0.15176089963E+03  0.12509000000E+03 0.  0.
         25    1    3    3    0    0  0.72030090133E+02 -0.52573125405E+02  0.13071694908E+03  0.20170943527E+03  0.12509000000E+03 0.  0.
<mgrwt>
<rscale>  2 0.44863973E+03</rscale>
<asrwt>0</asrwt>
<pdfrwt beam="1">  1       21 0.55776098E-01 0.44863973E+03</pdfrwt>
<pdfrwt beam="2">  1       21 0.19510550E-01 0.44863973E+03</pdfrwt>
<totfact> 0.67796585E+04</totfact>
</mgrwt>
</event>
<event>
 6    0  0.1539652E-007  0.4550146E+03  0.7546771E-02  0.1026237E+00
         21   -1    0    0  502  501  0.00000000000E+00  0.00000000000E+00  0.41384599582E+02  0.41384599582E+02  0.00000000000E+00 0.  1.
         21   -1    0    0  501  502 -0.00000000000E+00 -0.00000000000E+00 -0.12506963167E+04  0.12506963167E+04  0.00000000000E+00 0.  1.
      99926    2    1    2    0    0  0.00000000000E+00 -0.14210854715E-13 -0.12093117172E+04  0.12920809163E+04  0.45501457676E+03 0.  0.
         25    1    3    3    0    0  0.37630280669E+02 -0.99076740971E+02 -0.35699884269E+03  0.39284592452E+03  0.12509000000E+03 0.  0.
         25    1    3    3    0    0 -0.23269893928E+02  0.35701442273E+02 -0.55030731238E+03  0.56595205371E+03  0.12509000000E+03 0.  0.
         25    1    3    3    0    0 -0.14360386741E+02  0.63375298698E+02 -0.30200556209E+03  0.33328293809E+03  0.12509000000E+03 0.  0.
<mgrwt>
<rscale>  2 0.45501458E+03</rscale>
<asrwt>0</asrwt>
<pdfrwt beam="1">  1       21 0.60859703E-02 0.45501458E+03</pdfrwt>
<pdfrwt beam="2">  1       21 0.18392594E+00 0.45501458E+03</pdfrwt>
<totfact> 0.29342249E+04</totfact>
</mgrwt>
</event>
<event>
 6    0  0.1539652E-007  0.4336980E+03  0.7546771E-02  0.1032698E+00
         21   -1    0    0  502  501  0.00000000000E+00  0.00000000000E+00  0.97269349182E+02  0.97269349182E+02  0.00000000000E+00 0. -1.
         21   -1    0    0  501  502 -0.00000000000E+00 -0.00000000000E+00 -0.48343592819E+03  0.48343592819E+03  0.00000000000E+00 0. -1.
      99926    2    1    2    0    0  0.00000000000E+00 -0.88817841970E-15 -0.38616657901E+03  0.58070527737E+03  0.43369804291E+03 0.  0.
         25    1    3    3    0    0  0.35595088144E+02 -0.26722303807E+02 -0.39038148846E+02  0.13839283575E+03  0.12509000000E+03 0.  0.
         25    1    3    3    0    0 -0.31608102505E+02  0.41735723439E+01 -0.25322755420E+03  0.28423263915E+03  0.12509000000E+03 0.  0.
         25    1    3    3    0    0 -0.39869856389E+01  0.22548731463E+02 -0.93900875960E+02  0.15807980248E+03  0.12509000000E+03 0.  0.
<mgrwt>
<rscale>  2 0.43369804E+03</rscale>
<asrwt>0</asrwt>
<pdfrwt beam="1">  1       21 0.14304316E-01 0.43369804E+03</pdfrwt>
<pdfrwt beam="2">  1       21 0.71093518E-01 0.43369804E+03</pdfrwt>
<totfact> 0.71122951E+04</totfact>
</mgrwt>
</event>
<event>
 6    0  0.1539652E-007  0.4475451E+03  0.7546771E-02  0.1028457E+00
         21   -1    0    0  502  501  0.00000000000E+00  0.00000000000E+00  0.19323935750E+04  0.19323935750E+04  0.00000000000E+00 0.  1.
         21   -1    0    0  501  502 -0.00000000000E+00 -0.00000000000E+00 -0.25913026120E+02  0.25913026120E+02  0.00000000000E+00 0.  1.
      99926    2    1    2    0    0 -0.71054273576E-14  0.00000000000E+00  0.19064805488E+04  0.19583066011E+04  0.44754514937E+03 0.  0.
         25    1    3    3    0    0  0.47798034664E+02 -0.41733850668E+02  0.94490934882E+03  0.95526308000E+03  0.12509000000E+03 0.  0.
         25    1    3    3    0    0  0.66126590985E+01  0.69930695967E+02  0.55635057432E+03  0.57454982303E+03  0.12509000000E+03 0.  0.
         25    1    3    3    0    0 -0.54410693763E+02 -0.28196845299E+02  0.40522062569E+03  0.42849369805E+03  0.12509000000E+03 0.  0.
<mgrwt>
<rscale>  2 0.44754515E+03</rscale>
<asrwt>0</asrwt>
<pdfrwt beam="1">  1       21 0.28417543E+00 0.44754515E+03</pdfrwt>
<pdfrwt beam="2">  1       21 0.38107405E-02 0.44754515E+03</pdfrwt>
<totfact> 0.15267204E+04</totfact>
</mgrwt>
</event>
<event>
 6    0  0.1539652E-007  0.4577267E+03  0.7546771E-02  0.1025443E+00
         21   -1    0    0  502  501  0.00000000000E+00  0.00000000000E+00  0.66896215975E+03  0.66896215975E+03  0.00000000000E+00 0.  1.
         21   -1    0    0  501  502 -0.00000000000E+00 -0.00000000000E+00 -0.78298042082E+02  0.78298042082E+02  0.00000000000E+00 0.  1.
      99926    2    1    2    0    0  0.00000000000E+00  0.00000000000E+00  0.59066411767E+03  0.74726020183E+03  0.45772667536E+03 0.  0.
         25    1    3    3    0    0  0.42470419500E+01  0.33877410175E+02  0.27844981466E+03  0.30716042009E+03  0.12509000000E+03 0.  0.
         25    1    3    3    0    0 -0.37013413282E+02 -0.10046831107E+03  0.17052996828E+03  0.23704820706E+03  0.12509000000E+03 0.  0.
         25    1    3    3    0    0  0.32766371332E+02  0.66590900891E+02  0.14168433473E+03  0.20305157468E+03  0.12509000000E+03 0.  0.
<mgrwt>
<rscale>  2 0.45772668E+03</rscale>
<asrwt>0</asrwt>
<pdfrwt beam="1">  1       21 0.98376785E-01 0.45772668E+03</pdfrwt>
<pdfrwt beam="2">  1       21 0.11514418E-01 0.45772668E+03</pdfrwt>
<totfact> 0.49344916E+04</totfact>
</mgrwt>
</event>
<event>
 6    0  0.1539652E-007  0.4557537E+03  0.7546771E-02  0.1026020E+00
         21   -1    0    0  502  501  0.00000000000E+00  0.00000000000E+00  0.22649645806E+03  0.22649645806E+03  0.00000000000E+00 0.  1.
         21   -1    0    0  501  502 -0.00000000000E+00 -0.00000000000E+00 -0.22926569548E+03  0.22926569548E+03  0.00000000000E+00 0.  1.
      99926    2    1    2    0    0  0.00000000000E+00  0.00000000000E+00 -0.27692374202E+01  0.45576215354E+03  0.45575374044E+03 0.  0.
         25    1    3    3    0    0  0.17866250364E+02  0.64403683863E+02  0.14669515841E+02  0.14258239790E+03  0.12509000000E+03 0.  0.
         25    1    3    3    0    0  0.10203444311E+02 -0.11873249865E+03  0.66828599217E+00  0.17276999513E+03  0.12509000000E+03 0.  0.
         25    1    3    3    0    0 -0.28069694675E+02  0.54328814786E+02 -0.18107039253E+02  0.14040976051E+03  0.12509000000E+03 0.  0.
<mgrwt>
<rscale>  2 0.45575374E+03</rscale>
<asrwt>0</asrwt>
<pdfrwt beam="1">  1       21 0.33308303E-01 0.45575374E+03</pdfrwt>
<pdfrwt beam="2">  1       21 0.33715543E-01 0.45575374E+03</pdfrwt>
<totfact> 0.68079634E+04</totfact>
</mgrwt>
</event>
<event>
 6    0  0.1539652E-007  0.4577092E+03  0.7546771E-02  0.1025448E+00
         21   -1    0    0  502  501  0.00000000000E+00  0.00000000000E+00  0.60186115307E+03  0.60186115307E+03  0.00000000000E+00 0.  1.
         21   -1    0    0  501  502 -0.00000000000E+00 -0.00000000000E+00 -0.87020792202E+02  0.87020792202E+02  0.00000000000E+00 0.  1.
      99926    2    1    2    0    0  0.35527136788E-14  0.00000000000E+00  0.51484036087E+03  0.68888194527E+03  0.45770922794E+03 0.  0.
         25    1    3    3    0    0 -0.34911397181E+02 -0.10053720359E+03  0.12673614450E+03  0.20745142415E+03  0.12509000000E+03 0.  0.
         25    1    3    3    0    0 -0.17424092707E+02  0.26021099589E+02  0.15462586197E+03  0.20133892301E+03  0.12509000000E+03 0.  0.
         25    1    3    3    0    0  0.52335489888E+02  0.74516104005E+02  0.23347835440E+03  0.28009159811E+03  0.12509000000E+03 0.  0.
<mgrwt>
<rscale>  2 0.45770923E+03</rscale>
<asrwt>0</asrwt>
<pdfrwt beam="1">  1       21 0.88508991E-01 0.45770923E+03</pdfrwt>
<pdfrwt beam="2">  1       21 0.12797176E-01 0.45770923E+03</pdfrwt>
<totfact> 0.52384666E+04</totfact>
</mgrwt>
</event>
<event>
 6    0  0.1539652E-007  0.4530599E+03  0.7546771E-02  0.1026813E+00
         21   -1    0    0  502  501  0.00000000000E+00  0.00000000000E+00  0.48795840208E+03  0.48795840208E+03  0.00000000000E+00 0. -1.
         21   -1    0    0  501  502 -0.00000000000E+00 -0.00000000000E+00 -0.10516432821E+03  0.10516432821E+03  0.00000000000E+00 0. -1.
      99926    2    1    2    0    0  0.00000000000E+00  0.00000000000E+00  0.38279407387E+03  0.59312273029E+03  0.45305989692E+03 0.  0.
         25    1    3    3    0    0 -0.37462815264E+02 -0.11150487801E+03  0.16300910850E+03  0.23676207023E+03  0.12509000000E+03 0.  0.
         25    1    3    3    0    0  0.33585560172E+02  0.54116922900E+02  0.13448669030E+03  0.19439858323E+03  0.12509000000E+03 0.  0.
         25    1    3    3    0    0  0.38772550924E+01  0.57387955106E+02  0.85298275072E+02  0.16196207682E+03  0.12509000000E+03 0.  0.
<mgrwt>
<rscale>  2 0.45305990E+03</rscale>
<asrwt>0</asrwt>
<pdfrwt beam="1">  1       21 0.71758588E-01 0.45305990E+03</pdfrwt>
<pdfrwt beam="2">  1       21 0.15465343E-01 0.45305990E+03</pdfrwt>
<totfact> 0.60018523E+04</totfact>
</mgrwt>
</event>
<event>
 6    0  0.1539652E-007  0.4531443E+03  0.7546771E-02  0.1026789E+00
         21   -1    0    0  502  501  0.00000000000E+00  0.00000000000E+00  0.17935625215E+03  0.17935625215E+03  0.00000000000E+00 0.  1.
         21   -1    0    0  501  502 -0.00000000000E+00 -0.00000000000E+00 -0.28621776889E+03  0.28621776889E+03  0.00000000000E+00 0.  1.
      99926    2    1    2    0    0  0.00000000000E+00  0.00000000000E+00 -0.10686151674E+03  0.46557402104E+03  0.45314433165E+03 0.  0.
         25    1    3    3    0    0  0.27406010245E+01 -0.54772610999E+02 -0.23128835163E+02  0.13852797886E+03  0.12509000000E+03 0.  0.
         25    1    3    3    0    0  0.33830423618E+02 -0.57344840428E+02 -0.17371951503E+02  0.14276631635E+03  0.12509000000E+03 0.  0.
         25    1    3    3    0    0 -0.36571024643E+02  0.11211745143E+03 -0.66360730070E+02  0.18427972583E+03  0.12509000000E+03 0.  0.
<mgrwt>
<rscale>  2 0.45314433E+03</rscale>
<asrwt>0</asrwt>
<pdfrwt beam="1">  1       21 0.26375920E-01 0.45314433E+03</pdfrwt>
<pdfrwt beam="2">  1       21 0.42090848E-01 0.45314433E+03</pdfrwt>
<totfact> 0.68773283E+04</totfact>
</mgrwt>
</event>
<event>
 6    0  0.1539652E-007  0.4430630E+03  0.7546771E-02  0.1029811E+00
         21   -1    0    0  502  501  0.00000000000E+00  0.00000000000E+00  0.36451182178E+03  0.36451182178E+03  0.00000000000E+00 0.  1.
         21   -1    0    0  501  502 -0.00000000000E+00 -0.00000000000E+00 -0.13463542440E+03  0.13463542440E+03  0.00000000000E+00 0.  1.
      99926    2    1    2    0    0 -0.71054273576E-14  0.00000000000E+00  0.22987639738E+03  0.49914724618E+03  0.44306299247E+03 0.  0.
         25    1    3    3    0    0 -0.55907593414E+01 -0.19453918876E+02  0.16549504419E+03  0.20843663138E+03  0.12509000000E+03 0.  0.
         25    1    3    3    0    0 -0.41938447006E+02 -0.38389486549E+02  0.37979608272E+02  0.14255716313E+03  0.12509000000E+03 0.  0.
         25    1    3    3    0    0  0.47529206347E+02  0.57843405425E+02  0.26401744922E+02  0.14815345167E+03  0.12509000000E+03 0.  0.
<mgrwt>
<rscale>  2 0.44306299E+03</rscale>
<asrwt>0</asrwt>
<pdfrwt beam="1">  1       21 0.53604680E-01 0.44306299E+03</pdfrwt>
<pdfrwt beam="2">  1       21 0.19799327E-01 0.44306299E+03</pdfrwt>
<totfact> 0.71905569E+04</totfact>
</mgrwt>
</event>
<event>
 6    0  0.1539652E-007  0.4544876E+03  0.7546771E-02  0.1026392E+00
         21   -1    0    0  502  501  0.00000000000E+00  0.00000000000E+00  0.99698167938E+02  0.99698167938E+02  0.00000000000E+00 0.  1.
         21   -1    0    0  501  502 -0.00000000000E+00 -0.00000000000E+00 -0.51796084231E+03  0.51796084231E+03  0.00000000000E+00 0.  1.
      99926    2    1    2    0    0 -0.53290705182E-14  0.00000000000E+00 -0.41826267438E+03  0.61765901025E+03  0.45448761058E+03 0.  0.
         25    1    3    3    0    0 -0.55822044188E+02 -0.29684303678E+02 -0.81044612627E+02  0.16190427986E+03  0.12509000000E+03 0.  0.
         25    1    3    3    0    0  0.66469902727E+02  0.88769117152E+02 -0.19916602476E+03  0.26002464816E+03  0.12509000000E+03 0.  0.
         25    1    3    3    0    0 -0.10647858539E+02 -0.59084813474E+02 -0.13805203699E+03  0.19573008223E+03  0.12509000000E+03 0.  0.
<mgrwt>
<rscale>  2 0.45448761E+03</rscale>
<asrwt>0</asrwt>
<pdfrwt beam="1">  1       21 0.14661495E-01 0.45448761E+03</pdfrwt>
<pdfrwt beam="2">  1       21 0.76170712E-01 0.45448761E+03</pdfrwt>
<totfact> 0.57837947E+04</totfact>
</mgrwt>
</event>
<event>
 6    0  0.1539652E-007  0.4422488E+03  0.7546771E-02  0.1030059E+00
         21   -1    0    0  502  501  0.00000000000E+00  0.00000000000E+00  0.56045852096E+03  0.56045852096E+03  0.00000000000E+00 0.  1.
         21   -1    0    0  501  502 -0.00000000000E+00 -0.00000000000E+00 -0.87242836722E+02  0.87242836722E+02  0.00000000000E+00 0.  1.
      99926    2    1    2    0    0  0.00000000000E+00  0.35527136788E-14  0.47321568423E+03  0.64770135768E+03  0.44224875911E+03 0.  0.
         25    1    3    3    0    0 -0.32942337124E+02 -0.29133199876E+02  0.12965911711E+03  0.18545332475E+03  0.12509000000E+03 0.  0.
         25    1    3    3    0    0 -0.19820784948E+02  0.32691303561E+01  0.28549387331E+03  0.31234245713E+03  0.12509000000E+03 0.  0.
         25    1    3    3    0    0  0.52763122073E+02  0.25864069520E+02  0.58062693816E+02  0.14990557580E+03  0.12509000000E+03 0.  0.
<mgrwt>
<rscale>  2 0.44224876E+03</rscale>
<asrwt>0</asrwt>
<pdfrwt beam="1">  1       21 0.82420369E-01 0.44224876E+03</pdfrwt>
<pdfrwt beam="2">  1       21 0.12829829E-01 0.44224876E+03</pdfrwt>
<totfact> 0.61821563E+04</totfact>
</mgrwt>
</event>
<event>
 6    0  0.1539652E-007  0.4586057E+03  0.7546771E-02  0.1025186E+00
         21   -1    0    0  502  501  0.00000000000E+00  0.00000000000E+00  0.35366955562E+03  0.35366955562E+03  0.00000000000E+00 0. -1.
         21   -1    0    0  501  502 -0.00000000000E+00 -0.00000000000E+00 -0.14866929589E+03  0.14866929589E+03  0.00000000000E+00 0. -1.
      99926    2    1    2    0    0 -0.35527136788E-14  0.71054273576E-14  0.20500025973E+03  0.50233885152E+03  0.45860572964E+03 0.  0.
         25    1    3    3    0    0 -0.28769486582E+02  0.10606479448E+02  0.38488058996E+02  0.13442105322E+03  0.12509000000E+03 0.  0.
         25    1    3    3    0    0  0.27515677947E+02 -0.60398794699E+02  0.18395977023E+03  0.23215045143E+03  0.12509000000E+03 0.  0.
         25    1    3    3    0    0  0.12538086344E+01  0.49792315251E+02 -0.17447569498E+02  0.13576734687E+03  0.12509000000E+03 0.  0.
<mgrwt>
<rscale>  2 0.45860573E+03</rscale>
<asrwt>0</asrwt>
<pdfrwt beam="1">  1       21 0.52010229E-01 0.45860573E+03</pdfrwt>
<pdfrwt beam="2">  1       21 0.21863132E-01 0.45860573E+03</pdfrwt>
<totfact> 0.63276067E+04</totfact>
</mgrwt>
</event>
<event>
 6    0  0.1539652E-007  0.4495196E+03  0.7546771E-02  0.1027865E+00
         21   -1    0    0  502  501  0.00000000000E+00  0.00000000000E+00  0.87031792938E+03  0.87031792938E+03  0.00000000000E+00 0. -1.
         21   -1    0    0  501  502 -0.00000000000E+00 -0.00000000000E+00 -0.58044267317E+02  0.58044267317E+02  0.00000000000E+00 0. -1.
      99926    2    1    2    0    0  0.00000000000E+00  0.88817841970E-15  0.81227366206E+03  0.92836219669E+03  0.44951959487E+03 0.  0.
         25    1    3    3    0    0 -0.40785116544E+02 -0.63600077339E+01  0.17852155754E+03  0.22185880654E+03  0.12509000000E+03 0.  0.
         25    1    3    3    0    0 -0.30908592632E+02 -0.38826260569E+02  0.44398469770E+03  0.46393182635E+03  0.12509000000E+03 0.  0.
         25    1    3    3    0    0  0.71693709176E+02  0.45186268303E+02  0.18976740682E+03  0.24257156381E+03  0.12509000000E+03 0.  0.
<mgrwt>
<rscale>  2 0.44951959E+03</rscale>
<asrwt>0</asrwt>
<pdfrwt beam="1">  1       21 0.12798792E+00 0.44951959E+03</pdfrwt>
<pdfrwt beam="2">  1       21 0.85359222E-02 0.44951959E+03</pdfrwt>
<totfact> 0.43880646E+04</totfact>
</mgrwt>
</event>
<event>
 6    0  0.1539652E-007  0.4540282E+03  0.7546771E-02  0.1026528E+00
         21   -1    0    0  502  501  0.00000000000E+00  0.00000000000E+00  0.32970451099E+03  0.32970451099E+03  0.00000000000E+00 0.  1.
         21   -1    0    0  501  502 -0.00000000000E+00 -0.00000000000E+00 -0.15630782324E+03  0.15630782324E+03  0.00000000000E+00 0.  1.
      99926    2    1    2    0    0  0.00000000000E+00  0.00000000000E+00  0.17339668775E+03  0.48601233423E+03  0.45402816840E+03 0.  0.
         25    1    3    3    0    0  0.95674916025E+02 -0.23479506869E+02  0.63167495784E+02  0.17129686927E+03  0.12509000000E+03 0.  0.
         25    1    3    3    0    0 -0.35854286038E+02 -0.47500597785E+02  0.42889402276E+02  0.14501325989E+03  0.12509000000E+03 0.  0.
         25    1    3    3    0    0 -0.59820629986E+02  0.70980104655E+02  0.67339789690E+02  0.16970220507E+03  0.12509000000E+03 0.  0.
<mgrwt>
<rscale>  2 0.45402817E+03</rscale>
<asrwt>0</asrwt>
<pdfrwt beam="1">  1       21 0.48485958E-01 0.45402817E+03</pdfrwt>
<pdfrwt beam="2">  1       21 0.22986444E-01 0.45402817E+03</pdfrwt>
<totfact> 0.66778692E+04</totfact>
</mgrwt>
</event>
<event>
 6    0  0.1539652E-007  0.4553250E+03  0.7546771E-02  0.1026146E+00
         21   -1    0    0  502  501  0.00000000000E+00  0.00000000000E+00  0.26697581398E+03  0.26697581398E+03  0.00000000000E+00 0. -1.
         21   -1    0    0  501  502 -0.00000000000E+00 -0.00000000000E+00 -0.19413821921E+03  0.19413821921E+03  0.00000000000E+00 0. -1.
      99926    2    1    2    0    0  0.00000000000E+00  0.00000000000E+00  0.72837594766E+02  0.46111403319E+03  0.45532497889E+03 0.  0.
         25    1    3    3    0    0 -0.11237049686E+02  0.44978590051E+00 -0.15307919979E+02  0.12652396653E+03  0.12509000000E+03 0.  0.
         25    1    3    3    0    0 -0.27155934450E+02 -0.18356975610E+02 -0.54379540850E+02  0.14028209398E+03  0.12509000000E+03 0.  0.
         25    1    3    3    0    0  0.38392984135E+02  0.17907189709E+02  0.14252505560E+03  0.19430797268E+03  0.12509000000E+03 0.  0.
<mgrwt>
<rscale>  2 0.45532498E+03</rscale>
<asrwt>0</asrwt>
<pdfrwt beam="1">  1       21 0.39261149E-01 0.45532498E+03</pdfrwt>
<pdfrwt beam="2">  1       21 0.28549738E-01 0.45532498E+03</pdfrwt>
<totfact> 0.67923221E+04</totfact>
</mgrwt>
</event>
<event>
 6    0  0.1539652E-007  0.4542507E+03  0.7546771E-02  0.1026462E+00
         21   -1    0    0  502  501  0.00000000000E+00  0.00000000000E+00  0.32880452107E+03  0.32880452107E+03  0.00000000000E+00 0.  1.
         21   -1    0    0  501  502 -0.00000000000E+00 -0.00000000000E+00 -0.15688936619E+03  0.15688936619E+03  0.00000000000E+00 0.  1.
      99926    2    1    2    0    0  0.00000000000E+00  0.00000000000E+00  0.17191515489E+03  0.48569388726E+03  0.45425073654E+03 0.  0.
         25    1    3    3    0    0  0.41847887817E+02 -0.98496259566E+02  0.33769159880E+02  0.16804946630E+03  0.12509000000E+03 0.  0.
         25    1    3    3    0    0 -0.10362341246E+02  0.14568007195E+02  0.30945503774E+02  0.13009510849E+03  0.12509000000E+03 0.  0.
         25    1    3    3    0    0 -0.31485546571E+02  0.83928252371E+02  0.10720049123E+03  0.18754931247E+03  0.12509000000E+03 0.  0.
<mgrwt>
<rscale>  2 0.45425074E+03</rscale>
<asrwt>0</asrwt>
<pdfrwt beam="1">  1       21 0.48353606E-01 0.45425074E+03</pdfrwt>
<pdfrwt beam="2">  1       21 0.23071966E-01 0.45425074E+03</pdfrwt>
<totfact> 0.66683662E+04</totfact>
</mgrwt>
</event>
<event>
 6    0  0.1539652E-007  0.4735045E+03  0.7546771E-02  0.1020936E+00
         21   -1    0    0  502  501  0.00000000000E+00  0.00000000000E+00  0.12165793711E+03  0.12165793711E+03  0.00000000000E+00 0. -1.
         21   -1    0    0  501  502 -0.00000000000E+00 -0.00000000000E+00 -0.46073133951E+03  0.46073133951E+03  0.00000000000E+00 0. -1.
      99926    2    1    2    0    0  0.00000000000E+00 -0.17763568394E-14 -0.33907340240E+03  0.58238927661E+03  0.47350448498E+03 0.  0.
         25    1    3    3    0    0  0.65799865575E+02  0.14555453617E+02 -0.58884963374E+02  0.15380647110E+03  0.12509000000E+03 0.  0.
         25    1    3    3    0    0 -0.11234634203E+03 -0.65907590331E+02 -0.14218865246E+03  0.22984915057E+03  0.12509000000E+03 0.  0.
         25    1    3    3    0    0  0.46546476452E+02  0.51352136713E+02 -0.13799978657E+03  0.19873365495E+03  0.12509000000E+03 0.  0.
<mgrwt>
<rscale>  2 0.47350448E+03</rscale>
<asrwt>0</asrwt>
<pdfrwt beam="1">  1       21 0.17890873E-01 0.47350448E+03</pdfrwt>
<pdfrwt beam="2">  1       21 0.67754609E-01 0.47350448E+03</pdfrwt>
<totfact> 0.51775223E+04</totfact>
</mgrwt>
</event>
<event>
 6    0  0.1539652E-007  0.4656245E+03  0.7546771E-02  0.1023162E+00
         21   -1    0    0  502  501  0.00000000000E+00  0.00000000000E+00  0.10074066376E+03  0.10074066376E+03  0.00000000000E+00 0. -1.
         21   -1    0    0  501  502 -0.00000000000E+00 -0.00000000000E+00 -0.53803049208E+03  0.53803049208E+03  0.00000000000E+00 0. -1.
      99926    2    1    2    0    0  0.00000000000E+00  0.00000000000E+00 -0.43728982833E+03  0.63877115584E+03  0.46562452209E+03 0.  0.
         25    1    3    3    0    0 -0.50006064930E+02  0.77949550038E+01 -0.19842661398E+03  0.23996249100E+03  0.12509000000E+03 0.  0.
         25    1    3    3    0    0 -0.60641581378E+01  0.74784405477E+02 -0.17158723244E+03  0.22520916445E+03  0.12509000000E+03 0.  0.
         25    1    3    3    0    0  0.56070223068E+02 -0.82579360481E+02 -0.67275981911E+02  0.17359950039E+03  0.12509000000E+03 0.  0.
<mgrwt>
<rscale>  2 0.46562452E+03</rscale>
<asrwt>0</asrwt>
<pdfrwt beam="1">  1       21 0.14814803E-01 0.46562452E+03</pdfrwt>
<pdfrwt beam="2">  1       21 0.79122132E-01 0.46562452E+03</pdfrwt>
<totfact> 0.51865194E+04</totfact>
</mgrwt>
</event>
<event>
 6    0  0.1539652E-007  0.4569082E+03  0.7546771E-02  0.1025682E+00
         21   -1    0    0  502  501  0.00000000000E+00  0.00000000000E+00  0.35660748425E+03  0.35660748425E+03  0.00000000000E+00 0. -1.
         21   -1    0    0  501  502 -0.00000000000E+00 -0.00000000000E+00 -0.14635496134E+03  0.14635496134E+03  0.00000000000E+00 0. -1.
      99926    2    1    2    0    0  0.00000000000E+00  0.00000000000E+00  0.21025252290E+03  0.50296244559E+03  0.45690819460E+03 0.  0.
         25    1    3    3    0    0 -0.19777874034E+02  0.69907961189E+02 -0.15297567600E+02  0.14546412277E+03  0.12509000000E+03 0.  0.
         25    1    3    3    0    0 -0.34948096323E+02 -0.23417279762E+02  0.91518077269E+02  0.16060138541E+03  0.12509000000E+03 0.  0.
         25    1    3    3    0    0  0.54725970357E+02 -0.46490681427E+02  0.13403201323E+03  0.19689693741E+03  0.12509000000E+03 0.  0.
<mgrwt>
<rscale>  2 0.45690819E+03</rscale>
<asrwt>0</asrwt>
<pdfrwt beam="1">  1       21 0.52442277E-01 0.45690819E+03</pdfrwt>
<pdfrwt beam="2">  1       21 0.21522788E-01 0.45690819E+03</pdfrwt>
<totfact> 0.64086810E+04</totfact>
</mgrwt>
</event>
<event>
 6    0  0.1539652E-007  0.4670659E+03  0.7546771E-02  0.1022752E+00
         21   -1    0    0  502  501  0.00000000000E+00  0.00000000000E+00  0.41151058169E+02  0.41151058169E+02  0.00000000000E+00 0.  1.
         21   -1    0    0  501  502 -0.00000000000E+00 -0.00000000000E+00 -0.13253033183E+04  0.13253033183E+04  0.00000000000E+00 0.  1.
      99926    2    1    2    0    0  0.00000000000E+00  0.00000000000E+00 -0.12841522601E+04  0.13664543765E+04  0.46706587947E+03 0.  0.
         25    1    3    3    0    0  0.48160121998E+02 -0.18821453443E+02 -0.38141043518E+03  0.40471603950E+03  0.12509000000E+03 0.  0.
         25    1    3    3    0    0  0.21610774154E+02  0.10456461897E+03 -0.42896235065E+03  0.45940939419E+03  0.12509000000E+03 0.  0.
         25    1    3    3    0    0 -0.69770896152E+02 -0.85743165522E+02 -0.47377947429E+03  0.50232894277E+03  0.12509000000E+03 0.  0.
<mgrwt>
<rscale>  2 0.46706588E+03</rscale>
<asrwt>0</asrwt>
<pdfrwt beam="1">  1       21 0.60516269E-02 0.46706588E+03</pdfrwt>
<pdfrwt beam="2">  1       21 0.19489752E+00 0.46706588E+03</pdfrwt>
<totfact> 0.24828437E+04</totfact>
</mgrwt>
</event>
<event>
 6    0  0.1539652E-007  0.4628570E+03  0.7546771E-02  0.1023956E+00
         21   -1    0    0  502  501  0.00000000000E+00  0.00000000000E+00  0.95966860491E+02  0.95966860491E+02  0.00000000000E+00 0.  1.
         21   -1    0    0  501  502 -0.00000000000E+00 -0.00000000000E+00 -0.55810054240E+03  0.55810054240E+03  0.00000000000E+00 0.  1.
      99926    2    1    2    0    0  0.00000000000E+00  0.00000000000E+00 -0.46213368191E+03  0.65406740289E+03  0.46285702714E+03 0.  0.
         25    1    3    3    0    0 -0.20151234296E+02 -0.15758770935E+02 -0.15089260036E+03  0.19766258130E+03  0.12509000000E+03 0.  0.
         25    1    3    3    0    0 -0.50772019703E+02 -0.44794971499E+02 -0.47486788208E+02  0.14995629567E+03  0.12509000000E+03 0.  0.
         25    1    3    3    0    0  0.70923254000E+02  0.60553742434E+02 -0.26375429334E+03  0.30644852592E+03  0.12509000000E+03 0.  0.
<mgrwt>
<rscale>  2 0.46285703E+03</rscale>
<asrwt>0</asrwt>
<pdfrwt beam="1">  1       21 0.14112773E-01 0.46285703E+03</pdfrwt>
<pdfrwt beam="2">  1       21 0.82073611E-01 0.46285703E+03</pdfrwt>
<totfact> 0.52159016E+04</totfact>
</mgrwt>
</event>
<event>
 6    0  0.1539652E-007  0.4556603E+03  0.7546771E-02  0.1026047E+00
         21   -1    0    0  502  501  0.00000000000E+00  0.00000000000E+00  0.55320936820E+03  0.55320936820E+03  0.00000000000E+00 0.  1.
         21   -1    0    0  501  502 -0.00000000000E+00 -0.00000000000E+00 -0.93828069591E+02  0.93828069591E+02  0.00000000000E+00 0.  1.
      99926    2    1    2    0    0  0.00000000000E+00 -0.71054273576E-14  0.45938129861E+03  0.64703743779E+03  0.45566025544E+03 0.  0.
         25    1    3    3    0    0  0.10792316879E+02 -0.35829168620E+02  0.91888364186E+02  0.15965958474E+03  0.12509000000E+03 0.  0.
         25    1    3    3    0    0  0.69294853995E+02  0.64781816105E+02  0.12128744183E+03  0.19838500985E+03  0.12509000000E+03 0.  0.
         25    1    3    3    0    0 -0.80087170875E+02 -0.28952647486E+02  0.24620549259E+03  0.28899284320E+03  0.12509000000E+03 0.  0.
<mgrwt>
<rscale>  2 0.45566026E+03</rscale>
<asrwt>0</asrwt>
<pdfrwt beam="1">  1       21 0.81354317E-01 0.45566026E+03</pdfrwt>
<pdfrwt beam="2">  1       21 0.13798246E-01 0.45566026E+03</pdfrwt>
<totfact> 0.55582376E+04</totfact>
</mgrwt>
</event>
<event>
 6    0  0.1539652E-007  0.4475652E+03  0.7546771E-02  0.1028451E+00
         21   -1    0    0  502  501  0.00000000000E+00  0.00000000000E+00  0.81205518688E+02  0.81205518688E+02  0.00000000000E+00 0. -1.
         21   -1    0    0  501  502 -0.00000000000E+00 -0.00000000000E+00 -0.61669023773E+03  0.61669023773E+03  0.00000000000E+00 0. -1.
      99926    2    1    2    0    0  0.35527136788E-14  0.26645352591E-14 -0.53548471905E+03  0.69789575642E+03  0.44756519358E+03 0.  0.
         25    1    3    3    0    0 -0.80907120359E+02  0.38825887927E+02 -0.11339466710E+03  0.19120478635E+03  0.12509000000E+03 0.  0.
         25    1    3    3    0    0  0.85190106475E+02 -0.31683234829E+02 -0.24512694423E+03  0.28982047633E+03  0.12509000000E+03 0.  0.
         25    1    3    3    0    0 -0.42829861160E+01 -0.71426530985E+01 -0.17696310772E+03  0.21687049374E+03  0.12509000000E+03 0.  0.
<mgrwt>
<rscale>  2 0.44756519E+03</rscale>
<asrwt>0</asrwt>
<pdfrwt beam="1">  1       21 0.11941988E-01 0.44756519E+03</pdfrwt>
<pdfrwt beam="2">  1       21 0.90689741E-01 0.44756519E+03</pdfrwt>
<totfact> 0.56236372E+04</totfact>
</mgrwt>
</event>
<event>
 6    0  0.1539652E-007  0.4563926E+03  0.7546771E-02  0.1025833E+00
         21   -1    0    0  502  501  0.00000000000E+00  0.00000000000E+00  0.31230935396E+03  0.31230935396E+03  0.00000000000E+00 0. -1.
         21   -1    0    0  501  502 -0.00000000000E+00 -0.00000000000E+00 -0.16673709126E+03  0.16673709126E+03  0.00000000000E+00 0. -1.
      99926    2    1    2    0    0  0.00000000000E+00  0.00000000000E+00  0.14557226271E+03  0.47904644522E+03  0.45639260840E+03 0.  0.
         25    1    3    3    0    0 -0.69356280187E+01  0.84265166214E+02  0.40375001140E+01  0.15103817623E+03  0.12509000000E+03 0.  0.
         25    1    3    3    0    0 -0.43156818998E+01 -0.95240411951E+02  0.30925092775E+02  0.16029108098E+03  0.12509000000E+03 0.  0.
         25    1    3    3    0    0  0.11251309918E+02  0.10975245737E+02  0.11060966982E+03  0.16771718800E+03  0.12509000000E+03 0.  0.
<mgrwt>
<rscale>  2 0.45639261E+03</rscale>
<asrwt>0</asrwt>
<pdfrwt beam="1">  1       21 0.45927846E-01 0.45639261E+03</pdfrwt>
<pdfrwt beam="2">  1       21 0.24520160E-01 0.45639261E+03</pdfrwt>
<totfact> 0.66036640E+04</totfact>
</mgrwt>
</event>
<event>
 6    0  0.1539652E-007  0.4575346E+03  0.7546771E-02  0.1025499E+00
         21   -1    0    0  502  501  0.00000000000E+00  0.00000000000E+00  0.15404409823E+04  0.15404409823E+04  0.00000000000E+00 0. -1.
         21   -1    0    0  501  502 -0.00000000000E+00 -0.00000000000E+00 -0.33973704700E+02  0.33973704700E+02  0.00000000000E+00 0. -1.
      99926    2    1    2    0    0  0.14210854715E-13 -0.22204460493E-15  0.15064672776E+04  0.15744146870E+04  0.45753464149E+03 0.  0.
         25    1    3    3    0    0  0.11843955199E+02  0.74574118877E+02  0.44365363552E+03  0.46709488853E+03  0.12509000000E+03 0.  0.
         25    1    3    3    0    0  0.69788237035E+02 -0.74262467546E+02  0.54072739459E+03  0.56428621769E+03  0.12509000000E+03 0.  0.
         25    1    3    3    0    0 -0.81632192235E+02 -0.31165133134E+00  0.52208624748E+03  0.54303358077E+03  0.12509000000E+03 0.  0.
<mgrwt>
<rscale>  2 0.45753464E+03</rscale>
<asrwt>0</asrwt>
<pdfrwt beam="1">  1       21 0.22653539E+00 0.45753464E+03</pdfrwt>
<pdfrwt beam="2">  1       21 0.49961341E-02 0.45753464E+03</pdfrwt>
<totfact> 0.21584841E+04</totfact>
</mgrwt>
</event>
<event>
 6    0  0.1539652E-007  0.4575999E+03  0.7546771E-02  0.1025480E+00
         21   -1    0    0  502  501  0.00000000000E+00  0.00000000000E+00  0.14990821893E+03  0.14990821893E+03  0.00000000000E+00 0. -1.
         21   -1    0    0  501  502 -0.00000000000E+00 -0.00000000000E+00 -0.34920971101E+03  0.34920971101E+03  0.00000000000E+00 0. -1.
      99926    2    1    2    0    0  0.00000000000E+00  0.17763568394E-14 -0.19930149208E+03  0.49911792994E+03  0.45759985057E+03 0.  0.
         25    1    3    3    0    0 -0.89578888297E+02 -0.70678841133E+01 -0.93302947392E+02  0.18007576268E+03  0.12509000000E+03 0.  0.
         25    1    3    3    0    0  0.54049364422E+02 -0.94892437452E+01  0.18997623048E+02  0.13791228126E+03  0.12509000000E+03 0.  0.
         25    1    3    3    0    0  0.35529523875E+02  0.16557127859E+02 -0.12499616774E+03  0.18112988599E+03  0.12509000000E+03 0.  0.
<mgrwt>
<rscale>  2 0.45759985E+03</rscale>
<asrwt>0</asrwt>
<pdfrwt beam="1">  1       21 0.22045326E-01 0.45759985E+03</pdfrwt>
<pdfrwt beam="2">  1       21 0.51354369E-01 0.45759985E+03</pdfrwt>
<totfact> 0.64001547E+04</totfact>
</mgrwt>
</event>
<event>
 6    0  0.1539652E-007  0.4462401E+03  0.7546771E-02  0.1028849E+00
         21   -1    0    0  502  501  0.00000000000E+00  0.00000000000E+00  0.25028710469E+04  0.25028710469E+04  0.00000000000E+00 0. -1.
         21   -1    0    0  501  502 -0.00000000000E+00 -0.00000000000E+00 -0.19890178170E+02  0.19890178170E+02  0.00000000000E+00 0. -1.
      99926    2    1    2    0    0  0.35527136788E-14  0.00000000000E+00  0.24829808687E+04  0.25227612250E+04  0.44624007466E+03 0.  0.
         25    1    3    3    0    0 -0.50569217289E+02 -0.11497718964E+02  0.54899139824E+03  0.56544540561E+03  0.12509000000E+03 0.  0.
         25    1    3    3    0    0  0.86145362274E+01  0.63776302802E+02  0.62393414275E+03  0.63959592683E+03  0.12509000000E+03 0.  0.
         25    1    3    3    0    0  0.41954681062E+02 -0.52278583838E+02  0.13100553277E+04  0.13177198926E+04  0.12509000000E+03 0.  0.
<mgrwt>
<rscale>  2 0.44624007E+03</rscale>
<asrwt>0</asrwt>
<pdfrwt beam="1">  1       21 0.36806905E+00 0.44624007E+03</pdfrwt>
<pdfrwt beam="2">  1       21 0.29250279E-02 0.44624007E+03</pdfrwt>
<totfact> 0.73925207E+03</totfact>
</mgrwt>
</event>
<event>
 6    0  0.1539652E-007  0.4538241E+03  0.7546771E-02  0.1026588E+00
         21   -1    0    0  502  501  0.00000000000E+00  0.00000000000E+00  0.23268444188E+03  0.23268444188E+03  0.00000000000E+00 0.  1.
         21   -1    0    0  501  502 -0.00000000000E+00 -0.00000000000E+00 -0.22128288664E+03  0.22128288664E+03  0.00000000000E+00 0.  1.
      99926    2    1    2    0    0 -0.71054273576E-14  0.14210854715E-13  0.11401555238E+02  0.45396732853E+03  0.45382412883E+03 0.  0.
         25    1    3    3    0    0 -0.33753100311E+02  0.81179127209E+02  0.29922292700E+02  0.15579529574E+03  0.12509000000E+03 0.  0.
         25    1    3    3    0    0  0.37696788425E+02 -0.54861008432E+02  0.53424614351E+02  0.15143472396E+03  0.12509000000E+03 0.  0.
         25    1    3    3    0    0 -0.39436881143E+01 -0.26318118777E+02 -0.71945351813E+02  0.14673730882E+03  0.12509000000E+03 0.  0.
<mgrwt>
<rscale>  2 0.45382413E+03</rscale>
<asrwt>0</asrwt>
<pdfrwt beam="1">  1       21 0.34218300E-01 0.45382413E+03</pdfrwt>
<pdfrwt beam="2">  1       21 0.32541601E-01 0.45382413E+03</pdfrwt>
<totfact> 0.69269137E+04</totfact>
</mgrwt>
</event>
<event>
 6    0  0.1539652E-007  0.4559953E+03  0.7546771E-02  0.1025949E+00
         21   -1    0    0  502  501  0.00000000000E+00  0.00000000000E+00  0.31243014803E+02  0.31243014803E+02  0.00000000000E+00 0.  1.
         21   -1    0    0  501  502 -0.00000000000E+00 -0.00000000000E+00 -0.16638255869E+04  0.16638255869E+04  0.00000000000E+00 0.  1.
      99926    2    1    2    0    0  0.71054273576E-14  0.00000000000E+00 -0.16325825721E+04  0.16950686017E+04  0.45599529577E+03 0.  0.
         25    1    3    3    0    0 -0.35921276884E+02 -0.24509844112E+02 -0.49185298044E+03  0.50937013365E+03  0.12509000000E+03 0.  0.
         25    1    3    3    0    0  0.78624581198E+02 -0.31481103435E+02 -0.33782096827E+03  0.37005864312E+03  0.12509000000E+03 0.  0.
         25    1    3    3    0    0 -0.42703304315E+02  0.55990947547E+02 -0.80290862334E+03  0.81563982489E+03  0.12509000000E+03 0.  0.
<mgrwt>
<rscale>  2 0.45599530E+03</rscale>
<asrwt>0</asrwt>
<pdfrwt beam="1">  1       21 0.45945602E-02 0.45599530E+03</pdfrwt>
<pdfrwt beam="2">  1       21 0.24468027E+00 0.45599530E+03</pdfrwt>
<totfact> 0.19215471E+04</totfact>
</mgrwt>
</event>
<event>
 6    0  0.1539652E-007  0.4488517E+03  0.7546771E-02  0.1028065E+00
         21   -1    0    0  502  501  0.00000000000E+00  0.00000000000E+00  0.56574265271E+02  0.56574265271E+02  0.00000000000E+00 0. -1.
         21   -1    0    0  501  502 -0.00000000000E+00 -0.00000000000E+00 -0.89028029663E+03  0.89028029663E+03  0.00000000000E+00 0. -1.
      99926    2    1    2    0    0  0.00000000000E+00  0.00000000000E+00 -0.83370603136E+03  0.94685456190E+03  0.44885166221E+03 0.  0.
         25    1    3    3    0    0  0.44269230470E+02  0.56956673476E+02 -0.17933080699E+03  0.23024090396E+03  0.12509000000E+03 0.  0.
         25    1    3    3    0    0 -0.62247599069E+00  0.12192444194E+02 -0.42210044339E+03  0.44041495840E+03  0.12509000000E+03 0.  0.
         25    1    3    3    0    0 -0.43646754480E+02 -0.69149117670E+02 -0.23227478098E+03  0.27619869954E+03  0.12509000000E+03 0.  0.
<mgrwt>
<rscale>  2 0.44885166E+03</rscale>
<asrwt>0</asrwt>
<pdfrwt beam="1">  1       21 0.83197443E-02 0.44885166E+03</pdfrwt>
<pdfrwt beam="2">  1       21 0.13092358E+00 0.44885166E+03</pdfrwt>
<totfact> 0.43313749E+04</totfact>
</mgrwt>
</event>
<event>
 6    0  0.1539652E-007  0.4499142E+03  0.7546771E-02  0.1027748E+00
         21   -1    0    0  502  501  0.00000000000E+00  0.00000000000E+00  0.19945574522E+03  0.19945574522E+03  0.00000000000E+00 0.  1.
         21   -1    0    0  501  502 -0.00000000000E+00 -0.00000000000E+00 -0.25371897299E+03  0.25371897299E+03  0.00000000000E+00 0.  1.
      99926    2    1    2    0    0  0.00000000000E+00 -0.17763568394E-14 -0.54263227767E+02  0.45317471821E+03  0.44991424442E+03 0.  0.
         25    1    3    3    0    0  0.59325661548E+02 -0.13115808389E+02 -0.58934603559E+02  0.15103759183E+03  0.12509000000E+03 0.  0.
         25    1    3    3    0    0 -0.10900275597E+03 -0.50346747905E+01 -0.40628757409E+01  0.16604506563E+03  0.12509000000E+03 0.  0.
         25    1    3    3    0    0  0.49677094424E+02  0.18150483180E+02  0.87342515329E+01  0.13609206075E+03  0.12509000000E+03 0.  0.
<mgrwt>
<rscale>  2 0.44991424E+03</rscale>
<asrwt>0</asrwt>
<pdfrwt beam="1">  1       21 0.29331727E-01 0.44991424E+03</pdfrwt>
<pdfrwt beam="2">  1       21 0.37311613E-01 0.44991424E+03</pdfrwt>
<totfact> 0.71538579E+04</totfact>
</mgrwt>
</event>
<event>
 6    0  0.1539652E-007  0.4546961E+03  0.7546771E-02  0.1026331E+00
         21   -1    0    0  502  501  0.00000000000E+00  0.00000000000E+00  0.27080644670E+03  0.27080644670E+03  0.00000000000E+00 0. -1.
         21   -1    0    0  501  502 -0.00000000000E+00 -0.00000000000E+00 -0.19086379684E+03  0.19086379684E+03  0.00000000000E+00 0. -1.
      99926    2    1    2    0    0  0.00000000000E+00 -0.10658141036E-13  0.79942649855E+02  0.46167024354E+03  0.45469614745E+03 0.  0.
         25    1    3    3    0    0  0.50024319005E+02  0.15443150637E+02  0.43342112849E+02  0.14236210956E+03  0.12509000000E+03 0.  0.
         25    1    3    3    0    0 -0.11995615377E+02  0.85155208835E+02  0.91509658692E+01  0.15207416827E+03  0.12509000000E+03 0.  0.
         25    1    3    3    0    0 -0.38028703628E+02 -0.10059835947E+03  0.27449571137E+02  0.16723396570E+03  0.12509000000E+03 0.  0.
<mgrwt>
<rscale>  2 0.45469615E+03</rscale>
<asrwt>0</asrwt>
<pdfrwt beam="1">  1       21 0.39824477E-01 0.45469615E+03</pdfrwt>
<pdfrwt beam="2">  1       21 0.28068205E-01 0.45469615E+03</pdfrwt>
<totfact> 0.68222632E+04</totfact>
</mgrwt>
</event>
<event>
 6    0  0.1539652E-007  0.4372099E+03  0.7546771E-02  0.1031606E+00
         21   -1    0    0  502  501  0.00000000000E+00  0.00000000000E+00  0.47651607546E+02  0.47651607546E+02  0.00000000000E+00 0.  1.
         21   -1    0    0  501  502 -0.00000000000E+00 -0.00000000000E+00 -0.10028650050E+04  0.10028650050E+04  0.00000000000E+00 0.  1.
      99926    2    1    2    0    0  0.00000000000E+00  0.00000000000E+00 -0.95521339743E+03  0.10505166125E+04  0.43720992504E+03 0.  0.
         25    1    3    3    0    0  0.52611326203E+02  0.44907955811E+02 -0.37267965517E+03  0.39915198812E+03  0.12509000000E+03 0.  0.
         25    1    3    3    0    0 -0.14311968764E+02 -0.39116476351E+02 -0.43285593558E+03  0.45248944766E+03  0.12509000000E+03 0.  0.
         25    1    3    3    0    0 -0.38299357439E+02 -0.57914794599E+01 -0.14967780667E+03  0.19887517674E+03  0.12509000000E+03 0.  0.
<mgrwt>
<rscale>  2 0.43720993E+03</rscale>
<asrwt>0</asrwt>
<pdfrwt beam="1">  1       21 0.70075893E-02 0.43720993E+03</pdfrwt>
<pdfrwt beam="2">  1       21 0.14748015E+00 0.43720993E+03</pdfrwt>
<totfact> 0.42914762E+04</totfact>
</mgrwt>
</event>
<event>
 6    0  0.1539652E-007  0.4529307E+03  0.7546771E-02  0.1026852E+00
         21   -1    0    0  502  501  0.00000000000E+00  0.00000000000E+00  0.11519263009E+04  0.11519263009E+04  0.00000000000E+00 0. -1.
         21   -1    0    0  501  502 -0.00000000000E+00 -0.00000000000E+00 -0.44522426680E+02  0.44522426680E+02  0.00000000000E+00 0. -1.
      99926    2    1    2    0    0  0.00000000000E+00  0.00000000000E+00  0.11074038742E+04  0.11964487276E+04  0.45293069789E+03 0.  0.
         25    1    3    3    0    0  0.46128371929E+01  0.82235081167E+02  0.42421077491E+03  0.44987351166E+03  0.12509000000E+03 0.  0.
         25    1    3    3    0    0  0.11724743298E+02 -0.10939682207E+03  0.31360323959E+03  0.35510510312E+03  0.12509000000E+03 0.  0.
         25    1    3    3    0    0 -0.16337580491E+02  0.27161740906E+02  0.36958985975E+03  0.39147011283E+03  0.12509000000E+03 0.  0.
<mgrwt>
<rscale>  2 0.45293070E+03</rscale>
<asrwt>0</asrwt>
<pdfrwt beam="1">  1       21 0.16940091E+00 0.45293070E+03</pdfrwt>
<pdfrwt beam="2">  1       21 0.65474164E-02 0.45293070E+03</pdfrwt>
<totfact> 0.32794174E+04</totfact>
</mgrwt>
</event>
<event>
 6    0  0.1539652E-007  0.4633208E+03  0.7546771E-02  0.1023822E+00
         21   -1    0    0  502  501  0.00000000000E+00  0.00000000000E+00  0.22163970836E+02  0.22163970836E+02  0.00000000000E+00 0. -1.
         21   -1    0    0  501  502 -0.00000000000E+00 -0.00000000000E+00 -0.24213414618E+04  0.24213414618E+04  0.00000000000E+00 0. -1.
      99926    2    1    2    0    0  0.00000000000E+00  0.00000000000E+00 -0.23991774910E+04  0.24435054326E+04  0.46332080266E+03 0.  0.
         25    1    3    3    0    0 -0.24592655484E+02 -0.51530673234E+02 -0.74010418634E+03  0.75276950239E+03  0.12509000000E+03 0.  0.
         25    1    3    3    0    0 -0.52625025789E+02  0.89692976546E+02 -0.63712223517E+03  0.65756100404E+03  0.12509000000E+03 0.  0.
         25    1    3    3    0    0  0.77217681273E+02 -0.38162303312E+02 -0.10219510694E+04  0.10331749262E+04  0.12509000000E+03 0.  0.
<mgrwt>
<rscale>  2 0.46332080E+03</rscale>
<asrwt>0</asrwt>
<pdfrwt beam="1">  1       21 0.32594092E-02 0.46332080E+03</pdfrwt>
<pdfrwt beam="2">  1       21 0.35607944E+00 0.46332080E+03</pdfrwt>
<totfact> 0.72471289E+03</totfact>
</mgrwt>
</event>
<event>
 6    0  0.2422925E-007  0.4533675E+03  0.7546771E-02  0.1026723E+00
         21   -1    0    0  502  501  0.00000000000E+00  0.00000000000E+00  0.31248919670E+02  0.31248919670E+02  0.00000000000E+00 0. -1.
         21   -1    0    0  501  502 -0.00000000000E+00 -0.00000000000E+00 -0.16443934722E+04  0.16443934722E+04  0.00000000000E+00 0.  1.
      99926    2    1    2    0    0  0.00000000000E+00  0.00000000000E+00 -0.16131445525E+04  0.16756423919E+04  0.45336748679E+03 0.  0.
         25    1    3    3    0    0  0.31217308253E+02  0.93730543124E+02 -0.41151400548E+03  0.44130626537E+03  0.12509000000E+03 0.  0.
         25    1    3    3    0    0  0.11699412761E+02 -0.40936096126E+02 -0.72288552704E+03  0.73486300324E+03  0.12509000000E+03 0.  0.
         25    1    3    3    0    0 -0.42916721013E+02 -0.52794446998E+02 -0.47874502003E+03  0.49947312328E+03  0.12509000000E+03 0.  0.
<mgrwt>
<rscale>  2 0.45336749E+03</rscale>
<asrwt>0</asrwt>
<pdfrwt beam="1">  1       21 0.45954307E-02 0.45336749E+03</pdfrwt>
<pdfrwt beam="2">  1       21 0.24182250E+00 0.45336749E+03</pdfrwt>
<totfact> 0.20025886E+04</totfact>
</mgrwt>
</event>
<event>
 6    0  0.1539652E-007  0.4630985E+03  0.7546771E-02  0.1023886E+00
         21   -1    0    0  502  501  0.00000000000E+00  0.00000000000E+00  0.48747016423E+02  0.48747016423E+02  0.00000000000E+00 0.  1.
         21   -1    0    0  501  502 -0.00000000000E+00 -0.00000000000E+00 -0.10998634639E+04  0.10998634639E+04  0.00000000000E+00 0.  1.
      99926    2    1    2    0    0  0.14210854715E-13  0.53290705182E-14 -0.10511164475E+04  0.11486104803E+04  0.46309853093E+03 0.  0.
         25    1    3    3    0    0  0.20743045350E+02 -0.23807479872E+02 -0.26343597814E+03  0.29333102923E+03  0.12509000000E+03 0.  0.
         25    1    3    3    0    0  0.85289494049E+02  0.38467932255E+02 -0.49984300633E+03  0.52368370099E+03  0.12509000000E+03 0.  0.
         25    1    3    3    0    0 -0.10603253940E+03 -0.14660452383E+02 -0.28783746298E+03  0.33159575008E+03  0.12509000000E+03 0.  0.
<mgrwt>
<rscale>  2 0.46309853E+03</rscale>
<asrwt>0</asrwt>
<pdfrwt beam="1">  1       21 0.71686800E-02 0.46309853E+03</pdfrwt>
<pdfrwt beam="2">  1       21 0.16174460E+00 0.46309853E+03</pdfrwt>
<totfact> 0.31775309E+04</totfact>
</mgrwt>
</event>
<event>
 6    0  0.1539652E-007  0.4666779E+03  0.7546771E-02  0.1022862E+00
         21   -1    0    0  502  501  0.00000000000E+00  0.00000000000E+00  0.33721440574E+03  0.33721440574E+03  0.00000000000E+00 0.  1.
         21   -1    0    0  501  502 -0.00000000000E+00 -0.00000000000E+00 -0.16146124849E+03  0.16146124849E+03  0.00000000000E+00 0.  1.
      99926    2    1    2    0    0  0.00000000000E+00 -0.17763568394E-14  0.17575315726E+03  0.49867565423E+03  0.46667787160E+03 0.  0.
         25    1    3    3    0    0 -0.25745724958E+02 -0.14685814459E+02 -0.49368744470E+02  0.13770728568E+03  0.12509000000E+03 0.  0.
         25    1    3    3    0    0 -0.35843150642E+02 -0.20901479181E+01  0.57458959950E+02  0.14226081802E+03  0.12509000000E+03 0.  0.
         25    1    3    3    0    0  0.61588875601E+02  0.16775962378E+02  0.16766294178E+03  0.21870755052E+03  0.12509000000E+03 0.  0.
<mgrwt>
<rscale>  2 0.46667787E+03</rscale>
<asrwt>0</asrwt>
<pdfrwt beam="1">  1       21 0.49590354E-01 0.46667787E+03</pdfrwt>
<pdfrwt beam="2">  1       21 0.23744301E-01 0.46667787E+03</pdfrwt>
<totfact> 0.59640083E+04</totfact>
</mgrwt>
</event>
<event>
 6    0  0.1539652E-007  0.4543615E+03  0.7546771E-02  0.1026429E+00
         21   -1    0    0  502  501  0.00000000000E+00  0.00000000000E+00  0.18267781382E+03  0.18267781382E+03  0.00000000000E+00 0. -1.
         21   -1    0    0  501  502 -0.00000000000E+00 -0.00000000000E+00 -0.28252523745E+03  0.28252523745E+03  0.00000000000E+00 0. -1.
      99926    2    1    2    0    0  0.00000000000E+00  0.17763568394E-14 -0.99847423627E+02  0.46520305127E+03  0.45436149805E+03 0.  0.
         25    1    3    3    0    0  0.26214617289E+02 -0.12965235625E+02 -0.23970646892E+02  0.13068053989E+03  0.12509000000E+03 0.  0.
         25    1    3    3    0    0  0.43520461269E+01  0.10316776695E+03 -0.71440428815E+02  0.17723930550E+03  0.12509000000E+03 0.  0.
         25    1    3    3    0    0 -0.30566663416E+02 -0.90202531328E+02 -0.44363479200E+01  0.15728320588E+03  0.12509000000E+03 0.  0.
<mgrwt>
<rscale>  2 0.45436150E+03</rscale>
<asrwt>0</asrwt>
<pdfrwt beam="1">  1       21 0.26864385E-01 0.45436150E+03</pdfrwt>
<pdfrwt beam="2">  1       21 0.41547829E-01 0.45436150E+03</pdfrwt>
<totfact> 0.68139087E+04</totfact>
</mgrwt>
</event>
<event>
 6    0  0.1539652E-007  0.4535296E+03  0.7546771E-02  0.1026675E+00
         21   -1    0    0  502  501  0.00000000000E+00  0.00000000000E+00  0.29499889686E+02  0.29499889686E+02  0.00000000000E+00 0. -1.
         21   -1    0    0  501  502 -0.00000000000E+00 -0.00000000000E+00 -0.17431341097E+04  0.17431341097E+04  0.00000000000E+00 0. -1.
      99926    2    1    2    0    0  0.71054273576E-14  0.00000000000E+00 -0.17136342200E+04  0.17726339994E+04  0.45352955337E+03 0.  0.
         25    1    3    3    0    0 -0.37659138121E+02  0.14662461909E+02 -0.52483566485E+03  0.54104822490E+03  0.12509000000E+03 0.  0.
         25    1    3    3    0    0  0.10261000012E+03  0.28287694476E+02 -0.77835548378E+03  0.79549592898E+03  0.12509000000E+03 0.  0.
         25    1    3    3    0    0 -0.64950862001E+02 -0.42950156386E+02 -0.41044307138E+03  0.43608984551E+03  0.12509000000E+03 0.  0.
<mgrwt>
<rscale>  2 0.45352955E+03</rscale>
<asrwt>0</asrwt>
<pdfrwt beam="1">  1       21 0.43382184E-02 0.45352955E+03</pdfrwt>
<pdfrwt beam="2">  1       21 0.25634329E+00 0.45352955E+03</pdfrwt>
<totfact> 0.17995807E+04</totfact>
</mgrwt>
</event>
<event>
 6    0  0.1539652E-007  0.4557397E+03  0.7546771E-02  0.1026024E+00
         21   -1    0    0  502  501  0.00000000000E+00  0.00000000000E+00  0.24633214560E+03  0.24633214560E+03  0.00000000000E+00 0. -1.
         21   -1    0    0  501  502 -0.00000000000E+00 -0.00000000000E+00 -0.21079127192E+03  0.21079127192E+03  0.00000000000E+00 0. -1.
      99926    2    1    2    0    0  0.00000000000E+00  0.17763568394E-14  0.35540873686E+02  0.45712341752E+03  0.45573969011E+03 0.  0.
         25    1    3    3    0    0 -0.25214973263E+02  0.30908921328E+02  0.39632673760E+02  0.13714741421E+03  0.12509000000E+03 0.  0.
         25    1    3    3    0    0 -0.80258009880E+02 -0.17992397845E+02  0.29131991132E+02  0.15251641072E+03  0.12509000000E+03 0.  0.
         25    1    3    3    0    0  0.10547298314E+03 -0.12916523483E+02 -0.33223791205E+02  0.16745959260E+03  0.12509000000E+03 0.  0.
<mgrwt>
<rscale>  2 0.45573969E+03</rscale>
<asrwt>0</asrwt>
<pdfrwt beam="1">  1       21 0.36225315E-01 0.45573969E+03</pdfrwt>
<pdfrwt beam="2">  1       21 0.30998716E-01 0.45573969E+03</pdfrwt>
<totfact> 0.67988406E+04</totfact>
</mgrwt>
</event>
<event>
 6    0  0.1539652E-007  0.4588188E+03  0.7546771E-02  0.1025124E+00
         21   -1    0    0  502  501  0.00000000000E+00  0.00000000000E+00  0.59395996802E+03  0.59395996802E+03  0.00000000000E+00 0. -1.
         21   -1    0    0  501  502 -0.00000000000E+00 -0.00000000000E+00 -0.88606438351E+02  0.88606438351E+02  0.00000000000E+00 0. -1.
      99926    2    1    2    0    0  0.35527136788E-14  0.00000000000E+00  0.50535352967E+03  0.68256640637E+03  0.45881881953E+03 0.  0.
         25    1    3    3    0    0 -0.11643226069E+02 -0.43779560206E+02  0.34606852880E+03  0.37076023159E+03  0.12509000000E+03 0.  0.
         25    1    3    3    0    0  0.31925987143E+02  0.41273849499E+02  0.11434140567E+03  0.17732530687E+03  0.12509000000E+03 0.  0.
         25    1    3    3    0    0 -0.20282761074E+02  0.25057107074E+01  0.44943595203E+02  0.13448086791E+03  0.12509000000E+03 0.  0.
<mgrwt>
<rscale>  2 0.45881882E+03</rscale>
<asrwt>0</asrwt>
<pdfrwt beam="1">  1       21 0.87347052E-01 0.45881882E+03</pdfrwt>
<pdfrwt beam="2">  1       21 0.13030359E-01 0.45881882E+03</pdfrwt>
<totfact> 0.52269975E+04</totfact>
</mgrwt>
</event>
<event>
 6    0  0.2129076E-007  0.4352386E+03  0.7546771E-02  0.1032218E+00
         21   -1    0    0  502  501  0.00000000000E+00  0.00000000000E+00  0.14086638755E+03  0.14086638755E+03  0.00000000000E+00 0.  1.
         21   -1    0    0  501  502 -0.00000000000E+00 -0.00000000000E+00 -0.33619203946E+03  0.33619203946E+03  0.00000000000E+00 0.  1.
      99926    2    1    2    0    0 -0.88817841970E-15  0.00000000000E+00 -0.19532565191E+03  0.47705842701E+03  0.43523859260E+03 0.  0.
         25    1    3    3    0    0 -0.70438797027E+02 -0.10680592044E+02 -0.11904190203E+03  0.18679984398E+03  0.12509000000E+03 0.  0.
         25    1    3    3    0    0  0.75150520322E+02 -0.17400075725E+01 -0.75831339678E+02  0.16446436851E+03  0.12509000000E+03 0.  0.
         25    1    3    3    0    0 -0.47117232953E+01  0.12420599616E+02 -0.45241020081E+00  0.12579421452E+03  0.12509000000E+03 0.  0.
<mgrwt>
<rscale>  2 0.43523859E+03</rscale>
<asrwt>0</asrwt>
<pdfrwt beam="1">  1       21 0.20715645E-01 0.43523859E+03</pdfrwt>
<pdfrwt beam="2">  1       21 0.49440006E-01 0.43523859E+03</pdfrwt>
<totfact> 0.78529786E+04</totfact>
</mgrwt>
</event>
<event>
 6    0  0.1539652E-007  0.4493200E+03  0.7546771E-02  0.1027925E+00
         21   -1    0    0  502  501  0.00000000000E+00  0.00000000000E+00  0.15867720806E+04  0.15867720806E+04  0.00000000000E+00 0.  1.
         21   -1    0    0  501  502 -0.00000000000E+00 -0.00000000000E+00 -0.31808045759E+02  0.31808045759E+02  0.00000000000E+00 0.  1.
      99926    2    1    2    0    0 -0.88817841970E-15 -0.14210854715E-13  0.15549640349E+04  0.16185801264E+04  0.44932001491E+03 0.  0.
         25    1    3    3    0    0 -0.58498167831E+01 -0.68500441147E+02  0.32248408199E+03  0.35266134184E+03  0.12509000000E+03 0.  0.
         25    1    3    3    0    0  0.13070201645E+02  0.78409363902E+02  0.46019365450E+03  0.48347137067E+03  0.12509000000E+03 0.  0.
         25    1    3    3    0    0 -0.72203848618E+01 -0.99089227541E+01  0.77228629839E+03  0.78244741388E+03  0.12509000000E+03 0.  0.
<mgrwt>
<rscale>  2 0.44932001E+03</rscale>
<asrwt>0</asrwt>
<pdfrwt beam="1">  1       21 0.23334878E+00 0.44932001E+03</pdfrwt>
<pdfrwt beam="2">  1       21 0.46776549E-02 0.44932001E+03</pdfrwt>
<totfact> 0.21966097E+04</totfact>
</mgrwt>
</event>
<event>
 6    0  0.1539652E-007  0.4382329E+03  0.7546771E-02  0.1031290E+00
         21   -1    0    0  502  501  0.00000000000E+00  0.00000000000E+00  0.96951901227E+02  0.96951901227E+02  0.00000000000E+00 0. -1.
         21   -1    0    0  501  502 -0.00000000000E+00 -0.00000000000E+00 -0.49521478054E+03  0.49521478054E+03  0.00000000000E+00 0. -1.
      99926    2    1    2    0    0  0.00000000000E+00  0.17763568394E-14 -0.39826287932E+03  0.59216668177E+03  0.43823288096E+03 0.  0.
         25    1    3    3    0    0  0.32436142063E+02 -0.43541876600E+02 -0.17012125778E+03  0.21802923836E+03  0.12509000000E+03 0.  0.
         25    1    3    3    0    0  0.27360008137E+02  0.56483823411E+02 -0.17733667012E+03  0.22590882015E+03  0.12509000000E+03 0.  0.
         25    1    3    3    0    0 -0.59796150200E+02 -0.12941946811E+02 -0.50804951414E+02  0.14822862326E+03  0.12509000000E+03 0.  0.
<mgrwt>
<rscale>  2 0.43823288E+03</rscale>
<asrwt>0</asrwt>
<pdfrwt beam="1">  1       21 0.14257632E-01 0.43823288E+03</pdfrwt>
<pdfrwt beam="2">  1       21 0.72825703E-01 0.43823288E+03</pdfrwt>
<totfact> 0.67696907E+04</totfact>
</mgrwt>
</event>
<event>
 6    0  0.1539652E-007  0.4534233E+03  0.7546771E-02  0.1026706E+00
         21   -1    0    0  502  501  0.00000000000E+00  0.00000000000E+00  0.94794171065E+02  0.94794171065E+02  0.00000000000E+00 0. -1.
         21   -1    0    0  501  502 -0.00000000000E+00 -0.00000000000E+00 -0.54220805749E+03  0.54220805749E+03  0.00000000000E+00 0. -1.
      99926    2    1    2    0    0  0.00000000000E+00  0.00000000000E+00 -0.44741388643E+03  0.63700222856E+03  0.45342326078E+03 0.  0.
         25    1    3    3    0    0 -0.24692881678E+02  0.40083964839E+02 -0.13094128960E+03  0.18710850346E+03  0.12509000000E+03 0.  0.
         25    1    3    3    0    0 -0.67906250306E+02 -0.24323246096E+02 -0.22884301867E+03  0.27059104646E+03  0.12509000000E+03 0.  0.
         25    1    3    3    0    0  0.92599131984E+02 -0.15760718743E+02 -0.87629578153E+02  0.17930267864E+03  0.12509000000E+03 0.  0.
<mgrwt>
<rscale>  2 0.45342326E+03</rscale>
<asrwt>0</asrwt>
<pdfrwt beam="1">  1       21 0.13940319E-01 0.45342326E+03</pdfrwt>
<pdfrwt beam="2">  1       21 0.79736479E-01 0.45342326E+03</pdfrwt>
<totfact> 0.57164610E+04</totfact>
</mgrwt>
</event>
<event>
 6    0  0.1539652E-007  0.4600670E+03  0.7546771E-02  0.1024762E+00
         21   -1    0    0  502  501  0.00000000000E+00  0.00000000000E+00  0.12019926277E+03  0.12019926277E+03  0.00000000000E+00 0.  1.
         21   -1    0    0  501  502 -0.00000000000E+00 -0.00000000000E+00 -0.44023082774E+03  0.44023082774E+03  0.00000000000E+00 0.  1.
      99926    2    1    2    0    0  0.00000000000E+00 -0.71054273576E-14 -0.32003156497E+03  0.56043009051E+03  0.46006704270E+03 0.  0.
         25    1    3    3    0    0 -0.37312488054E+02  0.43733723398E+02 -0.24509471182E+03  0.28111169700E+03  0.12509000000E+03 0.  0.
         25    1    3    3    0    0  0.43785431478E+01  0.16620865868E+02 -0.31933991974E+02  0.13024097959E+03  0.12509000000E+03 0.  0.
         25    1    3    3    0    0  0.32933944906E+02 -0.60354589266E+02 -0.43002861173E+02  0.14907741392E+03  0.12509000000E+03 0.  0.
<mgrwt>
<rscale>  2 0.46006704E+03</rscale>
<asrwt>0</asrwt>
<pdfrwt beam="1">  1       21 0.17676362E-01 0.46006704E+03</pdfrwt>
<pdfrwt beam="2">  1       21 0.64739827E-01 0.46006704E+03</pdfrwt>
<totfact> 0.58790518E+04</totfact>
</mgrwt>
</event>
<event>
 6    0  0.1539652E-007  0.4613261E+03  0.7546771E-02  0.1024397E+00
         21   -1    0    0  502  501  0.00000000000E+00  0.00000000000E+00  0.16186404191E+03  0.16186404191E+03  0.00000000000E+00 0. -1.
         21   -1    0    0  501  502 -0.00000000000E+00 -0.00000000000E+00 -0.32870456120E+03  0.32870456120E+03  0.00000000000E+00 0. -1.
      99926    2    1    2    0    0  0.00000000000E+00  0.00000000000E+00 -0.16684051929E+03  0.49056860312E+03  0.46132612704E+03 0.  0.
         25    1    3    3    0    0 -0.14392195233E+01  0.62266908787E+02  0.11934682842E+02  0.14024686819E+03  0.12509000000E+03 0.  0.
         25    1    3    3    0    0 -0.70436479062E+01  0.46449641813E+02 -0.98337731544E+02  0.16590659946E+03  0.12509000000E+03 0.  0.
         25    1    3    3    0    0  0.84828674295E+01 -0.10871655060E+03 -0.80437470589E+02  0.18441513547E+03  0.12509000000E+03 0.  0.
<mgrwt>
<rscale>  2 0.46132613E+03</rscale>
<asrwt>0</asrwt>
<pdfrwt beam="1">  1       21 0.23803536E-01 0.46132613E+03</pdfrwt>
<pdfrwt beam="2">  1       21 0.48338906E-01 0.46132613E+03</pdfrwt>
<totfact> 0.62728546E+04</totfact>
</mgrwt>
</event>
<event>
 6    0  0.1539652E-007  0.4483270E+03  0.7546771E-02  0.1028222E+00
         21   -1    0    0  502  501  0.00000000000E+00  0.00000000000E+00  0.83793419395E+03  0.83793419395E+03  0.00000000000E+00 0. -1.
         21   -1    0    0  501  502 -0.00000000000E+00 -0.00000000000E+00 -0.59968036115E+02  0.59968036115E+02  0.00000000000E+00 0. -1.
      99926    2    1    2    0    0  0.14210854715E-13  0.35527136788E-14  0.77796615784E+03  0.89790223007E+03  0.44832696999E+03 0.  0.
         25    1    3    3    0    0 -0.83250856177E+02 -0.31383667182E+02  0.17978193722E+03  0.23639943458E+03  0.12509000000E+03 0.  0.
         25    1    3    3    0    0  0.78061980240E+02 -0.14931303675E+02  0.33833811642E+03  0.36937353142E+03  0.12509000000E+03 0.  0.
         25    1    3    3    0    0  0.51888759367E+01  0.46314970856E+02  0.25984610419E+03  0.29212926407E+03  0.12509000000E+03 0.  0.
<mgrwt>
<rscale>  2 0.44832697E+03</rscale>
<asrwt>0</asrwt>
<pdfrwt beam="1">  1       21 0.12322561E+00 0.44832697E+03</pdfrwt>
<pdfrwt beam="2">  1       21 0.88188293E-02 0.44832697E+03</pdfrwt>
<totfact> 0.45663546E+04</totfact>
</mgrwt>
</event>
<event>
 6    0  0.1539652E-007  0.4882783E+03  0.7546771E-02  0.1016885E+00
         21   -1    0    0  502  501  0.00000000000E+00  0.00000000000E+00  0.26417261049E+04  0.26417261049E+04  0.00000000000E+00 0.  1.
         21   -1    0    0  501  502 -0.00000000000E+00 -0.00000000000E+00 -0.22562494748E+02  0.22562494748E+02  0.00000000000E+00 0.  1.
      99926    2    1    2    0    0 -0.35527136788E-14  0.00000000000E+00  0.26191636102E+04  0.26642885996E+04  0.48827832787E+03 0.  0.
         25    1    3    3    0    0 -0.17707554260E+02  0.46586674161E+02  0.69750755584E+03  0.71038593331E+03  0.12509000000E+03 0.  0.
         25    1    3    3    0    0 -0.71384519443E+02 -0.61008713417E+02  0.49978154269E+03  0.52368588987E+03  0.12509000000E+03 0.  0.
         25    1    3    3    0    0  0.89092073703E+02  0.14422039256E+02  0.14218745116E+04  0.14302167765E+04  0.12509000000E+03 0.  0.
<mgrwt>
<rscale>  2 0.48827833E+03</rscale>
<asrwt>0</asrwt>
<pdfrwt beam="1">  1       21 0.38848892E+00 0.48827833E+03</pdfrwt>
<pdfrwt beam="2">  1       21 0.33180158E-02 0.48827833E+03</pdfrwt>
<totfact> 0.43525623E+03</totfact>
</mgrwt>
</event>
<event>
 6    0  0.1539652E-007  0.4567891E+03  0.7546771E-02  0.1025717E+00
         21   -1    0    0  502  501  0.00000000000E+00  0.00000000000E+00  0.10105734695E+03  0.10105734695E+03  0.00000000000E+00 0. -1.
         21   -1    0    0  501  502 -0.00000000000E+00 -0.00000000000E+00 -0.51618282424E+03  0.51618282424E+03  0.00000000000E+00 0. -1.
      99926    2    1    2    0    0  0.35527136788E-14  0.00000000000E+00 -0.41512547729E+03  0.61724017119E+03  0.45678908375E+03 0.  0.
         25    1    3    3    0    0 -0.10236406603E+03  0.11774609161E+01 -0.18772896627E+03  0.24772860413E+03  0.12509000000E+03 0.  0.
         25    1    3    3    0    0  0.13257918820E+02  0.37063235315E+02 -0.12385606899E+03  0.18038095728E+03  0.12509000000E+03 0.  0.
         25    1    3    3    0    0  0.89106147213E+02 -0.38240696231E+02 -0.10354044203E+03  0.18913060978E+03  0.12509000000E+03 0.  0.
<mgrwt>
<rscale>  2 0.45678908E+03</rscale>
<asrwt>0</asrwt>
<pdfrwt beam="1">  1       21 0.14861375E-01 0.45678908E+03</pdfrwt>
<pdfrwt beam="2">  1       21 0.75909239E-01 0.45678908E+03</pdfrwt>
<totfact> 0.56822343E+04</totfact>
</mgrwt>
</event>
<event>
 6    0  0.1539652E-007  0.4601263E+03  0.7546771E-02  0.1024745E+00
         21   -1    0    0  502  501  0.00000000000E+00  0.00000000000E+00  0.56289574053E+03  0.56289574053E+03  0.00000000000E+00 0. -1.
         21   -1    0    0  501  502 -0.00000000000E+00 -0.00000000000E+00 -0.94029943445E+02  0.94029943445E+02  0.00000000000E+00 0. -1.
      99926    2    1    2    0    0  0.00000000000E+00  0.00000000000E+00  0.46886579709E+03  0.65692568398E+03  0.46012630721E+03 0.  0.
         25    1    3    3    0    0  0.12911076704E+02  0.57377222093E+02  0.50601559017E+02  0.14719669627E+03  0.12509000000E+03 0.  0.
         25    1    3    3    0    0 -0.51189836037E+02  0.17602898878E+02  0.15552605899E+03  0.20679972072E+03  0.12509000000E+03 0.  0.
         25    1    3    3    0    0  0.38278759333E+02 -0.74980120971E+02  0.26273817908E+03  0.30292926700E+03  0.12509000000E+03 0.  0.
<mgrwt>
<rscale>  2 0.46012631E+03</rscale>
<asrwt>0</asrwt>
<pdfrwt beam="1">  1       21 0.82778784E-01 0.46012631E+03</pdfrwt>
<pdfrwt beam="2">  1       21 0.13827933E-01 0.46012631E+03</pdfrwt>
<totfact> 0.53123472E+04</totfact>
</mgrwt>
</event>
<event>
 6    0  0.1539652E-007  0.4560723E+03  0.7546771E-02  0.1025927E+00
         21   -1    0    0  502  501  0.00000000000E+00  0.00000000000E+00  0.35448444614E+02  0.35448444614E+02  0.00000000000E+00 0.  1.
         21   -1    0    0  501  502 -0.00000000000E+00 -0.00000000000E+00 -0.14669330091E+04  0.14669330091E+04  0.00000000000E+00 0.  1.
      99926    2    1    2    0    0  0.00000000000E+00  0.00000000000E+00 -0.14314845645E+04  0.15023814537E+04  0.45607233429E+03 0.  0.
         25    1    3    3    0    0  0.27404331530E+02 -0.73798125029E+02 -0.36494569476E+03  0.39373852856E+03  0.12509000000E+03 0.  0.
         25    1    3    3    0    0 -0.50383957179E+02  0.36604265370E+02 -0.30271437527E+03  0.33340953267E+03  0.12509000000E+03 0.  0.
         25    1    3    3    0    0  0.22979625649E+02  0.37193859659E+02 -0.76382449449E+03  0.77523339252E+03  0.12509000000E+03 0.  0.
<mgrwt>
<rscale>  2 0.45607233E+03</rscale>
<asrwt>0</asrwt>
<pdfrwt beam="1">  1       21 0.52130057E-02 0.45607233E+03</pdfrwt>
<pdfrwt beam="2">  1       21 0.21572548E+00 0.45607233E+03</pdfrwt>
<totfact> 0.23524260E+04</totfact>
</mgrwt>
</event>
<event>
 6    0  0.1539652E-007  0.4590937E+03  0.7546771E-02  0.1025044E+00
         21   -1    0    0  502  501  0.00000000000E+00  0.00000000000E+00  0.44604548487E+02  0.44604548487E+02  0.00000000000E+00 0.  1.
         21   -1    0    0  501  502 -0.00000000000E+00 -0.00000000000E+00 -0.11813089768E+04  0.11813089768E+04  0.00000000000E+00 0.  1.
      99926    2    1    2    0    0  0.13322676296E-14  0.00000000000E+00 -0.11367044283E+04  0.12259135253E+04  0.45909368776E+03 0.  0.
         25    1    3    3    0    0 -0.15945172967E+02  0.72040987541E+02 -0.68565658154E+03  0.70086846722E+03  0.12509000000E+03 0.  0.
         25    1    3    3    0    0  0.14234499390E+02 -0.34740410089E+02 -0.28758654143E+03  0.31585288344E+03  0.12509000000E+03 0.  0.
         25    1    3    3    0    0  0.17106735766E+01 -0.37300577452E+02 -0.16346130533E+03  0.20919217462E+03  0.12509000000E+03 0.  0.
<mgrwt>
<rscale>  2 0.45909369E+03</rscale>
<asrwt>0</asrwt>
<pdfrwt beam="1">  1       21 0.65594919E-02 0.45909369E+03</pdfrwt>
<pdfrwt beam="2">  1       21 0.17372192E+00 0.45909369E+03</pdfrwt>
<totfact> 0.30365016E+04</totfact>
</mgrwt>
</event>
<event>
 6    0  0.1539652E-007  0.4493181E+03  0.7546771E-02  0.1027926E+00
         21   -1    0    0  502  501  0.00000000000E+00  0.00000000000E+00  0.34122541957E+02  0.34122541957E+02  0.00000000000E+00 0.  1.
         21   -1    0    0  501  502 -0.00000000000E+00 -0.00000000000E+00 -0.14791305979E+04  0.14791305979E+04  0.00000000000E+00 0.  1.
      99926    2    1    2    0    0  0.00000000000E+00  0.00000000000E+00 -0.14450080559E+04  0.15132531399E+04  0.44931813178E+03 0.  0.
         25    1    3    3    0    0 -0.30104051129E+02  0.53788799807E+02 -0.62455754178E+03  0.63993680936E+03  0.12509000000E+03 0.  0.
         25    1    3    3    0    0 -0.27834516147E+02 -0.16623287968E+01 -0.21601947006E+03  0.25117611983E+03  0.12509000000E+03 0.  0.
         25    1    3    3    0    0  0.57938567276E+02 -0.52126471011E+02 -0.60443104411E+03  0.62214021068E+03  0.12509000000E+03 0.  0.
<mgrwt>
<rscale>  2 0.44931813E+03</rscale>
<asrwt>0</asrwt>
<pdfrwt beam="1">  1       21 0.50180213E-02 0.44931813E+03</pdfrwt>
<pdfrwt beam="2">  1       21 0.21751919E+00 0.44931813E+03</pdfrwt>
<totfact> 0.24520584E+04</totfact>
</mgrwt>
</event>
<event>
 6    0  0.1539652E-007  0.4547758E+03  0.7546771E-02  0.1026307E+00
         21   -1    0    0  502  501  0.00000000000E+00  0.00000000000E+00  0.89434323893E+02  0.89434323893E+02  0.00000000000E+00 0. -1.
         21   -1    0    0  501  502 -0.00000000000E+00 -0.00000000000E+00 -0.57813650027E+03  0.57813650027E+03  0.00000000000E+00 0. -1.
      99926    2    1    2    0    0 -0.71054273576E-14  0.35527136788E-14 -0.48870217637E+03  0.66757082416E+03  0.45477575581E+03 0.  0.
         25    1    3    3    0    0 -0.21224229393E+02 -0.18199040493E+01 -0.66824027622E+02  0.14341108302E+03  0.12509000000E+03 0.  0.
         25    1    3    3    0    0  0.56010977659E+02 -0.30770645241E+02 -0.91369600330E+02  0.16757080352E+03  0.12509000000E+03 0.  0.
         25    1    3    3    0    0 -0.34786748266E+02  0.32590549291E+02 -0.33050854842E+03  0.35658893762E+03  0.12509000000E+03 0.  0.
<mgrwt>
<rscale>  2 0.45477576E+03</rscale>
<asrwt>0</asrwt>
<pdfrwt beam="1">  1       21 0.13152107E-01 0.45477576E+03</pdfrwt>
<pdfrwt beam="2">  1       21 0.85020070E-01 0.45477576E+03</pdfrwt>
<totfact> 0.54796011E+04</totfact>
</mgrwt>
</event>
<event>
 6    0  0.1539652E-007  0.4533772E+03  0.7546771E-02  0.1026720E+00
         21   -1    0    0  502  501  0.00000000000E+00  0.00000000000E+00  0.39321251869E+03  0.39321251869E+03  0.00000000000E+00 0.  1.
         21   -1    0    0  501  502 -0.00000000000E+00 -0.00000000000E+00 -0.13068687565E+03  0.13068687565E+03  0.00000000000E+00 0.  1.
      99926    2    1    2    0    0 -0.14210854715E-13  0.88817841970E-15  0.26252564304E+03  0.52389939433E+03  0.45337717425E+03 0.  0.
         25    1    3    3    0    0  0.75883373454E+02  0.52023548917E+01  0.10262571474E+03  0.17878729342E+03  0.12509000000E+03 0.  0.
         25    1    3    3    0    0 -0.11770359135E+03  0.63734688344E+01  0.72996721858E+02  0.18673721114E+03  0.12509000000E+03 0.  0.
         25    1    3    3    0    0  0.41820217900E+02 -0.11575823726E+02  0.86903206437E+02  0.15837488977E+03  0.12509000000E+03 0.  0.
<mgrwt>
<rscale>  2 0.45337717E+03</rscale>
<asrwt>0</asrwt>
<pdfrwt beam="1">  1       21 0.57825370E-01 0.45337717E+03</pdfrwt>
<pdfrwt beam="2">  1       21 0.19218658E-01 0.45337717E+03</pdfrwt>
<totfact> 0.64446473E+04</totfact>
</mgrwt>
</event>
<event>
 6    0  0.1539652E-007  0.4525051E+03  0.7546771E-02  0.1026978E+00
         21   -1    0    0  502  501  0.00000000000E+00  0.00000000000E+00  0.14541298470E+03  0.14541298470E+03  0.00000000000E+00 0. -1.
         21   -1    0    0  501  502 -0.00000000000E+00 -0.00000000000E+00 -0.35203327238E+03  0.35203327238E+03  0.00000000000E+00 0. -1.
      99926    2    1    2    0    0  0.35527136788E-14  0.00000000000E+00 -0.20662028767E+03  0.49744625708E+03  0.45250506671E+03 0.  0.
         25    1    3    3    0    0  0.29034458729E+02  0.74623652710E+02 -0.55510353114E+02  0.15855786559E+03  0.12509000000E+03 0.  0.
         25    1    3    3    0    0 -0.65689035497E+02 -0.38932591534E+02 -0.14098891285E+03  0.20336218359E+03  0.12509000000E+03 0.  0.
         25    1    3    3    0    0  0.36654576768E+02 -0.35691061176E+02 -0.10121021705E+02  0.13552620789E+03  0.12509000000E+03 0.  0.
<mgrwt>
<rscale>  2 0.45250507E+03</rscale>
<asrwt>0</asrwt>
<pdfrwt beam="1">  1       21 0.21384263E-01 0.45250507E+03</pdfrwt>
<pdfrwt beam="2">  1       21 0.51769598E-01 0.45250507E+03</pdfrwt>
<totfact> 0.66762933E+04</totfact>
</mgrwt>
</event>
<event>
 6    0  0.1539652E-007  0.4313929E+03  0.7546771E-02  0.1033421E+00
         21   -1    0    0  502  501  0.00000000000E+00  0.00000000000E+00  0.17827523050E+03  0.17827523050E+03  0.00000000000E+00 0. -1.
         21   -1    0    0  501  502 -0.00000000000E+00 -0.00000000000E+00 -0.26097260274E+03  0.26097260274E+03  0.00000000000E+00 0. -1.
      99926    2    1    2    0    0  0.88817841970E-15  0.17763568394E-14 -0.82697372232E+02  0.43924783324E+03  0.43139286461E+03 0.  0.
         25    1    3    3    0    0 -0.92539966304E+01 -0.50225383311E+02 -0.10642406782E+03  0.17199365074E+03  0.12509000000E+03 0.  0.
         25    1    3    3    0    0 -0.72706456926E+01 -0.73853473388E+01 -0.49414187510E+01  0.12561580857E+03  0.12509000000E+03 0.  0.
         25    1    3    3    0    0  0.16524642323E+02  0.57610730650E+02  0.28668114341E+02  0.14163837393E+03  0.12509000000E+03 0.  0.
<mgrwt>
<rscale>  2 0.43139286E+03</rscale>
<asrwt>0</asrwt>
<pdfrwt beam="1">  1       21 0.26216946E-01 0.43139286E+03</pdfrwt>
<pdfrwt beam="2">  1       21 0.38378324E-01 0.43139286E+03</pdfrwt>
<totfact> 0.84544432E+04</totfact>
</mgrwt>
</event>
<event>
 6    0  0.1539652E-007  0.4839734E+03  0.7546771E-02  0.1018049E+00
         21   -1    0    0  502  501  0.00000000000E+00  0.00000000000E+00  0.18420236327E+04  0.18420236327E+04  0.00000000000E+00 0.  1.
         21   -1    0    0  501  502 -0.00000000000E+00 -0.00000000000E+00 -0.31789798866E+02  0.31789798866E+02  0.00000000000E+00 0.  1.
      99926    2    1    2    0    0  0.71054273576E-14 -0.88817841970E-15  0.18102338338E+04  0.18738134315E+04  0.48397339096E+03 0.  0.
         25    1    3    3    0    0  0.40740843894E+02 -0.73070567813E+01  0.25101444358E+03  0.28349421234E+03  0.12509000000E+03 0.  0.
         25    1    3    3    0    0  0.50490339775E+02  0.59890920940E+02  0.82679012605E+03  0.83986047499E+03  0.12509000000E+03 0.  0.
         25    1    3    3    0    0 -0.91231183670E+02 -0.52583864158E+02  0.73242926416E+03  0.75045874420E+03  0.12509000000E+03 0.  0.
<mgrwt>
<rscale>  2 0.48397339E+03</rscale>
<asrwt>0</asrwt>
<pdfrwt beam="1">  1       21 0.27088576E+00 0.48397339E+03</pdfrwt>
<pdfrwt beam="2">  1       21 0.46749717E-02 0.48397339E+03</pdfrwt>
<totfact> 0.12760875E+04</totfact>
</mgrwt>
</event>
<event>
 6    0  0.1539652E-007  0.4512249E+03  0.7546771E-02  0.1027357E+00
         21   -1    0    0  502  501  0.00000000000E+00  0.00000000000E+00  0.41390076892E+02  0.41390076892E+02  0.00000000000E+00 0. -1.
         21   -1    0    0  501  502 -0.00000000000E+00 -0.00000000000E+00 -0.12297867507E+04  0.12297867507E+04  0.00000000000E+00 0. -1.
      99926    2    1    2    0    0  0.35527136788E-14  0.71054273576E-14 -0.11883966738E+04  0.12711768276E+04  0.45122485824E+03 0.  0.
         25    1    3    3    0    0 -0.19568347933E+02 -0.83200010062E+02 -0.26711863588E+03  0.30709124971E+03  0.12509000000E+03 0.  0.
         25    1    3    3    0    0 -0.18555832382E+02  0.55797803315E+02 -0.32773698455E+03  0.35569193541E+03  0.12509000000E+03 0.  0.
         25    1    3    3    0    0  0.38124180314E+02  0.27402206747E+02 -0.59354105340E+03  0.60839364249E+03  0.12509000000E+03 0.  0.
<mgrwt>
<rscale>  2 0.45122486E+03</rscale>
<asrwt>0</asrwt>
<pdfrwt beam="1">  1       21 0.60867764E-02 0.45122486E+03</pdfrwt>
<pdfrwt beam="2">  1       21 0.18085098E+00 0.45122486E+03</pdfrwt>
<totfact> 0.30860006E+04</totfact>
</mgrwt>
</event>
<event>
 6    0  0.1539652E-007  0.4601920E+03  0.7546771E-02  0.1024726E+00
         21   -1    0    0  502  501  0.00000000000E+00  0.00000000000E+00  0.17362059135E+03  0.17362059135E+03  0.00000000000E+00 0. -1.
         21   -1    0    0  501  502 -0.00000000000E+00 -0.00000000000E+00 -0.30494182914E+03  0.30494182914E+03  0.00000000000E+00 0. -1.
      99926    2    1    2    0    0  0.00000000000E+00  0.48849813084E-14 -0.13132123779E+03  0.47856242049E+03  0.46019204992E+03 0.  0.
         25    1    3    3    0    0  0.11811326017E+02  0.32108378285E+01  0.14722688395E+02  0.12654676035E+03  0.12509000000E+03 0.  0.
         25    1    3    3    0    0 -0.26926501341E+02 -0.99101394655E+02 -0.69247480613E+02  0.17603648647E+03  0.12509000000E+03 0.  0.
         25    1    3    3    0    0  0.15115175324E+02  0.95890556826E+02 -0.76796445576E+02  0.17597917367E+03  0.12509000000E+03 0.  0.
<mgrwt>
<rscale>  2 0.46019205E+03</rscale>
<asrwt>0</asrwt>
<pdfrwt beam="1">  1       21 0.25532440E-01 0.46019205E+03</pdfrwt>
<pdfrwt beam="2">  1       21 0.44844386E-01 0.46019205E+03</pdfrwt>
<totfact> 0.64121806E+04</totfact>
</mgrwt>
</event>
<event>
 6    0  0.1539652E-007  0.4610763E+03  0.7546771E-02  0.1024470E+00
         21   -1    0    0  502  501  0.00000000000E+00  0.00000000000E+00  0.59802194270E+03  0.59802194270E+03  0.00000000000E+00 0. -1.
         21   -1    0    0  501  502 -0.00000000000E+00 -0.00000000000E+00 -0.88872725077E+02  0.88872725077E+02  0.00000000000E+00 0. -1.
      99926    2    1    2    0    0  0.00000000000E+00  0.00000000000E+00  0.50914921763E+03  0.68689466778E+03  0.46107630476E+03 0.  0.
         25    1    3    3    0    0  0.80761659228E+01  0.54683392627E+02  0.14515241587E+03  0.19942976162E+03  0.12509000000E+03 0.  0.
         25    1    3    3    0    0  0.90252766963E+02  0.48757560909E+01  0.17565908519E+03  0.23382249090E+03  0.12509000000E+03 0.  0.
         25    1    3    3    0    0 -0.98328932885E+02 -0.59559148718E+02  0.18833771657E+03  0.25364241526E+03  0.12509000000E+03 0.  0.
<mgrwt>
<rscale>  2 0.46107630E+03</rscale>
<asrwt>0</asrwt>
<pdfrwt beam="1">  1       21 0.87944401E-01 0.46107630E+03</pdfrwt>
<pdfrwt beam="2">  1       21 0.13069519E-01 0.46107630E+03</pdfrwt>
<totfact> 0.51129487E+04</totfact>
</mgrwt>
</event>
<event>
 6    0  0.1539652E-007  0.4241907E+03  0.7546771E-02  0.1035711E+00
         21   -1    0    0  502  501  0.00000000000E+00  0.00000000000E+00  0.15680628381E+03  0.15680628381E+03  0.00000000000E+00 0. -1.
         21   -1    0    0  501  502 -0.00000000000E+00 -0.00000000000E+00 -0.28687905496E+03  0.28687905496E+03  0.00000000000E+00 0. -1.
      99926    2    1    2    0    0  0.00000000000E+00  0.17763568394E-14 -0.13007277115E+03  0.44368533877E+03  0.42419070481E+03 0.  0.
         25    1    3    3    0    0 -0.21774804034E+02 -0.63439992201E+02 -0.21284195213E+02  0.14352456155E+03  0.12509000000E+03 0.  0.
         25    1    3    3    0    0  0.32436487207E+02  0.69789485705E+01 -0.82092213017E+01  0.12967548280E+03  0.12509000000E+03 0.  0.
         25    1    3    3    0    0 -0.10661683173E+02  0.56461043631E+02 -0.10057935463E+03  0.17048529442E+03  0.12509000000E+03 0.  0.
<mgrwt>
<rscale>  2 0.42419070E+03</rscale>
<asrwt>0</asrwt>
<pdfrwt beam="1">  1       21 0.23059748E-01 0.42419070E+03</pdfrwt>
<pdfrwt beam="2">  1       21 0.42188096E-01 0.42419070E+03</pdfrwt>
<totfact> 0.89369011E+04</totfact>
</mgrwt>
</event>
<event>
 6    0  0.1539652E-007  0.4602387E+03  0.7546771E-02  0.1024712E+00
         21   -1    0    0  502  501  0.00000000000E+00  0.00000000000E+00  0.64419422441E+02  0.64419422441E+02  0.00000000000E+00 0.  1.
         21   -1    0    0  501  502 -0.00000000000E+00 -0.00000000000E+00 -0.82203334661E+03  0.82203334661E+03  0.00000000000E+00 0.  1.
      99926    2    1    2    0    0  0.17763568394E-14  0.17763568394E-14 -0.75761392417E+03  0.88645276905E+03  0.46023869205E+03 0.  0.
         25    1    3    3    0    0 -0.14192281125E+02  0.11767497958E+02 -0.20901550042E+03  0.24428442923E+03  0.12509000000E+03 0.  0.
         25    1    3    3    0    0 -0.16660141435E+02 -0.11339639774E+03 -0.28392310465E+03  0.33075087421E+03  0.12509000000E+03 0.  0.
         25    1    3    3    0    0  0.30852422560E+02  0.10162889978E+03 -0.26467531910E+03  0.31141746561E+03  0.12509000000E+03 0.  0.
<mgrwt>
<rscale>  2 0.46023869E+03</rscale>
<asrwt>0</asrwt>
<pdfrwt beam="1">  1       21 0.94734447E-02 0.46023869E+03</pdfrwt>
<pdfrwt beam="2">  1       21 0.12088725E+00 0.46023869E+03</pdfrwt>
<totfact> 0.42071889E+04</totfact>
</mgrwt>
</event>
<event>
 6    0  0.1539652E-007  0.4515148E+03  0.7546771E-02  0.1027271E+00
         21   -1    0    0  502  501  0.00000000000E+00  0.00000000000E+00  0.64292772188E+03  0.64292772188E+03  0.00000000000E+00 0.  1.
         21   -1    0    0  501  502 -0.00000000000E+00 -0.00000000000E+00 -0.79272377660E+02  0.79272377660E+02  0.00000000000E+00 0.  1.
      99926    2    1    2    0    0 -0.35527136788E-14 -0.71054273576E-14  0.56365534422E+03  0.72220009954E+03  0.45151482446E+03 0.  0.
         25    1    3    3    0    0  0.24399146252E+02 -0.10464080855E+03  0.19295309749E+03  0.25381769655E+03  0.12509000000E+03 0.  0.
         25    1    3    3    0    0 -0.13989967299E+02  0.61968528644E+02  0.26093799954E+03  0.29626333798E+03  0.12509000000E+03 0.  0.
         25    1    3    3    0    0 -0.10409178954E+02  0.42672279903E+02  0.10976424719E+03  0.17211906501E+03  0.12509000000E+03 0.  0.
<mgrwt>
<rscale>  2 0.45151482E+03</rscale>
<asrwt>0</asrwt>
<pdfrwt beam="1">  1       21 0.94548191E-01 0.45151482E+03</pdfrwt>
<pdfrwt beam="2">  1       21 0.11657703E-01 0.45151482E+03</pdfrwt>
<totfact> 0.53156360E+04</totfact>
</mgrwt>
</event>
<event>
 6    0  0.1539652E-007  0.4485036E+03  0.7546771E-02  0.1028169E+00
         21   -1    0    0  502  501  0.00000000000E+00  0.00000000000E+00  0.18913779433E+03  0.18913779433E+03  0.00000000000E+00 0. -1.
         21   -1    0    0  501  502 -0.00000000000E+00 -0.00000000000E+00 -0.26588485597E+03  0.26588485597E+03  0.00000000000E+00 0. -1.
      99926    2    1    2    0    0  0.71054273576E-14  0.00000000000E+00 -0.76747061636E+02  0.45502265030E+03  0.44850362408E+03 0.  0.
         25    1    3    3    0    0  0.17608124776E+02 -0.59716545665E+02 -0.20910946737E+02  0.14128300562E+03  0.12509000000E+03 0.  0.
         25    1    3    3    0    0 -0.93387725750E+02  0.23240810419E+02 -0.23321674534E+02  0.15953937192E+03  0.12509000000E+03 0.  0.
         25    1    3    3    0    0  0.75779600975E+02  0.36475735246E+02 -0.32514440365E+02  0.15420027276E+03  0.12509000000E+03 0.  0.
<mgrwt>
<rscale>  2 0.44850362E+03</rscale>
<asrwt>0</asrwt>
<pdfrwt beam="1">  1       21 0.27814382E-01 0.44850362E+03</pdfrwt>
<pdfrwt beam="2">  1       21 0.39100714E-01 0.44850362E+03</pdfrwt>
<totfact> 0.72213843E+04</totfact>
</mgrwt>
</event>
<event>
 6    0  0.1539652E-007  0.4497264E+03  0.7546771E-02  0.1027804E+00
         21   -1    0    0  502  501  0.00000000000E+00  0.00000000000E+00  0.64928116073E+03  0.64928116073E+03  0.00000000000E+00 0.  1.
         21   -1    0    0  501  502 -0.00000000000E+00 -0.00000000000E+00 -0.77876076880E+02  0.77876076880E+02  0.00000000000E+00 0.  1.
      99926    2    1    2    0    0  0.00000000000E+00  0.00000000000E+00  0.57140508385E+03  0.72715723761E+03  0.44972644837E+03 0.  0.
         25    1    3    3    0    0 -0.93237912207E+02  0.54958137741E+02  0.15478461686E+03  0.22653805617E+03  0.12509000000E+03 0.  0.
         25    1    3    3    0    0  0.44529443626E+02 -0.39527143765E+02  0.16896065291E+03  0.21849594224E+03  0.12509000000E+03 0.  0.
         25    1    3    3    0    0  0.48708468581E+02 -0.15430993976E+02  0.24765981409E+03  0.28212323921E+03  0.12509000000E+03 0.  0.
<mgrwt>
<rscale>  2 0.44972645E+03</rscale>
<asrwt>0</asrwt>
<pdfrwt beam="1">  1       21 0.95482521E-01 0.44972645E+03</pdfrwt>
<pdfrwt beam="2">  1       21 0.11452365E-01 0.44972645E+03</pdfrwt>
<totfact> 0.53643514E+04</totfact>
</mgrwt>
</event>
<event>
 6    0  0.1539652E-007  0.4710194E+03  0.7546771E-02  0.1021633E+00
         21   -1    0    0  502  501  0.00000000000E+00  0.00000000000E+00  0.17112425763E+03  0.17112425763E+03  0.00000000000E+00 0.  1.
         21   -1    0    0  501  502 -0.00000000000E+00 -0.00000000000E+00 -0.32412013003E+03  0.32412013003E+03  0.00000000000E+00 0.  1.
      99926    2    1    2    0    0  0.71054273576E-14  0.00000000000E+00 -0.15299587240E+03  0.49524438766E+03  0.47101939083E+03 0.  0.
         25    1    3    3    0    0  0.25152570577E+02 -0.60648092862E+01 -0.15475784710E+03  0.20066622301E+03  0.12509000000E+03 0.  0.
         25    1    3    3    0    0  0.62800908412E+02  0.28928411639E+01  0.16274921512E+02  0.14094220020E+03  0.12509000000E+03 0.  0.
         25    1    3    3    0    0 -0.87953478989E+02  0.31719681223E+01 -0.14512946812E+02  0.15363596445E+03  0.12509000000E+03 0.  0.
<mgrwt>
<rscale>  2 0.47101939E+03</rscale>
<asrwt>0</asrwt>
<pdfrwt beam="1">  1       21 0.25165332E-01 0.47101939E+03</pdfrwt>
<pdfrwt beam="2">  1       21 0.47664724E-01 0.47101939E+03</pdfrwt>
<totfact> 0.57887075E+04</totfact>
</mgrwt>
</event>
<event>
 6    0  0.1539652E-007  0.4333036E+03  0.7546771E-02  0.1032821E+00
         21   -1    0    0  502  501  0.00000000000E+00  0.00000000000E+00  0.26814534283E+03  0.26814534283E+03  0.00000000000E+00 0. -1.
         21   -1    0    0  501  502 -0.00000000000E+00 -0.00000000000E+00 -0.17504688297E+03  0.17504688297E+03  0.00000000000E+00 0. -1.
      99926    2    1    2    0    0  0.00000000000E+00  0.00000000000E+00  0.93098459859E+02  0.44319222580E+03  0.43330361848E+03 0.  0.
         25    1    3    3    0    0  0.88395691187E+01  0.22830303588E+02 -0.25584237560E+01  0.12748887942E+03  0.12509000000E+03 0.  0.
         25    1    3    3    0    0 -0.16127734641E+02 -0.80559140692E+02  0.33220842075E+01  0.14969443315E+03  0.12509000000E+03 0.  0.
         25    1    3    3    0    0  0.72881655221E+01  0.57728837104E+02  0.92334799407E+02  0.16600891323E+03  0.12509000000E+03 0.  0.
<mgrwt>
<rscale>  2 0.43330362E+03</rscale>
<asrwt>0</asrwt>
<pdfrwt beam="1">  1       21 0.39433139E-01 0.43330362E+03</pdfrwt>
<pdfrwt beam="2">  1       21 0.25742188E-01 0.43330362E+03</pdfrwt>
<totfact> 0.82847497E+04</totfact>
</mgrwt>
</event>
<event>
 6    0  0.1539652E-007  0.4558332E+03  0.7546771E-02  0.1025997E+00
         21   -1    0    0  502  501  0.00000000000E+00  0.00000000000E+00  0.24658631803E+03  0.24658631803E+03  0.00000000000E+00 0.  1.
         21   -1    0    0  501  502 -0.00000000000E+00 -0.00000000000E+00 -0.21066038915E+03  0.21066038915E+03  0.00000000000E+00 0.  1.
      99926    2    1    2    0    0  0.14210854715E-13  0.88817841970E-15  0.35925928882E+02  0.45724670719E+03  0.45583316999E+03 0.  0.
         25    1    3    3    0    0 -0.10501114350E+03 -0.41414107889E+02  0.75493947734E+01  0.16866229588E+03  0.12509000000E+03 0.  0.
         25    1    3    3    0    0  0.41032139064E+02  0.36533292391E+02 -0.23698230960E+02  0.13866301648E+03  0.12509000000E+03 0.  0.
         25    1    3    3    0    0  0.63979004434E+02  0.48808154981E+01  0.52074765068E+02  0.14992139482E+03  0.12509000000E+03 0.  0.
<mgrwt>
<rscale>  2 0.45583317E+03</rscale>
<asrwt>0</asrwt>
<pdfrwt beam="1">  1       21 0.36262694E-01 0.45583317E+03</pdfrwt>
<pdfrwt beam="2">  1       21 0.30979469E-01 0.45583317E+03</pdfrwt>
<totfact> 0.67928857E+04</totfact>
</mgrwt>
</event>
<event>
 6    0  0.1539652E-007  0.4545580E+03  0.7546771E-02  0.1026371E+00
         21   -1    0    0  502  501  0.00000000000E+00  0.00000000000E+00  0.33684602731E+02  0.33684602731E+02  0.00000000000E+00 0. -1.
         21   -1    0    0  501  502 -0.00000000000E+00 -0.00000000000E+00 -0.15335120981E+04  0.15335120981E+04  0.00000000000E+00 0. -1.
      99926    2    1    2    0    0  0.00000000000E+00  0.88817841970E-15 -0.14998274953E+04  0.15671967008E+04  0.45455800865E+03 0.  0.
         25    1    3    3    0    0  0.56575716629E+01  0.10904441254E+02 -0.25717202846E+03  0.28624443275E+03  0.12509000000E+03 0.  0.
         25    1    3    3    0    0 -0.73254625454E+02 -0.49024007876E+01 -0.87075906135E+03  0.88275654895E+03  0.12509000000E+03 0.  0.
         25    1    3    3    0    0  0.67597053791E+02 -0.60020404666E+01 -0.37189640552E+03  0.39819571910E+03  0.12509000000E+03 0.  0.
<mgrwt>
<rscale>  2 0.45455801E+03</rscale>
<asrwt>0</asrwt>
<pdfrwt beam="1">  1       21 0.49536180E-02 0.45455801E+03</pdfrwt>
<pdfrwt beam="2">  1       21 0.22551649E+00 0.45455801E+03</pdfrwt>
<totfact> 0.22255560E+04</totfact>
</mgrwt>
</event>
<event>
 6    0  0.1539652E-007  0.4576823E+03  0.7546771E-02  0.1025456E+00
         21   -1    0    0  502  501  0.00000000000E+00  0.00000000000E+00  0.30265138430E+02  0.30265138430E+02  0.00000000000E+00 0. -1.
         21   -1    0    0  501  502 -0.00000000000E+00 -0.00000000000E+00 -0.17303168825E+04  0.17303168825E+04  0.00000000000E+00 0. -1.
      99926    2    1    2    0    0  0.00000000000E+00  0.00000000000E+00 -0.17000517441E+04  0.17605820209E+04  0.45768233515E+03 0.  0.
         25    1    3    3    0    0  0.49272103074E+02  0.23565146903E+02 -0.69951830270E+03  0.71271061463E+03  0.12509000000E+03 0.  0.
         25    1    3    3    0    0 -0.10124787858E+03 -0.53356220994E+02 -0.62335223670E+03  0.64599809468E+03  0.12509000000E+03 0.  0.
         25    1    3    3    0    0  0.51975775509E+02  0.29791074091E+02 -0.37718120468E+03  0.40187331163E+03  0.12509000000E+03 0.  0.
<mgrwt>
<rscale>  2 0.45768234E+03</rscale>
<asrwt>0</asrwt>
<pdfrwt beam="1">  1       21 0.44507556E-02 0.45768234E+03</pdfrwt>
<pdfrwt beam="2">  1       21 0.25445837E+00 0.45768234E+03</pdfrwt>
<totfact> 0.17658704E+04</totfact>
</mgrwt>
</event>
<event>
 6    0  0.1539652E-007  0.4537015E+03  0.7546771E-02  0.1026624E+00
         21   -1    0    0  502  501  0.00000000000E+00  0.00000000000E+00  0.20163633467E+03  0.20163633467E+03  0.00000000000E+00 0. -1.
         21   -1    0    0  501  502 -0.00000000000E+00 -0.00000000000E+00 -0.25521815694E+03  0.25521815694E+03  0.00000000000E+00 0. -1.
      99926    2    1    2    0    0  0.53290705182E-14  0.00000000000E+00 -0.53581822268E+02  0.45685449161E+03  0.45370146002E+03 0.  0.
         25    1    3    3    0    0 -0.94611442691E+02  0.24259603113E+02 -0.32800206941E+02  0.16205929503E+03  0.12509000000E+03 0.  0.
         25    1    3    3    0    0  0.15962775299E+02 -0.77841320717E+01 -0.61680205146E+02  0.14059643919E+03  0.12509000000E+03 0.  0.
         25    1    3    3    0    0  0.78648667392E+02 -0.16475471041E+02  0.40898589819E+02  0.15419875738E+03  0.12509000000E+03 0.  0.
<mgrwt>
<rscale>  2 0.45370146E+03</rscale>
<asrwt>0</asrwt>
<pdfrwt beam="1">  1       21 0.29652402E-01 0.45370146E+03</pdfrwt>
<pdfrwt beam="2">  1       21 0.37532082E-01 0.45370146E+03</pdfrwt>
<totfact> 0.69123409E+04</totfact>
</mgrwt>
</event>
<event>
 6    0  0.1539652E-007  0.4547896E+03  0.7546771E-02  0.1026303E+00
         21   -1    0    0  502  501  0.00000000000E+00  0.00000000000E+00  0.90913017042E+02  0.90913017042E+02  0.00000000000E+00 0. -1.
         21   -1    0    0  501  502 -0.00000000000E+00 -0.00000000000E+00 -0.56876769920E+03  0.56876769920E+03  0.00000000000E+00 0. -1.
      99926    2    1    2    0    0  0.14210854715E-13  0.00000000000E+00 -0.47785468216E+03  0.65968071625E+03  0.45478956686E+03 0.  0.
         25    1    3    3    0    0  0.47940653272E+02  0.56942733446E+02 -0.73490733499E+02  0.16306188132E+03  0.12509000000E+03 0.  0.
         25    1    3    3    0    0  0.24447659259E+02  0.11645229434E+02 -0.16773692660E+03  0.21098929844E+03  0.12509000000E+03 0.  0.
         25    1    3    3    0    0 -0.72388312531E+02 -0.68587962880E+02 -0.23662702207E+03  0.28562953649E+03  0.12509000000E+03 0.  0.
<mgrwt>
<rscale>  2 0.45478957E+03</rscale>
<asrwt>0</asrwt>
<pdfrwt beam="1">  1       21 0.13369561E-01 0.45478957E+03</pdfrwt>
<pdfrwt beam="2">  1       21 0.83642309E-01 0.45478957E+03</pdfrwt>
<totfact> 0.55238422E+04</totfact>
</mgrwt>
</event>
<event>
 6    0  0.1539652E-007  0.4575057E+03  0.7546771E-02  0.1025507E+00
         21   -1    0    0  502  501  0.00000000000E+00  0.00000000000E+00  0.57698418620E+02  0.57698418620E+02  0.00000000000E+00 0. -1.
         21   -1    0    0  501  502 -0.00000000000E+00 -0.00000000000E+00 -0.90692043129E+03  0.90692043129E+03  0.00000000000E+00 0. -1.
      99926    2    1    2    0    0  0.00000000000E+00  0.00000000000E+00 -0.84922201267E+03  0.96461884991E+03  0.45750573635E+03 0.  0.
         25    1    3    3    0    0 -0.35019598389E+02  0.27410683387E+02 -0.25956822148E+03  0.29154911685E+03  0.12509000000E+03 0.  0.
         25    1    3    3    0    0  0.72543036705E+02 -0.13752389257E+02 -0.12967951055E+03  0.19472006559E+03  0.12509000000E+03 0.  0.
         25    1    3    3    0    0 -0.37523438316E+02 -0.13658294129E+02 -0.45997428063E+03  0.47834966747E+03  0.12509000000E+03 0.  0.
<mgrwt>
<rscale>  2 0.45750574E+03</rscale>
<asrwt>0</asrwt>
<pdfrwt beam="1">  1       21 0.84850613E-02 0.45750574E+03</pdfrwt>
<pdfrwt beam="2">  1       21 0.13337066E+00 0.45750574E+03</pdfrwt>
<totfact> 0.39769610E+04</totfact>
</mgrwt>
</event>
<event>
 6    0  0.1539652E-007  0.4572388E+03  0.7546771E-02  0.1025585E+00
         21   -1    0    0  502  501  0.00000000000E+00  0.00000000000E+00  0.25883416330E+02  0.25883416330E+02  0.00000000000E+00 0. -1.
         21   -1    0    0  501  502 -0.00000000000E+00 -0.00000000000E+00 -0.20193173010E+04  0.20193173010E+04  0.00000000000E+00 0. -1.
      99926    2    1    2    0    0  0.17763568394E-14  0.00000000000E+00 -0.19934338846E+04  0.20452007173E+04  0.45723880152E+03 0.  0.
         25    1    3    3    0    0  0.24824273998E+00 -0.22752132948E+02 -0.12877955931E+04  0.12940566908E+04  0.12509000000E+03 0.  0.
         25    1    3    3    0    0  0.99792300649E+01 -0.78528364394E+01 -0.29536877392E+03  0.32101631232E+03  0.12509000000E+03 0.  0.
         25    1    3    3    0    0 -0.10227472805E+02  0.30604969387E+02 -0.41026951763E+03  0.43012771423E+03  0.12509000000E+03 0.  0.
<mgrwt>
<rscale>  2 0.45723880E+03</rscale>
<asrwt>0</asrwt>
<pdfrwt beam="1">  1       21 0.38063843E-02 0.45723880E+03</pdfrwt>
<pdfrwt beam="2">  1       21 0.29695846E+00 0.45723880E+03</pdfrwt>
<totfact> 0.12762482E+04</totfact>
</mgrwt>
</event>
<event>
 6    0  0.6929250E-007  0.4501866E+03  0.7546771E-02  0.1027666E+00
         21   -1    0    0  502  501  0.00000000000E+00  0.00000000000E+00  0.44789902047E+02  0.44789902047E+02  0.00000000000E+00 0.  1.
         21   -1    0    0  501  502 -0.00000000000E+00 -0.00000000000E+00 -0.11312146397E+04  0.11312146397E+04  0.00000000000E+00 0. -1.
      99926    2    1    2    0    0  0.35527136788E-14  0.71054273576E-14 -0.10864247376E+04  0.11760045417E+04  0.45018659645E+03 0.  0.
         25    1    3    3    0    0 -0.30640158207E+02  0.68808043621E+02 -0.19736242302E+03  0.24550519401E+03  0.12509000000E+03 0.  0.
         25    1    3    3    0    0 -0.24791273135E+02 -0.18946077007E+02 -0.42530197526E+03  0.44441291534E+03  0.12509000000E+03 0.  0.
         25    1    3    3    0    0  0.55431431342E+02 -0.49861966613E+02 -0.46376033934E+03  0.48608643237E+03  0.12509000000E+03 0.  0.
<mgrwt>
<rscale>  2 0.45018660E+03</rscale>
<asrwt>0</asrwt>
<pdfrwt beam="1">  1       21 0.65867514E-02 0.45018660E+03</pdfrwt>
<pdfrwt beam="2">  1       21 0.16635507E+00 0.45018660E+03</pdfrwt>
<totfact> 0.34190304E+04</totfact>
</mgrwt>
</event>
<event>
 6    0  0.1539652E-007  0.4562377E+03  0.7546771E-02  0.1025878E+00
         21   -1    0    0  502  501  0.00000000000E+00  0.00000000000E+00  0.66537921194E+02  0.66537921194E+02  0.00000000000E+00 0. -1.
         21   -1    0    0  501  502 -0.00000000000E+00 -0.00000000000E+00 -0.78208345878E+03  0.78208345878E+03  0.00000000000E+00 0. -1.
      99926    2    1    2    0    0  0.00000000000E+00  0.00000000000E+00 -0.71554553759E+03  0.84862137998E+03  0.45623769045E+03 0.  0.
         25    1    3    3    0    0  0.18397371447E+01 -0.53135268372E+02 -0.19759059387E+03  0.23982554548E+03  0.12509000000E+03 0.  0.
         25    1    3    3    0    0  0.45065190860E+01 -0.26456575752E+02 -0.91587302685E+02  0.15734039922E+03  0.12509000000E+03 0.  0.
         25    1    3    3    0    0 -0.63462562307E+01  0.79591844124E+02 -0.42636764104E+03  0.45145543528E+03  0.12509000000E+03 0.  0.
<mgrwt>
<rscale>  2 0.45623769E+03</rscale>
<asrwt>0</asrwt>
<pdfrwt beam="1">  1       21 0.97849876E-02 0.45623769E+03</pdfrwt>
<pdfrwt beam="2">  1       21 0.11501228E+00 0.45623769E+03</pdfrwt>
<totfact> 0.45061992E+04</totfact>
</mgrwt>
</event>
<event>
 6    0  0.1539652E-007  0.4556197E+03  0.7546771E-02  0.1026059E+00
         21   -1    0    0  502  501  0.00000000000E+00  0.00000000000E+00  0.56232367194E+02  0.56232367194E+02  0.00000000000E+00 0. -1.
         21   -1    0    0  501  502 -0.00000000000E+00 -0.00000000000E+00 -0.92290826613E+03  0.92290826613E+03  0.00000000000E+00 0. -1.
      99926    2    1    2    0    0  0.00000000000E+00  0.44408920985E-15 -0.86667589894E+03  0.97914063333E+03  0.45561965062E+03 0.  0.
         25    1    3    3    0    0 -0.59164970345E+02 -0.44713569131E+02 -0.17946256226E+03  0.23098509981E+03  0.12509000000E+03 0.  0.
         25    1    3    3    0    0  0.29723352880E+02  0.21310944211E+01 -0.50524138942E+03  0.52134862516E+03  0.12509000000E+03 0.  0.
         25    1    3    3    0    0  0.29441617465E+02  0.42582474710E+02 -0.18197194726E+03  0.22680690836E+03  0.12509000000E+03 0.  0.
<mgrwt>
<rscale>  2 0.45561965E+03</rscale>
<asrwt>0</asrwt>
<pdfrwt beam="1">  1       21 0.82694666E-02 0.45561965E+03</pdfrwt>
<pdfrwt beam="2">  1       21 0.13572179E+00 0.45561965E+03</pdfrwt>
<totfact> 0.39789610E+04</totfact>
</mgrwt>
</event>
<event>
 6    0  0.1539652E-007  0.4597070E+03  0.7546771E-02  0.1024866E+00
         21   -1    0    0  502  501  0.00000000000E+00  0.00000000000E+00  0.15371494742E+04  0.15371494742E+04  0.00000000000E+00 0.  1.
         21   -1    0    0  501  502 -0.00000000000E+00 -0.00000000000E+00 -0.34370519007E+02  0.34370519007E+02  0.00000000000E+00 0.  1.
      99926    2    1    2    0    0  0.14210854715E-13 -0.10658141036E-13  0.15027789552E+04  0.15715199932E+04  0.45970697284E+03 0.  0.
         25    1    3    3    0    0  0.22335509739E+02  0.87907275055E+02  0.38155161679E+03  0.41164998285E+03  0.12509000000E+03 0.  0.
         25    1    3    3    0    0  0.50312554106E+02 -0.67238280951E+02  0.55359506454E+03  0.57373107212E+03  0.12509000000E+03 0.  0.
         25    1    3    3    0    0 -0.72648063845E+02 -0.20668994103E+02  0.56763227385E+03  0.58613893824E+03  0.12509000000E+03 0.  0.
<mgrwt>
<rscale>  2 0.45970697E+03</rscale>
<asrwt>0</asrwt>
<pdfrwt beam="1">  1       21 0.22605135E+00 0.45970697E+03</pdfrwt>
<pdfrwt beam="2">  1       21 0.50544891E-02 0.45970697E+03</pdfrwt>
<totfact> 0.21290517E+04</totfact>
</mgrwt>
</event>
<event>
 6    0  0.1539652E-007  0.4594865E+03  0.7546771E-02  0.1024930E+00
         21   -1    0    0  502  501  0.00000000000E+00  0.00000000000E+00  0.35965514095E+02  0.35965514095E+02  0.00000000000E+00 0.  1.
         21   -1    0    0  501  502 -0.00000000000E+00 -0.00000000000E+00 -0.14675711687E+04  0.14675711687E+04  0.00000000000E+00 0.  1.
      99926    2    1    2    0    0  0.35527136788E-14  0.00000000000E+00 -0.14316056546E+04  0.15035366828E+04  0.45948645923E+03 0.  0.
         25    1    3    3    0    0  0.61243346442E+02 -0.30324302413E+02 -0.41555611478E+03  0.43932300581E+03  0.12509000000E+03 0.  0.
         25    1    3    3    0    0 -0.24613866522E+02  0.52790239396E+02 -0.23887693750E+03  0.27586654594E+03  0.12509000000E+03 0.  0.
         25    1    3    3    0    0 -0.36629479919E+02 -0.22465936983E+02 -0.77717260236E+03  0.78834713108E+03  0.12509000000E+03 0.  0.
<mgrwt>
<rscale>  2 0.45948646E+03</rscale>
<asrwt>0</asrwt>
<pdfrwt beam="1">  1       21 0.52890462E-02 0.45948646E+03</pdfrwt>
<pdfrwt beam="2">  1       21 0.21581929E+00 0.45948646E+03</pdfrwt>
<totfact> 0.22884660E+04</totfact>
</mgrwt>
</event>
<event>
 6    0  0.1539652E-007  0.4603671E+03  0.7546771E-02  0.1024675E+00
         21   -1    0    0  502  501  0.00000000000E+00  0.00000000000E+00  0.11843189488E+03  0.11843189488E+03  0.00000000000E+00 0. -1.
         21   -1    0    0  501  502 -0.00000000000E+00 -0.00000000000E+00 -0.44738339768E+03  0.44738339768E+03  0.00000000000E+00 0. -1.
      99926    2    1    2    0    0  0.71054273576E-14 -0.35527136788E-14 -0.32895150280E+03  0.56581529255E+03  0.46036708624E+03 0.  0.
         25    1    3    3    0    0 -0.52382944228E+02 -0.21539875208E+02 -0.10043426491E+03  0.17012492098E+03  0.12509000000E+03 0.  0.
         25    1    3    3    0    0 -0.65619506575E+02  0.39967243029E+02 -0.77066175196E+02  0.16580109655E+03  0.12509000000E+03 0.  0.
         25    1    3    3    0    0  0.11800245080E+03 -0.18427367820E+02 -0.15145106270E+03  0.22988927503E+03  0.12509000000E+03 0.  0.
<mgrwt>
<rscale>  2 0.46036709E+03</rscale>
<asrwt>0</asrwt>
<pdfrwt beam="1">  1       21 0.17416455E-01 0.46036709E+03</pdfrwt>
<pdfrwt beam="2">  1       21 0.65791676E-01 0.46036709E+03</pdfrwt>
<totfact> 0.58318214E+04</totfact>
</mgrwt>
</event>
<event>
 6    0  0.1539652E-007  0.4613178E+03  0.7546771E-02  0.1024400E+00
         21   -1    0    0  502  501  0.00000000000E+00  0.00000000000E+00  0.30243418328E+03  0.30243418328E+03  0.00000000000E+00 0. -1.
         21   -1    0    0  501  502 -0.00000000000E+00 -0.00000000000E+00 -0.17591771678E+03  0.17591771678E+03  0.00000000000E+00 0. -1.
      99926    2    1    2    0    0  0.00000000000E+00  0.00000000000E+00  0.12651646650E+03  0.47835190006E+03  0.46131781236E+03 0.  0.
         25    1    3    3    0    0 -0.46377751377E+02  0.17289035871E+02  0.16245594461E+03  0.21092474635E+03  0.12509000000E+03 0.  0.
         25    1    3    3    0    0  0.27403584282E+02 -0.44507724953E+02 -0.16964851065E+02  0.13662799231E+03  0.12509000000E+03 0.  0.
         25    1    3    3    0    0  0.18974167095E+02  0.27218689082E+02 -0.18974627043E+02  0.13079916140E+03  0.12509000000E+03 0.  0.
<mgrwt>
<rscale>  2 0.46131781E+03</rscale>
<asrwt>0</asrwt>
<pdfrwt beam="1">  1       21 0.44475615E-01 0.46131781E+03</pdfrwt>
<pdfrwt beam="2">  1       21 0.25870252E-01 0.46131781E+03</pdfrwt>
<totfact> 0.63572722E+04</totfact>
</mgrwt>
</event>
<event>
 6    0  0.1539652E-007  0.4676795E+03  0.7546771E-02  0.1022577E+00
         21   -1    0    0  502  501  0.00000000000E+00  0.00000000000E+00  0.24638386571E+03  0.24638386571E+03  0.00000000000E+00 0. -1.
         21   -1    0    0  501  502 -0.00000000000E+00 -0.00000000000E+00 -0.22193425995E+03  0.22193425995E+03  0.00000000000E+00 0. -1.
      99926    2    1    2    0    0  0.00000000000E+00  0.00000000000E+00  0.24449605760E+02  0.46831812567E+03  0.46767946673E+03 0.  0.
         25    1    3    3    0    0  0.27088214171E+02  0.24817896250E+02 -0.96138752976E+02  0.16198724408E+03  0.12509000000E+03 0.  0.
         25    1    3    3    0    0  0.64574801201E+01  0.41227106834E+02  0.30651709828E+02  0.13538245382E+03  0.12509000000E+03 0.  0.
         25    1    3    3    0    0 -0.33545694291E+02 -0.66045003084E+02  0.89936648908E+02  0.17094842776E+03  0.12509000000E+03 0.  0.
<mgrwt>
<rscale>  2 0.46767947E+03</rscale>
<asrwt>0</asrwt>
<pdfrwt beam="1">  1       21 0.36232922E-01 0.46767947E+03</pdfrwt>
<pdfrwt beam="2">  1       21 0.32637391E-01 0.46767947E+03</pdfrwt>
<totfact> 0.61155814E+04</totfact>
</mgrwt>
</event>
<event>
 6    0  0.1539652E-007  0.4519201E+03  0.7546771E-02  0.1027151E+00
         21   -1    0    0  502  501  0.00000000000E+00  0.00000000000E+00  0.33854529567E+03  0.33854529567E+03  0.00000000000E+00 0. -1.
         21   -1    0    0  501  502 -0.00000000000E+00 -0.00000000000E+00 -0.15081572152E+03  0.15081572152E+03  0.00000000000E+00 0. -1.
      99926    2    1    2    0    0  0.00000000000E+00  0.88817841970E-15  0.18772957415E+03  0.48936101720E+03  0.45192013912E+03 0.  0.
         25    1    3    3    0    0  0.38530245988E+02  0.73025360736E+01  0.19758701753E+02  0.13257383333E+03  0.12509000000E+03 0.  0.
         25    1    3    3    0    0 -0.10513066944E+03  0.18531185097E+02  0.53950489349E+02  0.17307231401E+03  0.12509000000E+03 0.  0.
         25    1    3    3    0    0  0.66600423450E+02 -0.25833721170E+02  0.11402038305E+03  0.18371486985E+03  0.12509000000E+03 0.  0.
<mgrwt>
<rscale>  2 0.45192014E+03</rscale>
<asrwt>0</asrwt>
<pdfrwt beam="1">  1       21 0.49786073E-01 0.45192014E+03</pdfrwt>
<pdfrwt beam="2">  1       21 0.22178783E-01 0.45192014E+03</pdfrwt>
<totfact> 0.67664056E+04</totfact>
</mgrwt>
</event>
<event>
 6    0  0.1539652E-007  0.4452644E+03  0.7546771E-02  0.1029144E+00
         21   -1    0    0  502  501  0.00000000000E+00  0.00000000000E+00  0.19792868725E+02  0.19792868725E+02  0.00000000000E+00 0. -1.
         21   -1    0    0  501  502 -0.00000000000E+00 -0.00000000000E+00 -0.25041897272E+04  0.25041897272E+04  0.00000000000E+00 0. -1.
      99926    2    1    2    0    0  0.00000000000E+00  0.00000000000E+00 -0.24843968585E+04  0.25239825960E+04  0.44526440924E+03 0.  0.
         25    1    3    3    0    0 -0.83432539356E+01  0.41538801863E+01 -0.41766503296E+03  0.43609454533E+03  0.12509000000E+03 0.  0.
         25    1    3    3    0    0 -0.25653051818E+02  0.59932776173E+02 -0.13007681936E+04  0.13083942136E+04  0.12509000000E+03 0.  0.
         25    1    3    3    0    0  0.33996305754E+02 -0.64086656360E+02 -0.76596363199E+03  0.77949383703E+03  0.12509000000E+03 0.  0.
<mgrwt>
<rscale>  2 0.44526441E+03</rscale>
<asrwt>0</asrwt>
<pdfrwt beam="1">  1       21 0.29107158E-02 0.44526441E+03</pdfrwt>
<pdfrwt beam="2">  1       21 0.36826322E+00 0.44526441E+03</pdfrwt>
<totfact> 0.74366782E+03</totfact>
</mgrwt>
</event>
<event>
 6    0  0.1539652E-007  0.4631819E+03  0.7546771E-02  0.1023862E+00
         21   -1    0    0  502  501  0.00000000000E+00  0.00000000000E+00  0.92076923162E+02  0.92076923162E+02  0.00000000000E+00 0. -1.
         21   -1    0    0  501  502 -0.00000000000E+00 -0.00000000000E+00 -0.58249523180E+03  0.58249523180E+03  0.00000000000E+00 0. -1.
      99926    2    1    2    0    0  0.00000000000E+00  0.00000000000E+00 -0.49041830863E+03  0.67457215496E+03  0.46318190250E+03 0.  0.
         25    1    3    3    0    0  0.36764680423E+02 -0.50511252326E+02 -0.12117541502E+03  0.18502437040E+03  0.12509000000E+03 0.  0.
         25    1    3    3    0    0  0.10976887034E+02  0.24923089976E+02 -0.31992176775E+03  0.34458540022E+03  0.12509000000E+03 0.  0.
         25    1    3    3    0    0 -0.47741567456E+02  0.25588162350E+02 -0.49321125862E+02  0.14496238433E+03  0.12509000000E+03 0.  0.
<mgrwt>
<rscale>  2 0.46318190E+03</rscale>
<asrwt>0</asrwt>
<pdfrwt beam="1">  1       21 0.13540724E-01 0.46318190E+03</pdfrwt>
<pdfrwt beam="2">  1       21 0.85661063E-01 0.46318190E+03</pdfrwt>
<totfact> 0.50940101E+04</totfact>
</mgrwt>
</event>
<event>
 6    0  0.1539652E-007  0.4545094E+03  0.7546771E-02  0.1026386E+00
         21   -1    0    0  502  501  0.00000000000E+00  0.00000000000E+00  0.30460304463E+03  0.30460304463E+03  0.00000000000E+00 0.  1.
         21   -1    0    0  501  502 -0.00000000000E+00 -0.00000000000E+00 -0.16954754063E+03  0.16954754063E+03  0.00000000000E+00 0.  1.
      99926    2    1    2    0    0  0.00000000000E+00  0.35527136788E-14  0.13505550400E+03  0.47415058527E+03  0.45450939302E+03 0.  0.
         25    1    3    3    0    0  0.26022003525E+02 -0.49387361839E+02 -0.14851210652E+02  0.13778360837E+03  0.12509000000E+03 0.  0.
         25    1    3    3    0    0  0.64099647627E+02  0.42007185327E+02  0.76568265021E+02  0.16547983488E+03  0.12509000000E+03 0.  0.
         25    1    3    3    0    0 -0.90121651151E+02  0.73801765118E+01  0.73338449629E+02  0.17088714201E+03  0.12509000000E+03 0.  0.
<mgrwt>
<rscale>  2 0.45450939E+03</rscale>
<asrwt>0</asrwt>
<pdfrwt beam="1">  1       21 0.44794565E-01 0.45450939E+03</pdfrwt>
<pdfrwt beam="2">  1       21 0.24933462E-01 0.45450939E+03</pdfrwt>
<totfact> 0.67390421E+04</totfact>
</mgrwt>
</event>
<event>
 6    0  0.1539652E-007  0.4565126E+03  0.7546771E-02  0.1025798E+00
         21   -1    0    0  502  501  0.00000000000E+00  0.00000000000E+00  0.11835822236E+03  0.11835822236E+03  0.00000000000E+00 0. -1.
         21   -1    0    0  501  502 -0.00000000000E+00 -0.00000000000E+00 -0.44019696261E+03  0.44019696261E+03  0.00000000000E+00 0. -1.
      99926    2    1    2    0    0 -0.35527136788E-14  0.00000000000E+00 -0.32183874025E+03  0.55855518497E+03  0.45651256273E+03 0.  0.
         25    1    3    3    0    0  0.60273773580E+02 -0.35380793071E+01 -0.57247460015E+02  0.15023390285E+03  0.12509000000E+03 0.  0.
         25    1    3    3    0    0 -0.85768613164E+02 -0.36488803552E+02 -0.67186600891E+02  0.16985062622E+03  0.12509000000E+03 0.  0.
         25    1    3    3    0    0  0.25494839584E+02  0.40026882859E+02 -0.19740467935E+03  0.23847065590E+03  0.12509000000E+03 0.  0.
<mgrwt>
<rscale>  2 0.45651256E+03</rscale>
<asrwt>0</asrwt>
<pdfrwt beam="1">  1       21 0.17405621E-01 0.45651256E+03</pdfrwt>
<pdfrwt beam="2">  1       21 0.64734847E-01 0.45651256E+03</pdfrwt>
<totfact> 0.60576654E+04</totfact>
</mgrwt>
</event>
<event>
 6    0  0.1539652E-007  0.4508238E+03  0.7546771E-02  0.1027477E+00
         21   -1    0    0  502  501  0.00000000000E+00  0.00000000000E+00  0.84634307813E+02  0.84634307813E+02  0.00000000000E+00 0. -1.
         21   -1    0    0  501  502 -0.00000000000E+00 -0.00000000000E+00 -0.60035368052E+03  0.60035368052E+03  0.00000000000E+00 0. -1.
      99926    2    1    2    0    0 -0.71054273576E-14  0.00000000000E+00 -0.51571937271E+03  0.68498798833E+03  0.45082377131E+03 0.  0.
         25    1    3    3    0    0 -0.33149334478E+02  0.54024402878E+02 -0.88924657225E+02  0.16605004440E+03  0.12509000000E+03 0.  0.
         25    1    3    3    0    0 -0.11290389663E+02 -0.87812961958E+02 -0.27228130700E+03  0.31244712741E+03  0.12509000000E+03 0.  0.
         25    1    3    3    0    0  0.44439724141E+02  0.33788559080E+02 -0.15451340848E+03  0.20649081652E+03  0.12509000000E+03 0.  0.
<mgrwt>
<rscale>  2 0.45082377E+03</rscale>
<asrwt>0</asrwt>
<pdfrwt beam="1">  1       21 0.12446222E-01 0.45082377E+03</pdfrwt>
<pdfrwt beam="2">  1       21 0.88287303E-01 0.45082377E+03</pdfrwt>
<totfact> 0.55529209E+04</totfact>
</mgrwt>
</event>
<event>
 6    0  0.1539652E-007  0.4564289E+03  0.7546771E-02  0.1025822E+00
         21   -1    0    0  502  501  0.00000000000E+00  0.00000000000E+00  0.85942770095E+03  0.85942770095E+03  0.00000000000E+00 0. -1.
         21   -1    0    0  501  502 -0.00000000000E+00 -0.00000000000E+00 -0.60600599931E+02  0.60600599931E+02  0.00000000000E+00 0. -1.
      99926    2    1    2    0    0  0.35527136788E-14  0.97699626167E-14  0.79882710102E+03  0.92002830088E+03  0.45642889600E+03 0.  0.
         25    1    3    3    0    0  0.20929256629E+02  0.51904836197E+01  0.15950996454E+03  0.20385267178E+03  0.12509000000E+03 0.  0.
         25    1    3    3    0    0  0.44690421490E+02 -0.87607779267E+02  0.30608020921E+03  0.34497095433E+03  0.12509000000E+03 0.  0.
         25    1    3    3    0    0 -0.65619678118E+02  0.82417295647E+02  0.33323692728E+03  0.37120467478E+03  0.12509000000E+03 0.  0.
<mgrwt>
<rscale>  2 0.45642890E+03</rscale>
<asrwt>0</asrwt>
<pdfrwt beam="1">  1       21 0.12638642E+00 0.45642890E+03</pdfrwt>
<pdfrwt beam="2">  1       21 0.89118535E-02 0.45642890E+03</pdfrwt>
<totfact> 0.41908524E+04</totfact>
</mgrwt>
</event>
<event>
 6    0  0.1539652E-007  0.4561355E+03  0.7546771E-02  0.1025908E+00
         21   -1    0    0  502  501  0.00000000000E+00  0.00000000000E+00  0.12673019329E+04  0.12673019329E+04  0.00000000000E+00 0.  1.
         21   -1    0    0  501  502 -0.00000000000E+00 -0.00000000000E+00 -0.41043802073E+02  0.41043802073E+02  0.00000000000E+00 0.  1.
      99926    2    1    2    0    0  0.71054273576E-14  0.00000000000E+00  0.12262581309E+04  0.13083457350E+04  0.45613546103E+03 0.  0.
         25    1    3    3    0    0 -0.84984342652E+02  0.11088968129E+02  0.38653965105E+03  0.41521767020E+03  0.12509000000E+03 0.  0.
         25    1    3    3    0    0  0.11736496634E+03 -0.55425804393E+01  0.41291391403E+03  0.44715843280E+03  0.12509000000E+03 0.  0.
         25    1    3    3    0    0 -0.32380623688E+02 -0.55463876895E+01  0.42680456578E+03  0.44596963201E+03  0.12509000000E+03 0.  0.
<mgrwt>
<rscale>  2 0.45613546E+03</rscale>
<asrwt>0</asrwt>
<pdfrwt beam="1">  1       21 0.18636791E+00 0.45613546E+03</pdfrwt>
<pdfrwt beam="2">  1       21 0.60358541E-02 0.45613546E+03</pdfrwt>
<totfact> 0.28619719E+04</totfact>
</mgrwt>
</event>
<event>
 6    0  0.1539652E-007  0.4577850E+03  0.7546771E-02  0.1025426E+00
         21   -1    0    0  502  501  0.00000000000E+00  0.00000000000E+00  0.17581666039E+03  0.17581666039E+03  0.00000000000E+00 0.  1.
         21   -1    0    0  501  502 -0.00000000000E+00 -0.00000000000E+00 -0.29799098340E+03  0.29799098340E+03  0.00000000000E+00 0.  1.
      99926    2    1    2    0    0  0.00000000000E+00 -0.71054273576E-14 -0.12217432301E+03  0.47380764380E+03  0.45778501299E+03 0.  0.
         25    1    3    3    0    0  0.64577529822E+02  0.30977770144E+02  0.42572425576E+02  0.15029903233E+03  0.12509000000E+03 0.  0.
         25    1    3    3    0    0 -0.29531375410E+02 -0.64878254987E+02 -0.79348127914E+02  0.16439258988E+03  0.12509000000E+03 0.  0.
         25    1    3    3    0    0 -0.35046154412E+02  0.33900484843E+02 -0.85398620674E+02  0.15911602158E+03  0.12509000000E+03 0.  0.
<mgrwt>
<rscale>  2 0.45778501E+03</rscale>
<asrwt>0</asrwt>
<pdfrwt beam="1">  1       21 0.25855392E-01 0.45778501E+03</pdfrwt>
<pdfrwt beam="2">  1       21 0.43822203E-01 0.45778501E+03</pdfrwt>
<totfact> 0.65690111E+04</totfact>
</mgrwt>
</event>
<event>
 6    0  0.1539652E-007  0.4538514E+03  0.7546771E-02  0.1026580E+00
         21   -1    0    0  502  501  0.00000000000E+00  0.00000000000E+00  0.16961159741E+03  0.16961159741E+03  0.00000000000E+00 0.  1.
         21   -1    0    0  501  502 -0.00000000000E+00 -0.00000000000E+00 -0.30360698502E+03  0.30360698502E+03  0.00000000000E+00 0.  1.
      99926    2    1    2    0    0  0.00000000000E+00  0.00000000000E+00 -0.13399538762E+03  0.47321858243E+03  0.45385136648E+03 0.  0.
         25    1    3    3    0    0 -0.39024565269E+02  0.36672902312E+02 -0.79667404187E+02  0.15767758829E+03  0.12509000000E+03 0.  0.
         25    1    3    3    0    0 -0.17084023032E+02  0.20624873714E+02  0.46342758201E+02  0.13606031235E+03  0.12509000000E+03 0.  0.
         25    1    3    3    0    0  0.56108588301E+02 -0.57297776025E+02 -0.10067074163E+03  0.17948068180E+03  0.12509000000E+03 0.  0.
<mgrwt>
<rscale>  2 0.45385137E+03</rscale>
<asrwt>0</asrwt>
<pdfrwt beam="1">  1       21 0.24942882E-01 0.45385137E+03</pdfrwt>
<pdfrwt beam="2">  1       21 0.44648086E-01 0.45385137E+03</pdfrwt>
<totfact> 0.67813170E+04</totfact>
</mgrwt>
</event>
<event>
 6    0  0.1539652E-007  0.4531773E+03  0.7546771E-02  0.1026779E+00
         21   -1    0    0  502  501  0.00000000000E+00  0.00000000000E+00  0.69978671072E+03  0.69978671072E+03  0.00000000000E+00 0.  1.
         21   -1    0    0  501  502 -0.00000000000E+00 -0.00000000000E+00 -0.73368671935E+02  0.73368671935E+02  0.00000000000E+00 0.  1.
      99926    2    1    2    0    0  0.00000000000E+00  0.00000000000E+00  0.62641803879E+03  0.77315538266E+03  0.45317732337E+03 0.  0.
         25    1    3    3    0    0  0.10845391235E+02  0.10504099840E+02  0.37777415358E+03  0.39823206531E+03  0.12509000000E+03 0.  0.
         25    1    3    3    0    0 -0.38087761673E+01 -0.65570263993E+02  0.10143771030E+03  0.17392838603E+03  0.12509000000E+03 0.  0.
         25    1    3    3    0    0 -0.70366150678E+01  0.55066164152E+02  0.14720617490E+03  0.20099493132E+03  0.12509000000E+03 0.  0.
<mgrwt>
<rscale>  2 0.45317732E+03</rscale>
<asrwt>0</asrwt>
<pdfrwt beam="1">  1       21 0.10290981E+00 0.45317732E+03</pdfrwt>
<pdfrwt beam="2">  1       21 0.10789511E-01 0.45317732E+03</pdfrwt>
<totfact> 0.49799360E+04</totfact>
</mgrwt>
</event>
<event>
 6    0  0.1539652E-007  0.4580734E+03  0.7546771E-02  0.1025341E+00
         21   -1    0    0  502  501  0.00000000000E+00  0.00000000000E+00  0.14316223606E+03  0.14316223606E+03  0.00000000000E+00 0. -1.
         21   -1    0    0  501  502 -0.00000000000E+00 -0.00000000000E+00 -0.36642209193E+03  0.36642209193E+03  0.00000000000E+00 0. -1.
      99926    2    1    2    0    0 -0.71054273576E-14  0.66613381478E-15 -0.22325985588E+03  0.50958432799E+03  0.45807338286E+03 0.  0.
         25    1    3    3    0    0 -0.11658778468E+03  0.10792034052E+02 -0.12106964282E+03  0.20979643955E+03  0.12509000000E+03 0.  0.
         25    1    3    3    0    0  0.55242043719E+02 -0.10171747187E+02 -0.21539342207E+02  0.13880417572E+03  0.12509000000E+03 0.  0.
         25    1    3    3    0    0  0.61345740966E+02 -0.62028686479E+00 -0.80650870849E+02  0.16098371271E+03  0.12509000000E+03 0.  0.
<mgrwt>
<rscale>  2 0.45807338E+03</rscale>
<asrwt>0</asrwt>
<pdfrwt beam="1">  1       21 0.21053270E-01 0.45807338E+03</pdfrwt>
<pdfrwt beam="2">  1       21 0.53885602E-01 0.45807338E+03</pdfrwt>
<totfact> 0.63050382E+04</totfact>
</mgrwt>
</event>
<event>
 6    0  0.1539652E-007  0.4547734E+03  0.7546771E-02  0.1026308E+00
         21   -1    0    0  502  501  0.00000000000E+00  0.00000000000E+00  0.19166658441E+03  0.19166658441E+03  0.00000000000E+00 0. -1.
         21   -1    0    0  501  502 -0.00000000000E+00 -0.00000000000E+00 -0.26976378333E+03  0.26976378333E+03  0.00000000000E+00 0. -1.
      99926    2    1    2    0    0  0.24424906542E-14  0.00000000000E+00 -0.78097198926E+02  0.46143036774E+03  0.45477336311E+03 0.  0.
         25    1    3    3    0    0  0.36328678117E+02  0.61513087429E+02 -0.63686478301E+02  0.15750272505E+03  0.12509000000E+03 0.  0.
         25    1    3    3    0    0 -0.27971595196E+00  0.47456505202E+02 -0.83763718962E+01  0.13405174312E+03  0.12509000000E+03 0.  0.
         25    1    3    3    0    0 -0.36048962165E+02 -0.10896959263E+03 -0.60343487285E+01  0.16987589957E+03  0.12509000000E+03 0.  0.
<mgrwt>
<rscale>  2 0.45477336E+03</rscale>
<asrwt>0</asrwt>
<pdfrwt beam="1">  1       21 0.28186263E-01 0.45477336E+03</pdfrwt>
<pdfrwt beam="2">  1       21 0.39671144E-01 0.45477336E+03</pdfrwt>
<totfact> 0.68198678E+04</totfact>
</mgrwt>
</event>
<event>
 6    0  0.1539652E-007  0.4670584E+03  0.7546771E-02  0.1022754E+00
         21   -1    0    0  502  501  0.00000000000E+00  0.00000000000E+00  0.96695308314E+02  0.96695308314E+02  0.00000000000E+00 0.  1.
         21   -1    0    0  501  502 -0.00000000000E+00 -0.00000000000E+00 -0.56399736138E+03  0.56399736138E+03  0.00000000000E+00 0.  1.
      99926    2    1    2    0    0  0.00000000000E+00  0.35527136788E-14 -0.46730205306E+03  0.66069266969E+03  0.46705844922E+03 0.  0.
         25    1    3    3    0    0  0.55630441116E+01  0.55860586844E+02 -0.30036125691E+03  0.33017532521E+03  0.12509000000E+03 0.  0.
         25    1    3    3    0    0 -0.32513991275E+02  0.28022853885E+02 -0.76437730310E+02  0.15275036721E+03  0.12509000000E+03 0.  0.
         25    1    3    3    0    0  0.26950947163E+02 -0.83883440729E+02 -0.90503065839E+02  0.17776697727E+03  0.12509000000E+03 0.  0.
<mgrwt>
<rscale>  2 0.46705845E+03</rscale>
<asrwt>0</asrwt>
<pdfrwt beam="1">  1       21 0.14219898E-01 0.46705845E+03</pdfrwt>
<pdfrwt beam="2">  1       21 0.82940788E-01 0.46705845E+03</pdfrwt>
<totfact> 0.50147463E+04</totfact>
</mgrwt>
</event>
<event>
 6    0  0.1539652E-007  0.4560424E+03  0.7546771E-02  0.1025935E+00
         21   -1    0    0  502  501  0.00000000000E+00  0.00000000000E+00  0.33090497651E+02  0.33090497651E+02  0.00000000000E+00 0.  1.
         21   -1    0    0  501  502 -0.00000000000E+00 -0.00000000000E+00 -0.15712567741E+04  0.15712567741E+04  0.00000000000E+00 0.  1.
      99926    2    1    2    0    0  0.17763568394E-14  0.35527136788E-14 -0.15381662764E+04  0.16043472717E+04  0.45604240413E+03 0.  0.
         25    1    3    3    0    0 -0.22665011292E+02  0.34915512572E+02 -0.68356858387E+03  0.69616543487E+03  0.12509000000E+03 0.  0.
         25    1    3    3    0    0  0.33832957797E+02 -0.66245459052E+02 -0.24476450468E+03  0.28476358744E+03  0.12509000000E+03 0.  0.
         25    1    3    3    0    0 -0.11167946505E+02  0.31329946481E+02 -0.60983318785E+03  0.62341824940E+03  0.12509000000E+03 0.  0.
<mgrwt>
<rscale>  2 0.45604240E+03</rscale>
<asrwt>0</asrwt>
<pdfrwt beam="1">  1       21 0.48662487E-02 0.45604240E+03</pdfrwt>
<pdfrwt beam="2">  1       21 0.23106722E+00 0.45604240E+03</pdfrwt>
<totfact> 0.21159932E+04</totfact>
</mgrwt>
</event>
<event>
 6    0  0.1539652E-007  0.4469799E+03  0.7546771E-02  0.1028627E+00
         21   -1    0    0  502  501  0.00000000000E+00  0.00000000000E+00  0.21699606926E+03  0.21699606926E+03  0.00000000000E+00 0.  1.
         21   -1    0    0  501  502 -0.00000000000E+00 -0.00000000000E+00 -0.23017815460E+03  0.23017815460E+03  0.00000000000E+00 0.  1.
      99926    2    1    2    0    0  0.00000000000E+00  0.35527136788E-14 -0.13182085339E+02  0.44717422386E+03  0.44697988670E+03 0.  0.
         25    1    3    3    0    0  0.44367386164E+01  0.49405515776E+02 -0.73565825857E+02  0.15336240893E+03  0.12509000000E+03 0.  0.
         25    1    3    3    0    0 -0.50230004864E+02 -0.26766032102E+02 -0.16391911323E+02  0.13840403433E+03  0.12509000000E+03 0.  0.
         25    1    3    3    0    0  0.45793266247E+02 -0.22639483674E+02  0.76775651841E+02  0.15540778060E+03  0.12509000000E+03 0.  0.
<mgrwt>
<rscale>  2 0.44697989E+03</rscale>
<asrwt>0</asrwt>
<pdfrwt beam="1">  1       21 0.31911187E-01 0.44697989E+03</pdfrwt>
<pdfrwt beam="2">  1       21 0.33849729E-01 0.44697989E+03</pdfrwt>
<totfact> 0.73729276E+04</totfact>
</mgrwt>
</event>
<event>
 6    0  0.1539652E-007  0.4536375E+03  0.7546771E-02  0.1026643E+00
         21   -1    0    0  502  501  0.00000000000E+00  0.00000000000E+00  0.22030197594E+03  0.22030197594E+03  0.00000000000E+00 0.  1.
         21   -1    0    0  501  502 -0.00000000000E+00 -0.00000000000E+00 -0.23352832235E+03  0.23352832235E+03  0.00000000000E+00 0.  1.
      99926    2    1    2    0    0  0.00000000000E+00  0.00000000000E+00 -0.13226346409E+02  0.45383029829E+03  0.45363752425E+03 0.  0.
         25    1    3    3    0    0  0.92861517306E+02 -0.24211073732E+02 -0.11923062964E+02  0.15811105280E+03  0.12509000000E+03 0.  0.
         25    1    3    3    0    0 -0.80245545206E+02  0.52575310308E+02 -0.37114400678E+02  0.16195214607E+03  0.12509000000E+03 0.  0.
         25    1    3    3    0    0 -0.12615972101E+02 -0.28364236576E+02  0.35811117233E+02  0.13376709942E+03  0.12509000000E+03 0.  0.
<mgrwt>
<rscale>  2 0.45363752E+03</rscale>
<asrwt>0</asrwt>
<pdfrwt beam="1">  1       21 0.32397350E-01 0.45363752E+03</pdfrwt>
<pdfrwt beam="2">  1       21 0.34342400E-01 0.45363752E+03</pdfrwt>
<totfact> 0.69382783E+04</totfact>
</mgrwt>
</event>
<event>
 6    0  0.1539652E-007  0.4494512E+03  0.7546771E-02  0.1027886E+00
         21   -1    0    0  502  501  0.00000000000E+00  0.00000000000E+00  0.14454743276E+03  0.14454743276E+03  0.00000000000E+00 0. -1.
         21   -1    0    0  501  502 -0.00000000000E+00 -0.00000000000E+00 -0.34937738237E+03  0.34937738237E+03  0.00000000000E+00 0. -1.
      99926    2    1    2    0    0 -0.17763568394E-14  0.00000000000E+00 -0.20482994961E+03  0.49392481513E+03  0.44945123734E+03 0.  0.
         25    1    3    3    0    0  0.18194950108E+02  0.13095916356E+02 -0.35972992841E+02  0.13207620357E+03  0.12509000000E+03 0.  0.
         25    1    3    3    0    0 -0.15698395500E+02 -0.94749236258E+02 -0.13741195380E+03  0.20917315923E+03  0.12509000000E+03 0.  0.
         25    1    3    3    0    0 -0.24965546075E+01  0.81653319902E+02 -0.31445002970E+02  0.15267545234E+03  0.12509000000E+03 0.  0.
<mgrwt>
<rscale>  2 0.44945124E+03</rscale>
<asrwt>0</asrwt>
<pdfrwt beam="1">  1       21 0.21256976E-01 0.44945124E+03</pdfrwt>
<pdfrwt beam="2">  1       21 0.51379026E-01 0.44945124E+03</pdfrwt>
<totfact> 0.68675120E+04</totfact>
</mgrwt>
</event>
<event>
 6    0  0.1539652E-007  0.4462173E+03  0.7546771E-02  0.1028856E+00
         21   -1    0    0  502  501  0.00000000000E+00  0.00000000000E+00  0.91357304428E+03  0.91357304428E+03  0.00000000000E+00 0. -1.
         21   -1    0    0  501  502 -0.00000000000E+00 -0.00000000000E+00 -0.54486579586E+02  0.54486579586E+02  0.00000000000E+00 0. -1.
      99926    2    1    2    0    0  0.00000000000E+00  0.00000000000E+00  0.85908646470E+03  0.96805962387E+03  0.44621730305E+03 0.  0.
         25    1    3    3    0    0  0.48523418639E+02 -0.14831624527E+02  0.25476393089E+03  0.28831695723E+03  0.12509000000E+03 0.  0.
         25    1    3    3    0    0  0.32686308624E+02  0.66684641451E+02  0.36609235718E+03  0.39393699784E+03  0.12509000000E+03 0.  0.
         25    1    3    3    0    0 -0.81209727263E+02 -0.51853016924E+02  0.23823017662E+03  0.28580566880E+03  0.12509000000E+03 0.  0.
<mgrwt>
<rscale>  2 0.44621730E+03</rscale>
<asrwt>0</asrwt>
<pdfrwt beam="1">  1       21 0.13434897E+00 0.44621730E+03</pdfrwt>
<pdfrwt beam="2">  1       21 0.80127328E-02 0.44621730E+03</pdfrwt>
<totfact> 0.43316733E+04</totfact>
</mgrwt>
</event>
<event>
 6    0  0.1539652E-007  0.4543604E+03  0.7546771E-02  0.1026430E+00
         21   -1    0    0  502  501  0.00000000000E+00  0.00000000000E+00  0.22387427427E+02  0.22387427427E+02  0.00000000000E+00 0. -1.
         21   -1    0    0  501  502 -0.00000000000E+00 -0.00000000000E+00 -0.23053494992E+04  0.23053494992E+04  0.00000000000E+00 0. -1.
      99926    2    1    2    0    0  0.14210854715E-13 -0.11102230246E-15 -0.22829620718E+04  0.23277369267E+04  0.45436040588E+03 0.  0.
         25    1    3    3    0    0  0.15853572889E+02  0.55373929885E+01 -0.95573826293E+03  0.96403585713E+03  0.12509000000E+03 0.  0.
         25    1    3    3    0    0  0.86044751507E+02  0.16551063026E+00 -0.63329226716E+03  0.65123753762E+03  0.12509000000E+03 0.  0.
         25    1    3    3    0    0 -0.10189832440E+03 -0.57029036187E+01 -0.69393154171E+03  0.71246353191E+03  0.12509000000E+03 0.  0.
<mgrwt>
<rscale>  2 0.45436041E+03</rscale>
<asrwt>0</asrwt>
<pdfrwt beam="1">  1       21 0.32922701E-02 0.45436041E+03</pdfrwt>
<pdfrwt beam="2">  1       21 0.33902184E+00 0.45436041E+03</pdfrwt>
<totfact> 0.91042745E+03</totfact>
</mgrwt>
</event>
<event>
 6    0  0.1539652E-007  0.4509515E+03  0.7546771E-02  0.1027439E+00
         21   -1    0    0  502  501  0.00000000000E+00  0.00000000000E+00  0.20045260500E+03  0.20045260500E+03  0.00000000000E+00 0.  1.
         21   -1    0    0  501  502 -0.00000000000E+00 -0.00000000000E+00 -0.25362266228E+03  0.25362266228E+03  0.00000000000E+00 0.  1.
      99926    2    1    2    0    0 -0.14210854715E-13  0.00000000000E+00 -0.53170057287E+02  0.45407526728E+03  0.45095154214E+03 0.  0.
         25    1    3    3    0    0 -0.60059258332E+02 -0.48083012955E+02 -0.49409101870E+02  0.15494469366E+03  0.12509000000E+03 0.  0.
         25    1    3    3    0    0 -0.16566843265E+02  0.78510532277E+02 -0.11934156307E+02  0.14909156972E+03  0.12509000000E+03 0.  0.
         25    1    3    3    0    0  0.76626101597E+02 -0.30427519322E+02  0.81732008900E+01  0.15003900390E+03  0.12509000000E+03 0.  0.
<mgrwt>
<rscale>  2 0.45095154E+03</rscale>
<asrwt>0</asrwt>
<pdfrwt beam="1">  1       21 0.29478324E-01 0.45095154E+03</pdfrwt>
<pdfrwt beam="2">  1       21 0.37297450E-01 0.45095154E+03</pdfrwt>
<totfact> 0.70875258E+04</totfact>
</mgrwt>
</event>
<event>
 6    0  0.1539652E-007  0.4622634E+03  0.7546771E-02  0.1024127E+00
         21   -1    0    0  502  501  0.00000000000E+00  0.00000000000E+00  0.86854264500E+03  0.86854264500E+03  0.00000000000E+00 0.  1.
         21   -1    0    0  501  502 -0.00000000000E+00 -0.00000000000E+00 -0.61507467984E+02  0.61507467984E+02  0.00000000000E+00 0.  1.
      99926    2    1    2    0    0 -0.71054273576E-14 -0.35527136788E-14  0.80703517702E+03  0.93005011299E+03  0.46226338349E+03 0.  0.
         25    1    3    3    0    0  0.72116230860E+02  0.42468804113E+02  0.31400204899E+03  0.34820847914E+03  0.12509000000E+03 0.  0.
         25    1    3    3    0    0 -0.11315634867E+02 -0.16796792204E+02  0.91984462096E+02  0.15658488173E+03  0.12509000000E+03 0.  0.
         25    1    3    3    0    0 -0.60800595993E+02 -0.25672011908E+02  0.40104866593E+03  0.42525675211E+03  0.12509000000E+03 0.  0.
<mgrwt>
<rscale>  2 0.46226338E+03</rscale>
<asrwt>0</asrwt>
<pdfrwt beam="1">  1       21 0.12772685E+00 0.46226338E+03</pdfrwt>
<pdfrwt beam="2">  1       21 0.90452164E-02 0.46226338E+03</pdfrwt>
<totfact> 0.39657284E+04</totfact>
</mgrwt>
</event>
<event>
 6    0  0.1539652E-007  0.4544225E+03  0.7546771E-02  0.1026411E+00
         21   -1    0    0  502  501  0.00000000000E+00  0.00000000000E+00  0.23730000328E+04  0.23730000328E+04  0.00000000000E+00 0. -1.
         21   -1    0    0  501  502 -0.00000000000E+00 -0.00000000000E+00 -0.21755137388E+02  0.21755137388E+02  0.00000000000E+00 0. -1.
      99926    2    1    2    0    0  0.00000000000E+00  0.35527136788E-14  0.23512448954E+04  0.23947551702E+04  0.45442245426E+03 0.  0.
         25    1    3    3    0    0  0.88060360889E+02 -0.31138020236E+02  0.70813825505E+03  0.72514239969E+03  0.12509000000E+03 0.  0.
         25    1    3    3    0    0 -0.11893853818E+02 -0.16544561860E+02  0.48403226568E+03  0.50034980624E+03  0.12509000000E+03 0.  0.
         25    1    3    3    0    0 -0.76166507071E+02  0.47682582096E+02  0.11590743747E+04  0.11692629642E+04  0.12509000000E+03 0.  0.
<mgrwt>
<rscale>  2 0.45442245E+03</rscale>
<asrwt>0</asrwt>
<pdfrwt beam="1">  1       21 0.34897041E+00 0.45442245E+03</pdfrwt>
<pdfrwt beam="2">  1       21 0.31992865E-02 0.45442245E+03</pdfrwt>
<totfact> 0.83065825E+03</totfact>
</mgrwt>
</event>
<event>
 6    0  0.1539652E-007  0.4537452E+03  0.7546771E-02  0.1026611E+00
         21   -1    0    0  502  501  0.00000000000E+00  0.00000000000E+00  0.97535643260E+03  0.97535643260E+03  0.00000000000E+00 0.  1.
         21   -1    0    0  501  502 -0.00000000000E+00 -0.00000000000E+00 -0.52771665238E+02  0.52771665238E+02  0.00000000000E+00 0.  1.
      99926    2    1    2    0    0 -0.71054273576E-14  0.00000000000E+00  0.92258476736E+03  0.10281280978E+04  0.45374522873E+03 0.  0.
         25    1    3    3    0    0  0.35611511699E+02 -0.84857882814E+01  0.23260604818E+03  0.26663321271E+03  0.12509000000E+03 0.  0.
         25    1    3    3    0    0 -0.42180665674E+01  0.56201421740E+02  0.14577258509E+03  0.20018378195E+03  0.12509000000E+03 0.  0.
         25    1    3    3    0    0 -0.31393445131E+02 -0.47715633459E+02  0.54420613409E+03  0.56131110319E+03  0.12509000000E+03 0.  0.
<mgrwt>
<rscale>  2 0.45374523E+03</rscale>
<asrwt>0</asrwt>
<pdfrwt beam="1">  1       21 0.14343476E+00 0.45374523E+03</pdfrwt>
<pdfrwt beam="2">  1       21 0.77605396E-02 0.45374523E+03</pdfrwt>
<totfact> 0.38465755E+04</totfact>
</mgrwt>
</event>
<event>
 6    0  0.1539652E-007  0.4516911E+03  0.7546771E-02  0.1027219E+00
         21   -1    0    0  502  501  0.00000000000E+00  0.00000000000E+00  0.38027634782E+03  0.38027634782E+03  0.00000000000E+00 0.  1.
         21   -1    0    0  501  502 -0.00000000000E+00 -0.00000000000E+00 -0.13412934139E+03  0.13412934139E+03  0.00000000000E+00 0.  1.
      99926    2    1    2    0    0  0.00000000000E+00 -0.14210854715E-13  0.24614700643E+03  0.51440568921E+03  0.45169111605E+03 0.  0.
         25    1    3    3    0    0  0.11951051031E+02 -0.78898368487E+02  0.73103149342E+02  0.16540664652E+03  0.12509000000E+03 0.  0.
         25    1    3    3    0    0 -0.21928721899E+02  0.32940316010E+02  0.17075823652E+03  0.21534116351E+03  0.12509000000E+03 0.  0.
         25    1    3    3    0    0  0.99776708679E+01  0.45958052476E+02  0.22856205618E+01  0.13365787917E+03  0.12509000000E+03 0.  0.
<mgrwt>
<rscale>  2 0.45169112E+03</rscale>
<asrwt>0</asrwt>
<pdfrwt beam="1">  1       21 0.55922992E-01 0.45169112E+03</pdfrwt>
<pdfrwt beam="2">  1       21 0.19724903E-01 0.45169112E+03</pdfrwt>
<totfact> 0.65985529E+04</totfact>
</mgrwt>
</event>
<event>
 6    0  0.1539652E-007  0.4408692E+03  0.7546771E-02  0.1030480E+00
         21   -1    0    0  502  501  0.00000000000E+00  0.00000000000E+00  0.16190442637E+03  0.16190442637E+03  0.00000000000E+00 0. -1.
         21   -1    0    0  501  502 -0.00000000000E+00 -0.00000000000E+00 -0.30012409383E+03  0.30012409383E+03  0.00000000000E+00 0. -1.
      99926    2    1    2    0    0  0.00000000000E+00 -0.35527136788E-14 -0.13821966746E+03  0.46202852020E+03  0.44086922892E+03 0.  0.
         25    1    3    3    0    0  0.66283391811E+02 -0.40621871114E+02  0.99568146918E+01  0.14761527936E+03  0.12509000000E+03 0.  0.
         25    1    3    3    0    0 -0.71256356975E+02 -0.40687951285E+01 -0.85066984830E+02  0.16726602617E+03  0.12509000000E+03 0.  0.
         25    1    3    3    0    0  0.49729651640E+01  0.44690666242E+02 -0.63109497319E+02  0.14714721466E+03  0.12509000000E+03 0.  0.
<mgrwt>
<rscale>  2 0.44086923E+03</rscale>
<asrwt>0</asrwt>
<pdfrwt beam="1">  1       21 0.23809475E-01 0.44086923E+03</pdfrwt>
<pdfrwt beam="2">  1       21 0.44135896E-01 0.44086923E+03</pdfrwt>
<totfact> 0.76227449E+04</totfact>
</mgrwt>
</event>
<event>
 6    0  0.1539652E-007  0.4533485E+03  0.7546771E-02  0.1026728E+00
         21   -1    0    0  502  501  0.00000000000E+00  0.00000000000E+00  0.45384856411E+02  0.45384856411E+02  0.00000000000E+00 0. -1.
         21   -1    0    0  501  502 -0.00000000000E+00 -0.00000000000E+00 -0.11321224601E+04  0.11321224601E+04  0.00000000000E+00 0. -1.
      99926    2    1    2    0    0  0.00000000000E+00  0.00000000000E+00 -0.10867376037E+04  0.11775073166E+04  0.45334849859E+03 0.  0.
         25    1    3    3    0    0 -0.30868753944E+02  0.23266506423E+02 -0.49078478960E+03  0.50794825337E+03  0.12509000000E+03 0.  0.
         25    1    3    3    0    0  0.94407380716E+02 -0.66187325887E+01 -0.38432891610E+03  0.41510575159E+03  0.12509000000E+03 0.  0.
         25    1    3    3    0    0 -0.63538626771E+02 -0.16647773834E+02 -0.21162389803E+03  0.25445331160E+03  0.12509000000E+03 0.  0.
<mgrwt>
<rscale>  2 0.45334850E+03</rscale>
<asrwt>0</asrwt>
<pdfrwt beam="1">  1       21 0.66742438E-02 0.45334850E+03</pdfrwt>
<pdfrwt beam="2">  1       21 0.16648859E+00 0.45334850E+03</pdfrwt>
<totfact> 0.33303595E+04</totfact>
</mgrwt>
</event>
<event>
 6    0  0.1539652E-007  0.4577976E+03  0.7546771E-02  0.1025422E+00
         21   -1    0    0  502  501  0.00000000000E+00  0.00000000000E+00  0.20283982088E+03  0.20283982088E+03  0.00000000000E+00 0.  1.
         21   -1    0    0  501  502 -0.00000000000E+00 -0.00000000000E+00 -0.25830555918E+03  0.25830555918E+03  0.00000000000E+00 0.  1.
      99926    2    1    2    0    0  0.00000000000E+00  0.00000000000E+00 -0.55465738303E+02  0.46114538006E+03  0.45779756817E+03 0.  0.
         25    1    3    3    0    0 -0.32357728646E+02 -0.86160459453E+02 -0.79095669962E+01  0.15550150072E+03  0.12509000000E+03 0.  0.
         25    1    3    3    0    0 -0.23639688179E+02  0.28010004714E+02  0.35590939083E+02  0.13512075439E+03  0.12509000000E+03 0.  0.
         25    1    3    3    0    0  0.55997416825E+02  0.58150454738E+02 -0.83147110390E+02  0.17052312495E+03  0.12509000000E+03 0.  0.
<mgrwt>
<rscale>  2 0.45779757E+03</rscale>
<asrwt>0</asrwt>
<pdfrwt beam="1">  1       21 0.29829385E-01 0.45779757E+03</pdfrwt>
<pdfrwt beam="2">  1       21 0.37986112E-01 0.45779757E+03</pdfrwt>
<totfact> 0.66598832E+04</totfact>
</mgrwt>
</event>
<event>
 6    0  0.1539652E-007  0.4868594E+03  0.7546771E-02  0.1017267E+00
         21   -1    0    0  502  501  0.00000000000E+00  0.00000000000E+00  0.78484488948E+03  0.78484488948E+03  0.00000000000E+00 0. -1.
         21   -1    0    0  501  502 -0.00000000000E+00 -0.00000000000E+00 -0.75502835561E+02  0.75502835561E+02  0.00000000000E+00 0. -1.
      99926    2    1    2    0    0  0.00000000000E+00  0.72164496601E-15  0.70934205391E+03  0.86034772504E+03  0.48685938270E+03 0.  0.
         25    1    3    3    0    0 -0.90168680831E+02  0.28171367119E+02  0.15220903629E+03  0.21849282770E+03  0.12509000000E+03 0.  0.
         25    1    3    3    0    0 -0.10138247526E+02 -0.45464933575E+00  0.11309177237E+03  0.16893859194E+03  0.12509000000E+03 0.  0.
         25    1    3    3    0    0  0.10030692836E+03 -0.27716717783E+02  0.44404124526E+03  0.47291630540E+03  0.12509000000E+03 0.  0.
<mgrwt>
<rscale>  2 0.48685938E+03</rscale>
<asrwt>0</asrwt>
<pdfrwt beam="1">  1       21 0.11541836E+00 0.48685938E+03</pdfrwt>
<pdfrwt beam="2">  1       21 0.11103359E-01 0.48685938E+03</pdfrwt>
<totfact> 0.35296500E+04</totfact>
</mgrwt>
</event>
<event>
 6    0  0.1539652E-007  0.4613102E+03  0.7546771E-02  0.1024402E+00
         21   -1    0    0  502  501  0.00000000000E+00  0.00000000000E+00  0.14135587965E+03  0.14135587965E+03  0.00000000000E+00 0. -1.
         21   -1    0    0  501  502 -0.00000000000E+00 -0.00000000000E+00 -0.37636769209E+03  0.37636769209E+03  0.00000000000E+00 0. -1.
      99926    2    1    2    0    0  0.00000000000E+00  0.00000000000E+00 -0.23501181244E+03  0.51772357174E+03  0.46131024783E+03 0.  0.
         25    1    3    3    0    0  0.90236222986E+01 -0.33971827975E+02 -0.65040673552E+02  0.14530419186E+03  0.12509000000E+03 0.  0.
         25    1    3    3    0    0  0.27242785809E+02 -0.78352848518E+02 -0.12320776156E+03  0.19418805025E+03  0.12509000000E+03 0.  0.
         25    1    3    3    0    0 -0.36266408107E+02  0.11232467649E+03 -0.46763377326E+02  0.17823132964E+03  0.12509000000E+03 0.  0.
<mgrwt>
<rscale>  2 0.46131025E+03</rscale>
<asrwt>0</asrwt>
<pdfrwt beam="1">  1       21 0.20787630E-01 0.46131025E+03</pdfrwt>
<pdfrwt beam="2">  1       21 0.55348189E-01 0.46131025E+03</pdfrwt>
<totfact> 0.60933801E+04</totfact>
</mgrwt>
</event>
<event>
 6    0  0.1539652E-007  0.4585504E+03  0.7546771E-02  0.1025202E+00
         21   -1    0    0  502  501  0.00000000000E+00  0.00000000000E+00  0.45046536265E+03  0.45046536265E+03  0.00000000000E+00 0.  1.
         21   -1    0    0  501  502 -0.00000000000E+00 -0.00000000000E+00 -0.11669514610E+03  0.11669514610E+03  0.00000000000E+00 0.  1.
      99926    2    1    2    0    0  0.00000000000E+00  0.00000000000E+00  0.33377021655E+03  0.56716050875E+03  0.45855041733E+03 0.  0.
         25    1    3    3    0    0  0.19222372967E+02  0.61838274610E+02  0.13157308950E+03  0.19274972843E+03  0.12509000000E+03 0.  0.
         25    1    3    3    0    0 -0.88940100169E+02 -0.58805599611E+02  0.14826334190E+03  0.22135484321E+03  0.12509000000E+03 0.  0.
         25    1    3    3    0    0  0.69717727202E+02 -0.30326749992E+01  0.53933785153E+02  0.15305593711E+03  0.12509000000E+03 0.  0.
<mgrwt>
<rscale>  2 0.45855042E+03</rscale>
<asrwt>0</asrwt>
<pdfrwt beam="1">  1       21 0.66244906E-01 0.45855042E+03</pdfrwt>
<pdfrwt beam="2">  1       21 0.17161051E-01 0.45855042E+03</pdfrwt>
<totfact> 0.59070414E+04</totfact>
</mgrwt>
</event>
<event>
 6    0  0.1539652E-007  0.4555604E+03  0.7546771E-02  0.1026077E+00
         21   -1    0    0  502  501  0.00000000000E+00  0.00000000000E+00  0.15531513307E+04  0.15531513307E+04  0.00000000000E+00 0. -1.
         21   -1    0    0  501  502 -0.00000000000E+00 -0.00000000000E+00 -0.33405515132E+02  0.33405515132E+02  0.00000000000E+00 0. -1.
      99926    2    1    2    0    0  0.00000000000E+00  0.00000000000E+00  0.15197458156E+04  0.15865568459E+04  0.45556040338E+03 0.  0.
         25    1    3    3    0    0  0.81671928522E+02  0.30246002988E+02  0.58364618910E+03  0.60322094356E+03  0.12509000000E+03 0.  0.
         25    1    3    3    0    0 -0.10041479021E+03  0.60552556651E+01  0.63040112090E+03  0.65051739219E+03  0.12509000000E+03 0.  0.
         25    1    3    3    0    0  0.18742861687E+02 -0.36301258653E+02  0.30569850562E+03  0.33281851012E+03  0.12509000000E+03 0.  0.
<mgrwt>
<rscale>  2 0.45556040E+03</rscale>
<asrwt>0</asrwt>
<pdfrwt beam="1">  1       21 0.22840456E+00 0.45556040E+03</pdfrwt>
<pdfrwt beam="2">  1       21 0.49125768E-02 0.45556040E+03</pdfrwt>
<totfact> 0.21640824E+04</totfact>
</mgrwt>
</event>
<event>
 6    0  0.1539652E-007  0.4561224E+03  0.7546771E-02  0.1025912E+00
         21   -1    0    0  502  501  0.00000000000E+00  0.00000000000E+00  0.95449210570E+03  0.95449210570E+03  0.00000000000E+00 0.  1.
         21   -1    0    0  501  502 -0.00000000000E+00 -0.00000000000E+00 -0.54491708971E+02  0.54491708971E+02  0.00000000000E+00 0.  1.
      99926    2    1    2    0    0  0.00000000000E+00  0.00000000000E+00  0.90000039673E+03  0.10089838147E+04  0.45612237848E+03 0.  0.
         25    1    3    3    0    0 -0.71323811991E+02 -0.23758364704E+02  0.29904329844E+03  0.33275508786E+03  0.12509000000E+03 0.  0.
         25    1    3    3    0    0  0.36174087853E+02 -0.51740007583E+02  0.17283049385E+03  0.22249377681E+03  0.12509000000E+03 0.  0.
         25    1    3    3    0    0  0.35149724138E+02  0.75498372288E+02  0.42812660443E+03  0.45373495000E+03  0.12509000000E+03 0.  0.
<mgrwt>
<rscale>  2 0.45612238E+03</rscale>
<asrwt>0</asrwt>
<pdfrwt beam="1">  1       21 0.14036648E+00 0.45612238E+03</pdfrwt>
<pdfrwt beam="2">  1       21 0.80134872E-02 0.45612238E+03</pdfrwt>
<totfact> 0.38480792E+04</totfact>
</mgrwt>
</event>
<event>
 6    0  0.1539652E-007  0.4594542E+03  0.7546771E-02  0.1024940E+00
         21   -1    0    0  502  501  0.00000000000E+00  0.00000000000E+00  0.60111031790E+03  0.60111031790E+03  0.00000000000E+00 0.  1.
         21   -1    0    0  501  502 -0.00000000000E+00 -0.00000000000E+00 -0.87795096404E+02  0.87795096404E+02  0.00000000000E+00 0.  1.
      99926    2    1    2    0    0  0.71054273576E-14  0.00000000000E+00  0.51331522149E+03  0.68890541430E+03  0.45945419058E+03 0.  0.
         25    1    3    3    0    0 -0.98653627014E+02  0.12581577672E+02  0.27383351776E+03  0.31705384049E+03  0.12509000000E+03 0.  0.
         25    1    3    3    0    0  0.56685645503E+02  0.37595498520E+02  0.10532103233E+03  0.17710649866E+03  0.12509000000E+03 0.  0.
         25    1    3    3    0    0  0.41967981512E+02 -0.50177076192E+02  0.13416067140E+03  0.19474507516E+03  0.12509000000E+03 0.  0.
<mgrwt>
<rscale>  2 0.45945419E+03</rscale>
<asrwt>0</asrwt>
<pdfrwt beam="1">  1       21 0.88398574E-01 0.45945419E+03</pdfrwt>
<pdfrwt beam="2">  1       21 0.12911044E-01 0.45945419E+03</pdfrwt>
<totfact> 0.51673684E+04</totfact>
</mgrwt>
</event>
<event>
 6    0  0.1539652E-007  0.4522926E+03  0.7546771E-02  0.1027041E+00
         21   -1    0    0  502  501  0.00000000000E+00  0.00000000000E+00  0.87653407630E+03  0.87653407630E+03  0.00000000000E+00 0.  1.
         21   -1    0    0  501  502 -0.00000000000E+00 -0.00000000000E+00 -0.58345865217E+02  0.58345865217E+02  0.00000000000E+00 0.  1.
      99926    2    1    2    0    0  0.00000000000E+00  0.00000000000E+00  0.81818821108E+03  0.93487994152E+03  0.45229255609E+03 0.  0.
         25    1    3    3    0    0 -0.33357789578E+02 -0.28928330450E+02  0.46504342706E+03  0.48359330803E+03  0.12509000000E+03 0.  0.
         25    1    3    3    0    0 -0.34013031368E+02 -0.17865057674E+02  0.15094335862E+03  0.19976849652E+03  0.12509000000E+03 0.  0.
         25    1    3    3    0    0  0.67370820946E+02  0.46793388123E+02  0.20220142541E+03  0.25151813697E+03  0.12509000000E+03 0.  0.
<mgrwt>
<rscale>  2 0.45229256E+03</rscale>
<asrwt>0</asrwt>
<pdfrwt beam="1">  1       21 0.12890206E+00 0.45229256E+03</pdfrwt>
<pdfrwt beam="2">  1       21 0.85802748E-02 0.45229256E+03</pdfrwt>
<totfact> 0.42655300E+04</totfact>
</mgrwt>
</event>
<event>
 6    0  0.1539652E-007  0.4543209E+03  0.7546771E-02  0.1026441E+00
         21   -1    0    0  502  501  0.00000000000E+00  0.00000000000E+00  0.51675126331E+03  0.51675126331E+03  0.00000000000E+00 0.  1.
         21   -1    0    0  501  502 -0.00000000000E+00 -0.00000000000E+00 -0.99858238852E+02  0.99858238852E+02  0.00000000000E+00 0.  1.
      99926    2    1    2    0    0  0.00000000000E+00  0.00000000000E+00  0.41689302446E+03  0.61660950216E+03  0.45432090455E+03 0.  0.
         25    1    3    3    0    0 -0.97852977295E+02 -0.53376848178E+02  0.17486598656E+03  0.24217744412E+03  0.12509000000E+03 0.  0.
         25    1    3    3    0    0  0.58471152302E+02 -0.11338915248E+02  0.10284870652E+03  0.17254799675E+03  0.12509000000E+03 0.  0.
         25    1    3    3    0    0  0.39381824992E+02  0.64715763426E+02  0.13917833138E+03  0.20188406129E+03  0.12509000000E+03 0.  0.
<mgrwt>
<rscale>  2 0.45432090E+03</rscale>
<asrwt>0</asrwt>
<pdfrwt beam="1">  1       21 0.75992832E-01 0.45432090E+03</pdfrwt>
<pdfrwt beam="2">  1       21 0.14685035E-01 0.45432090E+03</pdfrwt>
<totfact> 0.57977696E+04</totfact>
</mgrwt>
</event>
<event>
 6    0  0.1539652E-007  0.4570742E+03  0.7546771E-02  0.1025633E+00
         21   -1    0    0  502  501  0.00000000000E+00  0.00000000000E+00  0.12768236364E+03  0.12768236364E+03  0.00000000000E+00 0. -1.
         21   -1    0    0  501  502 -0.00000000000E+00 -0.00000000000E+00 -0.40905579543E+03  0.40905579543E+03  0.00000000000E+00 0. -1.
      99926    2    1    2    0    0  0.00000000000E+00  0.71054273576E-14 -0.28137343178E+03  0.53673815907E+03  0.45707422077E+03 0.  0.
         25    1    3    3    0    0 -0.18828739169E+02  0.32426237842E+02 -0.16267115013E+03  0.20860343598E+03  0.12509000000E+03 0.  0.
         25    1    3    3    0    0 -0.26136571566E+02 -0.93975696887E+02 -0.49837820927E+02  0.16627046783E+03  0.12509000000E+03 0.  0.
         25    1    3    3    0    0  0.44965310735E+02  0.61549459045E+02 -0.68864460728E+02  0.16186425526E+03  0.12509000000E+03 0.  0.
<mgrwt>
<rscale>  2 0.45707422E+03</rscale>
<asrwt>0</asrwt>
<pdfrwt beam="1">  1       21 0.18776818E-01 0.45707422E+03</pdfrwt>
<pdfrwt beam="2">  1       21 0.60155264E-01 0.45707422E+03</pdfrwt>
<totfact> 0.61731580E+04</totfact>
</mgrwt>
</event>
<event>
 6    0  0.1539652E-007  0.4505312E+03  0.7546771E-02  0.1027564E+00
         21   -1    0    0  502  501  0.00000000000E+00  0.00000000000E+00  0.65336915163E+02  0.65336915163E+02  0.00000000000E+00 0. -1.
         21   -1    0    0  501  502 -0.00000000000E+00 -0.00000000000E+00 -0.77666018760E+03  0.77666018760E+03  0.00000000000E+00 0. -1.
      99926    2    1    2    0    0  0.88817841970E-15  0.78825834748E-14 -0.71132327243E+03  0.84199710276E+03  0.45053115669E+03 0.  0.
         25    1    3    3    0    0  0.47806076185E+01  0.65436979090E+00 -0.16135837687E+03  0.20422369180E+03  0.12509000000E+03 0.  0.
         25    1    3    3    0    0 -0.44329874109E+02 -0.79868347037E+02 -0.37174219295E+03  0.40272056902E+03  0.12509000000E+03 0.  0.
         25    1    3    3    0    0  0.39549266490E+02  0.79213977246E+02 -0.17822270262E+03  0.23505284193E+03  0.12509000000E+03 0.  0.
<mgrwt>
<rscale>  2 0.45053116E+03</rscale>
<asrwt>0</asrwt>
<pdfrwt beam="1">  1       21 0.96083702E-02 0.45053116E+03</pdfrwt>
<pdfrwt beam="2">  1       21 0.11421473E+00 0.45053116E+03</pdfrwt>
<totfact> 0.47441006E+04</totfact>
</mgrwt>
</event>
<event>
 6    0  0.1539652E-007  0.4614305E+03  0.7546771E-02  0.1024367E+00
         21   -1    0    0  502  501  0.00000000000E+00  0.00000000000E+00  0.57719901585E+02  0.57719901585E+02  0.00000000000E+00 0.  1.
         21   -1    0    0  501  502 -0.00000000000E+00 -0.00000000000E+00 -0.92220409233E+03  0.92220409233E+03  0.00000000000E+00 0.  1.
      99926    2    1    2    0    0  0.00000000000E+00  0.00000000000E+00 -0.86448419074E+03  0.97992399391E+03  0.46143051243E+03 0.  0.
         25    1    3    3    0    0  0.80704563124E+02 -0.83692570121E+02 -0.38893304345E+03  0.42477534438E+03  0.12509000000E+03 0.  0.
         25    1    3    3    0    0 -0.60003514752E+02  0.78457699212E+02 -0.27347322077E+03  0.31652984524E+03  0.12509000000E+03 0.  0.
         25    1    3    3    0    0 -0.20701048373E+02  0.52348709097E+01 -0.20207792652E+03  0.23861880430E+03  0.12509000000E+03 0.  0.
<mgrwt>
<rscale>  2 0.46143051E+03</rscale>
<asrwt>0</asrwt>
<pdfrwt beam="1">  1       21 0.84882210E-02 0.46143051E+03</pdfrwt>
<pdfrwt beam="2">  1       21 0.13561825E+00 0.46143051E+03</pdfrwt>
<totfact> 0.38005419E+04</totfact>
</mgrwt>
</event>
<event>
 6    0  0.1539652E-007  0.4525517E+03  0.7546771E-02  0.1026964E+00
         21   -1    0    0  502  501  0.00000000000E+00  0.00000000000E+00  0.36574835347E+03  0.36574835347E+03  0.00000000000E+00 0. -1.
         21   -1    0    0  501  502 -0.00000000000E+00 -0.00000000000E+00 -0.13998904655E+03  0.13998904655E+03  0.00000000000E+00 0. -1.
      99926    2    1    2    0    0 -0.14210854715E-13  0.71054273576E-14  0.22575930692E+03  0.50573740002E+03  0.45255171320E+03 0.  0.
         25    1    3    3    0    0  0.81410791700E+02 -0.47123003128E+02  0.12251124657E+03  0.19875816478E+03  0.12509000000E+03 0.  0.
         25    1    3    3    0    0 -0.26786149766E+02 -0.23016235211E+02  0.17408598824E+02  0.13114042975E+03  0.12509000000E+03 0.  0.
         25    1    3    3    0    0 -0.54624641933E+02  0.70139238339E+02  0.85839461525E+02  0.17583880549E+03  0.12509000000E+03 0.  0.
<mgrwt>
<rscale>  2 0.45255171E+03</rscale>
<asrwt>0</asrwt>
<pdfrwt beam="1">  1       21 0.53786522E-01 0.45255171E+03</pdfrwt>
<pdfrwt beam="2">  1       21 0.20586625E-01 0.45255171E+03</pdfrwt>
<totfact> 0.66145451E+04</totfact>
</mgrwt>
</event>
<event>
 6    0  0.1539652E-007  0.4540446E+03  0.7546771E-02  0.1026523E+00
         21   -1    0    0  502  501  0.00000000000E+00  0.00000000000E+00  0.13923461215E+03  0.13923461215E+03  0.00000000000E+00 0. -1.
         21   -1    0    0  501  502 -0.00000000000E+00 -0.00000000000E+00 -0.37016027116E+03  0.37016027116E+03  0.00000000000E+00 0. -1.
      99926    2    1    2    0    0  0.00000000000E+00 -0.14210854715E-13 -0.23092565901E+03  0.50939488331E+03  0.45404458719E+03 0.  0.
         25    1    3    3    0    0 -0.57128211820E+02 -0.70940345432E+02 -0.11038938415E+03  0.19007758792E+03  0.12509000000E+03 0.  0.
         25    1    3    3    0    0  0.32675398326E+02  0.88353948481E+02 -0.10766101593E+03  0.19003290326E+03  0.12509000000E+03 0.  0.
         25    1    3    3    0    0  0.24452813494E+02 -0.17413603049E+02 -0.12875258927E+02  0.12928439214E+03  0.12509000000E+03 0.  0.
<mgrwt>
<rscale>  2 0.45404459E+03</rscale>
<asrwt>0</asrwt>
<pdfrwt beam="1">  1       21 0.20475678E-01 0.45404459E+03</pdfrwt>
<pdfrwt beam="2">  1       21 0.54435334E-01 0.45404459E+03</pdfrwt>
<totfact> 0.65107831E+04</totfact>
</mgrwt>
</event>
<event>
 6    0  0.1539652E-007  0.4498339E+03  0.7546771E-02  0.1027772E+00
         21   -1    0    0  502  501  0.00000000000E+00  0.00000000000E+00  0.11136663692E+03  0.11136663692E+03  0.00000000000E+00 0. -1.
         21   -1    0    0  501  502 -0.00000000000E+00 -0.00000000000E+00 -0.45424414526E+03  0.45424414526E+03  0.00000000000E+00 0. -1.
      99926    2    1    2    0    0  0.00000000000E+00 -0.14210854715E-13 -0.34287750834E+03  0.56561078218E+03  0.44983393735E+03 0.  0.
         25    1    3    3    0    0  0.66601208720E+02 -0.72459189643E+02 -0.11811505161E+03  0.19820375547E+03  0.12509000000E+03 0.  0.
         25    1    3    3    0    0  0.47525365661E+00  0.69711928412E+02 -0.77389372247E+02  0.16277776834E+03  0.12509000000E+03 0.  0.
         25    1    3    3    0    0 -0.67076462377E+02  0.27472612303E+01 -0.14737308449E+03  0.20462925837E+03  0.12509000000E+03 0.  0.
<mgrwt>
<rscale>  2 0.44983394E+03</rscale>
<asrwt>0</asrwt>
<pdfrwt beam="1">  1       21 0.16377446E-01 0.44983394E+03</pdfrwt>
<pdfrwt beam="2">  1       21 0.66800610E-01 0.44983394E+03</pdfrwt>
<totfact> 0.63397337E+04</totfact>
</mgrwt>
</event>
<event>
 6    0  0.1539652E-007  0.4292136E+03  0.7546771E-02  0.1034109E+00
         21   -1    0    0  502  501  0.00000000000E+00  0.00000000000E+00  0.23573964640E+03  0.23573964640E+03  0.00000000000E+00 0.  1.
         21   -1    0    0  501  502 -0.00000000000E+00 -0.00000000000E+00 -0.19536841344E+03  0.19536841344E+03  0.00000000000E+00 0.  1.
      99926    2    1    2    0    0  0.71054273576E-14  0.17763568394E-14  0.40371232950E+02  0.43110805984E+03  0.42921360977E+03 0.  0.
         25    1    3    3    0    0 -0.41511073329E+02  0.57742509600E+02  0.46925566951E+02  0.15135020171E+03  0.12509000000E+03 0.  0.
         25    1    3    3    0    0 -0.11778372023E+02 -0.52428679687E+02 -0.35382262153E+02  0.14066594853E+03  0.12509000000E+03 0.  0.
         25    1    3    3    0    0  0.53289445352E+02 -0.53138299127E+01  0.28827928153E+02  0.13909190960E+03  0.12509000000E+03 0.  0.
<mgrwt>
<rscale>  2 0.42921361E+03</rscale>
<asrwt>0</asrwt>
<pdfrwt beam="1">  1       21 0.34667595E-01 0.42921361E+03</pdfrwt>
<pdfrwt beam="2">  1       21 0.28730649E-01 0.42921361E+03</pdfrwt>
<totfact> 0.86877639E+04</totfact>
</mgrwt>
</event>
<event>
 6    0  0.1539652E-007  0.4460898E+03  0.7546771E-02  0.1028895E+00
         21   -1    0    0  502  501  0.00000000000E+00  0.00000000000E+00  0.14826252829E+03  0.14826252829E+03  0.00000000000E+00 0. -1.
         21   -1    0    0  501  502 -0.00000000000E+00 -0.00000000000E+00 -0.33554690092E+03  0.33554690092E+03  0.00000000000E+00 0. -1.
      99926    2    1    2    0    0  0.00000000000E+00  0.00000000000E+00 -0.18728437263E+03  0.48380942920E+03  0.44608982006E+03 0.  0.
         25    1    3    3    0    0  0.64164983054E+02 -0.41947064630E+02 -0.10353701949E+03  0.17956648848E+03  0.12509000000E+03 0.  0.
         25    1    3    3    0    0 -0.75863011143E+02  0.15230543465E+02 -0.95327528480E+02  0.17527695713E+03  0.12509000000E+03 0.  0.
         25    1    3    3    0    0  0.11698028089E+02  0.26716521164E+02  0.11580175337E+02  0.12896598360E+03  0.12509000000E+03 0.  0.
<mgrwt>
<rscale>  2 0.44608982E+03</rscale>
<asrwt>0</asrwt>
<pdfrwt beam="1">  1       21 0.21803314E-01 0.44608982E+03</pdfrwt>
<pdfrwt beam="2">  1       21 0.49345131E-01 0.44608982E+03</pdfrwt>
<totfact> 0.71337913E+04</totfact>
</mgrwt>
</event>
<event>
 6    0  0.1539652E-007  0.4662740E+03  0.7546771E-02  0.1022977E+00
         21   -1    0    0  502  501  0.00000000000E+00  0.00000000000E+00  0.30093792423E+03  0.30093792423E+03  0.00000000000E+00 0.  1.
         21   -1    0    0  501  502 -0.00000000000E+00 -0.00000000000E+00 -0.18061154937E+03  0.18061154937E+03  0.00000000000E+00 0.  1.
      99926    2    1    2    0    0 -0.35527136788E-14 -0.71054273576E-14  0.12032637486E+03  0.48154947360E+03  0.46627401712E+03 0.  0.
         25    1    3    3    0    0  0.56797906179E+02 -0.26234612619E+02 -0.55438400491E+02  0.15044992986E+03  0.12509000000E+03 0.  0.
         25    1    3    3    0    0 -0.25230044279E+02 -0.31388833710E+02  0.45924221501E+02  0.13920616451E+03  0.12509000000E+03 0.  0.
         25    1    3    3    0    0 -0.31567861900E+02  0.57623446329E+02  0.12984055385E+03  0.19189337924E+03  0.12509000000E+03 0.  0.
<mgrwt>
<rscale>  2 0.46627402E+03</rscale>
<asrwt>0</asrwt>
<pdfrwt beam="1">  1       21 0.44255577E-01 0.46627402E+03</pdfrwt>
<pdfrwt beam="2">  1       21 0.26560522E-01 0.46627402E+03</pdfrwt>
<totfact> 0.60949295E+04</totfact>
</mgrwt>
</event>
<event>
 6    0  0.1539652E-007  0.4564785E+03  0.7546771E-02  0.1025808E+00
         21   -1    0    0  502  501  0.00000000000E+00  0.00000000000E+00  0.15456962724E+03  0.15456962724E+03  0.00000000000E+00 0. -1.
         21   -1    0    0  501  502 -0.00000000000E+00 -0.00000000000E+00 -0.33702069363E+03  0.33702069363E+03  0.00000000000E+00 0. -1.
      99926    2    1    2    0    0 -0.53290705182E-14 -0.71054273576E-14 -0.18245106638E+03  0.49159032087E+03  0.45647853394E+03 0.  0.
         25    1    3    3    0    0 -0.11021578541E+02 -0.40038973332E+02 -0.87651112734E+01  0.13209439751E+03  0.12509000000E+03 0.  0.
         25    1    3    3    0    0 -0.78358641735E+02  0.97505760410E+01 -0.39282944232E+02  0.15305491915E+03  0.12509000000E+03 0.  0.
         25    1    3    3    0    0  0.89380220275E+02  0.30288397291E+02 -0.13440301088E+03  0.20644100421E+03  0.12509000000E+03 0.  0.
<mgrwt>
<rscale>  2 0.45647853E+03</rscale>
<asrwt>0</asrwt>
<pdfrwt beam="1">  1       21 0.22730828E-01 0.45647853E+03</pdfrwt>
<pdfrwt beam="2">  1       21 0.49561866E-01 0.45647853E+03</pdfrwt>
<totfact> 0.65098137E+04</totfact>
</mgrwt>
</event>
<event>
 6    0  0.1539652E-007  0.4526844E+03  0.7546771E-02  0.1026925E+00
         21   -1    0    0  502  501  0.00000000000E+00  0.00000000000E+00  0.70183297752E+02  0.70183297752E+02  0.00000000000E+00 0. -1.
         21   -1    0    0  501  502 -0.00000000000E+00 -0.00000000000E+00 -0.72995695221E+03  0.72995695221E+03  0.00000000000E+00 0. -1.
      99926    2    1    2    0    0  0.00000000000E+00  0.00000000000E+00 -0.65977365446E+03  0.80014024997E+03  0.45268437624E+03 0.  0.
         25    1    3    3    0    0 -0.27271357786E+02  0.94510588468E+02 -0.27603940777E+03  0.31862398063E+03  0.12509000000E+03 0.  0.
         25    1    3    3    0    0  0.30109526724E+02 -0.61676376447E+01 -0.11741909005E+03  0.17429679906E+03  0.12509000000E+03 0.  0.
         25    1    3    3    0    0 -0.28381689377E+01 -0.88342950824E+02 -0.26631515664E+03  0.30721947028E+03  0.12509000000E+03 0.  0.
<mgrwt>
<rscale>  2 0.45268438E+03</rscale>
<asrwt>0</asrwt>
<pdfrwt beam="1">  1       21 0.10321074E-01 0.45268438E+03</pdfrwt>
<pdfrwt beam="2">  1       21 0.10734661E+00 0.45268438E+03</pdfrwt>
<totfact> 0.48635860E+04</totfact>
</mgrwt>
</event>
<event>
 6    0  0.1539652E-007  0.4501074E+03  0.7546771E-02  0.1027690E+00
         21   -1    0    0  502  501  0.00000000000E+00  0.00000000000E+00  0.45283335043E+02  0.45283335043E+02  0.00000000000E+00 0. -1.
         21   -1    0    0  501  502 -0.00000000000E+00 -0.00000000000E+00 -0.11184946982E+04  0.11184946982E+04  0.00000000000E+00 0. -1.
      99926    2    1    2    0    0  0.71054273576E-14  0.14210854715E-13 -0.10732113631E+04  0.11637780332E+04  0.45010741012E+03 0.  0.
         25    1    3    3    0    0 -0.13690611166E+02 -0.28423261769E+01 -0.32650479176E+03  0.34992627623E+03  0.12509000000E+03 0.  0.
         25    1    3    3    0    0  0.68138008545E+02  0.72689854732E+02 -0.27791149413E+03  0.32063828508E+03  0.12509000000E+03 0.  0.
         25    1    3    3    0    0 -0.54447397379E+02 -0.69847528555E+02 -0.46879507725E+03  0.49321347191E+03  0.12509000000E+03 0.  0.
<mgrwt>
<rscale>  2 0.45010741E+03</rscale>
<asrwt>0</asrwt>
<pdfrwt beam="1">  1       21 0.66593142E-02 0.45010741E+03</pdfrwt>
<pdfrwt beam="2">  1       21 0.16448451E+00 0.45010741E+03</pdfrwt>
<totfact> 0.34627141E+04</totfact>
</mgrwt>
</event>
<event>
 6    0  0.1539652E-007  0.4764164E+03  0.7546771E-02  0.1020125E+00
         21   -1    0    0  502  501  0.00000000000E+00  0.00000000000E+00  0.32126901490E+03  0.32126901490E+03  0.00000000000E+00 0. -1.
         21   -1    0    0  501  502 -0.00000000000E+00 -0.00000000000E+00 -0.17662193714E+03  0.17662193714E+03  0.00000000000E+00 0. -1.
      99926    2    1    2    0    0  0.00000000000E+00  0.00000000000E+00  0.14464707776E+03  0.49789095204E+03  0.47641643865E+03 0.  0.
         25    1    3    3    0    0 -0.85804722284E+02 -0.63701761779E+02  0.12870768964E+02  0.16502584529E+03  0.12509000000E+03 0.  0.
         25    1    3    3    0    0  0.40679834527E+02  0.91544995788E+02  0.11212233456E+03  0.19558696582E+03  0.12509000000E+03 0.  0.
         25    1    3    3    0    0  0.45124887757E+02 -0.27843234009E+02  0.19653974243E+02  0.13727814094E+03  0.12509000000E+03 0.  0.
<mgrwt>
<rscale>  2 0.47641644E+03</rscale>
<asrwt>0</asrwt>
<pdfrwt beam="1">  1       21 0.47245443E-01 0.47641644E+03</pdfrwt>
<pdfrwt beam="2">  1       21 0.25973814E-01 0.47641644E+03</pdfrwt>
<totfact> 0.55386941E+04</totfact>
</mgrwt>
</event>
<event>
 6    0  0.1539652E-007  0.4728455E+03  0.7546771E-02  0.1021120E+00
         21   -1    0    0  502  501  0.00000000000E+00  0.00000000000E+00  0.30582751009E+04  0.30582751009E+04  0.00000000000E+00 0.  1.
         21   -1    0    0  501  502 -0.00000000000E+00 -0.00000000000E+00 -0.18276876256E+02  0.18276876256E+02  0.00000000000E+00 0.  1.
      99926    2    1    2    0    0  0.17763568394E-14 -0.10658141036E-13  0.30399982247E+04  0.30765519772E+04  0.47284549518E+03 0.  0.
         25    1    3    3    0    0  0.90624188360E+01 -0.16599622246E+02  0.95848574723E+03  0.96679889876E+03  0.12509000000E+03 0.  0.
         25    1    3    3    0    0 -0.30189033524E+02 -0.97410378209E+02  0.73697009326E+03  0.75443527621E+03  0.12509000000E+03 0.  0.
         25    1    3    3    0    0  0.21126614688E+02  0.11401000045E+03  0.13445423842E+04  0.13553178022E+04  0.12509000000E+03 0.  0.
<mgrwt>
<rscale>  2 0.47284550E+03</rscale>
<asrwt>0</asrwt>
<pdfrwt beam="1">  1       21 0.44974599E+00 0.47284550E+03</pdfrwt>
<pdfrwt beam="2">  1       21 0.26877780E-02 0.47284550E+03</pdfrwt>
<totfact> 0.24809245E+03</totfact>
</mgrwt>
</event>
<event>
 6    0  0.1539652E-007  0.4599803E+03  0.7546771E-02  0.1024787E+00
         21   -1    0    0  502  501  0.00000000000E+00  0.00000000000E+00  0.56756412003E+03  0.56756412003E+03  0.00000000000E+00 0. -1.
         21   -1    0    0  501  502 -0.00000000000E+00 -0.00000000000E+00 -0.93197344388E+02  0.93197344388E+02  0.00000000000E+00 0. -1.
      99926    2    1    2    0    0  0.00000000000E+00  0.00000000000E+00  0.47436677564E+03  0.66076146442E+03  0.45998029852E+03 0.  0.
         25    1    3    3    0    0 -0.17937444049E+02 -0.35367175621E+02  0.37924369243E+02  0.13659558885E+03  0.12509000000E+03 0.  0.
         25    1    3    3    0    0  0.28137693675E+02 -0.43694730573E+02  0.15365878137E+03  0.20484015348E+03  0.12509000000E+03 0.  0.
         25    1    3    3    0    0 -0.10200249626E+02  0.79061906194E+02  0.28278362503E+03  0.31932572209E+03  0.12509000000E+03 0.  0.
<mgrwt>
<rscale>  2 0.45998030E+03</rscale>
<asrwt>0</asrwt>
<pdfrwt beam="1">  1       21 0.83465310E-01 0.45998030E+03</pdfrwt>
<pdfrwt beam="2">  1       21 0.13705492E-01 0.45998030E+03</pdfrwt>
<totfact> 0.52973935E+04</totfact>
</mgrwt>
</event>
<event>
 6    0  0.1539652E-007  0.4539089E+03  0.7546771E-02  0.1026563E+00
         21   -1    0    0  502  501  0.00000000000E+00  0.00000000000E+00  0.19493542753E+03  0.19493542753E+03  0.00000000000E+00 0.  1.
         21   -1    0    0  501  502 -0.00000000000E+00 -0.00000000000E+00 -0.26423277962E+03  0.26423277962E+03  0.00000000000E+00 0.  1.
      99926    2    1    2    0    0 -0.88817841970E-15 -0.71054273576E-14 -0.69297352094E+02  0.45916820715E+03  0.45390893300E+03 0.  0.
         25    1    3    3    0    0 -0.36267335441E+02  0.32751929849E+02 -0.43889605266E+02  0.14128628412E+03  0.12509000000E+03 0.  0.
         25    1    3    3    0    0 -0.63983221623E+01  0.32308323675E+02  0.65281393667E+02  0.14489283890E+03  0.12509000000E+03 0.  0.
         25    1    3    3    0    0  0.42665657604E+02 -0.65060253524E+02 -0.90689140495E+02  0.17298908414E+03  0.12509000000E+03 0.  0.
<mgrwt>
<rscale>  2 0.45390893E+03</rscale>
<asrwt>0</asrwt>
<pdfrwt beam="1">  1       21 0.28666975E-01 0.45390893E+03</pdfrwt>
<pdfrwt beam="2">  1       21 0.38857762E-01 0.45390893E+03</pdfrwt>
<totfact> 0.68838227E+04</totfact>
</mgrwt>
</event>
<event>
 6    0  0.1539652E-007  0.4512065E+03  0.7546771E-02  0.1027363E+00
         21   -1    0    0  502  501  0.00000000000E+00  0.00000000000E+00  0.34861863067E+03  0.34861863067E+03  0.00000000000E+00 0.  1.
         21   -1    0    0  501  502 -0.00000000000E+00 -0.00000000000E+00 -0.14599573571E+03  0.14599573571E+03  0.00000000000E+00 0.  1.
      99926    2    1    2    0    0  0.00000000000E+00 -0.71054273576E-14  0.20262289496E+03  0.49461436638E+03  0.45120653127E+03 0.  0.
         25    1    3    3    0    0 -0.10502413684E+03  0.83309539121E+01  0.46575604287E+02  0.17004784364E+03  0.12509000000E+03 0.  0.
         25    1    3    3    0    0  0.50304279625E+02 -0.42011479129E+02  0.55700118203E+02  0.15180743129E+03  0.12509000000E+03 0.  0.
         25    1    3    3    0    0  0.54719857218E+02  0.33680525217E+02  0.10034717247E+03  0.17275909144E+03  0.12509000000E+03 0.  0.
<mgrwt>
<rscale>  2 0.45120653E+03</rscale>
<asrwt>0</asrwt>
<pdfrwt beam="1">  1       21 0.51267446E-01 0.45120653E+03</pdfrwt>
<pdfrwt beam="2">  1       21 0.21469961E-01 0.45120653E+03</pdfrwt>
<totfact> 0.67665535E+04</totfact>
</mgrwt>
</event>
<event>
 6    0  0.1539652E-007  0.4720453E+03  0.7546771E-02  0.1021345E+00
         21   -1    0    0  502  501  0.00000000000E+00  0.00000000000E+00  0.22438199326E+04  0.22438199326E+04  0.00000000000E+00 0. -1.
         21   -1    0    0  501  502 -0.00000000000E+00 -0.00000000000E+00 -0.24826715875E+02  0.24826715875E+02  0.00000000000E+00 0. -1.
      99926    2    1    2    0    0  0.00000000000E+00 -0.88817841970E-15  0.22189932167E+04  0.22686466484E+04  0.47204525182E+03 0.  0.
         25    1    3    3    0    0  0.39998729689E+02 -0.22316220087E+01  0.48035416855E+03  0.49798846760E+03  0.12509000000E+03 0.  0.
         25    1    3    3    0    0  0.35902303392E+02  0.95380866019E+02  0.79440021221E+03  0.81062055874E+03  0.12509000000E+03 0.  0.
         25    1    3    3    0    0 -0.75901033081E+02 -0.93149244010E+02  0.94423883593E+03  0.96003762211E+03  0.12509000000E+03 0.  0.
<mgrwt>
<rscale>  2 0.47204525E+03</rscale>
<asrwt>0</asrwt>
<pdfrwt beam="1">  1       21 0.32997338E+00 0.47204525E+03</pdfrwt>
<pdfrwt beam="2">  1       21 0.36509892E-02 0.47204525E+03</pdfrwt>
<totfact> 0.86019281E+03</totfact>
</mgrwt>
</event>
<event>
 6    0  0.1539652E-007  0.4564046E+03  0.7546771E-02  0.1025829E+00
         21   -1    0    0  502  501  0.00000000000E+00  0.00000000000E+00  0.69397439122E+02  0.69397439122E+02  0.00000000000E+00 0. -1.
         21   -1    0    0  501  502 -0.00000000000E+00 -0.00000000000E+00 -0.75040654881E+03  0.75040654881E+03  0.00000000000E+00 0. -1.
      99926    2    1    2    0    0  0.00000000000E+00  0.00000000000E+00 -0.68100910969E+03  0.81980398793E+03  0.45640461342E+03 0.  0.
         25    1    3    3    0    0  0.66745714317E+02 -0.72813509000E+02 -0.29570338229E+03  0.33592379474E+03  0.12509000000E+03 0.  0.
         25    1    3    3    0    0 -0.61009440953E+02  0.24943465574E+02 -0.11537209352E+03  0.18248988033E+03  0.12509000000E+03 0.  0.
         25    1    3    3    0    0 -0.57362733637E+01  0.47870043427E+02 -0.26993363387E+03  0.30139031286E+03  0.12509000000E+03 0.  0.
<mgrwt>
<rscale>  2 0.45640461E+03</rscale>
<asrwt>0</asrwt>
<pdfrwt beam="1">  1       21 0.10205506E-01 0.45640461E+03</pdfrwt>
<pdfrwt beam="2">  1       21 0.11035390E+00 0.45640461E+03</pdfrwt>
<totfact> 0.46309280E+04</totfact>
</mgrwt>
</event>
<event>
 6    0  0.1539652E-007  0.4547528E+03  0.7546771E-02  0.1026314E+00
         21   -1    0    0  502  501  0.00000000000E+00  0.00000000000E+00  0.10517525378E+03  0.10517525378E+03  0.00000000000E+00 0.  1.
         21   -1    0    0  501  502 -0.00000000000E+00 -0.00000000000E+00 -0.49156079587E+03  0.49156079587E+03  0.00000000000E+00 0.  1.
      99926    2    1    2    0    0  0.00000000000E+00  0.00000000000E+00 -0.38638554209E+03  0.59673604965E+03  0.45475281837E+03 0.  0.
         25    1    3    3    0    0 -0.81584036412E+02 -0.11038347852E+02 -0.75466966467E+02  0.16769189381E+03  0.12509000000E+03 0.  0.
         25    1    3    3    0    0  0.62934816668E+02 -0.51408311235E+02 -0.20056765163E+03  0.24995698949E+03  0.12509000000E+03 0.  0.
         25    1    3    3    0    0  0.18649219744E+02  0.62446659087E+02 -0.11035092399E+03  0.17908716636E+03  0.12509000000E+03 0.  0.
<mgrwt>
<rscale>  2 0.45475282E+03</rscale>
<asrwt>0</asrwt>
<pdfrwt beam="1">  1       21 0.15466949E-01 0.45475282E+03</pdfrwt>
<pdfrwt beam="2">  1       21 0.72288351E-01 0.45475282E+03</pdfrwt>
<totfact> 0.58994768E+04</totfact>
</mgrwt>
</event>
<event>
 6    0  0.1539652E-007  0.4545709E+03  0.7546771E-02  0.1026368E+00
         21   -1    0    0  502  501  0.00000000000E+00  0.00000000000E+00  0.10510429742E+03  0.10510429742E+03  0.00000000000E+00 0.  1.
         21   -1    0    0  501  502 -0.00000000000E+00 -0.00000000000E+00 -0.49149910741E+03  0.49149910741E+03  0.00000000000E+00 0.  1.
      99926    2    1    2    0    0  0.00000000000E+00  0.00000000000E+00 -0.38639480998E+03  0.59660340483E+03  0.45457086738E+03 0.  0.
         25    1    3    3    0    0  0.43370991056E+02  0.11959666882E+02 -0.86183063503E+02  0.15842697066E+03  0.12509000000E+03 0.  0.
         25    1    3    3    0    0 -0.40410757669E+02 -0.10051889299E+03 -0.14492348139E+03  0.21997136346E+03  0.12509000000E+03 0.  0.
         25    1    3    3    0    0 -0.29602333867E+01  0.88559226105E+02 -0.15528826509E+03  0.21820507071E+03  0.12509000000E+03 0.  0.
<mgrwt>
<rscale>  2 0.45457087E+03</rscale>
<asrwt>0</asrwt>
<pdfrwt beam="1">  1       21 0.15456514E-01 0.45457087E+03</pdfrwt>
<pdfrwt beam="2">  1       21 0.72279282E-01 0.45457087E+03</pdfrwt>
<totfact> 0.59087937E+04</totfact>
</mgrwt>
</event>
<event>
 6    0  0.1539652E-007  0.4538463E+03  0.7546771E-02  0.1026581E+00
         21   -1    0    0  502  501  0.00000000000E+00  0.00000000000E+00  0.30257617477E+02  0.30257617477E+02  0.00000000000E+00 0. -1.
         21   -1    0    0  501  502 -0.00000000000E+00 -0.00000000000E+00 -0.17018561021E+04  0.17018561021E+04  0.00000000000E+00 0. -1.
      99926    2    1    2    0    0  0.14210854715E-13  0.00000000000E+00 -0.16715984846E+04  0.17321137196E+04  0.45384627767E+03 0.  0.
         25    1    3    3    0    0 -0.47198390230E+02  0.33834637927E+02 -0.28763339295E+03  0.31898737844E+03  0.12509000000E+03 0.  0.
         25    1    3    3    0    0  0.82386291806E+02 -0.36252349613E+02 -0.82278242116E+03  0.83709029059E+03  0.12509000000E+03 0.  0.
         25    1    3    3    0    0 -0.35187901576E+02  0.24177116863E+01 -0.56118267052E+03  0.57603605056E+03  0.12509000000E+03 0.  0.
<mgrwt>
<rscale>  2 0.45384628E+03</rscale>
<asrwt>0</asrwt>
<pdfrwt beam="1">  1       21 0.44496490E-02 0.45384628E+03</pdfrwt>
<pdfrwt beam="2">  1       21 0.25027299E+00 0.45384628E+03</pdfrwt>
<totfact> 0.18768650E+04</totfact>
</mgrwt>
</event>
<event>
 6    0  0.1539652E-007  0.4552380E+03  0.7546771E-02  0.1026171E+00
         21   -1    0    0  502  501  0.00000000000E+00  0.00000000000E+00  0.15998380021E+03  0.15998380021E+03  0.00000000000E+00 0.  1.
         21   -1    0    0  501  502 -0.00000000000E+00 -0.00000000000E+00 -0.32384782031E+03  0.32384782031E+03  0.00000000000E+00 0.  1.
      99926    2    1    2    0    0  0.71054273576E-14  0.00000000000E+00 -0.16386402010E+03  0.48383162053E+03  0.45523798165E+03 0.  0.
         25    1    3    3    0    0 -0.83685707543E+01 -0.62774732788E+02 -0.66105555613E+02  0.15501016946E+03  0.12509000000E+03 0.  0.
         25    1    3    3    0    0 -0.62920139188E+02  0.91006011955E+02 -0.45680980374E+02  0.17313375810E+03  0.12509000000E+03 0.  0.
         25    1    3    3    0    0  0.71288709942E+02 -0.28231279167E+02 -0.52077484112E+02  0.15568769296E+03  0.12509000000E+03 0.  0.
<mgrwt>
<rscale>  2 0.45523798E+03</rscale>
<asrwt>0</asrwt>
<pdfrwt beam="1">  1       21 0.23527030E-01 0.45523798E+03</pdfrwt>
<pdfrwt beam="2">  1       21 0.47624679E-01 0.45523798E+03</pdfrwt>
<totfact> 0.66296897E+04</totfact>
</mgrwt>
</event>
<event>
 6    0  0.1539652E-007  0.4539839E+03  0.7546771E-02  0.1026541E+00
         21   -1    0    0  502  501  0.00000000000E+00  0.00000000000E+00  0.79788280128E+03  0.79788280128E+03  0.00000000000E+00 0.  1.
         21   -1    0    0  501  502 -0.00000000000E+00 -0.00000000000E+00 -0.64577579720E+02  0.64577579720E+02  0.00000000000E+00 0.  1.
      99926    2    1    2    0    0  0.71054273576E-14  0.13322676296E-14  0.73330522156E+03  0.86246038100E+03  0.45398387728E+03 0.  0.
         25    1    3    3    0    0  0.51800523568E+02  0.80450398439E+01  0.82870326830E+02  0.15894343672E+03  0.12509000000E+03 0.  0.
         25    1    3    3    0    0 -0.53520513486E+02  0.36301568360E+01  0.41356426515E+03  0.43538549920E+03  0.12509000000E+03 0.  0.
         25    1    3    3    0    0  0.17199899178E+01 -0.11675196680E+02  0.23687062958E+03  0.26813144508E+03  0.12509000000E+03 0.  0.
<mgrwt>
<rscale>  2 0.45398388E+03</rscale>
<asrwt>0</asrwt>
<pdfrwt beam="1">  1       21 0.11733570E+00 0.45398388E+03</pdfrwt>
<pdfrwt beam="2">  1       21 0.94967034E-02 0.45398388E+03</pdfrwt>
<totfact> 0.45246497E+04</totfact>
</mgrwt>
</event>
<event>
 6    0  0.1539652E-007  0.4567779E+03  0.7546771E-02  0.1025720E+00
         21   -1    0    0  502  501  0.00000000000E+00  0.00000000000E+00  0.13963318234E+03  0.13963318234E+03  0.00000000000E+00 0. -1.
         21   -1    0    0  501  502 -0.00000000000E+00 -0.00000000000E+00 -0.37356102201E+03  0.37356102201E+03  0.00000000000E+00 0. -1.
      99926    2    1    2    0    0 -0.35527136788E-14 -0.71054273576E-14 -0.23392783967E+03  0.51319420434E+03  0.45677790796E+03 0.  0.
         25    1    3    3    0    0  0.20596681073E+02  0.54825818695E+02 -0.11917600961E+03  0.18242950154E+03  0.12509000000E+03 0.  0.
         25    1    3    3    0    0 -0.53620520341E+01  0.42403025624E+02  0.38905425606E+01  0.13224754291E+03  0.12509000000E+03 0.  0.
         25    1    3    3    0    0 -0.15234629039E+02 -0.97228844319E+02 -0.11864237262E+03  0.19851715989E+03  0.12509000000E+03 0.  0.
<mgrwt>
<rscale>  2 0.45677791E+03</rscale>
<asrwt>0</asrwt>
<pdfrwt beam="1">  1       21 0.20534292E-01 0.45677791E+03</pdfrwt>
<pdfrwt beam="2">  1       21 0.54935443E-01 0.45677791E+03</pdfrwt>
<totfact> 0.63453311E+04</totfact>
</mgrwt>
</event>
<event>
 6    0  0.1539652E-007  0.4540456E+03  0.7546771E-02  0.1026522E+00
         21   -1    0    0  502  501  0.00000000000E+00  0.00000000000E+00  0.10975236732E+04  0.10975236732E+04  0.00000000000E+00 0. -1.
         21   -1    0    0  501  502 -0.00000000000E+00 -0.00000000000E+00 -0.46959670848E+02  0.46959670848E+02  0.00000000000E+00 0. -1.
      99926    2    1    2    0    0  0.00000000000E+00  0.00000000000E+00  0.10505640024E+04  0.11444833441E+04  0.45404559437E+03 0.  0.
         25    1    3    3    0    0 -0.52520464972E+02  0.74112236659E+02  0.34987030639E+03  0.38250197680E+03  0.12509000000E+03 0.  0.
         25    1    3    3    0    0  0.55577189486E+02  0.24614806054E+02  0.29650025583E+03  0.32749751522E+03  0.12509000000E+03 0.  0.
         25    1    3    3    0    0 -0.30567245137E+01 -0.98727042712E+02  0.40419344017E+03  0.43448385206E+03  0.12509000000E+03 0.  0.
<mgrwt>
<rscale>  2 0.45404559E+03</rscale>
<asrwt>0</asrwt>
<pdfrwt beam="1">  1       21 0.16140052E+00 0.45404559E+03</pdfrwt>
<pdfrwt beam="2">  1       21 0.69058346E-02 0.45404559E+03</pdfrwt>
<totfact> 0.34220946E+04</totfact>
</mgrwt>
</event>
<event>
 6    0  0.1539652E-007  0.4619371E+03  0.7546771E-02  0.1024221E+00
         21   -1    0    0  502  501  0.00000000000E+00  0.00000000000E+00  0.74532977424E+03  0.74532977424E+03  0.00000000000E+00 0. -1.
         21   -1    0    0  501  502 -0.00000000000E+00 -0.00000000000E+00 -0.71574325262E+02  0.71574325262E+02  0.00000000000E+00 0. -1.
      99926    2    1    2    0    0  0.00000000000E+00  0.53290705182E-14  0.67375544898E+03  0.81690409951E+03  0.46193711992E+03 0.  0.
         25    1    3    3    0    0  0.10439398970E+02 -0.83280821769E+02  0.29579637361E+03  0.33194529529E+03  0.12509000000E+03 0.  0.
         25    1    3    3    0    0  0.52112012320E+02 -0.96662960671E+01  0.17457299623E+03  0.22120655103E+03  0.12509000000E+03 0.  0.
         25    1    3    3    0    0 -0.62551411290E+02  0.92947117836E+02  0.20338607914E+03  0.26375225318E+03  0.12509000000E+03 0.  0.
<mgrwt>
<rscale>  2 0.46193712E+03</rscale>
<asrwt>0</asrwt>
<pdfrwt beam="1">  1       21 0.10960732E+00 0.46193712E+03</pdfrwt>
<pdfrwt beam="2">  1       21 0.10525637E-01 0.46193712E+03</pdfrwt>
<totfact> 0.44486536E+04</totfact>
</mgrwt>
</event>
<event>
 6    0  0.1539652E-007  0.4608723E+03  0.7546771E-02  0.1024529E+00
         21   -1    0    0  502  501  0.00000000000E+00  0.00000000000E+00  0.12393838189E+04  0.12393838189E+04  0.00000000000E+00 0.  1.
         21   -1    0    0  501  502 -0.00000000000E+00 -0.00000000000E+00 -0.42844527344E+02  0.42844527344E+02  0.00000000000E+00 0.  1.
      99926    2    1    2    0    0  0.00000000000E+00  0.00000000000E+00  0.11965392916E+04  0.12822283462E+04  0.46087227697E+03 0.  0.
         25    1    3    3    0    0  0.18481315668E+02 -0.97426738188E+02  0.43081134006E+03  0.45943383328E+03  0.12509000000E+03 0.  0.
         25    1    3    3    0    0 -0.68034859393E+02  0.19543029526E+02  0.32203862234E+03  0.35265713445E+03  0.12509000000E+03 0.  0.
         25    1    3    3    0    0  0.49553543724E+02  0.77883708662E+02  0.44368932916E+03  0.47013737852E+03  0.12509000000E+03 0.  0.
<mgrwt>
<rscale>  2 0.46087228E+03</rscale>
<asrwt>0</asrwt>
<pdfrwt beam="1">  1       21 0.18226230E+00 0.46087228E+03</pdfrwt>
<pdfrwt beam="2">  1       21 0.63006666E-02 0.46087228E+03</pdfrwt>
<totfact> 0.28318878E+04</totfact>
</mgrwt>
</event>
<event>
 6    0  0.1539652E-007  0.4213850E+03  0.7546771E-02  0.1036616E+00
         21   -1    0    0  502  501  0.00000000000E+00  0.00000000000E+00  0.19108284802E+03  0.19108284802E+03  0.00000000000E+00 0.  1.
         21   -1    0    0  501  502 -0.00000000000E+00 -0.00000000000E+00 -0.23231457760E+03  0.23231457760E+03  0.00000000000E+00 0.  1.
      99926    2    1    2    0    0  0.71054273576E-14  0.00000000000E+00 -0.41231729588E+02  0.42339742562E+03  0.42138500744E+03 0.  0.
         25    1    3    3    0    0  0.51699209115E+02  0.17526003371E+02 -0.34223882628E+02  0.14070803552E+03  0.12509000000E+03 0.  0.
         25    1    3    3    0    0  0.27984946557E+02  0.86374403123E+01 -0.25421354149E+02  0.13096379635E+03  0.12509000000E+03 0.  0.
         25    1    3    3    0    0 -0.79684155672E+02 -0.26163443683E+02  0.18413507189E+02  0.15172559375E+03  0.12509000000E+03 0.  0.
<mgrwt>
<rscale>  2 0.42138501E+03</rscale>
<asrwt>0</asrwt>
<pdfrwt beam="1">  1       21 0.28100419E-01 0.42138501E+03</pdfrwt>
<pdfrwt beam="2">  1       21 0.34163908E-01 0.42138501E+03</pdfrwt>
<totfact> 0.93627860E+04</totfact>
</mgrwt>
</event>
<event>
 6    0  0.1539652E-007  0.4552232E+03  0.7546771E-02  0.1026176E+00
         21   -1    0    0  502  501  0.00000000000E+00  0.00000000000E+00  0.30671380536E+03  0.30671380536E+03  0.00000000000E+00 0.  1.
         21   -1    0    0  501  502 -0.00000000000E+00 -0.00000000000E+00 -0.16891004407E+03  0.16891004407E+03  0.00000000000E+00 0.  1.
      99926    2    1    2    0    0  0.00000000000E+00  0.00000000000E+00  0.13780376128E+03  0.47562384943E+03  0.45522320846E+03 0.  0.
         25    1    3    3    0    0  0.41688097177E+02 -0.82029831543E+01  0.71477195407E+02  0.15020547241E+03  0.12509000000E+03 0.  0.
         25    1    3    3    0    0  0.29422322959E+02 -0.71418930855E+02 -0.27682300014E+01  0.14704253796E+03  0.12509000000E+03 0.  0.
         25    1    3    3    0    0 -0.71110420137E+02  0.79621914009E+02  0.69094795877E+02  0.17837583906E+03  0.12509000000E+03 0.  0.
<mgrwt>
<rscale>  2 0.45522321E+03</rscale>
<asrwt>0</asrwt>
<pdfrwt beam="1">  1       21 0.45104971E-01 0.45522321E+03</pdfrwt>
<pdfrwt beam="2">  1       21 0.24839712E-01 0.45522321E+03</pdfrwt>
<totfact> 0.66901472E+04</totfact>
</mgrwt>
</event>
<event>
 6    0  0.1539652E-007  0.4452125E+03  0.7546771E-02  0.1029159E+00
         21   -1    0    0  502  501  0.00000000000E+00  0.00000000000E+00  0.14258724517E+04  0.14258724517E+04  0.00000000000E+00 0. -1.
         21   -1    0    0  501  502 -0.00000000000E+00 -0.00000000000E+00 -0.34753143864E+02  0.34753143864E+02  0.00000000000E+00 0. -1.
      99926    2    1    2    0    0  0.00000000000E+00  0.35527136788E-14  0.13911193078E+04  0.14606255956E+04  0.44521253552E+03 0.  0.
         25    1    3    3    0    0 -0.27345483750E+02 -0.25523741309E+02  0.26601646919E+03  0.29633006400E+03  0.12509000000E+03 0.  0.
         25    1    3    3    0    0  0.68279100001E+01 -0.61952121323E+02  0.64990947663E+03  0.66476651660E+03  0.12509000000E+03 0.  0.
         25    1    3    3    0    0  0.20517573750E+02  0.87475862631E+02  0.47519336203E+03  0.49952901497E+03  0.12509000000E+03 0.  0.
<mgrwt>
<rscale>  2 0.44521254E+03</rscale>
<asrwt>0</asrwt>
<pdfrwt beam="1">  1       21 0.20968709E+00 0.44521254E+03</pdfrwt>
<pdfrwt beam="2">  1       21 0.51107574E-02 0.44521254E+03</pdfrwt>
<totfact> 0.26736177E+04</totfact>
</mgrwt>
</event>
<event>
 6    0  0.1539652E-007  0.4696267E+03  0.7546771E-02  0.1022026E+00
         21   -1    0    0  502  501  0.00000000000E+00  0.00000000000E+00  0.13926746573E+03  0.13926746573E+03  0.00000000000E+00 0.  1.
         21   -1    0    0  501  502 -0.00000000000E+00 -0.00000000000E+00 -0.39590954633E+03  0.39590954633E+03  0.00000000000E+00 0.  1.
      99926    2    1    2    0    0  0.00000000000E+00  0.37747582837E-14 -0.25664208061E+03  0.53517701206E+03  0.46962674189E+03 0.  0.
         25    1    3    3    0    0  0.37286712509E+02  0.79547350136E+02 -0.12250221959E+03  0.19588869735E+03  0.12509000000E+03 0.  0.
         25    1    3    3    0    0 -0.65644980055E+02  0.16025091829E+01 -0.12262485094E+03  0.18707269606E+03  0.12509000000E+03 0.  0.
         25    1    3    3    0    0  0.28358267546E+02 -0.81149859319E+02 -0.11515010071E+02  0.15221561866E+03  0.12509000000E+03 0.  0.
<mgrwt>
<rscale>  2 0.46962674E+03</rscale>
<asrwt>0</asrwt>
<pdfrwt beam="1">  1       21 0.20480510E-01 0.46962674E+03</pdfrwt>
<pdfrwt beam="2">  1       21 0.58221991E-01 0.46962674E+03</pdfrwt>
<totfact> 0.56069049E+04</totfact>
</mgrwt>
</event>
<event>
 6    0  0.1539652E-007  0.4569004E+03  0.7546771E-02  0.1025684E+00
         21   -1    0    0  502  501  0.00000000000E+00  0.00000000000E+00  0.24530692937E+03  0.24530692937E+03  0.00000000000E+00 0.  1.
         21   -1    0    0  501  502 -0.00000000000E+00 -0.00000000000E+00 -0.21275184030E+03  0.21275184030E+03  0.00000000000E+00 0.  1.
      99926    2    1    2    0    0  0.71054273576E-14  0.00000000000E+00  0.32555089072E+02  0.45805876967E+03  0.45690042969E+03 0.  0.
         25    1    3    3    0    0 -0.56043129977E+02 -0.64422530322E+02 -0.35226045795E+02  0.15549751520E+03  0.12509000000E+03 0.  0.
         25    1    3    3    0    0 -0.67015955247E+01 -0.21866072655E+02  0.52044161062E+02  0.13740138033E+03  0.12509000000E+03 0.  0.
         25    1    3    3    0    0  0.62744725502E+02  0.86288602977E+02  0.15736973805E+02  0.16515987414E+03  0.12509000000E+03 0.  0.
<mgrwt>
<rscale>  2 0.45690043E+03</rscale>
<asrwt>0</asrwt>
<pdfrwt beam="1">  1       21 0.36074548E-01 0.45690043E+03</pdfrwt>
<pdfrwt beam="2">  1       21 0.31287035E-01 0.45690043E+03</pdfrwt>
<totfact> 0.67296106E+04</totfact>
</mgrwt>
</event>
<event>
 6    0  0.1539652E-007  0.4569680E+03  0.7546771E-02  0.1025664E+00
         21   -1    0    0  502  501  0.00000000000E+00  0.00000000000E+00  0.70637965050E+03  0.70637965050E+03  0.00000000000E+00 0.  1.
         21   -1    0    0  501  502 -0.00000000000E+00 -0.00000000000E+00 -0.73904940627E+02  0.73904940627E+02  0.00000000000E+00 0.  1.
      99926    2    1    2    0    0  0.00000000000E+00  0.00000000000E+00  0.63247470988E+03  0.78028459113E+03  0.45696803447E+03 0.  0.
         25    1    3    3    0    0 -0.60979062095E+02 -0.42492593360E+02  0.22405888852E+03  0.26715905399E+03  0.12509000000E+03 0.  0.
         25    1    3    3    0    0  0.79092540917E+02  0.29202084474E+02  0.10394783278E+03  0.18319675708E+03  0.12509000000E+03 0.  0.
         25    1    3    3    0    0 -0.18113478823E+02  0.13290508886E+02  0.30446798858E+03  0.32992878006E+03  0.12509000000E+03 0.  0.
<mgrwt>
<rscale>  2 0.45696803E+03</rscale>
<asrwt>0</asrwt>
<pdfrwt beam="1">  1       21 0.10387936E+00 0.45696803E+03</pdfrwt>
<pdfrwt beam="2">  1       21 0.10868374E-01 0.45696803E+03</pdfrwt>
<totfact> 0.47987655E+04</totfact>
</mgrwt>
</event>
<event>
 6    0  0.1539652E-007  0.4560026E+03  0.7546771E-02  0.1025947E+00
         21   -1    0    0  502  501  0.00000000000E+00  0.00000000000E+00  0.70684870488E+02  0.70684870488E+02  0.00000000000E+00 0. -1.
         21   -1    0    0  501  502 -0.00000000000E+00 -0.00000000000E+00 -0.73544142135E+03  0.73544142135E+03  0.00000000000E+00 0. -1.
      99926    2    1    2    0    0 -0.71054273576E-14  0.14210854715E-13 -0.66475655087E+03  0.80612629184E+03  0.45600255096E+03 0.  0.
         25    1    3    3    0    0 -0.46330176486E+02  0.95558864273E+02 -0.26809119099E+03  0.31432209051E+03  0.12509000000E+03 0.  0.
         25    1    3    3    0    0  0.28521153320E+02 -0.55695636989E+01 -0.23470334617E+03  0.26753998772E+03  0.12509000000E+03 0.  0.
         25    1    3    3    0    0  0.17809023166E+02 -0.89989300574E+02 -0.16196201370E+03  0.22426421361E+03  0.12509000000E+03 0.  0.
<mgrwt>
<rscale>  2 0.45600255E+03</rscale>
<asrwt>0</asrwt>
<pdfrwt beam="1">  1       21 0.10394834E-01 0.45600255E+03</pdfrwt>
<pdfrwt beam="2">  1       21 0.10815315E+00 0.45600255E+03</pdfrwt>
<totfact> 0.47098273E+04</totfact>
</mgrwt>
</event>
<event>
 6    0  0.1539652E-007  0.4558372E+03  0.7546771E-02  0.1025995E+00
         21   -1    0    0  502  501  0.00000000000E+00  0.00000000000E+00  0.74265580904E+02  0.74265580904E+02  0.00000000000E+00 0. -1.
         21   -1    0    0  501  502 -0.00000000000E+00 -0.00000000000E+00 -0.69947473414E+03  0.69947473414E+03  0.00000000000E+00 0. -1.
      99926    2    1    2    0    0  0.35527136788E-14  0.00000000000E+00 -0.62520915324E+03  0.77374031505E+03  0.45583724051E+03 0.  0.
         25    1    3    3    0    0  0.48087557578E+02  0.36712963925E+02 -0.25826451290E+03  0.29327175390E+03  0.12509000000E+03 0.  0.
         25    1    3    3    0    0 -0.74867966025E+02 -0.58079367221E+01 -0.29822837118E+03  0.33200393664E+03  0.12509000000E+03 0.  0.
         25    1    3    3    0    0  0.26780408448E+02 -0.30905027203E+02 -0.68716269162E+02  0.14846462451E+03  0.12509000000E+03 0.  0.
<mgrwt>
<rscale>  2 0.45583724E+03</rscale>
<asrwt>0</asrwt>
<pdfrwt beam="1">  1       21 0.10921409E-01 0.45583724E+03</pdfrwt>
<pdfrwt beam="2">  1       21 0.10286393E+00 0.45583724E+03</pdfrwt>
<totfact> 0.48740075E+04</totfact>
</mgrwt>
</event>
<event>
 6    0  0.1539652E-007  0.4464506E+03  0.7546771E-02  0.1028786E+00
         21   -1    0    0  502  501  0.00000000000E+00  0.00000000000E+00  0.18217626244E+03  0.18217626244E+03  0.00000000000E+00 0. -1.
         21   -1    0    0  501  502 -0.00000000000E+00 -0.00000000000E+00 -0.27352379690E+03  0.27352379690E+03  0.00000000000E+00 0. -1.
      99926    2    1    2    0    0  0.35527136788E-14 -0.35527136788E-14 -0.91347534452E+02  0.45570005934E+03  0.44645063785E+03 0.  0.
         25    1    3    3    0    0 -0.46366091037E+02  0.46505557484E+02  0.26887068516E+02  0.14381586779E+03  0.12509000000E+03 0.  0.
         25    1    3    3    0    0  0.67253782501E+02 -0.21176522798E+02 -0.11252692794E+03  0.18243172419E+03  0.12509000000E+03 0.  0.
         25    1    3    3    0    0 -0.20887691463E+02 -0.25329034685E+02 -0.57076750316E+01  0.12945246737E+03  0.12509000000E+03 0.  0.
<mgrwt>
<rscale>  2 0.44645064E+03</rscale>
<asrwt>0</asrwt>
<pdfrwt beam="1">  1       21 0.26790627E-01 0.44645064E+03</pdfrwt>
<pdfrwt beam="2">  1       21 0.40224087E-01 0.44645064E+03</pdfrwt>
<totfact> 0.73365133E+04</totfact>
</mgrwt>
</event>
<event>
 6    0  0.1539652E-007  0.4528268E+03  0.7546771E-02  0.1026882E+00
         21   -1    0    0  502  501  0.00000000000E+00  0.00000000000E+00  0.20432103496E+04  0.20432103496E+04  0.00000000000E+00 0.  1.
         21   -1    0    0  501  502 -0.00000000000E+00 -0.00000000000E+00 -0.25089446798E+02  0.25089446798E+02  0.00000000000E+00 0.  1.
      99926    2    1    2    0    0  0.00000000000E+00  0.00000000000E+00  0.20181209028E+04  0.20682997964E+04  0.45282675435E+03 0.  0.
         25    1    3    3    0    0  0.63281373914E+02  0.54054846405E+02  0.41431265236E+03  0.44071412583E+03  0.12509000000E+03 0.  0.
         25    1    3    3    0    0 -0.65588650260E+02 -0.29092186188E+02  0.10087151218E+04  0.10189710160E+04  0.12509000000E+03 0.  0.
         25    1    3    3    0    0  0.23072763460E+01 -0.24962660217E+02  0.59509312865E+03  0.60861465461E+03  0.12509000000E+03 0.  0.
<mgrwt>
<rscale>  2 0.45282675E+03</rscale>
<asrwt>0</asrwt>
<pdfrwt beam="1">  1       21 0.30047200E+00 0.45282675E+03</pdfrwt>
<pdfrwt beam="2">  1       21 0.36896259E-02 0.45282675E+03</pdfrwt>
<totfact> 0.12841940E+04</totfact>
</mgrwt>
</event>
<event>
 6    0  0.1539652E-007  0.4495259E+03  0.7546771E-02  0.1027864E+00
         21   -1    0    0  502  501  0.00000000000E+00  0.00000000000E+00  0.21391965363E+02  0.21391965363E+02  0.00000000000E+00 0.  1.
         21   -1    0    0  501  502 -0.00000000000E+00 -0.00000000000E+00 -0.23615583817E+04  0.23615583817E+04  0.00000000000E+00 0.  1.
      99926    2    1    2    0    0  0.00000000000E+00  0.00000000000E+00 -0.23401664163E+04  0.23829503470E+04  0.44952586178E+03 0.  0.
         25    1    3    3    0    0 -0.37327683257E+02  0.68403894339E+02 -0.48391820144E+03  0.50586241458E+03  0.12509000000E+03 0.  0.
         25    1    3    3    0    0 -0.22815434231E+02 -0.57760306491E+02 -0.95017793709E+03  0.96038659782E+03  0.12509000000E+03 0.  0.
         25    1    3    3    0    0  0.60143117488E+02 -0.10643587848E+02 -0.90607027777E+03  0.91670133462E+03  0.12509000000E+03 0.  0.
<mgrwt>
<rscale>  2 0.44952586E+03</rscale>
<asrwt>0</asrwt>
<pdfrwt beam="1">  1       21 0.31458772E-02 0.44952586E+03</pdfrwt>
<pdfrwt beam="2">  1       21 0.34728801E+00 0.44952586E+03</pdfrwt>
<totfact> 0.87719710E+03</totfact>
</mgrwt>
</event>
<event>
 6    0  0.1539652E-007  0.4367195E+03  0.7546771E-02  0.1031758E+00
         21   -1    0    0  502  501  0.00000000000E+00  0.00000000000E+00  0.55036064986E+03  0.55036064986E+03  0.00000000000E+00 0.  1.
         21   -1    0    0  501  502 -0.00000000000E+00 -0.00000000000E+00 -0.86635894804E+02  0.86635894804E+02  0.00000000000E+00 0.  1.
      99926    2    1    2    0    0  0.00000000000E+00  0.17763568394E-14  0.46372475505E+03  0.63699654466E+03  0.43671953181E+03 0.  0.
         25    1    3    3    0    0 -0.33327790047E+02 -0.15039604991E+02  0.10749808175E+03  0.16893867819E+03  0.12509000000E+03 0.  0.
         25    1    3    3    0    0  0.99834006796E+02  0.12238384754E+01  0.16753123934E+03  0.23169495236E+03  0.12509000000E+03 0.  0.
         25    1    3    3    0    0 -0.66506216749E+02  0.13815766516E+02  0.18869543397E+03  0.23636291412E+03  0.12509000000E+03 0.  0.
<mgrwt>
<rscale>  2 0.43671953E+03</rscale>
<asrwt>0</asrwt>
<pdfrwt beam="1">  1       21 0.80935388E-01 0.43671953E+03</pdfrwt>
<pdfrwt beam="2">  1       21 0.12740573E-01 0.43671953E+03</pdfrwt>
<totfact> 0.65390540E+04</totfact>
</mgrwt>
</event>
<event>
 6    0  0.1539652E-007  0.4518926E+03  0.7546771E-02  0.1027159E+00
         21   -1    0    0  502  501  0.00000000000E+00  0.00000000000E+00  0.79072237489E+02  0.79072237489E+02  0.00000000000E+00 0. -1.
         21   -1    0    0  501  502 -0.00000000000E+00 -0.00000000000E+00 -0.64563410144E+03  0.64563410144E+03  0.00000000000E+00 0. -1.
      99926    2    1    2    0    0 -0.71054273576E-14 -0.44408920985E-15 -0.56656186395E+03  0.72470633893E+03  0.45189261113E+03 0.  0.
         25    1    3    3    0    0 -0.45065288381E+02  0.31355959307E+01 -0.28327693062E+03  0.31294414790E+03  0.12509000000E+03 0.  0.
         25    1    3    3    0    0 -0.31713508118E+02 -0.52477425787E+02 -0.98177896787E+02  0.17042897152E+03  0.12509000000E+03 0.  0.
         25    1    3    3    0    0  0.76778796499E+02  0.49341829856E+02 -0.18510703654E+03  0.24133321951E+03  0.12509000000E+03 0.  0.
<mgrwt>
<rscale>  2 0.45189261E+03</rscale>
<asrwt>0</asrwt>
<pdfrwt beam="1">  1       21 0.11628270E-01 0.45189261E+03</pdfrwt>
<pdfrwt beam="2">  1       21 0.94946195E-01 0.45189261E+03</pdfrwt>
<totfact> 0.52862110E+04</totfact>
</mgrwt>
</event>
<event>
 6    0  0.1539652E-007  0.4574878E+03  0.7546771E-02  0.1025512E+00
         21   -1    0    0  502  501  0.00000000000E+00  0.00000000000E+00  0.98700150718E+02  0.98700150718E+02  0.00000000000E+00 0.  1.
         21   -1    0    0  501  502 -0.00000000000E+00 -0.00000000000E+00 -0.53012858709E+03  0.53012858709E+03  0.00000000000E+00 0.  1.
      99926    2    1    2    0    0  0.00000000000E+00  0.00000000000E+00 -0.43142843637E+03  0.62882873781E+03  0.45748779851E+03 0.  0.
         25    1    3    3    0    0  0.51143423379E+02  0.35255057923E+02 -0.48791628062E+02  0.14794154228E+03  0.12509000000E+03 0.  0.
         25    1    3    3    0    0  0.15134677882E+02  0.38239004705E+02 -0.17914163663E+03  0.22232974167E+03  0.12509000000E+03 0.  0.
         25    1    3    3    0    0 -0.66278101260E+02 -0.73494062629E+02 -0.20349517168E+03  0.25855745386E+03  0.12509000000E+03 0.  0.
<mgrwt>
<rscale>  2 0.45748780E+03</rscale>
<asrwt>0</asrwt>
<pdfrwt beam="1">  1       21 0.14514728E-01 0.45748780E+03</pdfrwt>
<pdfrwt beam="2">  1       21 0.77960088E-01 0.45748780E+03</pdfrwt>
<totfact> 0.55833294E+04</totfact>
</mgrwt>
</event>
<event>
 6    0  0.1539652E-007  0.4652077E+03  0.7546771E-02  0.1023282E+00
         21   -1    0    0  502  501  0.00000000000E+00  0.00000000000E+00  0.22244295082E+03  0.22244295082E+03  0.00000000000E+00 0.  1.
         21   -1    0    0  501  502 -0.00000000000E+00 -0.00000000000E+00 -0.24322889668E+03  0.24322889668E+03  0.00000000000E+00 0.  1.
      99926    2    1    2    0    0  0.00000000000E+00  0.00000000000E+00 -0.20785945855E+02  0.46567184750E+03  0.46520771061E+03 0.  0.
         25    1    3    3    0    0  0.45472198767E+02 -0.26657525321E+02  0.34506650717E+02  0.14005913594E+03  0.12509000000E+03 0.  0.
         25    1    3    3    0    0 -0.88622909848E+02 -0.25613261987E+02  0.32010188733E+02  0.15868906586E+03  0.12509000000E+03 0.  0.
         25    1    3    3    0    0  0.43150711080E+02  0.52270787309E+02 -0.87302785304E+02  0.16692364570E+03  0.12509000000E+03 0.  0.
<mgrwt>
<rscale>  2 0.46520771E+03</rscale>
<asrwt>0</asrwt>
<pdfrwt beam="1">  1       21 0.32712199E-01 0.46520771E+03</pdfrwt>
<pdfrwt beam="2">  1       21 0.35768956E-01 0.46520771E+03</pdfrwt>
<totfact> 0.62521550E+04</totfact>
</mgrwt>
</event>
<event>
 6    0  0.1539652E-007  0.4555612E+03  0.7546771E-02  0.1026077E+00
         21   -1    0    0  502  501  0.00000000000E+00  0.00000000000E+00  0.25114089900E+03  0.25114089900E+03  0.00000000000E+00 0.  1.
         21   -1    0    0  501  502 -0.00000000000E+00 -0.00000000000E+00 -0.20659320450E+03  0.20659320450E+03  0.00000000000E+00 0.  1.
      99926    2    1    2    0    0  0.00000000000E+00  0.71054273576E-14  0.44547694501E+02  0.45773410350E+03  0.45556120601E+03 0.  0.
         25    1    3    3    0    0  0.70275360773E+01 -0.31288227642E+02  0.35547413847E+02  0.13393829245E+03  0.12509000000E+03 0.  0.
         25    1    3    3    0    0  0.44692177214E+02  0.63109912503E+02  0.80270550947E+02  0.16754438579E+03  0.12509000000E+03 0.  0.
         25    1    3    3    0    0 -0.51719713291E+02 -0.31821684861E+02 -0.71270270293E+02  0.15625142527E+03  0.12509000000E+03 0.  0.
<mgrwt>
<rscale>  2 0.45556121E+03</rscale>
<asrwt>0</asrwt>
<pdfrwt beam="1">  1       21 0.36932485E-01 0.45556121E+03</pdfrwt>
<pdfrwt beam="2">  1       21 0.30381353E-01 0.45556121E+03</pdfrwt>
<totfact> 0.68040783E+04</totfact>
</mgrwt>
</event>
<event>
 6    0  0.1539652E-007  0.4573783E+03  0.7546771E-02  0.1025544E+00
         21   -1    0    0  502  501  0.00000000000E+00  0.00000000000E+00  0.61076671702E+02  0.61076671702E+02  0.00000000000E+00 0. -1.
         21   -1    0    0  501  502 -0.00000000000E+00 -0.00000000000E+00 -0.85627978504E+03  0.85627978504E+03  0.00000000000E+00 0. -1.
      99926    2    1    2    0    0 -0.35527136788E-14  0.00000000000E+00 -0.79520311334E+03  0.91735645674E+03  0.45737826497E+03 0.  0.
         25    1    3    3    0    0  0.37280066603E+02 -0.90155774385E+01 -0.16800381198E+03  0.21294100813E+03  0.12509000000E+03 0.  0.
         25    1    3    3    0    0  0.22810988890E+02  0.39249413149E+02 -0.48696632248E+03  0.50482131985E+03  0.12509000000E+03 0.  0.
         25    1    3    3    0    0 -0.60091055493E+02 -0.30233835710E+02 -0.14023297888E+03  0.19959412876E+03  0.12509000000E+03 0.  0.
<mgrwt>
<rscale>  2 0.45737826E+03</rscale>
<asrwt>0</asrwt>
<pdfrwt beam="1">  1       21 0.89818639E-02 0.45737826E+03</pdfrwt>
<pdfrwt beam="2">  1       21 0.12592349E+00 0.45737826E+03</pdfrwt>
<totfact> 0.41709968E+04</totfact>
</mgrwt>
</event>
<event>
 6    0  0.1539652E-007  0.4455281E+03  0.7546771E-02  0.1029064E+00
         21   -1    0    0  502  501  0.00000000000E+00  0.00000000000E+00  0.31803745177E+03  0.31803745177E+03  0.00000000000E+00 0.  1.
         21   -1    0    0  501  502 -0.00000000000E+00 -0.00000000000E+00 -0.15603139995E+03  0.15603139995E+03  0.00000000000E+00 0.  1.
      99926    2    1    2    0    0  0.00000000000E+00  0.00000000000E+00  0.16200605182E+03  0.47406885172E+03  0.44552813082E+03 0.  0.
         25    1    3    3    0    0  0.57072435351E+02 -0.82787771095E+02  0.78776266722E+02  0.17878558728E+03  0.12509000000E+03 0.  0.
         25    1    3    3    0    0 -0.18701113624E+02  0.71722977209E+02  0.75279716480E+02  0.16373289506E+03  0.12509000000E+03 0.  0.
         25    1    3    3    0    0 -0.38371321727E+02  0.11064793886E+02  0.79500686134E+01  0.13155036939E+03  0.12509000000E+03 0.  0.
<mgrwt>
<rscale>  2 0.44552813E+03</rscale>
<asrwt>0</asrwt>
<pdfrwt beam="1">  1       21 0.46770214E-01 0.44552813E+03</pdfrwt>
<pdfrwt beam="2">  1       21 0.22945794E-01 0.44552813E+03</pdfrwt>
<totfact> 0.72428402E+04</totfact>
</mgrwt>
</event>
<event>
 6    0  0.1539652E-007  0.4515569E+03  0.7546771E-02  0.1027259E+00
         21   -1    0    0  502  501  0.00000000000E+00  0.00000000000E+00  0.17431099066E+03  0.17431099066E+03  0.00000000000E+00 0.  1.
         21   -1    0    0  501  502 -0.00000000000E+00 -0.00000000000E+00 -0.29244229339E+03  0.29244229339E+03  0.00000000000E+00 0.  1.
      99926    2    1    2    0    0 -0.11102230246E-14  0.00000000000E+00 -0.11813130273E+03  0.46675328404E+03  0.45155688842E+03 0.  0.
         25    1    3    3    0    0  0.63028523608E+02  0.29857419655E+02  0.42369558018E+02  0.14935443697E+03  0.12509000000E+03 0.  0.
         25    1    3    3    0    0 -0.61355269363E+02 -0.11458422403E+02 -0.12110021451E+03  0.18495549350E+03  0.12509000000E+03 0.  0.
         25    1    3    3    0    0 -0.16732542450E+01 -0.18398997252E+02 -0.39400646239E+02  0.13244335357E+03  0.12509000000E+03 0.  0.
<mgrwt>
<rscale>  2 0.45155689E+03</rscale>
<asrwt>0</asrwt>
<pdfrwt beam="1">  1       21 0.25633969E-01 0.45155689E+03</pdfrwt>
<pdfrwt beam="2">  1       21 0.43006219E-01 0.45155689E+03</pdfrwt>
<totfact> 0.69558532E+04</totfact>
</mgrwt>
</event>
<event>
 6    0  0.1539652E-007  0.4725070E+03  0.7546771E-02  0.1021215E+00
         21   -1    0    0  502  501  0.00000000000E+00  0.00000000000E+00  0.10179204204E+03  0.10179204204E+03  0.00000000000E+00 0.  1.
         21   -1    0    0  501  502 -0.00000000000E+00 -0.00000000000E+00 -0.54833092927E+03  0.54833092927E+03  0.00000000000E+00 0.  1.
      99926    2    1    2    0    0 -0.35527136788E-14 -0.53290705182E-14 -0.44653888723E+03  0.65012297131E+03  0.47250703700E+03 0.  0.
         25    1    3    3    0    0  0.32494365875E+02  0.64685444034E+02 -0.27794868958E+02  0.14717388805E+03  0.12509000000E+03 0.  0.
         25    1    3    3    0    0 -0.39422933047E+02 -0.68833872892E+02 -0.17835579032E+03  0.23184168251E+03  0.12509000000E+03 0.  0.
         25    1    3    3    0    0  0.69285671722E+01  0.41484288577E+01 -0.24038822796E+03  0.27110740076E+03  0.12509000000E+03 0.  0.
<mgrwt>
<rscale>  2 0.47250704E+03</rscale>
<asrwt>0</asrwt>
<pdfrwt beam="1">  1       21 0.14969418E-01 0.47250704E+03</pdfrwt>
<pdfrwt beam="2">  1       21 0.80636899E-01 0.47250704E+03</pdfrwt>
<totfact> 0.48621938E+04</totfact>
</mgrwt>
</event>
<event>
 6    0  0.1539652E-007  0.4542378E+03  0.7546771E-02  0.1026466E+00
         21   -1    0    0  502  501  0.00000000000E+00  0.00000000000E+00  0.44389993304E+03  0.44389993304E+03  0.00000000000E+00 0.  1.
         21   -1    0    0  501  502 -0.00000000000E+00 -0.00000000000E+00 -0.11620409563E+03  0.11620409563E+03  0.00000000000E+00 0.  1.
      99926    2    1    2    0    0 -0.10658141036E-13  0.17763568394E-14  0.32769583741E+03  0.56010402868E+03  0.45423778034E+03 0.  0.
         25    1    3    3    0    0 -0.74739577895E+02  0.57854383562E+02  0.34684598197E+02  0.16057292316E+03  0.12509000000E+03 0.  0.
         25    1    3    3    0    0  0.18452105421E+02 -0.12871129911E+02  0.14383033040E+03  0.19193962130E+03  0.12509000000E+03 0.  0.
         25    1    3    3    0    0  0.56287472474E+02 -0.44983253651E+02  0.14918090881E+03  0.20759148422E+03  0.12509000000E+03 0.  0.
<mgrwt>
<rscale>  2 0.45423778E+03</rscale>
<asrwt>0</asrwt>
<pdfrwt beam="1">  1       21 0.65279401E-01 0.45423778E+03</pdfrwt>
<pdfrwt beam="2">  1       21 0.17088838E-01 0.45423778E+03</pdfrwt>
<totfact> 0.61574121E+04</totfact>
</mgrwt>
</event>
<event>
 6    0  0.1539652E-007  0.4550913E+03  0.7546771E-02  0.1026215E+00
         21   -1    0    0  502  501  0.00000000000E+00  0.00000000000E+00  0.13396145608E+03  0.13396145608E+03  0.00000000000E+00 0. -1.
         21   -1    0    0  501  502 -0.00000000000E+00 -0.00000000000E+00 -0.38650686973E+03  0.38650686973E+03  0.00000000000E+00 0. -1.
      99926    2    1    2    0    0  0.00000000000E+00  0.00000000000E+00 -0.25254541365E+03  0.52046832581E+03  0.45509130096E+03 0.  0.
         25    1    3    3    0    0  0.33062389348E+02 -0.70906147825E+02 -0.16610973446E+03  0.22217280520E+03  0.12509000000E+03 0.  0.
         25    1    3    3    0    0  0.23865482351E+02  0.73082216539E+02 -0.58393455643E+02  0.15801226340E+03  0.12509000000E+03 0.  0.
         25    1    3    3    0    0 -0.56927871699E+02 -0.21760687140E+01 -0.28042223546E+02  0.14028325721E+03  0.12509000000E+03 0.  0.
<mgrwt>
<rscale>  2 0.45509130E+03</rscale>
<asrwt>0</asrwt>
<pdfrwt beam="1">  1       21 0.19700214E-01 0.45509130E+03</pdfrwt>
<pdfrwt beam="2">  1       21 0.56839245E-01 0.45509130E+03</pdfrwt>
<totfact> 0.63809134E+04</totfact>
</mgrwt>
</event>
<event>
 6    0  0.1539652E-007  0.4533659E+03  0.7546771E-02  0.1026723E+00
         21   -1    0    0  502  501  0.00000000000E+00  0.00000000000E+00  0.38689260636E+02  0.38689260636E+02  0.00000000000E+00 0.  1.
         21   -1    0    0  501  502 -0.00000000000E+00 -0.00000000000E+00 -0.13281507504E+04  0.13281507504E+04  0.00000000000E+00 0.  1.
      99926    2    1    2    0    0  0.00000000000E+00 -0.10658141036E-13 -0.12894614897E+04  0.13668400110E+04  0.45336594731E+03 0.  0.
         25    1    3    3    0    0  0.46856897488E+02  0.57277754194E+02 -0.24264715054E+03  0.28284528939E+03  0.12509000000E+03 0.  0.
         25    1    3    3    0    0 -0.12898097165E+02 -0.78379735923E+02 -0.49072699251E+03  0.51261119105E+03  0.12509000000E+03 0.  0.
         25    1    3    3    0    0 -0.33958800323E+02  0.21101981730E+02 -0.55608734670E+03  0.57138353058E+03  0.12509000000E+03 0.  0.
<mgrwt>
<rscale>  2 0.45336595E+03</rscale>
<asrwt>0</asrwt>
<pdfrwt beam="1">  1       21 0.56895970E-02 0.45336595E+03</pdfrwt>
<pdfrwt beam="2">  1       21 0.19531629E+00 0.45336595E+03</pdfrwt>
<totfact> 0.27577822E+04</totfact>
</mgrwt>
</event>
<event>
 6    0  0.1539652E-007  0.4658434E+03  0.7546771E-02  0.1023100E+00
         21   -1    0    0  502  501  0.00000000000E+00  0.00000000000E+00  0.64391136105E+02  0.64391136105E+02  0.00000000000E+00 0. -1.
         21   -1    0    0  501  502 -0.00000000000E+00 -0.00000000000E+00 -0.84254644806E+03  0.84254644806E+03  0.00000000000E+00 0. -1.
      99926    2    1    2    0    0  0.00000000000E+00 -0.14210854715E-13 -0.77815531195E+03  0.90693758416E+03  0.46584342010E+03 0.  0.
         25    1    3    3    0    0 -0.30943099630E+02 -0.36586149120E+02 -0.11727205106E+03  0.17803444550E+03  0.12509000000E+03 0.  0.
         25    1    3    3    0    0 -0.95498292226E+01  0.10086260106E+03 -0.33519155997E+03  0.37184049471E+03  0.12509000000E+03 0.  0.
         25    1    3    3    0    0  0.40492928853E+02 -0.64276451945E+02 -0.32569170092E+03  0.35706264396E+03  0.12509000000E+03 0.  0.
<mgrwt>
<rscale>  2 0.46584342E+03</rscale>
<asrwt>0</asrwt>
<pdfrwt beam="1">  1       21 0.94692847E-02 0.46584342E+03</pdfrwt>
<pdfrwt beam="2">  1       21 0.12390389E+00 0.46584342E+03</pdfrwt>
<totfact> 0.39475738E+04</totfact>
</mgrwt>
</event>
<event>
 6    0  0.1539652E-007  0.4632145E+03  0.7546771E-02  0.1023853E+00
         21   -1    0    0  502  501  0.00000000000E+00  0.00000000000E+00  0.13709182806E+03  0.13709182806E+03  0.00000000000E+00 0. -1.
         21   -1    0    0  501  502 -0.00000000000E+00 -0.00000000000E+00 -0.39128465478E+03  0.39128465478E+03  0.00000000000E+00 0. -1.
      99926    2    1    2    0    0 -0.26645352591E-14  0.35527136788E-14 -0.25419282672E+03  0.52837648284E+03  0.46321454474E+03 0.  0.
         25    1    3    3    0    0  0.26715488864E+02 -0.50295998286E+02 -0.26165740893E+02  0.13991268308E+03  0.12509000000E+03 0.  0.
         25    1    3    3    0    0  0.36473902086E+01 -0.29239866746E+02 -0.18239715102E+02  0.12980165087E+03  0.12509000000E+03 0.  0.
         25    1    3    3    0    0 -0.30362879073E+02  0.79535865032E+02 -0.20978737072E+03  0.25866214889E+03  0.12509000000E+03 0.  0.
<mgrwt>
<rscale>  2 0.46321454E+03</rscale>
<asrwt>0</asrwt>
<pdfrwt beam="1">  1       21 0.20160563E-01 0.46321454E+03</pdfrwt>
<pdfrwt beam="2">  1       21 0.57541860E-01 0.46321454E+03</pdfrwt>
<totfact> 0.59355985E+04</totfact>
</mgrwt>
</event>
<event>
 6    0  0.1539652E-007  0.4682162E+03  0.7546771E-02  0.1022425E+00
         21   -1    0    0  502  501  0.00000000000E+00  0.00000000000E+00  0.24003416865E+03  0.24003416865E+03  0.00000000000E+00 0. -1.
         21   -1    0    0  501  502 -0.00000000000E+00 -0.00000000000E+00 -0.22832834164E+03  0.22832834164E+03  0.00000000000E+00 0. -1.
      99926    2    1    2    0    0  0.35527136788E-14  0.00000000000E+00  0.11705827012E+02  0.46836251029E+03  0.46821620503E+03 0.  0.
         25    1    3    3    0    0 -0.31436876987E+02 -0.86059909411E+02  0.55524186822E+02  0.16469677794E+03  0.12509000000E+03 0.  0.
         25    1    3    3    0    0  0.31395994770E+02  0.11177634784E+03 -0.42816406021E+02  0.17595571360E+03  0.12509000000E+03 0.  0.
         25    1    3    3    0    0  0.40882217476E-01 -0.25716438425E+02 -0.10019537882E+01  0.12771001875E+03  0.12509000000E+03 0.  0.
<mgrwt>
<rscale>  2 0.46821621E+03</rscale>
<asrwt>0</asrwt>
<pdfrwt beam="1">  1       21 0.35299143E-01 0.46821621E+03</pdfrwt>
<pdfrwt beam="2">  1       21 0.33577697E-01 0.46821621E+03</pdfrwt>
<totfact> 0.60898129E+04</totfact>
</mgrwt>
</event>
<event>
 6    0  0.1539652E-007  0.4582420E+03  0.7546771E-02  0.1025292E+00
         21   -1    0    0  502  501  0.00000000000E+00  0.00000000000E+00  0.37946109184E+03  0.37946109184E+03  0.00000000000E+00 0. -1.
         21   -1    0    0  501  502 -0.00000000000E+00 -0.00000000000E+00 -0.13834471112E+03  0.13834471112E+03  0.00000000000E+00 0. -1.
      99926    2    1    2    0    0  0.00000000000E+00 -0.35527136788E-14  0.24111638072E+03  0.51780580296E+03  0.45824201087E+03 0.  0.
         25    1    3    3    0    0  0.17010220322E+02  0.42003916266E+02  0.14639758160E+03  0.19782172928E+03  0.12509000000E+03 0.  0.
         25    1    3    3    0    0  0.51780010075E+01 -0.68951771426E+02  0.12125225825E+03  0.18743205891E+03  0.12509000000E+03 0.  0.
         25    1    3    3    0    0 -0.22188221330E+02  0.26947855160E+02 -0.26533459133E+02  0.13255201476E+03  0.12509000000E+03 0.  0.
<mgrwt>
<rscale>  2 0.45824201E+03</rscale>
<asrwt>0</asrwt>
<pdfrwt beam="1">  1       21 0.55803102E-01 0.45824201E+03</pdfrwt>
<pdfrwt beam="2">  1       21 0.20344810E-01 0.45824201E+03</pdfrwt>
<totfact> 0.62415852E+04</totfact>
</mgrwt>
</event>
<event>
 6    0  0.1539652E-007  0.4531667E+03  0.7546771E-02  0.1026782E+00
         21   -1    0    0  502  501  0.00000000000E+00  0.00000000000E+00  0.86906170672E+03  0.86906170672E+03  0.00000000000E+00 0. -1.
         21   -1    0    0  501  502 -0.00000000000E+00 -0.00000000000E+00 -0.59075231522E+02  0.59075231522E+02  0.00000000000E+00 0. -1.
      99926    2    1    2    0    0  0.17763568394E-14  0.00000000000E+00  0.80998647520E+03  0.92813693824E+03  0.45316673105E+03 0.  0.
         25    1    3    3    0    0 -0.68041505701E+02  0.36984432322E+02  0.34446214276E+03  0.37456530890E+03  0.12509000000E+03 0.  0.
         25    1    3    3    0    0 -0.84524484628E+01 -0.69725939398E+02  0.28202844892E+03  0.31641855921E+03  0.12509000000E+03 0.  0.
         25    1    3    3    0    0  0.76493954164E+02  0.32741507076E+02  0.18349588351E+03  0.23715307013E+03  0.12509000000E+03 0.  0.
<mgrwt>
<rscale>  2 0.45316673E+03</rscale>
<asrwt>0</asrwt>
<pdfrwt beam="1">  1       21 0.12780318E+00 0.45316673E+03</pdfrwt>
<pdfrwt beam="2">  1       21 0.86875346E-02 0.45316673E+03</pdfrwt>
<totfact> 0.42647308E+04</totfact>
</mgrwt>
</event>
<event>
 6    0  0.1637705E-007  0.4271814E+03  0.7546771E-02  0.1034754E+00
         21   -1    0    0  502  501  0.00000000000E+00  0.00000000000E+00  0.25301692777E+03  0.25301692777E+03  0.00000000000E+00 0. -1.
         21   -1    0    0  501  502 -0.00000000000E+00 -0.00000000000E+00 -0.18030805337E+03  0.18030805337E+03  0.00000000000E+00 0. -1.
      99926    2    1    2    0    0  0.00000000000E+00 -0.35527136788E-14  0.72708874407E+02  0.43332498114E+03  0.42718141212E+03 0.  0.
         25    1    3    3    0    0  0.39190111482E+02 -0.19719799252E+02  0.86473446953E+02  0.15827160342E+03  0.12509000000E+03 0.  0.
         25    1    3    3    0    0 -0.47094961333E+02  0.51585725720E+02  0.97660815621E+01  0.14360329707E+03  0.12509000000E+03 0.  0.
         25    1    3    3    0    0  0.79048498510E+01 -0.31865926468E+02 -0.23530654108E+02  0.13145008065E+03  0.12509000000E+03 0.  0.
<mgrwt>
<rscale>  2 0.42718141E+03</rscale>
<asrwt>0</asrwt>
<pdfrwt beam="1">  1       21 0.37208372E-01 0.42718141E+03</pdfrwt>
<pdfrwt beam="2">  1       21 0.26515890E-01 0.42718141E+03</pdfrwt>
<totfact> 0.88159865E+04</totfact>
</mgrwt>
</event>
<event>
 6    0  0.1539652E-007  0.4617809E+03  0.7546771E-02  0.1024266E+00
         21   -1    0    0  502  501  0.00000000000E+00  0.00000000000E+00  0.15321203970E+03  0.15321203970E+03  0.00000000000E+00 0. -1.
         21   -1    0    0  501  502 -0.00000000000E+00 -0.00000000000E+00 -0.34795169387E+03  0.34795169387E+03  0.00000000000E+00 0. -1.
      99926    2    1    2    0    0  0.00000000000E+00 -0.53290705182E-14 -0.19473965417E+03  0.50116373357E+03  0.46178085164E+03 0.  0.
         25    1    3    3    0    0 -0.33397518902E+02  0.46024043946E+01 -0.44507620519E+01  0.12962983367E+03  0.12509000000E+03 0.  0.
         25    1    3    3    0    0  0.62902865249E+02 -0.74704475271E+02 -0.44254557641E+02  0.16475285446E+03  0.12509000000E+03 0.  0.
         25    1    3    3    0    0 -0.29505346347E+02  0.70102070877E+02 -0.14603433448E+03  0.20678104543E+03  0.12509000000E+03 0.  0.
<mgrwt>
<rscale>  2 0.46178085E+03</rscale>
<asrwt>0</asrwt>
<pdfrwt beam="1">  1       21 0.22531183E-01 0.46178085E+03</pdfrwt>
<pdfrwt beam="2">  1       21 0.51169366E-01 0.46178085E+03</pdfrwt>
<totfact> 0.61795049E+04</totfact>
</mgrwt>
</event>
<event>
 6    0  0.1539652E-007  0.4499056E+03  0.7546771E-02  0.1027750E+00
         21   -1    0    0  502  501  0.00000000000E+00  0.00000000000E+00  0.78641934642E+03  0.78641934642E+03  0.00000000000E+00 0. -1.
         21   -1    0    0  501  502 -0.00000000000E+00 -0.00000000000E+00 -0.64347034953E+02  0.64347034953E+02  0.00000000000E+00 0. -1.
      99926    2    1    2    0    0  0.00000000000E+00  0.35527136788E-14  0.72207231147E+03  0.85076638138E+03  0.44990555974E+03 0.  0.
         25    1    3    3    0    0  0.22032863527E+02  0.19149639779E+02  0.29270284685E+03  0.31964765044E+03  0.12509000000E+03 0.  0.
         25    1    3    3    0    0 -0.27579860910E+02 -0.64928864477E+02  0.34409317543E+03  0.37285925984E+03  0.12509000000E+03 0.  0.
         25    1    3    3    0    0  0.55469973828E+01  0.45779224698E+02  0.85276289193E+02  0.15825947110E+03  0.12509000000E+03 0.  0.
<mgrwt>
<rscale>  2 0.44990556E+03</rscale>
<asrwt>0</asrwt>
<pdfrwt beam="1">  1       21 0.11564990E+00 0.44990556E+03</pdfrwt>
<pdfrwt beam="2">  1       21 0.94627997E-02 0.44990556E+03</pdfrwt>
<totfact> 0.47265861E+04</totfact>
</mgrwt>
</event>
<event>
 6    0  0.1539652E-007  0.4315508E+03  0.7546771E-02  0.1033371E+00
         21   -1    0    0  502  501  0.00000000000E+00  0.00000000000E+00  0.18046272679E+03  0.18046272679E+03  0.00000000000E+00 0. -1.
         21   -1    0    0  501  502 -0.00000000000E+00 -0.00000000000E+00 -0.25799799403E+03  0.25799799403E+03  0.00000000000E+00 0. -1.
      99926    2    1    2    0    0  0.00000000000E+00  0.00000000000E+00 -0.77535267242E+02  0.43846072081E+03  0.43155079195E+03 0.  0.
         25    1    3    3    0    0 -0.76883777929E+02  0.24320128566E+01  0.20291336382E+02  0.14824397602E+03  0.12509000000E+03 0.  0.
         25    1    3    3    0    0  0.76988722896E+01  0.15186418064E+02 -0.67016906222E+02  0.14292891152E+03  0.12509000000E+03 0.  0.
         25    1    3    3    0    0  0.69184905639E+02 -0.17618430920E+02 -0.30809697401E+02  0.14728783327E+03  0.12509000000E+03 0.  0.
<mgrwt>
<rscale>  2 0.43155079E+03</rscale>
<asrwt>0</asrwt>
<pdfrwt beam="1">  1       21 0.26538637E-01 0.43155079E+03</pdfrwt>
<pdfrwt beam="2">  1       21 0.37940881E-01 0.43155079E+03</pdfrwt>
<totfact> 0.84507071E+04</totfact>
</mgrwt>
</event>
<event>
 6    0  0.1539652E-007  0.4612032E+03  0.7546771E-02  0.1024433E+00
         21   -1    0    0  502  501  0.00000000000E+00  0.00000000000E+00  0.22470176491E+03  0.22470176491E+03  0.00000000000E+00 0. -1.
         21   -1    0    0  501  502 -0.00000000000E+00 -0.00000000000E+00 -0.23665633527E+03  0.23665633527E+03  0.00000000000E+00 0. -1.
      99926    2    1    2    0    0  0.00000000000E+00  0.00000000000E+00 -0.11954570364E+02  0.46135810018E+03  0.46120319258E+03 0.  0.
         25    1    3    3    0    0 -0.46374696999E+02  0.31396014676E+02  0.64929583010E+02  0.15165645753E+03  0.12509000000E+03 0.  0.
         25    1    3    3    0    0  0.21257312017E+02 -0.78356966627E+02 -0.88231050785E+02  0.17327410065E+03  0.12509000000E+03 0.  0.
         25    1    3    3    0    0  0.25117384982E+02  0.46960951950E+02  0.11346897411E+02  0.13642754200E+03  0.12509000000E+03 0.  0.
<mgrwt>
<rscale>  2 0.46120319E+03</rscale>
<asrwt>0</asrwt>
<pdfrwt beam="1">  1       21 0.33044377E-01 0.46120319E+03</pdfrwt>
<pdfrwt beam="2">  1       21 0.34802402E-01 0.46120319E+03</pdfrwt>
<totfact> 0.64814612E+04</totfact>
</mgrwt>
</event>
<event>
 6    0  0.2476012E-007  0.4867279E+03  0.7546771E-02  0.1017302E+00
         21   -1    0    0  502  501  0.00000000000E+00  0.00000000000E+00  0.27507243232E+03  0.27507243232E+03  0.00000000000E+00 0. -1.
         21   -1    0    0  501  502 -0.00000000000E+00 -0.00000000000E+00 -0.21531056326E+03  0.21531056326E+03  0.00000000000E+00 0. -1.
      99926    2    1    2    0    0  0.00000000000E+00  0.00000000000E+00  0.59761869060E+02  0.49038299558E+03  0.48672785143E+03 0.  0.
         25    1    3    3    0    0  0.24322719191E+02 -0.29100339950E+02  0.12107510417E+03  0.17817158417E+03  0.12509000000E+03 0.  0.
         25    1    3    3    0    0 -0.45146580580E+02  0.88499102647E+02 -0.10115098127E+01  0.15974616164E+03  0.12509000000E+03 0.  0.
         25    1    3    3    0    0  0.20823861389E+02 -0.59398762697E+02 -0.60301725299E+02  0.15246524977E+03  0.12509000000E+03 0.  0.
<mgrwt>
<rscale>  2 0.48672785E+03</rscale>
<asrwt>0</asrwt>
<pdfrwt beam="1">  1       21 0.40451828E-01 0.48672785E+03</pdfrwt>
<pdfrwt beam="2">  1       21 0.31663318E-01 0.48672785E+03</pdfrwt>
<totfact> 0.51656164E+04</totfact>
</mgrwt>
</event>
<event>
 6    0  0.1539652E-007  0.4612887E+03  0.7546771E-02  0.1024408E+00
         21   -1    0    0  502  501  0.00000000000E+00  0.00000000000E+00  0.32495256357E+02  0.32495256357E+02  0.00000000000E+00 0. -1.
         21   -1    0    0  501  502 -0.00000000000E+00 -0.00000000000E+00 -0.16370643624E+04  0.16370643624E+04  0.00000000000E+00 0. -1.
      99926    2    1    2    0    0  0.00000000000E+00 -0.17763568394E-14 -0.16045691061E+04  0.16695596188E+04  0.46128874311E+03 0.  0.
         25    1    3    3    0    0 -0.19320655266E+02 -0.82064328401E-01 -0.18139398401E+03  0.22118901417E+03  0.12509000000E+03 0.  0.
         25    1    3    3    0    0  0.40999002429E+02 -0.97034862121E+01 -0.91572745109E+03  0.92519151997E+03  0.12509000000E+03 0.  0.
         25    1    3    3    0    0 -0.21678347163E+02  0.97855505405E+01 -0.50744767097E+03  0.52317908465E+03  0.12509000000E+03 0.  0.
<mgrwt>
<rscale>  2 0.46128874E+03</rscale>
<asrwt>0</asrwt>
<pdfrwt beam="1">  1       21 0.47787131E-02 0.46128874E+03</pdfrwt>
<pdfrwt beam="2">  1       21 0.24074481E+00 0.46128874E+03</pdfrwt>
<totfact> 0.18959830E+04</totfact>
</mgrwt>
</event>
<event>
 6    0  0.1539652E-007  0.4488431E+03  0.7546771E-02  0.1028068E+00
         21   -1    0    0  502  501  0.00000000000E+00  0.00000000000E+00  0.16824483398E+04  0.16824483398E+04  0.00000000000E+00 0. -1.
         21   -1    0    0  501  502 -0.00000000000E+00 -0.00000000000E+00 -0.29935558710E+02  0.29935558710E+02  0.00000000000E+00 0. -1.
      99926    2    1    2    0    0  0.35527136788E-14  0.00000000000E+00  0.16525127811E+04  0.17123838985E+04  0.44884309531E+03 0.  0.
         25    1    3    3    0    0 -0.77513714612E+02 -0.12823191151E+01  0.41159979614E+03  0.43711774223E+03  0.12509000000E+03 0.  0.
         25    1    3    3    0    0 -0.12753211572E+02 -0.42098319727E+02  0.50592020901E+03  0.52300829718E+03  0.12509000000E+03 0.  0.
         25    1    3    3    0    0  0.90266926184E+02  0.43380638842E+02  0.73499277592E+03  0.75225785908E+03  0.12509000000E+03 0.  0.
<mgrwt>
<rscale>  2 0.44884310E+03</rscale>
<asrwt>0</asrwt>
<pdfrwt beam="1">  1       21 0.24741881E+00 0.44884310E+03</pdfrwt>
<pdfrwt beam="2">  1       21 0.44022892E-02 0.44884310E+03</pdfrwt>
<totfact> 0.19941609E+04</totfact>
</mgrwt>
</event>
<event>
 6    0  0.1539652E-007  0.4446239E+03  0.7546771E-02  0.1029337E+00
         21   -1    0    0  502  501  0.00000000000E+00  0.00000000000E+00  0.50737592122E+03  0.50737592122E+03  0.00000000000E+00 0. -1.
         21   -1    0    0  501  502 -0.00000000000E+00 -0.00000000000E+00 -0.97408268246E+02  0.97408268246E+02  0.00000000000E+00 0. -1.
      99926    2    1    2    0    0  0.35527136788E-14  0.17763568394E-14  0.40996765298E+03  0.60478418947E+03  0.44462393024E+03 0.  0.
         25    1    3    3    0    0  0.28285896844E+02 -0.33545611740E+01  0.20464662142E+03  0.24153486870E+03  0.12509000000E+03 0.  0.
         25    1    3    3    0    0 -0.42872503854E+02  0.51824848524E+02  0.17420756972E+03  0.22476577132E+03  0.12509000000E+03 0.  0.
         25    1    3    3    0    0  0.14586607010E+02 -0.48470287350E+02  0.31113461846E+02  0.13848354945E+03  0.12509000000E+03 0.  0.
<mgrwt>
<rscale>  2 0.44462393E+03</rscale>
<asrwt>0</asrwt>
<pdfrwt beam="1">  1       21 0.74614105E-01 0.44462393E+03</pdfrwt>
<pdfrwt beam="2">  1       21 0.14324746E-01 0.44462393E+03</pdfrwt>
<totfact> 0.63425960E+04</totfact>
</mgrwt>
</event>
<event>
 6    0  0.1539652E-007  0.4617925E+03  0.7546771E-02  0.1024263E+00
         21   -1    0    0  502  501  0.00000000000E+00  0.00000000000E+00  0.34606265550E+02  0.34606265550E+02  0.00000000000E+00 0.  1.
         21   -1    0    0  501  502 -0.00000000000E+00 -0.00000000000E+00 -0.15405614648E+04  0.15405614648E+04  0.00000000000E+00 0.  1.
      99926    2    1    2    0    0  0.00000000000E+00  0.00000000000E+00 -0.15059551992E+04  0.15751677303E+04  0.46179250382E+03 0.  0.
         25    1    3    3    0    0  0.43825438721E+01  0.15834861226E+02 -0.10208457380E+04  0.10286124044E+04  0.12509000000E+03 0.  0.
         25    1    3    3    0    0 -0.11768430270E+02 -0.12453155152E+02 -0.25332536833E+03  0.28304562771E+03  0.12509000000E+03 0.  0.
         25    1    3    3    0    0  0.73858863976E+01 -0.33817060741E+01 -0.23178409288E+03  0.26350969824E+03  0.12509000000E+03 0.  0.
<mgrwt>
<rscale>  2 0.46179250E+03</rscale>
<asrwt>0</asrwt>
<pdfrwt beam="1">  1       21 0.50891587E-02 0.46179250E+03</pdfrwt>
<pdfrwt beam="2">  1       21 0.22655307E+00 0.46179250E+03</pdfrwt>
<totfact> 0.20872630E+04</totfact>
</mgrwt>
</event>
<event>
 6    0  0.1539652E-007  0.4656405E+03  0.7546771E-02  0.1023158E+00
         21   -1    0    0  502  501  0.00000000000E+00  0.00000000000E+00  0.11286081313E+03  0.11286081313E+03  0.00000000000E+00 0.  1.
         21   -1    0    0  501  502 -0.00000000000E+00 -0.00000000000E+00 -0.48028431078E+03  0.48028431078E+03  0.00000000000E+00 0.  1.
      99926    2    1    2    0    0 -0.17763568394E-14  0.35527136788E-14 -0.36742349765E+03  0.59314512391E+03  0.46564053882E+03 0.  0.
         25    1    3    3    0    0  0.98037204328E+01 -0.10157569483E+02 -0.82528784257E+02  0.15052507261E+03  0.12509000000E+03 0.  0.
         25    1    3    3    0    0 -0.61872838276E+02  0.63071635915E+02 -0.40828589531E+02  0.15849530339E+03  0.12509000000E+03 0.  0.
         25    1    3    3    0    0  0.52069117843E+02 -0.52914066432E+02 -0.24406612386E+03  0.28412474791E+03  0.12509000000E+03 0.  0.
<mgrwt>
<rscale>  2 0.46564054E+03</rscale>
<asrwt>0</asrwt>
<pdfrwt beam="1">  1       21 0.16597178E-01 0.46564054E+03</pdfrwt>
<pdfrwt beam="2">  1       21 0.70630046E-01 0.46564054E+03</pdfrwt>
<totfact> 0.54382604E+04</totfact>
</mgrwt>
</event>
<event>
 6    0  0.1539652E-007  0.4576405E+03  0.7546771E-02  0.1025468E+00
         21   -1    0    0  502  501  0.00000000000E+00  0.00000000000E+00  0.18954014282E+03  0.18954014282E+03  0.00000000000E+00 0.  1.
         21   -1    0    0  501  502 -0.00000000000E+00 -0.00000000000E+00 -0.27624074237E+03  0.27624074237E+03  0.00000000000E+00 0.  1.
      99926    2    1    2    0    0 -0.44408920985E-14  0.00000000000E+00 -0.86700599544E+02  0.46578088519E+03  0.45764051290E+03 0.  0.
         25    1    3    3    0    0 -0.34677423006E+01 -0.45141232703E+02  0.14418563123E+02  0.13381016101E+03  0.12509000000E+03 0.  0.
         25    1    3    3    0    0 -0.66349946664E+02 -0.26575408742E+02 -0.29872756708E+01  0.14410065818E+03  0.12509000000E+03 0.  0.
         25    1    3    3    0    0  0.69817688965E+02  0.71716641445E+02 -0.98131886997E+02  0.18787006600E+03  0.12509000000E+03 0.  0.
<mgrwt>
<rscale>  2 0.45764051E+03</rscale>
<asrwt>0</asrwt>
<pdfrwt beam="1">  1       21 0.27873551E-01 0.45764051E+03</pdfrwt>
<pdfrwt beam="2">  1       21 0.40623638E-01 0.45764051E+03</pdfrwt>
<totfact> 0.66348604E+04</totfact>
</mgrwt>
</event>
<event>
 6    0  0.1539652E-007  0.4515508E+03  0.7546771E-02  0.1027261E+00
         21   -1    0    0  502  501  0.00000000000E+00  0.00000000000E+00  0.63111390378E+02  0.63111390378E+02  0.00000000000E+00 0.  1.
         21   -1    0    0  501  502 -0.00000000000E+00 -0.00000000000E+00 -0.80769149402E+03  0.80769149402E+03  0.00000000000E+00 0.  1.
      99926    2    1    2    0    0  0.35527136788E-14  0.14210854715E-13 -0.74458010364E+03  0.87080288440E+03  0.45155080859E+03 0.  0.
         25    1    3    3    0    0 -0.52170859567E+02  0.17211652031E+02 -0.17185518593E+03  0.21954442053E+03  0.12509000000E+03 0.  0.
         25    1    3    3    0    0  0.21635508154E+02  0.77176649515E+02 -0.24097911879E+03  0.28309499155E+03  0.12509000000E+03 0.  0.
         25    1    3    3    0    0  0.30535351413E+02 -0.94388301547E+02 -0.33174579892E+03  0.36816347232E+03  0.12509000000E+03 0.  0.
<mgrwt>
<rscale>  2 0.45155081E+03</rscale>
<asrwt>0</asrwt>
<pdfrwt beam="1">  1       21 0.92810869E-02 0.45155081E+03</pdfrwt>
<pdfrwt beam="2">  1       21 0.11877816E+00 0.45155081E+03</pdfrwt>
<totfact> 0.45743596E+04</totfact>
</mgrwt>
</event>
<event>
 6    0  0.1539652E-007  0.4427733E+03  0.7546771E-02  0.1029899E+00
         21   -1    0    0  502  501  0.00000000000E+00  0.00000000000E+00  0.15004162917E+03  0.15004162917E+03  0.00000000000E+00 0. -1.
         21   -1    0    0  501  502 -0.00000000000E+00 -0.00000000000E+00 -0.32665634695E+03  0.32665634695E+03  0.00000000000E+00 0. -1.
      99926    2    1    2    0    0  0.17763568394E-14  0.00000000000E+00 -0.17661471778E+03  0.47669797612E+03  0.44277330758E+03 0.  0.
         25    1    3    3    0    0 -0.23041359925E+02 -0.65621981669E+02 -0.80498393287E+02  0.16420915982E+03  0.12509000000E+03 0.  0.
         25    1    3    3    0    0  0.12768187619E+02  0.97192100452E+02 -0.90634546822E+02  0.18295207073E+03  0.12509000000E+03 0.  0.
         25    1    3    3    0    0  0.10273172306E+02 -0.31570118783E+02 -0.54817776737E+01  0.12953674558E+03  0.12509000000E+03 0.  0.
<mgrwt>
<rscale>  2 0.44277331E+03</rscale>
<asrwt>0</asrwt>
<pdfrwt beam="1">  1       21 0.22064946E-01 0.44277331E+03</pdfrwt>
<pdfrwt beam="2">  1       21 0.48037697E-01 0.44277331E+03</pdfrwt>
<totfact> 0.73853075E+04</totfact>
</mgrwt>
</event>
<event>
 6    0  0.1539652E-007  0.4554902E+03  0.7546771E-02  0.1026097E+00
         21   -1    0    0  502  501  0.00000000000E+00  0.00000000000E+00  0.22841788671E+03  0.22841788671E+03  0.00000000000E+00 0. -1.
         21   -1    0    0  501  502 -0.00000000000E+00 -0.00000000000E+00 -0.22707425806E+03  0.22707425806E+03  0.00000000000E+00 0. -1.
      99926    2    1    2    0    0  0.00000000000E+00 -0.88817841970E-15  0.13436286492E+01  0.45549214477E+03  0.45549016303E+03 0.  0.
         25    1    3    3    0    0  0.58766963842E+02 -0.80931843643E+01 -0.51777656082E+02  0.14780896266E+03  0.12509000000E+03 0.  0.
         25    1    3    3    0    0  0.44479636721E+02  0.70993133714E+00  0.58839883974E+02  0.14521908322E+03  0.12509000000E+03 0.  0.
         25    1    3    3    0    0 -0.10324660056E+03  0.73832530272E+01 -0.57185992427E+01  0.16246409890E+03  0.12509000000E+03 0.  0.
<mgrwt>
<rscale>  2 0.45549016E+03</rscale>
<asrwt>0</asrwt>
<pdfrwt beam="1">  1       21 0.33590866E-01 0.45549016E+03</pdfrwt>
<pdfrwt beam="2">  1       21 0.33393273E-01 0.45549016E+03</pdfrwt>
<totfact> 0.68242464E+04</totfact>
</mgrwt>
</event>
<event>
 6    0  0.1539652E-007  0.4637233E+03  0.7546771E-02  0.1023707E+00
         21   -1    0    0  502  501  0.00000000000E+00  0.00000000000E+00  0.99252372697E+02  0.99252372697E+02  0.00000000000E+00 0.  1.
         21   -1    0    0  501  502 -0.00000000000E+00 -0.00000000000E+00 -0.54164778744E+03  0.54164778744E+03  0.00000000000E+00 0.  1.
      99926    2    1    2    0    0  0.00000000000E+00 -0.35527136788E-14 -0.44239541475E+03  0.64090016014E+03  0.46372331436E+03 0.  0.
         25    1    3    3    0    0  0.14925220313E+02  0.48961596795E+02 -0.40097563985E+02  0.14097986700E+03  0.12509000000E+03 0.  0.
         25    1    3    3    0    0 -0.13019582696E+02 -0.21501501304E+02 -0.73942000193E+02  0.14746779847E+03  0.12509000000E+03 0.  0.
         25    1    3    3    0    0 -0.19056376173E+01 -0.27460095492E+02 -0.32835585057E+03  0.35245249467E+03  0.12509000000E+03 0.  0.
<mgrwt>
<rscale>  2 0.46372331E+03</rscale>
<asrwt>0</asrwt>
<pdfrwt beam="1">  1       21 0.14595938E-01 0.46372331E+03</pdfrwt>
<pdfrwt beam="2">  1       21 0.79654084E-01 0.46372331E+03</pdfrwt>
<totfact> 0.52518773E+04</totfact>
</mgrwt>
</event>
<event>
 6    0  0.1539652E-007  0.4684384E+03  0.7546771E-02  0.1022362E+00
         21   -1    0    0  502  501  0.00000000000E+00  0.00000000000E+00  0.11653539368E+03  0.11653539368E+03  0.00000000000E+00 0. -1.
         21   -1    0    0  501  502 -0.00000000000E+00 -0.00000000000E+00 -0.47074651351E+03  0.47074651351E+03  0.00000000000E+00 0. -1.
      99926    2    1    2    0    0 -0.35527136788E-14  0.00000000000E+00 -0.35421111983E+03  0.58728190719E+03  0.46843838559E+03 0.  0.
         25    1    3    3    0    0  0.48310831213E+02  0.32898026571E+02 -0.20202600954E+03  0.24470029260E+03  0.12509000000E+03 0.  0.
         25    1    3    3    0    0 -0.59939186654E+02  0.37557825915E+01  0.39992757219E+01  0.13881755763E+03  0.12509000000E+03 0.  0.
         25    1    3    3    0    0  0.11628355441E+02 -0.36653809163E+02 -0.15618438601E+03  0.20376405696E+03  0.12509000000E+03 0.  0.
<mgrwt>
<rscale>  2 0.46843839E+03</rscale>
<asrwt>0</asrwt>
<pdfrwt beam="1">  1       21 0.17137558E-01 0.46843839E+03</pdfrwt>
<pdfrwt beam="2">  1       21 0.69227429E-01 0.46843839E+03</pdfrwt>
<totfact> 0.53549030E+04</totfact>
</mgrwt>
</event>
<event>
 6    0  0.1539652E-007  0.4533927E+03  0.7546771E-02  0.1026715E+00
         21   -1    0    0  502  501  0.00000000000E+00  0.00000000000E+00  0.14342215327E+04  0.14342215327E+04  0.00000000000E+00 0.  1.
         21   -1    0    0  501  502 -0.00000000000E+00 -0.00000000000E+00 -0.35832138135E+02  0.35832138135E+02  0.00000000000E+00 0.  1.
      99926    2    1    2    0    0  0.00000000000E+00  0.00000000000E+00  0.13983893946E+04  0.14700536709E+04  0.45339265136E+03 0.  0.
         25    1    3    3    0    0 -0.27372422273E+02 -0.51086282222E+02  0.33669205697E+03  0.36382428046E+03  0.12509000000E+03 0.  0.
         25    1    3    3    0    0  0.84437347714E+02 -0.22466807864E+02  0.59085768416E+03  0.61024153757E+03  0.12509000000E+03 0.  0.
         25    1    3    3    0    0 -0.57064925442E+02  0.73553090085E+02  0.47083965348E+03  0.49598785284E+03  0.12509000000E+03 0.  0.
<mgrwt>
<rscale>  2 0.45339265E+03</rscale>
<asrwt>0</asrwt>
<pdfrwt beam="1">  1       21 0.21091489E+00 0.45339265E+03</pdfrwt>
<pdfrwt beam="2">  1       21 0.52694330E-02 0.45339265E+03</pdfrwt>
<totfact> 0.24831285E+04</totfact>
</mgrwt>
</event>
<event>
 6    0  0.1539652E-007  0.4549884E+03  0.7546771E-02  0.1026245E+00
         21   -1    0    0  502  501  0.00000000000E+00  0.00000000000E+00  0.10234624525E+03  0.10234624525E+03  0.00000000000E+00 0. -1.
         21   -1    0    0  501  502 -0.00000000000E+00 -0.00000000000E+00 -0.50567178894E+03  0.50567178894E+03  0.00000000000E+00 0. -1.
      99926    2    1    2    0    0  0.00000000000E+00 -0.35527136788E-14 -0.40332554369E+03  0.60801803419E+03  0.45498839074E+03 0.  0.
         25    1    3    3    0    0  0.73835302336E+02  0.39387700365E+02 -0.15075274423E+03  0.21301863957E+03  0.12509000000E+03 0.  0.
         25    1    3    3    0    0 -0.78900450905E+02  0.17001380639E+02 -0.64750414596E+02  0.16234054450E+03  0.12509000000E+03 0.  0.
         25    1    3    3    0    0  0.50651485683E+01 -0.56389081004E+02 -0.18782238486E+03  0.23265885012E+03  0.12509000000E+03 0.  0.
<mgrwt>
<rscale>  2 0.45498839E+03</rscale>
<asrwt>0</asrwt>
<pdfrwt beam="1">  1       21 0.15050918E-01 0.45498839E+03</pdfrwt>
<pdfrwt beam="2">  1       21 0.74363498E-01 0.45498839E+03</pdfrwt>
<totfact> 0.58192770E+04</totfact>
</mgrwt>
</event>
<event>
 6    0  0.1539652E-007  0.4540923E+03  0.7546771E-02  0.1026509E+00
         21   -1    0    0  502  501  0.00000000000E+00  0.00000000000E+00  0.17320395581E+03  0.17320395581E+03  0.00000000000E+00 0.  1.
         21   -1    0    0  501  502 -0.00000000000E+00 -0.00000000000E+00 -0.29762570409E+03  0.29762570409E+03  0.00000000000E+00 0.  1.
      99926    2    1    2    0    0  0.71054273576E-14 -0.71054273576E-14 -0.12442174828E+03  0.47082965990E+03  0.45409227829E+03 0.  0.
         25    1    3    3    0    0 -0.29337073986E+02 -0.34010867908E+02  0.18386134090E+02  0.13417511346E+03  0.12509000000E+03 0.  0.
         25    1    3    3    0    0  0.75844380271E+02 -0.15621388475E+02 -0.12520522350E+03  0.19318450737E+03  0.12509000000E+03 0.  0.
         25    1    3    3    0    0 -0.46507306284E+02  0.49632256382E+02 -0.17602658870E+02  0.14347003907E+03  0.12509000000E+03 0.  0.
<mgrwt>
<rscale>  2 0.45409228E+03</rscale>
<asrwt>0</asrwt>
<pdfrwt beam="1">  1       21 0.25471170E-01 0.45409228E+03</pdfrwt>
<pdfrwt beam="2">  1       21 0.43768485E-01 0.45409228E+03</pdfrwt>
<totfact> 0.67861452E+04</totfact>
</mgrwt>
</event>
<event>
 6    0  0.1539652E-007  0.4542058E+03  0.7546771E-02  0.1026475E+00
         21   -1    0    0  502  501  0.00000000000E+00  0.00000000000E+00  0.33807997041E+04  0.33807997041E+04  0.00000000000E+00 0. -1.
         21   -1    0    0  501  502 -0.00000000000E+00 -0.00000000000E+00 -0.15255483377E+02  0.15255483377E+02  0.00000000000E+00 0. -1.
      99926    2    1    2    0    0  0.00000000000E+00 -0.71054273576E-14  0.33655442207E+04  0.33960551875E+04  0.45420582862E+03 0.  0.
         25    1    3    3    0    0 -0.31928094218E+02 -0.56018610601E+02  0.73278104769E+03  0.74617227225E+03  0.12509000000E+03 0.  0.
         25    1    3    3    0    0 -0.17720576645E+02  0.90172895894E+02  0.11095362219E+04  0.11203407097E+04  0.12509000000E+03 0.  0.
         25    1    3    3    0    0  0.49648670863E+02 -0.34154285293E+02  0.15232269511E+04  0.15295422055E+04  0.12509000000E+03 0.  0.
<mgrwt>
<rscale>  2 0.45420583E+03</rscale>
<asrwt>0</asrwt>
<pdfrwt beam="1">  1       21 0.49717591E+00 0.45420583E+03</pdfrwt>
<pdfrwt beam="2">  1       21 0.22434558E-02 0.45420583E+03</pdfrwt>
<totfact> 0.15880220E+03</totfact>
</mgrwt>
</event>
<event>
 6    0  0.1539652E-007  0.4500771E+03  0.7546771E-02  0.1027699E+00
         21   -1    0    0  502  501  0.00000000000E+00  0.00000000000E+00  0.12148346571E+04  0.12148346571E+04  0.00000000000E+00 0. -1.
         21   -1    0    0  501  502 -0.00000000000E+00 -0.00000000000E+00 -0.41686609649E+02  0.41686609649E+02  0.00000000000E+00 0. -1.
      99926    2    1    2    0    0  0.00000000000E+00 -0.71054273576E-14  0.11731480475E+04  0.12565212668E+04  0.45007705180E+03 0.  0.
         25    1    3    3    0    0 -0.90945026995E+00  0.55164800188E+02  0.53605979800E+03  0.55321930318E+03  0.12509000000E+03 0.  0.
         25    1    3    3    0    0  0.58564759962E+02  0.21237219149E+02  0.32295751049E+03  0.35189474601E+03  0.12509000000E+03 0.  0.
         25    1    3    3    0    0 -0.57655309692E+02 -0.76402019337E+02  0.31413073898E+03  0.35140721758E+03  0.12509000000E+03 0.  0.
<mgrwt>
<rscale>  2 0.45007705E+03</rscale>
<asrwt>0</asrwt>
<pdfrwt beam="1">  1       21 0.17865213E+00 0.45007705E+03</pdfrwt>
<pdfrwt beam="2">  1       21 0.61303846E-02 0.45007705E+03</pdfrwt>
<totfact> 0.31597528E+04</totfact>
</mgrwt>
</event>
<event>
 6    0  0.1539652E-007  0.4516107E+03  0.7546771E-02  0.1027243E+00
         21   -1    0    0  502  501  0.00000000000E+00  0.00000000000E+00  0.73231283603E+03  0.73231283603E+03  0.00000000000E+00 0.  1.
         21   -1    0    0  501  502 -0.00000000000E+00 -0.00000000000E+00 -0.69626046989E+02  0.69626046989E+02  0.00000000000E+00 0.  1.
      99926    2    1    2    0    0 -0.35527136788E-14  0.53290705182E-14  0.66268678904E+03  0.80193888302E+03  0.45161066388E+03 0.  0.
         25    1    3    3    0    0 -0.27980151671E+02  0.65173565755E+02  0.21186596177E+03  0.25605697885E+03  0.12509000000E+03 0.  0.
         25    1    3    3    0    0 -0.23720728094E+02 -0.67070469031E+01  0.89891578788E+02  0.15599891492E+03  0.12509000000E+03 0.  0.
         25    1    3    3    0    0  0.51700879765E+02 -0.58466518852E+02  0.36092924848E+03  0.38988298925E+03  0.12509000000E+03 0.  0.
<mgrwt>
<rscale>  2 0.45161066E+03</rscale>
<asrwt>0</asrwt>
<pdfrwt beam="1">  1       21 0.10769306E+00 0.45161066E+03</pdfrwt>
<pdfrwt beam="2">  1       21 0.10239125E-01 0.45161066E+03</pdfrwt>
<totfact> 0.48960515E+04</totfact>
</mgrwt>
</event>
<event>
 6    0  0.1539652E-007  0.4540742E+03  0.7546771E-02  0.1026514E+00
         21   -1    0    0  502  501  0.00000000000E+00  0.00000000000E+00  0.63167030066E+02  0.63167030066E+02  0.00000000000E+00 0.  1.
         21   -1    0    0  501  502 -0.00000000000E+00 -0.00000000000E+00 -0.81602434319E+03  0.81602434319E+03  0.00000000000E+00 0.  1.
      99926    2    1    2    0    0  0.00000000000E+00 -0.71054273576E-14 -0.75285731313E+03  0.87919137326E+03  0.45407415351E+03 0.  0.
         25    1    3    3    0    0 -0.78129871167E+02  0.30714885941E+02 -0.18480643900E+03  0.23842946333E+03  0.12509000000E+03 0.  0.
         25    1    3    3    0    0 -0.56574076170E+01  0.32538242203E+02 -0.20122567367E+03  0.23922797352E+03  0.12509000000E+03 0.  0.
         25    1    3    3    0    0  0.83787278784E+02 -0.63253128143E+02 -0.36682520045E+03  0.40153393642E+03  0.12509000000E+03 0.  0.
<mgrwt>
<rscale>  2 0.45407415E+03</rscale>
<asrwt>0</asrwt>
<pdfrwt beam="1">  1       21 0.92892701E-02 0.45407415E+03</pdfrwt>
<pdfrwt beam="2">  1       21 0.12000357E+00 0.45407415E+03</pdfrwt>
<totfact> 0.44467211E+04</totfact>
</mgrwt>
</event>
<event>
 6    0  0.1539652E-007  0.4488286E+03  0.7546771E-02  0.1028072E+00
         21   -1    0    0  502  501  0.00000000000E+00  0.00000000000E+00  0.69118012256E+03  0.69118012256E+03  0.00000000000E+00 0.  1.
         21   -1    0    0  501  502 -0.00000000000E+00 -0.00000000000E+00 -0.72863475528E+02  0.72863475528E+02  0.00000000000E+00 0.  1.
      99926    2    1    2    0    0 -0.71054273576E-14  0.00000000000E+00  0.61831664703E+03  0.76404359808E+03  0.44882863521E+03 0.  0.
         25    1    3    3    0    0 -0.86150477611E+02  0.91758293841E+01  0.21661506907E+03  0.26471814612E+03  0.12509000000E+03 0.  0.
         25    1    3    3    0    0  0.46045234377E+02 -0.55930743606E+02  0.13219832132E+03  0.19588852940E+03  0.12509000000E+03 0.  0.
         25    1    3    3    0    0  0.40105243235E+02  0.46754914222E+02  0.26950325663E+03  0.30343692256E+03  0.12509000000E+03 0.  0.
<mgrwt>
<rscale>  2 0.44882864E+03</rscale>
<asrwt>0</asrwt>
<pdfrwt beam="1">  1       21 0.10164413E+00 0.44882864E+03</pdfrwt>
<pdfrwt beam="2">  1       21 0.10715217E-01 0.44882864E+03</pdfrwt>
<totfact> 0.52028289E+04</totfact>
</mgrwt>
</event>
<event>
 6    0  0.1539652E-007  0.4592620E+03  0.7546771E-02  0.1024995E+00
         21   -1    0    0  502  501  0.00000000000E+00  0.00000000000E+00  0.51704328130E+03  0.51704328130E+03  0.00000000000E+00 0. -1.
         21   -1    0    0  501  502 -0.00000000000E+00 -0.00000000000E+00 -0.10198447343E+03  0.10198447343E+03  0.00000000000E+00 0. -1.
      99926    2    1    2    0    0  0.00000000000E+00  0.00000000000E+00  0.41505880786E+03  0.61902775473E+03  0.45926195917E+03 0.  0.
         25    1    3    3    0    0  0.59325021384E+02 -0.15849948046E+02  0.97576448951E+02  0.17011569741E+03  0.12509000000E+03 0.  0.
         25    1    3    3    0    0  0.23894656707E+02  0.47733967348E+02  0.59017768220E+02  0.14825684242E+03  0.12509000000E+03 0.  0.
         25    1    3    3    0    0 -0.83219678090E+02 -0.31884019302E+02  0.25846459069E+03  0.30065521490E+03  0.12509000000E+03 0.  0.
<mgrwt>
<rscale>  2 0.45926196E+03</rscale>
<asrwt>0</asrwt>
<pdfrwt beam="1">  1       21 0.76035775E-01 0.45926196E+03</pdfrwt>
<pdfrwt beam="2">  1       21 0.14997717E-01 0.45926196E+03</pdfrwt>
<totfact> 0.55626126E+04</totfact>
</mgrwt>
</event>
<event>
 6    0  0.1539652E-007  0.4622404E+03  0.7546771E-02  0.1024133E+00
         21   -1    0    0  502  501  0.00000000000E+00  0.00000000000E+00  0.28535198979E+03  0.28535198979E+03  0.00000000000E+00 0. -1.
         21   -1    0    0  501  502 -0.00000000000E+00 -0.00000000000E+00 -0.18719529779E+03  0.18719529779E+03  0.00000000000E+00 0. -1.
      99926    2    1    2    0    0 -0.71054273576E-14 -0.17763568394E-14  0.98156692005E+02  0.47254728758E+03  0.46224041668E+03 0.  0.
         25    1    3    3    0    0  0.22514570092E+02  0.14827051251E+02  0.55618629296E+02  0.13952665459E+03  0.12509000000E+03 0.  0.
         25    1    3    3    0    0 -0.38023812851E+02  0.77713961771E+02 -0.38509351031E+02  0.15689406749E+03  0.12509000000E+03 0.  0.
         25    1    3    3    0    0  0.15509242759E+02 -0.92541013022E+02  0.81047413740E+02  0.17612656550E+03  0.12509000000E+03 0.  0.
<mgrwt>
<rscale>  2 0.46224042E+03</rscale>
<asrwt>0</asrwt>
<pdfrwt beam="1">  1       21 0.41963528E-01 0.46224042E+03</pdfrwt>
<pdfrwt beam="2">  1       21 0.27528720E-01 0.46224042E+03</pdfrwt>
<totfact> 0.63518470E+04</totfact>
</mgrwt>
</event>
<event>
 6    0  0.1539652E-007  0.4493523E+03  0.7546771E-02  0.1027915E+00
         21   -1    0    0  502  501  0.00000000000E+00  0.00000000000E+00  0.19833899950E+03  0.19833899950E+03  0.00000000000E+00 0.  1.
         21   -1    0    0  501  502 -0.00000000000E+00 -0.00000000000E+00 -0.25451054602E+03  0.25451054602E+03  0.00000000000E+00 0.  1.
      99926    2    1    2    0    0  0.35527136788E-14  0.00000000000E+00 -0.56171546522E+02  0.45284954552E+03  0.44935227633E+03 0.  0.
         25    1    3    3    0    0 -0.94036910936E+02 -0.44128003277E+02 -0.28145089233E+01  0.16262118820E+03  0.12509000000E+03 0.  0.
         25    1    3    3    0    0  0.22161325842E+02  0.56466297203E+02 -0.40819705326E+02  0.14489072961E+03  0.12509000000E+03 0.  0.
         25    1    3    3    0    0  0.71875585094E+02 -0.12338293926E+02 -0.12537332273E+02  0.14533762772E+03  0.12509000000E+03 0.  0.
<mgrwt>
<rscale>  2 0.44935228E+03</rscale>
<asrwt>0</asrwt>
<pdfrwt beam="1">  1       21 0.29167500E-01 0.44935228E+03</pdfrwt>
<pdfrwt beam="2">  1       21 0.37428021E-01 0.44935228E+03</pdfrwt>
<totfact> 0.71888515E+04</totfact>
</mgrwt>
</event>
<event>
 6    0  0.1539652E-007  0.4627769E+03  0.7546771E-02  0.1023979E+00
         21   -1    0    0  502  501  0.00000000000E+00  0.00000000000E+00  0.19068298967E+03  0.19068298967E+03  0.00000000000E+00 0. -1.
         21   -1    0    0  501  502 -0.00000000000E+00 -0.00000000000E+00 -0.28078337359E+03  0.28078337359E+03  0.00000000000E+00 0. -1.
      99926    2    1    2    0    0  0.00000000000E+00  0.00000000000E+00 -0.90100383923E+02  0.47146636327E+03  0.46277689280E+03 0.  0.
         25    1    3    3    0    0  0.18958622032E+02  0.82780496944E+02  0.48267938679E+02  0.15871150566E+03  0.12509000000E+03 0.  0.
         25    1    3    3    0    0 -0.23615977846E+02 -0.86990011700E+02 -0.89745359969E+02  0.17840043240E+03  0.12509000000E+03 0.  0.
         25    1    3    3    0    0  0.46573558143E+01  0.42095147553E+01 -0.48622962633E+02  0.13435442521E+03  0.12509000000E+03 0.  0.
<mgrwt>
<rscale>  2 0.46277689E+03</rscale>
<asrwt>0</asrwt>
<pdfrwt beam="1">  1       21 0.28041616E-01 0.46277689E+03</pdfrwt>
<pdfrwt beam="2">  1       21 0.41291672E-01 0.46277689E+03</pdfrwt>
<totfact> 0.63326539E+04</totfact>
</mgrwt>
</event>
<event>
 6    0  0.1539652E-007  0.4574515E+03  0.7546771E-02  0.1025523E+00
         21   -1    0    0  502  501  0.00000000000E+00  0.00000000000E+00  0.24998119332E+03  0.24998119332E+03  0.00000000000E+00 0.  1.
         21   -1    0    0  501  502 -0.00000000000E+00 -0.00000000000E+00 -0.20927764506E+03  0.20927764506E+03  0.00000000000E+00 0.  1.
      99926    2    1    2    0    0  0.00000000000E+00  0.00000000000E+00  0.40703548259E+02  0.45925883839E+03  0.45745152945E+03 0.  0.
         25    1    3    3    0    0  0.99345570021E+01  0.40169517254E+02  0.80337120672E-01  0.13175659412E+03  0.12509000000E+03 0.  0.
         25    1    3    3    0    0 -0.96376185401E+01 -0.48862039630E+02 -0.77400874729E+02  0.15530224118E+03  0.12509000000E+03 0.  0.
         25    1    3    3    0    0 -0.29693846197E+00  0.86925223763E+01  0.11802408587E+03  0.17220000309E+03  0.12509000000E+03 0.  0.
<mgrwt>
<rscale>  2 0.45745153E+03</rscale>
<asrwt>0</asrwt>
<pdfrwt beam="1">  1       21 0.36761940E-01 0.45745153E+03</pdfrwt>
<pdfrwt beam="2">  1       21 0.30776124E-01 0.45745153E+03</pdfrwt>
<totfact> 0.66916446E+04</totfact>
</mgrwt>
</event>
<event>
 6    0  0.1539652E-007  0.4548142E+03  0.7546771E-02  0.1026296E+00
         21   -1    0    0  502  501  0.00000000000E+00  0.00000000000E+00  0.36668247857E+03  0.36668247857E+03  0.00000000000E+00 0.  1.
         21   -1    0    0  501  502 -0.00000000000E+00 -0.00000000000E+00 -0.14103204915E+03  0.14103204915E+03  0.00000000000E+00 0.  1.
      99926    2    1    2    0    0 -0.14210854715E-13 -0.71054273576E-14  0.22565042941E+03  0.50771452772E+03  0.45481416575E+03 0.  0.
         25    1    3    3    0    0 -0.10645111082E+03 -0.88166745609E+01  0.40708466565E+02  0.16945282557E+03  0.12509000000E+03 0.  0.
         25    1    3    3    0    0  0.30033220474E+02 -0.27241780963E+02  0.73667955135E+02  0.15072685453E+03  0.12509000000E+03 0.  0.
         25    1    3    3    0    0  0.76417890343E+02  0.36058455524E+02  0.11127400771E+03  0.18753484762E+03  0.12509000000E+03 0.  0.
<mgrwt>
<rscale>  2 0.45481417E+03</rscale>
<asrwt>0</asrwt>
<pdfrwt beam="1">  1       21 0.53923894E-01 0.45481417E+03</pdfrwt>
<pdfrwt beam="2">  1       21 0.20740007E-01 0.45481417E+03</pdfrwt>
<totfact> 0.64827583E+04</totfact>
</mgrwt>
</event>
<event>
 6    0  0.1539652E-007  0.4517274E+03  0.7546771E-02  0.1027208E+00
         21   -1    0    0  502  501  0.00000000000E+00  0.00000000000E+00  0.46754116025E+03  0.46754116025E+03  0.00000000000E+00 0. -1.
         21   -1    0    0  501  502 -0.00000000000E+00 -0.00000000000E+00 -0.10911211995E+03  0.10911211995E+03  0.00000000000E+00 0. -1.
      99926    2    1    2    0    0  0.26645352591E-14  0.00000000000E+00  0.35842904030E+03  0.57665328020E+03  0.45172738309E+03 0.  0.
         25    1    3    3    0    0 -0.17757201958E+01  0.29189639618E+02  0.10249120383E+03  0.16433850190E+03  0.12509000000E+03 0.  0.
         25    1    3    3    0    0 -0.99270897368E+02 -0.29806628364E+02  0.12733135264E+03  0.20640718889E+03  0.12509000000E+03 0.  0.
         25    1    3    3    0    0  0.10104661756E+03  0.61698874539E+00  0.12860648382E+03  0.20590758941E+03  0.12509000000E+03 0.  0.
<mgrwt>
<rscale>  2 0.45172738E+03</rscale>
<asrwt>0</asrwt>
<pdfrwt beam="1">  1       21 0.68756052E-01 0.45172738E+03</pdfrwt>
<pdfrwt beam="2">  1       21 0.16045900E-01 0.45172738E+03</pdfrwt>
<totfact> 0.61720379E+04</totfact>
</mgrwt>
</event>
<event>
 6    0  0.1539652E-007  0.4475780E+03  0.7546771E-02  0.1028447E+00
         21   -1    0    0  502  501  0.00000000000E+00  0.00000000000E+00  0.98531469446E+03  0.98531469446E+03  0.00000000000E+00 0. -1.
         21   -1    0    0  501  502 -0.00000000000E+00 -0.00000000000E+00 -0.50827938045E+02  0.50827938045E+02  0.00000000000E+00 0. -1.
      99926    2    1    2    0    0  0.00000000000E+00 -0.71054273576E-14  0.93448675642E+03  0.10361426325E+04  0.44757798983E+03 0.  0.
         25    1    3    3    0    0 -0.24999179744E+01  0.19073950505E+01  0.50140547942E+03  0.51678317566E+03  0.12509000000E+03 0.  0.
         25    1    3    3    0    0 -0.26527568760E+01 -0.59941371289E+02  0.28484955454E+03  0.31683873175E+03  0.12509000000E+03 0.  0.
         25    1    3    3    0    0  0.51526748504E+01  0.58033976239E+02  0.14823172245E+03  0.20252072511E+03  0.12509000000E+03 0.  0.
<mgrwt>
<rscale>  2 0.44757799E+03</rscale>
<asrwt>0</asrwt>
<pdfrwt beam="1">  1       21 0.14489921E+00 0.44757799E+03</pdfrwt>
<pdfrwt beam="2">  1       21 0.74746974E-02 0.44757799E+03</pdfrwt>
<totfact> 0.40061265E+04</totfact>
</mgrwt>
</event>
<event>
 6    0  0.1539652E-007  0.4540815E+03  0.7546771E-02  0.1026512E+00
         21   -1    0    0  502  501  0.00000000000E+00  0.00000000000E+00  0.49611071524E+03  0.49611071524E+03  0.00000000000E+00 0. -1.
         21   -1    0    0  501  502 -0.00000000000E+00 -0.00000000000E+00 -0.10390321111E+03  0.10390321111E+03  0.00000000000E+00 0. -1.
      99926    2    1    2    0    0  0.00000000000E+00  0.00000000000E+00  0.39220750413E+03  0.60001392634E+03  0.45408147453E+03 0.  0.
         25    1    3    3    0    0 -0.67361315803E+02 -0.19556301918E+02  0.10581453223E+03  0.17822519222E+03  0.12509000000E+03 0.  0.
         25    1    3    3    0    0 -0.17672844657E+02  0.35834640920E+02  0.21910526169E+03  0.25544289915E+03  0.12509000000E+03 0.  0.
         25    1    3    3    0    0  0.85034160460E+02 -0.16278339002E+02  0.67287710212E+02  0.16634583497E+03  0.12509000000E+03 0.  0.
<mgrwt>
<rscale>  2 0.45408147E+03</rscale>
<asrwt>0</asrwt>
<pdfrwt beam="1">  1       21 0.72957457E-01 0.45408147E+03</pdfrwt>
<pdfrwt beam="2">  1       21 0.15279884E-01 0.45408147E+03</pdfrwt>
<totfact> 0.59105198E+04</totfact>
</mgrwt>
</event>
<event>
 6    0  0.1539652E-007  0.4359652E+03  0.7546771E-02  0.1031992E+00
         21   -1    0    0  502  501  0.00000000000E+00  0.00000000000E+00  0.44007656988E+02  0.44007656988E+02  0.00000000000E+00 0. -1.
         21   -1    0    0  501  502 -0.00000000000E+00 -0.00000000000E+00 -0.10797303926E+04  0.10797303926E+04  0.00000000000E+00 0. -1.
      99926    2    1    2    0    0 -0.71054273576E-14  0.00000000000E+00 -0.10357227356E+04  0.11237380496E+04  0.43596515805E+03 0.  0.
         25    1    3    3    0    0  0.57070726796E+02  0.36195377900E+02 -0.28988510669E+03  0.32287467603E+03  0.12509000000E+03 0.  0.
         25    1    3    3    0    0  0.26943433117E+02 -0.54030632239E+02 -0.39125203024E+03  0.41517576648E+03  0.12509000000E+03 0.  0.
         25    1    3    3    0    0 -0.84014159913E+02  0.17835254339E+02 -0.35458559871E+03  0.38568760711E+03  0.12509000000E+03 0.  0.
<mgrwt>
<rscale>  2 0.43596516E+03</rscale>
<asrwt>0</asrwt>
<pdfrwt beam="1">  1       21 0.64717148E-02 0.43596516E+03</pdfrwt>
<pdfrwt beam="2">  1       21 0.15878387E+00 0.43596516E+03</pdfrwt>
<totfact> 0.40332177E+04</totfact>
</mgrwt>
</event>
<event>
 6    0  0.1539652E-007  0.4523258E+03  0.7546771E-02  0.1027031E+00
         21   -1    0    0  502  501  0.00000000000E+00  0.00000000000E+00  0.71323144307E+03  0.71323144307E+03  0.00000000000E+00 0. -1.
         21   -1    0    0  501  502 -0.00000000000E+00 -0.00000000000E+00 -0.71715371373E+02  0.71715371373E+02  0.00000000000E+00 0. -1.
      99926    2    1    2    0    0  0.00000000000E+00 -0.35527136788E-14  0.64151607170E+03  0.78494681445E+03  0.45232580212E+03 0.  0.
         25    1    3    3    0    0  0.35755166612E+02 -0.25585889078E+02  0.36328465974E+03  0.38672512429E+03  0.12509000000E+03 0.  0.
         25    1    3    3    0    0 -0.76291739932E+02 -0.27011017650E+01  0.11230995809E+03  0.18463141748E+03  0.12509000000E+03 0.  0.
         25    1    3    3    0    0  0.40536573320E+02  0.28286990843E+02  0.16592145387E+03  0.21359027267E+03  0.12509000000E+03 0.  0.
<mgrwt>
<rscale>  2 0.45232580E+03</rscale>
<asrwt>0</asrwt>
<pdfrwt beam="1">  1       21 0.10488697E+00 0.45232580E+03</pdfrwt>
<pdfrwt beam="2">  1       21 0.10546379E-01 0.45232580E+03</pdfrwt>
<totfact> 0.49533080E+04</totfact>
</mgrwt>
</event>
<event>
 6    0  0.1539652E-007  0.4581329E+03  0.7546771E-02  0.1025324E+00
         21   -1    0    0  502  501  0.00000000000E+00  0.00000000000E+00  0.82883650544E+03  0.82883650544E+03  0.00000000000E+00 0.  1.
         21   -1    0    0  501  502 -0.00000000000E+00 -0.00000000000E+00 -0.63307333430E+02  0.63307333430E+02  0.00000000000E+00 0.  1.
      99926    2    1    2    0    0  0.00000000000E+00  0.00000000000E+00  0.76552917201E+03  0.89214383887E+03  0.45813285850E+03 0.  0.
         25    1    3    3    0    0  0.67654299263E+02  0.38449676875E+02  0.21969869642E+03  0.26451938902E+03  0.12509000000E+03 0.  0.
         25    1    3    3    0    0  0.28024318090E+02 -0.69980276168E+02  0.30479616172E+03  0.33798048724E+03  0.12509000000E+03 0.  0.
         25    1    3    3    0    0 -0.95678617353E+02  0.31530599293E+02  0.24103431387E+03  0.28964396260E+03  0.12509000000E+03 0.  0.
<mgrwt>
<rscale>  2 0.45813286E+03</rscale>
<asrwt>0</asrwt>
<pdfrwt beam="1">  1       21 0.12188771E+00 0.45813286E+03</pdfrwt>
<pdfrwt beam="2">  1       21 0.93099025E-02 0.45813286E+03</pdfrwt>
<totfact> 0.42522327E+04</totfact>
</mgrwt>
</event>
<event>
 6    0  0.1539652E-007  0.4657506E+03  0.7546771E-02  0.1023126E+00
         21   -1    0    0  502  501  0.00000000000E+00  0.00000000000E+00  0.72008413751E+02  0.72008413751E+02  0.00000000000E+00 0.  1.
         21   -1    0    0  501  502 -0.00000000000E+00 -0.00000000000E+00 -0.75311902658E+03  0.75311902658E+03  0.00000000000E+00 0.  1.
      99926    2    1    2    0    0  0.00000000000E+00  0.00000000000E+00 -0.68111061283E+03  0.82512744033E+03  0.46575060481E+03 0.  0.
         25    1    3    3    0    0  0.48281771271E+02  0.21830758967E+02 -0.15811564529E+03  0.20846049232E+03  0.12509000000E+03 0.  0.
         25    1    3    3    0    0  0.35632327106E+02  0.71341418743E+02 -0.26561488510E+03  0.30423352223E+03  0.12509000000E+03 0.  0.
         25    1    3    3    0    0 -0.83914098377E+02 -0.93172177710E+02 -0.25738008245E+03  0.31243342578E+03  0.12509000000E+03 0.  0.
<mgrwt>
<rscale>  2 0.46575060E+03</rscale>
<asrwt>0</asrwt>
<pdfrwt beam="1">  1       21 0.10589472E-01 0.46575060E+03</pdfrwt>
<pdfrwt beam="2">  1       21 0.11075280E+00 0.46575060E+03</pdfrwt>
<totfact> 0.42843361E+04</totfact>
</mgrwt>
</event>
<event>
 6    0  0.1539652E-007  0.4548345E+03  0.7546771E-02  0.1026290E+00
         21   -1    0    0  502  501  0.00000000000E+00  0.00000000000E+00  0.28960229706E+03  0.28960229706E+03  0.00000000000E+00 0.  1.
         21   -1    0    0  501  502 -0.00000000000E+00 -0.00000000000E+00 -0.17858489896E+03  0.17858489896E+03  0.00000000000E+00 0.  1.
      99926    2    1    2    0    0  0.00000000000E+00 -0.53290705182E-14  0.11101739809E+03  0.46818719602E+03  0.45483446202E+03 0.  0.
         25    1    3    3    0    0 -0.98334419687E+02 -0.23827272370E+02  0.60840225630E+02  0.17200708752E+03  0.12509000000E+03 0.  0.
         25    1    3    3    0    0 -0.55379282863E+01 -0.83715598413E+01  0.11817894487E+02  0.12604730221E+03  0.12509000000E+03 0.  0.
         25    1    3    3    0    0  0.10387234797E+03  0.32198832211E+02  0.38359277976E+02  0.17013280629E+03  0.12509000000E+03 0.  0.
<mgrwt>
<rscale>  2 0.45483446E+03</rscale>
<asrwt>0</asrwt>
<pdfrwt beam="1">  1       21 0.42588573E-01 0.45483446E+03</pdfrwt>
<pdfrwt beam="2">  1       21 0.26262485E-01 0.45483446E+03</pdfrwt>
<totfact> 0.67659671E+04</totfact>
</mgrwt>
</event>
<event>
 6    0  0.1539652E-007  0.4419930E+03  0.7546771E-02  0.1030137E+00
         21   -1    0    0  502  501  0.00000000000E+00  0.00000000000E+00  0.11782317544E+03  0.11782317544E+03  0.00000000000E+00 0.  1.
         21   -1    0    0  501  502 -0.00000000000E+00 -0.00000000000E+00 -0.41451490025E+03  0.41451490025E+03  0.00000000000E+00 0.  1.
      99926    2    1    2    0    0  0.00000000000E+00  0.00000000000E+00 -0.29669172481E+03  0.53233807570E+03  0.44199303984E+03 0.  0.
         25    1    3    3    0    0  0.15254089625E+02 -0.58905860509E+02 -0.16315254135E+03  0.21440346896E+03  0.12509000000E+03 0.  0.
         25    1    3    3    0    0  0.50741903108E+02  0.55051793389E+01 -0.43291912484E+02  0.14186876160E+03  0.12509000000E+03 0.  0.
         25    1    3    3    0    0 -0.65995992733E+02  0.53400681170E+02 -0.90247270982E+02  0.17606584514E+03  0.12509000000E+03 0.  0.
<mgrwt>
<rscale>  2 0.44199304E+03</rscale>
<asrwt>0</asrwt>
<pdfrwt beam="1">  1       21 0.17326938E-01 0.44199304E+03</pdfrwt>
<pdfrwt beam="2">  1       21 0.60958074E-01 0.44199304E+03</pdfrwt>
<totfact> 0.69980177E+04</totfact>
</mgrwt>
</event>
<event>
 6    0  0.1539652E-007  0.4563589E+03  0.7546771E-02  0.1025843E+00
         21   -1    0    0  502  501  0.00000000000E+00  0.00000000000E+00  0.45314357160E+02  0.45314357160E+02  0.00000000000E+00 0.  1.
         21   -1    0    0  501  502 -0.00000000000E+00 -0.00000000000E+00 -0.11489928104E+04  0.11489928104E+04  0.00000000000E+00 0.  1.
      99926    2    1    2    0    0  0.00000000000E+00  0.18735013541E-14 -0.11036784532E+04  0.11943071676E+04  0.45635894024E+03 0.  0.
         25    1    3    3    0    0  0.61799526559E+02  0.69958737292E-01 -0.57042792301E+03  0.58724331399E+03  0.12509000000E+03 0.  0.
         25    1    3    3    0    0  0.10632362882E+01  0.43291614826E+02 -0.33747436945E+03  0.36250758961E+03  0.12509000000E+03 0.  0.
         25    1    3    3    0    0 -0.62862762847E+02 -0.43361573563E+02 -0.19577616079E+03  0.24455626397E+03  0.12509000000E+03 0.  0.
<mgrwt>
<rscale>  2 0.45635894E+03</rscale>
<asrwt>0</asrwt>
<pdfrwt beam="1">  1       21 0.66638779E-02 0.45635894E+03</pdfrwt>
<pdfrwt beam="2">  1       21 0.16896948E+00 0.45635894E+03</pdfrwt>
<totfact> 0.31996821E+04</totfact>
</mgrwt>
</event>
<event>
 6    0  0.1539652E-007  0.4534722E+03  0.7546771E-02  0.1026692E+00
         21   -1    0    0  502  501  0.00000000000E+00  0.00000000000E+00  0.75015111283E+02  0.75015111283E+02  0.00000000000E+00 0. -1.
         21   -1    0    0  501  502 -0.00000000000E+00 -0.00000000000E+00 -0.68531885233E+03  0.68531885233E+03  0.00000000000E+00 0. -1.
      99926    2    1    2    0    0  0.00000000000E+00  0.00000000000E+00 -0.61030374104E+03  0.76033396361E+03  0.45347224820E+03 0.  0.
         25    1    3    3    0    0  0.44107889936E+02  0.19510546531E+02 -0.24805419786E+03  0.28196553080E+03  0.12509000000E+03 0.  0.
         25    1    3    3    0    0 -0.65363201556E+02  0.57571888685E+02 -0.11894312746E+03  0.19334385471E+03  0.12509000000E+03 0.  0.
         25    1    3    3    0    0  0.21255311621E+02 -0.77082435216E+02 -0.24330641572E+03  0.28502457810E+03  0.12509000000E+03 0.  0.
<mgrwt>
<rscale>  2 0.45347225E+03</rscale>
<asrwt>0</asrwt>
<pdfrwt beam="1">  1       21 0.11031634E-01 0.45347225E+03</pdfrwt>
<pdfrwt beam="2">  1       21 0.10078218E+00 0.45347225E+03</pdfrwt>
<totfact> 0.50343973E+04</totfact>
</mgrwt>
</event>
<event>
 6    0  0.1539652E-007  0.4652987E+03  0.7546771E-02  0.1023256E+00
         21   -1    0    0  502  501  0.00000000000E+00  0.00000000000E+00  0.35524390126E+02  0.35524390126E+02  0.00000000000E+00 0.  1.
         21   -1    0    0  501  502 -0.00000000000E+00 -0.00000000000E+00 -0.15236215793E+04  0.15236215793E+04  0.00000000000E+00 0.  1.
      99926    2    1    2    0    0 -0.35527136788E-14  0.00000000000E+00 -0.14880971892E+04  0.15591459694E+04  0.46529873152E+03 0.  0.
         25    1    3    3    0    0 -0.26068138169E+02  0.49365749300E+02 -0.51735700965E+03  0.53518436876E+03  0.12509000000E+03 0.  0.
         25    1    3    3    0    0  0.70119258498E+02  0.40713111491E+02 -0.62991163822E+03  0.64731016362E+03  0.12509000000E+03 0.  0.
         25    1    3    3    0    0 -0.44051120329E+02 -0.90078860791E+02 -0.34082854132E+03  0.37665143706E+03  0.12509000000E+03 0.  0.
<mgrwt>
<rscale>  2 0.46529873E+03</rscale>
<asrwt>0</asrwt>
<pdfrwt beam="1">  1       21 0.52241761E-02 0.46529873E+03</pdfrwt>
<pdfrwt beam="2">  1       21 0.22406195E+00 0.46529873E+03</pdfrwt>
<totfact> 0.20663363E+04</totfact>
</mgrwt>
</event>
<event>
 6    0  0.1539652E-007  0.4504990E+03  0.7546771E-02  0.1027573E+00
         21   -1    0    0  502  501  0.00000000000E+00  0.00000000000E+00  0.14224618711E+03  0.14224618711E+03  0.00000000000E+00 0. -1.
         21   -1    0    0  501  502 -0.00000000000E+00 -0.00000000000E+00 -0.35668682079E+03  0.35668682079E+03  0.00000000000E+00 0. -1.
      99926    2    1    2    0    0  0.00000000000E+00 -0.71054273576E-14 -0.21444063369E+03  0.49893300790E+03  0.45049901331E+03 0.  0.
         25    1    3    3    0    0  0.16503492305E+02  0.50606476730E+02 -0.17295947738E+03  0.21999061266E+03  0.12509000000E+03 0.  0.
         25    1    3    3    0    0  0.39272586253E+01  0.19127172725E+02  0.58284210630E+01  0.12673890756E+03  0.12509000000E+03 0.  0.
         25    1    3    3    0    0 -0.20430750930E+02 -0.69733649456E+02 -0.47309577371E+02  0.15220348768E+03  0.12509000000E+03 0.  0.
<mgrwt>
<rscale>  2 0.45049901E+03</rscale>
<asrwt>0</asrwt>
<pdfrwt beam="1">  1       21 0.20918557E-01 0.45049901E+03</pdfrwt>
<pdfrwt beam="2">  1       21 0.52453944E-01 0.45049901E+03</pdfrwt>
<totfact> 0.67733520E+04</totfact>
</mgrwt>
</event>
<event>
 6    0  0.1539652E-007  0.4619170E+03  0.7546771E-02  0.1024227E+00
         21   -1    0    0  502  501  0.00000000000E+00  0.00000000000E+00  0.47692055595E+02  0.47692055595E+02  0.00000000000E+00 0.  1.
         21   -1    0    0  501  502 -0.00000000000E+00 -0.00000000000E+00 -0.11184634157E+04  0.11184634157E+04  0.00000000000E+00 0.  1.
      99926    2    1    2    0    0  0.00000000000E+00  0.00000000000E+00 -0.10707713601E+04  0.11661554713E+04  0.46191695964E+03 0.  0.
         25    1    3    3    0    0 -0.82937903612E+02 -0.46492728150E+01 -0.21422500985E+03  0.26161073093E+03  0.12509000000E+03 0.  0.
         25    1    3    3    0    0  0.10507878243E+03  0.78049656417E+01 -0.49443778884E+03  0.52078661958E+03  0.12509000000E+03 0.  0.
         25    1    3    3    0    0 -0.22140878821E+02 -0.31556928268E+01 -0.36210856138E+03  0.38375812074E+03  0.12509000000E+03 0.  0.
<mgrwt>
<rscale>  2 0.46191696E+03</rscale>
<asrwt>0</asrwt>
<pdfrwt beam="1">  1       21 0.70135379E-02 0.46191696E+03</pdfrwt>
<pdfrwt beam="2">  1       21 0.16447991E+00 0.46191696E+03</pdfrwt>
<totfact> 0.31514323E+04</totfact>
</mgrwt>
</event>
<event>
 6    0  0.1539652E-007  0.4664802E+03  0.7546771E-02  0.1022918E+00
         21   -1    0    0  502  501  0.00000000000E+00  0.00000000000E+00  0.41446100450E+02  0.41446100450E+02  0.00000000000E+00 0. -1.
         21   -1    0    0  501  502 -0.00000000000E+00 -0.00000000000E+00 -0.13125708636E+04  0.13125708636E+04  0.00000000000E+00 0. -1.
      99926    2    1    2    0    0 -0.44408920985E-14  0.00000000000E+00 -0.12711247632E+04  0.13540169641E+04  0.46648019834E+03 0.  0.
         25    1    3    3    0    0  0.46098271179E+02 -0.62680463902E+02 -0.45755083742E+03  0.48068094209E+03  0.12509000000E+03 0.  0.
         25    1    3    3    0    0 -0.40290565541E+02  0.82491228439E+02 -0.23906832717E+03  0.28500755358E+03  0.12509000000E+03 0.  0.
         25    1    3    3    0    0 -0.58077056379E+01 -0.19810764537E+02 -0.57450559859E+03  0.58832846841E+03  0.12509000000E+03 0.  0.
<mgrwt>
<rscale>  2 0.46648020E+03</rscale>
<asrwt>0</asrwt>
<pdfrwt beam="1">  1       21 0.60950143E-02 0.46648020E+03</pdfrwt>
<pdfrwt beam="2">  1       21 0.19302514E+00 0.46648020E+03</pdfrwt>
<totfact> 0.25253675E+04</totfact>
</mgrwt>
</event>
<event>
 6    0  0.1539652E-007  0.4523703E+03  0.7546771E-02  0.1027018E+00
         21   -1    0    0  502  501  0.00000000000E+00  0.00000000000E+00  0.13535947955E+03  0.13535947955E+03  0.00000000000E+00 0. -1.
         21   -1    0    0  501  502 -0.00000000000E+00 -0.00000000000E+00 -0.37795449363E+03  0.37795449363E+03  0.00000000000E+00 0. -1.
      99926    2    1    2    0    0  0.00000000000E+00 -0.71054273576E-14 -0.24259501409E+03  0.51331397318E+03  0.45237030650E+03 0.  0.
         25    1    3    3    0    0  0.27148802636E+02  0.72325581511E+02 -0.15957849336E+02  0.14788579472E+03  0.12509000000E+03 0.  0.
         25    1    3    3    0    0  0.38007643499E+02 -0.39374918312E+02 -0.14499433101E+03  0.19916282103E+03  0.12509000000E+03 0.  0.
         25    1    3    3    0    0 -0.65156446134E+02 -0.32950663199E+02 -0.81642833742E+02  0.16626535742E+03  0.12509000000E+03 0.  0.
<mgrwt>
<rscale>  2 0.45237031E+03</rscale>
<asrwt>0</asrwt>
<pdfrwt beam="1">  1       21 0.19905807E-01 0.45237031E+03</pdfrwt>
<pdfrwt beam="2">  1       21 0.55581541E-01 0.45237031E+03</pdfrwt>
<totfact> 0.65705483E+04</totfact>
</mgrwt>
</event>
<event>
 6    0  0.1539652E-007  0.4525318E+03  0.7546771E-02  0.1026970E+00
         21   -1    0    0  502  501  0.00000000000E+00  0.00000000000E+00  0.15647422058E+03  0.15647422058E+03  0.00000000000E+00 0. -1.
         21   -1    0    0  501  502 -0.00000000000E+00 -0.00000000000E+00 -0.32718648643E+03  0.32718648643E+03  0.00000000000E+00 0. -1.
      99926    2    1    2    0    0  0.00000000000E+00  0.26645352591E-14 -0.17071226585E+03  0.48366070701E+03  0.45253176882E+03 0.  0.
         25    1    3    3    0    0  0.10204560322E+02 -0.40024709692E+02  0.44700423331E+00  0.13173389218E+03  0.12509000000E+03 0.  0.
         25    1    3    3    0    0  0.26512320290E+01  0.33205167543E+02 -0.18439798210E+03  0.22529921457E+03  0.12509000000E+03 0.  0.
         25    1    3    3    0    0 -0.12855792351E+02  0.68195421490E+01  0.13238712008E+02  0.12662760026E+03  0.12509000000E+03 0.  0.
<mgrwt>
<rscale>  2 0.45253177E+03</rscale>
<asrwt>0</asrwt>
<pdfrwt beam="1">  1       21 0.23010915E-01 0.45253177E+03</pdfrwt>
<pdfrwt beam="2">  1       21 0.48115659E-01 0.45253177E+03</pdfrwt>
<totfact> 0.67752404E+04</totfact>
</mgrwt>
</event>
<event>
 6    0  0.1539652E-007  0.4627682E+03  0.7546771E-02  0.1023981E+00
         21   -1    0    0  502  501  0.00000000000E+00  0.00000000000E+00  0.21282011244E+03  0.21282011244E+03  0.00000000000E+00 0. -1.
         21   -1    0    0  501  502 -0.00000000000E+00 -0.00000000000E+00 -0.25156743723E+03  0.25156743723E+03  0.00000000000E+00 0. -1.
      99926    2    1    2    0    0  0.27339241981E-14  0.00000000000E+00 -0.38747324793E+02  0.46438754967E+03  0.46276823693E+03 0.  0.
         25    1    3    3    0    0  0.10309028450E+00  0.80724139534E+02  0.59031630518E+01  0.14899245875E+03  0.12509000000E+03 0.  0.
         25    1    3    3    0    0  0.64084748306E+02 -0.44014493526E+02  0.32572107187E+02  0.15083958656E+03  0.12509000000E+03 0.  0.
         25    1    3    3    0    0 -0.64187838591E+02 -0.36709646008E+02 -0.77222595032E+02  0.16455550436E+03  0.12509000000E+03 0.  0.
<mgrwt>
<rscale>  2 0.46276824E+03</rscale>
<asrwt>0</asrwt>
<pdfrwt beam="1">  1       21 0.31297075E-01 0.46276824E+03</pdfrwt>
<pdfrwt beam="2">  1       21 0.36995211E-01 0.46276824E+03</pdfrwt>
<totfact> 0.63815518E+04</totfact>
</mgrwt>
</event>
<event>
 6    0  0.1539652E-007  0.4530041E+03  0.7546771E-02  0.1026830E+00
         21   -1    0    0  502  501  0.00000000000E+00  0.00000000000E+00  0.11949931759E+03  0.11949931759E+03  0.00000000000E+00 0. -1.
         21   -1    0    0  501  502 -0.00000000000E+00 -0.00000000000E+00 -0.42931780956E+03  0.42931780956E+03  0.00000000000E+00 0. -1.
      99926    2    1    2    0    0  0.17763568394E-14  0.14210854715E-13 -0.30981849197E+03  0.54881712715E+03  0.45300412922E+03 0.  0.
         25    1    3    3    0    0 -0.33697730554E+02  0.33564338935E+02 -0.15806045068E+03  0.20710556743E+03  0.12509000000E+03 0.  0.
         25    1    3    3    0    0  0.23780248526E+02  0.31195024124E+02  0.44088490524E+01  0.13117002630E+03  0.12509000000E+03 0.  0.
         25    1    3    3    0    0  0.99174820285E+01 -0.64759363060E+02 -0.15616689035E+03  0.21054153342E+03  0.12509000000E+03 0.  0.
<mgrwt>
<rscale>  2 0.45300413E+03</rscale>
<asrwt>0</asrwt>
<pdfrwt beam="1">  1       21 0.17573429E-01 0.45300413E+03</pdfrwt>
<pdfrwt beam="2">  1       21 0.63134971E-01 0.45300413E+03</pdfrwt>
<totfact> 0.62932677E+04</totfact>
</mgrwt>
</event>
<event>
 6    0  0.1539652E-007  0.4549380E+03  0.7546771E-02  0.1026260E+00
         21   -1    0    0  502  501  0.00000000000E+00  0.00000000000E+00  0.70230978459E+03  0.70230978459E+03  0.00000000000E+00 0.  1.
         21   -1    0    0  501  502 -0.00000000000E+00 -0.00000000000E+00 -0.73674249848E+02  0.73674249848E+02  0.00000000000E+00 0.  1.
      99926    2    1    2    0    0  0.00000000000E+00 -0.53290705182E-14  0.62863553474E+03  0.77598403444E+03  0.45493800255E+03 0.  0.
         25    1    3    3    0    0  0.29597765059E+02 -0.15902452366E+02  0.20248227695E+03  0.24036533915E+03  0.12509000000E+03 0.  0.
         25    1    3    3    0    0 -0.58777812244E+02  0.93310989230E+02  0.16577720643E+03  0.23514115377E+03  0.12509000000E+03 0.  0.
         25    1    3    3    0    0  0.29180047185E+02 -0.77408536864E+02  0.26037605136E+03  0.30047754152E+03  0.12509000000E+03 0.  0.
<mgrwt>
<rscale>  2 0.45493800E+03</rscale>
<asrwt>0</asrwt>
<pdfrwt beam="1">  1       21 0.10328085E+00 0.45493800E+03</pdfrwt>
<pdfrwt beam="2">  1       21 0.10834449E-01 0.45493800E+03</pdfrwt>
<totfact> 0.48972223E+04</totfact>
</mgrwt>
</event>
<event>
 6    0  0.1539652E-007  0.4634800E+03  0.7546771E-02  0.1023777E+00
         21   -1    0    0  502  501  0.00000000000E+00  0.00000000000E+00  0.69171242060E+03  0.69171242060E+03  0.00000000000E+00 0.  1.
         21   -1    0    0  501  502 -0.00000000000E+00 -0.00000000000E+00 -0.77638361653E+02  0.77638361653E+02  0.00000000000E+00 0.  1.
      99926    2    1    2    0    0  0.00000000000E+00  0.00000000000E+00  0.61407405895E+03  0.76935078226E+03  0.46347996319E+03 0.  0.
         25    1    3    3    0    0 -0.11673255740E+03  0.18725065803E+02  0.22388075016E+03  0.28239549649E+03  0.12509000000E+03 0.  0.
         25    1    3    3    0    0  0.79875253710E+02 -0.49317797011E+02  0.23006328290E+03  0.27818864731E+03  0.12509000000E+03 0.  0.
         25    1    3    3    0    0  0.36857303687E+02  0.30592731208E+02  0.16013002590E+03  0.20876663846E+03  0.12509000000E+03 0.  0.
<mgrwt>
<rscale>  2 0.46347996E+03</rscale>
<asrwt>0</asrwt>
<pdfrwt beam="1">  1       21 0.10172241E+00 0.46347996E+03</pdfrwt>
<pdfrwt beam="2">  1       21 0.11417406E-01 0.46347996E+03</pdfrwt>
<totfact> 0.46134308E+04</totfact>
</mgrwt>
</event>
<event>
 6    0  0.1539652E-007  0.4608424E+03  0.7546771E-02  0.1024537E+00
         21   -1    0    0  502  501  0.00000000000E+00  0.00000000000E+00  0.55469803013E+03  0.55469803013E+03  0.00000000000E+00 0.  1.
         21   -1    0    0  501  502 -0.00000000000E+00 -0.00000000000E+00 -0.95716807681E+02  0.95716807681E+02  0.00000000000E+00 0.  1.
      99926    2    1    2    0    0  0.00000000000E+00  0.88817841970E-14  0.45898122245E+03  0.65041483781E+03  0.46084237944E+03 0.  0.
         25    1    3    3    0    0  0.46773170656E+02  0.59933767096E+01  0.15510396336E+03  0.20476424885E+03  0.12509000000E+03 0.  0.
         25    1    3    3    0    0 -0.48335361749E+02  0.80735490648E+02  0.82370847827E+02  0.17688129160E+03  0.12509000000E+03 0.  0.
         25    1    3    3    0    0  0.15621910932E+01 -0.86728867358E+02  0.22150641126E+03  0.26876929736E+03  0.12509000000E+03 0.  0.
<mgrwt>
<rscale>  2 0.46084238E+03</rscale>
<asrwt>0</asrwt>
<pdfrwt beam="1">  1       21 0.81573238E-01 0.46084238E+03</pdfrwt>
<pdfrwt beam="2">  1       21 0.14076001E-01 0.46084238E+03</pdfrwt>
<totfact> 0.53183544E+04</totfact>
</mgrwt>
</event>
<event>
 6    0  0.1539652E-007  0.4462345E+03  0.7546771E-02  0.1028851E+00
         21   -1    0    0  502  501  0.00000000000E+00  0.00000000000E+00  0.55631680067E+03  0.55631680067E+03  0.00000000000E+00 0. -1.
         21   -1    0    0  501  502 -0.00000000000E+00 -0.00000000000E+00 -0.89483739253E+02  0.89483739253E+02  0.00000000000E+00 0. -1.
      99926    2    1    2    0    0 -0.17763568394E-14  0.00000000000E+00  0.46683306141E+03  0.64580053992E+03  0.44623450128E+03 0.  0.
         25    1    3    3    0    0  0.15556448627E+02  0.20812075591E+02  0.19086225544E+03  0.22967597662E+03  0.12509000000E+03 0.  0.
         25    1    3    3    0    0  0.38615421463E+02  0.27828061650E+02  0.40685308079E+02  0.13988693357E+03  0.12509000000E+03 0.  0.
         25    1    3    3    0    0 -0.54171870090E+02 -0.48640137241E+02  0.23528549790E+03  0.27623762973E+03  0.12509000000E+03 0.  0.
<mgrwt>
<rscale>  2 0.44623450E+03</rscale>
<asrwt>0</asrwt>
<pdfrwt beam="1">  1       21 0.81811293E-01 0.44623450E+03</pdfrwt>
<pdfrwt beam="2">  1       21 0.13159374E-01 0.44623450E+03</pdfrwt>
<totfact> 0.59986017E+04</totfact>
</mgrwt>
</event>
<event>
 6    0  0.1539652E-007  0.4560594E+03  0.7546771E-02  0.1025930E+00
         21   -1    0    0  502  501  0.00000000000E+00  0.00000000000E+00  0.66427752681E+02  0.66427752681E+02  0.00000000000E+00 0. -1.
         21   -1    0    0  501  502 -0.00000000000E+00 -0.00000000000E+00 -0.78276836515E+03  0.78276836515E+03  0.00000000000E+00 0. -1.
      99926    2    1    2    0    0  0.00000000000E+00  0.14210854715E-13 -0.71634061247E+03  0.84919611783E+03  0.45605939686E+03 0.  0.
         25    1    3    3    0    0 -0.84086988273E+01  0.22619558094E+01 -0.17006693045E+03  0.21129621765E+03  0.12509000000E+03 0.  0.
         25    1    3    3    0    0 -0.31388442115E+02  0.71555046867E+02 -0.13509316586E+03  0.20000757634E+03  0.12509000000E+03 0.  0.
         25    1    3    3    0    0  0.39797140943E+02 -0.73817002677E+02 -0.41118051617E+03  0.43789232385E+03  0.12509000000E+03 0.  0.
<mgrwt>
<rscale>  2 0.45605940E+03</rscale>
<asrwt>0</asrwt>
<pdfrwt beam="1">  1       21 0.97687876E-02 0.45605940E+03</pdfrwt>
<pdfrwt beam="2">  1       21 0.11511299E+00 0.45605940E+03</pdfrwt>
<totfact> 0.45099388E+04</totfact>
</mgrwt>
</event>
<event>
 6    0  0.1539652E-007  0.4598423E+03  0.7546771E-02  0.1024827E+00
         21   -1    0    0  502  501  0.00000000000E+00  0.00000000000E+00  0.11171042228E+04  0.11171042228E+04  0.00000000000E+00 0.  1.
         21   -1    0    0  501  502 -0.00000000000E+00 -0.00000000000E+00 -0.47322122129E+02  0.47322122129E+02  0.00000000000E+00 0.  1.
      99926    2    1    2    0    0  0.00000000000E+00 -0.35527136788E-14  0.10697821007E+04  0.11644263450E+04  0.45984233152E+03 0.  0.
         25    1    3    3    0    0 -0.79306336399E+02  0.10686146524E+02  0.60850496783E+03  0.62636210988E+03  0.12509000000E+03 0.  0.
         25    1    3    3    0    0  0.13436699073E+02  0.22822829023E+02  0.26100181406E+03  0.29063874733E+03  0.12509000000E+03 0.  0.
         25    1    3    3    0    0  0.65869637326E+02 -0.33508975547E+02  0.20027531882E+03  0.24742548776E+03  0.12509000000E+03 0.  0.
<mgrwt>
<rscale>  2 0.45984233E+03</rscale>
<asrwt>0</asrwt>
<pdfrwt beam="1">  1       21 0.16428002E+00 0.45984233E+03</pdfrwt>
<pdfrwt beam="2">  1       21 0.69591363E-02 0.45984233E+03</pdfrwt>
<totfact> 0.32076745E+04</totfact>
</mgrwt>
</event>
<event>
 6    0  0.1539652E-007  0.4511669E+03  0.7546771E-02  0.1027375E+00
         21   -1    0    0  502  501  0.00000000000E+00  0.00000000000E+00  0.22305049947E+02  0.22305049947E+02  0.00000000000E+00 0.  1.
         21   -1    0    0  501  502 -0.00000000000E+00 -0.00000000000E+00 -0.22814520750E+04  0.22814520750E+04  0.00000000000E+00 0.  1.
      99926    2    1    2    0    0  0.10658141036E-13 -0.71054273576E-14 -0.22591470250E+04  0.23037571249E+04  0.45116694242E+03 0.  0.
         25    1    3    3    0    0 -0.16116916511E+02 -0.38622964007E+02 -0.45730684706E+03  0.47595015371E+03  0.12509000000E+03 0.  0.
         25    1    3    3    0    0  0.94140294403E+02  0.28206241689E+02 -0.96049226603E+03  0.97357633923E+03  0.12509000000E+03 0.  0.
         25    1    3    3    0    0 -0.78023377892E+02  0.10416722319E+02 -0.84134791195E+03  0.85423063200E+03  0.12509000000E+03 0.  0.
<mgrwt>
<rscale>  2 0.45116694E+03</rscale>
<asrwt>0</asrwt>
<pdfrwt beam="1">  1       21 0.32801555E-02 0.45116694E+03</pdfrwt>
<pdfrwt beam="2">  1       21 0.33550755E+00 0.45116694E+03</pdfrwt>
<totfact> 0.96380031E+03</totfact>
</mgrwt>
</event>
<event>
 6    0  0.1539652E-007  0.4511462E+03  0.7546771E-02  0.1027381E+00
         21   -1    0    0  502  501  0.00000000000E+00  0.00000000000E+00  0.22719200193E+03  0.22719200193E+03  0.00000000000E+00 0. -1.
         21   -1    0    0  501  502 -0.00000000000E+00 -0.00000000000E+00 -0.22396569277E+03  0.22396569277E+03  0.00000000000E+00 0. -1.
      99926    2    1    2    0    0  0.35527136788E-14 -0.62172489379E-14  0.32263091529E+01  0.45115769470E+03  0.45114615859E+03 0.  0.
         25    1    3    3    0    0 -0.56147070764E+02 -0.43719548064E+02 -0.78720580826E+02  0.16403758833E+03  0.12509000000E+03 0.  0.
         25    1    3    3    0    0  0.17350756638E+02 -0.62603283427E+01  0.74463392835E+02  0.14673972005E+03  0.12509000000E+03 0.  0.
         25    1    3    3    0    0  0.38796314126E+02  0.49979876407E+02  0.74834971433E+01  0.14038038633E+03  0.12509000000E+03 0.  0.
<mgrwt>
<rscale>  2 0.45114616E+03</rscale>
<asrwt>0</asrwt>
<pdfrwt beam="1">  1       21 0.33410589E-01 0.45114616E+03</pdfrwt>
<pdfrwt beam="2">  1       21 0.32936131E-01 0.45114616E+03</pdfrwt>
<totfact> 0.70986007E+04</totfact>
</mgrwt>
</event>
<event>
 6    0  0.1539652E-007  0.4578023E+03  0.7546771E-02  0.1025421E+00
         21   -1    0    0  502  501  0.00000000000E+00  0.00000000000E+00  0.34500936493E+03  0.34500936493E+03  0.00000000000E+00 0.  1.
         21   -1    0    0  501  502 -0.00000000000E+00 -0.00000000000E+00 -0.15186760188E+03  0.15186760188E+03  0.00000000000E+00 0.  1.
      99926    2    1    2    0    0 -0.17763568394E-14 -0.17763568394E-14  0.19314176305E+03  0.49687696681E+03  0.45780233673E+03 0.  0.
         25    1    3    3    0    0  0.78511209232E+02 -0.47984591733E+02  0.90486017746E+02  0.17972689984E+03  0.12509000000E+03 0.  0.
         25    1    3    3    0    0 -0.89618602832E+01 -0.10498393354E+02  0.10286170238E+03  0.16253790056E+03  0.12509000000E+03 0.  0.
         25    1    3    3    0    0 -0.69549348949E+02  0.58482985087E+02 -0.20595706878E+00  0.15461216641E+03  0.12509000000E+03 0.  0.
<mgrwt>
<rscale>  2 0.45780234E+03</rscale>
<asrwt>0</asrwt>
<pdfrwt beam="1">  1       21 0.50736671E-01 0.45780234E+03</pdfrwt>
<pdfrwt beam="2">  1       21 0.22333471E-01 0.45780234E+03</pdfrwt>
<totfact> 0.64053753E+04</totfact>
</mgrwt>
</event>
<event>
 6    0  0.1539652E-007  0.4489470E+03  0.7546771E-02  0.1028037E+00
         21   -1    0    0  502  501  0.00000000000E+00  0.00000000000E+00  0.18248379006E+03  0.18248379006E+03  0.00000000000E+00 0. -1.
         21   -1    0    0  501  502 -0.00000000000E+00 -0.00000000000E+00 -0.27612504873E+03  0.27612504873E+03  0.00000000000E+00 0. -1.
      99926    2    1    2    0    0 -0.35527136788E-14  0.00000000000E+00 -0.93641258670E+02  0.45860883878E+03  0.44894696979E+03 0.  0.
         25    1    3    3    0    0 -0.44308676439E+02 -0.95969437250E+02 -0.48533673049E+02  0.17081105706E+03  0.12509000000E+03 0.  0.
         25    1    3    3    0    0  0.99977334305E+01  0.24294228273E+02 -0.55263315017E+02  0.13925410690E+03  0.12509000000E+03 0.  0.
         25    1    3    3    0    0  0.34310943008E+02  0.71675208976E+02  0.10155729396E+02  0.14854367483E+03  0.12509000000E+03 0.  0.
<mgrwt>
<rscale>  2 0.44894697E+03</rscale>
<asrwt>0</asrwt>
<pdfrwt beam="1">  1       21 0.26835852E-01 0.44894697E+03</pdfrwt>
<pdfrwt beam="2">  1       21 0.40606625E-01 0.44894697E+03</pdfrwt>
<totfact> 0.71672911E+04</totfact>
</mgrwt>
</event>
<event>
 6    0  0.1539652E-007  0.4488898E+03  0.7546771E-02  0.1028054E+00
         21   -1    0    0  502  501  0.00000000000E+00  0.00000000000E+00  0.31347320666E+02  0.31347320666E+02  0.00000000000E+00 0.  1.
         21   -1    0    0  501  502 -0.00000000000E+00 -0.00000000000E+00 -0.16070117144E+04  0.16070117144E+04  0.00000000000E+00 0.  1.
      99926    2    1    2    0    0 -0.71054273576E-14  0.00000000000E+00 -0.15756643937E+04  0.16383590350E+04  0.44888979282E+03 0.  0.
         25    1    3    3    0    0  0.92594489939E+01 -0.24992437282E+02 -0.31338059109E+03  0.33847490644E+03  0.12509000000E+03 0.  0.
         25    1    3    3    0    0  0.49289338096E+02 -0.60956695342E+02 -0.58516531203E+03  0.60349905390E+03  0.12509000000E+03 0.  0.
         25    1    3    3    0    0 -0.58548787090E+02  0.85949132624E+02 -0.67711849058E+03  0.69638507469E+03  0.12509000000E+03 0.  0.
<mgrwt>
<rscale>  2 0.44888979E+03</rscale>
<asrwt>0</asrwt>
<pdfrwt beam="1">  1       21 0.46099008E-02 0.44888979E+03</pdfrwt>
<pdfrwt beam="2">  1       21 0.23632522E+00 0.44888979E+03</pdfrwt>
<totfact> 0.21582607E+04</totfact>
</mgrwt>
</event>
<event>
 6    0  0.1539652E-007  0.4514909E+03  0.7546771E-02  0.1027278E+00
         21   -1    0    0  502  501  0.00000000000E+00  0.00000000000E+00  0.88494950639E+02  0.88494950639E+02  0.00000000000E+00 0. -1.
         21   -1    0    0  501  502 -0.00000000000E+00 -0.00000000000E+00 -0.57586344330E+03  0.57586344330E+03  0.00000000000E+00 0. -1.
      99926    2    1    2    0    0  0.00000000000E+00  0.00000000000E+00 -0.48736849266E+03  0.66435839394E+03  0.45149089466E+03 0.  0.
         25    1    3    3    0    0  0.78815075396E+02 -0.11968122654E+02 -0.14912705970E+03  0.21033649257E+03  0.12509000000E+03 0.  0.
         25    1    3    3    0    0  0.30070926775E+02 -0.27415238928E+02 -0.16451257449E+03  0.21063653821E+03  0.12509000000E+03 0.  0.
         25    1    3    3    0    0 -0.10888600217E+03  0.39383361581E+02 -0.17372885846E+03  0.24338536316E+03  0.12509000000E+03 0.  0.
<mgrwt>
<rscale>  2 0.45149089E+03</rscale>
<asrwt>0</asrwt>
<pdfrwt beam="1">  1       21 0.13013963E-01 0.45149089E+03</pdfrwt>
<pdfrwt beam="2">  1       21 0.84685801E-01 0.45149089E+03</pdfrwt>
<totfact> 0.56425877E+04</totfact>
</mgrwt>
</event>
<event>
 6    0  0.1539652E-007  0.4466701E+03  0.7546771E-02  0.1028720E+00
         21   -1    0    0  502  501  0.00000000000E+00  0.00000000000E+00  0.17968828239E+03  0.17968828239E+03  0.00000000000E+00 0.  1.
         21   -1    0    0  501  502 -0.00000000000E+00 -0.00000000000E+00 -0.27758371825E+03  0.27758371825E+03  0.00000000000E+00 0.  1.
      99926    2    1    2    0    0  0.00000000000E+00 -0.71054273576E-14 -0.97895435860E+02  0.45727200063E+03  0.44667008653E+03 0.  0.
         25    1    3    3    0    0  0.74612744305E+02 -0.58771430198E+02 -0.65577215657E+01  0.15719940977E+03  0.12509000000E+03 0.  0.
         25    1    3    3    0    0 -0.55204625144E+02 -0.15273902793E+02 -0.28376772900E+02  0.14047630435E+03  0.12509000000E+03 0.  0.
         25    1    3    3    0    0 -0.19408119161E+02  0.74045332992E+02 -0.62960941394E+02  0.15959628651E+03  0.12509000000E+03 0.  0.
<mgrwt>
<rscale>  2 0.44667009E+03</rscale>
<asrwt>0</asrwt>
<pdfrwt beam="1">  1       21 0.26424748E-01 0.44667009E+03</pdfrwt>
<pdfrwt beam="2">  1       21 0.40821135E-01 0.44667009E+03</pdfrwt>
<totfact> 0.73106809E+04</totfact>
</mgrwt>
</event>
<event>
 6    0  0.1539652E-007  0.4537403E+03  0.7546771E-02  0.1026612E+00
         21   -1    0    0  502  501  0.00000000000E+00  0.00000000000E+00  0.69301193431E+03  0.69301193431E+03  0.00000000000E+00 0. -1.
         21   -1    0    0  501  502 -0.00000000000E+00 -0.00000000000E+00 -0.74270091816E+02  0.74270091816E+02  0.00000000000E+00 0. -1.
      99926    2    1    2    0    0  0.00000000000E+00  0.71054273576E-14  0.61874184249E+03  0.76728202613E+03  0.45374027809E+03 0.  0.
         25    1    3    3    0    0  0.35306420867E+02  0.47448832050E+01  0.85310296890E+02  0.15554553072E+03  0.12509000000E+03 0.  0.
         25    1    3    3    0    0 -0.17577816742E+02  0.45493681999E+02  0.13354624060E+03  0.18936937773E+03  0.12509000000E+03 0.  0.
         25    1    3    3    0    0 -0.17728604125E+02 -0.50238565204E+02  0.39988530500E+03  0.42236711768E+03  0.12509000000E+03 0.  0.
<mgrwt>
<rscale>  2 0.45374028E+03</rscale>
<asrwt>0</asrwt>
<pdfrwt beam="1">  1       21 0.10191352E+00 0.45374028E+03</pdfrwt>
<pdfrwt beam="2">  1       21 0.10922073E-01 0.45374028E+03</pdfrwt>
<totfact> 0.49879381E+04</totfact>
</mgrwt>
</event>
<event>
 6    0  0.1539652E-007  0.4532608E+03  0.7546771E-02  0.1026754E+00
         21   -1    0    0  502  501  0.00000000000E+00  0.00000000000E+00  0.48361258812E+03  0.48361258812E+03  0.00000000000E+00 0. -1.
         21   -1    0    0  501  502 -0.00000000000E+00 -0.00000000000E+00 -0.10620346701E+03  0.10620346701E+03  0.00000000000E+00 0. -1.
      99926    2    1    2    0    0  0.00000000000E+00  0.00000000000E+00  0.37740912111E+03  0.58981605512E+03  0.45326077945E+03 0.  0.
         25    1    3    3    0    0 -0.19656729542E+02 -0.56027473214E+02  0.17856507474E+03  0.22596118868E+03  0.12509000000E+03 0.  0.
         25    1    3    3    0    0 -0.59514671136E+02  0.45397127187E+02  0.14597691416E+03  0.20629993409E+03  0.12509000000E+03 0.  0.
         25    1    3    3    0    0  0.79171400678E+02  0.10630346027E+02  0.52867132209E+02  0.15755493236E+03  0.12509000000E+03 0.  0.
<mgrwt>
<rscale>  2 0.45326078E+03</rscale>
<asrwt>0</asrwt>
<pdfrwt beam="1">  1       21 0.71119497E-01 0.45326078E+03</pdfrwt>
<pdfrwt beam="2">  1       21 0.15618157E-01 0.45326078E+03</pdfrwt>
<totfact> 0.60131849E+04</totfact>
</mgrwt>
</event>
<event>
 6    0  0.1539652E-007  0.4552980E+03  0.7546771E-02  0.1026154E+00
         21   -1    0    0  502  501  0.00000000000E+00  0.00000000000E+00  0.66472502757E+03  0.66472502757E+03  0.00000000000E+00 0. -1.
         21   -1    0    0  501  502 -0.00000000000E+00 -0.00000000000E+00 -0.77963180724E+02  0.77963180724E+02  0.00000000000E+00 0. -1.
      99926    2    1    2    0    0  0.35527136788E-14  0.71054273576E-14  0.58676184685E+03  0.74268820830E+03  0.45529804505E+03 0.  0.
         25    1    3    3    0    0  0.18094046563E+02  0.50146969841E+02  0.10950523978E+03  0.17458814033E+03  0.12509000000E+03 0.  0.
         25    1    3    3    0    0 -0.41296380777E+02 -0.69720907067E+02  0.13006519100E+03  0.19781521165E+03  0.12509000000E+03 0.  0.
         25    1    3    3    0    0  0.23202334213E+02  0.19573937226E+02  0.34719141606E+03  0.37028485632E+03  0.12509000000E+03 0.  0.
<mgrwt>
<rscale>  2 0.45529805E+03</rscale>
<asrwt>0</asrwt>
<pdfrwt beam="1">  1       21 0.97753677E-01 0.45529805E+03</pdfrwt>
<pdfrwt beam="2">  1       21 0.11465174E-01 0.45529805E+03</pdfrwt>
<totfact> 0.50527300E+04</totfact>
</mgrwt>
</event>
<event>
 6    0  0.1539652E-007  0.4558908E+03  0.7546771E-02  0.1025980E+00
         21   -1    0    0  502  501  0.00000000000E+00  0.00000000000E+00  0.86691639041E+02  0.86691639041E+02  0.00000000000E+00 0.  1.
         21   -1    0    0  501  502 -0.00000000000E+00 -0.00000000000E+00 -0.59935551684E+03  0.59935551684E+03  0.00000000000E+00 0.  1.
      99926    2    1    2    0    0 -0.17763568394E-14  0.00000000000E+00 -0.51266387780E+03  0.68604715589E+03  0.45589082958E+03 0.  0.
         25    1    3    3    0    0  0.56751829406E+02 -0.19347891995E+02 -0.32611765007E+03  0.35439432960E+03  0.12509000000E+03 0.  0.
         25    1    3    3    0    0 -0.51687695038E+01 -0.32353978041E+02 -0.91337700189E+02  0.15831481184E+03  0.12509000000E+03 0.  0.
         25    1    3    3    0    0 -0.51583059902E+02  0.51701870036E+02 -0.95208527546E+02  0.17333801444E+03  0.12509000000E+03 0.  0.
<mgrwt>
<rscale>  2 0.45589083E+03</rscale>
<asrwt>0</asrwt>
<pdfrwt beam="1">  1       21 0.12748771E-01 0.45589083E+03</pdfrwt>
<pdfrwt beam="2">  1       21 0.88140516E-01 0.45589083E+03</pdfrwt>
<totfact> 0.53292527E+04</totfact>
</mgrwt>
</event>
<event>
 6    0  0.1539652E-007  0.4548887E+03  0.7546771E-02  0.1026274E+00
         21   -1    0    0  502  501  0.00000000000E+00  0.00000000000E+00  0.76074235923E+03  0.76074235923E+03  0.00000000000E+00 0. -1.
         21   -1    0    0  501  502 -0.00000000000E+00 -0.00000000000E+00 -0.68000597323E+02  0.68000597323E+02  0.00000000000E+00 0. -1.
      99926    2    1    2    0    0  0.00000000000E+00 -0.53290705182E-14  0.69274176191E+03  0.82874295655E+03  0.45488871095E+03 0.  0.
         25    1    3    3    0    0  0.30803747339E+02  0.62450479343E+02  0.28417391290E+03  0.31820002214E+03  0.12509000000E+03 0.  0.
         25    1    3    3    0    0  0.60587060812E+02 -0.53701305640E+02  0.22916672762E+03  0.27334871376E+03  0.12509000000E+03 0.  0.
         25    1    3    3    0    0 -0.91390808151E+02 -0.87491737022E+01  0.17940112139E+03  0.23719422065E+03  0.12509000000E+03 0.  0.
<mgrwt>
<rscale>  2 0.45488871E+03</rscale>
<asrwt>0</asrwt>
<pdfrwt beam="1">  1       21 0.11187387E+00 0.45488871E+03</pdfrwt>
<pdfrwt beam="2">  1       21 0.10000088E-01 0.45488871E+03</pdfrwt>
<totfact> 0.46446308E+04</totfact>
</mgrwt>
</event>
<event>
 6    0  0.1539652E-007  0.4654233E+03  0.7546771E-02  0.1023220E+00
         21   -1    0    0  502  501  0.00000000000E+00  0.00000000000E+00  0.36510892887E+03  0.36510892887E+03  0.00000000000E+00 0. -1.
         21   -1    0    0  501  502 -0.00000000000E+00 -0.00000000000E+00 -0.14832479891E+03  0.14832479891E+03  0.00000000000E+00 0. -1.
      99926    2    1    2    0    0  0.00000000000E+00  0.71054273576E-14  0.21678412997E+03  0.51343372778E+03  0.46542328456E+03 0.  0.
         25    1    3    3    0    0  0.56786001422E+02  0.65591329674E+02  0.38244335113E+02  0.15696180986E+03  0.12509000000E+03 0.  0.
         25    1    3    3    0    0  0.52039407486E+02 -0.35037784413E+02  0.80103582563E+02  0.16124465358E+03  0.12509000000E+03 0.  0.
         25    1    3    3    0    0 -0.10882540891E+03 -0.30553545261E+02  0.98436212292E+02  0.19522726434E+03  0.12509000000E+03 0.  0.
<mgrwt>
<rscale>  2 0.46542328E+03</rscale>
<asrwt>0</asrwt>
<pdfrwt beam="1">  1       21 0.53692489E-01 0.46542328E+03</pdfrwt>
<pdfrwt beam="2">  1       21 0.21812470E-01 0.46542328E+03</pdfrwt>
<totfact> 0.59278946E+04</totfact>
</mgrwt>
</event>
<event>
 6    0  0.1539652E-007  0.4534036E+03  0.7546771E-02  0.1026712E+00
         21   -1    0    0  502  501  0.00000000000E+00  0.00000000000E+00  0.19052086857E+04  0.19052086857E+04  0.00000000000E+00 0.  1.
         21   -1    0    0  501  502 -0.00000000000E+00 -0.00000000000E+00 -0.26975366101E+02  0.26975366101E+02  0.00000000000E+00 0.  1.
      99926    2    1    2    0    0  0.00000000000E+00 -0.14210854715E-13  0.18782333196E+04  0.19321840518E+04  0.45340358091E+03 0.  0.
         25    1    3    3    0    0 -0.30831363872E+02  0.51752863506E+02  0.37776291180E+03  0.40246895224E+03  0.12509000000E+03 0.  0.
         25    1    3    3    0    0  0.35658885691E+02 -0.99391535798E+02  0.83836820551E+03  0.85420079000E+03  0.12509000000E+03 0.  0.
         25    1    3    3    0    0 -0.48275218186E+01  0.47638672291E+02  0.66210220232E+03  0.67551430960E+03  0.12509000000E+03 0.  0.
<mgrwt>
<rscale>  2 0.45340358E+03</rscale>
<asrwt>0</asrwt>
<pdfrwt beam="1">  1       21 0.28017766E+00 0.45340358E+03</pdfrwt>
<pdfrwt beam="2">  1       21 0.39669669E-02 0.45340358E+03</pdfrwt>
<totfact> 0.15034203E+04</totfact>
</mgrwt>
</event>
<event>
 6    0  0.1539652E-007  0.4529335E+03  0.7546771E-02  0.1026851E+00
         21   -1    0    0  502  501  0.00000000000E+00  0.00000000000E+00  0.55335901599E+03  0.55335901599E+03  0.00000000000E+00 0.  1.
         21   -1    0    0  501  502 -0.00000000000E+00 -0.00000000000E+00 -0.92683394401E+02  0.92683394401E+02  0.00000000000E+00 0.  1.
      99926    2    1    2    0    0  0.00000000000E+00  0.71054273576E-14  0.46067562159E+03  0.64604241039E+03  0.45293351355E+03 0.  0.
         25    1    3    3    0    0  0.72486758001E+02  0.25564658668E+02  0.18609290101E+03  0.23703577317E+03  0.12509000000E+03 0.  0.
         25    1    3    3    0    0 -0.68039205162E+02  0.56772784628E+02  0.13680068035E+03  0.20546147268E+03  0.12509000000E+03 0.  0.
         25    1    3    3    0    0 -0.44475528398E+01 -0.82337443296E+02  0.13778204023E+03  0.20354516454E+03  0.12509000000E+03 0.  0.
<mgrwt>
<rscale>  2 0.45293351E+03</rscale>
<asrwt>0</asrwt>
<pdfrwt beam="1">  1       21 0.81376324E-01 0.45293351E+03</pdfrwt>
<pdfrwt beam="2">  1       21 0.13629911E-01 0.45293351E+03</pdfrwt>
<totfact> 0.56851327E+04</totfact>
</mgrwt>
</event>
<event>
 6    0  0.1539652E-007  0.4539457E+03  0.7546771E-02  0.1026552E+00
         21   -1    0    0  502  501  0.00000000000E+00  0.00000000000E+00  0.35372086698E+02  0.35372086698E+02  0.00000000000E+00 0. -1.
         21   -1    0    0  501  502 -0.00000000000E+00 -0.00000000000E+00 -0.14564218332E+04  0.14564218332E+04  0.00000000000E+00 0. -1.
      99926    2    1    2    0    0  0.35527136788E-14 -0.17763568394E-14 -0.14210497466E+04  0.14917939199E+04  0.45394572078E+03 0.  0.
         25    1    3    3    0    0  0.19547104030E+02 -0.13442701601E+02 -0.25654072563E+03  0.28639735946E+03  0.12509000000E+03 0.  0.
         25    1    3    3    0    0  0.55523789974E+02  0.19843196547E+02 -0.81434648443E+03  0.82600505356E+03  0.12509000000E+03 0.  0.
         25    1    3    3    0    0 -0.75070894005E+02 -0.64004949461E+01 -0.35016253649E+03  0.37939150692E+03  0.12509000000E+03 0.  0.
<mgrwt>
<rscale>  2 0.45394572E+03</rscale>
<asrwt>0</asrwt>
<pdfrwt beam="1">  1       21 0.52017786E-02 0.45394572E+03</pdfrwt>
<pdfrwt beam="2">  1       21 0.21417963E+00 0.45394572E+03</pdfrwt>
<totfact> 0.24178362E+04</totfact>
</mgrwt>
</event>
<event>
 6    0  0.1539652E-007  0.4705006E+03  0.7546771E-02  0.1021779E+00
         21   -1    0    0  502  501  0.00000000000E+00  0.00000000000E+00  0.25444947144E+03  0.25444947144E+03  0.00000000000E+00 0.  1.
         21   -1    0    0  501  502 -0.00000000000E+00 -0.00000000000E+00 -0.21749977234E+03  0.21749977234E+03  0.00000000000E+00 0.  1.
      99926    2    1    2    0    0  0.00000000000E+00  0.00000000000E+00  0.36949699096E+02  0.47194924378E+03  0.47050059345E+03 0.  0.
         25    1    3    3    0    0  0.35009638925E+02 -0.31011672886E+02 -0.38480381692E+02  0.13898074164E+03  0.12509000000E+03 0.  0.
         25    1    3    3    0    0 -0.88519771009E+02  0.32651108069E+02 -0.31619460444E+02  0.15984099317E+03  0.12509000000E+03 0.  0.
         25    1    3    3    0    0  0.53510132084E+02 -0.16394351834E+01  0.10704954123E+03  0.17312750897E+03  0.12509000000E+03 0.  0.
<mgrwt>
<rscale>  2 0.47050059E+03</rscale>
<asrwt>0</asrwt>
<pdfrwt beam="1">  1       21 0.37419040E-01 0.47050059E+03</pdfrwt>
<pdfrwt beam="2">  1       21 0.31985261E-01 0.47050059E+03</pdfrwt>
<totfact> 0.59602098E+04</totfact>
</mgrwt>
</event>
<event>
 6    0  0.1539652E-007  0.4574424E+03  0.7546771E-02  0.1025526E+00
         21   -1    0    0  502  501  0.00000000000E+00  0.00000000000E+00  0.14779130862E+03  0.14779130862E+03  0.00000000000E+00 0. -1.
         21   -1    0    0  501  502 -0.00000000000E+00 -0.00000000000E+00 -0.35396796209E+03  0.35396796209E+03  0.00000000000E+00 0. -1.
      99926    2    1    2    0    0  0.00000000000E+00  0.00000000000E+00 -0.20617665347E+03  0.50175927071E+03  0.45744240436E+03 0.  0.
         25    1    3    3    0    0  0.37427144959E+02  0.53601062276E+02  0.79878553012E+01  0.14136894634E+03  0.12509000000E+03 0.  0.
         25    1    3    3    0    0 -0.74662435624E+02 -0.48637887004E+02 -0.80073914767E+02  0.17320353135E+03  0.12509000000E+03 0.  0.
         25    1    3    3    0    0  0.37235290665E+02 -0.49631752720E+01 -0.13409059401E+03  0.18718679302E+03  0.12509000000E+03 0.  0.
<mgrwt>
<rscale>  2 0.45744240E+03</rscale>
<asrwt>0</asrwt>
<pdfrwt beam="1">  1       21 0.21734016E-01 0.45744240E+03</pdfrwt>
<pdfrwt beam="2">  1       21 0.52054111E-01 0.45744240E+03</pdfrwt>
<totfact> 0.63899360E+04</totfact>
</mgrwt>
</event>
<event>
 6    0  0.1539652E-007  0.4500317E+03  0.7546771E-02  0.1027713E+00
         21   -1    0    0  502  501  0.00000000000E+00  0.00000000000E+00  0.19023504960E+03  0.19023504960E+03  0.00000000000E+00 0. -1.
         21   -1    0    0  501  502 -0.00000000000E+00 -0.00000000000E+00 -0.26615559196E+03  0.26615559196E+03  0.00000000000E+00 0. -1.
      99926    2    1    2    0    0  0.00000000000E+00  0.10658141036E-13 -0.75920542360E+02  0.45639064157E+03  0.45003165329E+03 0.  0.
         25    1    3    3    0    0  0.80639430986E+02 -0.41842050529E+02 -0.45098177725E+02  0.16104294072E+03  0.12509000000E+03 0.  0.
         25    1    3    3    0    0 -0.20720484387E+02 -0.22538290535E+02 -0.55900442026E+02  0.14039116971E+03  0.12509000000E+03 0.  0.
         25    1    3    3    0    0 -0.59918946599E+02  0.64380341064E+02  0.25078077391E+02  0.15495653114E+03  0.12509000000E+03 0.  0.
<mgrwt>
<rscale>  2 0.45003165E+03</rscale>
<asrwt>0</asrwt>
<pdfrwt beam="1">  1       21 0.27975743E-01 0.45003165E+03</pdfrwt>
<pdfrwt beam="2">  1       21 0.39140528E-01 0.45003165E+03</pdfrwt>
<totfact> 0.71224661E+04</totfact>
</mgrwt>
</event>
<event>
 6    0  0.1539652E-007  0.4609119E+03  0.7546771E-02  0.1024517E+00
         21   -1    0    0  502  501  0.00000000000E+00  0.00000000000E+00  0.20429160989E+03  0.20429160989E+03  0.00000000000E+00 0.  1.
         21   -1    0    0  501  502 -0.00000000000E+00 -0.00000000000E+00 -0.25997127216E+03  0.25997127216E+03  0.00000000000E+00 0.  1.
      99926    2    1    2    0    0  0.00000000000E+00 -0.35527136788E-14 -0.55679662270E+02  0.46426288205E+03  0.46091192093E+03 0.  0.
         25    1    3    3    0    0 -0.96235632057E+02 -0.49551022947E+02  0.18221011979E+02  0.16642149540E+03  0.12509000000E+03 0.  0.
         25    1    3    3    0    0  0.92255329492E+02  0.19172014694E+02 -0.18693969618E+02  0.15771995615E+03  0.12509000000E+03 0.  0.
         25    1    3    3    0    0  0.39803025648E+01  0.30379008253E+02 -0.55206704632E+02  0.14012143051E+03  0.12509000000E+03 0.  0.
<mgrwt>
<rscale>  2 0.46091192E+03</rscale>
<asrwt>0</asrwt>
<pdfrwt beam="1">  1       21 0.30042884E-01 0.46091192E+03</pdfrwt>
<pdfrwt beam="2">  1       21 0.38231069E-01 0.46091192E+03</pdfrwt>
<totfact> 0.64763268E+04</totfact>
</mgrwt>
</event>
<event>
 6    0  0.1539652E-007  0.4885674E+03  0.7546771E-02  0.1016807E+00
         21   -1    0    0  502  501  0.00000000000E+00  0.00000000000E+00  0.10265714408E+03  0.10265714408E+03  0.00000000000E+00 0. -1.
         21   -1    0    0  501  502 -0.00000000000E+00 -0.00000000000E+00 -0.58129936773E+03  0.58129936773E+03  0.00000000000E+00 0. -1.
      99926    2    1    2    0    0  0.00000000000E+00  0.31086244690E-14 -0.47864222364E+03  0.68395651181E+03  0.48856742809E+03 0.  0.
         25    1    3    3    0    0 -0.31812112850E+02  0.22418311081E+01 -0.33078133141E+03  0.35507863022E+03  0.12509000000E+03 0.  0.
         25    1    3    3    0    0  0.70679188038E+02 -0.52921255822E+02 -0.83179359083E+02  0.17424844567E+03  0.12509000000E+03 0.  0.
         25    1    3    3    0    0 -0.38867075188E+02  0.50679424714E+02 -0.64681533149E+02  0.15462943592E+03  0.12509000000E+03 0.  0.
<mgrwt>
<rscale>  2 0.48856743E+03</rscale>
<asrwt>0</asrwt>
<pdfrwt beam="1">  1       21 0.15096639E-01 0.48856743E+03</pdfrwt>
<pdfrwt beam="2">  1       21 0.85485202E-01 0.48856743E+03</pdfrwt>
<totfact> 0.41627449E+04</totfact>
</mgrwt>
</event>
<event>
 6    0  0.1539652E-007  0.4915939E+03  0.7546771E-02  0.1015997E+00
         21   -1    0    0  502  501  0.00000000000E+00  0.00000000000E+00  0.89693603938E+02  0.89693603938E+02  0.00000000000E+00 0.  1.
         21   -1    0    0  501  502 -0.00000000000E+00 -0.00000000000E+00 -0.67358370490E+03  0.67358370490E+03  0.00000000000E+00 0.  1.
      99926    2    1    2    0    0 -0.71054273576E-14  0.35527136788E-14 -0.58389010096E+03  0.76327730883E+03  0.49159393831E+03 0.  0.
         25    1    3    3    0    0  0.65734577995E+02  0.76015434282E+02 -0.27412493390E+03  0.31763401656E+03  0.12509000000E+03 0.  0.
         25    1    3    3    0    0 -0.90767071906E+02 -0.89770104722E+02 -0.24107730729E+03  0.30010516362E+03  0.12509000000E+03 0.  0.
         25    1    3    3    0    0  0.25032493911E+02  0.13754670441E+02 -0.68687859770E+02  0.14553812865E+03  0.12509000000E+03 0.  0.
<mgrwt>
<rscale>  2 0.49159394E+03</rscale>
<asrwt>0</asrwt>
<pdfrwt beam="1">  1       21 0.13190236E-01 0.49159394E+03</pdfrwt>
<pdfrwt beam="2">  1       21 0.99056429E-01 0.49159394E+03</pdfrwt>
<totfact> 0.37570965E+04</totfact>
</mgrwt>
</event>
<event>
 6    0  0.1539652E-007  0.4523337E+03  0.7546771E-02  0.1027028E+00
         21   -1    0    0  502  501  0.00000000000E+00  0.00000000000E+00  0.37010824223E+03  0.37010824223E+03  0.00000000000E+00 0.  1.
         21   -1    0    0  501  502 -0.00000000000E+00 -0.00000000000E+00 -0.13820673518E+03  0.13820673518E+03  0.00000000000E+00 0.  1.
      99926    2    1    2    0    0 -0.71054273576E-14 -0.88817841970E-15  0.23190150706E+03  0.50831497741E+03  0.45233373441E+03 0.  0.
         25    1    3    3    0    0 -0.10071258549E+03 -0.13764940372E+02  0.14196969994E+03  0.21479153210E+03  0.12509000000E+03 0.  0.
         25    1    3    3    0    0  0.45113543028E+02 -0.78189273826E+01  0.10089324659E+02  0.13358768642E+03  0.12509000000E+03 0.  0.
         25    1    3    3    0    0  0.55599042462E+02  0.21583867755E+02  0.79842482458E+02  0.15993575890E+03  0.12509000000E+03 0.  0.
<mgrwt>
<rscale>  2 0.45233373E+03</rscale>
<asrwt>0</asrwt>
<pdfrwt beam="1">  1       21 0.54427683E-01 0.45233373E+03</pdfrwt>
<pdfrwt beam="2">  1       21 0.20324520E-01 0.45233373E+03</pdfrwt>
<totfact> 0.66077560E+04</totfact>
</mgrwt>
</event>
<event>
 6    0  0.1539652E-007  0.4517004E+03  0.7546771E-02  0.1027216E+00
         21   -1    0    0  502  501  0.00000000000E+00  0.00000000000E+00  0.17505110957E+03  0.17505110957E+03  0.00000000000E+00 0. -1.
         21   -1    0    0  501  502 -0.00000000000E+00 -0.00000000000E+00 -0.29139097804E+03  0.29139097804E+03  0.00000000000E+00 0. -1.
      99926    2    1    2    0    0  0.00000000000E+00  0.00000000000E+00 -0.11633986847E+03  0.46644208760E+03  0.45170040524E+03 0.  0.
         25    1    3    3    0    0  0.47697905527E+02  0.50225503869E+02  0.33523873824E+02  0.14686405158E+03  0.12509000000E+03 0.  0.
         25    1    3    3    0    0 -0.74596418311E+02 -0.47081847065E+02 -0.96267819810E+02  0.18082125754E+03  0.12509000000E+03 0.  0.
         25    1    3    3    0    0  0.26898512785E+02 -0.31436568032E+01 -0.53595922482E+02  0.13875677848E+03  0.12509000000E+03 0.  0.
<mgrwt>
<rscale>  2 0.45170041E+03</rscale>
<asrwt>0</asrwt>
<pdfrwt beam="1">  1       21 0.25742811E-01 0.45170041E+03</pdfrwt>
<pdfrwt beam="2">  1       21 0.42851614E-01 0.45170041E+03</pdfrwt>
<totfact> 0.69502757E+04</totfact>
</mgrwt>
</event>
<event>
 6    0  0.1539652E-007  0.4415934E+03  0.7546771E-02  0.1030259E+00
         21   -1    0    0  502  501  0.00000000000E+00  0.00000000000E+00  0.14299394455E+03  0.14299394455E+03  0.00000000000E+00 0.  1.
         21   -1    0    0  501  502 -0.00000000000E+00 -0.00000000000E+00 -0.34093185648E+03  0.34093185648E+03  0.00000000000E+00 0.  1.
      99926    2    1    2    0    0  0.00000000000E+00 -0.17763568394E-14 -0.19793791193E+03  0.48392580103E+03  0.44159343736E+03 0.  0.
         25    1    3    3    0    0 -0.10568532217E+02 -0.16085932490E+02  0.17753363418E+02  0.12780117805E+03  0.12509000000E+03 0.  0.
         25    1    3    3    0    0  0.25395619950E+02  0.85258520904E+01 -0.18723378211E+03  0.22676336770E+03  0.12509000000E+03 0.  0.
         25    1    3    3    0    0 -0.14827087732E+02  0.75600803998E+01 -0.28457493237E+02  0.12936125528E+03  0.12509000000E+03 0.  0.
<mgrwt>
<rscale>  2 0.44159344E+03</rscale>
<asrwt>0</asrwt>
<pdfrwt beam="1">  1       21 0.21028522E-01 0.44159344E+03</pdfrwt>
<pdfrwt beam="2">  1       21 0.50137037E-01 0.44159344E+03</pdfrwt>
<totfact> 0.73981191E+04</totfact>
</mgrwt>
</event>
<event>
 6    0  0.1539652E-007  0.4578416E+03  0.7546771E-02  0.1025409E+00
         21   -1    0    0  502  501  0.00000000000E+00  0.00000000000E+00  0.22124930721E+04  0.22124930721E+04  0.00000000000E+00 0.  1.
         21   -1    0    0  501  502 -0.00000000000E+00 -0.00000000000E+00 -0.23685828569E+02  0.23685828569E+02  0.00000000000E+00 0.  1.
      99926    2    1    2    0    0 -0.35527136788E-14 -0.71054273576E-14  0.21888072436E+04  0.22361789007E+04  0.45784159539E+03 0.  0.
         25    1    3    3    0    0  0.52776445763E+02  0.92048861471E+02  0.84147180596E+03  0.85731012734E+03  0.12509000000E+03 0.  0.
         25    1    3    3    0    0  0.25464840081E+02 -0.20876917925E+02  0.58380476230E+03  0.59796305267E+03  0.12509000000E+03 0.  0.
         25    1    3    3    0    0 -0.78241285845E+02 -0.71171943546E+02  0.76353067530E+03  0.78090572068E+03  0.12509000000E+03 0.  0.
<mgrwt>
<rscale>  2 0.45784160E+03</rscale>
<asrwt>0</asrwt>
<pdfrwt beam="1">  1       21 0.32536649E+00 0.45784160E+03</pdfrwt>
<pdfrwt beam="2">  1       21 0.34832116E-02 0.45784160E+03</pdfrwt>
<totfact> 0.10000264E+04</totfact>
</mgrwt>
</event>
<event>
 6    0  0.1539652E-007  0.4550198E+03  0.7546771E-02  0.1026236E+00
         21   -1    0    0  502  501  0.00000000000E+00  0.00000000000E+00  0.27085602781E+03  0.27085602781E+03  0.00000000000E+00 0. -1.
         21   -1    0    0  501  502 -0.00000000000E+00 -0.00000000000E+00 -0.19110063058E+03  0.19110063058E+03  0.00000000000E+00 0. -1.
      99926    2    1    2    0    0 -0.35527136788E-14  0.71054273576E-14  0.79755397233E+02  0.46195665839E+03  0.45501981368E+03 0.  0.
         25    1    3    3    0    0  0.25525309582E+02  0.46075301195E+02  0.56950187026E+02  0.14719139483E+03  0.12509000000E+03 0.  0.
         25    1    3    3    0    0 -0.64889960211E+02  0.17022788028E+02  0.74526889910E+02  0.16031920555E+03  0.12509000000E+03 0.  0.
         25    1    3    3    0    0  0.39364650630E+02 -0.63098089223E+02 -0.51721679702E+02  0.15444605801E+03  0.12509000000E+03 0.  0.
<mgrwt>
<rscale>  2 0.45501981E+03</rscale>
<asrwt>0</asrwt>
<pdfrwt beam="1">  1       21 0.39831769E-01 0.45501981E+03</pdfrwt>
<pdfrwt beam="2">  1       21 0.28103034E-01 0.45501981E+03</pdfrwt>
<totfact> 0.68025898E+04</totfact>
</mgrwt>
</event>
<event>
 6    0  0.1539652E-007  0.4506643E+03  0.7546771E-02  0.1027524E+00
         21   -1    0    0  502  501  0.00000000000E+00  0.00000000000E+00  0.89333636835E+02  0.89333636835E+02  0.00000000000E+00 0. -1.
         21   -1    0    0  501  502 -0.00000000000E+00 -0.00000000000E+00 -0.56837017240E+03  0.56837017240E+03  0.00000000000E+00 0. -1.
      99926    2    1    2    0    0 -0.71054273576E-14  0.71054273576E-14 -0.47903653557E+03  0.65770380924E+03  0.45066428556E+03 0.  0.
         25    1    3    3    0    0  0.77208186031E+02  0.83420225297E+02 -0.14211766557E+03  0.22082793516E+03  0.12509000000E+03 0.  0.
         25    1    3    3    0    0 -0.31550505760E+02 -0.23215241865E+02 -0.17682767211E+03  0.22011341530E+03  0.12509000000E+03 0.  0.
         25    1    3    3    0    0 -0.45657680272E+02 -0.60204983432E+02 -0.16009119788E+03  0.21676245878E+03  0.12509000000E+03 0.  0.
<mgrwt>
<rscale>  2 0.45066429E+03</rscale>
<asrwt>0</asrwt>
<pdfrwt beam="1">  1       21 0.13137299E-01 0.45066429E+03</pdfrwt>
<pdfrwt beam="2">  1       21 0.83583850E-01 0.45066429E+03</pdfrwt>
<totfact> 0.57190106E+04</totfact>
</mgrwt>
</event>
<event>
 6    0  0.1539652E-007  0.4551966E+03  0.7546771E-02  0.1026184E+00
         21   -1    0    0  502  501  0.00000000000E+00  0.00000000000E+00  0.80990419742E+02  0.80990419742E+02  0.00000000000E+00 0.  1.
         21   -1    0    0  501  502 -0.00000000000E+00 -0.00000000000E+00 -0.63959392820E+03  0.63959392820E+03  0.00000000000E+00 0.  1.
      99926    2    1    2    0    0 -0.71054273576E-14  0.00000000000E+00 -0.55860350846E+03  0.72058434794E+03  0.45519657604E+03 0.  0.
         25    1    3    3    0    0 -0.25432439468E+02 -0.43816125766E+02 -0.32300130500E+03  0.35006287005E+03  0.12509000000E+03 0.  0.
         25    1    3    3    0    0  0.60100126113E+02 -0.61287676717E+01 -0.16117220831E+03  0.21277588158E+03  0.12509000000E+03 0.  0.
         25    1    3    3    0    0 -0.34667686645E+02  0.49944893438E+02 -0.74429995150E+02  0.15774559631E+03  0.12509000000E+03 0.  0.
<mgrwt>
<rscale>  2 0.45519658E+03</rscale>
<asrwt>0</asrwt>
<pdfrwt beam="1">  1       21 0.11910356E-01 0.45519658E+03</pdfrwt>
<pdfrwt beam="2">  1       21 0.94057933E-01 0.45519658E+03</pdfrwt>
<totfact> 0.51719597E+04</totfact>
</mgrwt>
</event>
<event>
 6    0  0.1539652E-007  0.4582718E+03  0.7546771E-02  0.1025284E+00
         21   -1    0    0  502  501  0.00000000000E+00  0.00000000000E+00  0.47688476361E+02  0.47688476361E+02  0.00000000000E+00 0.  1.
         21   -1    0    0  501  502 -0.00000000000E+00 -0.00000000000E+00 -0.11009631436E+04  0.11009631436E+04  0.00000000000E+00 0.  1.
      99926    2    1    2    0    0  0.71054273576E-14 -0.71054273576E-14 -0.10532746673E+04  0.11486516200E+04  0.45827177460E+03 0.  0.
         25    1    3    3    0    0  0.28269365873E+02 -0.63813683157E+02 -0.29542847509E+03  0.32832428360E+03  0.12509000000E+03 0.  0.
         25    1    3    3    0    0 -0.72502864038E+02  0.48097125816E+02 -0.23044105851E+03  0.27626181124E+03  0.12509000000E+03 0.  0.
         25    1    3    3    0    0  0.44233498165E+02  0.15716557341E+02 -0.52740513366E+03  0.54406552514E+03  0.12509000000E+03 0.  0.
<mgrwt>
<rscale>  2 0.45827177E+03</rscale>
<asrwt>0</asrwt>
<pdfrwt beam="1">  1       21 0.70130117E-02 0.45827177E+03</pdfrwt>
<pdfrwt beam="2">  1       21 0.16190633E+00 0.45827177E+03</pdfrwt>
<totfact> 0.32978425E+04</totfact>
</mgrwt>
</event>
<event>
 6    0  0.1539652E-007  0.4663570E+03  0.7546771E-02  0.1022953E+00
         21   -1    0    0  502  501  0.00000000000E+00  0.00000000000E+00  0.51358613561E+02  0.51358613561E+02  0.00000000000E+00 0.  1.
         21   -1    0    0  501  502 -0.00000000000E+00 -0.00000000000E+00 -0.10586775127E+04  0.10586775127E+04  0.00000000000E+00 0.  1.
      99926    2    1    2    0    0  0.00000000000E+00  0.14210854715E-13 -0.10073188992E+04  0.11100361263E+04  0.46635698456E+03 0.  0.
         25    1    3    3    0    0 -0.37867620419E+02 -0.83891193939E+02 -0.24162763094E+03  0.28723354475E+03  0.12509000000E+03 0.  0.
         25    1    3    3    0    0 -0.52474899625E+01  0.47850833907E+02 -0.20022450095E+03  0.24094521646E+03  0.12509000000E+03 0.  0.
         25    1    3    3    0    0  0.43115110381E+02  0.36040360032E+02 -0.56546676728E+03  0.58185736507E+03  0.12509000000E+03 0.  0.
<mgrwt>
<rscale>  2 0.46635698E+03</rscale>
<asrwt>0</asrwt>
<pdfrwt beam="1">  1       21 0.75527375E-02 0.46635698E+03</pdfrwt>
<pdfrwt beam="2">  1       21 0.15568787E+00 0.46635698E+03</pdfrwt>
<totfact> 0.32197851E+04</totfact>
</mgrwt>
</event>
<event>
 6    0  0.1539652E-007  0.4571277E+03  0.7546771E-02  0.1025618E+00
         21   -1    0    0  502  501  0.00000000000E+00  0.00000000000E+00  0.21636317725E+04  0.21636317725E+04  0.00000000000E+00 0. -1.
         21   -1    0    0  501  502 -0.00000000000E+00 -0.00000000000E+00 -0.24145250790E+02  0.24145250790E+02  0.00000000000E+00 0. -1.
      99926    2    1    2    0    0  0.00000000000E+00 -0.71054273576E-14  0.21394865217E+04  0.21877770233E+04  0.45712769229E+03 0.  0.
         25    1    3    3    0    0 -0.33757563402E+02  0.28742160854E+02  0.57297038161E+03  0.58813965281E+03  0.12509000000E+03 0.  0.
         25    1    3    3    0    0 -0.33900037728E+02  0.42286317922E+02  0.10608327179E+04  0.10695564075E+04  0.12509000000E+03 0.  0.
         25    1    3    3    0    0  0.67657601130E+02 -0.71028478776E+02  0.50568342216E+03  0.53008096300E+03  0.12509000000E+03 0.  0.
<mgrwt>
<rscale>  2 0.45712769E+03</rscale>
<asrwt>0</asrwt>
<pdfrwt beam="1">  1       21 0.31818101E+00 0.45712769E+03</pdfrwt>
<pdfrwt beam="2">  1       21 0.35507737E-02 0.45712769E+03</pdfrwt>
<totfact> 0.10701381E+04</totfact>
</mgrwt>
</event>
<event>
 6    0  0.1539652E-007  0.4514924E+03  0.7546771E-02  0.1027278E+00
         21   -1    0    0  502  501  0.00000000000E+00  0.00000000000E+00  0.39217780459E+03  0.39217780459E+03  0.00000000000E+00 0.  1.
         21   -1    0    0  501  502 -0.00000000000E+00 -0.00000000000E+00 -0.12994450512E+03  0.12994450512E+03  0.00000000000E+00 0.  1.
      99926    2    1    2    0    0  0.00000000000E+00  0.00000000000E+00  0.26223329947E+03  0.52212230971E+03  0.45149241737E+03 0.  0.
         25    1    3    3    0    0 -0.26090240448E+02  0.32571171508E+02  0.49006807539E+02  0.14067962591E+03  0.12509000000E+03 0.  0.
         25    1    3    3    0    0 -0.76174158353E+02  0.16136502097E+02  0.92958379155E+02  0.17421727083E+03  0.12509000000E+03 0.  0.
         25    1    3    3    0    0  0.10226439880E+03 -0.48707673606E+02  0.12026811277E+03  0.20722541297E+03  0.12509000000E+03 0.  0.
<mgrwt>
<rscale>  2 0.45149242E+03</rscale>
<asrwt>0</asrwt>
<pdfrwt beam="1">  1       21 0.57673207E-01 0.45149242E+03</pdfrwt>
<pdfrwt beam="2">  1       21 0.19109486E-01 0.45149242E+03</pdfrwt>
<totfact> 0.65546653E+04</totfact>
</mgrwt>
</event>
<event>
 6    0  0.1539652E-007  0.4585589E+03  0.7546771E-02  0.1025200E+00
         21   -1    0    0  502  501  0.00000000000E+00  0.00000000000E+00  0.35212942044E+03  0.35212942044E+03  0.00000000000E+00 0. -1.
         21   -1    0    0  501  502 -0.00000000000E+00 -0.00000000000E+00 -0.14928905346E+03  0.14928905346E+03  0.00000000000E+00 0. -1.
      99926    2    1    2    0    0  0.00000000000E+00 -0.22204460493E-14  0.20284036698E+03  0.50141847389E+03  0.45855890732E+03 0.  0.
         25    1    3    3    0    0 -0.97075455261E+02  0.41804248339E+02  0.88896416191E+02  0.18633657747E+03  0.12509000000E+03 0.  0.
         25    1    3    3    0    0  0.45070337378E+02  0.26096211365E+01  0.10979900613E+03  0.17245716941E+03  0.12509000000E+03 0.  0.
         25    1    3    3    0    0  0.52005117883E+02 -0.44413869475E+02  0.41449446564E+01  0.14262472701E+03  0.12509000000E+03 0.  0.
<mgrwt>
<rscale>  2 0.45855891E+03</rscale>
<asrwt>0</asrwt>
<pdfrwt beam="1">  1       21 0.51783738E-01 0.45855891E+03</pdfrwt>
<pdfrwt beam="2">  1       21 0.21954273E-01 0.45855891E+03</pdfrwt>
<totfact> 0.63362071E+04</totfact>
</mgrwt>
</event>
<event>
 6    0  0.1539652E-007  0.4557528E+03  0.7546771E-02  0.1026020E+00
         21   -1    0    0  502  501  0.00000000000E+00  0.00000000000E+00  0.97875829732E+02  0.97875829732E+02  0.00000000000E+00 0. -1.
         21   -1    0    0  501  502 -0.00000000000E+00 -0.00000000000E+00 -0.53054616185E+03  0.53054616185E+03  0.00000000000E+00 0. -1.
      99926    2    1    2    0    0  0.35527136788E-14  0.00000000000E+00 -0.43267033212E+03  0.62842199159E+03  0.45575276545E+03 0.  0.
         25    1    3    3    0    0 -0.49755094795E+02 -0.33338566767E+02 -0.11217988013E+03  0.17837842666E+03  0.12509000000E+03 0.  0.
         25    1    3    3    0    0 -0.38980640262E+01  0.65654014060E+02 -0.58325588549E+02  0.15288893631E+03  0.12509000000E+03 0.  0.
         25    1    3    3    0    0  0.53653158821E+02 -0.32315447293E+02 -0.26216486345E+03  0.29715462862E+03  0.12509000000E+03 0.  0.
<mgrwt>
<rscale>  2 0.45575277E+03</rscale>
<asrwt>0</asrwt>
<pdfrwt beam="1">  1       21 0.14393504E-01 0.45575277E+03</pdfrwt>
<pdfrwt beam="2">  1       21 0.78021495E-01 0.45575277E+03</pdfrwt>
<totfact> 0.56624798E+04</totfact>
</mgrwt>
</event>
<event>
 6    0  0.1539652E-007  0.4508929E+03  0.7546771E-02  0.1027456E+00
         21   -1    0    0  502  501  0.00000000000E+00  0.00000000000E+00  0.84300634747E+02  0.84300634747E+02  0.00000000000E+00 0.  1.
         21   -1    0    0  501  502 -0.00000000000E+00 -0.00000000000E+00 -0.60291492308E+03  0.60291492308E+03  0.00000000000E+00 0.  1.
      99926    2    1    2    0    0  0.00000000000E+00  0.00000000000E+00 -0.51861428834E+03  0.68721555783E+03  0.45089293946E+03 0.  0.
         25    1    3    3    0    0  0.60506822006E+02  0.58579034316E+02 -0.11260216023E+03  0.18820024803E+03  0.12509000000E+03 0.  0.
         25    1    3    3    0    0 -0.41392789176E+02 -0.57652116558E+02 -0.12393794414E+03  0.18985587070E+03  0.12509000000E+03 0.  0.
         25    1    3    3    0    0 -0.19114032831E+02 -0.92691775826E+00 -0.28207418396E+03  0.30915943910E+03  0.12509000000E+03 0.  0.
<mgrwt>
<rscale>  2 0.45089294E+03</rscale>
<asrwt>0</asrwt>
<pdfrwt beam="1">  1       21 0.12397152E-01 0.45089294E+03</pdfrwt>
<pdfrwt beam="2">  1       21 0.88663962E-01 0.45089294E+03</pdfrwt>
<totfact> 0.55371457E+04</totfact>
</mgrwt>
</event>
<event>
 6    0  0.1539652E-007  0.4552369E+03  0.7546771E-02  0.1026172E+00
         21   -1    0    0  502  501  0.00000000000E+00  0.00000000000E+00  0.25551185322E+03  0.25551185322E+03  0.00000000000E+00 0.  1.
         21   -1    0    0  501  502 -0.00000000000E+00 -0.00000000000E+00 -0.20277008420E+03  0.20277008420E+03  0.00000000000E+00 0.  1.
      99926    2    1    2    0    0  0.00000000000E+00 -0.71054273576E-14  0.52741769020E+02  0.45828193741E+03  0.45523690531E+03 0.  0.
         25    1    3    3    0    0 -0.31389298721E+02 -0.87737579269E+02 -0.43219092910E+01  0.15604280788E+03  0.12509000000E+03 0.  0.
         25    1    3    3    0    0  0.27678771614E+02 -0.21297704081E+02  0.37048786883E+02  0.13505490479E+03  0.12509000000E+03 0.  0.
         25    1    3    3    0    0  0.37105271072E+01  0.10903528335E+03  0.20014891428E+02  0.16718422475E+03  0.12509000000E+03 0.  0.
<mgrwt>
<rscale>  2 0.45523691E+03</rscale>
<asrwt>0</asrwt>
<pdfrwt beam="1">  1       21 0.37575273E-01 0.45523691E+03</pdfrwt>
<pdfrwt beam="2">  1       21 0.29819130E-01 0.45523691E+03</pdfrwt>
<totfact> 0.68176982E+04</totfact>
</mgrwt>
</event>
<event>
 6    0  0.1539652E-007  0.4474806E+03  0.7546771E-02  0.1028476E+00
         21   -1    0    0  502  501  0.00000000000E+00  0.00000000000E+00  0.13262006276E+03  0.13262006276E+03  0.00000000000E+00 0.  1.
         21   -1    0    0  501  502 -0.00000000000E+00 -0.00000000000E+00 -0.37746715500E+03  0.37746715500E+03  0.00000000000E+00 0.  1.
      99926    2    1    2    0    0 -0.26645352591E-14  0.00000000000E+00 -0.24484709224E+03  0.51008721777E+03  0.44748058187E+03 0.  0.
         25    1    3    3    0    0  0.11961545212E+02 -0.14036392497E+02 -0.13505902913E+03  0.18500958983E+03  0.12509000000E+03 0.  0.
         25    1    3    3    0    0  0.57525961981E+01 -0.79895688526E+02 -0.52211131612E+02  0.15744816217E+03  0.12509000000E+03 0.  0.
         25    1    3    3    0    0 -0.17714141410E+02  0.93932081023E+02 -0.57576931498E+02  0.16762946576E+03  0.12509000000E+03 0.  0.
<mgrwt>
<rscale>  2 0.44748058E+03</rscale>
<asrwt>0</asrwt>
<pdfrwt beam="1">  1       21 0.19502951E-01 0.44748058E+03</pdfrwt>
<pdfrwt beam="2">  1       21 0.55509875E-01 0.44748058E+03</pdfrwt>
<totfact> 0.68568582E+04</totfact>
</mgrwt>
</event>
<event>
 6    0  0.1539652E-007  0.4481842E+03  0.7546771E-02  0.1028265E+00
         21   -1    0    0  502  501  0.00000000000E+00  0.00000000000E+00  0.44924272778E+03  0.44924272778E+03  0.00000000000E+00 0.  1.
         21   -1    0    0  501  502 -0.00000000000E+00 -0.00000000000E+00 -0.11178203115E+03  0.11178203115E+03  0.00000000000E+00 0.  1.
      99926    2    1    2    0    0 -0.71054273576E-14  0.00000000000E+00  0.33746069663E+03  0.56102475894E+03  0.44818417907E+03 0.  0.
         25    1    3    3    0    0 -0.68626246573E+02 -0.31262047250E+02  0.12956948166E+03  0.19525018821E+03  0.12509000000E+03 0.  0.
         25    1    3    3    0    0  0.55711342470E+01  0.83688787219E+02  0.91203315173E+02  0.17606931431E+03  0.12509000000E+03 0.  0.
         25    1    3    3    0    0  0.63055112326E+02 -0.52426739969E+02  0.11668789979E+03  0.18970525642E+03  0.12509000000E+03 0.  0.
<mgrwt>
<rscale>  2 0.44818418E+03</rscale>
<asrwt>0</asrwt>
<pdfrwt beam="1">  1       21 0.66065106E-01 0.44818418E+03</pdfrwt>
<pdfrwt beam="2">  1       21 0.16438534E-01 0.44818418E+03</pdfrwt>
<totfact> 0.64554187E+04</totfact>
</mgrwt>
</event>
<event>
 6    0  0.1539652E-007  0.4625080E+03  0.7546771E-02  0.1024056E+00
         21   -1    0    0  502  501  0.00000000000E+00  0.00000000000E+00  0.87039056812E+02  0.87039056812E+02  0.00000000000E+00 0.  1.
         21   -1    0    0  501  502 -0.00000000000E+00 -0.00000000000E+00 -0.61441858506E+03  0.61441858506E+03  0.00000000000E+00 0.  1.
      99926    2    1    2    0    0  0.00000000000E+00  0.00000000000E+00 -0.52737952825E+03  0.70145764187E+03  0.46250800699E+03 0.  0.
         25    1    3    3    0    0 -0.12079834830E+02  0.23548801023E+02 -0.14782571442E+03  0.19544927317E+03  0.12509000000E+03 0.  0.
         25    1    3    3    0    0  0.72114352586E+02  0.72352937279E+02 -0.14456521623E+03  0.21675340188E+03  0.12509000000E+03 0.  0.
         25    1    3    3    0    0 -0.60034517756E+02 -0.95901738302E+02 -0.23498859760E+03  0.28925496683E+03  0.12509000000E+03 0.  0.
<mgrwt>
<rscale>  2 0.46250801E+03</rscale>
<asrwt>0</asrwt>
<pdfrwt beam="1">  1       21 0.12799861E-01 0.46250801E+03</pdfrwt>
<pdfrwt beam="2">  1       21 0.90355678E-01 0.46250801E+03</pdfrwt>
<totfact> 0.49814650E+04</totfact>
</mgrwt>
</event>
<event>
 6    0  0.1539652E-007  0.4546072E+03  0.7546771E-02  0.1026357E+00
         21   -1    0    0  502  501  0.00000000000E+00  0.00000000000E+00  0.69185604992E+03  0.69185604992E+03  0.00000000000E+00 0. -1.
         21   -1    0    0  501  502 -0.00000000000E+00 -0.00000000000E+00 -0.74678737609E+02  0.74678737609E+02  0.00000000000E+00 0. -1.
      99926    2    1    2    0    0  0.17763568394E-14  0.00000000000E+00  0.61717731231E+03  0.76653478753E+03  0.45460724330E+03 0.  0.
         25    1    3    3    0    0 -0.15184063030E+02 -0.63709221365E+02  0.17744070489E+03  0.22676448688E+03  0.12509000000E+03 0.  0.
         25    1    3    3    0    0  0.24882840503E+02  0.53699813626E+01  0.71316376319E+02  0.14622423220E+03  0.12509000000E+03 0.  0.
         25    1    3    3    0    0 -0.96987774727E+01  0.58339240002E+02  0.36842023110E+03  0.39354606845E+03  0.12509000000E+03 0.  0.
<mgrwt>
<rscale>  2 0.45460724E+03</rscale>
<asrwt>0</asrwt>
<pdfrwt beam="1">  1       21 0.10174353E+00 0.45460724E+03</pdfrwt>
<pdfrwt beam="2">  1       21 0.10982168E-01 0.45460724E+03</pdfrwt>
<totfact> 0.49578623E+04</totfact>
</mgrwt>
</event>
<event>
 6    0  0.1539652E-007  0.4550068E+03  0.7546771E-02  0.1026239E+00
         21   -1    0    0  502  501  0.00000000000E+00  0.00000000000E+00  0.10610186019E+04  0.10610186019E+04  0.00000000000E+00 0.  1.
         21   -1    0    0  501  502 -0.00000000000E+00 -0.00000000000E+00 -0.48781244237E+02  0.48781244237E+02  0.00000000000E+00 0.  1.
      99926    2    1    2    0    0  0.71054273576E-14  0.14210854715E-13  0.10122373577E+04  0.11097998462E+04  0.45500684637E+03 0.  0.
         25    1    3    3    0    0 -0.33295903918E+02 -0.29538956467E+02  0.35235306667E+03  0.37653865520E+03  0.12509000000E+03 0.  0.
         25    1    3    3    0    0  0.39954415168E+02  0.10915526918E+03  0.37418834871E+03  0.41130968441E+03  0.12509000000E+03 0.  0.
         25    1    3    3    0    0 -0.66585112492E+01 -0.79616312709E+02  0.28569594232E+03  0.32195150657E+03  0.12509000000E+03 0.  0.
<mgrwt>
<rscale>  2 0.45500685E+03</rscale>
<asrwt>0</asrwt>
<pdfrwt beam="1">  1       21 0.15603213E+00 0.45500685E+03</pdfrwt>
<pdfrwt beam="2">  1       21 0.71737131E-02 0.45500685E+03</pdfrwt>
<totfact> 0.35151294E+04</totfact>
</mgrwt>
</event>
<event>
 6    0  0.1539652E-007  0.4361022E+03  0.7546771E-02  0.1031949E+00
         21   -1    0    0  502  501  0.00000000000E+00  0.00000000000E+00  0.71003197241E+03  0.71003197241E+03  0.00000000000E+00 0. -1.
         21   -1    0    0  501  502 -0.00000000000E+00 -0.00000000000E+00 -0.66963591340E+02  0.66963591340E+02  0.00000000000E+00 0. -1.
      99926    2    1    2    0    0  0.71054273576E-14  0.44408920985E-15  0.64306838107E+03  0.77699556375E+03  0.43610223957E+03 0.  0.
         25    1    3    3    0    0 -0.56538470993E+02  0.10051073443E+02  0.35049806809E+03  0.37655547615E+03  0.12509000000E+03 0.  0.
         25    1    3    3    0    0 -0.18541320508E+02  0.37505799911E+01  0.12537099694E+03  0.17811019732E+03  0.12509000000E+03 0.  0.
         25    1    3    3    0    0  0.75079791501E+02 -0.13801653434E+02  0.16719931604E+03  0.22232989029E+03  0.12509000000E+03 0.  0.
<mgrwt>
<rscale>  2 0.43610224E+03</rscale>
<asrwt>0</asrwt>
<pdfrwt beam="1">  1       21 0.10441646E+00 0.43610224E+03</pdfrwt>
<pdfrwt beam="2">  1       21 0.98475873E-02 0.43610224E+03</pdfrwt>
<totfact> 0.56877205E+04</totfact>
</mgrwt>
</event>
<event>
 6    0  0.1539652E-007  0.4603577E+03  0.7546771E-02  0.1024678E+00
         21   -1    0    0  502  501  0.00000000000E+00  0.00000000000E+00  0.20816184265E+03  0.20816184265E+03  0.00000000000E+00 0. -1.
         21   -1    0    0  501  502 -0.00000000000E+00 -0.00000000000E+00 -0.25452451366E+03  0.25452451366E+03  0.00000000000E+00 0. -1.
      99926    2    1    2    0    0  0.00000000000E+00  0.00000000000E+00 -0.46362671018E+02  0.46268635631E+03  0.46035765123E+03 0.  0.
         25    1    3    3    0    0  0.64870783592E+02 -0.87644844309E+01 -0.88605994313E+02  0.16668402767E+03  0.12509000000E+03 0.  0.
         25    1    3    3    0    0 -0.90644799892E+02 -0.33953207190E+02  0.27263367428E+02  0.16049953062E+03  0.12509000000E+03 0.  0.
         25    1    3    3    0    0  0.25774016300E+02  0.42717691621E+02  0.14979955866E+02  0.13550279802E+03  0.12509000000E+03 0.  0.
<mgrwt>
<rscale>  2 0.46035765E+03</rscale>
<asrwt>0</asrwt>
<pdfrwt beam="1">  1       21 0.30612036E-01 0.46035765E+03</pdfrwt>
<pdfrwt beam="2">  1       21 0.37430075E-01 0.46035765E+03</pdfrwt>
<totfact> 0.65156258E+04</totfact>
</mgrwt>
</event>
<event>
 6    0  0.1539652E-007  0.4493872E+03  0.7546771E-02  0.1027905E+00
         21   -1    0    0  502  501  0.00000000000E+00  0.00000000000E+00  0.21970015817E+03  0.21970015817E+03  0.00000000000E+00 0.  1.
         21   -1    0    0  501  502 -0.00000000000E+00 -0.00000000000E+00 -0.22980050527E+03  0.22980050527E+03  0.00000000000E+00 0.  1.
      99926    2    1    2    0    0 -0.33306690739E-14 -0.35527136788E-14 -0.10100347100E+02  0.44950066343E+03  0.44938717095E+03 0.  0.
         25    1    3    3    0    0  0.13688213536E+01  0.21569059425E+02  0.76323571005E+02  0.14812121248E+03  0.12509000000E+03 0.  0.
         25    1    3    3    0    0  0.56033822420E+02 -0.50396359731E+02 -0.26027452102E+02  0.14833920147E+03  0.12509000000E+03 0.  0.
         25    1    3    3    0    0 -0.57402643774E+02  0.28827300306E+02 -0.60396466004E+02  0.15304024948E+03  0.12509000000E+03 0.  0.
<mgrwt>
<rscale>  2 0.44938717E+03</rscale>
<asrwt>0</asrwt>
<pdfrwt beam="1">  1       21 0.32308847E-01 0.44938717E+03</pdfrwt>
<pdfrwt beam="2">  1       21 0.33794192E-01 0.44938717E+03</pdfrwt>
<totfact> 0.72127014E+04</totfact>
</mgrwt>
</event>
<event>
 6    0  0.1539652E-007  0.4536557E+03  0.7546771E-02  0.1026637E+00
         21   -1    0    0  502  501  0.00000000000E+00  0.00000000000E+00  0.28242262014E+02  0.28242262014E+02  0.00000000000E+00 0. -1.
         21   -1    0    0  501  502 -0.00000000000E+00 -0.00000000000E+00 -0.18217686610E+04  0.18217686610E+04  0.00000000000E+00 0. -1.
      99926    2    1    2    0    0 -0.35527136788E-14  0.00000000000E+00 -0.17935263989E+04  0.18500109230E+04  0.45365567494E+03 0.  0.
         25    1    3    3    0    0  0.25130330830E+02 -0.66629594783E+02 -0.60934181913E+03  0.62611180876E+03  0.12509000000E+03 0.  0.
         25    1    3    3    0    0 -0.63313564300E+02  0.60307243776E+02 -0.38655725044E+03  0.41559546081E+03  0.12509000000E+03 0.  0.
         25    1    3    3    0    0  0.38183233470E+02  0.63223510068E+01 -0.79762732937E+03  0.80830365340E+03  0.12509000000E+03 0.  0.
<mgrwt>
<rscale>  2 0.45365567E+03</rscale>
<asrwt>0</asrwt>
<pdfrwt beam="1">  1       21 0.41532736E-02 0.45365567E+03</pdfrwt>
<pdfrwt beam="2">  1       21 0.26790717E+00 0.45365567E+03</pdfrwt>
<totfact> 0.16488523E+04</totfact>
</mgrwt>
</event>
<event>
 6    0  0.1539652E-007  0.4595300E+03  0.7546771E-02  0.1024918E+00
         21   -1    0    0  502  501  0.00000000000E+00  0.00000000000E+00  0.92406248375E+03  0.92406248375E+03  0.00000000000E+00 0. -1.
         21   -1    0    0  501  502 -0.00000000000E+00 -0.00000000000E+00 -0.57130295825E+02  0.57130295825E+02  0.00000000000E+00 0. -1.
      99926    2    1    2    0    0  0.00000000000E+00  0.00000000000E+00  0.86693218792E+03  0.98119277957E+03  0.45953003409E+03 0.  0.
         25    1    3    3    0    0  0.61697049937E+02  0.16485284927E+02  0.20876412551E+03  0.25161132484E+03  0.12509000000E+03 0.  0.
         25    1    3    3    0    0 -0.28927856392E+02 -0.86345746291E+02  0.23271552059E+03  0.27945738566E+03  0.12509000000E+03 0.  0.
         25    1    3    3    0    0 -0.32769193545E+02  0.69860461365E+02  0.42545254183E+03  0.45012406907E+03  0.12509000000E+03 0.  0.
<mgrwt>
<rscale>  2 0.45953003E+03</rscale>
<asrwt>0</asrwt>
<pdfrwt beam="1">  1       21 0.13589153E+00 0.45953003E+03</pdfrwt>
<pdfrwt beam="2">  1       21 0.84015147E-02 0.45953003E+03</pdfrwt>
<totfact> 0.38520469E+04</totfact>
</mgrwt>
</event>
<event>
 6    0  0.1539652E-007  0.4654413E+03  0.7546771E-02  0.1023215E+00
         21   -1    0    0  502  501  0.00000000000E+00  0.00000000000E+00  0.22075476397E+03  0.22075476397E+03  0.00000000000E+00 0. -1.
         21   -1    0    0  501  502 -0.00000000000E+00 -0.00000000000E+00 -0.24533517845E+03  0.24533517845E+03  0.00000000000E+00 0. -1.
      99926    2    1    2    0    0  0.35527136788E-14  0.00000000000E+00 -0.24580414471E+02  0.46608994242E+03  0.46544133642E+03 0.  0.
         25    1    3    3    0    0 -0.65498990111E+02 -0.31953786704E+01  0.80531783077E+02  0.16258291526E+03  0.12509000000E+03 0.  0.
         25    1    3    3    0    0  0.26758360692E+02  0.38067619198E+02 -0.24348744463E+01  0.13348629222E+03  0.12509000000E+03 0.  0.
         25    1    3    3    0    0  0.38740629419E+02 -0.34872240528E+02 -0.10267732310E+03  0.17002073493E+03  0.12509000000E+03 0.  0.
<mgrwt>
<rscale>  2 0.46544134E+03</rscale>
<asrwt>0</asrwt>
<pdfrwt beam="1">  1       21 0.32463936E-01 0.46544134E+03</pdfrwt>
<pdfrwt beam="2">  1       21 0.36078703E-01 0.46544134E+03</pdfrwt>
<totfact> 0.62379805E+04</totfact>
</mgrwt>
</event>
<event>
 6    0  0.1539652E-007  0.4591777E+03  0.7546771E-02  0.1025020E+00
         21   -1    0    0  502  501  0.00000000000E+00  0.00000000000E+00  0.27738095773E+03  0.27738095773E+03  0.00000000000E+00 0.  1.
         21   -1    0    0  501  502 -0.00000000000E+00 -0.00000000000E+00 -0.19003117861E+03  0.19003117861E+03  0.00000000000E+00 0.  1.
      99926    2    1    2    0    0  0.14210854715E-13  0.00000000000E+00  0.87349779126E+02  0.46741213634E+03  0.45917765765E+03 0.  0.
         25    1    3    3    0    0 -0.68652265083E+02 -0.34761415972E+02  0.96139663840E+02  0.17553299577E+03  0.12509000000E+03 0.  0.
         25    1    3    3    0    0  0.52450211053E+02 -0.44290432698E+02 -0.96763169832E+01  0.14301680418E+03  0.12509000000E+03 0.  0.
         25    1    3    3    0    0  0.16202054030E+02  0.79051848670E+02  0.88643226952E+00  0.14886233639E+03  0.12509000000E+03 0.  0.
<mgrwt>
<rscale>  2 0.45917766E+03</rscale>
<asrwt>0</asrwt>
<pdfrwt beam="1">  1       21 0.40791317E-01 0.45917766E+03</pdfrwt>
<pdfrwt beam="2">  1       21 0.27945761E-01 0.45917766E+03</pdfrwt>
<totfact> 0.65431420E+04</totfact>
</mgrwt>
</event>
<event>
 6    0  0.1539652E-007  0.4554002E+03  0.7546771E-02  0.1026124E+00
         21   -1    0    0  502  501  0.00000000000E+00  0.00000000000E+00  0.37674400521E+03  0.37674400521E+03  0.00000000000E+00 0. -1.
         21   -1    0    0  501  502 -0.00000000000E+00 -0.00000000000E+00 -0.13761952448E+03  0.13761952448E+03  0.00000000000E+00 0. -1.
      99926    2    1    2    0    0  0.71054273576E-14  0.97699626167E-14  0.23912448073E+03  0.51436352969E+03  0.45540017939E+03 0.  0.
         25    1    3    3    0    0  0.36837743345E+02  0.74960623125E+02  0.32545265893E+02  0.15389222458E+03  0.12509000000E+03 0.  0.
         25    1    3    3    0    0 -0.75095707327E+02 -0.68014929598E+02  0.14092267431E+03  0.21394416127E+03  0.12509000000E+03 0.  0.
         25    1    3    3    0    0  0.38257963982E+02 -0.69456935269E+01  0.65656540533E+02  0.14652714384E+03  0.12509000000E+03 0.  0.
<mgrwt>
<rscale>  2 0.45540018E+03</rscale>
<asrwt>0</asrwt>
<pdfrwt beam="1">  1       21 0.55403530E-01 0.45540018E+03</pdfrwt>
<pdfrwt beam="2">  1       21 0.20238165E-01 0.45540018E+03</pdfrwt>
<totfact> 0.64069213E+04</totfact>
</mgrwt>
</event>
<event>
 6    0  0.1539652E-007  0.4525414E+03  0.7546771E-02  0.1026967E+00
         21   -1    0    0  502  501  0.00000000000E+00  0.00000000000E+00  0.21396680274E+03  0.21396680274E+03  0.00000000000E+00 0. -1.
         21   -1    0    0  501  502 -0.00000000000E+00 -0.00000000000E+00 -0.23928215152E+03  0.23928215152E+03  0.00000000000E+00 0. -1.
      99926    2    1    2    0    0  0.00000000000E+00  0.00000000000E+00 -0.25315348776E+02  0.45324895426E+03  0.45254143198E+03 0.  0.
         25    1    3    3    0    0 -0.45444320894E+02  0.50638543390E+02 -0.63177562234E+02  0.15578305700E+03  0.12509000000E+03 0.  0.
         25    1    3    3    0    0  0.21652848867E+02 -0.94972640700E+02  0.36208711189E+02  0.16262603485E+03  0.12509000000E+03 0.  0.
         25    1    3    3    0    0  0.23791472027E+02  0.44334097309E+02  0.16535022694E+01  0.13483986241E+03  0.12509000000E+03 0.  0.
<mgrwt>
<rscale>  2 0.45254143E+03</rscale>
<asrwt>0</asrwt>
<pdfrwt beam="1">  1       21 0.31465706E-01 0.45254143E+03</pdfrwt>
<pdfrwt beam="2">  1       21 0.35188552E-01 0.45254143E+03</pdfrwt>
<totfact> 0.70038148E+04</totfact>
</mgrwt>
</event>
<event>
 6    0  0.1539652E-007  0.4330860E+03  0.7546771E-02  0.1032890E+00
         21   -1    0    0  502  501  0.00000000000E+00  0.00000000000E+00  0.12366915465E+04  0.12366915465E+04  0.00000000000E+00 0.  1.
         21   -1    0    0  501  502 -0.00000000000E+00 -0.00000000000E+00 -0.37916387873E+02  0.37916387873E+02  0.00000000000E+00 0.  1.
      99926    2    1    2    0    0  0.71054273576E-14  0.00000000000E+00  0.11987751586E+04  0.12746079343E+04  0.43308602543E+03 0.  0.
         25    1    3    3    0    0 -0.47227926225E+02 -0.58215652386E+02  0.32152295423E+03  0.35304965287E+03  0.12509000000E+03 0.  0.
         25    1    3    3    0    0 -0.75911326699E+01  0.72674029717E+02  0.43786573365E+03  0.46120824872E+03  0.12509000000E+03 0.  0.
         25    1    3    3    0    0  0.54819058895E+02 -0.14458377331E+02  0.43938647072E+03  0.46035003274E+03  0.12509000000E+03 0.  0.
<mgrwt>
<rscale>  2 0.43308603E+03</rscale>
<asrwt>0</asrwt>
<pdfrwt beam="1">  1       21 0.18186638E+00 0.43308603E+03</pdfrwt>
<pdfrwt beam="2">  1       21 0.55759402E-02 0.43308603E+03</pdfrwt>
<totfact> 0.35545056E+04</totfact>
</mgrwt>
</event>
<event>
 6    0  0.1539652E-007  0.4583752E+03  0.7546771E-02  0.1025254E+00
         21   -1    0    0  502  501  0.00000000000E+00  0.00000000000E+00  0.59957755608E+03  0.59957755608E+03  0.00000000000E+00 0. -1.
         21   -1    0    0  501  502 -0.00000000000E+00 -0.00000000000E+00 -0.87606589731E+02  0.87606589731E+02  0.00000000000E+00 0. -1.
      99926    2    1    2    0    0  0.17763568394E-14  0.35527136788E-14  0.51197096635E+03  0.68718414581E+03  0.45837515189E+03 0.  0.
         25    1    3    3    0    0 -0.48297625336E+02  0.67944041817E+02  0.32014158167E+03  0.35367667981E+03  0.12509000000E+03 0.  0.
         25    1    3    3    0    0 -0.62577733773E+01 -0.21274091455E+02  0.10760573757E+03  0.16648798621E+03  0.12509000000E+03 0.  0.
         25    1    3    3    0    0  0.54555398713E+02 -0.46669950362E+02  0.84223647114E+02  0.16701947979E+03  0.12509000000E+03 0.  0.
<mgrwt>
<rscale>  2 0.45837515E+03</rscale>
<asrwt>0</asrwt>
<pdfrwt beam="1">  1       21 0.88173168E-01 0.45837515E+03</pdfrwt>
<pdfrwt beam="2">  1       21 0.12883322E-01 0.45837515E+03</pdfrwt>
<totfact> 0.52203465E+04</totfact>
</mgrwt>
</event>
<event>
 6    0  0.1539652E-007  0.4532323E+03  0.7546771E-02  0.1026763E+00
         21   -1    0    0  502  501  0.00000000000E+00  0.00000000000E+00  0.50150768358E+03  0.50150768358E+03  0.00000000000E+00 0. -1.
         21   -1    0    0  501  502 -0.00000000000E+00 -0.00000000000E+00 -0.10240096359E+03  0.10240096359E+03  0.00000000000E+00 0. -1.
      99926    2    1    2    0    0  0.00000000000E+00  0.00000000000E+00  0.39910671998E+03  0.60390864717E+03  0.45323225855E+03 0.  0.
         25    1    3    3    0    0 -0.49059714628E+01 -0.72020391728E+02  0.22948680123E+03  0.27115070610E+03  0.12509000000E+03 0.  0.
         25    1    3    3    0    0  0.52682271751E+02  0.39289983932E+02  0.48904063956E+02  0.14952672057E+03  0.12509000000E+03 0.  0.
         25    1    3    3    0    0 -0.47776300288E+02  0.32730407797E+02  0.12071585479E+03  0.18323122049E+03  0.12509000000E+03 0.  0.
<mgrwt>
<rscale>  2 0.45323226E+03</rscale>
<asrwt>0</asrwt>
<pdfrwt beam="1">  1       21 0.73751129E-01 0.45323226E+03</pdfrwt>
<pdfrwt beam="2">  1       21 0.15058965E-01 0.45323226E+03</pdfrwt>
<totfact> 0.59261625E+04</totfact>
</mgrwt>
</event>
<event>
 6    0  0.1539652E-007  0.4614180E+03  0.7546771E-02  0.1024371E+00
         21   -1    0    0  502  501  0.00000000000E+00  0.00000000000E+00  0.13910950190E+03  0.13910950190E+03  0.00000000000E+00 0.  1.
         21   -1    0    0  501  502 -0.00000000000E+00 -0.00000000000E+00 -0.38262408770E+03  0.38262408770E+03  0.00000000000E+00 0.  1.
      99926    2    1    2    0    0  0.00000000000E+00  0.00000000000E+00 -0.24351458580E+03  0.52173358960E+03  0.46141801549E+03 0.  0.
         25    1    3    3    0    0  0.11379297693E+03  0.15209981373E+02 -0.79711308414E+02  0.18756755029E+03  0.12509000000E+03 0.  0.
         25    1    3    3    0    0 -0.89813904746E+02  0.36930141893E+01 -0.48965303182E+02  0.16163317993E+03  0.12509000000E+03 0.  0.
         25    1    3    3    0    0 -0.23979072185E+02 -0.18902995562E+02 -0.11483797420E+03  0.17253285937E+03  0.12509000000E+03 0.  0.
<mgrwt>
<rscale>  2 0.46141802E+03</rscale>
<asrwt>0</asrwt>
<pdfrwt beam="1">  1       21 0.20457280E-01 0.46141802E+03</pdfrwt>
<pdfrwt beam="2">  1       21 0.56268247E-01 0.46141802E+03</pdfrwt>
<totfact> 0.60622908E+04</totfact>
</mgrwt>
</event>
<event>
 6    0  0.1539652E-007  0.4568232E+03  0.7546771E-02  0.1025707E+00
         21   -1    0    0  502  501  0.00000000000E+00  0.00000000000E+00  0.84372555824E+02  0.84372555824E+02  0.00000000000E+00 0.  1.
         21   -1    0    0  501  502 -0.00000000000E+00 -0.00000000000E+00 -0.61835104145E+03  0.61835104145E+03  0.00000000000E+00 0.  1.
      99926    2    1    2    0    0  0.00000000000E+00  0.35527136788E-14 -0.53397848563E+03  0.70272359728E+03  0.45682319452E+03 0.  0.
         25    1    3    3    0    0 -0.62049133689E+02  0.15389549728E+02 -0.76034368020E+02  0.15973624026E+03  0.12509000000E+03 0.  0.
         25    1    3    3    0    0  0.93317719417E+02 -0.34759874790E+02 -0.27921941384E+03  0.32175679452E+03  0.12509000000E+03 0.  0.
         25    1    3    3    0    0 -0.31268585729E+02  0.19370325061E+02 -0.17872470377E+03  0.22123056250E+03  0.12509000000E+03 0.  0.
<mgrwt>
<rscale>  2 0.45682319E+03</rscale>
<asrwt>0</asrwt>
<pdfrwt beam="1">  1       21 0.12407729E-01 0.45682319E+03</pdfrwt>
<pdfrwt beam="2">  1       21 0.90933977E-01 0.45682319E+03</pdfrwt>
<totfact> 0.52005175E+04</totfact>
</mgrwt>
</event>
<event>
 6    0  0.1539652E-007  0.4567637E+03  0.7546771E-02  0.1025724E+00
         21   -1    0    0  502  501  0.00000000000E+00  0.00000000000E+00  0.37115987982E+03  0.37115987982E+03  0.00000000000E+00 0. -1.
         21   -1    0    0  501  502 -0.00000000000E+00 -0.00000000000E+00 -0.14052776179E+03  0.14052776179E+03  0.00000000000E+00 0. -1.
      99926    2    1    2    0    0  0.71054273576E-14  0.00000000000E+00  0.23063211803E+03  0.51168764160E+03  0.45676369022E+03 0.  0.
         25    1    3    3    0    0  0.65557472406E+02  0.44644761234E+02  0.65636950429E+02  0.16200819194E+03  0.12509000000E+03 0.  0.
         25    1    3    3    0    0 -0.86435959950E+02  0.30796538954E+02  0.51304533491E+02  0.16339909804E+03  0.12509000000E+03 0.  0.
         25    1    3    3    0    0  0.20878487543E+02 -0.75441300188E+02  0.11369063411E+03  0.18628035162E+03  0.12509000000E+03 0.  0.
<mgrwt>
<rscale>  2 0.45676369E+03</rscale>
<asrwt>0</asrwt>
<pdfrwt beam="1">  1       21 0.54582335E-01 0.45676369E+03</pdfrwt>
<pdfrwt beam="2">  1       21 0.20665847E-01 0.45676369E+03</pdfrwt>
<totfact> 0.63562772E+04</totfact>
</mgrwt>
</event>
<event>
 6    0  0.1539652E-007  0.4537515E+03  0.7546771E-02  0.1026609E+00
         21   -1    0    0  502  501  0.00000000000E+00  0.00000000000E+00  0.65575227976E+03  0.65575227976E+03  0.00000000000E+00 0. -1.
         21   -1    0    0  501  502 -0.00000000000E+00 -0.00000000000E+00 -0.78493983822E+02  0.78493983822E+02  0.00000000000E+00 0. -1.
      99926    2    1    2    0    0  0.00000000000E+00  0.00000000000E+00  0.57725829594E+03  0.73424626359E+03  0.45375151279E+03 0.  0.
         25    1    3    3    0    0 -0.11151670441E+02 -0.23729391959E+02  0.48506826548E+02  0.13670356293E+03  0.12509000000E+03 0.  0.
         25    1    3    3    0    0  0.35820776948E+02 -0.70066506227E+01  0.16112359510E+03  0.20722099849E+03  0.12509000000E+03 0.  0.
         25    1    3    3    0    0 -0.24669106506E+02  0.30736042582E+02  0.36762787429E+03  0.39032170217E+03  0.12509000000E+03 0.  0.
<mgrwt>
<rscale>  2 0.45375151E+03</rscale>
<asrwt>0</asrwt>
<pdfrwt beam="1">  1       21 0.96434156E-01 0.45375151E+03</pdfrwt>
<pdfrwt beam="2">  1       21 0.11543233E-01 0.45375151E+03</pdfrwt>
<totfact> 0.51587298E+04</totfact>
</mgrwt>
</event>
<event>
 6    0  0.1539652E-007  0.4603165E+03  0.7546771E-02  0.1024689E+00
         21   -1    0    0  502  501  0.00000000000E+00  0.00000000000E+00  0.51376122090E+02  0.51376122090E+02  0.00000000000E+00 0. -1.
         21   -1    0    0  501  502 -0.00000000000E+00 -0.00000000000E+00 -0.10310786347E+04  0.10310786347E+04  0.00000000000E+00 0. -1.
      99926    2    1    2    0    0  0.35527136788E-14 -0.10658141036E-13 -0.97970251257E+03  0.10824547568E+04  0.46031650771E+03 0.  0.
         25    1    3    3    0    0 -0.38009267396E+02 -0.64212538801E+02 -0.52954417158E+03  0.54921079041E+03  0.12509000000E+03 0.  0.
         25    1    3    3    0    0  0.55808159670E+02  0.74818543276E+02 -0.20974537760E+03  0.26144406023E+03  0.12509000000E+03 0.  0.
         25    1    3    3    0    0 -0.17798892275E+02 -0.10606004474E+02 -0.24041296340E+03  0.27179990612E+03  0.12509000000E+03 0.  0.
<mgrwt>
<rscale>  2 0.46031651E+03</rscale>
<asrwt>0</asrwt>
<pdfrwt beam="1">  1       21 0.75553118E-02 0.46031651E+03</pdfrwt>
<pdfrwt beam="2">  1       21 0.15162922E+00 0.46031651E+03</pdfrwt>
<totfact> 0.34648785E+04</totfact>
</mgrwt>
</event>
<event>
 6    0  0.1539652E-007  0.4488932E+03  0.7546771E-02  0.1028053E+00
         21   -1    0    0  502  501  0.00000000000E+00  0.00000000000E+00  0.18925627851E+03  0.18925627851E+03  0.00000000000E+00 0. -1.
         21   -1    0    0  501  502 -0.00000000000E+00 -0.00000000000E+00 -0.26618017008E+03  0.26618017008E+03  0.00000000000E+00 0. -1.
      99926    2    1    2    0    0 -0.71054273576E-14  0.00000000000E+00 -0.76923891574E+02  0.45543644859E+03  0.44889316503E+03 0.  0.
         25    1    3    3    0    0  0.66365544268E+02 -0.41322985868E+02  0.21766229748E+02  0.14910818718E+03  0.12509000000E+03 0.  0.
         25    1    3    3    0    0 -0.42919363647E+02  0.10304334733E+02 -0.11339547908E+03  0.17451158663E+03  0.12509000000E+03 0.  0.
         25    1    3    3    0    0 -0.23446180621E+02  0.31018651135E+02  0.14705357761E+02  0.13181667478E+03  0.12509000000E+03 0.  0.
<mgrwt>
<rscale>  2 0.44889317E+03</rscale>
<asrwt>0</asrwt>
<pdfrwt beam="1">  1       21 0.27831806E-01 0.44889317E+03</pdfrwt>
<pdfrwt beam="2">  1       21 0.39144142E-01 0.44889317E+03</pdfrwt>
<totfact> 0.71955072E+04</totfact>
</mgrwt>
</event>
<event>
 6    0  0.1539652E-007  0.4550734E+03  0.7546771E-02  0.1026220E+00
         21   -1    0    0  502  501  0.00000000000E+00  0.00000000000E+00  0.14707655085E+03  0.14707655085E+03  0.00000000000E+00 0. -1.
         21   -1    0    0  501  502 -0.00000000000E+00 -0.00000000000E+00 -0.35201368617E+03  0.35201368617E+03  0.00000000000E+00 0. -1.
      99926    2    1    2    0    0  0.35527136788E-14  0.00000000000E+00 -0.20493713533E+03  0.49909023702E+03  0.45507343941E+03 0.  0.
         25    1    3    3    0    0  0.35680325415E+02  0.49584281156E+02 -0.16357468765E+03  0.21479262813E+03  0.12509000000E+03 0.  0.
         25    1    3    3    0    0  0.17825981874E+02 -0.62369768986E+02  0.20231780969E+01  0.14092322400E+03  0.12509000000E+03 0.  0.
         25    1    3    3    0    0 -0.53506307289E+02  0.12785487831E+02 -0.43385625771E+02  0.14337438489E+03  0.12509000000E+03 0.  0.
<mgrwt>
<rscale>  2 0.45507344E+03</rscale>
<asrwt>0</asrwt>
<pdfrwt beam="1">  1       21 0.21628905E-01 0.45507344E+03</pdfrwt>
<pdfrwt beam="2">  1       21 0.51766718E-01 0.45507344E+03</pdfrwt>
<totfact> 0.65296547E+04</totfact>
</mgrwt>
</event>
<event>
 6    0  0.1539652E-007  0.4624319E+03  0.7546771E-02  0.1024078E+00
         21   -1    0    0  502  501  0.00000000000E+00  0.00000000000E+00  0.67900230279E+03  0.67900230279E+03  0.00000000000E+00 0. -1.
         21   -1    0    0  501  502 -0.00000000000E+00 -0.00000000000E+00 -0.78734373111E+02  0.78734373111E+02  0.00000000000E+00 0. -1.
      99926    2    1    2    0    0  0.00000000000E+00  0.17763568394E-14  0.60026792967E+03  0.75773667590E+03  0.46243192213E+03 0.  0.
         25    1    3    3    0    0 -0.19483063346E+02 -0.20118499546E+02  0.20332310266E+03  0.24035834905E+03  0.12509000000E+03 0.  0.
         25    1    3    3    0    0  0.11076359001E+03  0.88992405460E+01  0.14484229452E+03  0.22130198313E+03  0.12509000000E+03 0.  0.
         25    1    3    3    0    0 -0.91280526667E+02  0.11219259000E+02  0.25210253249E+03  0.29607634372E+03  0.12509000000E+03 0.  0.
<mgrwt>
<rscale>  2 0.46243192E+03</rscale>
<asrwt>0</asrwt>
<pdfrwt beam="1">  1       21 0.99853276E-01 0.46243192E+03</pdfrwt>
<pdfrwt beam="2">  1       21 0.11578585E-01 0.46243192E+03</pdfrwt>
<totfact> 0.47068270E+04</totfact>
</mgrwt>
</event>
<event>
 6    0  0.1539652E-007  0.4479298E+03  0.7546771E-02  0.1028341E+00
         21   -1    0    0  502  501  0.00000000000E+00  0.00000000000E+00  0.46240964316E+03  0.46240964316E+03  0.00000000000E+00 0. -1.
         21   -1    0    0  501  502 -0.00000000000E+00 -0.00000000000E+00 -0.10847586715E+03  0.10847586715E+03  0.00000000000E+00 0. -1.
      99926    2    1    2    0    0 -0.71054273576E-14 -0.35527136788E-14  0.35393377601E+03  0.57088551030E+03  0.44792984727E+03 0.  0.
         25    1    3    3    0    0  0.56324625094E+02 -0.58626795249E+01  0.90049376752E+02  0.16420484998E+03  0.12509000000E+03 0.  0.
         25    1    3    3    0    0 -0.10838434696E+03  0.29342148046E+02  0.11305279835E+03  0.20257485439E+03  0.12509000000E+03 0.  0.
         25    1    3    3    0    0  0.52059721864E+02 -0.23479468521E+02  0.15083160090E+03  0.20410580593E+03  0.12509000000E+03 0.  0.
<mgrwt>
<rscale>  2 0.44792985E+03</rscale>
<asrwt>0</asrwt>
<pdfrwt beam="1">  1       21 0.68001418E-01 0.44792985E+03</pdfrwt>
<pdfrwt beam="2">  1       21 0.15952334E-01 0.44792985E+03</pdfrwt>
<totfact> 0.64011451E+04</totfact>
</mgrwt>
</event>
<event>
 6    0  0.1539652E-007  0.4616424E+03  0.7546771E-02  0.1024306E+00
         21   -1    0    0  502  501  0.00000000000E+00  0.00000000000E+00  0.92029198294E+03  0.92029198294E+03  0.00000000000E+00 0.  1.
         21   -1    0    0  501  502 -0.00000000000E+00 -0.00000000000E+00 -0.57892951294E+02  0.57892951294E+02  0.00000000000E+00 0.  1.
      99926    2    1    2    0    0  0.14210854715E-13  0.22204460493E-14  0.86239903165E+03  0.97818493424E+03  0.46164236783E+03 0.  0.
         25    1    3    3    0    0 -0.94946023677E+02  0.23678546907E+01  0.22433137176E+03  0.27384745134E+03  0.12509000000E+03 0.  0.
         25    1    3    3    0    0  0.97666540219E+02  0.36268757894E+02  0.41331223415E+03  0.44421693673E+03  0.12509000000E+03 0.  0.
         25    1    3    3    0    0 -0.27205165414E+01 -0.38636612584E+02  0.22475542573E+03  0.26012054617E+03  0.12509000000E+03 0.  0.
<mgrwt>
<rscale>  2 0.46164237E+03</rscale>
<asrwt>0</asrwt>
<pdfrwt beam="1">  1       21 0.13533705E+00 0.46164237E+03</pdfrwt>
<pdfrwt beam="2">  1       21 0.85136699E-02 0.46164237E+03</pdfrwt>
<totfact> 0.38007744E+04</totfact>
</mgrwt>
</event>
<event>
 6    0  0.1539652E-007  0.4490511E+03  0.7546771E-02  0.1028005E+00
         21   -1    0    0  502  501  0.00000000000E+00  0.00000000000E+00  0.21058534214E+03  0.21058534214E+03  0.00000000000E+00 0. -1.
         21   -1    0    0  501  502 -0.00000000000E+00 -0.00000000000E+00 -0.23938854662E+03  0.23938854662E+03  0.00000000000E+00 0. -1.
      99926    2    1    2    0    0 -0.35527136788E-14  0.35527136788E-14 -0.28803204478E+02  0.44997388876E+03  0.44905108393E+03 0.  0.
         25    1    3    3    0    0  0.87885941996E+02  0.19015475904E+02 -0.30761349950E+01  0.15408600790E+03  0.12509000000E+03 0.  0.
         25    1    3    3    0    0 -0.10176473785E+03 -0.35878213321E+02 -0.33904597189E+02  0.16864263361E+03  0.12509000000E+03 0.  0.
         25    1    3    3    0    0  0.13878795853E+02  0.16862737417E+02  0.81775277061E+01  0.12724524725E+03  0.12509000000E+03 0.  0.
<mgrwt>
<rscale>  2 0.44905108E+03</rscale>
<asrwt>0</asrwt>
<pdfrwt beam="1">  1       21 0.30968433E-01 0.44905108E+03</pdfrwt>
<pdfrwt beam="2">  1       21 0.35204198E-01 0.44905108E+03</pdfrwt>
<totfact> 0.72286245E+04</totfact>
</mgrwt>
</event>
<event>
 6    0  0.1539652E-007  0.4583542E+03  0.7546771E-02  0.1025260E+00
         21   -1    0    0  502  501  0.00000000000E+00  0.00000000000E+00  0.11293938735E+03  0.11293938735E+03  0.00000000000E+00 0. -1.
         21   -1    0    0  501  502 -0.00000000000E+00 -0.00000000000E+00 -0.46504716088E+03  0.46504716088E+03  0.00000000000E+00 0. -1.
      99926    2    1    2    0    0 -0.71054273576E-14  0.00000000000E+00 -0.35210777353E+03  0.57798654824E+03  0.45835419248E+03 0.  0.
         25    1    3    3    0    0  0.47174094000E+02 -0.16577396994E+02 -0.73031352475E+02  0.15323606553E+03  0.12509000000E+03 0.  0.
         25    1    3    3    0    0  0.46777516896E+02 -0.57895053395E+02 -0.14712740740E+03  0.20696365720E+03  0.12509000000E+03 0.  0.
         25    1    3    3    0    0 -0.93951610896E+02  0.74472450389E+02 -0.13194901366E+03  0.21778682550E+03  0.12509000000E+03 0.  0.
<mgrwt>
<rscale>  2 0.45835419E+03</rscale>
<asrwt>0</asrwt>
<pdfrwt beam="1">  1       21 0.16608733E-01 0.45835419E+03</pdfrwt>
<pdfrwt beam="2">  1       21 0.68389290E-01 0.45835419E+03</pdfrwt>
<totfact> 0.58487599E+04</totfact>
</mgrwt>
</event>
<event>
 6    0  0.1539652E-007  0.4475214E+03  0.7546771E-02  0.1028464E+00
         21   -1    0    0  502  501  0.00000000000E+00  0.00000000000E+00  0.12339768879E+03  0.12339768879E+03  0.00000000000E+00 0. -1.
         21   -1    0    0  501  502 -0.00000000000E+00 -0.00000000000E+00 -0.40575202085E+03  0.40575202085E+03  0.00000000000E+00 0. -1.
      99926    2    1    2    0    0  0.00000000000E+00  0.00000000000E+00 -0.28235433206E+03  0.52914970964E+03  0.44752144795E+03 0.  0.
         25    1    3    3    0    0  0.27408069027E+02  0.79494749823E+02 -0.62810729563E+02  0.16328904846E+03  0.12509000000E+03 0.  0.
         25    1    3    3    0    0  0.49513666916E+00 -0.90832516230E+01 -0.34630585484E+02  0.13011355107E+03  0.12509000000E+03 0.  0.
         25    1    3    3    0    0 -0.27903205696E+02 -0.70411498200E+02 -0.18491301701E+03  0.23574711012E+03  0.12509000000E+03 0.  0.
<mgrwt>
<rscale>  2 0.44752145E+03</rscale>
<asrwt>0</asrwt>
<pdfrwt beam="1">  1       21 0.18146719E-01 0.44752145E+03</pdfrwt>
<pdfrwt beam="2">  1       21 0.59669415E-01 0.44752145E+03</pdfrwt>
<totfact> 0.67153797E+04</totfact>
</mgrwt>
</event>
<event>
 6    0  0.1539652E-007  0.4713854E+03  0.7546771E-02  0.1021530E+00
         21   -1    0    0  502  501  0.00000000000E+00  0.00000000000E+00  0.54672071335E+03  0.54672071335E+03  0.00000000000E+00 0. -1.
         21   -1    0    0  501  502 -0.00000000000E+00 -0.00000000000E+00 -0.10160774471E+03  0.10160774471E+03  0.00000000000E+00 0. -1.
      99926    2    1    2    0    0  0.35527136788E-14 -0.17763568394E-14  0.44511296864E+03  0.64832845807E+03  0.47138544174E+03 0.  0.
         25    1    3    3    0    0 -0.65001703115E+02  0.59707311660E+02  0.22405210175E+03  0.27136145060E+03  0.12509000000E+03 0.  0.
         25    1    3    3    0    0  0.45709672124E+02 -0.68445147352E+02  0.38426625910E+02  0.15459051071E+03  0.12509000000E+03 0.  0.
         25    1    3    3    0    0  0.19292030991E+02  0.87378356925E+01  0.18263424098E+03  0.22237649676E+03  0.12509000000E+03 0.  0.
<mgrwt>
<rscale>  2 0.47138544E+03</rscale>
<asrwt>0</asrwt>
<pdfrwt beam="1">  1       21 0.80400104E-01 0.47138544E+03</pdfrwt>
<pdfrwt beam="2">  1       21 0.14942316E-01 0.47138544E+03</pdfrwt>
<totfact> 0.49130940E+04</totfact>
</mgrwt>
</event>
<event>
 6    0  0.1539652E-007  0.4509135E+03  0.7546771E-02  0.1027450E+00
         21   -1    0    0  502  501  0.00000000000E+00  0.00000000000E+00  0.24820463729E+03  0.24820463729E+03  0.00000000000E+00 0.  1.
         21   -1    0    0  501  502 -0.00000000000E+00 -0.00000000000E+00 -0.20479366070E+03  0.20479366070E+03  0.00000000000E+00 0.  1.
      99926    2    1    2    0    0  0.17763568394E-14  0.71054273576E-14  0.43410976582E+02  0.45299829799E+03  0.45091345632E+03 0.  0.
         25    1    3    3    0    0 -0.50830802747E+02  0.22945531251E+02 -0.24572148844E+02  0.13914584619E+03  0.12509000000E+03 0.  0.
         25    1    3    3    0    0  0.41495833741E+01 -0.60652418398E+02 -0.32155582263E+02  0.14274951653E+03  0.12509000000E+03 0.  0.
         25    1    3    3    0    0  0.46681219373E+02  0.37706887147E+02  0.10013870769E+03  0.17110293527E+03  0.12509000000E+03 0.  0.
<mgrwt>
<rscale>  2 0.45091346E+03</rscale>
<asrwt>0</asrwt>
<pdfrwt beam="1">  1       21 0.36500682E-01 0.45091346E+03</pdfrwt>
<pdfrwt beam="2">  1       21 0.30116715E-01 0.45091346E+03</pdfrwt>
<totfact> 0.70978864E+04</totfact>
</mgrwt>
</event>
<event>
 6    0  0.1539652E-007  0.4542624E+03  0.7546771E-02  0.1026459E+00
         21   -1    0    0  502  501  0.00000000000E+00  0.00000000000E+00  0.26120165764E+03  0.26120165764E+03  0.00000000000E+00 0. -1.
         21   -1    0    0  501  502 -0.00000000000E+00 -0.00000000000E+00 -0.19750479942E+03  0.19750479942E+03  0.00000000000E+00 0. -1.
      99926    2    1    2    0    0  0.71054273576E-14  0.00000000000E+00  0.63696858223E+02  0.45870645707E+03  0.45426239555E+03 0.  0.
         25    1    3    3    0    0  0.53964266335E+02 -0.29621114241E+02  0.11528189627E+02  0.13989267210E+03  0.12509000000E+03 0.  0.
         25    1    3    3    0    0 -0.80646997703E+02 -0.57623567576E+02  0.22641378735E+02  0.16119725156E+03  0.12509000000E+03 0.  0.
         25    1    3    3    0    0  0.26682731368E+02  0.87244681817E+02  0.29527289862E+02  0.15761653341E+03  0.12509000000E+03 0.  0.
<mgrwt>
<rscale>  2 0.45426240E+03</rscale>
<asrwt>0</asrwt>
<pdfrwt beam="1">  1       21 0.38412008E-01 0.45426240E+03</pdfrwt>
<pdfrwt beam="2">  1       21 0.29044824E-01 0.45426240E+03</pdfrwt>
<totfact> 0.68678038E+04</totfact>
</mgrwt>
</event>
<event>
 6    0  0.1539652E-007  0.4540218E+03  0.7546771E-02  0.1026529E+00
         21   -1    0    0  502  501  0.00000000000E+00  0.00000000000E+00  0.78511088278E+02  0.78511088278E+02  0.00000000000E+00 0. -1.
         21   -1    0    0  501  502 -0.00000000000E+00 -0.00000000000E+00 -0.65639079764E+03  0.65639079764E+03  0.00000000000E+00 0. -1.
      99926    2    1    2    0    0 -0.35527136788E-14 -0.35527136788E-14 -0.57787970936E+03  0.73490188592E+03  0.45402183145E+03 0.  0.
         25    1    3    3    0    0 -0.23097596683E+02  0.73426656816E+02 -0.27252409211E+03  0.30958336806E+03  0.12509000000E+03 0.  0.
         25    1    3    3    0    0  0.11699101048E+02 -0.59231054465E+02 -0.64149199402E+02  0.15299612630E+03  0.12509000000E+03 0.  0.
         25    1    3    3    0    0  0.11398495635E+02 -0.14195602351E+02 -0.24120641785E+03  0.27232239156E+03  0.12509000000E+03 0.  0.
<mgrwt>
<rscale>  2 0.45402183E+03</rscale>
<asrwt>0</asrwt>
<pdfrwt beam="1">  1       21 0.11545748E-01 0.45402183E+03</pdfrwt>
<pdfrwt beam="2">  1       21 0.96528057E-01 0.45402183E+03</pdfrwt>
<totfact> 0.51443162E+04</totfact>
</mgrwt>
</event>
<event>
 6    0  0.1539652E-007  0.4548886E+03  0.7546771E-02  0.1026274E+00
         21   -1    0    0  502  501  0.00000000000E+00  0.00000000000E+00  0.54678579204E+03  0.54678579204E+03  0.00000000000E+00 0.  1.
         21   -1    0    0  501  502 -0.00000000000E+00 -0.00000000000E+00 -0.94609098845E+02  0.94609098845E+02  0.00000000000E+00 0.  1.
      99926    2    1    2    0    0 -0.71054273576E-14 -0.14210854715E-13  0.45217669319E+03  0.64139489089E+03  0.45488860635E+03 0.  0.
         25    1    3    3    0    0  0.46072710406E+02  0.17174861964E+02  0.13499677160E+03  0.19049752484E+03  0.12509000000E+03 0.  0.
         25    1    3    3    0    0 -0.37824543801E+02 -0.93291458391E+02  0.22928255905E+03  0.27991425885E+03  0.12509000000E+03 0.  0.
         25    1    3    3    0    0 -0.82481666043E+01  0.76116596427E+02  0.87897362542E+02  0.17098310719E+03  0.12509000000E+03 0.  0.
<mgrwt>
<rscale>  2 0.45488861E+03</rscale>
<asrwt>0</asrwt>
<pdfrwt beam="1">  1       21 0.80409673E-01 0.45488861E+03</pdfrwt>
<pdfrwt beam="2">  1       21 0.13913103E-01 0.45488861E+03</pdfrwt>
<totfact> 0.56249398E+04</totfact>
</mgrwt>
</event>
<event>
 6    0  0.1539652E-007  0.4528691E+03  0.7546771E-02  0.1026870E+00
         21   -1    0    0  502  501  0.00000000000E+00  0.00000000000E+00  0.52244003609E+03  0.52244003609E+03  0.00000000000E+00 0.  1.
         21   -1    0    0  501  502 -0.00000000000E+00 -0.00000000000E+00 -0.98140655286E+02  0.98140655286E+02  0.00000000000E+00 0.  1.
      99926    2    1    2    0    0  0.00000000000E+00  0.00000000000E+00  0.42429938081E+03  0.62058069138E+03  0.45286910908E+03 0.  0.
         25    1    3    3    0    0  0.29705831919E+01  0.83469187990E+02  0.22176669775E+03  0.26796250865E+03  0.12509000000E+03 0.  0.
         25    1    3    3    0    0 -0.35945256013E+02 -0.53995555773E+02  0.16019555264E+03  0.21334878640E+03  0.12509000000E+03 0.  0.
         25    1    3    3    0    0  0.32974672821E+02 -0.29473632218E+02  0.42337130422E+02  0.13926939634E+03  0.12509000000E+03 0.  0.
<mgrwt>
<rscale>  2 0.45286911E+03</rscale>
<asrwt>0</asrwt>
<pdfrwt beam="1">  1       21 0.76829416E-01 0.45286911E+03</pdfrwt>
<pdfrwt beam="2">  1       21 0.14432450E-01 0.45286911E+03</pdfrwt>
<totfact> 0.58405577E+04</totfact>
</mgrwt>
</event>
<event>
 6    0  0.1539652E-007  0.4549811E+03  0.7546771E-02  0.1026247E+00
         21   -1    0    0  502  501  0.00000000000E+00  0.00000000000E+00  0.11084753677E+03  0.11084753677E+03  0.00000000000E+00 0. -1.
         21   -1    0    0  501  502 -0.00000000000E+00 -0.00000000000E+00 -0.46687500582E+03  0.46687500582E+03  0.00000000000E+00 0. -1.
      99926    2    1    2    0    0  0.00000000000E+00 -0.14210854715E-13 -0.35602746905E+03  0.57772254259E+03  0.45498107378E+03 0.  0.
         25    1    3    3    0    0  0.79328459507E+02  0.90427781081E+02 -0.16258527494E+03  0.23780594569E+03  0.12509000000E+03 0.  0.
         25    1    3    3    0    0 -0.31272110888E+02 -0.40267668242E+02 -0.77345372987E+02  0.15565745998E+03  0.12509000000E+03 0.  0.
         25    1    3    3    0    0 -0.48056348619E+02 -0.50160112839E+02 -0.11609682112E+03  0.18425913692E+03  0.12509000000E+03 0.  0.
<mgrwt>
<rscale>  2 0.45498107E+03</rscale>
<asrwt>0</asrwt>
<pdfrwt beam="1">  1       21 0.16301108E-01 0.45498107E+03</pdfrwt>
<pdfrwt beam="2">  1       21 0.68658089E-01 0.45498107E+03</pdfrwt>
<totfact> 0.60079882E+04</totfact>
</mgrwt>
</event>
<event>
 6    0  0.1539652E-007  0.4769633E+03  0.7546771E-02  0.1019973E+00
         21   -1    0    0  502  501  0.00000000000E+00  0.00000000000E+00  0.79656215752E+03  0.79656215752E+03  0.00000000000E+00 0.  1.
         21   -1    0    0  501  502 -0.00000000000E+00 -0.00000000000E+00 -0.71398693362E+02  0.71398693362E+02  0.00000000000E+00 0.  1.
      99926    2    1    2    0    0  0.00000000000E+00  0.00000000000E+00  0.72516346415E+03  0.86796085088E+03  0.47696329933E+03 0.  0.
         25    1    3    3    0    0  0.10316162942E+03 -0.56165270517E+02  0.35498178972E+03  0.39427964509E+03  0.12509000000E+03 0.  0.
         25    1    3    3    0    0 -0.20627014112E+02 -0.18451964612E+02  0.16172123738E+03  0.20631823824E+03  0.12509000000E+03 0.  0.
         25    1    3    3    0    0 -0.82534615309E+02  0.74617235129E+02  0.20846043705E+03  0.26736296755E+03  0.12509000000E+03 0.  0.
<mgrwt>
<rscale>  2 0.47696330E+03</rscale>
<asrwt>0</asrwt>
<pdfrwt beam="1">  1       21 0.11714149E+00 0.47696330E+03</pdfrwt>
<pdfrwt beam="2">  1       21 0.10499808E-01 0.47696330E+03</pdfrwt>
<totfact> 0.37716789E+04</totfact>
</mgrwt>
</event>
<event>
 6    0  0.1539652E-007  0.4556087E+03  0.7546771E-02  0.1026063E+00
         21   -1    0    0  502  501  0.00000000000E+00  0.00000000000E+00  0.15240017871E+03  0.15240017871E+03  0.00000000000E+00 0.  1.
         21   -1    0    0  501  502 -0.00000000000E+00 -0.00000000000E+00 -0.34051683226E+03  0.34051683226E+03  0.00000000000E+00 0.  1.
      99926    2    1    2    0    0  0.71054273576E-14  0.00000000000E+00 -0.18811665355E+03  0.49291701096E+03  0.45560871848E+03 0.  0.
         25    1    3    3    0    0 -0.84154759515E+02  0.16409387895E+02 -0.60349931535E+02  0.16322044571E+03  0.12509000000E+03 0.  0.
         25    1    3    3    0    0  0.31366745320E+02 -0.67287460460E+02 -0.11252743645E+03  0.18390597354E+03  0.12509000000E+03 0.  0.
         25    1    3    3    0    0  0.52788014195E+02  0.50878072566E+02 -0.15239285559E+02  0.14579059172E+03  0.12509000000E+03 0.  0.
<mgrwt>
<rscale>  2 0.45560872E+03</rscale>
<asrwt>0</asrwt>
<pdfrwt beam="1">  1       21 0.22411791E-01 0.45560872E+03</pdfrwt>
<pdfrwt beam="2">  1       21 0.50076005E-01 0.45560872E+03</pdfrwt>
<totfact> 0.65454303E+04</totfact>
</mgrwt>
</event>
<event>
 6    0  0.1539652E-007  0.4369137E+03  0.7546771E-02  0.1031698E+00
         21   -1    0    0  502  501  0.00000000000E+00  0.00000000000E+00  0.42093907055E+02  0.42093907055E+02  0.00000000000E+00 0.  1.
         21   -1    0    0  501  502 -0.00000000000E+00 -0.00000000000E+00 -0.11337363573E+04  0.11337363573E+04  0.00000000000E+00 0.  1.
      99926    2    1    2    0    0 -0.71054273576E-14  0.00000000000E+00 -0.10916424503E+04  0.11758302644E+04  0.43691368873E+03 0.  0.
         25    1    3    3    0    0  0.32793030295E+02  0.34538057184E+02 -0.36093077691E+03  0.38495037868E+03  0.12509000000E+03 0.  0.
         25    1    3    3    0    0  0.51763798915E+02 -0.58590073900E+02 -0.31162850737E+03  0.34477836699E+03  0.12509000000E+03 0.  0.
         25    1    3    3    0    0 -0.84556829210E+02  0.24052016716E+02 -0.41908316600E+03  0.44610151871E+03  0.12509000000E+03 0.  0.
<mgrwt>
<rscale>  2 0.43691369E+03</rscale>
<asrwt>0</asrwt>
<pdfrwt beam="1">  1       21 0.61902818E-02 0.43691369E+03</pdfrwt>
<pdfrwt beam="2">  1       21 0.16672590E+00 0.43691369E+03</pdfrwt>
<totfact> 0.38012453E+04</totfact>
</mgrwt>
</event>
<event>
 6    0  0.1539652E-007  0.4549439E+03  0.7546771E-02  0.1026258E+00
         21   -1    0    0  502  501  0.00000000000E+00  0.00000000000E+00  0.86876944413E+02  0.86876944413E+02  0.00000000000E+00 0.  1.
         21   -1    0    0  501  502 -0.00000000000E+00 -0.00000000000E+00 -0.59559520466E+03  0.59559520466E+03  0.00000000000E+00 0.  1.
      99926    2    1    2    0    0  0.00000000000E+00  0.71054273576E-14 -0.50871826025E+03  0.68247214908E+03  0.45494391517E+03 0.  0.
         25    1    3    3    0    0 -0.72955047857E+02  0.21623646713E+02 -0.15754910710E+03  0.21507963724E+03  0.12509000000E+03 0.  0.
         25    1    3    3    0    0 -0.14436919762E+02 -0.73966550966E+02 -0.14738053092E+03  0.20748012991E+03  0.12509000000E+03 0.  0.
         25    1    3    3    0    0  0.87391967619E+02  0.52342904253E+02 -0.20378862223E+03  0.25991238193E+03  0.12509000000E+03 0.  0.
<mgrwt>
<rscale>  2 0.45494392E+03</rscale>
<asrwt>0</asrwt>
<pdfrwt beam="1">  1       21 0.12776021E-01 0.45494392E+03</pdfrwt>
<pdfrwt beam="2">  1       21 0.87587530E-01 0.45494392E+03</pdfrwt>
<totfact> 0.53889089E+04</totfact>
</mgrwt>
</event>
<event>
 6    0  0.1539652E-007  0.4569929E+03  0.7546771E-02  0.1025657E+00
         21   -1    0    0  502  501  0.00000000000E+00  0.00000000000E+00  0.82466450027E+03  0.82466450027E+03  0.00000000000E+00 0.  1.
         21   -1    0    0  501  502 -0.00000000000E+00 -0.00000000000E+00 -0.63311344960E+02  0.63311344960E+02  0.00000000000E+00 0.  1.
      99926    2    1    2    0    0  0.71054273576E-14  0.71054273576E-14  0.76135315531E+03  0.88797584523E+03  0.45699286057E+03 0.  0.
         25    1    3    3    0    0 -0.52793516201E+02 -0.71747332437E+02  0.27861891742E+03  0.31813651835E+03  0.12509000000E+03 0.  0.
         25    1    3    3    0    0  0.97811793632E+02  0.41563337217E+02  0.29846759047E+03  0.34062452735E+03  0.12509000000E+03 0.  0.
         25    1    3    3    0    0 -0.45018277430E+02  0.30183995220E+02  0.18426664743E+03  0.22921479953E+03  0.12509000000E+03 0.  0.
<mgrwt>
<rscale>  2 0.45699286E+03</rscale>
<asrwt>0</asrwt>
<pdfrwt beam="1">  1       21 0.12127418E+00 0.45699286E+03</pdfrwt>
<pdfrwt beam="2">  1       21 0.93104924E-02 0.45699286E+03</pdfrwt>
<totfact> 0.43081394E+04</totfact>
</mgrwt>
</event>
<event>
 6    0  0.1539652E-007  0.4477305E+03  0.7546771E-02  0.1028401E+00
         21   -1    0    0  502  501  0.00000000000E+00  0.00000000000E+00  0.82215477500E+03  0.82215477500E+03  0.00000000000E+00 0.  1.
         21   -1    0    0  501  502 -0.00000000000E+00 -0.00000000000E+00 -0.60956472344E+02  0.60956472344E+02  0.00000000000E+00 0.  1.
      99926    2    1    2    0    0  0.00000000000E+00  0.00000000000E+00  0.76119830266E+03  0.88311124735E+03  0.44773052076E+03 0.  0.
         25    1    3    3    0    0  0.52875767574E+02 -0.69049328394E+02  0.37034066751E+03  0.40045396073E+03  0.12509000000E+03 0.  0.
         25    1    3    3    0    0 -0.18786044552E+02  0.64582480866E+02  0.13579135442E+03  0.19649583288E+03  0.12509000000E+03 0.  0.
         25    1    3    3    0    0 -0.34089723021E+02  0.44668475289E+01  0.25506628072E+03  0.28616145374E+03  0.12509000000E+03 0.  0.
<mgrwt>
<rscale>  2 0.44773052E+03</rscale>
<asrwt>0</asrwt>
<pdfrwt beam="1">  1       21 0.12090511E+00 0.44773052E+03</pdfrwt>
<pdfrwt beam="2">  1       21 0.89641876E-02 0.44773052E+03</pdfrwt>
<totfact> 0.46566996E+04</totfact>
</mgrwt>
</event>
<event>
 6    0  0.1539652E-007  0.4589267E+03  0.7546771E-02  0.1025093E+00
         21   -1    0    0  502  501  0.00000000000E+00  0.00000000000E+00  0.44205972357E+03  0.44205972357E+03  0.00000000000E+00 0. -1.
         21   -1    0    0  501  502 -0.00000000000E+00 -0.00000000000E+00 -0.11910930323E+03  0.11910930323E+03  0.00000000000E+00 0. -1.
      99926    2    1    2    0    0  0.00000000000E+00 -0.53290705182E-14  0.32295042034E+03  0.56116902680E+03  0.45892668548E+03 0.  0.
         25    1    3    3    0    0 -0.32531572141E+02  0.85267487070E+01  0.24779566103E+02  0.13188079324E+03  0.12509000000E+03 0.  0.
         25    1    3    3    0    0  0.24988237514E+02  0.77467221732E+02  0.10042797977E+03  0.17988571282E+03  0.12509000000E+03 0.  0.
         25    1    3    3    0    0  0.75433346276E+01 -0.85993970439E+02  0.19774287447E+03  0.24940252074E+03  0.12509000000E+03 0.  0.
<mgrwt>
<rscale>  2 0.45892669E+03</rscale>
<asrwt>0</asrwt>
<pdfrwt beam="1">  1       21 0.65008782E-01 0.45892669E+03</pdfrwt>
<pdfrwt beam="2">  1       21 0.17516074E-01 0.45892669E+03</pdfrwt>
<totfact> 0.59271942E+04</totfact>
</mgrwt>
</event>
<event>
 6    0  0.1539652E-007  0.4553171E+03  0.7546771E-02  0.1026148E+00
         21   -1    0    0  502  501  0.00000000000E+00  0.00000000000E+00  0.20556001598E+03  0.20556001598E+03  0.00000000000E+00 0.  1.
         21   -1    0    0  501  502 -0.00000000000E+00 -0.00000000000E+00 -0.25213272961E+03  0.25213272961E+03  0.00000000000E+00 0.  1.
      99926    2    1    2    0    0  0.00000000000E+00  0.35527136788E-14 -0.46572713623E+02  0.45769274559E+03  0.45531706723E+03 0.  0.
         25    1    3    3    0    0 -0.32399212975E+02 -0.18295061775E+02 -0.75603612783E+02  0.15082384643E+03  0.12509000000E+03 0.  0.
         25    1    3    3    0    0  0.26926104427E+01 -0.64844204046E+02  0.55557187363E+02  0.15147980102E+03  0.12509000000E+03 0.  0.
         25    1    3    3    0    0  0.29706602532E+02  0.83139265821E+02 -0.26526288204E+02  0.15538909814E+03  0.12509000000E+03 0.  0.
<mgrwt>
<rscale>  2 0.45531707E+03</rscale>
<asrwt>0</asrwt>
<pdfrwt beam="1">  1       21 0.30229414E-01 0.45531707E+03</pdfrwt>
<pdfrwt beam="2">  1       21 0.37078343E-01 0.45531707E+03</pdfrwt>
<totfact> 0.68176324E+04</totfact>
</mgrwt>
</event>
<event>
 6    0  0.1539652E-007  0.4774037E+03  0.7546771E-02  0.1019851E+00
         21   -1    0    0  502  501  0.00000000000E+00  0.00000000000E+00  0.30440071514E+03  0.30440071514E+03  0.00000000000E+00 0.  1.
         21   -1    0    0  501  502 -0.00000000000E+00 -0.00000000000E+00 -0.18718282041E+03  0.18718282041E+03  0.00000000000E+00 0.  1.
      99926    2    1    2    0    0  0.71054273576E-14  0.00000000000E+00  0.11721789473E+03  0.49158353555E+03  0.47740374693E+03 0.  0.
         25    1    3    3    0    0 -0.69155911404E+02  0.56619456403E+02  0.10085772055E+03  0.18386976592E+03  0.12509000000E+03 0.  0.
         25    1    3    3    0    0  0.57547341639E+01  0.45523468912E+02 -0.19574649800E+01  0.13325480463E+03  0.12509000000E+03 0.  0.
         25    1    3    3    0    0  0.63401177240E+02 -0.10214292531E+03  0.18317639160E+02  0.17445896501E+03  0.12509000000E+03 0.  0.
<mgrwt>
<rscale>  2 0.47740375E+03</rscale>
<asrwt>0</asrwt>
<pdfrwt beam="1">  1       21 0.44764811E-01 0.47740375E+03</pdfrwt>
<pdfrwt beam="2">  1       21 0.27526885E-01 0.47740375E+03</pdfrwt>
<totfact> 0.55348685E+04</totfact>
</mgrwt>
</event>
<event>
 6    0  0.1539652E-007  0.4579929E+03  0.7546771E-02  0.1025365E+00
         21   -1    0    0  502  501  0.00000000000E+00  0.00000000000E+00  0.20949925353E+03  0.20949925353E+03  0.00000000000E+00 0.  1.
         21   -1    0    0  501  502 -0.00000000000E+00 -0.00000000000E+00 -0.25030819093E+03  0.25030819093E+03  0.00000000000E+00 0.  1.
      99926    2    1    2    0    0 -0.71054273576E-14  0.17763568394E-14 -0.40808937398E+02  0.45980744446E+03  0.45799292201E+03 0.  0.
         25    1    3    3    0    0  0.36804973816E+02 -0.11562944037E+02 -0.24480215779E+02  0.13317318363E+03  0.12509000000E+03 0.  0.
         25    1    3    3    0    0 -0.12066893345E+03  0.22323659128E+02 -0.76897373738E+01  0.17540233014E+03  0.12509000000E+03 0.  0.
         25    1    3    3    0    0  0.83863959631E+02 -0.10760715091E+02 -0.86389842450E+01  0.15123193070E+03  0.12509000000E+03 0.  0.
<mgrwt>
<rscale>  2 0.45799292E+03</rscale>
<asrwt>0</asrwt>
<pdfrwt beam="1">  1       21 0.30808714E-01 0.45799292E+03</pdfrwt>
<pdfrwt beam="2">  1       21 0.36810028E-01 0.45799292E+03</pdfrwt>
<totfact> 0.66590637E+04</totfact>
</mgrwt>
</event>
<event>
 6    0  0.1539652E-007  0.4558313E+03  0.7546771E-02  0.1025997E+00
         21   -1    0    0  502  501  0.00000000000E+00  0.00000000000E+00  0.57483478577E+03  0.57483478577E+03  0.00000000000E+00 0.  1.
         21   -1    0    0  501  502 -0.00000000000E+00 -0.00000000000E+00 -0.90366052158E+02  0.90366052158E+02  0.00000000000E+00 0.  1.
      99926    2    1    2    0    0  0.00000000000E+00  0.00000000000E+00  0.48446873361E+03  0.66520083793E+03  0.45583132948E+03 0.  0.
         25    1    3    3    0    0 -0.90234895123E+02  0.69826884536E+01  0.13727381474E+03  0.20659792485E+03  0.12509000000E+03 0.  0.
         25    1    3    3    0    0 -0.86991057634E+01  0.41948321498E+02  0.16769655231E+03  0.21355322024E+03  0.12509000000E+03 0.  0.
         25    1    3    3    0    0  0.98934000886E+02 -0.48931009951E+02  0.17949836656E+03  0.24504969284E+03  0.12509000000E+03 0.  0.
<mgrwt>
<rscale>  2 0.45583133E+03</rscale>
<asrwt>0</asrwt>
<pdfrwt beam="1">  1       21 0.84534526E-01 0.45583133E+03</pdfrwt>
<pdfrwt beam="2">  1       21 0.13289126E-01 0.45583133E+03</pdfrwt>
<totfact> 0.54475248E+04</totfact>
</mgrwt>
</event>
<event>
 6    0  0.1539652E-007  0.4560155E+03  0.7546771E-02  0.1025943E+00
         21   -1    0    0  502  501  0.00000000000E+00  0.00000000000E+00  0.91482128764E+03  0.91482128764E+03  0.00000000000E+00 0. -1.
         21   -1    0    0  501  502 -0.00000000000E+00 -0.00000000000E+00 -0.56828074867E+02  0.56828074867E+02  0.00000000000E+00 0. -1.
      99926    2    1    2    0    0  0.00000000000E+00  0.00000000000E+00  0.85799321278E+03  0.97164936251E+03  0.45601549370E+03 0.  0.
         25    1    3    3    0    0  0.56796040088E+02  0.48083020801E+02  0.43039454175E+03  0.45433989119E+03  0.12509000000E+03 0.  0.
         25    1    3    3    0    0 -0.38062335225E+02 -0.84562895148E+02  0.27272933525E+03  0.31405162475E+03  0.12509000000E+03 0.  0.
         25    1    3    3    0    0 -0.18733704863E+02  0.36479874347E+02  0.15486933577E+03  0.20325784657E+03  0.12509000000E+03 0.  0.
<mgrwt>
<rscale>  2 0.45601549E+03</rscale>
<asrwt>0</asrwt>
<pdfrwt beam="1">  1       21 0.13453253E+00 0.45601549E+03</pdfrwt>
<pdfrwt beam="2">  1       21 0.83570704E-02 0.45601549E+03</pdfrwt>
<totfact> 0.39958206E+04</totfact>
</mgrwt>
</event>
<event>
 6    0  0.1539652E-007  0.4578432E+03  0.7546771E-02  0.1025409E+00
         21   -1    0    0  502  501  0.00000000000E+00  0.00000000000E+00  0.15510254174E+03  0.15510254174E+03  0.00000000000E+00 0.  1.
         21   -1    0    0  501  502 -0.00000000000E+00 -0.00000000000E+00 -0.33787392683E+03  0.33787392683E+03  0.00000000000E+00 0.  1.
      99926    2    1    2    0    0  0.00000000000E+00 -0.71054273576E-14 -0.18277138510E+03  0.49297646857E+03  0.45784322573E+03 0.  0.
         25    1    3    3    0    0 -0.29393066217E+02  0.33584016796E+02 -0.47692677179E+01  0.13289880564E+03  0.12509000000E+03 0.  0.
         25    1    3    3    0    0  0.73783714283E+02 -0.39069638247E+02 -0.17002160045E+03  0.22699190701E+03  0.12509000000E+03 0.  0.
         25    1    3    3    0    0 -0.44390648066E+02  0.54856214506E+01 -0.79805169244E+01  0.13308575592E+03  0.12509000000E+03 0.  0.
<mgrwt>
<rscale>  2 0.45784323E+03</rscale>
<asrwt>0</asrwt>
<pdfrwt beam="1">  1       21 0.22809198E-01 0.45784323E+03</pdfrwt>
<pdfrwt beam="2">  1       21 0.49687342E-01 0.45784323E+03</pdfrwt>
<totfact> 0.64303233E+04</totfact>
</mgrwt>
</event>
<event>
 6    0  0.1539652E-007  0.4541052E+03  0.7546771E-02  0.1026505E+00
         21   -1    0    0  502  501  0.00000000000E+00  0.00000000000E+00  0.14510455545E+03  0.14510455545E+03  0.00000000000E+00 0.  1.
         21   -1    0    0  501  502 -0.00000000000E+00 -0.00000000000E+00 -0.35528096530E+03  0.35528096530E+03  0.00000000000E+00 0.  1.
      99926    2    1    2    0    0  0.00000000000E+00  0.71054273576E-14 -0.21017640985E+03  0.50038552074E+03  0.45410521480E+03 0.  0.
         25    1    3    3    0    0 -0.59891004399E+02  0.59467172862E+02 -0.10098176658E+03  0.18157120460E+03  0.12509000000E+03 0.  0.
         25    1    3    3    0    0  0.93188931937E+02 -0.41675142415E+02 -0.95124974484E+02  0.18739600690E+03  0.12509000000E+03 0.  0.
         25    1    3    3    0    0 -0.33297927538E+02 -0.17792030448E+02 -0.14069668783E+02  0.13141830925E+03  0.12509000000E+03 0.  0.
<mgrwt>
<rscale>  2 0.45410521E+03</rscale>
<asrwt>0</asrwt>
<pdfrwt beam="1">  1       21 0.21338905E-01 0.45410521E+03</pdfrwt>
<pdfrwt beam="2">  1       21 0.52247200E-01 0.45410521E+03</pdfrwt>
<totfact> 0.65709062E+04</totfact>
</mgrwt>
</event>
<event>
 6    0  0.1539652E-007  0.4549440E+03  0.7546771E-02  0.1026258E+00
         21   -1    0    0  502  501  0.00000000000E+00  0.00000000000E+00  0.18833643225E+03  0.18833643225E+03  0.00000000000E+00 0. -1.
         21   -1    0    0  501  502 -0.00000000000E+00 -0.00000000000E+00 -0.27473975877E+03  0.27473975877E+03  0.00000000000E+00 0. -1.
      99926    2    1    2    0    0 -0.44408920985E-15  0.17763568394E-14 -0.86403326525E+02  0.46307619102E+03  0.45494397881E+03 0.  0.
         25    1    3    3    0    0 -0.66648632785E+02 -0.88199689641E+01  0.41720565248E+02  0.14801332970E+03  0.12509000000E+03 0.  0.
         25    1    3    3    0    0  0.69604306254E+02  0.21813237583E+02 -0.14465455174E+02  0.14552434256E+03  0.12509000000E+03 0.  0.
         25    1    3    3    0    0 -0.29556734691E+01 -0.12993268619E+02 -0.11365843660E+03  0.16953851876E+03  0.12509000000E+03 0.  0.
<mgrwt>
<rscale>  2 0.45494398E+03</rscale>
<asrwt>0</asrwt>
<pdfrwt beam="1">  1       21 0.27696534E-01 0.45494398E+03</pdfrwt>
<pdfrwt beam="2">  1       21 0.40402906E-01 0.45494398E+03</pdfrwt>
<totfact> 0.67983488E+04</totfact>
</mgrwt>
</event>
<event>
 6    0  0.1539652E-007  0.4601689E+03  0.7546771E-02  0.1024732E+00
         21   -1    0    0  502  501  0.00000000000E+00  0.00000000000E+00  0.21754927922E+03  0.21754927922E+03  0.00000000000E+00 0. -1.
         21   -1    0    0  501  502 -0.00000000000E+00 -0.00000000000E+00 -0.24334194464E+03  0.24334194464E+03  0.00000000000E+00 0. -1.
      99926    2    1    2    0    0  0.71054273576E-14 -0.14210854715E-13 -0.25792665418E+02  0.46089122386E+03  0.46016894576E+03 0.  0.
         25    1    3    3    0    0  0.14885654105E+02  0.68855702116E+02 -0.35935225935E+02  0.14799168549E+03  0.12509000000E+03 0.  0.
         25    1    3    3    0    0 -0.65107933783E+02  0.26981670242E+02 -0.19422997876E+02  0.14488552211E+03  0.12509000000E+03 0.  0.
         25    1    3    3    0    0  0.50222279678E+02 -0.95837372359E+02  0.29565558392E+02  0.16801401626E+03  0.12509000000E+03 0.  0.
<mgrwt>
<rscale>  2 0.46016895E+03</rscale>
<asrwt>0</asrwt>
<pdfrwt beam="1">  1       21 0.31992541E-01 0.46016895E+03</pdfrwt>
<pdfrwt beam="2">  1       21 0.35785580E-01 0.46016895E+03</pdfrwt>
<totfact> 0.65378148E+04</totfact>
</mgrwt>
</event>
<event>
 6    0  0.1539652E-007  0.4643046E+03  0.7546771E-02  0.1023540E+00
         21   -1    0    0  502  501  0.00000000000E+00  0.00000000000E+00  0.15873618957E+03  0.15873618957E+03  0.00000000000E+00 0.  1.
         21   -1    0    0  501  502 -0.00000000000E+00 -0.00000000000E+00 -0.33952358012E+03  0.33952358012E+03  0.00000000000E+00 0.  1.
      99926    2    1    2    0    0  0.00000000000E+00  0.00000000000E+00 -0.18078739055E+03  0.49825976969E+03  0.46430455254E+03 0.  0.
         25    1    3    3    0    0 -0.24619875710E+02 -0.59548700406E+02 -0.17371270652E+03  0.22355267501E+03  0.12509000000E+03 0.  0.
         25    1    3    3    0    0  0.29141595929E+02  0.41531905584E+02  0.38358416911E+02  0.14033177845E+03  0.12509000000E+03 0.  0.
         25    1    3    3    0    0 -0.45217202194E+01  0.18016794822E+02 -0.45433100944E+02  0.13437531623E+03  0.12509000000E+03 0.  0.
<mgrwt>
<rscale>  2 0.46430455E+03</rscale>
<asrwt>0</asrwt>
<pdfrwt beam="1">  1       21 0.23343558E-01 0.46430455E+03</pdfrwt>
<pdfrwt beam="2">  1       21 0.49929937E-01 0.46430455E+03</pdfrwt>
<totfact> 0.60778121E+04</totfact>
</mgrwt>
</event>
<event>
 6    0  0.1539652E-007  0.4605272E+03  0.7546771E-02  0.1024628E+00
         21   -1    0    0  502  501  0.00000000000E+00  0.00000000000E+00  0.14868523748E+04  0.14868523748E+04  0.00000000000E+00 0.  1.
         21   -1    0    0  501  502 -0.00000000000E+00 -0.00000000000E+00 -0.35660117057E+02  0.35660117057E+02  0.00000000000E+00 0.  1.
      99926    2    1    2    0    0  0.35527136788E-14  0.00000000000E+00  0.14511922577E+04  0.15225124918E+04  0.46052721844E+03 0.  0.
         25    1    3    3    0    0  0.76853136702E+02 -0.17990665469E+02  0.87853471682E+03  0.89089888619E+03  0.12509000000E+03 0.  0.
         25    1    3    3    0    0 -0.29783784328E+02  0.67862727195E+01  0.33215758179E+03  0.35624330807E+03  0.12509000000E+03 0.  0.
         25    1    3    3    0    0 -0.47069352374E+02  0.11204392750E+02  0.24049995911E+03  0.27537029757E+03  0.12509000000E+03 0.  0.
<mgrwt>
<rscale>  2 0.46052722E+03</rscale>
<asrwt>0</asrwt>
<pdfrwt beam="1">  1       21 0.21865472E+00 0.46052722E+03</pdfrwt>
<pdfrwt beam="2">  1       21 0.52441358E-02 0.46052722E+03</pdfrwt>
<totfact> 0.22261629E+04</totfact>
</mgrwt>
</event>
<event>
 6    0  0.1539652E-007  0.4638238E+03  0.7546771E-02  0.1023678E+00
         21   -1    0    0  502  501  0.00000000000E+00  0.00000000000E+00  0.67433777703E+03  0.67433777703E+03  0.00000000000E+00 0.  1.
         21   -1    0    0  501  502 -0.00000000000E+00 -0.00000000000E+00 -0.79756951432E+02  0.79756951432E+02  0.00000000000E+00 0.  1.
      99926    2    1    2    0    0  0.14210854715E-13  0.00000000000E+00  0.59458082559E+03  0.75409472846E+03  0.46382378262E+03 0.  0.
         25    1    3    3    0    0  0.94855856859E+02  0.29464225130E+02  0.22695915710E+03  0.27753151395E+03  0.12509000000E+03 0.  0.
         25    1    3    3    0    0 -0.86702865358E+02 -0.50321952171E+02  0.27852782349E+03  0.32136418950E+03  0.12509000000E+03 0.  0.
         25    1    3    3    0    0 -0.81529915012E+01  0.20857727041E+02  0.89093845001E+02  0.15519902501E+03  0.12509000000E+03 0.  0.
<mgrwt>
<rscale>  2 0.46382378E+03</rscale>
<asrwt>0</asrwt>
<pdfrwt beam="1">  1       21 0.99167317E-01 0.46382378E+03</pdfrwt>
<pdfrwt beam="2">  1       21 0.11728964E-01 0.46382378E+03</pdfrwt>
<totfact> 0.46736260E+04</totfact>
</mgrwt>
</event>
<event>
 6    0  0.1539652E-007  0.4549396E+03  0.7546771E-02  0.1026259E+00
         21   -1    0    0  502  501  0.00000000000E+00  0.00000000000E+00  0.32815440618E+03  0.32815440618E+03  0.00000000000E+00 0.  1.
         21   -1    0    0  501  502 -0.00000000000E+00 -0.00000000000E+00 -0.15767735382E+03  0.15767735382E+03  0.00000000000E+00 0.  1.
      99926    2    1    2    0    0  0.53290705182E-14  0.71054273576E-14  0.17047705236E+03  0.48583175999E+03  0.45493963736E+03 0.  0.
         25    1    3    3    0    0 -0.77660952825E+00 -0.51043388277E+02  0.93947831574E+02  0.16455921052E+03  0.12509000000E+03 0.  0.
         25    1    3    3    0    0 -0.55985925519E+02 -0.18376335183E+02 -0.19826358576E+02  0.13968788833E+03  0.12509000000E+03 0.  0.
         25    1    3    3    0    0  0.56762535047E+02  0.69419723460E+02  0.96355579361E+02  0.18158466115E+03  0.12509000000E+03 0.  0.
<mgrwt>
<rscale>  2 0.45493964E+03</rscale>
<asrwt>0</asrwt>
<pdfrwt beam="1">  1       21 0.48258001E-01 0.45493964E+03</pdfrwt>
<pdfrwt beam="2">  1       21 0.23187846E-01 0.45493964E+03</pdfrwt>
<totfact> 0.66309751E+04</totfact>
</mgrwt>
</event>
<event>
 6    0  0.1539652E-007  0.4465157E+03  0.7546771E-02  0.1028766E+00
         21   -1    0    0  502  501  0.00000000000E+00  0.00000000000E+00  0.10251775391E+03  0.10251775391E+03  0.00000000000E+00 0.  1.
         21   -1    0    0  501  502 -0.00000000000E+00 -0.00000000000E+00 -0.48619926431E+03  0.48619926431E+03  0.00000000000E+00 0.  1.
      99926    2    1    2    0    0  0.00000000000E+00  0.35527136788E-14 -0.38368151040E+03  0.58871701822E+03  0.44651565048E+03 0.  0.
         25    1    3    3    0    0 -0.10297970104E+03 -0.23638460123E+02 -0.12743637685E+03  0.20748767161E+03  0.12509000000E+03 0.  0.
         25    1    3    3    0    0  0.53104490697E+02  0.72774807734E+01 -0.17986478003E+03  0.22554799014E+03  0.12509000000E+03 0.  0.
         25    1    3    3    0    0  0.49875210346E+02  0.16360979349E+02 -0.76380353511E+02  0.15568135648E+03  0.12509000000E+03 0.  0.
<mgrwt>
<rscale>  2 0.44651565E+03</rscale>
<asrwt>0</asrwt>
<pdfrwt beam="1">  1       21 0.15076140E-01 0.44651565E+03</pdfrwt>
<pdfrwt beam="2">  1       21 0.71499891E-01 0.44651565E+03</pdfrwt>
<totfact> 0.63532472E+04</totfact>
</mgrwt>
</event>
<event>
 6    0  0.1539652E-007  0.4464246E+03  0.7546771E-02  0.1028794E+00
         21   -1    0    0  502  501  0.00000000000E+00  0.00000000000E+00  0.20017705806E+03  0.20017705806E+03  0.00000000000E+00 0. -1.
         21   -1    0    0  501  502 -0.00000000000E+00 -0.00000000000E+00 -0.24889831606E+03  0.24889831606E+03  0.00000000000E+00 0. -1.
      99926    2    1    2    0    0  0.00000000000E+00  0.00000000000E+00 -0.48721258000E+02  0.44907537412E+03  0.44642460804E+03 0.  0.
         25    1    3    3    0    0  0.53933603699E+02  0.43847179393E+02 -0.69821554258E+02  0.15922928841E+03  0.12509000000E+03 0.  0.
         25    1    3    3    0    0 -0.41367040180E+02  0.37989857518E+02  0.26860856598E+02  0.13972642916E+03  0.12509000000E+03 0.  0.
         25    1    3    3    0    0 -0.12566563519E+02 -0.81837036911E+02 -0.57605603389E+01  0.15011965656E+03  0.12509000000E+03 0.  0.
<mgrwt>
<rscale>  2 0.44642461E+03</rscale>
<asrwt>0</asrwt>
<pdfrwt beam="1">  1       21 0.29437803E-01 0.44642461E+03</pdfrwt>
<pdfrwt beam="2">  1       21 0.36602693E-01 0.44642461E+03</pdfrwt>
<totfact> 0.73910872E+04</totfact>
</mgrwt>
</event>
<event>
 6    0  0.1539652E-007  0.4565529E+03  0.7546771E-02  0.1025786E+00
         21   -1    0    0  502  501  0.00000000000E+00  0.00000000000E+00  0.25512026784E+03  0.25512026784E+03  0.00000000000E+00 0.  1.
         21   -1    0    0  501  502 -0.00000000000E+00 -0.00000000000E+00 -0.20425711568E+03  0.20425711568E+03  0.00000000000E+00 0.  1.
      99926    2    1    2    0    0  0.00000000000E+00  0.35527136788E-14  0.50863152158E+02  0.45937738352E+03  0.45655286686E+03 0.  0.
         25    1    3    3    0    0  0.11289989529E+01  0.26651169665E+02  0.76977979829E+02  0.14928053109E+03  0.12509000000E+03 0.  0.
         25    1    3    3    0    0  0.84071736281E+02 -0.12161559060E+01  0.14283443251E+02  0.15139703011E+03  0.12509000000E+03 0.  0.
         25    1    3    3    0    0 -0.85200735234E+02 -0.25435013759E+02 -0.40398270922E+02  0.15869982231E+03  0.12509000000E+03 0.  0.
<mgrwt>
<rscale>  2 0.45655287E+03</rscale>
<asrwt>0</asrwt>
<pdfrwt beam="1">  1       21 0.37517686E-01 0.45655287E+03</pdfrwt>
<pdfrwt beam="2">  1       21 0.30037811E-01 0.45655287E+03</pdfrwt>
<totfact> 0.67387455E+04</totfact>
</mgrwt>
</event>
<event>
 6    0  0.1539652E-007  0.4673766E+03  0.7546771E-02  0.1022663E+00
         21   -1    0    0  502  501  0.00000000000E+00  0.00000000000E+00  0.53162926723E+02  0.53162926723E+02  0.00000000000E+00 0. -1.
         21   -1    0    0  501  502 -0.00000000000E+00 -0.00000000000E+00 -0.10272238269E+04  0.10272238269E+04  0.00000000000E+00 0. -1.
      99926    2    1    2    0    0  0.11102230246E-14  0.00000000000E+00 -0.97406090015E+03  0.10803867536E+04  0.46737661489E+03 0.  0.
         25    1    3    3    0    0 -0.33599213736E+02  0.36396991088E+02 -0.33624892068E+03  0.36216638840E+03  0.12509000000E+03 0.  0.
         25    1    3    3    0    0  0.80561845753E+00  0.30744332636E+02 -0.50464603647E+03  0.52082722014E+03  0.12509000000E+03 0.  0.
         25    1    3    3    0    0  0.32793595278E+02 -0.67141323724E+02 -0.13316594299E+03  0.19739314506E+03  0.12509000000E+03 0.  0.
<mgrwt>
<rscale>  2 0.46737661E+03</rscale>
<asrwt>0</asrwt>
<pdfrwt beam="1">  1       21 0.78180781E-02 0.46737661E+03</pdfrwt>
<pdfrwt beam="2">  1       21 0.15106231E+00 0.46737661E+03</pdfrwt>
<totfact> 0.32888915E+04</totfact>
</mgrwt>
</event>
<event>
 6    0  0.1539652E-007  0.4494000E+03  0.7546771E-02  0.1027901E+00
         21   -1    0    0  502  501  0.00000000000E+00  0.00000000000E+00  0.78371373629E+02  0.78371373629E+02  0.00000000000E+00 0.  1.
         21   -1    0    0  501  502 -0.00000000000E+00 -0.00000000000E+00 -0.64424151120E+03  0.64424151120E+03  0.00000000000E+00 0.  1.
      99926    2    1    2    0    0  0.00000000000E+00 -0.66613381478E-15 -0.56587013757E+03  0.72261288483E+03  0.44940000971E+03 0.  0.
         25    1    3    3    0    0  0.19683612621E+02  0.16765420315E+02 -0.15488752125E+03  0.20076398149E+03  0.12509000000E+03 0.  0.
         25    1    3    3    0    0  0.70034741290E+02 -0.15836154422E+02 -0.29743630391E+03  0.33056241734E+03  0.12509000000E+03 0.  0.
         25    1    3    3    0    0 -0.89718353911E+02 -0.92926589246E+00 -0.11354631241E+03  0.19128648600E+03  0.12509000000E+03 0.  0.
<mgrwt>
<rscale>  2 0.44940001E+03</rscale>
<asrwt>0</asrwt>
<pdfrwt beam="1">  1       21 0.11525202E-01 0.44940001E+03</pdfrwt>
<pdfrwt beam="2">  1       21 0.94741395E-01 0.44940001E+03</pdfrwt>
<totfact> 0.54033193E+04</totfact>
</mgrwt>
</event>
<event>
 6    0  0.1539652E-007  0.4566306E+03  0.7546771E-02  0.1025763E+00
         21   -1    0    0  502  501  0.00000000000E+00  0.00000000000E+00  0.78727041965E+03  0.78727041965E+03  0.00000000000E+00 0.  1.
         21   -1    0    0  501  502 -0.00000000000E+00 -0.00000000000E+00 -0.66213417822E+02  0.66213417822E+02  0.00000000000E+00 0.  1.
      99926    2    1    2    0    0  0.14210854715E-13  0.71054273576E-14  0.72105700183E+03  0.85348383747E+03  0.45663055191E+03 0.  0.
         25    1    3    3    0    0 -0.44027080756E+02 -0.58750499313E+02  0.22725840301E+03  0.26959950825E+03  0.12509000000E+03 0.  0.
         25    1    3    3    0    0 -0.62372633192E+02  0.94413953693E+01  0.21853455859E+03  0.25958495087E+03  0.12509000000E+03 0.  0.
         25    1    3    3    0    0  0.10639971395E+03  0.49309103944E+02  0.27526404022E+03  0.32429937835E+03  0.12509000000E+03 0.  0.
<mgrwt>
<rscale>  2 0.45663055E+03</rscale>
<asrwt>0</asrwt>
<pdfrwt beam="1">  1       21 0.11577506E+00 0.45663055E+03</pdfrwt>
<pdfrwt beam="2">  1       21 0.97372678E-02 0.45663055E+03</pdfrwt>
<totfact> 0.44709328E+04</totfact>
</mgrwt>
</event>
<event>
 6    0  0.1539652E-007  0.4566148E+03  0.7546771E-02  0.1025768E+00
         21   -1    0    0  502  501  0.00000000000E+00  0.00000000000E+00  0.11535861666E+03  0.11535861666E+03  0.00000000000E+00 0.  1.
         21   -1    0    0  501  502 -0.00000000000E+00 -0.00000000000E+00 -0.45184540931E+03  0.45184540931E+03  0.00000000000E+00 0.  1.
      99926    2    1    2    0    0  0.00000000000E+00  0.00000000000E+00 -0.33648679265E+03  0.56720402596E+03  0.45661476700E+03 0.  0.
         25    1    3    3    0    0  0.61610303649E+02  0.11667433705E+02 -0.16303997908E+02  0.14087330114E+03  0.12509000000E+03 0.  0.
         25    1    3    3    0    0  0.17667002048E+02  0.23761914374E+02 -0.16134019836E+03  0.20628843701E+03  0.12509000000E+03 0.  0.
         25    1    3    3    0    0 -0.79277305697E+02 -0.35429348079E+02 -0.15884259638E+03  0.22004228782E+03  0.12509000000E+03 0.  0.
<mgrwt>
<rscale>  2 0.45661477E+03</rscale>
<asrwt>0</asrwt>
<pdfrwt beam="1">  1       21 0.16964503E-01 0.45661477E+03</pdfrwt>
<pdfrwt beam="2">  1       21 0.66447854E-01 0.45661477E+03</pdfrwt>
<totfact> 0.59974203E+04</totfact>
</mgrwt>
</event>
<event>
 6    0  0.1539652E-007  0.4514965E+03  0.7546771E-02  0.1027277E+00
         21   -1    0    0  502  501  0.00000000000E+00  0.00000000000E+00  0.43498393256E+03  0.43498393256E+03  0.00000000000E+00 0. -1.
         21   -1    0    0  501  502 -0.00000000000E+00 -0.00000000000E+00 -0.11715898160E+03  0.11715898160E+03  0.00000000000E+00 0. -1.
      99926    2    1    2    0    0  0.00000000000E+00  0.00000000000E+00  0.31782495096E+03  0.55214291417E+03  0.45149650963E+03 0.  0.
         25    1    3    3    0    0  0.86090233945E+02 -0.49373699723E+02  0.14709606081E+03  0.21710377659E+03  0.12509000000E+03 0.  0.
         25    1    3    3    0    0 -0.29866306598E+02  0.25870820675E+02  0.14131959187E+03  0.19282124047E+03  0.12509000000E+03 0.  0.
         25    1    3    3    0    0 -0.56223927347E+02  0.23502879048E+02  0.29409298282E+02  0.14221789710E+03  0.12509000000E+03 0.  0.
<mgrwt>
<rscale>  2 0.45149651E+03</rscale>
<asrwt>0</asrwt>
<pdfrwt beam="1">  1       21 0.63968225E-01 0.45149651E+03</pdfrwt>
<pdfrwt beam="2">  1       21 0.17229262E-01 0.45149651E+03</pdfrwt>
<totfact> 0.63466045E+04</totfact>
</mgrwt>
</event>
<event>
 6    0  0.1539652E-007  0.4850939E+03  0.7546771E-02  0.1017745E+00
         21   -1    0    0  502  501  0.00000000000E+00  0.00000000000E+00  0.18911018620E+03  0.18911018620E+03  0.00000000000E+00 0. -1.
         21   -1    0    0  501  502 -0.00000000000E+00 -0.00000000000E+00 -0.31108326592E+03  0.31108326592E+03  0.00000000000E+00 0. -1.
      99926    2    1    2    0    0  0.71054273576E-14  0.71054273576E-14 -0.12197307972E+03  0.50019345212E+03  0.48509386449E+03 0.  0.
         25    1    3    3    0    0 -0.78318688050E+02  0.54406977229E+02 -0.58911403654E+02  0.16796427492E+03  0.12509000000E+03 0.  0.
         25    1    3    3    0    0  0.52423564138E+02 -0.10709523359E+03 -0.84545113257E+02  0.19238763840E+03  0.12509000000E+03 0.  0.
         25    1    3    3    0    0  0.25895123912E+02  0.52688256356E+02  0.21483437193E+02  0.13984153880E+03  0.12509000000E+03 0.  0.
<mgrwt>
<rscale>  2 0.48509386E+03</rscale>
<asrwt>0</asrwt>
<pdfrwt beam="1">  1       21 0.27810322E-01 0.48509386E+03</pdfrwt>
<pdfrwt beam="2">  1       21 0.45747539E-01 0.48509386E+03</pdfrwt>
<totfact> 0.51744957E+04</totfact>
</mgrwt>
</event>
<event>
 6    0  0.1539652E-007  0.4436137E+03  0.7546771E-02  0.1029644E+00
         21   -1    0    0  502  501  0.00000000000E+00  0.00000000000E+00  0.44306454624E+03  0.44306454624E+03  0.00000000000E+00 0. -1.
         21   -1    0    0  501  502 -0.00000000000E+00 -0.00000000000E+00 -0.11104087737E+03  0.11104087737E+03  0.00000000000E+00 0. -1.
      99926    2    1    2    0    0  0.00000000000E+00 -0.35527136788E-14  0.33202366887E+03  0.55410542361E+03  0.44361368756E+03 0.  0.
         25    1    3    3    0    0 -0.53863442675E+02  0.27390201416E+02  0.87025202593E+02  0.16392799510E+03  0.12509000000E+03 0.  0.
         25    1    3    3    0    0  0.91044950646E+02 -0.58311168766E+02  0.16714861892E+03  0.23510751657E+03  0.12509000000E+03 0.  0.
         25    1    3    3    0    0 -0.37181507972E+02  0.30920967349E+02  0.77849847355E+02  0.15506991194E+03  0.12509000000E+03 0.  0.
<mgrwt>
<rscale>  2 0.44361369E+03</rscale>
<asrwt>0</asrwt>
<pdfrwt beam="1">  1       21 0.65156550E-01 0.44361369E+03</pdfrwt>
<pdfrwt beam="2">  1       21 0.16329541E-01 0.44361369E+03</pdfrwt>
<totfact> 0.67471304E+04</totfact>
</mgrwt>
</event>
<event>
 6    0  0.1539652E-007  0.4534329E+03  0.7546771E-02  0.1026703E+00
         21   -1    0    0  502  501  0.00000000000E+00  0.00000000000E+00  0.13194734809E+03  0.13194734809E+03  0.00000000000E+00 0.  1.
         21   -1    0    0  501  502 -0.00000000000E+00 -0.00000000000E+00 -0.38955190727E+03  0.38955190727E+03  0.00000000000E+00 0.  1.
      99926    2    1    2    0    0 -0.22204460493E-14  0.71054273576E-14 -0.25760455919E+03  0.52149925536E+03  0.45343286650E+03 0.  0.
         25    1    3    3    0    0 -0.38714222242E+02  0.78124583835E+02 -0.17293293368E+03  0.23055487255E+03  0.12509000000E+03 0.  0.
         25    1    3    3    0    0  0.41473261284E+02 -0.19227437991E+02 -0.94391408940E+01  0.13351528472E+03  0.12509000000E+03 0.  0.
         25    1    3    3    0    0 -0.27590390421E+01 -0.58897145844E+02 -0.75232484614E+02  0.15742909809E+03  0.12509000000E+03 0.  0.
<mgrwt>
<rscale>  2 0.45343287E+03</rscale>
<asrwt>0</asrwt>
<pdfrwt beam="1">  1       21 0.19404021E-01 0.45343287E+03</pdfrwt>
<pdfrwt beam="2">  1       21 0.57287046E-01 0.45343287E+03</pdfrwt>
<totfact> 0.64584258E+04</totfact>
</mgrwt>
</event>
<event>
 6    0  0.1539652E-007  0.4245522E+03  0.7546771E-02  0.1035595E+00
         21   -1    0    0  502  501  0.00000000000E+00  0.00000000000E+00  0.65907695869E+03  0.65907695869E+03  0.00000000000E+00 0.  1.
         21   -1    0    0  501  502 -0.00000000000E+00 -0.00000000000E+00 -0.68370078432E+02  0.68370078432E+02  0.00000000000E+00 0.  1.
      99926    2    1    2    0    0  0.00000000000E+00  0.26645352591E-14  0.59070688026E+03  0.72744703713E+03  0.42455220343E+03 0.  0.
         25    1    3    3    0    0  0.40911268799E+02 -0.39837106545E+02  0.14812290963E+03  0.20211044365E+03  0.12509000000E+03 0.  0.
         25    1    3    3    0    0  0.32735692016E+02  0.43275684623E+02  0.18774810862E+03  0.23203721857E+03  0.12509000000E+03 0.  0.
         25    1    3    3    0    0 -0.73646960814E+02 -0.34385780780E+01  0.25483586201E+03  0.29329937491E+03  0.12509000000E+03 0.  0.
<mgrwt>
<rscale>  2 0.42455220E+03</rscale>
<asrwt>0</asrwt>
<pdfrwt beam="1">  1       21 0.96923079E-01 0.42455220E+03</pdfrwt>
<pdfrwt beam="2">  1       21 0.10054424E-01 0.42455220E+03</pdfrwt>
<totfact> 0.65843410E+04</totfact>
</mgrwt>
</event>
<event>
 6    0  0.1539652E-007  0.4728907E+03  0.7546771E-02  0.1021107E+00
         21   -1    0    0  502  501  0.00000000000E+00  0.00000000000E+00  0.12972595580E+03  0.12972595580E+03  0.00000000000E+00 0. -1.
         21   -1    0    0  501  502 -0.00000000000E+00 -0.00000000000E+00 -0.43095776133E+03  0.43095776133E+03  0.00000000000E+00 0. -1.
      99926    2    1    2    0    0  0.00000000000E+00  0.35527136788E-14 -0.30123180553E+03  0.56068371713E+03  0.47289071675E+03 0.  0.
         25    1    3    3    0    0 -0.85807638366E+02 -0.21828688926E+02 -0.20244436841E+03  0.25391075767E+03  0.12509000000E+03 0.  0.
         25    1    3    3    0    0  0.10401680947E+03  0.16202320024E+02 -0.63719047384E+02  0.17546976072E+03  0.12509000000E+03 0.  0.
         25    1    3    3    0    0 -0.18209171106E+02  0.56263689016E+01 -0.35068389744E+02  0.13130319874E+03  0.12509000000E+03 0.  0.
<mgrwt>
<rscale>  2 0.47289072E+03</rscale>
<asrwt>0</asrwt>
<pdfrwt beam="1">  1       21 0.19077346E-01 0.47289072E+03</pdfrwt>
<pdfrwt beam="2">  1       21 0.63376142E-01 0.47289072E+03</pdfrwt>
<totfact> 0.53222741E+04</totfact>
</mgrwt>
</event>
<event>
 6    0  0.1539652E-007  0.4634224E+03  0.7546771E-02  0.1023793E+00
         21   -1    0    0  502  501  0.00000000000E+00  0.00000000000E+00  0.96984312812E+03  0.96984312812E+03  0.00000000000E+00 0.  1.
         21   -1    0    0  501  502 -0.00000000000E+00 -0.00000000000E+00 -0.55359549083E+02  0.55359549083E+02  0.00000000000E+00 0.  1.
      99926    2    1    2    0    0 -0.35527136788E-14 -0.71054273576E-14  0.91448357904E+03  0.10252026772E+04  0.46342239158E+03 0.  0.
         25    1    3    3    0    0  0.43928848670E+02 -0.61028428232E+02  0.19906838576E+03  0.24683991392E+03  0.12509000000E+03 0.  0.
         25    1    3    3    0    0 -0.22807096342E+02 -0.18862054805E+02  0.17249287024E+03  0.21512145206E+03  0.12509000000E+03 0.  0.
         25    1    3    3    0    0 -0.21121752329E+02  0.79890483037E+02  0.54292232305E+03  0.56324131122E+03  0.12509000000E+03 0.  0.
<mgrwt>
<rscale>  2 0.46342239E+03</rscale>
<asrwt>0</asrwt>
<pdfrwt beam="1">  1       21 0.14262398E+00 0.46342239E+03</pdfrwt>
<pdfrwt beam="2">  1       21 0.81411108E-02 0.46342239E+03</pdfrwt>
<totfact> 0.35788711E+04</totfact>
</mgrwt>
</event>
<event>
 6    0  0.1539652E-007  0.4544596E+03  0.7546771E-02  0.1026400E+00
         21   -1    0    0  502  501  0.00000000000E+00  0.00000000000E+00  0.15313022482E+03  0.15313022482E+03  0.00000000000E+00 0. -1.
         21   -1    0    0  501  502 -0.00000000000E+00 -0.00000000000E+00 -0.33718613225E+03  0.33718613225E+03  0.00000000000E+00 0. -1.
      99926    2    1    2    0    0  0.00000000000E+00  0.35527136788E-14 -0.18405590743E+03  0.49031635707E+03  0.45445962741E+03 0.  0.
         25    1    3    3    0    0  0.70444929611E+02  0.19151585013E+02 -0.39758191991E+02  0.15019152189E+03  0.12509000000E+03 0.  0.
         25    1    3    3    0    0 -0.95163243699E+02 -0.48718279757E+02 -0.31938570144E+02  0.16762187834E+03  0.12509000000E+03 0.  0.
         25    1    3    3    0    0  0.24718314088E+02  0.29566694745E+02 -0.11235914529E+03  0.17250295685E+03  0.12509000000E+03 0.  0.
<mgrwt>
<rscale>  2 0.45445963E+03</rscale>
<asrwt>0</asrwt>
<pdfrwt beam="1">  1       21 0.22519151E-01 0.45445963E+03</pdfrwt>
<pdfrwt beam="2">  1       21 0.49586196E-01 0.45445963E+03</pdfrwt>
<totfact> 0.66240168E+04</totfact>
</mgrwt>
</event>
<event>
 6    0  0.1539652E-007  0.4547749E+03  0.7546771E-02  0.1026308E+00
         21   -1    0    0  502  501  0.00000000000E+00  0.00000000000E+00  0.14648927274E+03  0.14648927274E+03  0.00000000000E+00 0.  1.
         21   -1    0    0  501  502 -0.00000000000E+00 -0.00000000000E+00 -0.35296136688E+03  0.35296136688E+03  0.00000000000E+00 0.  1.
      99926    2    1    2    0    0  0.00000000000E+00  0.00000000000E+00 -0.20647209413E+03  0.49945063962E+03  0.45477490670E+03 0.  0.
         25    1    3    3    0    0  0.44018634344E+02  0.34543749286E+02 -0.11029616578E+03  0.17590810974E+03  0.12509000000E+03 0.  0.
         25    1    3    3    0    0 -0.10422251343E+03 -0.30770772905E+02 -0.25279914620E+02  0.16761788376E+03  0.12509000000E+03 0.  0.
         25    1    3    3    0    0  0.60203879089E+02 -0.37729763804E+01 -0.70896013728E+02  0.15592464613E+03  0.12509000000E+03 0.  0.
<mgrwt>
<rscale>  2 0.45477491E+03</rscale>
<asrwt>0</asrwt>
<pdfrwt beam="1">  1       21 0.21542540E-01 0.45477491E+03</pdfrwt>
<pdfrwt beam="2">  1       21 0.51906083E-01 0.45477491E+03</pdfrwt>
<totfact> 0.65426098E+04</totfact>
</mgrwt>
</event>
<event>
 6    0  0.1539652E-007  0.4575482E+03  0.7546771E-02  0.1025495E+00
         21   -1    0    0  502  501  0.00000000000E+00  0.00000000000E+00  0.10411436727E+04  0.10411436727E+04  0.00000000000E+00 0.  1.
         21   -1    0    0  501  502 -0.00000000000E+00 -0.00000000000E+00 -0.50269327772E+02  0.50269327772E+02  0.00000000000E+00 0.  1.
      99926    2    1    2    0    0 -0.14210854715E-13  0.00000000000E+00  0.99087434490E+03  0.10914130004E+04  0.45754821621E+03 0.  0.
         25    1    3    3    0    0  0.36053564248E+02 -0.76899374542E+02  0.46985894217E+03  0.49358718271E+03  0.12509000000E+03 0.  0.
         25    1    3    3    0    0  0.36644656024E+02  0.44127554430E+02  0.31697030215E+03  0.34555426841E+03  0.12509000000E+03 0.  0.
         25    1    3    3    0    0 -0.72698220272E+02  0.32771820112E+02  0.20404510058E+03  0.25227154932E+03  0.12509000000E+03 0.  0.
<mgrwt>
<rscale>  2 0.45754822E+03</rscale>
<asrwt>0</asrwt>
<pdfrwt beam="1">  1       21 0.15310935E+00 0.45754822E+03</pdfrwt>
<pdfrwt beam="2">  1       21 0.73925489E-02 0.45754822E+03</pdfrwt>
<totfact> 0.35090614E+04</totfact>
</mgrwt>
</event>
<event>
 6    0  0.1539652E-007  0.4512555E+03  0.7546771E-02  0.1027348E+00
         21   -1    0    0  502  501  0.00000000000E+00  0.00000000000E+00  0.16004765482E+03  0.16004765482E+03  0.00000000000E+00 0. -1.
         21   -1    0    0  501  502 -0.00000000000E+00 -0.00000000000E+00 -0.31807945787E+03  0.31807945787E+03  0.00000000000E+00 0. -1.
      99926    2    1    2    0    0  0.35527136788E-14  0.22204460493E-14 -0.15803180305E+03  0.47812711269E+03  0.45125545438E+03 0.  0.
         25    1    3    3    0    0  0.27825924371E+02  0.13449885723E+01 -0.86534851475E+02  0.15463466520E+03  0.12509000000E+03 0.  0.
         25    1    3    3    0    0 -0.50560369112E+02  0.31054974329E+02 -0.12039368821E+03  0.18347455032E+03  0.12509000000E+03 0.  0.
         25    1    3    3    0    0  0.22734444742E+02 -0.32399962901E+02  0.48896736633E+02  0.14001789717E+03  0.12509000000E+03 0.  0.
<mgrwt>
<rscale>  2 0.45125545E+03</rscale>
<asrwt>0</asrwt>
<pdfrwt beam="1">  1       21 0.23536420E-01 0.45125545E+03</pdfrwt>
<pdfrwt beam="2">  1       21 0.46776391E-01 0.45125545E+03</pdfrwt>
<totfact> 0.68860739E+04</totfact>
</mgrwt>
</event>
<event>
 6    0  0.1539652E-007  0.4480730E+03  0.7546771E-02  0.1028298E+00
         21   -1    0    0  502  501  0.00000000000E+00  0.00000000000E+00  0.37641157812E+03  0.37641157812E+03  0.00000000000E+00 0. -1.
         21   -1    0    0  501  502 -0.00000000000E+00 -0.00000000000E+00 -0.13334431263E+03  0.13334431263E+03  0.00000000000E+00 0. -1.
      99926    2    1    2    0    0 -0.14210854715E-13  0.71054273576E-14  0.24306726549E+03  0.50975589075E+03  0.44807295455E+03 0.  0.
         25    1    3    3    0    0 -0.64489209515E+02  0.15159072827E+02  0.11810474850E+03  0.18434992636E+03  0.12509000000E+03 0.  0.
         25    1    3    3    0    0 -0.38586899871E+01 -0.71398937914E+02  0.84023064766E+02  0.16679352906E+03  0.12509000000E+03 0.  0.
         25    1    3    3    0    0  0.68347899502E+02  0.56239865086E+02  0.40939452227E+02  0.15861243533E+03  0.12509000000E+03 0.  0.
<mgrwt>
<rscale>  2 0.44807295E+03</rscale>
<asrwt>0</asrwt>
<pdfrwt beam="1">  1       21 0.55354644E-01 0.44807295E+03</pdfrwt>
<pdfrwt beam="2">  1       21 0.19609458E-01 0.44807295E+03</pdfrwt>
<totfact> 0.68266631E+04</totfact>
</mgrwt>
</event>
<event>
 6    0  0.1539652E-007  0.4610906E+03  0.7546771E-02  0.1024465E+00
         21   -1    0    0  502  501  0.00000000000E+00  0.00000000000E+00  0.28064233016E+03  0.28064233016E+03  0.00000000000E+00 0.  1.
         21   -1    0    0  501  502 -0.00000000000E+00 -0.00000000000E+00 -0.18939097259E+03  0.18939097259E+03  0.00000000000E+00 0.  1.
      99926    2    1    2    0    0  0.00000000000E+00  0.00000000000E+00  0.91251357569E+02  0.47003330275E+03  0.46109055015E+03 0.  0.
         25    1    3    3    0    0  0.42622671317E+02 -0.69748775205E+02  0.20817915577E+02  0.15087238800E+03  0.12509000000E+03 0.  0.
         25    1    3    3    0    0  0.15210121192E+02  0.10979371608E+03  0.27631273327E+02  0.16940189858E+03  0.12509000000E+03 0.  0.
         25    1    3    3    0    0 -0.57832792509E+02 -0.40044940877E+02  0.42802168665E+02  0.14975901616E+03  0.12509000000E+03 0.  0.
<mgrwt>
<rscale>  2 0.46109055E+03</rscale>
<asrwt>0</asrwt>
<pdfrwt beam="1">  1       21 0.41270931E-01 0.46109055E+03</pdfrwt>
<pdfrwt beam="2">  1       21 0.27851613E-01 0.46109055E+03</pdfrwt>
<totfact> 0.64269784E+04</totfact>
</mgrwt>
</event>
<event>
 6    0  0.2687345E-007  0.4876581E+03  0.7546771E-02  0.1017051E+00
         21   -1    0    0  502  501  0.00000000000E+00  0.00000000000E+00  0.51416428781E+02  0.51416428781E+02  0.00000000000E+00 0. -1.
         21   -1    0    0  501  502 -0.00000000000E+00 -0.00000000000E+00 -0.11562958256E+04  0.11562958256E+04  0.00000000000E+00 0. -1.
      99926    2    1    2    0    0 -0.79936057773E-14  0.35527136788E-14 -0.11048793968E+04  0.12077122543E+04  0.48765808499E+03 0.  0.
         25    1    3    3    0    0 -0.11211722673E+03  0.55151360272E+02 -0.43095824543E+03  0.46581591050E+03  0.12509000000E+03 0.  0.
         25    1    3    3    0    0  0.20715035268E+01 -0.29536780515E+02 -0.40116354341E+03  0.42125575271E+03  0.12509000000E+03 0.  0.
         25    1    3    3    0    0  0.11004572321E+03 -0.25614579757E+02 -0.27275760793E+03  0.32064059112E+03  0.12509000000E+03 0.  0.
<mgrwt>
<rscale>  2 0.48765808E+03</rscale>
<asrwt>0</asrwt>
<pdfrwt beam="1">  1       21 0.75612402E-02 0.48765808E+03</pdfrwt>
<pdfrwt beam="2">  1       21 0.17004349E+00 0.48765808E+03</pdfrwt>
<totfact> 0.24938100E+04</totfact>
</mgrwt>
</event>
<event>
 6    0  0.1539652E-007  0.4562129E+03  0.7546771E-02  0.1025885E+00
         21   -1    0    0  502  501  0.00000000000E+00  0.00000000000E+00  0.30295382476E+03  0.30295382476E+03  0.00000000000E+00 0.  1.
         21   -1    0    0  501  502 -0.00000000000E+00 -0.00000000000E+00 -0.17175080188E+03  0.17175080188E+03  0.00000000000E+00 0.  1.
      99926    2    1    2    0    0  0.00000000000E+00  0.00000000000E+00  0.13120302289E+03  0.47470462664E+03  0.45621294297E+03 0.  0.
         25    1    3    3    0    0  0.64069127066E+02  0.20353516852E+02  0.14295225647E+03  0.20149931618E+03  0.12509000000E+03 0.  0.
         25    1    3    3    0    0 -0.65386782893E+02  0.17378557554E+02 -0.93133351550E+01  0.14251909329E+03  0.12509000000E+03 0.  0.
         25    1    3    3    0    0  0.13176558269E+01 -0.37732074406E+02 -0.24358984327E+01  0.13068621717E+03  0.12509000000E+03 0.  0.
<mgrwt>
<rscale>  2 0.45621294E+03</rscale>
<asrwt>0</asrwt>
<pdfrwt beam="1">  1       21 0.44552033E-01 0.45621294E+03</pdfrwt>
<pdfrwt beam="2">  1       21 0.25257471E-01 0.45621294E+03</pdfrwt>
<totfact> 0.66445790E+04</totfact>
</mgrwt>
</event>
<event>
 6    0  0.1539652E-007  0.4463252E+03  0.7546771E-02  0.1028824E+00
         21   -1    0    0  502  501  0.00000000000E+00  0.00000000000E+00  0.25628696944E+03  0.25628696944E+03  0.00000000000E+00 0.  1.
         21   -1    0    0  501  502 -0.00000000000E+00 -0.00000000000E+00 -0.19431948384E+03  0.19431948384E+03  0.00000000000E+00 0.  1.
      99926    2    1    2    0    0  0.88817841970E-14 -0.71054273576E-14  0.61967485606E+02  0.45060645328E+03  0.44632522499E+03 0.  0.
         25    1    3    3    0    0  0.83429657428E+02 -0.46170671315E+01  0.54243406467E+02  0.15991147643E+03  0.12509000000E+03 0.  0.
         25    1    3    3    0    0 -0.86288340188E+02 -0.29048107124E+02 -0.25808966219E+02  0.15685369303E+03  0.12509000000E+03 0.  0.
         25    1    3    3    0    0  0.28586827603E+01  0.33665174255E+02  0.33533045358E+02  0.13384128382E+03  0.12509000000E+03 0.  0.
<mgrwt>
<rscale>  2 0.44632522E+03</rscale>
<asrwt>0</asrwt>
<pdfrwt beam="1">  1       21 0.37689260E-01 0.44632522E+03</pdfrwt>
<pdfrwt beam="2">  1       21 0.28576395E-01 0.44632522E+03</pdfrwt>
<totfact> 0.73848720E+04</totfact>
</mgrwt>
</event>
<event>
 6    0  0.1539652E-007  0.4545187E+03  0.7546771E-02  0.1026383E+00
         21   -1    0    0  502  501  0.00000000000E+00  0.00000000000E+00  0.23531934456E+04  0.23531934456E+04  0.00000000000E+00 0.  1.
         21   -1    0    0  501  502 -0.00000000000E+00 -0.00000000000E+00 -0.21947542144E+02  0.21947542144E+02  0.00000000000E+00 0.  1.
      99926    2    1    2    0    0  0.00000000000E+00  0.00000000000E+00  0.23312459034E+04  0.23751409877E+04  0.45451870070E+03 0.  0.
         25    1    3    3    0    0  0.18075286276E+02 -0.15425189018E+02  0.45035475011E+03  0.46800807843E+03  0.12509000000E+03 0.  0.
         25    1    3    3    0    0  0.15133752015E+02  0.55640037914E+02  0.47056425902E+03  0.49030916190E+03  0.12509000000E+03 0.  0.
         25    1    3    3    0    0 -0.33209038291E+02 -0.40214848896E+02  0.14103268943E+04  0.14168237474E+04  0.12509000000E+03 0.  0.
<mgrwt>
<rscale>  2 0.45451870E+03</rscale>
<asrwt>0</asrwt>
<pdfrwt beam="1">  1       21 0.34605769E+00 0.45451870E+03</pdfrwt>
<pdfrwt beam="2">  1       21 0.32275814E-02 0.45451870E+03</pdfrwt>
<totfact> 0.85269490E+03</totfact>
</mgrwt>
</event>
<event>
 6    0  0.1539652E-007  0.4586001E+03  0.7546771E-02  0.1025188E+00
         21   -1    0    0  502  501  0.00000000000E+00  0.00000000000E+00  0.18061273671E+03  0.18061273671E+03  0.00000000000E+00 0. -1.
         21   -1    0    0  501  502 -0.00000000000E+00 -0.00000000000E+00 -0.29111186846E+03  0.29111186846E+03  0.00000000000E+00 0. -1.
      99926    2    1    2    0    0  0.00000000000E+00  0.00000000000E+00 -0.11049913175E+03  0.47172460517E+03  0.45860009268E+03 0.  0.
         25    1    3    3    0    0  0.58324422161E+01  0.99576561227E+01 -0.11576516604E+01  0.12562651215E+03  0.12509000000E+03 0.  0.
         25    1    3    3    0    0 -0.74293045402E+02 -0.69917449349E+01 -0.13796539310E+03  0.20062477136E+03  0.12509000000E+03 0.  0.
         25    1    3    3    0    0  0.68460603186E+02 -0.29659111878E+01  0.28623913007E+02  0.14547332166E+03  0.12509000000E+03 0.  0.
<mgrwt>
<rscale>  2 0.45860009E+03</rscale>
<asrwt>0</asrwt>
<pdfrwt beam="1">  1       21 0.26560697E-01 0.45860009E+03</pdfrwt>
<pdfrwt beam="2">  1       21 0.42810569E-01 0.45860009E+03</pdfrwt>
<totfact> 0.65419383E+04</totfact>
</mgrwt>
</event>
<event>
 6    0  0.1539652E-007  0.4598922E+03  0.7546771E-02  0.1024812E+00
         21   -1    0    0  502  501  0.00000000000E+00  0.00000000000E+00  0.14822159895E+04  0.14822159895E+04  0.00000000000E+00 0.  1.
         21   -1    0    0  501  502 -0.00000000000E+00 -0.00000000000E+00 -0.35673083859E+02  0.35673083859E+02  0.00000000000E+00 0.  1.
      99926    2    1    2    0    0  0.00000000000E+00  0.00000000000E+00  0.14465429056E+04  0.15178890733E+04  0.45989222777E+03 0.  0.
         25    1    3    3    0    0 -0.41047465242E+02  0.25009825524E+02  0.46813238315E+03  0.48693513124E+03  0.12509000000E+03 0.  0.
         25    1    3    3    0    0  0.77170243389E+02  0.75379485470E+01  0.24852751293E+03  0.28883472769E+03  0.12509000000E+03 0.  0.
         25    1    3    3    0    0 -0.36122778146E+02 -0.32547774071E+02  0.72988300954E+03  0.74211921442E+03  0.12509000000E+03 0.  0.
<mgrwt>
<rscale>  2 0.45989223E+03</rscale>
<asrwt>0</asrwt>
<pdfrwt beam="1">  1       21 0.21797290E+00 0.45989223E+03</pdfrwt>
<pdfrwt beam="2">  1       21 0.52460427E-02 0.45989223E+03</pdfrwt>
<totfact> 0.22477775E+04</totfact>
</mgrwt>
</event>
<event>
 6    0  0.1539652E-007  0.4548200E+03  0.7546771E-02  0.1026294E+00
         21   -1    0    0  502  501  0.00000000000E+00  0.00000000000E+00  0.64177225721E+03  0.64177225721E+03  0.00000000000E+00 0.  1.
         21   -1    0    0  501  502 -0.00000000000E+00 -0.00000000000E+00 -0.80582038809E+02  0.80582038809E+02  0.00000000000E+00 0.  1.
      99926    2    1    2    0    0  0.35527136788E-14 -0.71054273576E-14  0.56119021840E+03  0.72235429602E+03  0.45482003886E+03 0.  0.
         25    1    3    3    0    0 -0.77484358125E+01  0.54956788829E+00  0.38462050418E+02  0.13109987683E+03  0.12509000000E+03 0.  0.
         25    1    3    3    0    0  0.30363108561E+02  0.50630160049E+02  0.28689333895E+03  0.31849745290E+03  0.12509000000E+03 0.  0.
         25    1    3    3    0    0 -0.22614672749E+02 -0.51179727937E+02  0.23583482903E+03  0.27275696629E+03  0.12509000000E+03 0.  0.
<mgrwt>
<rscale>  2 0.45482004E+03</rscale>
<asrwt>0</asrwt>
<pdfrwt beam="1">  1       21 0.94378271E-01 0.45482004E+03</pdfrwt>
<pdfrwt beam="2">  1       21 0.11850300E-01 0.45482004E+03</pdfrwt>
<totfact> 0.51779306E+04</totfact>
</mgrwt>
</event>
<event>
 6    0  0.1539652E-007  0.4460709E+03  0.7546771E-02  0.1028900E+00
         21   -1    0    0  502  501  0.00000000000E+00  0.00000000000E+00  0.14907044233E+03  0.14907044233E+03  0.00000000000E+00 0.  1.
         21   -1    0    0  501  502 -0.00000000000E+00 -0.00000000000E+00 -0.33370009734E+03  0.33370009734E+03  0.00000000000E+00 0.  1.
      99926    2    1    2    0    0  0.00000000000E+00  0.71054273576E-14 -0.18462965501E+03  0.48277053968E+03  0.44607094107E+03 0.  0.
         25    1    3    3    0    0 -0.29303262892E+02  0.23494703240E+02 -0.86559173938E+02  0.15668656927E+03  0.12509000000E+03 0.  0.
         25    1    3    3    0    0  0.60087396504E+02  0.41511664407E+02 -0.10914228158E+03  0.18136498899E+03  0.12509000000E+03 0.  0.
         25    1    3    3    0    0 -0.30784133613E+02 -0.65006367647E+02  0.11071800512E+02  0.14471898142E+03  0.12509000000E+03 0.  0.
<mgrwt>
<rscale>  2 0.44607094E+03</rscale>
<asrwt>0</asrwt>
<pdfrwt beam="1">  1       21 0.21922124E-01 0.44607094E+03</pdfrwt>
<pdfrwt beam="2">  1       21 0.49073543E-01 0.44607094E+03</pdfrwt>
<totfact> 0.71429480E+04</totfact>
</mgrwt>
</event>
<event>
 6    0  0.1539652E-007  0.4359976E+03  0.7546771E-02  0.1031982E+00
         21   -1    0    0  502  501  0.00000000000E+00  0.00000000000E+00  0.23069770463E+03  0.23069770463E+03  0.00000000000E+00 0.  1.
         21   -1    0    0  501  502 -0.00000000000E+00 -0.00000000000E+00 -0.20599894501E+03  0.20599894501E+03  0.00000000000E+00 0.  1.
      99926    2    1    2    0    0  0.39968028887E-14  0.00000000000E+00  0.24698759626E+02  0.43669664964E+03  0.43599763196E+03 0.  0.
         25    1    3    3    0    0  0.66281831537E+02 -0.33353658925E+02 -0.35974232278E+02  0.14982456822E+03  0.12509000000E+03 0.  0.
         25    1    3    3    0    0 -0.54694540334E+00  0.55029650945E+02  0.40201318741E+02  0.14245074854E+03  0.12509000000E+03 0.  0.
         25    1    3    3    0    0 -0.65734886134E+02 -0.21675992019E+02  0.20471673163E+02  0.14442133287E+03  0.12509000000E+03 0.  0.
<mgrwt>
<rscale>  2 0.43599763E+03</rscale>
<asrwt>0</asrwt>
<pdfrwt beam="1">  1       21 0.33926133E-01 0.43599763E+03</pdfrwt>
<pdfrwt beam="2">  1       21 0.30293963E-01 0.43599763E+03</pdfrwt>
<totfact> 0.81595055E+04</totfact>
</mgrwt>
</event>
<event>
 6    0  0.1539652E-007  0.4498490E+03  0.7546771E-02  0.1027767E+00
         21   -1    0    0  502  501  0.00000000000E+00  0.00000000000E+00  0.17080494677E+03  0.17080494677E+03  0.00000000000E+00 0.  1.
         21   -1    0    0  501  502 -0.00000000000E+00 -0.00000000000E+00 -0.29619189760E+03  0.29619189760E+03  0.00000000000E+00 0.  1.
      99926    2    1    2    0    0 -0.35527136788E-14  0.00000000000E+00 -0.12538695083E+03  0.46699684437E+03  0.44984904714E+03 0.  0.
         25    1    3    3    0    0  0.60806526163E+02 -0.60193740396E+02 -0.23900834105E+02  0.15342580610E+03  0.12509000000E+03 0.  0.
         25    1    3    3    0    0 -0.92562409549E+02  0.53678484582E+01 -0.64644274307E+02  0.16859123275E+03  0.12509000000E+03 0.  0.
         25    1    3    3    0    0  0.31755883386E+02  0.54825891938E+02 -0.36841842413E+02  0.14497980552E+03  0.12509000000E+03 0.  0.
<mgrwt>
<rscale>  2 0.44984905E+03</rscale>
<asrwt>0</asrwt>
<pdfrwt beam="1">  1       21 0.25118375E-01 0.44984905E+03</pdfrwt>
<pdfrwt beam="2">  1       21 0.43557632E-01 0.44984905E+03</pdfrwt>
<totfact> 0.70496764E+04</totfact>
</mgrwt>
</event>
<event>
 6    0  0.1539652E-007  0.4482890E+03  0.7546771E-02  0.1028234E+00
         21   -1    0    0  502  501  0.00000000000E+00  0.00000000000E+00  0.14690153555E+03  0.14690153555E+03  0.00000000000E+00 0. -1.
         21   -1    0    0  501  502 -0.00000000000E+00 -0.00000000000E+00 -0.34200295302E+03  0.34200295302E+03  0.00000000000E+00 0. -1.
      99926    2    1    2    0    0  0.44408920985E-15  0.00000000000E+00 -0.19510141746E+03  0.48890448857E+03  0.44828900929E+03 0.  0.
         25    1    3    3    0    0  0.34931893861E+02  0.69108384522E+00 -0.15506290557E+03  0.20226894866E+03  0.12509000000E+03 0.  0.
         25    1    3    3    0    0 -0.37091946635E+02 -0.23598507237E+02 -0.78089433357E+02  0.15387712550E+03  0.12509000000E+03 0.  0.
         25    1    3    3    0    0  0.21600527745E+01  0.22907423392E+02  0.38050921466E+02  0.13275841442E+03  0.12509000000E+03 0.  0.
<mgrwt>
<rscale>  2 0.44828901E+03</rscale>
<asrwt>0</asrwt>
<pdfrwt beam="1">  1       21 0.21603167E-01 0.44828901E+03</pdfrwt>
<pdfrwt beam="2">  1       21 0.50294551E-01 0.44828901E+03</pdfrwt>
<totfact> 0.69697249E+04</totfact>
</mgrwt>
</event>
<event>
 6    0  0.1539652E-007  0.4513805E+03  0.7546771E-02  0.1027311E+00
         21   -1    0    0  502  501  0.00000000000E+00  0.00000000000E+00  0.23096536697E+03  0.23096536697E+03  0.00000000000E+00 0. -1.
         21   -1    0    0  501  502 -0.00000000000E+00 -0.00000000000E+00 -0.22053561572E+03  0.22053561572E+03  0.00000000000E+00 0. -1.
      99926    2    1    2    0    0  0.00000000000E+00  0.97699626167E-14  0.10429751247E+02  0.45150098269E+03  0.45138050208E+03 0.  0.
         25    1    3    3    0    0 -0.18975689749E+02 -0.85823222850E+02 -0.54914422330E+02  0.16244631194E+03  0.12509000000E+03 0.  0.
         25    1    3    3    0    0  0.95260442628E+01  0.79632114158E+02  0.68035100818E+02  0.16342674863E+03  0.12509000000E+03 0.  0.
         25    1    3    3    0    0  0.94496454864E+01  0.61911086922E+01 -0.26909272407E+01  0.12562792212E+03  0.12509000000E+03 0.  0.
<mgrwt>
<rscale>  2 0.45138050E+03</rscale>
<asrwt>0</asrwt>
<pdfrwt beam="1">  1       21 0.33965495E-01 0.45138050E+03</pdfrwt>
<pdfrwt beam="2">  1       21 0.32431708E-01 0.45138050E+03</pdfrwt>
<totfact> 0.70826350E+04</totfact>
</mgrwt>
</event>
<event>
 6    0  0.1539652E-007  0.4547383E+03  0.7546771E-02  0.1026318E+00
         21   -1    0    0  502  501  0.00000000000E+00  0.00000000000E+00  0.18875599579E+03  0.18875599579E+03  0.00000000000E+00 0.  1.
         21   -1    0    0  501  502 -0.00000000000E+00 -0.00000000000E+00 -0.27388120527E+03  0.27388120527E+03  0.00000000000E+00 0.  1.
      99926    2    1    2    0    0  0.00000000000E+00 -0.35527136788E-14 -0.85125209477E+02  0.46263720107E+03  0.45473825276E+03 0.  0.
         25    1    3    3    0    0  0.42576164433E+02  0.12614681924E+02 -0.59126068266E+02  0.14531090815E+03  0.12509000000E+03 0.  0.
         25    1    3    3    0    0 -0.90127493734E+02  0.27676655109E+02 -0.68911683924E+02  0.17112945581E+03  0.12509000000E+03 0.  0.
         25    1    3    3    0    0  0.47551329302E+02 -0.40291337032E+02  0.42912542713E+02  0.14619683711E+03  0.12509000000E+03 0.  0.
<mgrwt>
<rscale>  2 0.45473825E+03</rscale>
<asrwt>0</asrwt>
<pdfrwt beam="1">  1       21 0.27758235E-01 0.45473825E+03</pdfrwt>
<pdfrwt beam="2">  1       21 0.40276648E-01 0.45473825E+03</pdfrwt>
<totfact> 0.68127554E+04</totfact>
</mgrwt>
</event>
<event>
 6    0  0.1539652E-007  0.4521941E+03  0.7546771E-02  0.1027070E+00
         21   -1    0    0  502  501  0.00000000000E+00  0.00000000000E+00  0.33252396695E+03  0.33252396695E+03  0.00000000000E+00 0.  1.
         21   -1    0    0  501  502 -0.00000000000E+00 -0.00000000000E+00 -0.15373288176E+03  0.15373288176E+03  0.00000000000E+00 0.  1.
      99926    2    1    2    0    0  0.00000000000E+00  0.11324274851E-13  0.17879108519E+03  0.48625684871E+03  0.45219406318E+03 0.  0.
         25    1    3    3    0    0  0.27710831814E+02 -0.91937515140E+02  0.71684187939E+02  0.17322392384E+03  0.12509000000E+03 0.  0.
         25    1    3    3    0    0 -0.57772574686E+02  0.90093406774E+02  0.71864941397E+02  0.17962897938E+03  0.12509000000E+03 0.  0.
         25    1    3    3    0    0  0.30061742871E+02  0.18441083661E+01  0.35241955848E+02  0.13340394549E+03  0.12509000000E+03 0.  0.
<mgrwt>
<rscale>  2 0.45219406E+03</rscale>
<asrwt>0</asrwt>
<pdfrwt beam="1">  1       21 0.48900583E-01 0.45219406E+03</pdfrwt>
<pdfrwt beam="2">  1       21 0.22607777E-01 0.45219406E+03</pdfrwt>
<totfact> 0.67743874E+04</totfact>
</mgrwt>
</event>
<event>
 6    0  0.1539652E-007  0.4448631E+03  0.7546771E-02  0.1029265E+00
         21   -1    0    0  502  501  0.00000000000E+00  0.00000000000E+00  0.16593491726E+03  0.16593491726E+03  0.00000000000E+00 0. -1.
         21   -1    0    0  501  502 -0.00000000000E+00 -0.00000000000E+00 -0.29816381266E+03  0.29816381266E+03  0.00000000000E+00 0. -1.
      99926    2    1    2    0    0  0.71054273576E-14  0.00000000000E+00 -0.13222889540E+03  0.46409872992E+03  0.44486306920E+03 0.  0.
         25    1    3    3    0    0  0.54039477225E+02 -0.31682675175E+02  0.16942002378E+02  0.14092053275E+03  0.12509000000E+03 0.  0.
         25    1    3    3    0    0 -0.48042023591E+01  0.74162617232E+02 -0.69614678310E+02  0.16129750677E+03  0.12509000000E+03 0.  0.
         25    1    3    3    0    0 -0.49235274866E+02 -0.42479942057E+02 -0.79556219471E+02  0.16188069040E+03  0.12509000000E+03 0.  0.
<mgrwt>
<rscale>  2 0.44486307E+03</rscale>
<asrwt>0</asrwt>
<pdfrwt beam="1">  1       21 0.24402194E-01 0.44486307E+03</pdfrwt>
<pdfrwt beam="2">  1       21 0.43847619E-01 0.44486307E+03</pdfrwt>
<totfact> 0.73622253E+04</totfact>
</mgrwt>
</event>
<event>
 6    0  0.1539652E-007  0.4534406E+03  0.7546771E-02  0.1026701E+00
         21   -1    0    0  502  501  0.00000000000E+00  0.00000000000E+00  0.11533085215E+03  0.11533085215E+03  0.00000000000E+00 0. -1.
         21   -1    0    0  501  502 -0.00000000000E+00 -0.00000000000E+00 -0.44569249788E+03  0.44569249788E+03  0.00000000000E+00 0. -1.
      99926    2    1    2    0    0  0.00000000000E+00  0.00000000000E+00 -0.33036164573E+03  0.56102335003E+03  0.45344060505E+03 0.  0.
         25    1    3    3    0    0 -0.97665138464E+00  0.35302625575E+02 -0.21701663500E+03  0.25296433975E+03  0.12509000000E+03 0.  0.
         25    1    3    3    0    0  0.60685312982E+02  0.92992710809E+01 -0.39718175913E+02  0.14489384132E+03  0.12509000000E+03 0.  0.
         25    1    3    3    0    0 -0.59708661598E+02 -0.44601896656E+02 -0.73626834817E+02  0.16316516896E+03  0.12509000000E+03 0.  0.
<mgrwt>
<rscale>  2 0.45344061E+03</rscale>
<asrwt>0</asrwt>
<pdfrwt beam="1">  1       21 0.16960419E-01 0.45344061E+03</pdfrwt>
<pdfrwt beam="2">  1       21 0.65543016E-01 0.45344061E+03</pdfrwt>
<totfact> 0.61903917E+04</totfact>
</mgrwt>
</event>
<event>
 6    0  0.1539652E-007  0.4656981E+03  0.7546771E-02  0.1023141E+00
         21   -1    0    0  502  501  0.00000000000E+00  0.00000000000E+00  0.45997305318E+03  0.45997305318E+03  0.00000000000E+00 0.  1.
         21   -1    0    0  501  502 -0.00000000000E+00 -0.00000000000E+00 -0.11787360012E+03  0.11787360012E+03  0.00000000000E+00 0.  1.
      99926    2    1    2    0    0  0.00000000000E+00 -0.35527136788E-14  0.34209945306E+03  0.57784665329E+03  0.46569809849E+03 0.  0.
         25    1    3    3    0    0 -0.31356743951E+02  0.59470712810E+02  0.12460885158E+03  0.18893090024E+03  0.12509000000E+03 0.  0.
         25    1    3    3    0    0  0.98904164164E+02 -0.27962964860E+02  0.55615962878E+02  0.17118587710E+03  0.12509000000E+03 0.  0.
         25    1    3    3    0    0 -0.67547420213E+02 -0.31507747950E+02  0.16187463860E+03  0.21772987595E+03  0.12509000000E+03 0.  0.
<mgrwt>
<rscale>  2 0.46569810E+03</rscale>
<asrwt>0</asrwt>
<pdfrwt beam="1">  1       21 0.67643095E-01 0.46569810E+03</pdfrwt>
<pdfrwt beam="2">  1       21 0.17334353E-01 0.46569810E+03</pdfrwt>
<totfact> 0.55240182E+04</totfact>
</mgrwt>
</event>
<event>
 6    0  0.1539652E-007  0.4674816E+03  0.7546771E-02  0.1022633E+00
         21   -1    0    0  502  501  0.00000000000E+00  0.00000000000E+00  0.14111985389E+04  0.14111985389E+04  0.00000000000E+00 0. -1.
         21   -1    0    0  501  502 -0.00000000000E+00 -0.00000000000E+00 -0.38715155012E+02  0.38715155012E+02  0.00000000000E+00 0. -1.
      99926    2    1    2    0    0  0.00000000000E+00  0.00000000000E+00  0.13724833839E+04  0.14499136939E+04  0.46748163680E+03 0.  0.
         25    1    3    3    0    0  0.66117152857E+01  0.29914215772E+02  0.41091257919E+03  0.43062191180E+03  0.12509000000E+03 0.  0.
         25    1    3    3    0    0 -0.13360959478E+02 -0.12195404928E+03  0.61467167939E+03  0.63915576107E+03  0.12509000000E+03 0.  0.
         25    1    3    3    0    0  0.67492441918E+01  0.92039833504E+02  0.34689912527E+03  0.38013602100E+03  0.12509000000E+03 0.  0.
<mgrwt>
<rscale>  2 0.46748164E+03</rscale>
<asrwt>0</asrwt>
<pdfrwt beam="1">  1       21 0.20752916E+00 0.46748164E+03</pdfrwt>
<pdfrwt beam="2">  1       21 0.56934061E-02 0.46748164E+03</pdfrwt>
<totfact> 0.22744756E+04</totfact>
</mgrwt>
</event>
<event>
 6    0  0.1539652E-007  0.4694300E+03  0.7546771E-02  0.1022081E+00
         21   -1    0    0  502  501  0.00000000000E+00  0.00000000000E+00  0.80286158916E+03  0.80286158916E+03  0.00000000000E+00 0. -1.
         21   -1    0    0  501  502 -0.00000000000E+00 -0.00000000000E+00 -0.68618467329E+02  0.68618467329E+02  0.00000000000E+00 0. -1.
      99926    2    1    2    0    0  0.00000000000E+00  0.00000000000E+00  0.73424312183E+03  0.87148005649E+03  0.46943000213E+03 0.  0.
         25    1    3    3    0    0  0.60888694734E+02 -0.96271616874E+01  0.26924807468E+03  0.30321963856E+03  0.12509000000E+03 0.  0.
         25    1    3    3    0    0  0.34633864898E+02 -0.48685098644E+02  0.11506787238E+03  0.18016066936E+03  0.12509000000E+03 0.  0.
         25    1    3    3    0    0 -0.95522559632E+02  0.58312260332E+02  0.34992717477E+03  0.38809974858E+03  0.12509000000E+03 0.  0.
<mgrwt>
<rscale>  2 0.46943000E+03</rscale>
<asrwt>0</asrwt>
<pdfrwt beam="1">  1       21 0.11806788E+00 0.46943000E+03</pdfrwt>
<pdfrwt beam="2">  1       21 0.10090952E-01 0.46943000E+03</pdfrwt>
<totfact> 0.39794686E+04</totfact>
</mgrwt>
</event>
<event>
 6    0  0.1539652E-007  0.4546006E+03  0.7546771E-02  0.1026359E+00
         21   -1    0    0  502  501  0.00000000000E+00  0.00000000000E+00  0.15384082606E+03  0.15384082606E+03  0.00000000000E+00 0. -1.
         21   -1    0    0  501  502 -0.00000000000E+00 -0.00000000000E+00 -0.33583686072E+03  0.33583686072E+03  0.00000000000E+00 0. -1.
      99926    2    1    2    0    0  0.00000000000E+00  0.17763568394E-14 -0.18199603466E+03  0.48967768678E+03  0.45460057226E+03 0.  0.
         25    1    3    3    0    0  0.22945249252E+01  0.41529901241E+02 -0.33311355333E+02  0.13596746683E+03  0.12509000000E+03 0.  0.
         25    1    3    3    0    0  0.14476912853E+02 -0.54982665614E+02  0.23910473070E+02  0.13947004462E+03  0.12509000000E+03 0.  0.
         25    1    3    3    0    0 -0.16771437778E+02  0.13452764372E+02 -0.17259515239E+03  0.21424017533E+03  0.12509000000E+03 0.  0.
<mgrwt>
<rscale>  2 0.45460057E+03</rscale>
<asrwt>0</asrwt>
<pdfrwt beam="1">  1       21 0.22623652E-01 0.45460057E+03</pdfrwt>
<pdfrwt beam="2">  1       21 0.49387772E-01 0.45460057E+03</pdfrwt>
<totfact> 0.66211800E+04</totfact>
</mgrwt>
</event>
<event>
 6    0  0.1539652E-007  0.4387873E+03  0.7546771E-02  0.1031120E+00
         21   -1    0    0  502  501  0.00000000000E+00  0.00000000000E+00  0.24959446189E+03  0.24959446189E+03  0.00000000000E+00 0. -1.
         21   -1    0    0  501  502 -0.00000000000E+00 -0.00000000000E+00 -0.19284713349E+03  0.19284713349E+03  0.00000000000E+00 0. -1.
      99926    2    1    2    0    0  0.71054273576E-14 -0.17763568394E-14  0.56747328397E+02  0.44244159537E+03  0.43878731299E+03 0.  0.
         25    1    3    3    0    0  0.19433508705E+02 -0.48044271742E+02 -0.10015848237E+02  0.13577090492E+03  0.12509000000E+03 0.  0.
         25    1    3    3    0    0  0.58349078083E+02 -0.15055878415E+02  0.25139783623E+02  0.14110567391E+03  0.12509000000E+03 0.  0.
         25    1    3    3    0    0 -0.77782586789E+02  0.63100150158E+02  0.41623393011E+02  0.16556501654E+03  0.12509000000E+03 0.  0.
<mgrwt>
<rscale>  2 0.43878731E+03</rscale>
<asrwt>0</asrwt>
<pdfrwt beam="1">  1       21 0.36705068E-01 0.43878731E+03</pdfrwt>
<pdfrwt beam="2">  1       21 0.28359872E-01 0.43878731E+03</pdfrwt>
<totfact> 0.79239756E+04</totfact>
</mgrwt>
</event>
<event>
 6    0  0.1539652E-007  0.4513847E+03  0.7546771E-02  0.1027310E+00
         21   -1    0    0  502  501  0.00000000000E+00  0.00000000000E+00  0.65844354727E+02  0.65844354727E+02  0.00000000000E+00 0.  1.
         21   -1    0    0  501  502 -0.00000000000E+00 -0.00000000000E+00 -0.77359751887E+03  0.77359751887E+03  0.00000000000E+00 0.  1.
      99926    2    1    2    0    0  0.17763568394E-14  0.00000000000E+00 -0.70775316414E+03  0.83944187359E+03  0.45138466721E+03 0.  0.
         25    1    3    3    0    0 -0.14696838685E+02  0.39559556694E+02 -0.43174306947E+03  0.45147595919E+03  0.12509000000E+03 0.  0.
         25    1    3    3    0    0 -0.14324017781E+02 -0.53270554330E+02 -0.18475065649E+03  0.22983307555E+03  0.12509000000E+03 0.  0.
         25    1    3    3    0    0  0.29020856465E+02  0.13710997636E+02 -0.91259438182E+02  0.15813283885E+03  0.12509000000E+03 0.  0.
<mgrwt>
<rscale>  2 0.45138467E+03</rscale>
<asrwt>0</asrwt>
<pdfrwt beam="1">  1       21 0.96829944E-02 0.45138467E+03</pdfrwt>
<pdfrwt beam="2">  1       21 0.11376433E+00 0.45138467E+03</pdfrwt>
<totfact> 0.47241182E+04</totfact>
</mgrwt>
</event>
<event>
 6    0  0.1539652E-007  0.4528426E+03  0.7546771E-02  0.1026878E+00
         21   -1    0    0  502  501  0.00000000000E+00  0.00000000000E+00  0.26049126047E+03  0.26049126047E+03  0.00000000000E+00 0. -1.
         21   -1    0    0  501  502 -0.00000000000E+00 -0.00000000000E+00 -0.19680739844E+03  0.19680739844E+03  0.00000000000E+00 0. -1.
      99926    2    1    2    0    0  0.00000000000E+00  0.35527136788E-14  0.63683862028E+02  0.45729865891E+03  0.45284260969E+03 0.  0.
         25    1    3    3    0    0  0.32994388245E+02 -0.16284325628E+02  0.22330225553E+02  0.13228739921E+03  0.12509000000E+03 0.  0.
         25    1    3    3    0    0 -0.12882186160E+02 -0.28360617861E+02  0.11418181829E+03  0.17220705878E+03  0.12509000000E+03 0.  0.
         25    1    3    3    0    0 -0.20112202085E+02  0.44644943489E+02 -0.72828181812E+02  0.15280420092E+03  0.12509000000E+03 0.  0.
<mgrwt>
<rscale>  2 0.45284261E+03</rscale>
<asrwt>0</asrwt>
<pdfrwt beam="1">  1       21 0.38307538E-01 0.45284261E+03</pdfrwt>
<pdfrwt beam="2">  1       21 0.28942265E-01 0.45284261E+03</pdfrwt>
<totfact> 0.69567085E+04</totfact>
</mgrwt>
</event>
<event>
 6    0  0.1539652E-007  0.4607421E+03  0.7546771E-02  0.1024566E+00
         21   -1    0    0  502  501  0.00000000000E+00  0.00000000000E+00  0.67878857125E+02  0.67878857125E+02  0.00000000000E+00 0. -1.
         21   -1    0    0  501  502 -0.00000000000E+00 -0.00000000000E+00 -0.78184598038E+03  0.78184598038E+03  0.00000000000E+00 0. -1.
      99926    2    1    2    0    0  0.71054273576E-14  0.00000000000E+00 -0.71396712325E+03  0.84972483750E+03  0.46074206057E+03 0.  0.
         25    1    3    3    0    0 -0.24373238115E+02 -0.53918223173E+02 -0.27659153057E+03  0.30927594864E+03  0.12509000000E+03 0.  0.
         25    1    3    3    0    0 -0.63764870423E+02  0.10615515738E+02 -0.11816999458E+03  0.18382139047E+03  0.12509000000E+03 0.  0.
         25    1    3    3    0    0  0.88138108538E+02  0.43302707435E+02 -0.31920559810E+03  0.35662749839E+03  0.12509000000E+03 0.  0.
<mgrwt>
<rscale>  2 0.46074206E+03</rscale>
<asrwt>0</asrwt>
<pdfrwt beam="1">  1       21 0.99821846E-02 0.46074206E+03</pdfrwt>
<pdfrwt beam="2">  1       21 0.11497735E+00 0.46074206E+03</pdfrwt>
<totfact> 0.43460690E+04</totfact>
</mgrwt>
</event>
<event>
 6    0  0.1539652E-007  0.4603191E+03  0.7546771E-02  0.1024689E+00
         21   -1    0    0  502  501  0.00000000000E+00  0.00000000000E+00  0.36323498930E+03  0.36323498930E+03  0.00000000000E+00 0.  1.
         21   -1    0    0  501  502 -0.00000000000E+00 -0.00000000000E+00 -0.14583787514E+03  0.14583787514E+03  0.00000000000E+00 0.  1.
      99926    2    1    2    0    0  0.13322676296E-14  0.00000000000E+00  0.21739711416E+03  0.50907286444E+03  0.46031910243E+03 0.  0.
         25    1    3    3    0    0 -0.19613897964E+02  0.31888856004E+02 -0.18782424252E+02  0.13191622983E+03  0.12509000000E+03 0.  0.
         25    1    3    3    0    0  0.17299043332E+02  0.40611044623E+02  0.17634481148E+03  0.22066607007E+03  0.12509000000E+03 0.  0.
         25    1    3    3    0    0  0.23148546322E+01 -0.72499900627E+02  0.59834726933E+02  0.15649056454E+03  0.12509000000E+03 0.  0.
<mgrwt>
<rscale>  2 0.46031910E+03</rscale>
<asrwt>0</asrwt>
<pdfrwt beam="1">  1       21 0.53416910E-01 0.46031910E+03</pdfrwt>
<pdfrwt beam="2">  1       21 0.21446746E-01 0.46031910E+03</pdfrwt>
<totfact> 0.61979560E+04</totfact>
</mgrwt>
</event>
<event>
 6    0  0.1539652E-007  0.4535407E+03  0.7546771E-02  0.1026671E+00
         21   -1    0    0  502  501  0.00000000000E+00  0.00000000000E+00  0.50195923623E+03  0.50195923623E+03  0.00000000000E+00 0. -1.
         21   -1    0    0  501  502 -0.00000000000E+00 -0.00000000000E+00 -0.10244812196E+03  0.10244812196E+03  0.00000000000E+00 0. -1.
      99926    2    1    2    0    0 -0.71054273576E-14  0.00000000000E+00  0.39951111426E+03  0.60440735819E+03  0.45354065332E+03 0.  0.
         25    1    3    3    0    0 -0.29675852438E+02  0.98814194915E+01  0.17235537661E+03  0.21524911757E+03  0.12509000000E+03 0.  0.
         25    1    3    3    0    0  0.91438311618E+02  0.42120094956E+01  0.18783450953E+03  0.24353237346E+03  0.12509000000E+03 0.  0.
         25    1    3    3    0    0 -0.61762459180E+02 -0.14093428987E+02  0.39321228130E+02  0.14562586716E+03  0.12509000000E+03 0.  0.
<mgrwt>
<rscale>  2 0.45354065E+03</rscale>
<asrwt>0</asrwt>
<pdfrwt beam="1">  1       21 0.73817534E-01 0.45354065E+03</pdfrwt>
<pdfrwt beam="2">  1       21 0.15065900E-01 0.45354065E+03</pdfrwt>
<totfact> 0.59086070E+04</totfact>
</mgrwt>
</event>
<event>
 6    0  0.1539652E-007  0.4606961E+03  0.7546771E-02  0.1024580E+00
         21   -1    0    0  502  501  0.00000000000E+00  0.00000000000E+00  0.10978482273E+03  0.10978482273E+03  0.00000000000E+00 0.  1.
         21   -1    0    0  501  502 -0.00000000000E+00 -0.00000000000E+00 -0.48331106166E+03  0.48331106166E+03  0.00000000000E+00 0.  1.
      99926    2    1    2    0    0  0.00000000000E+00  0.15543122345E-14 -0.37352623893E+03  0.59309588438E+03  0.46069607867E+03 0.  0.
         25    1    3    3    0    0  0.15953967579E+02  0.94534253120E+00 -0.74275387374E+02  0.14635492484E+03  0.12509000000E+03 0.  0.
         25    1    3    3    0    0 -0.42178357786E+02 -0.17763267359E+02 -0.14272337629E+02  0.13396176788E+03  0.12509000000E+03 0.  0.
         25    1    3    3    0    0  0.26224390207E+02  0.16817924828E+02 -0.28497851393E+03  0.31277919167E+03  0.12509000000E+03 0.  0.
<mgrwt>
<rscale>  2 0.46069608E+03</rscale>
<asrwt>0</asrwt>
<pdfrwt beam="1">  1       21 0.16144827E-01 0.46069608E+03</pdfrwt>
<pdfrwt beam="2">  1       21 0.71075156E-01 0.46069608E+03</pdfrwt>
<totfact> 0.56517746E+04</totfact>
</mgrwt>
</event>
<event>
 6    0  0.1539652E-007  0.4536736E+03  0.7546771E-02  0.1026632E+00
         21   -1    0    0  502  501  0.00000000000E+00  0.00000000000E+00  0.24548862486E+03  0.24548862486E+03  0.00000000000E+00 0. -1.
         21   -1    0    0  501  502 -0.00000000000E+00 -0.00000000000E+00 -0.20960211490E+03  0.20960211490E+03  0.00000000000E+00 0. -1.
      99926    2    1    2    0    0 -0.71054273576E-14  0.00000000000E+00  0.35886509965E+02  0.45509073975E+03  0.45367360493E+03 0.  0.
         25    1    3    3    0    0  0.88758880728E+02  0.14658833716E+01  0.26060919986E+02  0.15558588423E+03  0.12509000000E+03 0.  0.
         25    1    3    3    0    0  0.10813199965E+02 -0.37261681339E+02 -0.21429616889E+02  0.13271056766E+03  0.12509000000E+03 0.  0.
         25    1    3    3    0    0 -0.99572080693E+02  0.35795797967E+02  0.31255206867E+02  0.16679428786E+03  0.12509000000E+03 0.  0.
<mgrwt>
<rscale>  2 0.45367360E+03</rscale>
<asrwt>0</asrwt>
<pdfrwt beam="1">  1       21 0.36101268E-01 0.45367360E+03</pdfrwt>
<pdfrwt beam="2">  1       21 0.30823841E-01 0.45367360E+03</pdfrwt>
<totfact> 0.69269353E+04</totfact>
</mgrwt>
</event>
<event>
 6    0  0.1539652E-007  0.4334273E+03  0.7546771E-02  0.1032783E+00
         21   -1    0    0  502  501  0.00000000000E+00  0.00000000000E+00  0.13487429946E+03  0.13487429946E+03  0.00000000000E+00 0.  1.
         21   -1    0    0  501  502 -0.00000000000E+00 -0.00000000000E+00 -0.34821166012E+03  0.34821166012E+03  0.00000000000E+00 0.  1.
      99926    2    1    2    0    0 -0.44408920985E-15  0.88817841970E-15 -0.21333736066E+03  0.48308595957E+03  0.43342728904E+03 0.  0.
         25    1    3    3    0    0  0.88924695074E+01  0.53918125241E+01  0.21583051264E+02  0.12736358922E+03  0.12509000000E+03 0.  0.
         25    1    3    3    0    0  0.28078133342E+01 -0.72702484214E+01 -0.56452941793E+02  0.13745975071E+03  0.12509000000E+03 0.  0.
         25    1    3    3    0    0 -0.11700282842E+02  0.18784358974E+01 -0.17846747013E+03  0.21826261965E+03  0.12509000000E+03 0.  0.
<mgrwt>
<rscale>  2 0.43342729E+03</rscale>
<asrwt>0</asrwt>
<pdfrwt beam="1">  1       21 0.19834456E-01 0.43342729E+03</pdfrwt>
<pdfrwt beam="2">  1       21 0.51207596E-01 0.43342729E+03</pdfrwt>
<totfact> 0.79193713E+04</totfact>
</mgrwt>
</event>
<event>
 6    0  0.1539652E-007  0.4718201E+03  0.7546771E-02  0.1021408E+00
         21   -1    0    0  502  501  0.00000000000E+00  0.00000000000E+00  0.36631118139E+02  0.36631118139E+02  0.00000000000E+00 0. -1.
         21   -1    0    0  501  502 -0.00000000000E+00 -0.00000000000E+00 -0.15192970234E+04  0.15192970234E+04  0.00000000000E+00 0. -1.
      99926    2    1    2    0    0 -0.17763568394E-14  0.00000000000E+00 -0.14826659053E+04  0.15559281415E+04  0.47182008754E+03 0.  0.
         25    1    3    3    0    0 -0.34548035815E+02  0.40285045848E+02 -0.49145072754E+03  0.50988996597E+03  0.12509000000E+03 0.  0.
         25    1    3    3    0    0  0.22831892062E+02 -0.12781011967E+03 -0.57162253168E+03  0.59938013715E+03  0.12509000000E+03 0.  0.
         25    1    3    3    0    0  0.11716143753E+02  0.87525073820E+02 -0.41959264603E+03  0.44665803841E+03  0.12509000000E+03 0.  0.
<mgrwt>
<rscale>  2 0.47182009E+03</rscale>
<asrwt>0</asrwt>
<pdfrwt beam="1">  1       21 0.53869284E-02 0.47182009E+03</pdfrwt>
<pdfrwt beam="2">  1       21 0.22342607E+00 0.47182009E+03</pdfrwt>
<totfact> 0.19734641E+04</totfact>
</mgrwt>
</event>
<event>
 6    0  0.1539652E-007  0.4584260E+03  0.7546771E-02  0.1025239E+00
         21   -1    0    0  502  501  0.00000000000E+00  0.00000000000E+00  0.60655618764E+03  0.60655618764E+03  0.00000000000E+00 0. -1.
         21   -1    0    0  501  502 -0.00000000000E+00 -0.00000000000E+00 -0.86617853817E+02  0.86617853817E+02  0.00000000000E+00 0. -1.
      99926    2    1    2    0    0  0.00000000000E+00  0.00000000000E+00  0.51993833383E+03  0.69317404146E+03  0.45842598178E+03 0.  0.
         25    1    3    3    0    0  0.44936740154E+02  0.39032273506E+02  0.58600976860E+02  0.15041413358E+03  0.12509000000E+03 0.  0.
         25    1    3    3    0    0 -0.24918541118E+02 -0.47515307932E+02  0.34371621681E+03  0.36968497937E+03  0.12509000000E+03 0.  0.
         25    1    3    3    0    0 -0.20018199036E+02  0.84830344266E+01  0.11762114016E+03  0.17307492851E+03  0.12509000000E+03 0.  0.
<mgrwt>
<rscale>  2 0.45842598E+03</rscale>
<asrwt>0</asrwt>
<pdfrwt beam="1">  1       21 0.89199437E-01 0.45842598E+03</pdfrwt>
<pdfrwt beam="2">  1       21 0.12737920E-01 0.45842598E+03</pdfrwt>
<totfact> 0.51862388E+04</totfact>
</mgrwt>
</event>
<event>
 6    0  0.1539652E-007  0.4498760E+03  0.7546771E-02  0.1027759E+00
         21   -1    0    0  502  501  0.00000000000E+00  0.00000000000E+00  0.21001271774E+03  0.21001271774E+03  0.00000000000E+00 0.  1.
         21   -1    0    0  501  502 -0.00000000000E+00 -0.00000000000E+00 -0.24092400056E+03  0.24092400056E+03  0.00000000000E+00 0.  1.
      99926    2    1    2    0    0 -0.10408340856E-14  0.71054273576E-14 -0.30911282822E+02  0.45093671830E+03  0.44987600125E+03 0.  0.
         25    1    3    3    0    0 -0.42829958743E+02  0.66522631050E+02 -0.20844195111E+02  0.14947124933E+03  0.12509000000E+03 0.  0.
         25    1    3    3    0    0  0.12079404974E+00 -0.59481500825E+02  0.60860077924E+02  0.15129283102E+03  0.12509000000E+03 0.  0.
         25    1    3    3    0    0  0.42709164693E+02 -0.70411302243E+01 -0.70927165635E+02  0.15017263795E+03  0.12509000000E+03 0.  0.
<mgrwt>
<rscale>  2 0.44987600E+03</rscale>
<asrwt>0</asrwt>
<pdfrwt beam="1">  1       21 0.30884223E-01 0.44987600E+03</pdfrwt>
<pdfrwt beam="2">  1       21 0.35430000E-01 0.44987600E+03</pdfrwt>
<totfact> 0.71732639E+04</totfact>
</mgrwt>
</event>
<event>
 6    0  0.1539652E-007  0.4468521E+03  0.7546771E-02  0.1028665E+00
         21   -1    0    0  502  501  0.00000000000E+00  0.00000000000E+00  0.49892768205E+03  0.49892768205E+03  0.00000000000E+00 0. -1.
         21   -1    0    0  501  502 -0.00000000000E+00 -0.00000000000E+00 -0.10005299231E+03  0.10005299231E+03  0.00000000000E+00 0. -1.
      99926    2    1    2    0    0  0.00000000000E+00  0.00000000000E+00  0.39887468973E+03  0.59898067436E+03  0.44685213455E+03 0.  0.
         25    1    3    3    0    0  0.34787415384E+02  0.10058526628E+02  0.65544470304E+02  0.14579068528E+03  0.12509000000E+03 0.  0.
         25    1    3    3    0    0  0.59724913983E+02  0.36765379840E+02  0.15698159501E+03  0.21262522846E+03  0.12509000000E+03 0.  0.
         25    1    3    3    0    0 -0.94512329367E+02 -0.46823906467E+02  0.17634862442E+03  0.24056476063E+03  0.12509000000E+03 0.  0.
<mgrwt>
<rscale>  2 0.44685213E+03</rscale>
<asrwt>0</asrwt>
<pdfrwt beam="1">  1       21 0.73371717E-01 0.44685213E+03</pdfrwt>
<pdfrwt beam="2">  1       21 0.14713676E-01 0.44685213E+03</pdfrwt>
<totfact> 0.62679828E+04</totfact>
</mgrwt>
</event>
<event>
 6    0  0.1539652E-007  0.4587473E+03  0.7546771E-02  0.1025145E+00
         21   -1    0    0  502  501  0.00000000000E+00  0.00000000000E+00  0.38357797133E+03  0.38357797133E+03  0.00000000000E+00 0. -1.
         21   -1    0    0  501  502 -0.00000000000E+00 -0.00000000000E+00 -0.13716185089E+03  0.13716185089E+03  0.00000000000E+00 0. -1.
      99926    2    1    2    0    0  0.00000000000E+00  0.00000000000E+00  0.24641612043E+03  0.52073982222E+03  0.45874727033E+03 0.  0.
         25    1    3    3    0    0 -0.43975896693E+02  0.78969277847E+02  0.18749941369E+03  0.24284473346E+03  0.12509000000E+03 0.  0.
         25    1    3    3    0    0  0.90721780123E+01 -0.26316372721E+02  0.49721867512E+02  0.13745773203E+03  0.12509000000E+03 0.  0.
         25    1    3    3    0    0  0.34903718681E+02 -0.52652905126E+02  0.91948392273E+01  0.14043735673E+03  0.12509000000E+03 0.  0.
<mgrwt>
<rscale>  2 0.45874727E+03</rscale>
<asrwt>0</asrwt>
<pdfrwt beam="1">  1       21 0.56408525E-01 0.45874727E+03</pdfrwt>
<pdfrwt beam="2">  1       21 0.20170860E-01 0.45874727E+03</pdfrwt>
<totfact> 0.61973720E+04</totfact>
</mgrwt>
</event>
<event>
 6    0  0.1539652E-007  0.4584662E+03  0.7546771E-02  0.1025227E+00
         21   -1    0    0  502  501  0.00000000000E+00  0.00000000000E+00  0.40297846374E+03  0.40297846374E+03  0.00000000000E+00 0.  1.
         21   -1    0    0  501  502 -0.00000000000E+00 -0.00000000000E+00 -0.13039858202E+03  0.13039858202E+03  0.00000000000E+00 0.  1.
      99926    2    1    2    0    0  0.00000000000E+00  0.00000000000E+00  0.27257988173E+03  0.53337704576E+03  0.45846622669E+03 0.  0.
         25    1    3    3    0    0 -0.19444005664E+02 -0.56474326425E+02  0.66046420955E+02  0.15354822279E+03  0.12509000000E+03 0.  0.
         25    1    3    3    0    0  0.98576264176E+02  0.13914977553E+01  0.84903013726E+02  0.18048613787E+03  0.12509000000E+03 0.  0.
         25    1    3    3    0    0 -0.79132258512E+02  0.55082828670E+02  0.12163044705E+03  0.19934268509E+03  0.12509000000E+03 0.  0.
<mgrwt>
<rscale>  2 0.45846623E+03</rscale>
<asrwt>0</asrwt>
<pdfrwt beam="1">  1       21 0.59261538E-01 0.45846623E+03</pdfrwt>
<pdfrwt beam="2">  1       21 0.19176262E-01 0.45846623E+03</pdfrwt>
<totfact> 0.61277664E+04</totfact>
</mgrwt>
</event>
<event>
 6    0  0.1539652E-007  0.4565168E+03  0.7546771E-02  0.1025796E+00
         21   -1    0    0  502  501  0.00000000000E+00  0.00000000000E+00  0.87759692680E+02  0.87759692680E+02  0.00000000000E+00 0.  1.
         21   -1    0    0  501  502 -0.00000000000E+00 -0.00000000000E+00 -0.59368831366E+03  0.59368831366E+03  0.00000000000E+00 0.  1.
      99926    2    1    2    0    0 -0.17763568394E-14  0.00000000000E+00 -0.50592862098E+03  0.68144800634E+03  0.45651682972E+03 0.  0.
         25    1    3    3    0    0  0.35849788970E+02  0.91250184294E+02 -0.10162943270E+03  0.18864743092E+03  0.12509000000E+03 0.  0.
         25    1    3    3    0    0  0.65757385466E+01 -0.79028496130E+02 -0.23399623200E+03  0.27693047544E+03  0.12509000000E+03 0.  0.
         25    1    3    3    0    0 -0.42425527517E+02 -0.12221688163E+02 -0.17030295628E+03  0.21587009998E+03  0.12509000000E+03 0.  0.
<mgrwt>
<rscale>  2 0.45651683E+03</rscale>
<asrwt>0</asrwt>
<pdfrwt beam="1">  1       21 0.12905837E-01 0.45651683E+03</pdfrwt>
<pdfrwt beam="2">  1       21 0.87307105E-01 0.45651683E+03</pdfrwt>
<totfact> 0.53282954E+04</totfact>
</mgrwt>
</event>
<event>
 6    0  0.1539652E-007  0.4599089E+03  0.7546771E-02  0.1024808E+00
         21   -1    0    0  502  501  0.00000000000E+00  0.00000000000E+00  0.35676945424E+03  0.35676945424E+03  0.00000000000E+00 0.  1.
         21   -1    0    0  501  502 -0.00000000000E+00 -0.00000000000E+00 -0.14821631206E+03  0.14821631206E+03  0.00000000000E+00 0.  1.
      99926    2    1    2    0    0  0.00000000000E+00  0.00000000000E+00  0.20855314218E+03  0.50498576630E+03  0.45990891604E+03 0.  0.
         25    1    3    3    0    0 -0.60029311367E+02  0.33516415235E+02 -0.24025138049E+02  0.14474661886E+03  0.12509000000E+03 0.  0.
         25    1    3    3    0    0  0.48559339471E+02  0.12849339775E+02  0.78028474662E+02  0.15575322128E+03  0.12509000000E+03 0.  0.
         25    1    3    3    0    0  0.11469971896E+02 -0.46365755010E+02  0.15454980557E+03  0.20448592615E+03  0.12509000000E+03 0.  0.
<mgrwt>
<rscale>  2 0.45990892E+03</rscale>
<asrwt>0</asrwt>
<pdfrwt beam="1">  1       21 0.52466096E-01 0.45990892E+03</pdfrwt>
<pdfrwt beam="2">  1       21 0.21796517E-01 0.45990892E+03</pdfrwt>
<totfact> 0.62452581E+04</totfact>
</mgrwt>
</event>
<event>
 6    0  0.1539652E-007  0.4523602E+03  0.7546771E-02  0.1027021E+00
         21   -1    0    0  502  501  0.00000000000E+00  0.00000000000E+00  0.41594286804E+03  0.41594286804E+03  0.00000000000E+00 0. -1.
         21   -1    0    0  501  502 -0.00000000000E+00 -0.00000000000E+00 -0.12299150252E+03  0.12299150252E+03  0.00000000000E+00 0. -1.
      99926    2    1    2    0    0  0.00000000000E+00  0.00000000000E+00  0.29295136552E+03  0.53893437056E+03  0.45236020295E+03 0.  0.
         25    1    3    3    0    0  0.10945097921E+02  0.81125511758E+02  0.42543694445E+02  0.15543042773E+03  0.12509000000E+03 0.  0.
         25    1    3    3    0    0 -0.41785986903E+02 -0.91709031056E+02  0.12685682595E+03  0.20468702321E+03  0.12509000000E+03 0.  0.
         25    1    3    3    0    0  0.30840888983E+02  0.10583519298E+02  0.12355084512E+03  0.17881691963E+03  0.12509000000E+03 0.  0.
<mgrwt>
<rscale>  2 0.45236020E+03</rscale>
<asrwt>0</asrwt>
<pdfrwt beam="1">  1       21 0.61168068E-01 0.45236020E+03</pdfrwt>
<pdfrwt beam="2">  1       21 0.18086986E-01 0.45236020E+03</pdfrwt>
<totfact> 0.63928858E+04</totfact>
</mgrwt>
</event>
<event>
 6    0  0.1539652E-007  0.4562499E+03  0.7546771E-02  0.1025874E+00
         21   -1    0    0  502  501  0.00000000000E+00  0.00000000000E+00  0.50478103684E+03  0.50478103684E+03  0.00000000000E+00 0. -1.
         21   -1    0    0  501  502 -0.00000000000E+00 -0.00000000000E+00 -0.10309615987E+03  0.10309615987E+03  0.00000000000E+00 0. -1.
      99926    2    1    2    0    0 -0.71054273576E-14  0.00000000000E+00  0.40168487698E+03  0.60787719671E+03  0.45624987221E+03 0.  0.
         25    1    3    3    0    0  0.84292967983E+02 -0.15964049330E+01  0.19571314848E+03  0.24710118888E+03  0.12509000000E+03 0.  0.
         25    1    3    3    0    0 -0.39421110485E+02  0.58039126539E+02  0.14530084264E+03  0.20416269771E+03  0.12509000000E+03 0.  0.
         25    1    3    3    0    0 -0.44871857498E+02 -0.56442721606E+02  0.60670885854E+02  0.15661331012E+03  0.12509000000E+03 0.  0.
<mgrwt>
<rscale>  2 0.45624987E+03</rscale>
<asrwt>0</asrwt>
<pdfrwt beam="1">  1       21 0.74232504E-01 0.45624987E+03</pdfrwt>
<pdfrwt beam="2">  1       21 0.15161200E-01 0.45624987E+03</pdfrwt>
<totfact> 0.57624947E+04</totfact>
</mgrwt>
</event>
<event>
 6    0  0.1539652E-007  0.4554738E+03  0.7546771E-02  0.1026102E+00
         21   -1    0    0  502  501  0.00000000000E+00  0.00000000000E+00  0.54952769097E+02  0.54952769097E+02  0.00000000000E+00 0.  1.
         21   -1    0    0  501  502 -0.00000000000E+00 -0.00000000000E+00 -0.94379406919E+03  0.94379406919E+03  0.00000000000E+00 0.  1.
      99926    2    1    2    0    0 -0.71054273576E-14  0.00000000000E+00 -0.88884130010E+03  0.99874683829E+03  0.45547380851E+03 0.  0.
         25    1    3    3    0    0 -0.12142465277E+02 -0.20229566715E+01 -0.85940182583E+02  0.15226540940E+03  0.12509000000E+03 0.  0.
         25    1    3    3    0    0 -0.27599653598E+02 -0.20512249950E+02 -0.31342621092E+03  0.33921378373E+03  0.12509000000E+03 0.  0.
         25    1    3    3    0    0  0.39742118875E+02  0.22535206621E+02 -0.48947490659E+03  0.50726764516E+03  0.12509000000E+03 0.  0.
<mgrwt>
<rscale>  2 0.45547381E+03</rscale>
<asrwt>0</asrwt>
<pdfrwt beam="1">  1       21 0.80812900E-02 0.45547381E+03</pdfrwt>
<pdfrwt beam="2">  1       21 0.13879324E+00 0.45547381E+03</pdfrwt>
<totfact> 0.39070798E+04</totfact>
</mgrwt>
</event>
<event>
 6    0  0.1539652E-007  0.4496243E+03  0.7546771E-02  0.1027834E+00
         21   -1    0    0  502  501  0.00000000000E+00  0.00000000000E+00  0.18558016052E+03  0.18558016052E+03  0.00000000000E+00 0.  1.
         21   -1    0    0  501  502 -0.00000000000E+00 -0.00000000000E+00 -0.27233782859E+03  0.27233782859E+03  0.00000000000E+00 0.  1.
      99926    2    1    2    0    0  0.00000000000E+00 -0.35527136788E-14 -0.86757668070E+02  0.45791798911E+03  0.44962427846E+03 0.  0.
         25    1    3    3    0    0 -0.16089165604E+02 -0.66222282784E+02 -0.70834726341E+02  0.15908902710E+03  0.12509000000E+03 0.  0.
         25    1    3    3    0    0  0.80878507181E+02  0.25966161029E+02 -0.18219193244E+02  0.15229911866E+03  0.12509000000E+03 0.  0.
         25    1    3    3    0    0 -0.64789341577E+02  0.40256121755E+02  0.22962515143E+01  0.14652984335E+03  0.12509000000E+03 0.  0.
<mgrwt>
<rscale>  2 0.44962428E+03</rscale>
<asrwt>0</asrwt>
<pdfrwt beam="1">  1       21 0.27291201E-01 0.44962428E+03</pdfrwt>
<pdfrwt beam="2">  1       21 0.40049680E-01 0.44962428E+03</pdfrwt>
<totfact> 0.71339319E+04</totfact>
</mgrwt>
</event>
<event>
 6    0  0.1539652E-007  0.4562385E+03  0.7546771E-02  0.1025878E+00
         21   -1    0    0  502  501  0.00000000000E+00  0.00000000000E+00  0.13338092387E+03  0.13338092387E+03  0.00000000000E+00 0. -1.
         21   -1    0    0  501  502 -0.00000000000E+00 -0.00000000000E+00 -0.39014862840E+03  0.39014862840E+03  0.00000000000E+00 0. -1.
      99926    2    1    2    0    0  0.00000000000E+00  0.00000000000E+00 -0.25676770452E+03  0.52352955227E+03  0.45623846617E+03 0.  0.
         25    1    3    3    0    0 -0.13476532608E+02 -0.37267455871E+00 -0.13300897269E+03  0.18308645699E+03  0.12509000000E+03 0.  0.
         25    1    3    3    0    0  0.34099564659E+02 -0.84285288496E+02 -0.19755697884E+02  0.15589928116E+03  0.12509000000E+03 0.  0.
         25    1    3    3    0    0 -0.20623032052E+02  0.84657963055E+02 -0.10400303395E+03  0.18454381412E+03  0.12509000000E+03 0.  0.
<mgrwt>
<rscale>  2 0.45623847E+03</rscale>
<asrwt>0</asrwt>
<pdfrwt beam="1">  1       21 0.19614842E-01 0.45623847E+03</pdfrwt>
<pdfrwt beam="2">  1       21 0.57374798E-01 0.45623847E+03</pdfrwt>
<totfact> 0.63025532E+04</totfact>
</mgrwt>
</event>
<event>
 6    0  0.1539652E-007  0.4627684E+03  0.7546771E-02  0.1023981E+00
         21   -1    0    0  502  501  0.00000000000E+00  0.00000000000E+00  0.59641317649E+03  0.59641317649E+03  0.00000000000E+00 0.  1.
         21   -1    0    0  501  502 -0.00000000000E+00 -0.00000000000E+00 -0.89767721341E+02  0.89767721341E+02  0.00000000000E+00 0.  1.
      99926    2    1    2    0    0  0.17763568394E-14  0.00000000000E+00  0.50664545515E+03  0.68618089783E+03  0.46276841652E+03 0.  0.
         25    1    3    3    0    0 -0.17608074874E+02  0.63797618820E+02  0.14068278153E+03  0.19954782281E+03  0.12509000000E+03 0.  0.
         25    1    3    3    0    0  0.45691098663E+01 -0.58363911290E+02  0.50625925861E+02  0.14709763892E+03  0.12509000000E+03 0.  0.
         25    1    3    3    0    0  0.13038965008E+02 -0.54337075294E+01  0.31533674775E+03  0.33953543610E+03  0.12509000000E+03 0.  0.
<mgrwt>
<rscale>  2 0.46276842E+03</rscale>
<asrwt>0</asrwt>
<pdfrwt beam="1">  1       21 0.87707818E-01 0.46276842E+03</pdfrwt>
<pdfrwt beam="2">  1       21 0.13201136E-01 0.46276842E+03</pdfrwt>
<totfact> 0.50498257E+04</totfact>
</mgrwt>
</event>
<event>
 6    0  0.1539652E-007  0.4643610E+03  0.7546771E-02  0.1023524E+00
         21   -1    0    0  502  501  0.00000000000E+00  0.00000000000E+00  0.23404869037E+03  0.23404869037E+03  0.00000000000E+00 0.  1.
         21   -1    0    0  501  502 -0.00000000000E+00 -0.00000000000E+00 -0.23032721319E+03  0.23032721319E+03  0.00000000000E+00 0.  1.
      99926    2    1    2    0    0 -0.71054273576E-14  0.00000000000E+00  0.37214771811E+01  0.46437590355E+03  0.46436099148E+03 0.  0.
         25    1    3    3    0    0  0.65486685235E+02 -0.31492780438E+01  0.30418869974E+01  0.14126282268E+03  0.12509000000E+03 0.  0.
         25    1    3    3    0    0 -0.41230200817E+02  0.66531824571E+02  0.71705682884E+02  0.16405982506E+03  0.12509000000E+03 0.  0.
         25    1    3    3    0    0 -0.24256484418E+02 -0.63382546527E+02 -0.71026092700E+02  0.15905325581E+03  0.12509000000E+03 0.  0.
<mgrwt>
<rscale>  2 0.46436099E+03</rscale>
<asrwt>0</asrwt>
<pdfrwt beam="1">  1       21 0.34418925E-01 0.46436099E+03</pdfrwt>
<pdfrwt beam="2">  1       21 0.33871649E-01 0.46436099E+03</pdfrwt>
<totfact> 0.63023810E+04</totfact>
</mgrwt>
</event>
<event>
 6    0  0.1539652E-007  0.4702233E+03  0.7546771E-02  0.1021857E+00
         21   -1    0    0  502  501  0.00000000000E+00  0.00000000000E+00  0.79111435685E+03  0.79111435685E+03  0.00000000000E+00 0.  1.
         21   -1    0    0  501  502 -0.00000000000E+00 -0.00000000000E+00 -0.69872932881E+02  0.69872932881E+02  0.00000000000E+00 0.  1.
      99926    2    1    2    0    0  0.00000000000E+00 -0.71054273576E-14  0.72124142397E+03  0.86098728973E+03  0.47022326764E+03 0.  0.
         25    1    3    3    0    0  0.10228445220E+03  0.34526123329E+02  0.31909841416E+03  0.35934032389E+03  0.12509000000E+03 0.  0.
         25    1    3    3    0    0 -0.77085109146E+02 -0.71725492938E+02  0.18353121458E+03  0.24580047847E+03  0.12509000000E+03 0.  0.
         25    1    3    3    0    0 -0.25199343050E+02  0.37199369610E+02  0.21861179523E+03  0.25584648738E+03  0.12509000000E+03 0.  0.
<mgrwt>
<rscale>  2 0.47022327E+03</rscale>
<asrwt>0</asrwt>
<pdfrwt beam="1">  1       21 0.11634034E+00 0.47022327E+03</pdfrwt>
<pdfrwt beam="2">  1       21 0.10275432E-01 0.47022327E+03</pdfrwt>
<totfact> 0.39961914E+04</totfact>
</mgrwt>
</event>
<event>
 6    0  0.1539652E-007  0.4825453E+03  0.7546771E-02  0.1018438E+00
         21   -1    0    0  502  501  0.00000000000E+00  0.00000000000E+00  0.12550942160E+04  0.12550942160E+04  0.00000000000E+00 0.  1.
         21   -1    0    0  501  502 -0.00000000000E+00 -0.00000000000E+00 -0.46380968006E+02  0.46380968006E+02  0.00000000000E+00 0.  1.
      99926    2    1    2    0    0  0.00000000000E+00  0.71054273576E-14  0.12087132479E+04  0.13014751840E+04  0.48254527114E+03 0.  0.
         25    1    3    3    0    0 -0.70532943294E+02 -0.25136437418E+02  0.26337253793E+03  0.30103046094E+03  0.12509000000E+03 0.  0.
         25    1    3    3    0    0 -0.23978047301E+02 -0.58398512407E+02  0.30014904164E+03  0.33124354832E+03  0.12509000000E+03 0.  0.
         25    1    3    3    0    0  0.94510990595E+02  0.83534949826E+02  0.64519166837E+03  0.66920117470E+03  0.12509000000E+03 0.  0.
<mgrwt>
<rscale>  2 0.48254527E+03</rscale>
<asrwt>0</asrwt>
<pdfrwt beam="1">  1       21 0.18457266E+00 0.48254527E+03</pdfrwt>
<pdfrwt beam="2">  1       21 0.68207314E-02 0.48254527E+03</pdfrwt>
<totfact> 0.23594651E+04</totfact>
</mgrwt>
</event>
<event>
 6    0  0.1539652E-007  0.4545827E+03  0.7546771E-02  0.1026364E+00
         21   -1    0    0  502  501  0.00000000000E+00  0.00000000000E+00  0.32813431319E+03  0.32813431319E+03  0.00000000000E+00 0.  1.
         21   -1    0    0  501  502 -0.00000000000E+00 -0.00000000000E+00 -0.15743966616E+03  0.15743966616E+03  0.00000000000E+00 0.  1.
      99926    2    1    2    0    0 -0.14210854715E-13  0.00000000000E+00  0.17069464703E+03  0.48557397935E+03  0.45458269533E+03 0.  0.
         25    1    3    3    0    0  0.83692400998E+02 -0.27249617716E+02  0.15114553524E+02  0.15369748690E+03  0.12509000000E+03 0.  0.
         25    1    3    3    0    0  0.21197398904E+01 -0.26410748791E+02  0.40761738533E+02  0.13420524720E+03  0.12509000000E+03 0.  0.
         25    1    3    3    0    0 -0.85812140889E+02  0.53660366507E+02  0.11481835498E+03  0.19767124525E+03  0.12509000000E+03 0.  0.
<mgrwt>
<rscale>  2 0.45458270E+03</rscale>
<asrwt>0</asrwt>
<pdfrwt beam="1">  1       21 0.48255046E-01 0.45458270E+03</pdfrwt>
<pdfrwt beam="2">  1       21 0.23152892E-01 0.45458270E+03</pdfrwt>
<totfact> 0.66516623E+04</totfact>
</mgrwt>
</event>
<event>
 6    0  0.1539652E-007  0.4532310E+03  0.7546771E-02  0.1026763E+00
         21   -1    0    0  502  501  0.00000000000E+00  0.00000000000E+00  0.35167379856E+03  0.35167379856E+03  0.00000000000E+00 0. -1.
         21   -1    0    0  501  502 -0.00000000000E+00 -0.00000000000E+00 -0.14602901619E+03  0.14602901619E+03  0.00000000000E+00 0. -1.
      99926    2    1    2    0    0  0.00000000000E+00 -0.35527136788E-14  0.20564478236E+03  0.49770281475E+03  0.45323097345E+03 0.  0.
         25    1    3    3    0    0 -0.90129644710E+01  0.58311278991E+02  0.69408512271E+02  0.15474652972E+03  0.12509000000E+03 0.  0.
         25    1    3    3    0    0 -0.73698241128E+02 -0.47139772757E+02  0.22250291302E+02  0.15426008066E+03  0.12509000000E+03 0.  0.
         25    1    3    3    0    0  0.82711205599E+02 -0.11171506234E+02  0.11398597879E+03  0.18869620437E+03  0.12509000000E+03 0.  0.
<mgrwt>
<rscale>  2 0.45323097E+03</rscale>
<asrwt>0</asrwt>
<pdfrwt beam="1">  1       21 0.51716735E-01 0.45323097E+03</pdfrwt>
<pdfrwt beam="2">  1       21 0.21474855E-01 0.45323097E+03</pdfrwt>
<totfact> 0.66359339E+04</totfact>
</mgrwt>
</event>
<event>
 6    0  0.1539652E-007  0.4539915E+03  0.7546771E-02  0.1026538E+00
         21   -1    0    0  502  501  0.00000000000E+00  0.00000000000E+00  0.57717277927E+03  0.57717277927E+03  0.00000000000E+00 0. -1.
         21   -1    0    0  501  502 -0.00000000000E+00 -0.00000000000E+00 -0.89274941639E+02  0.89274941639E+02  0.00000000000E+00 0. -1.
      99926    2    1    2    0    0  0.14210854715E-13  0.71054273576E-14  0.48789783763E+03  0.66644772090E+03  0.45399148091E+03 0.  0.
         25    1    3    3    0    0 -0.16465939996E+02 -0.43850900314E+02  0.19709506533E+03  0.23809242221E+03  0.12509000000E+03 0.  0.
         25    1    3    3    0    0  0.99649703822E+02  0.36718337739E+02  0.15493862173E+03  0.22568071340E+03  0.12509000000E+03 0.  0.
         25    1    3    3    0    0 -0.83183763826E+02  0.71325625745E+01  0.13586415057E+03  0.20267458529E+03  0.12509000000E+03 0.  0.
<mgrwt>
<rscale>  2 0.45399148E+03</rscale>
<asrwt>0</asrwt>
<pdfrwt beam="1">  1       21 0.84878348E-01 0.45399148E+03</pdfrwt>
<pdfrwt beam="2">  1       21 0.13128668E-01 0.45399148E+03</pdfrwt>
<totfact> 0.55200233E+04</totfact>
</mgrwt>
</event>
<event>
 6    0  0.1539652E-007  0.4562532E+03  0.7546771E-02  0.1025874E+00
         21   -1    0    0  502  501  0.00000000000E+00  0.00000000000E+00  0.42012219694E+02  0.42012219694E+02  0.00000000000E+00 0. -1.
         21   -1    0    0  501  502 -0.00000000000E+00 -0.00000000000E+00 -0.12387288621E+04  0.12387288621E+04  0.00000000000E+00 0. -1.
      99926    2    1    2    0    0 -0.71054273576E-14  0.00000000000E+00 -0.11967166424E+04  0.12807410818E+04  0.45625321521E+03 0.  0.
         25    1    3    3    0    0  0.14348966003E+02  0.69868543127E+02 -0.55212601182E+03  0.57059455585E+03  0.12509000000E+03 0.  0.
         25    1    3    3    0    0 -0.51109332004E+02 -0.46634784702E+02 -0.19716871036E+03  0.24353639442E+03  0.12509000000E+03 0.  0.
         25    1    3    3    0    0  0.36760366001E+02 -0.23233758425E+02 -0.44742192027E+03  0.46661013156E+03  0.12509000000E+03 0.  0.
<mgrwt>
<rscale>  2 0.45625322E+03</rscale>
<asrwt>0</asrwt>
<pdfrwt beam="1">  1       21 0.61782687E-02 0.45625322E+03</pdfrwt>
<pdfrwt beam="2">  1       21 0.18216598E+00 0.45625322E+03</pdfrwt>
<totfact> 0.29391588E+04</totfact>
</mgrwt>
</event>
<event>
 6    0  0.1539652E-007  0.4491329E+03  0.7546771E-02  0.1027981E+00
         21   -1    0    0  502  501  0.00000000000E+00  0.00000000000E+00  0.44535092155E+03  0.44535092155E+03  0.00000000000E+00 0.  1.
         21   -1    0    0  501  502 -0.00000000000E+00 -0.00000000000E+00 -0.11323676421E+03  0.11323676421E+03  0.00000000000E+00 0.  1.
      99926    2    1    2    0    0  0.00000000000E+00  0.35527136788E-14  0.33211415735E+03  0.55858768576E+03  0.44913293040E+03 0.  0.
         25    1    3    3    0    0  0.30871843326E+02  0.20264515226E+02  0.22715747212E+03  0.26193844034E+03  0.12509000000E+03 0.  0.
         25    1    3    3    0    0 -0.20013329806E+01 -0.49255129426E+02  0.10920816563E+02  0.13489568356E+03  0.12509000000E+03 0.  0.
         25    1    3    3    0    0 -0.28870510346E+02  0.28990614200E+02  0.94035868669E+02  0.16175356186E+03  0.12509000000E+03 0.  0.
<mgrwt>
<rscale>  2 0.44913293E+03</rscale>
<asrwt>0</asrwt>
<pdfrwt beam="1">  1       21 0.65492782E-01 0.44913293E+03</pdfrwt>
<pdfrwt beam="2">  1       21 0.16652465E-01 0.44913293E+03</pdfrwt>
<totfact> 0.64232016E+04</totfact>
</mgrwt>
</event>
<event>
 6    0  0.1539652E-007  0.4540362E+03  0.7546771E-02  0.1026525E+00
         21   -1    0    0  502  501  0.00000000000E+00  0.00000000000E+00  0.24332444615E+03  0.24332444615E+03  0.00000000000E+00 0.  1.
         21   -1    0    0  501  502 -0.00000000000E+00 -0.00000000000E+00 -0.21180451837E+03  0.21180451837E+03  0.00000000000E+00 0.  1.
      99926    2    1    2    0    0  0.35527136788E-14  0.00000000000E+00  0.31519927782E+02  0.45512896451E+03  0.45403619734E+03 0.  0.
         25    1    3    3    0    0  0.19763069394E+02  0.20367917042E+02  0.68861216233E+01  0.12845371823E+03  0.12509000000E+03 0.  0.
         25    1    3    3    0    0 -0.39956780520E+02  0.48343275382E+02 -0.67748962350E+02  0.15547040421E+03  0.12509000000E+03 0.  0.
         25    1    3    3    0    0  0.20193711126E+02 -0.68711192424E+02  0.92382768509E+02  0.17120484208E+03  0.12509000000E+03 0.  0.
<mgrwt>
<rscale>  2 0.45403620E+03</rscale>
<asrwt>0</asrwt>
<pdfrwt beam="1">  1       21 0.35783006E-01 0.45403620E+03</pdfrwt>
<pdfrwt beam="2">  1       21 0.31147724E-01 0.45403620E+03</pdfrwt>
<totfact> 0.69065970E+04</totfact>
</mgrwt>
</event>
<event>
 6    0  0.1539652E-007  0.4570621E+03  0.7546771E-02  0.1025637E+00
         21   -1    0    0  502  501  0.00000000000E+00  0.00000000000E+00  0.18060809783E+03  0.18060809783E+03  0.00000000000E+00 0. -1.
         21   -1    0    0  501  502 -0.00000000000E+00 -0.00000000000E+00 -0.28916997167E+03  0.28916997167E+03  0.00000000000E+00 0. -1.
      99926    2    1    2    0    0  0.00000000000E+00  0.14210854715E-13 -0.10856187384E+03  0.46977806950E+03  0.45706209002E+03 0.  0.
         25    1    3    3    0    0  0.20443966466E+02 -0.69578285759E+02 -0.30854858580E+02  0.14784662327E+03  0.12509000000E+03 0.  0.
         25    1    3    3    0    0 -0.60200510863E+02 -0.17474330031E+02  0.12419563516E+02  0.14046781616E+03  0.12509000000E+03 0.  0.
         25    1    3    3    0    0  0.39756544396E+02  0.87052615790E+02 -0.90126578775E+02  0.18146363007E+03  0.12509000000E+03 0.  0.
<mgrwt>
<rscale>  2 0.45706209E+03</rscale>
<asrwt>0</asrwt>
<pdfrwt beam="1">  1       21 0.26560014E-01 0.45706209E+03</pdfrwt>
<pdfrwt beam="2">  1       21 0.42524996E-01 0.45706209E+03</pdfrwt>
<totfact> 0.66360196E+04</totfact>
</mgrwt>
</event>
<event>
 6    0  0.1539652E-007  0.4494121E+03  0.7546771E-02  0.1027898E+00
         21   -1    0    0  502  501  0.00000000000E+00  0.00000000000E+00  0.24924621457E+03  0.24924621457E+03  0.00000000000E+00 0. -1.
         21   -1    0    0  501  502 -0.00000000000E+00 -0.00000000000E+00 -0.20258202569E+03  0.20258202569E+03  0.00000000000E+00 0. -1.
      99926    2    1    2    0    0  0.00000000000E+00  0.00000000000E+00  0.46664188875E+02  0.45182824026E+03  0.44941207390E+03 0.  0.
         25    1    3    3    0    0 -0.39235377839E+02  0.69397840823E+02  0.15325944710E+02  0.14912366635E+03  0.12509000000E+03 0.  0.
         25    1    3    3    0    0 -0.50762206651E+02 -0.86095275386E+01  0.18827883113E+02  0.13657570381E+03  0.12509000000E+03 0.  0.
         25    1    3    3    0    0  0.89997584490E+02 -0.60788313284E+02  0.12510361053E+02  0.16612887010E+03  0.12509000000E+03 0.  0.
<mgrwt>
<rscale>  2 0.44941207E+03</rscale>
<asrwt>0</asrwt>
<pdfrwt beam="1">  1       21 0.36653855E-01 0.44941207E+03</pdfrwt>
<pdfrwt beam="2">  1       21 0.29791474E-01 0.44941207E+03</pdfrwt>
<totfact> 0.71932661E+04</totfact>
</mgrwt>
</event>
<event>
 6    0  0.1539652E-007  0.4345513E+03  0.7546771E-02  0.1032432E+00
         21   -1    0    0  502  501  0.00000000000E+00  0.00000000000E+00  0.11932876893E+03  0.11932876893E+03  0.00000000000E+00 0.  1.
         21   -1    0    0  501  502 -0.00000000000E+00 -0.00000000000E+00 -0.39561885734E+03  0.39561885734E+03  0.00000000000E+00 0.  1.
      99926    2    1    2    0    0  0.00000000000E+00 -0.35527136788E-14 -0.27629008842E+03  0.51494762627E+03  0.43455131440E+03 0.  0.
         25    1    3    3    0    0  0.68573492049E+02 -0.12175151061E+02 -0.30475596434E+02  0.14637905654E+03  0.12509000000E+03 0.  0.
         25    1    3    3    0    0  0.92806094238E+01  0.92598220305E+00 -0.94320897723E+02  0.15694243213E+03  0.12509000000E+03 0.  0.
         25    1    3    3    0    0 -0.77854101473E+02  0.11249168858E+02 -0.15149359426E+03  0.21162613760E+03  0.12509000000E+03 0.  0.
<mgrwt>
<rscale>  2 0.43455131E+03</rscale>
<asrwt>0</asrwt>
<pdfrwt beam="1">  1       21 0.17548349E-01 0.43455131E+03</pdfrwt>
<pdfrwt beam="2">  1       21 0.58179243E-01 0.43455131E+03</pdfrwt>
<totfact> 0.75791220E+04</totfact>
</mgrwt>
</event>
<event>
 6    0  0.1539652E-007  0.4536616E+03  0.7546771E-02  0.1026636E+00
         21   -1    0    0  502  501  0.00000000000E+00  0.00000000000E+00  0.58497847277E+03  0.58497847277E+03  0.00000000000E+00 0. -1.
         21   -1    0    0  501  502 -0.00000000000E+00 -0.00000000000E+00 -0.87955738172E+02  0.87955738172E+02  0.00000000000E+00 0. -1.
      99926    2    1    2    0    0  0.17763568394E-14  0.35527136788E-14  0.49702273460E+03  0.67293421095E+03  0.45366160687E+03 0.  0.
         25    1    3    3    0    0  0.13062973672E+02  0.29288100565E+02  0.11532656406E+03  0.17313624287E+03  0.12509000000E+03 0.  0.
         25    1    3    3    0    0 -0.93642001536E+01  0.85383461261E+02  0.20152330801E+03  0.25226409866E+03  0.12509000000E+03 0.  0.
         25    1    3    3    0    0 -0.36987735183E+01 -0.11467156183E+03  0.18017286253E+03  0.24753386942E+03  0.12509000000E+03 0.  0.
<mgrwt>
<rscale>  2 0.45366161E+03</rscale>
<asrwt>0</asrwt>
<pdfrwt beam="1">  1       21 0.86026244E-01 0.45366161E+03</pdfrwt>
<pdfrwt beam="2">  1       21 0.12934668E-01 0.45366161E+03</pdfrwt>
<totfact> 0.54975159E+04</totfact>
</mgrwt>
</event>
<event>
 6    0  0.1539652E-007  0.4822752E+03  0.7546771E-02  0.1018512E+00
         21   -1    0    0  502  501  0.00000000000E+00  0.00000000000E+00  0.58373668126E+03  0.58373668126E+03  0.00000000000E+00 0. -1.
         21   -1    0    0  501  502 -0.00000000000E+00 -0.00000000000E+00 -0.99612283488E+02  0.99612283488E+02  0.00000000000E+00 0. -1.
      99926    2    1    2    0    0  0.35527136788E-14  0.71054273576E-14  0.48412439777E+03  0.68334896475E+03  0.48227520681E+03 0.  0.
         25    1    3    3    0    0  0.11694028488E+02  0.42049083719E+02  0.13596688701E+03  0.18984040193E+03  0.12509000000E+03 0.  0.
         25    1    3    3    0    0 -0.38867744519E+02 -0.10134038752E+03  0.30313577164E+03  0.34542637400E+03  0.12509000000E+03 0.  0.
         25    1    3    3    0    0  0.27173716031E+02  0.59291303806E+02  0.45021739124E+02  0.14808218881E+03  0.12509000000E+03 0.  0.
<mgrwt>
<rscale>  2 0.48227521E+03</rscale>
<asrwt>0</asrwt>
<pdfrwt beam="1">  1       21 0.85843628E-01 0.48227521E+03</pdfrwt>
<pdfrwt beam="2">  1       21 0.14648865E-01 0.48227521E+03</pdfrwt>
<totfact> 0.43649417E+04</totfact>
</mgrwt>
</event>
<event>
 6    0  0.1539652E-007  0.4564926E+03  0.7546771E-02  0.1025803E+00
         21   -1    0    0  502  501  0.00000000000E+00  0.00000000000E+00  0.41506788195E+03  0.41506788195E+03  0.00000000000E+00 0.  1.
         21   -1    0    0  501  502 -0.00000000000E+00 -0.00000000000E+00 -0.12551291358E+03  0.12551291358E+03  0.00000000000E+00 0.  1.
      99926    2    1    2    0    0  0.00000000000E+00  0.00000000000E+00  0.28955496836E+03  0.54058079553E+03  0.45649262512E+03 0.  0.
         25    1    3    3    0    0 -0.46710328124E+02 -0.22991109169E+02  0.22265106822E+03  0.26063662853E+03  0.12509000000E+03 0.  0.
         25    1    3    3    0    0  0.17038698777E+02 -0.24999501360E+02  0.34125676617E+01  0.12874178048E+03  0.12509000000E+03 0.  0.
         25    1    3    3    0    0  0.29671629347E+02  0.47990610530E+02  0.63491332485E+02  0.15120238651E+03  0.12509000000E+03 0.  0.
<mgrwt>
<rscale>  2 0.45649263E+03</rscale>
<asrwt>0</asrwt>
<pdfrwt beam="1">  1       21 0.61039394E-01 0.45649263E+03</pdfrwt>
<pdfrwt beam="2">  1       21 0.18457782E-01 0.45649263E+03</pdfrwt>
<totfact> 0.61760487E+04</totfact>
</mgrwt>
</event>
<event>
 6    0  0.1539652E-007  0.4435349E+03  0.7546771E-02  0.1029668E+00
         21   -1    0    0  502  501  0.00000000000E+00  0.00000000000E+00  0.78958233436E+03  0.78958233436E+03  0.00000000000E+00 0. -1.
         21   -1    0    0  501  502 -0.00000000000E+00 -0.00000000000E+00 -0.62287114872E+02  0.62287114872E+02  0.00000000000E+00 0. -1.
      99926    2    1    2    0    0  0.00000000000E+00  0.00000000000E+00  0.72729521948E+03  0.85186944923E+03  0.44353491660E+03 0.  0.
         25    1    3    3    0    0  0.76506998530E+02  0.12103359688E+02  0.14505512499E+03  0.20661149418E+03  0.12509000000E+03 0.  0.
         25    1    3    3    0    0 -0.75415210807E+02 -0.29522556182E+02  0.36021950760E+03  0.38982641919E+03  0.12509000000E+03 0.  0.
         25    1    3    3    0    0 -0.10917877237E+01  0.17419196494E+02  0.22202058689E+03  0.25543153586E+03  0.12509000000E+03 0.  0.
<mgrwt>
<rscale>  2 0.44353492E+03</rscale>
<asrwt>0</asrwt>
<pdfrwt beam="1">  1       21 0.11611504E+00 0.44353492E+03</pdfrwt>
<pdfrwt beam="2">  1       21 0.91598703E-02 0.44353492E+03</pdfrwt>
<totfact> 0.49674875E+04</totfact>
</mgrwt>
</event>
<event>
 6    0  0.1539652E-007  0.4522962E+03  0.7546771E-02  0.1027039E+00
         21   -1    0    0  502  501  0.00000000000E+00  0.00000000000E+00  0.33454312438E+03  0.33454312438E+03  0.00000000000E+00 0.  1.
         21   -1    0    0  501  502 -0.00000000000E+00 -0.00000000000E+00 -0.15287406644E+03  0.15287406644E+03  0.00000000000E+00 0.  1.
      99926    2    1    2    0    0  0.00000000000E+00  0.35527136788E-14  0.18166905794E+03  0.48741719083E+03  0.45229622074E+03 0.  0.
         25    1    3    3    0    0 -0.32717246331E+02  0.18133576909E+02 -0.34322286966E+02  0.13499915667E+03  0.12509000000E+03 0.  0.
         25    1    3    3    0    0  0.52569847004E+02 -0.38575092492E+02  0.68124853652E+02  0.15665289771E+03  0.12509000000E+03 0.  0.
         25    1    3    3    0    0 -0.19852600673E+02  0.20441515583E+02  0.14786649126E+03  0.19576513645E+03  0.12509000000E+03 0.  0.
<mgrwt>
<rscale>  2 0.45229622E+03</rscale>
<asrwt>0</asrwt>
<pdfrwt beam="1">  1       21 0.49197518E-01 0.45229622E+03</pdfrwt>
<pdfrwt beam="2">  1       21 0.22481480E-01 0.45229622E+03</pdfrwt>
<totfact> 0.67603474E+04</totfact>
</mgrwt>
</event>
<event>
 6    0  0.1539652E-007  0.4662474E+03  0.7546771E-02  0.1022985E+00
         21   -1    0    0  502  501  0.00000000000E+00  0.00000000000E+00  0.14322366291E+03  0.14322366291E+03  0.00000000000E+00 0.  1.
         21   -1    0    0  501  502 -0.00000000000E+00 -0.00000000000E+00 -0.37945312565E+03  0.37945312565E+03  0.00000000000E+00 0.  1.
      99926    2    1    2    0    0  0.00000000000E+00 -0.26645352591E-14 -0.23622946274E+03  0.52267678857E+03  0.46624743028E+03 0.  0.
         25    1    3    3    0    0 -0.18318068412E+02  0.90669183812E+02 -0.49530774543E+02  0.16327050637E+03  0.12509000000E+03 0.  0.
         25    1    3    3    0    0 -0.26080128009E+02 -0.62723470480E+01 -0.18748386239E+02  0.12930013728E+03  0.12509000000E+03 0.  0.
         25    1    3    3    0    0  0.44398196421E+02 -0.84396836764E+02 -0.16795030196E+03  0.23010614492E+03  0.12509000000E+03 0.  0.
<mgrwt>
<rscale>  2 0.46624743E+03</rscale>
<asrwt>0</asrwt>
<pdfrwt beam="1">  1       21 0.21062304E-01 0.46624743E+03</pdfrwt>
<pdfrwt beam="2">  1       21 0.55801930E-01 0.46624743E+03</pdfrwt>
<totfact> 0.58323676E+04</totfact>
</mgrwt>
</event>
<event>
 6    0  0.1539652E-007  0.4547248E+03  0.7546771E-02  0.1026322E+00
         21   -1    0    0  502  501  0.00000000000E+00  0.00000000000E+00  0.21136702435E+03  0.21136702435E+03  0.00000000000E+00 0. -1.
         21   -1    0    0  501  502 -0.00000000000E+00 -0.00000000000E+00 -0.24456821983E+03  0.24456821983E+03  0.00000000000E+00 0. -1.
      99926    2    1    2    0    0  0.35527136788E-14 -0.71054273576E-14 -0.33201195479E+02  0.45593524418E+03  0.45472478215E+03 0.  0.
         25    1    3    3    0    0 -0.30513302842E+02 -0.44850698546E+02 -0.67912314904E+02  0.15232280665E+03  0.12509000000E+03 0.  0.
         25    1    3    3    0    0  0.13511818414E+01  0.85308572255E+02 -0.29754527598E+02  0.15431208055E+03  0.12509000000E+03 0.  0.
         25    1    3    3    0    0  0.29162121000E+02 -0.40457873709E+02  0.64465647023E+02  0.14930035697E+03  0.12509000000E+03 0.  0.
<mgrwt>
<rscale>  2 0.45472478E+03</rscale>
<asrwt>0</asrwt>
<pdfrwt beam="1">  1       21 0.31083386E-01 0.45472478E+03</pdfrwt>
<pdfrwt beam="2">  1       21 0.35965914E-01 0.45472478E+03</pdfrwt>
<totfact> 0.68627944E+04</totfact>
</mgrwt>
</event>
<event>
 6    0  0.1539652E-007  0.4557472E+03  0.7546771E-02  0.1026022E+00
         21   -1    0    0  502  501  0.00000000000E+00  0.00000000000E+00  0.62147043538E+03  0.62147043538E+03  0.00000000000E+00 0. -1.
         21   -1    0    0  501  502 -0.00000000000E+00 -0.00000000000E+00 -0.83554043229E+02  0.83554043229E+02  0.00000000000E+00 0. -1.
      99926    2    1    2    0    0  0.00000000000E+00  0.00000000000E+00  0.53791639215E+03  0.70502447860E+03  0.45574715632E+03 0.  0.
         25    1    3    3    0    0  0.11934575984E+02 -0.15998781672E+02  0.15049755878E+03  0.19671151064E+03  0.12509000000E+03 0.  0.
         25    1    3    3    0    0  0.87054654371E+02  0.48246383208E+00  0.26851616139E+03  0.30875100428E+03  0.12509000000E+03 0.  0.
         25    1    3    3    0    0 -0.98989230355E+02  0.15516317840E+02  0.11890267198E+03  0.19956196368E+03  0.12509000000E+03 0.  0.
<mgrwt>
<rscale>  2 0.45574716E+03</rscale>
<asrwt>0</asrwt>
<pdfrwt beam="1">  1       21 0.91392709E-01 0.45574716E+03</pdfrwt>
<pdfrwt beam="2">  1       21 0.12287360E-01 0.45574716E+03</pdfrwt>
<totfact> 0.52322714E+04</totfact>
</mgrwt>
</event>
<event>
 6    0  0.1539652E-007  0.4546988E+03  0.7546771E-02  0.1026330E+00
         21   -1    0    0  502  501  0.00000000000E+00  0.00000000000E+00  0.18124032457E+03  0.18124032457E+03  0.00000000000E+00 0.  1.
         21   -1    0    0  501  502 -0.00000000000E+00 -0.00000000000E+00 -0.28518906790E+03  0.28518906790E+03  0.00000000000E+00 0.  1.
      99926    2    1    2    0    0 -0.71054273576E-14 -0.71054273576E-14 -0.10394874333E+03  0.46642939248E+03  0.45469884201E+03 0.  0.
         25    1    3    3    0    0  0.46082433324E+02  0.55245133311E+02 -0.47174874042E+02  0.15181762828E+03  0.12509000000E+03 0.  0.
         25    1    3    3    0    0 -0.32669980244E+02 -0.46480933578E+02 -0.11169249339E+03  0.17706079740E+03  0.12509000000E+03 0.  0.
         25    1    3    3    0    0 -0.13412453080E+02 -0.87641997340E+01  0.54918624103E+02  0.13755096680E+03  0.12509000000E+03 0.  0.
<mgrwt>
<rscale>  2 0.45469884E+03</rscale>
<asrwt>0</asrwt>
<pdfrwt beam="1">  1       21 0.26652989E-01 0.45469884E+03</pdfrwt>
<pdfrwt beam="2">  1       21 0.41939569E-01 0.45469884E+03</pdfrwt>
<totfact> 0.67864477E+04</totfact>
</mgrwt>
</event>
<event>
 6    0  0.1539652E-007  0.4777331E+03  0.7546771E-02  0.1019760E+00
         21   -1    0    0  502  501  0.00000000000E+00  0.00000000000E+00  0.94486158841E+02  0.94486158841E+02  0.00000000000E+00 0.  1.
         21   -1    0    0  501  502 -0.00000000000E+00 -0.00000000000E+00 -0.60386863363E+03  0.60386863363E+03  0.00000000000E+00 0.  1.
      99926    2    1    2    0    0  0.00000000000E+00  0.00000000000E+00 -0.50938247479E+03  0.69835479247E+03  0.47773309551E+03 0.  0.
         25    1    3    3    0    0  0.10099140896E+02 -0.54257962777E+02 -0.28010982330E+03  0.31169687259E+03  0.12509000000E+03 0.  0.
         25    1    3    3    0    0  0.53809746773E+02  0.39620881570E+02 -0.34300605942E+02  0.14590867956E+03  0.12509000000E+03 0.  0.
         25    1    3    3    0    0 -0.63908887669E+02  0.14637081207E+02 -0.19497204555E+03  0.24074924032E+03  0.12509000000E+03 0.  0.
<mgrwt>
<rscale>  2 0.47773310E+03</rscale>
<asrwt>0</asrwt>
<pdfrwt beam="1">  1       21 0.13895023E-01 0.47773310E+03</pdfrwt>
<pdfrwt beam="2">  1       21 0.88804211E-01 0.47773310E+03</pdfrwt>
<totfact> 0.44478179E+04</totfact>
</mgrwt>
</event>
<event>
 6    0  0.1539652E-007  0.4554354E+03  0.7546771E-02  0.1026113E+00
         21   -1    0    0  502  501  0.00000000000E+00  0.00000000000E+00  0.15581590999E+03  0.15581590999E+03  0.00000000000E+00 0.  1.
         21   -1    0    0  501  502 -0.00000000000E+00 -0.00000000000E+00 -0.33279881833E+03  0.33279881833E+03  0.00000000000E+00 0.  1.
      99926    2    1    2    0    0  0.00000000000E+00  0.00000000000E+00 -0.17698290834E+03  0.48861472832E+03  0.45543539924E+03 0.  0.
         25    1    3    3    0    0  0.36427183680E+02 -0.12356646251E+02 -0.15982903061E+03  0.20657311912E+03  0.12509000000E+03 0.  0.
         25    1    3    3    0    0  0.28991414956E+02 -0.33229875706E+02 -0.16833399830E+02  0.13369965681E+03  0.12509000000E+03 0.  0.
         25    1    3    3    0    0 -0.65418598636E+02  0.45586521957E+02 -0.32047790119E+00  0.14834195239E+03  0.12509000000E+03 0.  0.
<mgrwt>
<rscale>  2 0.45543540E+03</rscale>
<asrwt>0</asrwt>
<pdfrwt beam="1">  1       21 0.22914105E-01 0.45543540E+03</pdfrwt>
<pdfrwt beam="2">  1       21 0.48941002E-01 0.45543540E+03</pdfrwt>
<totfact> 0.65850253E+04</totfact>
</mgrwt>
</event>
<event>
 6    0  0.1539652E-007  0.4536268E+03  0.7546771E-02  0.1026646E+00
         21   -1    0    0  502  501  0.00000000000E+00  0.00000000000E+00  0.20152148073E+03  0.20152148073E+03  0.00000000000E+00 0. -1.
         21   -1    0    0  501  502 -0.00000000000E+00 -0.00000000000E+00 -0.25527956869E+03  0.25527956869E+03  0.00000000000E+00 0. -1.
      99926    2    1    2    0    0  0.00000000000E+00  0.00000000000E+00 -0.53758087959E+02  0.45680104943E+03  0.45362679235E+03 0.  0.
         25    1    3    3    0    0  0.39037162181E+02  0.86490722279E+02 -0.19168161911E+02  0.15817544564E+03  0.12509000000E+03 0.  0.
         25    1    3    3    0    0 -0.57575713711E+02 -0.86254698295E+02  0.14146466679E+02  0.16310262538E+03  0.12509000000E+03 0.  0.
         25    1    3    3    0    0  0.18538551530E+02 -0.23602398469E+00 -0.48736392727E+02  0.13552297841E+03  0.12509000000E+03 0.  0.
<mgrwt>
<rscale>  2 0.45362679E+03</rscale>
<asrwt>0</asrwt>
<pdfrwt beam="1">  1       21 0.29635512E-01 0.45362679E+03</pdfrwt>
<pdfrwt beam="2">  1       21 0.37541113E-01 0.45362679E+03</pdfrwt>
<totfact> 0.69168654E+04</totfact>
</mgrwt>
</event>
<event>
 6    0  0.1539652E-007  0.4599746E+03  0.7546771E-02  0.1024789E+00
         21   -1    0    0  502  501  0.00000000000E+00  0.00000000000E+00  0.11494402545E+03  0.11494402545E+03  0.00000000000E+00 0. -1.
         21   -1    0    0  501  502 -0.00000000000E+00 -0.00000000000E+00 -0.46017316798E+03  0.46017316798E+03  0.00000000000E+00 0. -1.
      99926    2    1    2    0    0  0.17763568394E-14  0.35527136788E-14 -0.34522914253E+03  0.57511719342E+03  0.45997459204E+03 0.  0.
         25    1    3    3    0    0  0.83511990833E+01  0.25477012907E+02 -0.94612174725E+02  0.15911565737E+03  0.12509000000E+03 0.  0.
         25    1    3    3    0    0 -0.16940177264E+01  0.26289961971E+02 -0.24962764526E+03  0.28045588098E+03  0.12509000000E+03 0.  0.
         25    1    3    3    0    0 -0.66571813568E+01 -0.51766974878E+02 -0.98932254390E+00  0.13554565508E+03  0.12509000000E+03 0.  0.
<mgrwt>
<rscale>  2 0.45997459E+03</rscale>
<asrwt>0</asrwt>
<pdfrwt beam="1">  1       21 0.16903533E-01 0.45997459E+03</pdfrwt>
<pdfrwt beam="2">  1       21 0.67672524E-01 0.45997459E+03</pdfrwt>
<totfact> 0.57924409E+04</totfact>
</mgrwt>
</event>
<event>
 6    0  0.1539652E-007  0.4536538E+03  0.7546771E-02  0.1026638E+00
         21   -1    0    0  502  501  0.00000000000E+00  0.00000000000E+00  0.31555205311E+03  0.31555205311E+03  0.00000000000E+00 0.  1.
         21   -1    0    0  501  502 -0.00000000000E+00 -0.00000000000E+00 -0.16304898961E+03  0.16304898961E+03  0.00000000000E+00 0.  1.
      99926    2    1    2    0    0  0.00000000000E+00 -0.71054273576E-14  0.15250306349E+03  0.47860104272E+03  0.45365380382E+03 0.  0.
         25    1    3    3    0    0  0.24602582366E+02  0.80083474213E+02  0.48911862196E+02  0.15829885743E+03  0.12509000000E+03 0.  0.
         25    1    3    3    0    0 -0.19791142474E+02 -0.47055640023E+02 -0.25481656358E+02  0.13748725573E+03  0.12509000000E+03 0.  0.
         25    1    3    3    0    0 -0.48114398918E+01 -0.33027834190E+02  0.12907285765E+03  0.18281492955E+03  0.12509000000E+03 0.  0.
<mgrwt>
<rscale>  2 0.45365380E+03</rscale>
<asrwt>0</asrwt>
<pdfrwt beam="1">  1       21 0.46404714E-01 0.45365380E+03</pdfrwt>
<pdfrwt beam="2">  1       21 0.23977793E-01 0.45365380E+03</pdfrwt>
<totfact> 0.67520659E+04</totfact>
</mgrwt>
</event>
<event>
 6    0  0.1539652E-007  0.4556488E+03  0.7546771E-02  0.1026051E+00
         21   -1    0    0  502  501  0.00000000000E+00  0.00000000000E+00  0.17479145806E+03  0.17479145806E+03  0.00000000000E+00 0. -1.
         21   -1    0    0  501  502 -0.00000000000E+00 -0.00000000000E+00 -0.29694784038E+03  0.29694784038E+03  0.00000000000E+00 0. -1.
      99926    2    1    2    0    0 -0.35527136788E-14 -0.55511151231E-16 -0.12215638232E+03  0.47173929845E+03  0.45564875064E+03 0.  0.
         25    1    3    3    0    0 -0.41489734920E+02 -0.47954515112E+01 -0.58095403165E+02  0.14410752384E+03  0.12509000000E+03 0.  0.
         25    1    3    3    0    0  0.22934082976E+02 -0.39905981330E+00  0.68418478991E+02  0.14441166081E+03  0.12509000000E+03 0.  0.
         25    1    3    3    0    0  0.18555651945E+02  0.51945113245E+01 -0.13247945815E+03  0.18322011379E+03  0.12509000000E+03 0.  0.
<mgrwt>
<rscale>  2 0.45564875E+03</rscale>
<asrwt>0</asrwt>
<pdfrwt beam="1">  1       21 0.25704626E-01 0.45564875E+03</pdfrwt>
<pdfrwt beam="2">  1       21 0.43668800E-01 0.45564875E+03</pdfrwt>
<totfact> 0.66961275E+04</totfact>
</mgrwt>
</event>
<event>
 6    0  0.1539652E-007  0.4541343E+03  0.7546771E-02  0.1026496E+00
         21   -1    0    0  502  501  0.00000000000E+00  0.00000000000E+00  0.21253354907E+02  0.21253354907E+02  0.00000000000E+00 0.  1.
         21   -1    0    0  501  502 -0.00000000000E+00 -0.00000000000E+00 -0.24259459899E+04  0.24259459899E+04  0.00000000000E+00 0.  1.
      99926    2    1    2    0    0  0.00000000000E+00 -0.17763568394E-14 -0.24046926350E+04  0.24471993448E+04  0.45413430220E+03 0.  0.
         25    1    3    3    0    0  0.60917588503E+02 -0.13969225974E+02 -0.65297683354E+03  0.66778165975E+03  0.12509000000E+03 0.  0.
         25    1    3    3    0    0 -0.46064856051E+01  0.77862861677E+02 -0.60206149020E+03  0.61984626402E+03  0.12509000000E+03 0.  0.
         25    1    3    3    0    0 -0.56311102898E+02 -0.63893635703E+02 -0.11496543113E+04  0.11595714211E+04  0.12509000000E+03 0.  0.
<mgrwt>
<rscale>  2 0.45413430E+03</rscale>
<asrwt>0</asrwt>
<pdfrwt beam="1">  1       21 0.31254940E-02 0.45413430E+03</pdfrwt>
<pdfrwt beam="2">  1       21 0.35675669E+00 0.45413430E+03</pdfrwt>
<totfact> 0.77392635E+03</totfact>
</mgrwt>
</event>
<event>
 6    0  0.1539652E-007  0.4520464E+03  0.7546771E-02  0.1027114E+00
         21   -1    0    0  502  501  0.00000000000E+00  0.00000000000E+00  0.10468555149E+03  0.10468555149E+03  0.00000000000E+00 0. -1.
         21   -1    0    0  501  502 -0.00000000000E+00 -0.00000000000E+00 -0.48799930561E+03  0.48799930561E+03  0.00000000000E+00 0. -1.
      99926    2    1    2    0    0  0.00000000000E+00 -0.71054273576E-14 -0.38331375412E+03  0.59268485710E+03  0.45204635353E+03 0.  0.
         25    1    3    3    0    0 -0.33484302583E+02 -0.55353260472E+02 -0.84658756059E+02  0.16431614358E+03  0.12509000000E+03 0.  0.
         25    1    3    3    0    0 -0.25015597797E+02 -0.44807413128E+02 -0.11270427671E+03  0.17602058542E+03  0.12509000000E+03 0.  0.
         25    1    3    3    0    0  0.58499900380E+02  0.10016067360E+03 -0.18595072135E+03  0.25234812809E+03  0.12509000000E+03 0.  0.
<mgrwt>
<rscale>  2 0.45204635E+03</rscale>
<asrwt>0</asrwt>
<pdfrwt beam="1">  1       21 0.15394934E-01 0.45204635E+03</pdfrwt>
<pdfrwt beam="2">  1       21 0.71764605E-01 0.45204635E+03</pdfrwt>
<totfact> 0.60531413E+04</totfact>
</mgrwt>
</event>
<event>
 6    0  0.1539652E-007  0.4525899E+03  0.7546771E-02  0.1026953E+00
         21   -1    0    0  502  501  0.00000000000E+00  0.00000000000E+00  0.19552647514E+03  0.19552647514E+03  0.00000000000E+00 0.  1.
         21   -1    0    0  501  502 -0.00000000000E+00 -0.00000000000E+00 -0.26190521531E+03  0.26190521531E+03  0.00000000000E+00 0.  1.
      99926    2    1    2    0    0  0.00000000000E+00  0.00000000000E+00 -0.66378740170E+02  0.45743169046E+03  0.45258989636E+03 0.  0.
         25    1    3    3    0    0  0.17284673985E+02  0.79391223433E+02 -0.75316922169E+02  0.16709839370E+03  0.12509000000E+03 0.  0.
         25    1    3    3    0    0  0.64259627091E+01 -0.42524359410E+02 -0.54895839007E+02  0.14321548583E+03  0.12509000000E+03 0.  0.
         25    1    3    3    0    0 -0.23710636694E+02 -0.36866864023E+02  0.63834021005E+02  0.14711781093E+03  0.12509000000E+03 0.  0.
<mgrwt>
<rscale>  2 0.45258990E+03</rscale>
<asrwt>0</asrwt>
<pdfrwt beam="1">  1       21 0.28753894E-01 0.45258990E+03</pdfrwt>
<pdfrwt beam="2">  1       21 0.38515473E-01 0.45258990E+03</pdfrwt>
<totfact> 0.69698134E+04</totfact>
</mgrwt>
</event>
<event>
 6    0  0.1539652E-007  0.4640003E+03  0.7546771E-02  0.1023627E+00
         21   -1    0    0  502  501  0.00000000000E+00  0.00000000000E+00  0.11148817230E+03  0.11148817230E+03  0.00000000000E+00 0. -1.
         21   -1    0    0  501  502 -0.00000000000E+00 -0.00000000000E+00 -0.48277826285E+03  0.48277826285E+03  0.00000000000E+00 0. -1.
      99926    2    1    2    0    0  0.00000000000E+00  0.71054273576E-14 -0.37129009055E+03  0.59426643514E+03  0.46400028513E+03 0.  0.
         25    1    3    3    0    0 -0.53936048081E+02  0.60209410716E+02 -0.19737688513E+03  0.24726385362E+03  0.12509000000E+03 0.  0.
         25    1    3    3    0    0  0.22633228263E+02  0.41753719140E+02 -0.98454623701E+02  0.16612181408E+03  0.12509000000E+03 0.  0.
         25    1    3    3    0    0  0.31302819817E+02 -0.10196312986E+03 -0.75458581720E+02  0.18088076745E+03  0.12509000000E+03 0.  0.
<mgrwt>
<rscale>  2 0.46400029E+03</rscale>
<asrwt>0</asrwt>
<pdfrwt beam="1">  1       21 0.16395320E-01 0.46400029E+03</pdfrwt>
<pdfrwt beam="2">  1       21 0.70996802E-01 0.46400029E+03</pdfrwt>
<totfact> 0.55013867E+04</totfact>
</mgrwt>
</event>
<event>
 6    0  0.1539652E-007  0.4573563E+03  0.7546771E-02  0.1025551E+00
         21   -1    0    0  502  501  0.00000000000E+00  0.00000000000E+00  0.68705399172E+03  0.68705399172E+03  0.00000000000E+00 0. -1.
         21   -1    0    0  501  502 -0.00000000000E+00 -0.00000000000E+00 -0.76112920694E+02  0.76112920694E+02  0.00000000000E+00 0. -1.
      99926    2    1    2    0    0  0.00000000000E+00  0.00000000000E+00  0.61094107103E+03  0.76316691241E+03  0.45735625494E+03 0.  0.
         25    1    3    3    0    0 -0.42006322839E+02  0.24652858932E+02  0.70349849457E+02  0.15155495383E+03  0.12509000000E+03 0.  0.
         25    1    3    3    0    0 -0.44313366394E+02 -0.12028186902E+02  0.26616575889E+03  0.29765764063E+03  0.12509000000E+03 0.  0.
         25    1    3    3    0    0  0.86319689233E+02 -0.12624672030E+02  0.27442546268E+03  0.31395431795E+03  0.12509000000E+03 0.  0.
<mgrwt>
<rscale>  2 0.45735625E+03</rscale>
<asrwt>0</asrwt>
<pdfrwt beam="1">  1       21 0.10103735E+00 0.45735625E+03</pdfrwt>
<pdfrwt beam="2">  1       21 0.11193077E-01 0.45735625E+03</pdfrwt>
<totfact> 0.48690719E+04</totfact>
</mgrwt>
</event>
<event>
 6    0  0.1539652E-007  0.4515427E+03  0.7546771E-02  0.1027263E+00
         21   -1    0    0  502  501  0.00000000000E+00  0.00000000000E+00  0.20496799749E+03  0.20496799749E+03  0.00000000000E+00 0.  1.
         21   -1    0    0  501  502 -0.00000000000E+00 -0.00000000000E+00 -0.24868610113E+03  0.24868610113E+03  0.00000000000E+00 0.  1.
      99926    2    1    2    0    0  0.00000000000E+00  0.00000000000E+00 -0.43718103638E+02  0.45365409862E+03  0.45154265425E+03 0.  0.
         25    1    3    3    0    0 -0.68328139405E+02 -0.37516910487E+01 -0.72098252329E+02  0.15977633088E+03  0.12509000000E+03 0.  0.
         25    1    3    3    0    0 -0.32711769367E+02  0.13556156629E+02  0.26969996116E+02  0.13277318264E+03  0.12509000000E+03 0.  0.
         25    1    3    3    0    0  0.10103990877E+03 -0.98044655806E+01  0.14101525749E+01  0.16110458510E+03  0.12509000000E+03 0.  0.
<mgrwt>
<rscale>  2 0.45154265E+03</rscale>
<asrwt>0</asrwt>
<pdfrwt beam="1">  1       21 0.30142353E-01 0.45154265E+03</pdfrwt>
<pdfrwt beam="2">  1       21 0.36571486E-01 0.45154265E+03</pdfrwt>
<totfact> 0.70571194E+04</totfact>
</mgrwt>
</event>
<event>
 6    0  0.1539652E-007  0.4507832E+03  0.7546771E-02  0.1027489E+00
         21   -1    0    0  502  501  0.00000000000E+00  0.00000000000E+00  0.13866508887E+03  0.13866508887E+03  0.00000000000E+00 0.  1.
         21   -1    0    0  501  502 -0.00000000000E+00 -0.00000000000E+00 -0.36636028491E+03  0.36636028491E+03  0.00000000000E+00 0.  1.
      99926    2    1    2    0    0  0.35527136788E-14  0.00000000000E+00 -0.22769519604E+03  0.50502537377E+03  0.45078323600E+03 0.  0.
         25    1    3    3    0    0  0.17945258092E+02  0.65537675832E+02 -0.12767993382E+03  0.19122471818E+03  0.12509000000E+03 0.  0.
         25    1    3    3    0    0  0.53840743778E+02 -0.65208943984E+02 -0.32014058885E+02  0.15434843741E+03  0.12509000000E+03 0.  0.
         25    1    3    3    0    0 -0.71786001870E+02 -0.32873184806E+00 -0.68001203333E+02  0.15945221818E+03  0.12509000000E+03 0.  0.
<mgrwt>
<rscale>  2 0.45078324E+03</rscale>
<asrwt>0</asrwt>
<pdfrwt beam="1">  1       21 0.20391925E-01 0.45078324E+03</pdfrwt>
<pdfrwt beam="2">  1       21 0.53876513E-01 0.45078324E+03</pdfrwt>
<totfact> 0.67138011E+04</totfact>
</mgrwt>
</event>
<event>
 6    0  0.1539652E-007  0.4531959E+03  0.7546771E-02  0.1026773E+00
         21   -1    0    0  502  501  0.00000000000E+00  0.00000000000E+00  0.17427011267E+03  0.17427011267E+03  0.00000000000E+00 0.  1.
         21   -1    0    0  501  502 -0.00000000000E+00 -0.00000000000E+00 -0.29463821296E+03  0.29463821296E+03  0.00000000000E+00 0.  1.
      99926    2    1    2    0    0  0.00000000000E+00  0.00000000000E+00 -0.12036810029E+03  0.46890832564E+03  0.45319591600E+03 0.  0.
         25    1    3    3    0    0 -0.77979820493E+02 -0.20442848665E+02 -0.25146816391E+02  0.15092591872E+03  0.12509000000E+03 0.  0.
         25    1    3    3    0    0  0.11657098674E+03  0.33048793298E+01 -0.46177749242E+02  0.17714290785E+03  0.12509000000E+03 0.  0.
         25    1    3    3    0    0 -0.38591166251E+02  0.17137969335E+02 -0.49043534657E+02  0.14083949907E+03  0.12509000000E+03 0.  0.
<mgrwt>
<rscale>  2 0.45319592E+03</rscale>
<asrwt>0</asrwt>
<pdfrwt beam="1">  1       21 0.25627958E-01 0.45319592E+03</pdfrwt>
<pdfrwt beam="2">  1       21 0.43329148E-01 0.45319592E+03</pdfrwt>
<totfact> 0.68492009E+04</totfact>
</mgrwt>
</event>
<event>
 6    0  0.1539652E-007  0.4532953E+03  0.7546771E-02  0.1026744E+00
         21   -1    0    0  502  501  0.00000000000E+00  0.00000000000E+00  0.14205595661E+04  0.14205595661E+04  0.00000000000E+00 0.  1.
         21   -1    0    0  501  502 -0.00000000000E+00 -0.00000000000E+00 -0.36161217365E+02  0.36161217365E+02  0.00000000000E+00 0.  1.
      99926    2    1    2    0    0  0.00000000000E+00  0.00000000000E+00  0.13843983487E+04  0.14567207835E+04  0.45329532647E+03 0.  0.
         25    1    3    3    0    0  0.40625228817E+02  0.48954483344E+02  0.46652625112E+03  0.48717676642E+03  0.12509000000E+03 0.  0.
         25    1    3    3    0    0  0.36352792724E+02 -0.91677590883E+02  0.46094734966E+03  0.48769485692E+03  0.12509000000E+03 0.  0.
         25    1    3    3    0    0 -0.76978021541E+02  0.42723107540E+02  0.45692474796E+03  0.48184916013E+03  0.12509000000E+03 0.  0.
<mgrwt>
<rscale>  2 0.45329533E+03</rscale>
<asrwt>0</asrwt>
<pdfrwt beam="1">  1       21 0.20890578E+00 0.45329533E+03</pdfrwt>
<pdfrwt beam="2">  1       21 0.53178270E-02 0.45329533E+03</pdfrwt>
<totfact> 0.25190830E+04</totfact>
</mgrwt>
</event>
<event>
 6    0  0.1539652E-007  0.4466156E+03  0.7546771E-02  0.1028736E+00
         21   -1    0    0  502  501  0.00000000000E+00  0.00000000000E+00  0.34673638306E+02  0.34673638306E+02  0.00000000000E+00 0. -1.
         21   -1    0    0  501  502 -0.00000000000E+00 -0.00000000000E+00 -0.14381636967E+04  0.14381636967E+04  0.00000000000E+00 0. -1.
      99926    2    1    2    0    0 -0.71054273576E-14  0.35527136788E-14 -0.14034900584E+04  0.14728373350E+04  0.44661557449E+03 0.  0.
         25    1    3    3    0    0 -0.47340175519E+02 -0.24090037179E+02 -0.60204330957E+03  0.61719128057E+03  0.12509000000E+03 0.  0.
         25    1    3    3    0    0  0.66906654365E+02 -0.40218931956E+02 -0.51856866522E+03  0.53912431918E+03  0.12509000000E+03 0.  0.
         25    1    3    3    0    0 -0.19566478845E+02  0.64308969135E+02 -0.28287808360E+03  0.31652173525E+03  0.12509000000E+03 0.  0.
<mgrwt>
<rscale>  2 0.44661557E+03</rscale>
<asrwt>0</asrwt>
<pdfrwt beam="1">  1       21 0.50990653E-02 0.44661557E+03</pdfrwt>
<pdfrwt beam="2">  1       21 0.21149463E+00 0.44661557E+03</pdfrwt>
<totfact> 0.26112547E+04</totfact>
</mgrwt>
</event>
<event>
 6    0  0.1539652E-007  0.4546807E+03  0.7546771E-02  0.1026335E+00
         21   -1    0    0  502  501  0.00000000000E+00  0.00000000000E+00  0.71904737792E+02  0.71904737792E+02  0.00000000000E+00 0. -1.
         21   -1    0    0  501  502 -0.00000000000E+00 -0.00000000000E+00 -0.71877922986E+03  0.71877922986E+03  0.00000000000E+00 0. -1.
      99926    2    1    2    0    0  0.00000000000E+00 -0.71054273576E-14 -0.64687449207E+03  0.79068396765E+03  0.45468068819E+03 0.  0.
         25    1    3    3    0    0  0.59637277094E+02 -0.40884341914E+02 -0.23747578750E+03  0.27797552407E+03  0.12509000000E+03 0.  0.
         25    1    3    3    0    0 -0.24187385916E+02 -0.23841451957E+02 -0.78996386530E+02  0.15179387884E+03  0.12509000000E+03 0.  0.
         25    1    3    3    0    0 -0.35449891179E+02  0.64725793871E+02 -0.33040231804E+03  0.36091456474E+03  0.12509000000E+03 0.  0.
<mgrwt>
<rscale>  2 0.45468069E+03</rscale>
<asrwt>0</asrwt>
<pdfrwt beam="1">  1       21 0.10574226E-01 0.45468069E+03</pdfrwt>
<pdfrwt beam="2">  1       21 0.10570283E+00 0.45468069E+03</pdfrwt>
<totfact> 0.48339763E+04</totfact>
</mgrwt>
</event>
<event>
 6    0  0.1539652E-007  0.4602733E+03  0.7546771E-02  0.1024702E+00
         21   -1    0    0  502  501  0.00000000000E+00  0.00000000000E+00  0.11941168528E+03  0.11941168528E+03  0.00000000000E+00 0. -1.
         21   -1    0    0  501  502 -0.00000000000E+00 -0.00000000000E+00 -0.44353169363E+03  0.44353169363E+03  0.00000000000E+00 0. -1.
      99926    2    1    2    0    0 -0.71054273576E-14  0.17763568394E-14 -0.32412000836E+03  0.56294337891E+03  0.46027325367E+03 0.  0.
         25    1    3    3    0    0  0.53662701513E+02 -0.20615585504E+01 -0.20175771920E+03  0.24338779944E+03  0.12509000000E+03 0.  0.
         25    1    3    3    0    0 -0.35916252880E+02  0.98352150965E+01 -0.14040220346E+03  0.19169505866E+03  0.12509000000E+03 0.  0.
         25    1    3    3    0    0 -0.17746448634E+02 -0.77736565461E+01  0.18039914307E+02  0.12786052082E+03  0.12509000000E+03 0.  0.
<mgrwt>
<rscale>  2 0.46027325E+03</rscale>
<asrwt>0</asrwt>
<pdfrwt beam="1">  1       21 0.17560542E-01 0.46027325E+03</pdfrwt>
<pdfrwt beam="2">  1       21 0.65225250E-01 0.46027325E+03</pdfrwt>
<totfact> 0.58539181E+04</totfact>
</mgrwt>
</event>
<event>
 6    0  0.1539652E-007  0.4482233E+03  0.7546771E-02  0.1028253E+00
         21   -1    0    0  502  501  0.00000000000E+00  0.00000000000E+00  0.12914696978E+03  0.12914696978E+03  0.00000000000E+00 0.  1.
         21   -1    0    0  501  502 -0.00000000000E+00 -0.00000000000E+00 -0.38890596003E+03  0.38890596003E+03  0.00000000000E+00 0.  1.
      99926    2    1    2    0    0  0.00000000000E+00  0.00000000000E+00 -0.25975899025E+03  0.51805292981E+03  0.44822327591E+03 0.  0.
         25    1    3    3    0    0  0.37661146743E+01 -0.47276994153E+02 -0.18530487259E+03  0.22854912317E+03  0.12509000000E+03 0.  0.
         25    1    3    3    0    0  0.45702201273E+00  0.24201195733E+02 -0.97152401255E+02  0.16022485423E+03  0.12509000000E+03 0.  0.
         25    1    3    3    0    0 -0.42231366870E+01  0.23075798419E+02  0.22698283597E+02  0.12927895240E+03  0.12509000000E+03 0.  0.
<mgrwt>
<rscale>  2 0.44822328E+03</rscale>
<asrwt>0</asrwt>
<pdfrwt beam="1">  1       21 0.18992202E-01 0.44822328E+03</pdfrwt>
<pdfrwt beam="2">  1       21 0.57192051E-01 0.44822328E+03</pdfrwt>
<totfact> 0.67580883E+04</totfact>
</mgrwt>
</event>
<event>
 6    0  0.1539652E-007  0.4541994E+03  0.7546771E-02  0.1026477E+00
         21   -1    0    0  502  501  0.00000000000E+00  0.00000000000E+00  0.12137351452E+04  0.12137351452E+04  0.00000000000E+00 0. -1.
         21   -1    0    0  501  502 -0.00000000000E+00 -0.00000000000E+00 -0.42492205655E+02  0.42492205655E+02  0.00000000000E+00 0. -1.
      99926    2    1    2    0    0  0.00000000000E+00  0.71054273576E-14  0.11712429396E+04  0.12562273509E+04  0.45419944254E+03 0.  0.
         25    1    3    3    0    0  0.64781591983E+02 -0.56073538916E+02  0.24662316525E+03  0.28950196919E+03  0.12509000000E+03 0.  0.
         25    1    3    3    0    0 -0.26832284032E+02 -0.17222022160E+02  0.35579021039E+03  0.37848481002E+03  0.12509000000E+03 0.  0.
         25    1    3    3    0    0 -0.37949307951E+02  0.73295561076E+02  0.56882956392E+03  0.58824057166E+03  0.12509000000E+03 0.  0.
<mgrwt>
<rscale>  2 0.45419944E+03</rscale>
<asrwt>0</asrwt>
<pdfrwt beam="1">  1       21 0.17849044E+00 0.45419944E+03</pdfrwt>
<pdfrwt beam="2">  1       21 0.62488545E-02 0.45419944E+03</pdfrwt>
<totfact> 0.30603158E+04</totfact>
</mgrwt>
</event>
<event>
 6    0  0.1539652E-007  0.4578018E+03  0.7546771E-02  0.1025421E+00
         21   -1    0    0  502  501  0.00000000000E+00  0.00000000000E+00  0.25981807790E+03  0.25981807790E+03  0.00000000000E+00 0.  1.
         21   -1    0    0  501  502 -0.00000000000E+00 -0.00000000000E+00 -0.20166276192E+03  0.20166276192E+03  0.00000000000E+00 0.  1.
      99926    2    1    2    0    0  0.00000000000E+00  0.00000000000E+00  0.58155315978E+02  0.46148083982E+03  0.45780184004E+03 0.  0.
         25    1    3    3    0    0 -0.58071404821E+02 -0.74278387771E+02  0.78663690812E+02  0.17528562776E+03  0.12509000000E+03 0.  0.
         25    1    3    3    0    0  0.16105336962E+02  0.39110435215E+02  0.38347233391E+02  0.13750282335E+03  0.12509000000E+03 0.  0.
         25    1    3    3    0    0  0.41966067860E+02  0.35167952556E+02 -0.58855608225E+02  0.14869238870E+03  0.12509000000E+03 0.  0.
<mgrwt>
<rscale>  2 0.45780184E+03</rscale>
<asrwt>0</asrwt>
<pdfrwt beam="1">  1       21 0.38208541E-01 0.45780184E+03</pdfrwt>
<pdfrwt beam="2">  1       21 0.29656289E-01 0.45780184E+03</pdfrwt>
<totfact> 0.66572753E+04</totfact>
</mgrwt>
</event>
<event>
 6    0  0.1539652E-007  0.4607730E+03  0.7546771E-02  0.1024557E+00
         21   -1    0    0  502  501  0.00000000000E+00  0.00000000000E+00  0.13492257968E+03  0.13492257968E+03  0.00000000000E+00 0.  1.
         21   -1    0    0  501  502 -0.00000000000E+00 -0.00000000000E+00 -0.39339547821E+03  0.39339547821E+03  0.00000000000E+00 0.  1.
      99926    2    1    2    0    0  0.00000000000E+00  0.00000000000E+00 -0.25847289853E+03  0.52831805789E+03  0.46077297124E+03 0.  0.
         25    1    3    3    0    0 -0.47650780589E+02 -0.21365831278E+02 -0.18471701946E+03  0.22911783217E+03  0.12509000000E+03 0.  0.
         25    1    3    3    0    0  0.39289438992E+02  0.53014618941E+02  0.15217503608E+02  0.14224377088E+03  0.12509000000E+03 0.  0.
         25    1    3    3    0    0  0.83613415968E+01 -0.31648787663E+02 -0.88973382671E+02  0.15695645485E+03  0.12509000000E+03 0.  0.
<mgrwt>
<rscale>  2 0.46077297E+03</rscale>
<asrwt>0</asrwt>
<pdfrwt beam="1">  1       21 0.19841556E-01 0.46077297E+03</pdfrwt>
<pdfrwt beam="2">  1       21 0.57852277E-01 0.46077297E+03</pdfrwt>
<totfact> 0.60503861E+04</totfact>
</mgrwt>
</event>
<event>
 6    0  0.1539652E-007  0.4538777E+03  0.7546771E-02  0.1026572E+00
         21   -1    0    0  502  501  0.00000000000E+00  0.00000000000E+00  0.27213540186E+03  0.27213540186E+03  0.00000000000E+00 0. -1.
         21   -1    0    0  501  502 -0.00000000000E+00 -0.00000000000E+00 -0.18924856223E+03  0.18924856223E+03  0.00000000000E+00 0. -1.
      99926    2    1    2    0    0  0.00000000000E+00  0.14210854715E-13  0.82886839633E+02  0.46138396409E+03  0.45387766428E+03 0.  0.
         25    1    3    3    0    0  0.30078320455E+01 -0.28097335631E+02 -0.64952592160E+02  0.14375275528E+03  0.12509000000E+03 0.  0.
         25    1    3    3    0    0  0.20057706993E+02  0.71411450748E+02  0.92223226746E+02  0.17220493187E+03  0.12509000000E+03 0.  0.
         25    1    3    3    0    0 -0.23065539038E+02 -0.43314115117E+02  0.55616205047E+02  0.14542627694E+03  0.12509000000E+03 0.  0.
<mgrwt>
<rscale>  2 0.45387766E+03</rscale>
<asrwt>0</asrwt>
<pdfrwt beam="1">  1       21 0.40019912E-01 0.45387766E+03</pdfrwt>
<pdfrwt beam="2">  1       21 0.27830671E-01 0.45387766E+03</pdfrwt>
<totfact> 0.68690200E+04</totfact>
</mgrwt>
</event>
<event>
 6    0  0.1539652E-007  0.4499075E+03  0.7546771E-02  0.1027750E+00
         21   -1    0    0  502  501  0.00000000000E+00  0.00000000000E+00  0.15806847702E+03  0.15806847702E+03  0.00000000000E+00 0.  1.
         21   -1    0    0  501  502 -0.00000000000E+00 -0.00000000000E+00 -0.32014097137E+03  0.32014097137E+03  0.00000000000E+00 0.  1.
      99926    2    1    2    0    0  0.00000000000E+00  0.00000000000E+00 -0.16207249435E+03  0.47820944838E+03  0.44990752727E+03 0.  0.
         25    1    3    3    0    0 -0.26096051325E+02  0.10491643300E+02 -0.10853765838E+03  0.16798514774E+03  0.12509000000E+03 0.  0.
         25    1    3    3    0    0 -0.51798478332E+02 -0.42965487339E+02  0.18090787210E+02  0.14319182987E+03  0.12509000000E+03 0.  0.
         25    1    3    3    0    0  0.77894529657E+02  0.32473844039E+02 -0.71625623178E+02  0.16703247077E+03  0.12509000000E+03 0.  0.
<mgrwt>
<rscale>  2 0.44990753E+03</rscale>
<asrwt>0</asrwt>
<pdfrwt beam="1">  1       21 0.23245364E-01 0.44990753E+03</pdfrwt>
<pdfrwt beam="2">  1       21 0.47079554E-01 0.44990753E+03</pdfrwt>
<totfact> 0.69601887E+04</totfact>
</mgrwt>
</event>
<event>
 6    0  0.1539652E-007  0.4535033E+03  0.7546771E-02  0.1026682E+00
         21   -1    0    0  502  501  0.00000000000E+00  0.00000000000E+00  0.12580763948E+03  0.12580763948E+03  0.00000000000E+00 0.  1.
         21   -1    0    0  501  502 -0.00000000000E+00 -0.00000000000E+00 -0.40868986805E+03  0.40868986805E+03  0.00000000000E+00 0.  1.
      99926    2    1    2    0    0  0.00000000000E+00  0.35527136788E-14 -0.28288222857E+03  0.53449750753E+03  0.45350328589E+03 0.  0.
         25    1    3    3    0    0  0.12715465692E+02  0.64795019790E+02 -0.10931631091E+03  0.17876700363E+03  0.12509000000E+03 0.  0.
         25    1    3    3    0    0  0.13807551759E+01 -0.35239370364E+02 -0.18481457698E+03  0.22593728261E+03  0.12509000000E+03 0.  0.
         25    1    3    3    0    0 -0.14096220868E+02 -0.29555649426E+02  0.11248659312E+02  0.12979322129E+03  0.12509000000E+03 0.  0.
<mgrwt>
<rscale>  2 0.45350329E+03</rscale>
<asrwt>0</asrwt>
<pdfrwt beam="1">  1       21 0.18501123E-01 0.45350329E+03</pdfrwt>
<pdfrwt beam="2">  1       21 0.60101451E-01 0.45350329E+03</pdfrwt>
<totfact> 0.63653425E+04</totfact>
</mgrwt>
</event>
<event>
 6    0  0.1539652E-007  0.4500171E+03  0.7546771E-02  0.1027717E+00
         21   -1    0    0  502  501  0.00000000000E+00  0.00000000000E+00  0.70923480600E+03  0.70923480600E+03  0.00000000000E+00 0. -1.
         21   -1    0    0  501  502 -0.00000000000E+00 -0.00000000000E+00 -0.71385170821E+02  0.71385170821E+02  0.00000000000E+00 0. -1.
      99926    2    1    2    0    0  0.00000000000E+00  0.00000000000E+00  0.63784963518E+03  0.78061997682E+03  0.45001710091E+03 0.  0.
         25    1    3    3    0    0  0.29989387558E+01 -0.62685545135E+02  0.35076370466E+03  0.37765216245E+03  0.12509000000E+03 0.  0.
         25    1    3    3    0    0 -0.19135623472E+02 -0.19793490498E+02  0.16586825291E+03  0.20956559778E+03  0.12509000000E+03 0.  0.
         25    1    3    3    0    0  0.16136684716E+02  0.82479035633E+02  0.12121767762E+03  0.19340221658E+03  0.12509000000E+03 0.  0.
<mgrwt>
<rscale>  2 0.45001710E+03</rscale>
<asrwt>0</asrwt>
<pdfrwt beam="1">  1       21 0.10429923E+00 0.45001710E+03</pdfrwt>
<pdfrwt beam="2">  1       21 0.10497820E-01 0.45001710E+03</pdfrwt>
<totfact> 0.50669420E+04</totfact>
</mgrwt>
</event>
<event>
 6    0  0.1539652E-007  0.4580689E+03  0.7546771E-02  0.1025343E+00
         21   -1    0    0  502  501  0.00000000000E+00  0.00000000000E+00  0.50485635203E+03  0.50485635203E+03  0.00000000000E+00 0. -1.
         21   -1    0    0  501  502 -0.00000000000E+00 -0.00000000000E+00 -0.10390438233E+03  0.10390438233E+03  0.00000000000E+00 0. -1.
      99926    2    1    2    0    0  0.00000000000E+00  0.00000000000E+00  0.40095196970E+03  0.60876073436E+03  0.45806893551E+03 0.  0.
         25    1    3    3    0    0  0.44332493164E+02  0.35514312993E+02  0.23322140584E+03  0.27067761012E+03  0.12509000000E+03 0.  0.
         25    1    3    3    0    0 -0.18425798192E+02 -0.18785982553E+02  0.16564328626E+03  0.20923104349E+03  0.12509000000E+03 0.  0.
         25    1    3    3    0    0 -0.25906694972E+02 -0.16728330440E+02  0.20872776056E+01  0.12885208074E+03  0.12509000000E+03 0.  0.
<mgrwt>
<rscale>  2 0.45806894E+03</rscale>
<asrwt>0</asrwt>
<pdfrwt beam="1">  1       21 0.74243580E-01 0.45806894E+03</pdfrwt>
<pdfrwt beam="2">  1       21 0.15280056E-01 0.45806894E+03</pdfrwt>
<totfact> 0.56753813E+04</totfact>
</mgrwt>
</event>
<event>
 6    0  0.1539652E-007  0.4554325E+03  0.7546771E-02  0.1026114E+00
         21   -1    0    0  502  501  0.00000000000E+00  0.00000000000E+00  0.17762241168E+03  0.17762241168E+03  0.00000000000E+00 0.  1.
         21   -1    0    0  501  502 -0.00000000000E+00 -0.00000000000E+00 -0.29193775836E+03  0.29193775836E+03  0.00000000000E+00 0.  1.
      99926    2    1    2    0    0  0.71054273576E-14  0.00000000000E+00 -0.11431534668E+03  0.46956017003E+03  0.45543249203E+03 0.  0.
         25    1    3    3    0    0  0.18322469928E+01  0.47697474166E+02 -0.71164634121E+02  0.15162558960E+03  0.12509000000E+03 0.  0.
         25    1    3    3    0    0  0.51233591331E+02 -0.99762210820E+02 -0.38442550770E+02  0.17234476319E+03  0.12509000000E+03 0.  0.
         25    1    3    3    0    0 -0.53065838324E+02  0.52064736654E+02 -0.47081617859E+01  0.14558981725E+03  0.12509000000E+03 0.  0.
<mgrwt>
<rscale>  2 0.45543249E+03</rscale>
<asrwt>0</asrwt>
<pdfrwt beam="1">  1       21 0.26120943E-01 0.45543249E+03</pdfrwt>
<pdfrwt beam="2">  1       21 0.42932023E-01 0.45543249E+03</pdfrwt>
<totfact> 0.67237490E+04</totfact>
</mgrwt>
</event>
<event>
 6    0  0.1539652E-007  0.4620853E+03  0.7546771E-02  0.1024178E+00
         21   -1    0    0  502  501  0.00000000000E+00  0.00000000000E+00  0.27480252046E+03  0.27480252046E+03  0.00000000000E+00 0.  1.
         21   -1    0    0  501  502 -0.00000000000E+00 -0.00000000000E+00 -0.19425118994E+03  0.19425118994E+03  0.00000000000E+00 0.  1.
      99926    2    1    2    0    0  0.00000000000E+00  0.26645352591E-14  0.80551330520E+02  0.46905371041E+03  0.46208534536E+03 0.  0.
         25    1    3    3    0    0  0.64931914179E+02  0.18927527299E+02  0.86875100628E+02  0.16664091928E+03  0.12509000000E+03 0.  0.
         25    1    3    3    0    0  0.31485077348E+02 -0.20158986432E+02  0.42163728842E+02  0.13719687664E+03  0.12509000000E+03 0.  0.
         25    1    3    3    0    0 -0.96416991527E+02  0.12314591322E+01 -0.48487498949E+02  0.16521591449E+03  0.12509000000E+03 0.  0.
<mgrwt>
<rscale>  2 0.46208535E+03</rscale>
<asrwt>0</asrwt>
<pdfrwt beam="1">  1       21 0.40412136E-01 0.46208535E+03</pdfrwt>
<pdfrwt beam="2">  1       21 0.28566351E-01 0.46208535E+03</pdfrwt>
<totfact> 0.63838177E+04</totfact>
</mgrwt>
</event>
<event>
 6    0  0.1539652E-007  0.4580813E+03  0.7546771E-02  0.1025339E+00
         21   -1    0    0  502  501  0.00000000000E+00  0.00000000000E+00  0.48465488207E+02  0.48465488207E+02  0.00000000000E+00 0. -1.
         21   -1    0    0  501  502 -0.00000000000E+00 -0.00000000000E+00 -0.10824118488E+04  0.10824118488E+04  0.00000000000E+00 0. -1.
      99926    2    1    2    0    0  0.71054273576E-14 -0.71054273576E-14 -0.10339463606E+04  0.11308773370E+04  0.45808129713E+03 0.  0.
         25    1    3    3    0    0  0.18492766695E+02 -0.36503018565E+02 -0.44727151794E+03  0.46623360201E+03  0.12509000000E+03 0.  0.
         25    1    3    3    0    0  0.75549970545E+02  0.51751015121E+02 -0.28345936656E+03  0.32308309489E+03  0.12509000000E+03 0.  0.
         25    1    3    3    0    0 -0.94042737240E+02 -0.15247996556E+02 -0.30321547613E+03  0.34156064013E+03  0.12509000000E+03 0.  0.
<mgrwt>
<rscale>  2 0.45808130E+03</rscale>
<asrwt>0</asrwt>
<pdfrwt beam="1">  1       21 0.71272787E-02 0.45808130E+03</pdfrwt>
<pdfrwt beam="2">  1       21 0.15917819E+00 0.45808130E+03</pdfrwt>
<totfact> 0.33612647E+04</totfact>
</mgrwt>
</event>
<event>
 6    0  0.1539652E-007  0.4579108E+03  0.7546771E-02  0.1025389E+00
         21   -1    0    0  502  501  0.00000000000E+00  0.00000000000E+00  0.21727871325E+03  0.21727871325E+03  0.00000000000E+00 0.  1.
         21   -1    0    0  501  502 -0.00000000000E+00 -0.00000000000E+00 -0.24125961488E+03  0.24125961488E+03  0.00000000000E+00 0.  1.
      99926    2    1    2    0    0  0.00000000000E+00  0.00000000000E+00 -0.23980901632E+02  0.45853832813E+03  0.45791081524E+03 0.  0.
         25    1    3    3    0    0 -0.74480181263E+02  0.52184051042E+02 -0.19076331077E+02  0.15582646467E+03  0.12509000000E+03 0.  0.
         25    1    3    3    0    0  0.97292470208E+02  0.72951514438E+01  0.20811153536E+02  0.15999892564E+03  0.12509000000E+03 0.  0.
         25    1    3    3    0    0 -0.22812288945E+02 -0.59479202486E+02 -0.25715724091E+02  0.14271293782E+03  0.12509000000E+03 0.  0.
<mgrwt>
<rscale>  2 0.45791082E+03</rscale>
<asrwt>0</asrwt>
<pdfrwt beam="1">  1       21 0.31952752E-01 0.45791082E+03</pdfrwt>
<pdfrwt beam="2">  1       21 0.35479355E-01 0.45791082E+03</pdfrwt>
<totfact> 0.66724196E+04</totfact>
</mgrwt>
</event>
<event>
 6    0  0.1539652E-007  0.4549673E+03  0.7546771E-02  0.1026251E+00
         21   -1    0    0  502  501  0.00000000000E+00  0.00000000000E+00  0.15103729809E+03  0.15103729809E+03  0.00000000000E+00 0.  1.
         21   -1    0    0  501  502 -0.00000000000E+00 -0.00000000000E+00 -0.34262279627E+03  0.34262279627E+03  0.00000000000E+00 0.  1.
      99926    2    1    2    0    0  0.88817841970E-15  0.71054273576E-14 -0.19158549819E+03  0.49366009436E+03  0.45496734569E+03 0.  0.
         25    1    3    3    0    0 -0.56686017468E+02  0.96152489735E+02 -0.67150104341E+02  0.18059692819E+03  0.12509000000E+03 0.  0.
         25    1    3    3    0    0  0.62621013535E+01 -0.57326425459E+02 -0.10092481206E+03  0.17075965202E+03  0.12509000000E+03 0.  0.
         25    1    3    3    0    0  0.50423916114E+02 -0.38826064275E+02 -0.23510581789E+02  0.14230351415E+03  0.12509000000E+03 0.  0.
<mgrwt>
<rscale>  2 0.45496735E+03</rscale>
<asrwt>0</asrwt>
<pdfrwt beam="1">  1       21 0.22211368E-01 0.45496735E+03</pdfrwt>
<pdfrwt beam="2">  1       21 0.50385705E-01 0.45496735E+03</pdfrwt>
<totfact> 0.65735427E+04</totfact>
</mgrwt>
</event>
<event>
 6    0  0.1539652E-007  0.4584912E+03  0.7546771E-02  0.1025220E+00
         21   -1    0    0  502  501  0.00000000000E+00  0.00000000000E+00  0.44931312010E+03  0.44931312010E+03  0.00000000000E+00 0. -1.
         21   -1    0    0  501  502 -0.00000000000E+00 -0.00000000000E+00 -0.11696416777E+03  0.11696416777E+03  0.00000000000E+00 0. -1.
      99926    2    1    2    0    0 -0.35527136788E-14  0.00000000000E+00  0.33234895232E+03  0.56627728787E+03  0.45849115656E+03 0.  0.
         25    1    3    3    0    0 -0.47046722721E+01 -0.52505790574E+02  0.15721952043E+03  0.20771248804E+03  0.12509000000E+03 0.  0.
         25    1    3    3    0    0 -0.20337481193E+02  0.44323589569E+02 -0.88301129655E+01  0.13454988937E+03  0.12509000000E+03 0.  0.
         25    1    3    3    0    0  0.25042153466E+02  0.81822010049E+01  0.18395954486E+03  0.22401491046E+03  0.12509000000E+03 0.  0.
<mgrwt>
<rscale>  2 0.45849116E+03</rscale>
<asrwt>0</asrwt>
<pdfrwt beam="1">  1       21 0.66075458E-01 0.45849116E+03</pdfrwt>
<pdfrwt beam="2">  1       21 0.17200613E-01 0.45849116E+03</pdfrwt>
<totfact> 0.59153295E+04</totfact>
</mgrwt>
</event>
<event>
 6    0  0.1539652E-007  0.4517491E+03  0.7546771E-02  0.1027202E+00
         21   -1    0    0  502  501  0.00000000000E+00  0.00000000000E+00  0.52551682992E+02  0.52551682992E+02  0.00000000000E+00 0. -1.
         21   -1    0    0  501  502 -0.00000000000E+00 -0.00000000000E+00 -0.97084052115E+03  0.97084052115E+03  0.00000000000E+00 0. -1.
      99926    2    1    2    0    0  0.00000000000E+00  0.00000000000E+00 -0.91828883816E+03  0.10233922041E+04  0.45174906000E+03 0.  0.
         25    1    3    3    0    0  0.24713633061E+02 -0.59836789769E+02 -0.15819830253E+03  0.21181457951E+03  0.12509000000E+03 0.  0.
         25    1    3    3    0    0 -0.68269678673E+02  0.26385532141E+02 -0.44902178404E+03  0.47183155466E+03  0.12509000000E+03 0.  0.
         25    1    3    3    0    0  0.43556045613E+02  0.33451257628E+02 -0.31106875158E+03  0.33974606997E+03  0.12509000000E+03 0.  0.
<mgrwt>
<rscale>  2 0.45174906E+03</rscale>
<asrwt>0</asrwt>
<pdfrwt beam="1">  1       21 0.77281889E-02 0.45174906E+03</pdfrwt>
<pdfrwt beam="2">  1       21 0.14277066E+00 0.45174906E+03</pdfrwt>
<totfact> 0.39256065E+04</totfact>
</mgrwt>
</event>
<event>
 6    0  0.1539652E-007  0.4562994E+03  0.7546771E-02  0.1025860E+00
         21   -1    0    0  502  501  0.00000000000E+00  0.00000000000E+00  0.16635468875E+04  0.16635468875E+04  0.00000000000E+00 0. -1.
         21   -1    0    0  501  502 -0.00000000000E+00 -0.00000000000E+00 -0.31289943699E+02  0.31289943699E+02  0.00000000000E+00 0. -1.
      99926    2    1    2    0    0 -0.35527136788E-14  0.00000000000E+00  0.16322569438E+04  0.16948368312E+04  0.45629941246E+03 0.  0.
         25    1    3    3    0    0 -0.70800166265E+02 -0.48380561276E+02  0.71761277606E+03  0.73346366422E+03  0.12509000000E+03 0.  0.
         25    1    3    3    0    0  0.20000417290E+02  0.89306978535E+02  0.47506189031E+03  0.49970697497E+03  0.12509000000E+03 0.  0.
         25    1    3    3    0    0  0.50799748975E+02 -0.40926417259E+02  0.43958227746E+03  0.46166619205E+03  0.12509000000E+03 0.  0.
<mgrwt>
<rscale>  2 0.45629941E+03</rscale>
<asrwt>0</asrwt>
<pdfrwt beam="1">  1       21 0.24463919E+00 0.45629941E+03</pdfrwt>
<pdfrwt beam="2">  1       21 0.46014634E-02 0.45629941E+03</pdfrwt>
<totfact> 0.19175059E+04</totfact>
</mgrwt>
</event>
<event>
 6    0  0.1539652E-007  0.4722913E+03  0.7546771E-02  0.1021275E+00
         21   -1    0    0  502  501  0.00000000000E+00  0.00000000000E+00  0.34777898853E+03  0.34777898853E+03  0.00000000000E+00 0. -1.
         21   -1    0    0  501  502 -0.00000000000E+00 -0.00000000000E+00 -0.16034543868E+03  0.16034543868E+03  0.00000000000E+00 0. -1.
      99926    2    1    2    0    0  0.00000000000E+00  0.00000000000E+00  0.18743354985E+03  0.50812442722E+03  0.47229132739E+03 0.  0.
         25    1    3    3    0    0 -0.61106138323E+02  0.44764890761E+02  0.31099954548E+01  0.14627041997E+03  0.12509000000E+03 0.  0.
         25    1    3    3    0    0  0.11323241683E+03 -0.92686809155E+01  0.12259395465E+03  0.20876847100E+03  0.12509000000E+03 0.  0.
         25    1    3    3    0    0 -0.52126278506E+02 -0.35496209846E+02  0.61729599746E+02  0.15308553625E+03  0.12509000000E+03 0.  0.
<mgrwt>
<rscale>  2 0.47229133E+03</rscale>
<asrwt>0</asrwt>
<pdfrwt beam="1">  1       21 0.51143969E-01 0.47229133E+03</pdfrwt>
<pdfrwt beam="2">  1       21 0.23580212E-01 0.47229133E+03</pdfrwt>
<totfact> 0.56535741E+04</totfact>
</mgrwt>
</event>
<event>
 6    0  0.1539652E-007  0.4544150E+03  0.7546771E-02  0.1026414E+00
         21   -1    0    0  502  501  0.00000000000E+00  0.00000000000E+00  0.21769416118E+03  0.21769416118E+03  0.00000000000E+00 0. -1.
         21   -1    0    0  501  502 -0.00000000000E+00 -0.00000000000E+00 -0.23713660411E+03  0.23713660411E+03  0.00000000000E+00 0. -1.
      99926    2    1    2    0    0  0.00000000000E+00  0.88817841970E-15 -0.19442442931E+02  0.45483076528E+03  0.45441502667E+03 0.  0.
         25    1    3    3    0    0 -0.10978400885E+03 -0.15659723023E+02 -0.41001654177E+02  0.17212320956E+03  0.12509000000E+03 0.  0.
         25    1    3    3    0    0  0.40374248073E+02  0.17125787508E+02  0.40001875294E+02  0.13845949094E+03  0.12509000000E+03 0.  0.
         25    1    3    3    0    0  0.69409760775E+02 -0.14660644843E+01 -0.18442664048E+02  0.14424806478E+03  0.12509000000E+03 0.  0.
<mgrwt>
<rscale>  2 0.45441503E+03</rscale>
<asrwt>0</asrwt>
<pdfrwt beam="1">  1       21 0.32013847E-01 0.45441503E+03</pdfrwt>
<pdfrwt beam="2">  1       21 0.34873030E-01 0.45441503E+03</pdfrwt>
<totfact> 0.68879141E+04</totfact>
</mgrwt>
</event>
<event>
 6    0  0.1539652E-007  0.4612809E+03  0.7546771E-02  0.1024410E+00
         21   -1    0    0  502  501  0.00000000000E+00  0.00000000000E+00  0.89659660134E+02  0.89659660134E+02  0.00000000000E+00 0.  1.
         21   -1    0    0  501  502 -0.00000000000E+00 -0.00000000000E+00 -0.59329926760E+03  0.59329926760E+03  0.00000000000E+00 0.  1.
      99926    2    1    2    0    0  0.00000000000E+00 -0.71054273576E-14 -0.50363960747E+03  0.68295892773E+03  0.46128087188E+03 0.  0.
         25    1    3    3    0    0  0.72654054432E+02 -0.14862060162E+02 -0.18123973755E+03  0.23236790446E+03  0.12509000000E+03 0.  0.
         25    1    3    3    0    0  0.19885264781E+02 -0.61835664082E+02 -0.13380813971E+03  0.19434813984E+03  0.12509000000E+03 0.  0.
         25    1    3    3    0    0 -0.92539319213E+02  0.76697724244E+02 -0.18859173021E+03  0.25624288343E+03  0.12509000000E+03 0.  0.
<mgrwt>
<rscale>  2 0.46128087E+03</rscale>
<asrwt>0</asrwt>
<pdfrwt beam="1">  1       21 0.13185244E-01 0.46128087E+03</pdfrwt>
<pdfrwt beam="2">  1       21 0.87249893E-01 0.46128087E+03</pdfrwt>
<totfact> 0.51254707E+04</totfact>
</mgrwt>
</event>
<event>
 6    0  0.1539652E-007  0.4641878E+03  0.7546771E-02  0.1023574E+00
         21   -1    0    0  502  501  0.00000000000E+00  0.00000000000E+00  0.78276811886E+03  0.78276811886E+03  0.00000000000E+00 0.  1.
         21   -1    0    0  501  502 -0.00000000000E+00 -0.00000000000E+00 -0.68816762373E+02  0.68816762373E+02  0.00000000000E+00 0.  1.
      99926    2    1    2    0    0  0.00000000000E+00 -0.14210854715E-13  0.71395135649E+03  0.85158488124E+03  0.46418775352E+03 0.  0.
         25    1    3    3    0    0  0.73577830671E+02  0.86370090944E+02  0.33675982318E+03  0.37673356153E+03  0.12509000000E+03 0.  0.
         25    1    3    3    0    0 -0.20278690443E+02 -0.34006668425E+01  0.19792343622E+03  0.23504038914E+03  0.12509000000E+03 0.  0.
         25    1    3    3    0    0 -0.53299140228E+02 -0.82969424101E+02  0.17926809709E+03  0.23981093057E+03  0.12509000000E+03 0.  0.
<mgrwt>
<rscale>  2 0.46418775E+03</rscale>
<asrwt>0</asrwt>
<pdfrwt beam="1">  1       21 0.11511295E+00 0.46418775E+03</pdfrwt>
<pdfrwt beam="2">  1       21 0.10120113E-01 0.46418775E+03</pdfrwt>
<totfact> 0.42240789E+04</totfact>
</mgrwt>
</event>
<event>
 6    0  0.1539652E-007  0.4400219E+03  0.7546771E-02  0.1030740E+00
         21   -1    0    0  502  501  0.00000000000E+00  0.00000000000E+00  0.15272173737E+04  0.15272173737E+04  0.00000000000E+00 0.  1.
         21   -1    0    0  501  502 -0.00000000000E+00 -0.00000000000E+00 -0.31694782904E+02  0.31694782904E+02  0.00000000000E+00 0.  1.
      99926    2    1    2    0    0  0.35527136788E-14  0.00000000000E+00  0.14955225908E+04  0.15589121566E+04  0.44002192267E+03 0.  0.
         25    1    3    3    0    0 -0.28990209355E+02 -0.63577676071E+02  0.38687819582E+03  0.41255884384E+03  0.12509000000E+03 0.  0.
         25    1    3    3    0    0  0.80815242466E+02  0.29998443480E+02  0.55742328399E+03  0.57775361155E+03  0.12509000000E+03 0.  0.
         25    1    3    3    0    0 -0.51825033111E+02  0.33579232591E+02  0.55122111102E+03  0.56859970125E+03  0.12509000000E+03 0.  0.
<mgrwt>
<rscale>  2 0.44002192E+03</rscale>
<asrwt>0</asrwt>
<pdfrwt beam="1">  1       21 0.22459074E+00 0.44002192E+03</pdfrwt>
<pdfrwt beam="2">  1       21 0.46609985E-02 0.44002192E+03</pdfrwt>
<totfact> 0.25175220E+04</totfact>
</mgrwt>
</event>
<event>
 6    0  0.1539652E-007  0.4672232E+03  0.7546771E-02  0.1022707E+00
         21   -1    0    0  502  501  0.00000000000E+00  0.00000000000E+00  0.13204087767E+03  0.13204087767E+03  0.00000000000E+00 0. -1.
         21   -1    0    0  501  502 -0.00000000000E+00 -0.00000000000E+00 -0.41331434170E+03  0.41331434170E+03  0.00000000000E+00 0. -1.
      99926    2    1    2    0    0 -0.71054273576E-14  0.35527136788E-14 -0.28127346402E+03  0.54535521937E+03  0.46722323758E+03 0.  0.
         25    1    3    3    0    0  0.32356517137E+02  0.59211068248E+02 -0.12041277357E+03  0.18627839097E+03  0.12509000000E+03 0.  0.
         25    1    3    3    0    0 -0.71097277531E+02 -0.50737191516E+02 -0.14129699881E+01  0.15257322851E+03  0.12509000000E+03 0.  0.
         25    1    3    3    0    0  0.38740760394E+02 -0.84738767317E+01 -0.15944772047E+03  0.20650359989E+03  0.12509000000E+03 0.  0.
<mgrwt>
<rscale>  2 0.46722324E+03</rscale>
<asrwt>0</asrwt>
<pdfrwt beam="1">  1       21 0.19417776E-01 0.46722324E+03</pdfrwt>
<pdfrwt beam="2">  1       21 0.60781520E-01 0.46722324E+03</pdfrwt>
<totfact> 0.56504158E+04</totfact>
</mgrwt>
</event>
<event>
 6    0  0.1539652E-007  0.4522007E+03  0.7546771E-02  0.1027068E+00
         21   -1    0    0  502  501  0.00000000000E+00  0.00000000000E+00  0.24642393589E+03  0.24642393589E+03  0.00000000000E+00 0.  1.
         21   -1    0    0  501  502 -0.00000000000E+00 -0.00000000000E+00 -0.20745296073E+03  0.20745296073E+03  0.00000000000E+00 0.  1.
      99926    2    1    2    0    0 -0.66613381478E-15  0.00000000000E+00  0.38970975166E+02  0.45387689662E+03  0.45220073019E+03 0.  0.
         25    1    3    3    0    0  0.15245500524E+01 -0.86447465308E+02  0.23201789445E+02  0.15382236393E+03  0.12509000000E+03 0.  0.
         25    1    3    3    0    0 -0.47184165718E+02  0.17421571019E+01 -0.27299360113E+02  0.13646297582E+03  0.12509000000E+03 0.  0.
         25    1    3    3    0    0  0.45659615665E+02  0.84705308206E+02  0.43068545834E+02  0.16359155688E+03  0.12509000000E+03 0.  0.
<mgrwt>
<rscale>  2 0.45220073E+03</rscale>
<asrwt>0</asrwt>
<pdfrwt beam="1">  1       21 0.36238814E-01 0.45220073E+03</pdfrwt>
<pdfrwt beam="2">  1       21 0.30507788E-01 0.45220073E+03</pdfrwt>
<totfact> 0.70182612E+04</totfact>
</mgrwt>
</event>
<event>
 6    0  0.1539652E-007  0.4522257E+03  0.7546771E-02  0.1027060E+00
         21   -1    0    0  502  501  0.00000000000E+00  0.00000000000E+00  0.54809066757E+03  0.54809066757E+03  0.00000000000E+00 0.  1.
         21   -1    0    0  501  502 -0.00000000000E+00 -0.00000000000E+00 -0.93282055602E+02  0.93282055602E+02  0.00000000000E+00 0.  1.
      99926    2    1    2    0    0  0.71054273576E-14  0.00000000000E+00  0.45480861197E+03  0.64137272317E+03  0.45222571412E+03 0.  0.
         25    1    3    3    0    0 -0.57780045012E+02 -0.21939227890E+02  0.13216729578E+03  0.19218627811E+03  0.12509000000E+03 0.  0.
         25    1    3    3    0    0  0.52972374842E+02  0.72010085216E+02  0.84274782719E+02  0.17533189091E+03  0.12509000000E+03 0.  0.
         25    1    3    3    0    0  0.48076701700E+01 -0.50070857327E+02  0.23836653347E+03  0.27385455414E+03  0.12509000000E+03 0.  0.
<mgrwt>
<rscale>  2 0.45222571E+03</rscale>
<asrwt>0</asrwt>
<pdfrwt beam="1">  1       21 0.80601567E-01 0.45222571E+03</pdfrwt>
<pdfrwt beam="2">  1       21 0.13717950E-01 0.45222571E+03</pdfrwt>
<totfact> 0.57448630E+04</totfact>
</mgrwt>
</event>
<event>
 6    0  0.1539652E-007  0.4548547E+03  0.7546771E-02  0.1026284E+00
         21   -1    0    0  502  501  0.00000000000E+00  0.00000000000E+00  0.33575413891E+04  0.33575413891E+04  0.00000000000E+00 0. -1.
         21   -1    0    0  501  502 -0.00000000000E+00 -0.00000000000E+00 -0.15405080392E+02  0.15405080392E+02  0.00000000000E+00 0. -1.
      99926    2    1    2    0    0 -0.14210854715E-13  0.35527136788E-14  0.33421363087E+04  0.33729464695E+04  0.45485468017E+03 0.  0.
         25    1    3    3    0    0  0.27485766927E+02  0.47075578354E+02  0.14656985041E+04  0.14720364094E+04  0.12509000000E+03 0.  0.
         25    1    3    3    0    0  0.53234982006E+02 -0.11158397695E+02  0.11785112616E+04  0.11863788497E+04  0.12509000000E+03 0.  0.
         25    1    3    3    0    0 -0.80720748933E+02 -0.35917180659E+02  0.69792654300E+03  0.71453121044E+03  0.12509000000E+03 0.  0.
<mgrwt>
<rscale>  2 0.45485468E+03</rscale>
<asrwt>0</asrwt>
<pdfrwt beam="1">  1       21 0.49375558E+00 0.45485468E+03</pdfrwt>
<pdfrwt beam="2">  1       21 0.22654553E-02 0.45485468E+03</pdfrwt>
<totfact> 0.16517294E+03</totfact>
</mgrwt>
</event>
<event>
 6    0  0.1539652E-007  0.4551672E+03  0.7546771E-02  0.1026192E+00
         21   -1    0    0  502  501  0.00000000000E+00  0.00000000000E+00  0.73319768121E+03  0.73319768121E+03  0.00000000000E+00 0.  1.
         21   -1    0    0  501  502 -0.00000000000E+00 -0.00000000000E+00 -0.70641639268E+02  0.70641639268E+02  0.00000000000E+00 0.  1.
      99926    2    1    2    0    0 -0.14210854715E-13  0.00000000000E+00  0.66255604194E+03  0.80383932048E+03  0.45516716098E+03 0.  0.
         25    1    3    3    0    0  0.10165992226E+03 -0.19743797849E+02  0.24277320315E+03  0.29208028625E+03  0.12509000000E+03 0.  0.
         25    1    3    3    0    0 -0.10005196301E+03  0.39886783545E+02  0.21713835664E+03  0.27275982994E+03  0.12509000000E+03 0.  0.
         25    1    3    3    0    0 -0.16079592495E+01 -0.20142985696E+02  0.20264448215E+03  0.23899920429E+03  0.12509000000E+03 0.  0.
<mgrwt>
<rscale>  2 0.45516716E+03</rscale>
<asrwt>0</asrwt>
<pdfrwt beam="1">  1       21 0.10782318E+00 0.45516716E+03</pdfrwt>
<pdfrwt beam="2">  1       21 0.10388477E-01 0.45516716E+03</pdfrwt>
<totfact> 0.47517300E+04</totfact>
</mgrwt>
</event>
<event>
 6    0  0.1539652E-007  0.4630052E+03  0.7546771E-02  0.1023913E+00
         21   -1    0    0  502  501  0.00000000000E+00  0.00000000000E+00  0.65977214738E+02  0.65977214738E+02  0.00000000000E+00 0. -1.
         21   -1    0    0  501  502 -0.00000000000E+00 -0.00000000000E+00 -0.81230254157E+03  0.81230254157E+03  0.00000000000E+00 0. -1.
      99926    2    1    2    0    0  0.00000000000E+00 -0.17763568394E-14 -0.74632532683E+03  0.87827975631E+03  0.46300522337E+03 0.  0.
         25    1    3    3    0    0  0.29072096600E+02 -0.38843759141E+02 -0.14347668928E+03  0.19643597657E+03  0.12509000000E+03 0.  0.
         25    1    3    3    0    0 -0.10030197751E+03  0.45911416846E+02 -0.39648793159E+03  0.43013780685E+03  0.12509000000E+03 0.  0.
         25    1    3    3    0    0  0.71229880907E+02 -0.70676577047E+01 -0.20636070596E+03  0.25170597288E+03  0.12509000000E+03 0.  0.
<mgrwt>
<rscale>  2 0.46300522E+03</rscale>
<asrwt>0</asrwt>
<pdfrwt beam="1">  1       21 0.97025323E-02 0.46300522E+03</pdfrwt>
<pdfrwt beam="2">  1       21 0.11945625E+00 0.46300522E+03</pdfrwt>
<totfact> 0.41520992E+04</totfact>
</mgrwt>
</event>
<event>
 6    0  0.1539652E-007  0.4551362E+03  0.7546771E-02  0.1026201E+00
         21   -1    0    0  502  501  0.00000000000E+00  0.00000000000E+00  0.12988510844E+04  0.12988510844E+04  0.00000000000E+00 0.  1.
         21   -1    0    0  501  502 -0.00000000000E+00 -0.00000000000E+00 -0.39871575461E+02  0.39871575461E+02  0.00000000000E+00 0.  1.
      99926    2    1    2    0    0  0.35527136788E-14 -0.14210854715E-13  0.12589795090E+04  0.13387226599E+04  0.45513619511E+03 0.  0.
         25    1    3    3    0    0  0.22359937520E+02 -0.11533002842E+02  0.47644648728E+03  0.49323598845E+03  0.12509000000E+03 0.  0.
         25    1    3    3    0    0 -0.25859917390E+02 -0.85288655722E+02  0.48153320218E+03  0.50543508289E+03  0.12509000000E+03 0.  0.
         25    1    3    3    0    0  0.34999798694E+01  0.96821658565E+02  0.30099981950E+03  0.34005158854E+03  0.12509000000E+03 0.  0.
<mgrwt>
<rscale>  2 0.45513620E+03</rscale>
<asrwt>0</asrwt>
<pdfrwt beam="1">  1       21 0.19100749E+00 0.45513620E+03</pdfrwt>
<pdfrwt beam="2">  1       21 0.58634678E-02 0.45513620E+03</pdfrwt>
<totfact> 0.27980936E+04</totfact>
</mgrwt>
</event>
<event>
 6    0  0.1539652E-007  0.4589829E+03  0.7546771E-02  0.1025077E+00
         21   -1    0    0  502  501  0.00000000000E+00  0.00000000000E+00  0.67150300178E+02  0.67150300178E+02  0.00000000000E+00 0. -1.
         21   -1    0    0  501  502 -0.00000000000E+00 -0.00000000000E+00 -0.78430507170E+03  0.78430507170E+03  0.00000000000E+00 0. -1.
      99926    2    1    2    0    0  0.00000000000E+00 -0.14210854715E-13 -0.71715477152E+03  0.85145537187E+03  0.45898287984E+03 0.  0.
         25    1    3    3    0    0 -0.34404842119E+02  0.98168145848E+02 -0.28628042302E+03  0.32927901046E+03  0.12509000000E+03 0.  0.
         25    1    3    3    0    0  0.15075077842E+02 -0.97018380124E+02 -0.30330975871E+03  0.34246772385E+03  0.12509000000E+03 0.  0.
         25    1    3    3    0    0  0.19329764277E+02 -0.11497657245E+01 -0.12756458979E+03  0.17970863757E+03  0.12509000000E+03 0.  0.
<mgrwt>
<rscale>  2 0.45898288E+03</rscale>
<asrwt>0</asrwt>
<pdfrwt beam="1">  1       21 0.98750444E-02 0.45898288E+03</pdfrwt>
<pdfrwt beam="2">  1       21 0.11533898E+00 0.45898288E+03</pdfrwt>
<totfact> 0.43983934E+04</totfact>
</mgrwt>
</event>
<event>
 6    0  0.1539652E-007  0.4555574E+03  0.7546771E-02  0.1026078E+00
         21   -1    0    0  502  501  0.00000000000E+00  0.00000000000E+00  0.62587901514E+02  0.62587901514E+02  0.00000000000E+00 0. -1.
         21   -1    0    0  501  502 -0.00000000000E+00 -0.00000000000E+00 -0.82896444141E+03  0.82896444141E+03  0.00000000000E+00 0. -1.
      99926    2    1    2    0    0 -0.35527136788E-14 -0.14210854715E-13 -0.76637653990E+03  0.89155234293E+03  0.45555743795E+03 0.  0.
         25    1    3    3    0    0 -0.14442556280E+02 -0.97409645225E+02 -0.33428357517E+03  0.37025699608E+03  0.12509000000E+03 0.  0.
         25    1    3    3    0    0 -0.37703237315E+02  0.18030368440E+02 -0.16246220811E+03  0.20925607627E+03  0.12509000000E+03 0.  0.
         25    1    3    3    0    0  0.52145793595E+02  0.79379276785E+02 -0.26963075661E+03  0.31203927058E+03  0.12509000000E+03 0.  0.
<mgrwt>
<rscale>  2 0.45555744E+03</rscale>
<asrwt>0</asrwt>
<pdfrwt beam="1">  1       21 0.92041044E-02 0.45555744E+03</pdfrwt>
<pdfrwt beam="2">  1       21 0.12190652E+00 0.45555744E+03</pdfrwt>
<totfact> 0.43411154E+04</totfact>
</mgrwt>
</event>
<event>
 6    0  0.1539652E-007  0.4533975E+03  0.7546771E-02  0.1026714E+00
         21   -1    0    0  502  501  0.00000000000E+00  0.00000000000E+00  0.14382919312E+03  0.14382919312E+03  0.00000000000E+00 0.  1.
         21   -1    0    0  501  502 -0.00000000000E+00 -0.00000000000E+00 -0.35731496155E+03  0.35731496155E+03  0.00000000000E+00 0.  1.
      99926    2    1    2    0    0  0.00000000000E+00  0.00000000000E+00 -0.21348576844E+03  0.50114415467E+03  0.45339749716E+03 0.  0.
         25    1    3    3    0    0 -0.13642467142E+02 -0.31807388059E+02 -0.13366347899E+03  0.18630958258E+03  0.12509000000E+03 0.  0.
         25    1    3    3    0    0 -0.80898022701E+01  0.94471500264E+02 -0.10840459531E+02  0.15733827546E+03  0.12509000000E+03 0.  0.
         25    1    3    3    0    0  0.21732269412E+02 -0.62664112205E+02 -0.68981829915E+02  0.15749629663E+03  0.12509000000E+03 0.  0.
<mgrwt>
<rscale>  2 0.45339750E+03</rscale>
<asrwt>0</asrwt>
<pdfrwt beam="1">  1       21 0.21151352E-01 0.45339750E+03</pdfrwt>
<pdfrwt beam="2">  1       21 0.52546318E-01 0.45339750E+03</pdfrwt>
<totfact> 0.66026241E+04</totfact>
</mgrwt>
</event>
<event>
 6    0  0.1539652E-007  0.4494036E+03  0.7546771E-02  0.1027900E+00
         21   -1    0    0  502  501  0.00000000000E+00  0.00000000000E+00  0.30280306249E+03  0.30280306249E+03  0.00000000000E+00 0. -1.
         21   -1    0    0  501  502 -0.00000000000E+00 -0.00000000000E+00 -0.16674498735E+03  0.16674498735E+03  0.00000000000E+00 0. -1.
      99926    2    1    2    0    0  0.11102230246E-15  0.17763568394E-14  0.13605807514E+03  0.46954804983E+03  0.44940357285E+03 0.  0.
         25    1    3    3    0    0 -0.12024048573E+02  0.39152672102E+02 -0.12126405260E+02  0.13218194764E+03  0.12509000000E+03 0.  0.
         25    1    3    3    0    0  0.51804339160E+00  0.14741848713E+02 -0.12303230656E+02  0.12655618538E+03  0.12509000000E+03 0.  0.
         25    1    3    3    0    0  0.11506005182E+02 -0.53894520816E+02  0.16048771106E+03  0.21080991682E+03  0.12509000000E+03 0.  0.
<mgrwt>
<rscale>  2 0.44940357E+03</rscale>
<asrwt>0</asrwt>
<pdfrwt beam="1">  1       21 0.44529862E-01 0.44940357E+03</pdfrwt>
<pdfrwt beam="2">  1       21 0.24521322E-01 0.44940357E+03</pdfrwt>
<totfact> 0.70550470E+04</totfact>
</mgrwt>
</event>
<event>
 6    0  0.1539652E-007  0.4560671E+03  0.7546771E-02  0.1025928E+00
         21   -1    0    0  502  501  0.00000000000E+00  0.00000000000E+00  0.18414605319E+03  0.18414605319E+03  0.00000000000E+00 0. -1.
         21   -1    0    0  501  502 -0.00000000000E+00 -0.00000000000E+00 -0.28238078575E+03  0.28238078575E+03  0.00000000000E+00 0. -1.
      99926    2    1    2    0    0 -0.14210854715E-13  0.00000000000E+00 -0.98234732553E+02  0.46652683894E+03  0.45606713187E+03 0.  0.
         25    1    3    3    0    0 -0.33337270541E+02 -0.17026657939E+02  0.26726357701E+02  0.13327823147E+03  0.12509000000E+03 0.  0.
         25    1    3    3    0    0 -0.64712824745E+02  0.23497010507E+02 -0.94677206830E+02  0.17132174638E+03  0.12509000000E+03 0.  0.
         25    1    3    3    0    0  0.98050095287E+02 -0.64703525675E+01 -0.30283883424E+02  0.16192686109E+03  0.12509000000E+03 0.  0.
<mgrwt>
<rscale>  2 0.45606713E+03</rscale>
<asrwt>0</asrwt>
<pdfrwt beam="1">  1       21 0.27080302E-01 0.45606713E+03</pdfrwt>
<pdfrwt beam="2">  1       21 0.41526586E-01 0.45606713E+03</pdfrwt>
<totfact> 0.67125481E+04</totfact>
</mgrwt>
</event>
<event>
 6    0  0.1539652E-007  0.4537416E+03  0.7546771E-02  0.1026612E+00
         21   -1    0    0  502  501  0.00000000000E+00  0.00000000000E+00  0.56504559149E+03  0.56504559149E+03  0.00000000000E+00 0. -1.
         21   -1    0    0  501  502 -0.00000000000E+00 -0.00000000000E+00 -0.91090625049E+02  0.91090625049E+02  0.00000000000E+00 0. -1.
      99926    2    1    2    0    0  0.00000000000E+00  0.00000000000E+00  0.47395496644E+03  0.65613621654E+03  0.45374158333E+03 0.  0.
         25    1    3    3    0    0  0.73101458318E+01  0.30563509141E+02  0.21206896836E+03  0.24821023702E+03  0.12509000000E+03 0.  0.
         25    1    3    3    0    0  0.84336530100E+02 -0.16011465642E+02  0.91901849023E+02  0.17737664811E+03  0.12509000000E+03 0.  0.
         25    1    3    3    0    0 -0.91646675932E+02 -0.14552043499E+02  0.16998414906E+03  0.23054933141E+03  0.12509000000E+03 0.  0.
<mgrwt>
<rscale>  2 0.45374158E+03</rscale>
<asrwt>0</asrwt>
<pdfrwt beam="1">  1       21 0.83094938E-01 0.45374158E+03</pdfrwt>
<pdfrwt beam="2">  1       21 0.13395680E-01 0.45374158E+03</pdfrwt>
<totfact> 0.55902110E+04</totfact>
</mgrwt>
</event>
<event>
 6    0  0.1539652E-007  0.4589643E+03  0.7546771E-02  0.1025082E+00
         21   -1    0    0  502  501  0.00000000000E+00  0.00000000000E+00  0.36414542169E+03  0.36414542169E+03  0.00000000000E+00 0.  1.
         21   -1    0    0  501  502 -0.00000000000E+00 -0.00000000000E+00 -0.14461817663E+03  0.14461817663E+03  0.00000000000E+00 0.  1.
      99926    2    1    2    0    0  0.71054273576E-14  0.00000000000E+00  0.21952724506E+03  0.50876359832E+03  0.45896425531E+03 0.  0.
         25    1    3    3    0    0 -0.16846165219E+01 -0.27082855834E+02  0.12623469463E+03  0.17977492940E+03  0.12509000000E+03 0.  0.
         25    1    3    3    0    0 -0.40777764851E+02  0.66987330877E+02 -0.21870707111E+02  0.14925134684E+03  0.12509000000E+03 0.  0.
         25    1    3    3    0    0  0.42462381373E+02 -0.39904475043E+02  0.11516325754E+03  0.17973732208E+03  0.12509000000E+03 0.  0.
<mgrwt>
<rscale>  2 0.45896426E+03</rscale>
<asrwt>0</asrwt>
<pdfrwt beam="1">  1       21 0.53550797E-01 0.45896426E+03</pdfrwt>
<pdfrwt beam="2">  1       21 0.21267379E-01 0.45896426E+03</pdfrwt>
<totfact> 0.62664251E+04</totfact>
</mgrwt>
</event>
<event>
 6    0  0.1539652E-007  0.4902502E+03  0.7546771E-02  0.1016356E+00
         21   -1    0    0  502  501  0.00000000000E+00  0.00000000000E+00  0.93647765503E+02  0.93647765503E+02  0.00000000000E+00 0. -1.
         21   -1    0    0  501  502 -0.00000000000E+00 -0.00000000000E+00 -0.64162033205E+03  0.64162033205E+03  0.00000000000E+00 0. -1.
      99926    2    1    2    0    0  0.00000000000E+00  0.17763568394E-14 -0.54797256655E+03  0.73526809755E+03  0.49025018265E+03 0.  0.
         25    1    3    3    0    0  0.11832258002E+03 -0.91280969910E+01 -0.29746918705E+03  0.34382987136E+03  0.12509000000E+03 0.  0.
         25    1    3    3    0    0 -0.37760112229E-01 -0.13447744148E+02 -0.12365655978E+03  0.17640662154E+03  0.12509000000E+03 0.  0.
         25    1    3    3    0    0 -0.11828481991E+03  0.22575841139E+02 -0.12684681972E+03  0.21503160465E+03  0.12509000000E+03 0.  0.
<mgrwt>
<rscale>  2 0.49025018E+03</rscale>
<asrwt>0</asrwt>
<pdfrwt beam="1">  1       21 0.13771730E-01 0.49025018E+03</pdfrwt>
<pdfrwt beam="2">  1       21 0.94355931E-01 0.49025018E+03</pdfrwt>
<totfact> 0.39028424E+04</totfact>
</mgrwt>
</event>
<event>
 6    0  0.1539652E-007  0.4643075E+03  0.7546771E-02  0.1023539E+00
         21   -1    0    0  502  501  0.00000000000E+00  0.00000000000E+00  0.20757334774E+03  0.20757334774E+03  0.00000000000E+00 0.  1.
         21   -1    0    0  501  502 -0.00000000000E+00 -0.00000000000E+00 -0.25964490232E+03  0.25964490232E+03  0.00000000000E+00 0.  1.
      99926    2    1    2    0    0  0.00000000000E+00 -0.35527136788E-14 -0.52071554579E+02  0.46721825007E+03  0.46430749122E+03 0.  0.
         25    1    3    3    0    0  0.97869085943E+02 -0.23911921185E+01  0.43444867723E+02  0.16467859732E+03  0.12509000000E+03 0.  0.
         25    1    3    3    0    0 -0.31894633141E+02 -0.35160859198E+02 -0.78773957004E+02  0.15526235231E+03  0.12509000000E+03 0.  0.
         25    1    3    3    0    0 -0.65974452801E+02  0.37552051317E+02 -0.16742465298E+02  0.14727730044E+03  0.12509000000E+03 0.  0.
<mgrwt>
<rscale>  2 0.46430749E+03</rscale>
<asrwt>0</asrwt>
<pdfrwt beam="1">  1       21 0.30525493E-01 0.46430749E+03</pdfrwt>
<pdfrwt beam="2">  1       21 0.38183074E-01 0.46430749E+03</pdfrwt>
<totfact> 0.62860437E+04</totfact>
</mgrwt>
</event>
<event>
 6    0  0.1539652E-007  0.4291901E+03  0.7546771E-02  0.1034116E+00
         21   -1    0    0  502  501  0.00000000000E+00  0.00000000000E+00  0.51979580526E+03  0.51979580526E+03  0.00000000000E+00 0.  1.
         21   -1    0    0  501  502 -0.00000000000E+00 -0.00000000000E+00 -0.88594458192E+02  0.88594458192E+02  0.00000000000E+00 0.  1.
      99926    2    1    2    0    0  0.71054273576E-14  0.00000000000E+00  0.43120134707E+03  0.60839026346E+03  0.42919006390E+03 0.  0.
         25    1    3    3    0    0 -0.67178075223E+02  0.12085965314E+02  0.18620140583E+03  0.23447267641E+03  0.12509000000E+03 0.  0.
         25    1    3    3    0    0  0.17719061289E+02  0.18270092018E+02  0.54628908619E+02  0.13885095301E+03  0.12509000000E+03 0.  0.
         25    1    3    3    0    0  0.49459013934E+02 -0.30356057332E+02  0.19037103262E+03  0.23506663404E+03  0.12509000000E+03 0.  0.
<mgrwt>
<rscale>  2 0.42919006E+03</rscale>
<asrwt>0</asrwt>
<pdfrwt beam="1">  1       21 0.76440558E-01 0.42919006E+03</pdfrwt>
<pdfrwt beam="2">  1       21 0.13028597E-01 0.42919006E+03</pdfrwt>
<totfact> 0.71700890E+04</totfact>
</mgrwt>
</event>
<event>
 6    0  0.1539652E-007  0.4514628E+03  0.7546771E-02  0.1027287E+00
         21   -1    0    0  502  501  0.00000000000E+00  0.00000000000E+00  0.31083149016E+03  0.31083149016E+03  0.00000000000E+00 0. -1.
         21   -1    0    0  501  502 -0.00000000000E+00 -0.00000000000E+00 -0.16393017579E+03  0.16393017579E+03  0.00000000000E+00 0. -1.
      99926    2    1    2    0    0 -0.71054273576E-14  0.71054273576E-14  0.14690131436E+03  0.47476166595E+03  0.45146278174E+03 0.  0.
         25    1    3    3    0    0 -0.26610047310E+01 -0.32016117349E+02 -0.14858895973E+02  0.13000156771E+03  0.12509000000E+03 0.  0.
         25    1    3    3    0    0  0.56842806819E+02  0.69754035120E+02  0.42763528095E+02  0.15991546998E+03  0.12509000000E+03 0.  0.
         25    1    3    3    0    0 -0.54181802088E+02 -0.37737917771E+02  0.11899668224E+03  0.18484462827E+03  0.12509000000E+03 0.  0.
<mgrwt>
<rscale>  2 0.45146278E+03</rscale>
<asrwt>0</asrwt>
<pdfrwt beam="1">  1       21 0.45710513E-01 0.45146278E+03</pdfrwt>
<pdfrwt beam="2">  1       21 0.24107379E-01 0.45146278E+03</pdfrwt>
<totfact> 0.69000231E+04</totfact>
</mgrwt>
</event>
<event>
 6    0  0.1539652E-007  0.4327134E+03  0.7546771E-02  0.1033006E+00
         21   -1    0    0  502  501  0.00000000000E+00  0.00000000000E+00  0.11872726806E+03  0.11872726806E+03  0.00000000000E+00 0.  1.
         21   -1    0    0  501  502 -0.00000000000E+00 -0.00000000000E+00 -0.39426688806E+03  0.39426688806E+03  0.00000000000E+00 0.  1.
      99926    2    1    2    0    0  0.71054273576E-14  0.71054273576E-14 -0.27553962000E+03  0.51299415612E+03  0.43271344100E+03 0.  0.
         25    1    3    3    0    0 -0.15799686471E+02  0.68180253539E+02 -0.66939098810E+02  0.15819775003E+03  0.12509000000E+03 0.  0.
         25    1    3    3    0    0 -0.46303047675E+02 -0.61605992395E+02 -0.11440973515E+03  0.18621591264E+03  0.12509000000E+03 0.  0.
         25    1    3    3    0    0  0.62102734145E+02 -0.65742611443E+01 -0.94190786037E+02  0.16858049345E+03  0.12509000000E+03 0.  0.
<mgrwt>
<rscale>  2 0.43271344E+03</rscale>
<asrwt>0</asrwt>
<pdfrwt beam="1">  1       21 0.17459892E-01 0.43271344E+03</pdfrwt>
<pdfrwt beam="2">  1       21 0.57980424E-01 0.43271344E+03</pdfrwt>
<totfact> 0.77115618E+04</totfact>
</mgrwt>
</event>
<event>
 6    0  0.1539652E-007  0.4482169E+03  0.7546771E-02  0.1028255E+00
         21   -1    0    0  502  501  0.00000000000E+00  0.00000000000E+00  0.14933068789E+04  0.14933068789E+04  0.00000000000E+00 0. -1.
         21   -1    0    0  501  502 -0.00000000000E+00 -0.00000000000E+00 -0.33633133019E+02  0.33633133019E+02  0.00000000000E+00 0. -1.
      99926    2    1    2    0    0 -0.10658141036E-13 -0.35527136788E-14  0.14596737458E+04  0.15269400119E+04  0.44821686222E+03 0.  0.
         25    1    3    3    0    0  0.81004658419E+02 -0.76532442216E+01  0.66184269936E+03  0.67845677359E+03  0.12509000000E+03 0.  0.
         25    1    3    3    0    0 -0.97123670381E+02  0.27482457252E+02  0.42338838116E+03  0.45287252313E+03  0.12509000000E+03 0.  0.
         25    1    3    3    0    0  0.16119011962E+02 -0.19829213031E+02  0.37444266532E+03  0.39561071516E+03  0.12509000000E+03 0.  0.
<mgrwt>
<rscale>  2 0.44821686E+03</rscale>
<asrwt>0</asrwt>
<pdfrwt beam="1">  1       21 0.21960391E+00 0.44821686E+03</pdfrwt>
<pdfrwt beam="2">  1       21 0.49460500E-02 0.44821686E+03</pdfrwt>
<totfact> 0.24386209E+04</totfact>
</mgrwt>
</event>
<event>
 6    0  0.1539652E-007  0.4568224E+03  0.7546771E-02  0.1025707E+00
         21   -1    0    0  502  501  0.00000000000E+00  0.00000000000E+00  0.46270673042E+02  0.46270673042E+02  0.00000000000E+00 0. -1.
         21   -1    0    0  501  502 -0.00000000000E+00 -0.00000000000E+00 -0.11275321387E+04  0.11275321387E+04  0.00000000000E+00 0. -1.
      99926    2    1    2    0    0  0.00000000000E+00  0.12434497876E-13 -0.10812614657E+04  0.11738028118E+04  0.45682237658E+03 0.  0.
         25    1    3    3    0    0  0.34881037175E+02  0.83570042683E+02 -0.26110817811E+03  0.30335726061E+03  0.12509000000E+03 0.  0.
         25    1    3    3    0    0 -0.85376964394E+01  0.15659215811E+02 -0.29493065217E+03  0.32085775819E+03  0.12509000000E+03 0.  0.
         25    1    3    3    0    0 -0.26343340736E+02 -0.99229258494E+02 -0.52522263541E+03  0.54958779298E+03  0.12509000000E+03 0.  0.
<mgrwt>
<rscale>  2 0.45682238E+03</rscale>
<asrwt>0</asrwt>
<pdfrwt beam="1">  1       21 0.68045105E-02 0.45682238E+03</pdfrwt>
<pdfrwt beam="2">  1       21 0.16581355E+00 0.45682238E+03</pdfrwt>
<totfact> 0.32533082E+04</totfact>
</mgrwt>
</event>
<event>
 6    0  0.1539652E-007  0.4657401E+03  0.7546771E-02  0.1023129E+00
         21   -1    0    0  502  501  0.00000000000E+00  0.00000000000E+00  0.13862033674E+03  0.13862033674E+03  0.00000000000E+00 0.  1.
         21   -1    0    0  501  502 -0.00000000000E+00 -0.00000000000E+00 -0.39120130606E+03  0.39120130606E+03  0.00000000000E+00 0.  1.
      99926    2    1    2    0    0 -0.35527136788E-14  0.00000000000E+00 -0.25258096932E+03  0.52982164280E+03  0.46574008537E+03 0.  0.
         25    1    3    3    0    0  0.83820024944E+02  0.40930431029E+02 -0.10552104912E+03  0.18837010557E+03  0.12509000000E+03 0.  0.
         25    1    3    3    0    0 -0.14175004211E+02 -0.91830663183E+02 -0.65918115305E+02  0.16919369808E+03  0.12509000000E+03 0.  0.
         25    1    3    3    0    0 -0.69645020732E+02  0.50900232154E+02 -0.81141804898E+02  0.17225783915E+03  0.12509000000E+03 0.  0.
<mgrwt>
<rscale>  2 0.46574009E+03</rscale>
<asrwt>0</asrwt>
<pdfrwt beam="1">  1       21 0.20385343E-01 0.46574009E+03</pdfrwt>
<pdfrwt beam="2">  1       21 0.57529604E-01 0.46574009E+03</pdfrwt>
<totfact> 0.58110979E+04</totfact>
</mgrwt>
</event>
<event>
 6    0  0.1539652E-007  0.4594624E+03  0.7546771E-02  0.1024937E+00
         21   -1    0    0  502  501  0.00000000000E+00  0.00000000000E+00  0.43910688596E+03  0.43910688596E+03  0.00000000000E+00 0. -1.
         21   -1    0    0  501  502 -0.00000000000E+00 -0.00000000000E+00 -0.12019039651E+03  0.12019039651E+03  0.00000000000E+00 0. -1.
      99926    2    1    2    0    0  0.00000000000E+00  0.71054273576E-14  0.31891648945E+03  0.55929728247E+03  0.45946242822E+03 0.  0.
         25    1    3    3    0    0  0.34633910619E+02  0.22611771951E+02  0.18408891858E+03  0.22637808649E+03  0.12509000000E+03 0.  0.
         25    1    3    3    0    0 -0.64452545922E+02  0.48612714481E+02  0.10691372635E+03  0.18329042438E+03  0.12509000000E+03 0.  0.
         25    1    3    3    0    0  0.29818635303E+02 -0.71224486432E+02  0.27913844508E+02  0.14962877161E+03  0.12509000000E+03 0.  0.
<mgrwt>
<rscale>  2 0.45946243E+03</rscale>
<asrwt>0</asrwt>
<pdfrwt beam="1">  1       21 0.64574542E-01 0.45946243E+03</pdfrwt>
<pdfrwt beam="2">  1       21 0.17675058E-01 0.45946243E+03</pdfrwt>
<totfact> 0.59140905E+04</totfact>
</mgrwt>
</event>
<event>
 6    0  0.1539652E-007  0.4357769E+03  0.7546771E-02  0.1032050E+00
         21   -1    0    0  502  501  0.00000000000E+00  0.00000000000E+00  0.12211690122E+03  0.12211690122E+03  0.00000000000E+00 0.  1.
         21   -1    0    0  501  502 -0.00000000000E+00 -0.00000000000E+00 -0.38876990226E+03  0.38876990226E+03  0.00000000000E+00 0.  1.
      99926    2    1    2    0    0  0.00000000000E+00 -0.71054273576E-14 -0.26665300104E+03  0.51088680347E+03  0.43577689590E+03 0.  0.
         25    1    3    3    0    0  0.83517550855E+02 -0.15425733779E+02 -0.77620453397E+02  0.16995757544E+03  0.12509000000E+03 0.  0.
         25    1    3    3    0    0 -0.41999871480E+02 -0.28315563198E+02 -0.48627896944E+02  0.14345013344E+03  0.12509000000E+03 0.  0.
         25    1    3    3    0    0 -0.41517679375E+02  0.43741296978E+02 -0.14040465070E+03  0.19747909459E+03  0.12509000000E+03 0.  0.
<mgrwt>
<rscale>  2 0.43577690E+03</rscale>
<asrwt>0</asrwt>
<pdfrwt beam="1">  1       21 0.17958368E-01 0.43577690E+03</pdfrwt>
<pdfrwt beam="2">  1       21 0.57172045E-01 0.43577690E+03</pdfrwt>
<totfact> 0.75361716E+04</totfact>
</mgrwt>
</event>
<event>
 6    0  0.1539652E-007  0.4558831E+03  0.7546771E-02  0.1025982E+00
         21   -1    0    0  502  501  0.00000000000E+00  0.00000000000E+00  0.98016611174E+02  0.98016611174E+02  0.00000000000E+00 0.  1.
         21   -1    0    0  501  502 -0.00000000000E+00 -0.00000000000E+00 -0.53008724771E+03  0.53008724771E+03  0.00000000000E+00 0.  1.
      99926    2    1    2    0    0  0.71054273576E-14  0.35527136788E-14 -0.43207063653E+03  0.62810385888E+03  0.45588312382E+03 0.  0.
         25    1    3    3    0    0  0.61681460394E+02  0.15107557473E+02 -0.20090319887E+03  0.24503559796E+03  0.12509000000E+03 0.  0.
         25    1    3    3    0    0 -0.90734225256E+01 -0.59699915297E+02 -0.18819261105E+03  0.23390248788E+03  0.12509000000E+03 0.  0.
         25    1    3    3    0    0 -0.52608037868E+02  0.44592357824E+02 -0.42974826605E+02  0.14916577304E+03  0.12509000000E+03 0.  0.
<mgrwt>
<rscale>  2 0.45588312E+03</rscale>
<asrwt>0</asrwt>
<pdfrwt beam="1">  1       21 0.14414207E-01 0.45588312E+03</pdfrwt>
<pdfrwt beam="2">  1       21 0.77954009E-01 0.45588312E+03</pdfrwt>
<totfact> 0.56585364E+04</totfact>
</mgrwt>
</event>
<event>
 6    0  0.1539652E-007  0.4571556E+03  0.7546771E-02  0.1025609E+00
         21   -1    0    0  502  501  0.00000000000E+00  0.00000000000E+00  0.15457100047E+03  0.15457100047E+03  0.00000000000E+00 0.  1.
         21   -1    0    0  501  502 -0.00000000000E+00 -0.00000000000E+00 -0.33801824985E+03  0.33801824985E+03  0.00000000000E+00 0.  1.
      99926    2    1    2    0    0  0.71054273576E-14  0.00000000000E+00 -0.18344724938E+03  0.49258925031E+03  0.45715563676E+03 0.  0.
         25    1    3    3    0    0  0.38333663714E+02 -0.33640213206E+02 -0.24229907278E+02  0.13724332488E+03  0.12509000000E+03 0.  0.
         25    1    3    3    0    0 -0.84214095254E+02  0.57413365542E+01 -0.69000569475E+01  0.15106321746E+03  0.12509000000E+03 0.  0.
         25    1    3    3    0    0  0.45880431540E+02  0.27898876652E+02 -0.15231728516E+03  0.20428270797E+03  0.12509000000E+03 0.  0.
<mgrwt>
<rscale>  2 0.45715564E+03</rscale>
<asrwt>0</asrwt>
<pdfrwt beam="1">  1       21 0.22731030E-01 0.45715564E+03</pdfrwt>
<pdfrwt beam="2">  1       21 0.49708565E-01 0.45715564E+03</pdfrwt>
<totfact> 0.64680507E+04</totfact>
</mgrwt>
</event>
<event>
 6    0  0.1539652E-007  0.4590455E+03  0.7546771E-02  0.1025058E+00
         21   -1    0    0  502  501  0.00000000000E+00  0.00000000000E+00  0.25345919206E+03  0.25345919206E+03  0.00000000000E+00 0. -1.
         21   -1    0    0  501  502 -0.00000000000E+00 -0.00000000000E+00 -0.20784680047E+03  0.20784680047E+03  0.00000000000E+00 0. -1.
      99926    2    1    2    0    0 -0.71054273576E-14  0.00000000000E+00  0.45612391586E+02  0.46130599253E+03  0.45904545361E+03 0.  0.
         25    1    3    3    0    0 -0.76439236080E+02  0.80989550136E+02  0.76828433132E+02  0.18426171681E+03  0.12509000000E+03 0.  0.
         25    1    3    3    0    0  0.35006924850E+02 -0.54524868938E+02 -0.15920930927E+02  0.14177245946E+03  0.12509000000E+03 0.  0.
         25    1    3    3    0    0  0.41432311230E+02 -0.26464681199E+02 -0.15295110619E+02  0.13527181626E+03  0.12509000000E+03 0.  0.
<mgrwt>
<rscale>  2 0.45904545E+03</rscale>
<asrwt>0</asrwt>
<pdfrwt beam="1">  1       21 0.37273411E-01 0.45904545E+03</pdfrwt>
<pdfrwt beam="2">  1       21 0.30565706E-01 0.45904545E+03</pdfrwt>
<totfact> 0.65932329E+04</totfact>
</mgrwt>
</event>
<event>
 6    0  0.1539652E-007  0.4543267E+03  0.7546771E-02  0.1026440E+00
         21   -1    0    0  502  501  0.00000000000E+00  0.00000000000E+00  0.14158986630E+03  0.14158986630E+03  0.00000000000E+00 0. -1.
         21   -1    0    0  501  502 -0.00000000000E+00 -0.00000000000E+00 -0.36445531599E+03  0.36445531599E+03  0.00000000000E+00 0. -1.
      99926    2    1    2    0    0  0.00000000000E+00  0.00000000000E+00 -0.22286544969E+03  0.50604518228E+03  0.45432666425E+03 0.  0.
         25    1    3    3    0    0  0.25551552334E+02  0.32427816414E+02 -0.17604071046E+03  0.21986879029E+03  0.12509000000E+03 0.  0.
         25    1    3    3    0    0 -0.61019454853E+02 -0.48330862365E+02 -0.48701943812E+02  0.15517291503E+03  0.12509000000E+03 0.  0.
         25    1    3    3    0    0  0.35467902519E+02  0.15903045951E+02  0.18772045816E+01  0.13100347696E+03  0.12509000000E+03 0.  0.
<mgrwt>
<rscale>  2 0.45432666E+03</rscale>
<asrwt>0</asrwt>
<pdfrwt beam="1">  1       21 0.20822039E-01 0.45432666E+03</pdfrwt>
<pdfrwt beam="2">  1       21 0.53596369E-01 0.45432666E+03</pdfrwt>
<totfact> 0.65195751E+04</totfact>
</mgrwt>
</event>
<event>
 6    0  0.1539652E-007  0.4529881E+03  0.7546771E-02  0.1026835E+00
         21   -1    0    0  502  501  0.00000000000E+00  0.00000000000E+00  0.21464513724E+03  0.21464513724E+03  0.00000000000E+00 0. -1.
         21   -1    0    0  501  502 -0.00000000000E+00 -0.00000000000E+00 -0.23899706841E+03  0.23899706841E+03  0.00000000000E+00 0. -1.
      99926    2    1    2    0    0 -0.53290705182E-14  0.00000000000E+00 -0.24351931170E+02  0.45364220566E+03  0.45298811707E+03 0.  0.
         25    1    3    3    0    0 -0.83853868203E+02  0.21509093028E+02 -0.44914591440E+02  0.15861570200E+03  0.12509000000E+03 0.  0.
         25    1    3    3    0    0  0.10064702518E+02  0.43677464635E+01  0.64413653368E+02  0.14112760994E+03  0.12509000000E+03 0.  0.
         25    1    3    3    0    0  0.73789165684E+02 -0.25876839492E+02 -0.43850993098E+02  0.15389889373E+03  0.12509000000E+03 0.  0.
<mgrwt>
<rscale>  2 0.45298812E+03</rscale>
<asrwt>0</asrwt>
<pdfrwt beam="1">  1       21 0.31565461E-01 0.45298812E+03</pdfrwt>
<pdfrwt beam="2">  1       21 0.35146628E-01 0.45298812E+03</pdfrwt>
<totfact> 0.69758499E+04</totfact>
</mgrwt>
</event>
<event>
 6    0  0.1539652E-007  0.4526987E+03  0.7546771E-02  0.1026920E+00
         21   -1    0    0  502  501  0.00000000000E+00  0.00000000000E+00  0.10976990186E+03  0.10976990186E+03  0.00000000000E+00 0.  1.
         21   -1    0    0  501  502 -0.00000000000E+00 -0.00000000000E+00 -0.46674017651E+03  0.46674017651E+03  0.00000000000E+00 0.  1.
      99926    2    1    2    0    0  0.14210854715E-13  0.71054273576E-14 -0.35697027465E+03  0.57651007836E+03  0.45269867845E+03 0.  0.
         25    1    3    3    0    0 -0.42105182306E+02  0.28208164466E+02 -0.14239749666E+03  0.19619659038E+03  0.12509000000E+03 0.  0.
         25    1    3    3    0    0 -0.27812066362E+02 -0.85697089720E+02 -0.71969496579E+02  0.17013118103E+03  0.12509000000E+03 0.  0.
         25    1    3    3    0    0  0.69917248668E+02  0.57488925253E+02 -0.14260328141E+03  0.21018230695E+03  0.12509000000E+03 0.  0.
<mgrwt>
<rscale>  2 0.45269868E+03</rscale>
<asrwt>0</asrwt>
<pdfrwt beam="1">  1       21 0.16142633E-01 0.45269868E+03</pdfrwt>
<pdfrwt beam="2">  1       21 0.68638262E-01 0.45269868E+03</pdfrwt>
<totfact> 0.61254899E+04</totfact>
</mgrwt>
</event>
<event>
 6    0  0.1539652E-007  0.4521092E+03  0.7546771E-02  0.1027095E+00
         21   -1    0    0  502  501  0.00000000000E+00  0.00000000000E+00  0.50757834087E+02  0.50757834087E+02  0.00000000000E+00 0. -1.
         21   -1    0    0  501  502 -0.00000000000E+00 -0.00000000000E+00 -0.10067547330E+04  0.10067547330E+04  0.00000000000E+00 0. -1.
      99926    2    1    2    0    0  0.00000000000E+00  0.00000000000E+00 -0.95599689893E+03  0.10575125671E+04  0.45210923328E+03 0.  0.
         25    1    3    3    0    0 -0.71606151710E+02 -0.18169494649E+02 -0.55168720873E+03  0.57049439601E+03  0.12509000000E+03 0.  0.
         25    1    3    3    0    0  0.46204439710E+02  0.39549799013E+02 -0.17318887356E+03  0.22212818568E+03  0.12509000000E+03 0.  0.
         25    1    3    3    0    0  0.25401712000E+02 -0.21380304364E+02 -0.23112081664E+03  0.26488998541E+03  0.12509000000E+03 0.  0.
<mgrwt>
<rscale>  2 0.45210923E+03</rscale>
<asrwt>0</asrwt>
<pdfrwt beam="1">  1       21 0.74643875E-02 0.45210923E+03</pdfrwt>
<pdfrwt beam="2">  1       21 0.14805216E+00 0.45210923E+03</pdfrwt>
<totfact> 0.37849684E+04</totfact>
</mgrwt>
</event>
<event>
 6    0  0.1539652E-007  0.4523924E+03  0.7546771E-02  0.1027011E+00
         21   -1    0    0  502  501  0.00000000000E+00  0.00000000000E+00  0.17549334910E+03  0.17549334910E+03  0.00000000000E+00 0.  1.
         21   -1    0    0  501  502 -0.00000000000E+00 -0.00000000000E+00 -0.29154797047E+03  0.29154797047E+03  0.00000000000E+00 0.  1.
      99926    2    1    2    0    0 -0.71054273576E-14  0.71054273576E-14 -0.11605462137E+03  0.46704131957E+03  0.45239243920E+03 0.  0.
         25    1    3    3    0    0  0.28938426550E+02  0.23345498611E+02 -0.14487248079E+02  0.13130054567E+03  0.12509000000E+03 0.  0.
         25    1    3    3    0    0  0.61273748721E+02  0.29662875604E+02  0.22243954305E+01  0.14243178896E+03  0.12509000000E+03 0.  0.
         25    1    3    3    0    0 -0.90212175271E+02 -0.53008374215E+02 -0.10379176872E+03  0.19330898494E+03  0.12509000000E+03 0.  0.
<mgrwt>
<rscale>  2 0.45239244E+03</rscale>
<asrwt>0</asrwt>
<pdfrwt beam="1">  1       21 0.25807846E-01 0.45239244E+03</pdfrwt>
<pdfrwt beam="2">  1       21 0.42874701E-01 0.45239244E+03</pdfrwt>
<totfact> 0.69074213E+04</totfact>
</mgrwt>
</event>
<event>
 6    0  0.1539652E-007  0.4565887E+03  0.7546771E-02  0.1025775E+00
         21   -1    0    0  502  501  0.00000000000E+00  0.00000000000E+00  0.19070979848E+03  0.19070979848E+03  0.00000000000E+00 0.  1.
         21   -1    0    0  501  502 -0.00000000000E+00 -0.00000000000E+00 -0.27328596747E+03  0.27328596747E+03  0.00000000000E+00 0.  1.
      99926    2    1    2    0    0  0.79936057773E-14  0.00000000000E+00 -0.82576168998E+02  0.46399576595E+03  0.45658870675E+03 0.  0.
         25    1    3    3    0    0  0.66785633131E+01 -0.65429366017E+02 -0.74488684537E+02  0.15975505428E+03  0.12509000000E+03 0.  0.
         25    1    3    3    0    0  0.70690061509E+02  0.63142718207E+02 -0.78287457883E+01  0.15713969906E+03  0.12509000000E+03 0.  0.
         25    1    3    3    0    0 -0.77368624822E+02  0.22866478108E+01 -0.25873867278E+00  0.14710101261E+03  0.12509000000E+03 0.  0.
<mgrwt>
<rscale>  2 0.45658871E+03</rscale>
<asrwt>0</asrwt>
<pdfrwt beam="1">  1       21 0.28045559E-01 0.45658871E+03</pdfrwt>
<pdfrwt beam="2">  1       21 0.40189113E-01 0.45658871E+03</pdfrwt>
<totfact> 0.67034148E+04</totfact>
</mgrwt>
</event>
<event>
 6    0  0.1539652E-007  0.4537620E+03  0.7546771E-02  0.1026606E+00
         21   -1    0    0  502  501  0.00000000000E+00  0.00000000000E+00  0.11348979734E+03  0.11348979734E+03  0.00000000000E+00 0.  1.
         21   -1    0    0  501  502 -0.00000000000E+00 -0.00000000000E+00 -0.45356483483E+03  0.45356483483E+03  0.00000000000E+00 0.  1.
      99926    2    1    2    0    0  0.00000000000E+00  0.53290705182E-14 -0.34007503749E+03  0.56705463218E+03  0.45376196926E+03 0.  0.
         25    1    3    3    0    0  0.49025526660E+02 -0.59992889313E+02 -0.17189345482E+03  0.22626868308E+03  0.12509000000E+03 0.  0.
         25    1    3    3    0    0 -0.92806851634E+01 -0.15639451099E+02 -0.13647255452E+03  0.18601878880E+03  0.12509000000E+03 0.  0.
         25    1    3    3    0    0 -0.39744841497E+02  0.75632340412E+02 -0.31709028148E+02  0.15476716030E+03  0.12509000000E+03 0.  0.
<mgrwt>
<rscale>  2 0.45376197E+03</rscale>
<asrwt>0</asrwt>
<pdfrwt beam="1">  1       21 0.16689676E-01 0.45376197E+03</pdfrwt>
<pdfrwt beam="2">  1       21 0.66700712E-01 0.45376197E+03</pdfrwt>
<totfact> 0.61351882E+04</totfact>
</mgrwt>
</event>
<event>
 6    0  0.1539652E-007  0.4874668E+03  0.7546771E-02  0.1017103E+00
         21   -1    0    0  502  501  0.00000000000E+00  0.00000000000E+00  0.94954409746E+02  0.94954409746E+02  0.00000000000E+00 0.  1.
         21   -1    0    0  501  502 -0.00000000000E+00 -0.00000000000E+00 -0.62562632341E+03  0.62562632341E+03  0.00000000000E+00 0.  1.
      99926    2    1    2    0    0  0.55511151231E-14  0.00000000000E+00 -0.53067191367E+03  0.72058073316E+03  0.48746683276E+03 0.  0.
         25    1    3    3    0    0 -0.13705085545E+01 -0.21073498500E+02 -0.13226600007E+03  0.18326967427E+03  0.12509000000E+03 0.  0.
         25    1    3    3    0    0  0.78740373057E+02 -0.37186753738E+02 -0.33280735755E+03  0.36604801098E+03  0.12509000000E+03 0.  0.
         25    1    3    3    0    0 -0.77369864502E+02  0.58260252238E+02 -0.65598556052E+02  0.17126304791E+03  0.12509000000E+03 0.  0.
<mgrwt>
<rscale>  2 0.48746683E+03</rscale>
<asrwt>0</asrwt>
<pdfrwt beam="1">  1       21 0.13963883E-01 0.48746683E+03</pdfrwt>
<pdfrwt beam="2">  1       21 0.92003875E-01 0.48746683E+03</pdfrwt>
<totfact> 0.40434538E+04</totfact>
</mgrwt>
</event>
<event>
 6    0  0.1539652E-007  0.4519826E+03  0.7546771E-02  0.1027132E+00
         21   -1    0    0  502  501  0.00000000000E+00  0.00000000000E+00  0.14171807120E+04  0.14171807120E+04  0.00000000000E+00 0. -1.
         21   -1    0    0  501  502 -0.00000000000E+00 -0.00000000000E+00 -0.36037796208E+02  0.36037796208E+02  0.00000000000E+00 0. -1.
      99926    2    1    2    0    0  0.71054273576E-14  0.71054273576E-14  0.13811429158E+04  0.14532185082E+04  0.45198260890E+03 0.  0.
         25    1    3    3    0    0  0.58243949196E+02 -0.65004210237E+01  0.49555936697E+03  0.51445233733E+03  0.12509000000E+03 0.  0.
         25    1    3    3    0    0 -0.22582158307E+02 -0.54404481604E+02  0.23623372162E+03  0.27372190417E+03  0.12509000000E+03 0.  0.
         25    1    3    3    0    0 -0.35661790889E+02  0.60904902628E+02  0.64934982716E+03  0.66504426667E+03  0.12509000000E+03 0.  0.
<mgrwt>
<rscale>  2 0.45198261E+03</rscale>
<asrwt>0</asrwt>
<pdfrwt beam="1">  1       21 0.20840889E+00 0.45198261E+03</pdfrwt>
<pdfrwt beam="2">  1       21 0.52996769E-02 0.45198261E+03</pdfrwt>
<totfact> 0.25541200E+04</totfact>
</mgrwt>
</event>
<event>
 6    0  0.1539652E-007  0.4462445E+03  0.7546771E-02  0.1028848E+00
         21   -1    0    0  502  501  0.00000000000E+00  0.00000000000E+00  0.26862109949E+03  0.26862109949E+03  0.00000000000E+00 0. -1.
         21   -1    0    0  501  502 -0.00000000000E+00 -0.00000000000E+00 -0.18532992466E+03  0.18532992466E+03  0.00000000000E+00 0. -1.
      99926    2    1    2    0    0  0.00000000000E+00 -0.14210854715E-13  0.83291174836E+02  0.45395102415E+03  0.44624445377E+03 0.  0.
         25    1    3    3    0    0  0.20883511968E+02 -0.94340534604E+02  0.22717672153E+02  0.15968675045E+03  0.12509000000E+03 0.  0.
         25    1    3    3    0    0 -0.55173224045E+02  0.20897123418E+02  0.19649508010E+02  0.13969389995E+03  0.12509000000E+03 0.  0.
         25    1    3    3    0    0  0.34289712077E+02  0.73443411186E+02  0.40923994673E+02  0.15457037375E+03  0.12509000000E+03 0.  0.
<mgrwt>
<rscale>  2 0.44624445E+03</rscale>
<asrwt>0</asrwt>
<pdfrwt beam="1">  1       21 0.39503103E-01 0.44624445E+03</pdfrwt>
<pdfrwt beam="2">  1       21 0.27254401E-01 0.44624445E+03</pdfrwt>
<totfact> 0.73631199E+04</totfact>
</mgrwt>
</event>
<event>
 6    0  0.1539652E-007  0.4522311E+03  0.7546771E-02  0.1027059E+00
         21   -1    0    0  502  501  0.00000000000E+00  0.00000000000E+00  0.11659710695E+03  0.11659710695E+03  0.00000000000E+00 0. -1.
         21   -1    0    0  501  502 -0.00000000000E+00 -0.00000000000E+00 -0.43850350400E+03  0.43850350400E+03  0.00000000000E+00 0. -1.
      99926    2    1    2    0    0  0.00000000000E+00  0.00000000000E+00 -0.32190639705E+03  0.55510061095E+03  0.45223109117E+03 0.  0.
         25    1    3    3    0    0 -0.37518356664E+02 -0.54654768221E+02 -0.11770282022E+03  0.18410929570E+03  0.12509000000E+03 0.  0.
         25    1    3    3    0    0  0.77618734356E+02  0.42066232663E+01 -0.35850582034E+02  0.15157551232E+03  0.12509000000E+03 0.  0.
         25    1    3    3    0    0 -0.40100377692E+02  0.50448144955E+02 -0.16835299479E+03  0.21941580293E+03  0.12509000000E+03 0.  0.
<mgrwt>
<rscale>  2 0.45223109E+03</rscale>
<asrwt>0</asrwt>
<pdfrwt beam="1">  1       21 0.17146633E-01 0.45223109E+03</pdfrwt>
<pdfrwt beam="2">  1       21 0.64485810E-01 0.45223109E+03</pdfrwt>
<totfact> 0.62897155E+04</totfact>
</mgrwt>
</event>
<event>
 6    0  0.1539652E-007  0.4596777E+03  0.7546771E-02  0.1024875E+00
         21   -1    0    0  502  501  0.00000000000E+00  0.00000000000E+00  0.25865963664E+03  0.25865963664E+03  0.00000000000E+00 0.  1.
         21   -1    0    0  501  502 -0.00000000000E+00 -0.00000000000E+00 -0.20422936046E+03  0.20422936046E+03  0.00000000000E+00 0.  1.
      99926    2    1    2    0    0  0.71054273576E-14  0.00000000000E+00  0.54430276183E+02  0.46288899710E+03  0.45967767911E+03 0.  0.
         25    1    3    3    0    0 -0.64056759763E+02  0.10566407521E+02 -0.85992226456E+02  0.16509720940E+03  0.12509000000E+03 0.  0.
         25    1    3    3    0    0  0.21996886077E+02  0.15855952309E+02  0.66651782630E+02  0.14430953693E+03  0.12509000000E+03 0.  0.
         25    1    3    3    0    0  0.42059873686E+02 -0.26422359830E+02  0.73770720009E+02  0.15348225078E+03  0.12509000000E+03 0.  0.
<mgrwt>
<rscale>  2 0.45967768E+03</rscale>
<asrwt>0</asrwt>
<pdfrwt beam="1">  1       21 0.38038182E-01 0.45967768E+03</pdfrwt>
<pdfrwt beam="2">  1       21 0.30033729E-01 0.45967768E+03</pdfrwt>
<totfact> 0.65492993E+04</totfact>
</mgrwt>
</event>
<event>
 6    0  0.1539652E-007  0.4614538E+03  0.7546771E-02  0.1024360E+00
         21   -1    0    0  502  501  0.00000000000E+00  0.00000000000E+00  0.46329192655E+02  0.46329192655E+02  0.00000000000E+00 0.  1.
         21   -1    0    0  501  502 -0.00000000000E+00 -0.00000000000E+00 -0.11490575310E+04  0.11490575310E+04  0.00000000000E+00 0.  1.
      99926    2    1    2    0    0  0.00000000000E+00 -0.71054273576E-14 -0.11027283384E+04  0.11953867237E+04  0.46145382316E+03 0.  0.
         25    1    3    3    0    0  0.20621520852E+02  0.83895480864E+02 -0.21890889150E+03  0.26651887308E+03  0.12509000000E+03 0.  0.
         25    1    3    3    0    0  0.11982169967E+02 -0.90945847554E+02 -0.43945961203E+03  0.46603323732E+03  0.12509000000E+03 0.  0.
         25    1    3    3    0    0 -0.32603690819E+02  0.70503666900E+01 -0.44435983485E+03  0.46283461328E+03  0.12509000000E+03 0.  0.
<mgrwt>
<rscale>  2 0.46145382E+03</rscale>
<asrwt>0</asrwt>
<pdfrwt beam="1">  1       21 0.68131162E-02 0.46145382E+03</pdfrwt>
<pdfrwt beam="2">  1       21 0.16897906E+00 0.46145382E+03</pdfrwt>
<totfact> 0.30728246E+04</totfact>
</mgrwt>
</event>
<event>
 6    0  0.1539652E-007  0.4455502E+03  0.7546771E-02  0.1029057E+00
         21   -1    0    0  502  501  0.00000000000E+00  0.00000000000E+00  0.11426223846E+03  0.11426223846E+03  0.00000000000E+00 0. -1.
         21   -1    0    0  501  502 -0.00000000000E+00 -0.00000000000E+00 -0.43434075059E+03  0.43434075059E+03  0.00000000000E+00 0. -1.
      99926    2    1    2    0    0  0.35527136788E-14  0.00000000000E+00 -0.32007851212E+03  0.54860298905E+03  0.44555020556E+03 0.  0.
         25    1    3    3    0    0 -0.26931979478E+02 -0.52929283531E+02 -0.64186311833E+02  0.15262447805E+03  0.12509000000E+03 0.  0.
         25    1    3    3    0    0 -0.40841375626E+02 -0.10908894852E+02 -0.17812225904E+03  0.22172521105E+03  0.12509000000E+03 0.  0.
         25    1    3    3    0    0  0.67773355104E+02  0.63838178383E+02 -0.77769941249E+02  0.17425329995E+03  0.12509000000E+03 0.  0.
<mgrwt>
<rscale>  2 0.44555021E+03</rscale>
<asrwt>0</asrwt>
<pdfrwt beam="1">  1       21 0.16803271E-01 0.44555021E+03</pdfrwt>
<pdfrwt beam="2">  1       21 0.63873639E-01 0.44555021E+03</pdfrwt>
<totfact> 0.66816216E+04</totfact>
</mgrwt>
</event>
<event>
 6    0  0.1539652E-007  0.4484151E+03  0.7546771E-02  0.1028196E+00
         21   -1    0    0  502  501  0.00000000000E+00  0.00000000000E+00  0.78487408515E+02  0.78487408515E+02  0.00000000000E+00 0.  1.
         21   -1    0    0  501  502 -0.00000000000E+00 -0.00000000000E+00 -0.64047249184E+03  0.64047249184E+03  0.00000000000E+00 0.  1.
      99926    2    1    2    0    0  0.00000000000E+00  0.00000000000E+00 -0.56198508332E+03  0.71895990035E+03  0.44841510282E+03 0.  0.
         25    1    3    3    0    0 -0.85605065751E+02 -0.16468167331E+01 -0.13760946434E+03  0.20473107254E+03  0.12509000000E+03 0.  0.
         25    1    3    3    0    0  0.21665981916E+02 -0.54094870222E+02 -0.22664309368E+03  0.26534933535E+03  0.12509000000E+03 0.  0.
         25    1    3    3    0    0  0.63939083835E+02  0.55741686955E+02 -0.19773252529E+03  0.24887949245E+03  0.12509000000E+03 0.  0.
<mgrwt>
<rscale>  2 0.44841510E+03</rscale>
<asrwt>0</asrwt>
<pdfrwt beam="1">  1       21 0.11542265E-01 0.44841510E+03</pdfrwt>
<pdfrwt beam="2">  1       21 0.94187136E-01 0.44841510E+03</pdfrwt>
<totfact> 0.54662342E+04</totfact>
</mgrwt>
</event>
<event>
 6    0  0.1539652E-007  0.4567303E+03  0.7546771E-02  0.1025734E+00
         21   -1    0    0  502  501  0.00000000000E+00  0.00000000000E+00  0.39658627545E+02  0.39658627545E+02  0.00000000000E+00 0. -1.
         21   -1    0    0  501  502 -0.00000000000E+00 -0.00000000000E+00 -0.13149888289E+04  0.13149888289E+04  0.00000000000E+00 0. -1.
      99926    2    1    2    0    0  0.00000000000E+00 -0.71054273576E-14 -0.12753302014E+04  0.13546474565E+04  0.45673034579E+03 0.  0.
         25    1    3    3    0    0 -0.27764640593E+02 -0.15252173164E+01 -0.75580028721E+03  0.76658644900E+03  0.12509000000E+03 0.  0.
         25    1    3    3    0    0  0.40682491296E+02  0.37222031847E+02 -0.33590778254E+03  0.36265974580E+03  0.12509000000E+03 0.  0.
         25    1    3    3    0    0 -0.12917850702E+02 -0.35696814531E+02 -0.18362213162E+03  0.22540126166E+03  0.12509000000E+03 0.  0.
<mgrwt>
<rscale>  2 0.45673035E+03</rscale>
<asrwt>0</asrwt>
<pdfrwt beam="1">  1       21 0.58321520E-02 0.45673035E+03</pdfrwt>
<pdfrwt beam="2">  1       21 0.19338068E+00 0.45673035E+03</pdfrwt>
<totfact> 0.27198368E+04</totfact>
</mgrwt>
</event>
<event>
 6    0  0.1539652E-007  0.4440761E+03  0.7546771E-02  0.1029503E+00
         21   -1    0    0  502  501  0.00000000000E+00  0.00000000000E+00  0.58383452210E+02  0.58383452210E+02  0.00000000000E+00 0. -1.
         21   -1    0    0  501  502 -0.00000000000E+00 -0.00000000000E+00 -0.84443255006E+03  0.84443255006E+03  0.00000000000E+00 0. -1.
      99926    2    1    2    0    0  0.00000000000E+00  0.00000000000E+00 -0.78604909785E+03  0.90281600227E+03  0.44407606299E+03 0.  0.
         25    1    3    3    0    0  0.20241918869E+02 -0.69185773746E+01 -0.30090682158E+03  0.32657315470E+03  0.12509000000E+03 0.  0.
         25    1    3    3    0    0  0.19162868593E-01 -0.65559052543E+02 -0.12873562110E+03  0.19109777073E+03  0.12509000000E+03 0.  0.
         25    1    3    3    0    0 -0.20261081737E+02  0.72477629917E+02 -0.35640665516E+03  0.38514507684E+03  0.12509000000E+03 0.  0.
<mgrwt>
<rscale>  2 0.44407606E+03</rscale>
<asrwt>0</asrwt>
<pdfrwt beam="1">  1       21 0.85858023E-02 0.44407606E+03</pdfrwt>
<pdfrwt beam="2">  1       21 0.12418125E+00 0.44407606E+03</pdfrwt>
<totfact> 0.47003404E+04</totfact>
</mgrwt>
</event>
<event>
 6    0  0.1539652E-007  0.4540968E+03  0.7546771E-02  0.1026507E+00
         21   -1    0    0  502  501  0.00000000000E+00  0.00000000000E+00  0.49260595356E+02  0.49260595356E+02  0.00000000000E+00 0. -1.
         21   -1    0    0  501  502 -0.00000000000E+00 -0.00000000000E+00 -0.10464953375E+04  0.10464953375E+04  0.00000000000E+00 0. -1.
      99926    2    1    2    0    0  0.00000000000E+00 -0.10658141036E-13 -0.99723474215E+03  0.10957559329E+04  0.45409683268E+03 0.  0.
         25    1    3    3    0    0 -0.43356105890E+02 -0.25599564205E+02 -0.48628372477E+03  0.50463299405E+03  0.12509000000E+03 0.  0.
         25    1    3    3    0    0 -0.19631521077E+02 -0.50662660183E+02 -0.26424129435E+03  0.29736017133E+03  0.12509000000E+03 0.  0.
         25    1    3    3    0    0  0.62987626967E+02  0.76262224388E+02 -0.24670972303E+03  0.29376276748E+03  0.12509000000E+03 0.  0.
<mgrwt>
<rscale>  2 0.45409683E+03</rscale>
<asrwt>0</asrwt>
<pdfrwt beam="1">  1       21 0.72442050E-02 0.45409683E+03</pdfrwt>
<pdfrwt beam="2">  1       21 0.15389638E+00 0.45409683E+03</pdfrwt>
<totfact> 0.35894012E+04</totfact>
</mgrwt>
</event>
<event>
 6    0  0.1539652E-007  0.4525956E+03  0.7546771E-02  0.1026951E+00
         21   -1    0    0  502  501  0.00000000000E+00  0.00000000000E+00  0.59107821611E+03  0.59107821611E+03  0.00000000000E+00 0.  1.
         21   -1    0    0  501  502 -0.00000000000E+00 -0.00000000000E+00 -0.86639464539E+02  0.86639464539E+02  0.00000000000E+00 0.  1.
      99926    2    1    2    0    0  0.00000000000E+00  0.00000000000E+00  0.50443875157E+03  0.67771768065E+03  0.45259562589E+03 0.  0.
         25    1    3    3    0    0  0.58677671240E+02 -0.15021458416E+02  0.20661178506E+03  0.24900733150E+03  0.12509000000E+03 0.  0.
         25    1    3    3    0    0 -0.34785027519E+02 -0.48422559786E+02  0.58776421648E+02  0.15052215212E+03  0.12509000000E+03 0.  0.
         25    1    3    3    0    0 -0.23892643720E+02  0.63444018202E+02  0.23905054486E+03  0.27818819704E+03  0.12509000000E+03 0.  0.
<mgrwt>
<rscale>  2 0.45259563E+03</rscale>
<asrwt>0</asrwt>
<pdfrwt beam="1">  1       21 0.86923266E-01 0.45259563E+03</pdfrwt>
<pdfrwt beam="2">  1       21 0.12741098E-01 0.45259563E+03</pdfrwt>
<totfact> 0.55167170E+04</totfact>
</mgrwt>
</event>
<event>
 6    0  0.1539652E-007  0.4564515E+03  0.7546771E-02  0.1025815E+00
         21   -1    0    0  502  501  0.00000000000E+00  0.00000000000E+00  0.24027367739E+03  0.24027367739E+03  0.00000000000E+00 0.  1.
         21   -1    0    0  501  502 -0.00000000000E+00 -0.00000000000E+00 -0.21678197391E+03  0.21678197391E+03  0.00000000000E+00 0.  1.
      99926    2    1    2    0    0  0.88817841970E-15  0.00000000000E+00  0.23491703477E+02  0.45705565129E+03  0.45645153987E+03 0.  0.
         25    1    3    3    0    0  0.68915855550E+01 -0.85410512958E+02  0.30634293379E+02  0.15468813046E+03  0.12509000000E+03 0.  0.
         25    1    3    3    0    0 -0.61476464211E+02  0.83090804624E+02  0.19030891848E+02  0.16338029382E+03  0.12509000000E+03 0.  0.
         25    1    3    3    0    0  0.54584878656E+02  0.23197083337E+01 -0.26173481750E+02  0.13898722701E+03  0.12509000000E+03 0.  0.
<mgrwt>
<rscale>  2 0.45645154E+03</rscale>
<asrwt>0</asrwt>
<pdfrwt beam="1">  1       21 0.35334364E-01 0.45645154E+03</pdfrwt>
<pdfrwt beam="2">  1       21 0.31879702E-01 0.45645154E+03</pdfrwt>
<totfact> 0.67609065E+04</totfact>
</mgrwt>
</event>
<event>
 6    0  0.1539652E-007  0.4591289E+03  0.7546771E-02  0.1025034E+00
         21   -1    0    0  502  501  0.00000000000E+00  0.00000000000E+00  0.65673271402E+03  0.65673271402E+03  0.00000000000E+00 0.  1.
         21   -1    0    0  501  502 -0.00000000000E+00 -0.00000000000E+00 -0.80245488465E+02  0.80245488465E+02  0.00000000000E+00 0.  1.
      99926    2    1    2    0    0  0.00000000000E+00  0.00000000000E+00  0.57648722556E+03  0.73697820249E+03  0.45912890315E+03 0.  0.
         25    1    3    3    0    0 -0.11635265982E+01 -0.29193340096E+02  0.21540414236E+03  0.25079883880E+03  0.12509000000E+03 0.  0.
         25    1    3    3    0    0 -0.95646233269E+02 -0.21454454453E+02  0.16242959886E+03  0.22724299382E+03  0.12509000000E+03 0.  0.
         25    1    3    3    0    0  0.96809759867E+02  0.50647794550E+02  0.19865348434E+03  0.25893636987E+03  0.12509000000E+03 0.  0.
<mgrwt>
<rscale>  2 0.45912890E+03</rscale>
<asrwt>0</asrwt>
<pdfrwt beam="1">  1       21 0.96578337E-01 0.45912890E+03</pdfrwt>
<pdfrwt beam="2">  1       21 0.11800807E-01 0.45912890E+03</pdfrwt>
<totfact> 0.49320210E+04</totfact>
</mgrwt>
</event>
<event>
 6    0  0.1539652E-007  0.4536986E+03  0.7546771E-02  0.1026625E+00
         21   -1    0    0  502  501  0.00000000000E+00  0.00000000000E+00  0.93019465896E+02  0.93019465896E+02  0.00000000000E+00 0.  1.
         21   -1    0    0  501  502 -0.00000000000E+00 -0.00000000000E+00 -0.55322400890E+03  0.55322400890E+03  0.00000000000E+00 0.  1.
      99926    2    1    2    0    0  0.00000000000E+00  0.00000000000E+00 -0.46020454300E+03  0.64624347479E+03  0.45369858641E+03 0.  0.
         25    1    3    3    0    0 -0.15371655468E+02 -0.46764677061E+02 -0.86748044866E+02  0.15998735638E+03  0.12509000000E+03 0.  0.
         25    1    3    3    0    0 -0.35429947140E+02 -0.17354963278E+01 -0.29582681734E+03  0.32313976397E+03  0.12509000000E+03 0.  0.
         25    1    3    3    0    0  0.50801602608E+02  0.48500173389E+02 -0.77629680791E+02  0.16311635444E+03  0.12509000000E+03 0.  0.
<mgrwt>
<rscale>  2 0.45369859E+03</rscale>
<asrwt>0</asrwt>
<pdfrwt beam="1">  1       21 0.13679333E-01 0.45369859E+03</pdfrwt>
<pdfrwt beam="2">  1       21 0.81356473E-01 0.45369859E+03</pdfrwt>
<totfact> 0.56496292E+04</totfact>
</mgrwt>
</event>
<event>
 6    0  0.1539652E-007  0.4555269E+03  0.7546771E-02  0.1026087E+00
         21   -1    0    0  502  501  0.00000000000E+00  0.00000000000E+00  0.18289558277E+03  0.18289558277E+03  0.00000000000E+00 0. -1.
         21   -1    0    0  501  502 -0.00000000000E+00 -0.00000000000E+00 -0.28363828500E+03  0.28363828500E+03  0.00000000000E+00 0. -1.
      99926    2    1    2    0    0  0.44408920985E-15  0.00000000000E+00 -0.10074270223E+03  0.46653386778E+03  0.45552690121E+03 0.  0.
         25    1    3    3    0    0  0.11076780845E+01 -0.12241676348E+02  0.55691070853E+01  0.12581577264E+03  0.12509000000E+03 0.  0.
         25    1    3    3    0    0  0.63440879302E+01  0.10374537416E+03 -0.21975291505E+02  0.16411511706E+03  0.12509000000E+03 0.  0.
         25    1    3    3    0    0 -0.74517660148E+01 -0.91503697811E+02 -0.84336517812E+02  0.17660297808E+03  0.12509000000E+03 0.  0.
<mgrwt>
<rscale>  2 0.45552690E+03</rscale>
<asrwt>0</asrwt>
<pdfrwt beam="1">  1       21 0.26896410E-01 0.45552690E+03</pdfrwt>
<pdfrwt beam="2">  1       21 0.41711512E-01 0.45552690E+03</pdfrwt>
<totfact> 0.67412628E+04</totfact>
</mgrwt>
</event>
<event>
 6    0  0.1539652E-007  0.4566052E+03  0.7546771E-02  0.1025770E+00
         21   -1    0    0  502  501  0.00000000000E+00  0.00000000000E+00  0.14213886236E+03  0.14213886236E+03  0.00000000000E+00 0.  1.
         21   -1    0    0  501  502 -0.00000000000E+00 -0.00000000000E+00 -0.36669828240E+03  0.36669828240E+03  0.00000000000E+00 0.  1.
      99926    2    1    2    0    0  0.00000000000E+00 -0.71054273576E-14 -0.22455942004E+03  0.50883714476E+03  0.45660519791E+03 0.  0.
         25    1    3    3    0    0  0.15858689186E+02 -0.72085296047E+02  0.12907079427E+02  0.14581456967E+03  0.12509000000E+03 0.  0.
         25    1    3    3    0    0  0.25004437436E+02  0.10733457593E+02 -0.93254847000E+02  0.15838056570E+03  0.12509000000E+03 0.  0.
         25    1    3    3    0    0 -0.40863126622E+02  0.61351838454E+02 -0.14421165247E+03  0.20464200939E+03  0.12509000000E+03 0.  0.
<mgrwt>
<rscale>  2 0.45660520E+03</rscale>
<asrwt>0</asrwt>
<pdfrwt beam="1">  1       21 0.20902774E-01 0.45660520E+03</pdfrwt>
<pdfrwt beam="2">  1       21 0.53926217E-01 0.45660520E+03</pdfrwt>
<totfact> 0.63837008E+04</totfact>
</mgrwt>
</event>
<event>
 6    0  0.1539652E-007  0.4589090E+03  0.7546771E-02  0.1025098E+00
         21   -1    0    0  502  501  0.00000000000E+00  0.00000000000E+00  0.22065984913E+03  0.22065984913E+03  0.00000000000E+00 0. -1.
         21   -1    0    0  501  502 -0.00000000000E+00 -0.00000000000E+00 -0.23859971486E+03  0.23859971486E+03  0.00000000000E+00 0. -1.
      99926    2    1    2    0    0  0.71054273576E-14  0.00000000000E+00 -0.17939865731E+02  0.45925956399E+03  0.45890904146E+03 0.  0.
         25    1    3    3    0    0 -0.78071782146E+02  0.26317786807E+02 -0.21217829114E+02  0.15127965310E+03  0.12509000000E+03 0.  0.
         25    1    3    3    0    0  0.26036076705E+02 -0.57538801279E+02 -0.63378103633E+02  0.15379493835E+03  0.12509000000E+03 0.  0.
         25    1    3    3    0    0  0.52035705442E+02  0.31221014472E+02  0.66656067016E+02  0.15418497253E+03  0.12509000000E+03 0.  0.
<mgrwt>
<rscale>  2 0.45890904E+03</rscale>
<asrwt>0</asrwt>
<pdfrwt beam="1">  1       21 0.32449978E-01 0.45890904E+03</pdfrwt>
<pdfrwt beam="2">  1       21 0.35088193E-01 0.45890904E+03</pdfrwt>
<totfact> 0.66147546E+04</totfact>
</mgrwt>
</event>
<event>
 6    0  0.1539652E-007  0.4473728E+03  0.7546771E-02  0.1028508E+00
         21   -1    0    0  502  501  0.00000000000E+00  0.00000000000E+00  0.49532223843E+03  0.49532223843E+03  0.00000000000E+00 0. -1.
         21   -1    0    0  501  502 -0.00000000000E+00 -0.00000000000E+00 -0.10101629122E+03  0.10101629122E+03  0.00000000000E+00 0. -1.
      99926    2    1    2    0    0  0.00000000000E+00  0.00000000000E+00  0.39430594721E+03  0.59633852966E+03  0.44737284445E+03 0.  0.
         25    1    3    3    0    0  0.48075362343E+02 -0.48395993802E+02  0.24927782822E+03  0.28712428742E+03  0.12509000000E+03 0.  0.
         25    1    3    3    0    0 -0.10738334581E+02  0.58059542707E+02  0.10037930089E+03  0.17090855589E+03  0.12509000000E+03 0.  0.
         25    1    3    3    0    0 -0.37337027762E+02 -0.96635489048E+01  0.44648818095E+02  0.13830568635E+03  0.12509000000E+03 0.  0.
<mgrwt>
<rscale>  2 0.44737284E+03</rscale>
<asrwt>0</asrwt>
<pdfrwt beam="1">  1       21 0.72841504E-01 0.44737284E+03</pdfrwt>
<pdfrwt beam="2">  1       21 0.14855337E-01 0.44737284E+03</pdfrwt>
<totfact> 0.62592095E+04</totfact>
</mgrwt>
</event>
<event>
 6    0  0.1539652E-007  0.4525111E+03  0.7546771E-02  0.1026976E+00
         21   -1    0    0  502  501  0.00000000000E+00  0.00000000000E+00  0.72935462170E+03  0.72935462170E+03  0.00000000000E+00 0.  1.
         21   -1    0    0  501  502 -0.00000000000E+00 -0.00000000000E+00 -0.70187498555E+02  0.70187498555E+02  0.00000000000E+00 0.  1.
      99926    2    1    2    0    0  0.00000000000E+00  0.00000000000E+00  0.65916712314E+03  0.79954212025E+03  0.45251111127E+03 0.  0.
         25    1    3    3    0    0 -0.19929979217E+02  0.22437562954E+02  0.35105900046E+03  0.37388578231E+03  0.12509000000E+03 0.  0.
         25    1    3    3    0    0 -0.15010575536E+02  0.23229422887E+02  0.59017463520E+02  0.14105138272E+03  0.12509000000E+03 0.  0.
         25    1    3    3    0    0  0.34940554753E+02 -0.45666985841E+02  0.24909065916E+03  0.28460495523E+03  0.12509000000E+03 0.  0.
<mgrwt>
<rscale>  2 0.45251111E+03</rscale>
<asrwt>0</asrwt>
<pdfrwt beam="1">  1       21 0.10725803E+00 0.45251111E+03</pdfrwt>
<pdfrwt beam="2">  1       21 0.10321691E-01 0.45251111E+03</pdfrwt>
<totfact> 0.48731866E+04</totfact>
</mgrwt>
</event>
<event>
 6    0  0.1539652E-007  0.4539560E+03  0.7546771E-02  0.1026549E+00
         21   -1    0    0  502  501  0.00000000000E+00  0.00000000000E+00  0.11725914715E+03  0.11725914715E+03  0.00000000000E+00 0.  1.
         21   -1    0    0  501  502 -0.00000000000E+00 -0.00000000000E+00 -0.43936032182E+03  0.43936032182E+03  0.00000000000E+00 0.  1.
      99926    2    1    2    0    0 -0.35527136788E-14  0.00000000000E+00 -0.32210117467E+03  0.55661946898E+03  0.45395601827E+03 0.  0.
         25    1    3    3    0    0 -0.20372184000E+02  0.74286033268E+02 -0.42785153700E+02  0.15300822885E+03  0.12509000000E+03 0.  0.
         25    1    3    3    0    0  0.24897828468E+02 -0.10166328471E+02 -0.55926038392E+02  0.13963697923E+03  0.12509000000E+03 0.  0.
         25    1    3    3    0    0 -0.45256444674E+01 -0.64119704796E+02 -0.22338998258E+03  0.26397426090E+03  0.12509000000E+03 0.  0.
<mgrwt>
<rscale>  2 0.45395602E+03</rscale>
<asrwt>0</asrwt>
<pdfrwt beam="1">  1       21 0.17243992E-01 0.45395602E+03</pdfrwt>
<pdfrwt beam="2">  1       21 0.64611813E-01 0.45395602E+03</pdfrwt>
<totfact> 0.61941156E+04</totfact>
</mgrwt>
</event>
<event>
 6    0  0.1539652E-007  0.4546710E+03  0.7546771E-02  0.1026338E+00
         21   -1    0    0  502  501  0.00000000000E+00  0.00000000000E+00  0.41691806404E+03  0.41691806404E+03  0.00000000000E+00 0. -1.
         21   -1    0    0  501  502 -0.00000000000E+00 -0.00000000000E+00 -0.12396064073E+03  0.12396064073E+03  0.00000000000E+00 0. -1.
      99926    2    1    2    0    0  0.00000000000E+00 -0.26645352591E-14  0.29295742331E+03  0.54087870477E+03  0.45467100347E+03 0.  0.
         25    1    3    3    0    0  0.16033802358E+01  0.72577566460E+02  0.82614817091E+02  0.16656167051E+03  0.12509000000E+03 0.  0.
         25    1    3    3    0    0 -0.36650595436E+02 -0.68562650018E+02  0.19362989048E+03  0.24327791866E+03  0.12509000000E+03 0.  0.
         25    1    3    3    0    0  0.35047215200E+02 -0.40149164420E+01  0.16712715741E+02  0.13103911559E+03  0.12509000000E+03 0.  0.
<mgrwt>
<rscale>  2 0.45467100E+03</rscale>
<asrwt>0</asrwt>
<pdfrwt beam="1">  1       21 0.61311480E-01 0.45467100E+03</pdfrwt>
<pdfrwt beam="2">  1       21 0.18229506E-01 0.45467100E+03</pdfrwt>
<totfact> 0.62636229E+04</totfact>
</mgrwt>
</event>
<event>
 6    0  0.1539652E-007  0.4354769E+03  0.7546771E-02  0.1032144E+00
         21   -1    0    0  502  501  0.00000000000E+00  0.00000000000E+00  0.39744814624E+03  0.39744814624E+03  0.00000000000E+00 0. -1.
         21   -1    0    0  501  502 -0.00000000000E+00 -0.00000000000E+00 -0.11928609281E+03  0.11928609281E+03  0.00000000000E+00 0. -1.
      99926    2    1    2    0    0  0.00000000000E+00 -0.71054273576E-14  0.27816205343E+03  0.51673423905E+03  0.43547691768E+03 0.  0.
         25    1    3    3    0    0 -0.45362293713E+02  0.63262645439E+02  0.67616129817E+02  0.16210906548E+03  0.12509000000E+03 0.  0.
         25    1    3    3    0    0  0.56635581677E+02  0.11352647887E+02  0.84154704949E+02  0.16144966457E+03  0.12509000000E+03 0.  0.
         25    1    3    3    0    0 -0.11273287964E+02 -0.74615293326E+02  0.12639121867E+03  0.19317550900E+03  0.12509000000E+03 0.  0.
<mgrwt>
<rscale>  2 0.43547692E+03</rscale>
<asrwt>0</asrwt>
<pdfrwt beam="1">  1       21 0.58448256E-01 0.43547692E+03</pdfrwt>
<pdfrwt beam="2">  1       21 0.17542073E-01 0.43547692E+03</pdfrwt>
<totfact> 0.75069049E+04</totfact>
</mgrwt>
</event>
<event>
 6    0  0.1539652E-007  0.4675841E+03  0.7546771E-02  0.1022604E+00
         21   -1    0    0  502  501  0.00000000000E+00  0.00000000000E+00  0.89161938082E+03  0.89161938082E+03  0.00000000000E+00 0.  1.
         21   -1    0    0  501  502 -0.00000000000E+00 -0.00000000000E+00 -0.61302746849E+02  0.61302746849E+02  0.00000000000E+00 0.  1.
      99926    2    1    2    0    0  0.00000000000E+00  0.00000000000E+00  0.83031663397E+03  0.95292212767E+03  0.46758407667E+03 0.  0.
         25    1    3    3    0    0  0.43479268028E+02 -0.29424524059E+02  0.16744920401E+03  0.21550636508E+03  0.12509000000E+03 0.  0.
         25    1    3    3    0    0 -0.15272261099E+02 -0.64123663656E+02  0.45125952498E+03  0.47289296166E+03  0.12509000000E+03 0.  0.
         25    1    3    3    0    0 -0.28207006929E+02  0.93548187715E+02  0.21160790498E+03  0.26452280093E+03  0.12509000000E+03 0.  0.
<mgrwt>
<rscale>  2 0.46758408E+03</rscale>
<asrwt>0</asrwt>
<pdfrwt beam="1">  1       21 0.13112049E+00 0.46758408E+03</pdfrwt>
<pdfrwt beam="2">  1       21 0.90151104E-02 0.46758408E+03</pdfrwt>
<totfact> 0.37222080E+04</totfact>
</mgrwt>
</event>
<event>
 6    0  0.1539652E-007  0.4556606E+03  0.7546771E-02  0.1026047E+00
         21   -1    0    0  502  501  0.00000000000E+00  0.00000000000E+00  0.15882796619E+03  0.15882796619E+03  0.00000000000E+00 0.  1.
         21   -1    0    0  501  502 -0.00000000000E+00 -0.00000000000E+00 -0.32681046431E+03  0.32681046431E+03  0.00000000000E+00 0.  1.
      99926    2    1    2    0    0  0.71054273576E-14 -0.53290705182E-14 -0.16798249812E+03  0.48563843049E+03  0.45566058146E+03 0.  0.
         25    1    3    3    0    0  0.60540092210E+02 -0.15059644783E+02 -0.25958387410E+02  0.14217328034E+03  0.12509000000E+03 0.  0.
         25    1    3    3    0    0 -0.81217038395E+02 -0.64731664326E+02 -0.81854070222E+02  0.18202745014E+03  0.12509000000E+03 0.  0.
         25    1    3    3    0    0  0.20676946184E+02  0.79791309109E+02 -0.60170040488E+02  0.16143770001E+03  0.12509000000E+03 0.  0.
<mgrwt>
<rscale>  2 0.45566058E+03</rscale>
<asrwt>0</asrwt>
<pdfrwt beam="1">  1       21 0.23357054E-01 0.45566058E+03</pdfrwt>
<pdfrwt beam="2">  1       21 0.48060362E-01 0.45566058E+03</pdfrwt>
<totfact> 0.65945408E+04</totfact>
</mgrwt>
</event>
<event>
 6    0  0.1539652E-007  0.4612340E+03  0.7546771E-02  0.1024424E+00
         21   -1    0    0  502  501  0.00000000000E+00  0.00000000000E+00  0.82974833863E+03  0.82974833863E+03  0.00000000000E+00 0.  1.
         21   -1    0    0  501  502 -0.00000000000E+00 -0.00000000000E+00 -0.64096781958E+02  0.64096781958E+02  0.00000000000E+00 0.  1.
      99926    2    1    2    0    0  0.00000000000E+00  0.53290705182E-14  0.76565155668E+03  0.89384512059E+03  0.46123398982E+03 0.  0.
         25    1    3    3    0    0 -0.36394447366E+02 -0.15149928696E+02  0.42193670677E+03  0.44185084447E+03  0.12509000000E+03 0.  0.
         25    1    3    3    0    0  0.16539402929E+02 -0.58558000781E+02  0.21962266861E+03  0.25996964433E+03  0.12509000000E+03 0.  0.
         25    1    3    3    0    0  0.19855044437E+02  0.73707929477E+02  0.12409218130E+03  0.19202463180E+03  0.12509000000E+03 0.  0.
<mgrwt>
<rscale>  2 0.46123399E+03</rscale>
<asrwt>0</asrwt>
<pdfrwt beam="1">  1       21 0.12202181E+00 0.46123399E+03</pdfrwt>
<pdfrwt beam="2">  1       21 0.94259978E-02 0.46123399E+03</pdfrwt>
<totfact> 0.41440663E+04</totfact>
</mgrwt>
</event>
<event>
 6    0  0.1539652E-007  0.4552429E+03  0.7546771E-02  0.1026170E+00
         21   -1    0    0  502  501  0.00000000000E+00  0.00000000000E+00  0.46387038260E+03  0.46387038260E+03  0.00000000000E+00 0. -1.
         21   -1    0    0  501  502 -0.00000000000E+00 -0.00000000000E+00 -0.11169399276E+03  0.11169399276E+03  0.00000000000E+00 0. -1.
      99926    2    1    2    0    0  0.88817841970E-14  0.00000000000E+00  0.35217638983E+03  0.57556437536E+03  0.45524294682E+03 0.  0.
         25    1    3    3    0    0  0.14944030040E+02 -0.34383902212E+02  0.10127602446E+03  0.16525712691E+03  0.12509000000E+03 0.  0.
         25    1    3    3    0    0 -0.10560272385E+03 -0.40611437055E+00  0.10162862129E+03  0.19268623454E+03  0.12509000000E+03 0.  0.
         25    1    3    3    0    0  0.90658693808E+02  0.34790016582E+02  0.14927174408E+03  0.21762101391E+03  0.12509000000E+03 0.  0.
<mgrwt>
<rscale>  2 0.45524295E+03</rscale>
<asrwt>0</asrwt>
<pdfrwt beam="1">  1       21 0.68216232E-01 0.45524295E+03</pdfrwt>
<pdfrwt beam="2">  1       21 0.16425587E-01 0.45524295E+03</pdfrwt>
<totfact> 0.60092616E+04</totfact>
</mgrwt>
</event>
<event>
 6    0  0.1539652E-007  0.4547773E+03  0.7546771E-02  0.1026307E+00
         21   -1    0    0  502  501  0.00000000000E+00  0.00000000000E+00  0.14117937453E+03  0.14117937453E+03  0.00000000000E+00 0.  1.
         21   -1    0    0  501  502 -0.00000000000E+00 -0.00000000000E+00 -0.36624038524E+03  0.36624038524E+03  0.00000000000E+00 0.  1.
      99926    2    1    2    0    0  0.00000000000E+00  0.88817841970E-15 -0.22506101070E+03  0.50741975977E+03  0.45477725764E+03 0.  0.
         25    1    3    3    0    0 -0.28501276293E+02  0.10811878607E+02 -0.15020678594E+03  0.19783530047E+03  0.12509000000E+03 0.  0.
         25    1    3    3    0    0  0.76192004426E+02 -0.40758138259E+01 -0.94143100738E+02  0.17416160689E+03  0.12509000000E+03 0.  0.
         25    1    3    3    0    0 -0.47690728132E+02 -0.67360647816E+01  0.19288875977E+02  0.13542285241E+03  0.12509000000E+03 0.  0.
<mgrwt>
<rscale>  2 0.45477726E+03</rscale>
<asrwt>0</asrwt>
<pdfrwt beam="1">  1       21 0.20761673E-01 0.45477726E+03</pdfrwt>
<pdfrwt beam="2">  1       21 0.53858880E-01 0.45477726E+03</pdfrwt>
<totfact> 0.64867082E+04</totfact>
</mgrwt>
</event>
<event>
 6    0  0.1539652E-007  0.4658937E+03  0.7546771E-02  0.1023086E+00
         21   -1    0    0  502  501  0.00000000000E+00  0.00000000000E+00  0.10147031178E+03  0.10147031178E+03  0.00000000000E+00 0. -1.
         21   -1    0    0  501  502 -0.00000000000E+00 -0.00000000000E+00 -0.53477940988E+03  0.53477940988E+03  0.00000000000E+00 0. -1.
      99926    2    1    2    0    0  0.00000000000E+00  0.71054273576E-14 -0.43330909809E+03  0.63624972166E+03  0.46589369370E+03 0.  0.
         25    1    3    3    0    0  0.73802090969E+02 -0.57566420777E+02 -0.14974636182E+03  0.21640730674E+03  0.12509000000E+03 0.  0.
         25    1    3    3    0    0  0.32586814183E+02  0.65903721123E+02 -0.13803262346E+03  0.20026411100E+03  0.12509000000E+03 0.  0.
         25    1    3    3    0    0 -0.10638890515E+03 -0.83373003455E+01 -0.14553011281E+03  0.21957830392E+03  0.12509000000E+03 0.  0.
<mgrwt>
<rscale>  2 0.46589369E+03</rscale>
<asrwt>0</asrwt>
<pdfrwt beam="1">  1       21 0.14922105E-01 0.46589369E+03</pdfrwt>
<pdfrwt beam="2">  1       21 0.78644030E-01 0.46589369E+03</pdfrwt>
<totfact> 0.51892630E+04</totfact>
</mgrwt>
</event>
<event>
 6    0  0.1539652E-007  0.4541563E+03  0.7546771E-02  0.1026490E+00
         21   -1    0    0  502  501  0.00000000000E+00  0.00000000000E+00  0.35587511024E+02  0.35587511024E+02  0.00000000000E+00 0. -1.
         21   -1    0    0  501  502 -0.00000000000E+00 -0.00000000000E+00 -0.14489488101E+04  0.14489488101E+04  0.00000000000E+00 0. -1.
      99926    2    1    2    0    0  0.17208456882E-14  0.00000000000E+00 -0.14133612991E+04  0.14845363212E+04  0.45415628039E+03 0.  0.
         25    1    3    3    0    0 -0.54947208249E+02 -0.26151952722E+02 -0.24177509486E+03  0.27893695510E+03  0.12509000000E+03 0.  0.
         25    1    3    3    0    0  0.46772569751E+00  0.29114949293E+02 -0.35136865278E+03  0.37410605087E+03  0.12509000000E+03 0.  0.
         25    1    3    3    0    0  0.54479482551E+02 -0.29629965705E+01 -0.82021755146E+03  0.83149331518E+03  0.12509000000E+03 0.  0.
<mgrwt>
<rscale>  2 0.45415628E+03</rscale>
<asrwt>0</asrwt>
<pdfrwt beam="1">  1       21 0.52334591E-02 0.45415628E+03</pdfrwt>
<pdfrwt beam="2">  1       21 0.21308064E+00 0.45415628E+03</pdfrwt>
<totfact> 0.24319678E+04</totfact>
</mgrwt>
</event>
<event>
 6    0  0.1539652E-007  0.4543862E+03  0.7546771E-02  0.1026422E+00
         21   -1    0    0  502  501  0.00000000000E+00  0.00000000000E+00  0.40372869965E+02  0.40372869965E+02  0.00000000000E+00 0. -1.
         21   -1    0    0  501  502 -0.00000000000E+00 -0.00000000000E+00 -0.12784996981E+04  0.12784996981E+04  0.00000000000E+00 0. -1.
      99926    2    1    2    0    0  0.14210854715E-13 -0.35527136788E-14 -0.12381268281E+04  0.13188725681E+04  0.45438618844E+03 0.  0.
         25    1    3    3    0    0 -0.91312180182E+02  0.61724981271E+02 -0.55974391362E+03  0.58404507060E+03  0.12509000000E+03 0.  0.
         25    1    3    3    0    0  0.70190677599E+02 -0.20824590933E+02 -0.41605184898E+03  0.44057580954E+03  0.12509000000E+03 0.  0.
         25    1    3    3    0    0  0.21121502583E+02 -0.40900390338E+02 -0.26233106553E+03  0.29425168792E+03  0.12509000000E+03 0.  0.
<mgrwt>
<rscale>  2 0.45438619E+03</rscale>
<asrwt>0</asrwt>
<pdfrwt beam="1">  1       21 0.59371869E-02 0.45438619E+03</pdfrwt>
<pdfrwt beam="2">  1       21 0.18801466E+00 0.45438619E+03</pdfrwt>
<totfact> 0.28708277E+04</totfact>
</mgrwt>
</event>
<event>
 6    0  0.1539652E-007  0.4554205E+03  0.7546771E-02  0.1026118E+00
         21   -1    0    0  502  501  0.00000000000E+00  0.00000000000E+00  0.31837552992E+03  0.31837552992E+03  0.00000000000E+00 0.  1.
         21   -1    0    0  501  502 -0.00000000000E+00 -0.00000000000E+00 -0.16286411625E+03  0.16286411625E+03  0.00000000000E+00 0.  1.
      99926    2    1    2    0    0  0.00000000000E+00  0.39968028887E-14  0.15551141367E+03  0.48123964617E+03  0.45542046207E+03 0.  0.
         25    1    3    3    0    0 -0.32985592392E+02 -0.74895185343E+02  0.65601849065E+02  0.16324352604E+03  0.12509000000E+03 0.  0.
         25    1    3    3    0    0 -0.36437328753E+02  0.78116705199E+02  0.58310606588E+01  0.15202436623E+03  0.12509000000E+03 0.  0.
         25    1    3    3    0    0  0.69422921146E+02 -0.32215198563E+01  0.84078503943E+02  0.16597175391E+03  0.12509000000E+03 0.  0.
<mgrwt>
<rscale>  2 0.45542046E+03</rscale>
<asrwt>0</asrwt>
<pdfrwt beam="1">  1       21 0.46819931E-01 0.45542046E+03</pdfrwt>
<pdfrwt beam="2">  1       21 0.23950605E-01 0.45542046E+03</pdfrwt>
<totfact> 0.66388126E+04</totfact>
</mgrwt>
</event>
<event>
 6    0  0.1539652E-007  0.4486065E+03  0.7546771E-02  0.1028138E+00
         21   -1    0    0  502  501  0.00000000000E+00  0.00000000000E+00  0.63229992682E+02  0.63229992682E+02  0.00000000000E+00 0.  1.
         21   -1    0    0  501  502 -0.00000000000E+00 -0.00000000000E+00 -0.79569759633E+03  0.79569759633E+03  0.00000000000E+00 0.  1.
      99926    2    1    2    0    0 -0.35527136788E-14  0.71054273576E-14 -0.73246760364E+03  0.85892758901E+03  0.44860652333E+03 0.  0.
         25    1    3    3    0    0 -0.42737951363E+02  0.69483502773E+02 -0.16646572520E+03  0.22363549676E+03  0.12509000000E+03 0.  0.
         25    1    3    3    0    0  0.26860593204E+02 -0.63962625822E+02 -0.41231073852E+03  0.43641764649E+03  0.12509000000E+03 0.  0.
         25    1    3    3    0    0  0.15877358159E+02 -0.55208769516E+01 -0.15369113992E+03  0.19887444575E+03  0.12509000000E+03 0.  0.
<mgrwt>
<rscale>  2 0.44860652E+03</rscale>
<asrwt>0</asrwt>
<pdfrwt beam="1">  1       21 0.92985297E-02 0.44860652E+03</pdfrwt>
<pdfrwt beam="2">  1       21 0.11701433E+00 0.44860652E+03</pdfrwt>
<totfact> 0.47373961E+04</totfact>
</mgrwt>
</event>
<event>
 6    0  0.1539652E-007  0.4424287E+03  0.7546771E-02  0.1030004E+00
         21   -1    0    0  502  501  0.00000000000E+00  0.00000000000E+00  0.79635621866E+02  0.79635621866E+02  0.00000000000E+00 0. -1.
         21   -1    0    0  501  502 -0.00000000000E+00 -0.00000000000E+00 -0.61449622490E+03  0.61449622490E+03  0.00000000000E+00 0. -1.
      99926    2    1    2    0    0  0.00000000000E+00 -0.35527136788E-14 -0.53486060303E+03  0.69413184676E+03  0.44242870162E+03 0.  0.
         25    1    3    3    0    0 -0.43671099020E+02 -0.65722126321E+02 -0.13434719180E+03  0.19980800490E+03  0.12509000000E+03 0.  0.
         25    1    3    3    0    0  0.36502026742E+02  0.16893871561E+02 -0.10008721235E+03  0.16517493463E+03  0.12509000000E+03 0.  0.
         25    1    3    3    0    0  0.71690722783E+01  0.48828254760E+02 -0.30042619888E+03  0.32914890724E+03  0.12509000000E+03 0.  0.
<mgrwt>
<rscale>  2 0.44242870E+03</rscale>
<asrwt>0</asrwt>
<pdfrwt beam="1">  1       21 0.11711122E-01 0.44242870E+03</pdfrwt>
<pdfrwt beam="2">  1       21 0.90367086E-01 0.44242870E+03</pdfrwt>
<totfact> 0.58831402E+04</totfact>
</mgrwt>
</event>
<event>
 6    0  0.1539652E-007  0.4557174E+03  0.7546771E-02  0.1026031E+00
         21   -1    0    0  502  501  0.00000000000E+00  0.00000000000E+00  0.77954583269E+02  0.77954583269E+02  0.00000000000E+00 0.  1.
         21   -1    0    0  501  502 -0.00000000000E+00 -0.00000000000E+00 -0.66602355688E+03  0.66602355688E+03  0.00000000000E+00 0.  1.
      99926    2    1    2    0    0  0.00000000000E+00  0.71054273576E-14 -0.58806897361E+03  0.74397814015E+03  0.45571740728E+03 0.  0.
         25    1    3    3    0    0 -0.72036624036E+02 -0.23547338735E+02 -0.14028714514E+03  0.20266164796E+03  0.12509000000E+03 0.  0.
         25    1    3    3    0    0  0.84057668729E+00  0.70060751442E+02 -0.15108618391E+03  0.20828768214E+03  0.12509000000E+03 0.  0.
         25    1    3    3    0    0  0.71196047348E+02 -0.46513412707E+02 -0.29669564457E+03  0.33302881005E+03  0.12509000000E+03 0.  0.
<mgrwt>
<rscale>  2 0.45571741E+03</rscale>
<asrwt>0</asrwt>
<pdfrwt beam="1">  1       21 0.11463909E-01 0.45571741E+03</pdfrwt>
<pdfrwt beam="2">  1       21 0.97944639E-01 0.45571741E+03</pdfrwt>
<totfact> 0.50295180E+04</totfact>
</mgrwt>
</event>
<event>
 6    0  0.1539652E-007  0.4499672E+03  0.7546771E-02  0.1027732E+00
         21   -1    0    0  502  501  0.00000000000E+00  0.00000000000E+00  0.48524396897E+03  0.48524396897E+03  0.00000000000E+00 0. -1.
         21   -1    0    0  501  502 -0.00000000000E+00 -0.00000000000E+00 -0.10431373944E+03  0.10431373944E+03  0.00000000000E+00 0. -1.
      99926    2    1    2    0    0  0.71054273576E-14  0.00000000000E+00  0.38093022953E+03  0.58955770840E+03  0.44996716743E+03 0.  0.
         25    1    3    3    0    0 -0.61029859206E+02 -0.37947028971E+02  0.16865979916E+03  0.22194201196E+03  0.12509000000E+03 0.  0.
         25    1    3    3    0    0  0.13696764695E+02 -0.46272707825E+02  0.55839971320E+02  0.14523902833E+03  0.12509000000E+03 0.  0.
         25    1    3    3    0    0  0.47333094510E+02  0.84219736795E+02  0.15643045905E+03  0.22237666811E+03  0.12509000000E+03 0.  0.
<mgrwt>
<rscale>  2 0.44996717E+03</rscale>
<asrwt>0</asrwt>
<pdfrwt beam="1">  1       21 0.71359406E-01 0.44996717E+03</pdfrwt>
<pdfrwt beam="2">  1       21 0.15340256E-01 0.44996717E+03</pdfrwt>
<totfact> 0.61745284E+04</totfact>
</mgrwt>
</event>
<event>
 6    0  0.1539652E-007  0.4689322E+03  0.7546771E-02  0.1022222E+00
         21   -1    0    0  502  501  0.00000000000E+00  0.00000000000E+00  0.13114862876E+03  0.13114862876E+03  0.00000000000E+00 0. -1.
         21   -1    0    0  501  502 -0.00000000000E+00 -0.00000000000E+00 -0.41917603701E+03  0.41917603701E+03  0.00000000000E+00 0. -1.
      99926    2    1    2    0    0 -0.71054273576E-14  0.35527136788E-14 -0.28802740825E+03  0.55032466578E+03  0.46893224442E+03 0.  0.
         25    1    3    3    0    0 -0.42845371552E+02  0.66901156341E+01 -0.21248502603E+03  0.25035550303E+03  0.12509000000E+03 0.  0.
         25    1    3    3    0    0 -0.42007517815E+02  0.27196209338E+02 -0.25015230406E+02  0.13703114685E+03  0.12509000000E+03 0.  0.
         25    1    3    3    0    0  0.84852889367E+02 -0.33886324972E+02 -0.50527151819E+02  0.16293801590E+03  0.12509000000E+03 0.  0.
<mgrwt>
<rscale>  2 0.46893224E+03</rscale>
<asrwt>0</asrwt>
<pdfrwt beam="1">  1       21 0.19286563E-01 0.46893224E+03</pdfrwt>
<pdfrwt beam="2">  1       21 0.61643535E-01 0.46893224E+03</pdfrwt>
<totfact> 0.55469987E+04</totfact>
</mgrwt>
</event>
<event>
 6    0  0.1539652E-007  0.4689281E+03  0.7546771E-02  0.1022223E+00
         21   -1    0    0  502  501  0.00000000000E+00  0.00000000000E+00  0.10954676734E+04  0.10954676734E+04  0.00000000000E+00 0. -1.
         21   -1    0    0  501  502 -0.00000000000E+00 -0.00000000000E+00 -0.50182582826E+02  0.50182582826E+02  0.00000000000E+00 0. -1.
      99926    2    1    2    0    0  0.00000000000E+00  0.00000000000E+00  0.10452850906E+04  0.11456502562E+04  0.46892812777E+03 0.  0.
         25    1    3    3    0    0  0.15837356995E+02 -0.58488316518E+01  0.50204781486E+03  0.51767223917E+03  0.12509000000E+03 0.  0.
         25    1    3    3    0    0 -0.55065049616E+02  0.77854383236E+02  0.34915516938E+03  0.38294948111E+03  0.12509000000E+03 0.  0.
         25    1    3    3    0    0  0.39227692620E+02 -0.72005551584E+02  0.19408210635E+03  0.24502853596E+03  0.12509000000E+03 0.  0.
<mgrwt>
<rscale>  2 0.46892813E+03</rscale>
<asrwt>0</asrwt>
<pdfrwt beam="1">  1       21 0.16109817E+00 0.46892813E+03</pdfrwt>
<pdfrwt beam="2">  1       21 0.73797923E-02 0.46892813E+03</pdfrwt>
<totfact> 0.30481995E+04</totfact>
</mgrwt>
</event>
<event>
 6    0  0.1539652E-007  0.4525233E+03  0.7546771E-02  0.1026972E+00
         21   -1    0    0  502  501  0.00000000000E+00  0.00000000000E+00  0.58695445096E+03  0.58695445096E+03  0.00000000000E+00 0.  1.
         21   -1    0    0  501  502 -0.00000000000E+00 -0.00000000000E+00 -0.87220284997E+02  0.87220284997E+02  0.00000000000E+00 0.  1.
      99926    2    1    2    0    0  0.00000000000E+00  0.71054273576E-14  0.49973416596E+03  0.67417473595E+03  0.45252330102E+03 0.  0.
         25    1    3    3    0    0  0.26745577605E+02  0.30050519798E+02  0.12231357649E+03  0.17951734945E+03  0.12509000000E+03 0.  0.
         25    1    3    3    0    0 -0.61104686758E+02  0.16942509724E+01  0.62544893687E+02  0.15263035431E+03  0.12509000000E+03 0.  0.
         25    1    3    3    0    0  0.34359109153E+02 -0.31744770771E+02  0.31487569579E+03  0.34202703219E+03  0.12509000000E+03 0.  0.
<mgrwt>
<rscale>  2 0.45252330E+03</rscale>
<asrwt>0</asrwt>
<pdfrwt beam="1">  1       21 0.86316829E-01 0.45252330E+03</pdfrwt>
<pdfrwt beam="2">  1       21 0.12826513E-01 0.45252330E+03</pdfrwt>
<totfact> 0.55401120E+04</totfact>
</mgrwt>
</event>
<event>
 6    0  0.1539652E-007  0.4517960E+03  0.7546771E-02  0.1027188E+00
         21   -1    0    0  502  501  0.00000000000E+00  0.00000000000E+00  0.80996122479E+03  0.80996122479E+03  0.00000000000E+00 0. -1.
         21   -1    0    0  501  502 -0.00000000000E+00 -0.00000000000E+00 -0.63002887389E+02  0.63002887389E+02  0.00000000000E+00 0. -1.
      99926    2    1    2    0    0  0.00000000000E+00  0.00000000000E+00  0.74695833740E+03  0.87296411217E+03  0.45179595321E+03 0.  0.
         25    1    3    3    0    0  0.55887555333E+02 -0.50138058571E+02  0.40805072703E+03  0.43334760607E+03  0.12509000000E+03 0.  0.
         25    1    3    3    0    0 -0.44084075118E+02  0.74352471539E+02  0.18405036390E+03  0.23873361777E+03  0.12509000000E+03 0.  0.
         25    1    3    3    0    0 -0.11803480215E+02 -0.24214412968E+02  0.15485724647E+03  0.20088288833E+03  0.12509000000E+03 0.  0.
<mgrwt>
<rscale>  2 0.45179595E+03</rscale>
<asrwt>0</asrwt>
<pdfrwt beam="1">  1       21 0.11911194E+00 0.45179595E+03</pdfrwt>
<pdfrwt beam="2">  1       21 0.92651310E-02 0.45179595E+03</pdfrwt>
<totfact> 0.45555888E+04</totfact>
</mgrwt>
</event>
<event>
 6    0  0.1539652E-007  0.4541028E+03  0.7546771E-02  0.1026506E+00
         21   -1    0    0  502  501  0.00000000000E+00  0.00000000000E+00  0.86751757633E+02  0.86751757633E+02  0.00000000000E+00 0.  1.
         21   -1    0    0  501  502 -0.00000000000E+00 -0.00000000000E+00 -0.59425111178E+03  0.59425111178E+03  0.00000000000E+00 0.  1.
      99926    2    1    2    0    0  0.00000000000E+00  0.00000000000E+00 -0.50749935414E+03  0.68100286941E+03  0.45410275675E+03 0.  0.
         25    1    3    3    0    0  0.42919888308E+02 -0.20271615419E+02 -0.28230772415E+03  0.31240712927E+03  0.12509000000E+03 0.  0.
         25    1    3    3    0    0  0.31571885717E+02 -0.34872891353E+02 -0.80251834989E+02  0.15588703486E+03  0.12509000000E+03 0.  0.
         25    1    3    3    0    0 -0.74491774026E+02  0.55144506772E+02 -0.14493979500E+03  0.21270870528E+03  0.12509000000E+03 0.  0.
<mgrwt>
<rscale>  2 0.45410276E+03</rscale>
<asrwt>0</asrwt>
<pdfrwt beam="1">  1       21 0.12757611E-01 0.45410276E+03</pdfrwt>
<pdfrwt beam="2">  1       21 0.87389870E-01 0.45410276E+03</pdfrwt>
<totfact> 0.54329758E+04</totfact>
</mgrwt>
</event>
<event>
 6    0  0.1539652E-007  0.4567312E+03  0.7546771E-02  0.1025734E+00
         21   -1    0    0  502  501  0.00000000000E+00  0.00000000000E+00  0.21575047890E+03  0.21575047890E+03  0.00000000000E+00 0. -1.
         21   -1    0    0  501  502 -0.00000000000E+00 -0.00000000000E+00 -0.24171833046E+03  0.24171833046E+03  0.00000000000E+00 0. -1.
      99926    2    1    2    0    0  0.00000000000E+00 -0.71054273576E-14 -0.25967851554E+02  0.45746880936E+03  0.45673119252E+03 0.  0.
         25    1    3    3    0    0  0.43144890745E+02 -0.74429083997E+01 -0.91212797736E+02  0.16088555266E+03  0.12509000000E+03 0.  0.
         25    1    3    3    0    0 -0.10540952901E+02 -0.53792047411E+02 -0.61595705635E+01  0.13671190315E+03  0.12509000000E+03 0.  0.
         25    1    3    3    0    0 -0.32603937845E+02  0.61234955810E+02  0.71404516746E+02  0.15987135356E+03  0.12509000000E+03 0.  0.
<mgrwt>
<rscale>  2 0.45673119E+03</rscale>
<asrwt>0</asrwt>
<pdfrwt beam="1">  1       21 0.31728011E-01 0.45673119E+03</pdfrwt>
<pdfrwt beam="2">  1       21 0.35546813E-01 0.45673119E+03</pdfrwt>
<totfact> 0.67429124E+04</totfact>
</mgrwt>
</event>
<event>
 6    0  0.1539652E-007  0.4554914E+03  0.7546771E-02  0.1026097E+00
         21   -1    0    0  502  501  0.00000000000E+00  0.00000000000E+00  0.10328386351E+03  0.10328386351E+03  0.00000000000E+00 0. -1.
         21   -1    0    0  501  502 -0.00000000000E+00 -0.00000000000E+00 -0.50218984405E+03  0.50218984405E+03  0.00000000000E+00 0. -1.
      99926    2    1    2    0    0 -0.35527136788E-14  0.88817841970E-14 -0.39890598054E+03  0.60547370756E+03  0.45549141511E+03 0.  0.
         25    1    3    3    0    0  0.32964939444E+02  0.87220048252E+02 -0.19810320184E+03  0.25216346033E+03  0.12509000000E+03 0.  0.
         25    1    3    3    0    0 -0.10333747096E+02 -0.10124342699E+03 -0.93773965542E+02  0.18654244169E+03  0.12509000000E+03 0.  0.
         25    1    3    3    0    0 -0.22631192348E+02  0.14023378735E+02 -0.10702881316E+03  0.16676780554E+03  0.12509000000E+03 0.  0.
<mgrwt>
<rscale>  2 0.45549142E+03</rscale>
<asrwt>0</asrwt>
<pdfrwt beam="1">  1       21 0.15188804E-01 0.45549142E+03</pdfrwt>
<pdfrwt beam="2">  1       21 0.73851446E-01 0.45549142E+03</pdfrwt>
<totfact> 0.58116659E+04</totfact>
</mgrwt>
</event>
<event>
 6    0  0.1539652E-007  0.4596498E+03  0.7546771E-02  0.1024883E+00
         21   -1    0    0  502  501  0.00000000000E+00  0.00000000000E+00  0.69938449197E+02  0.69938449197E+02  0.00000000000E+00 0. -1.
         21   -1    0    0  501  502 -0.00000000000E+00 -0.00000000000E+00 -0.75522822425E+03  0.75522822425E+03  0.00000000000E+00 0. -1.
      99926    2    1    2    0    0 -0.71054273576E-14  0.48849813084E-14 -0.68528977505E+03  0.82516667344E+03  0.45964982669E+03 0.  0.
         25    1    3    3    0    0 -0.33708132057E+02  0.27145809410E+01 -0.14963467666E+03  0.19794355679E+03  0.12509000000E+03 0.  0.
         25    1    3    3    0    0 -0.44614315865E+02  0.80857914412E+02 -0.28339495524E+03  0.32324703905E+03  0.12509000000E+03 0.  0.
         25    1    3    3    0    0  0.78322447922E+02 -0.83572495353E+02 -0.25226014315E+03  0.30397607759E+03  0.12509000000E+03 0.  0.
<mgrwt>
<rscale>  2 0.45964983E+03</rscale>
<asrwt>0</asrwt>
<pdfrwt beam="1">  1       21 0.10285066E-01 0.45964983E+03</pdfrwt>
<pdfrwt beam="2">  1       21 0.11106298E+00 0.45964983E+03</pdfrwt>
<totfact> 0.44910416E+04</totfact>
</mgrwt>
</event>
<event>
 6    0  0.1539652E-007  0.4599487E+03  0.7546771E-02  0.1024796E+00
         21   -1    0    0  502  501  0.00000000000E+00  0.00000000000E+00  0.47609414566E+02  0.47609414566E+02  0.00000000000E+00 0. -1.
         21   -1    0    0  501  502 -0.00000000000E+00 -0.00000000000E+00 -0.11108768052E+04  0.11108768052E+04  0.00000000000E+00 0. -1.
      99926    2    1    2    0    0 -0.71054273576E-14  0.71054273576E-14 -0.10632673906E+04  0.11584862198E+04  0.45994866823E+03 0.  0.
         25    1    3    3    0    0 -0.26378792430E+02  0.48037037981E+02 -0.43362246411E+03  0.45462000307E+03  0.12509000000E+03 0.  0.
         25    1    3    3    0    0 -0.67333129722E+02 -0.53636967438E+02 -0.38072849852E+03  0.40989312305E+03  0.12509000000E+03 0.  0.
         25    1    3    3    0    0  0.93711922152E+02  0.55999294575E+01 -0.24891642802E+03  0.29397309367E+03  0.12509000000E+03 0.  0.
<mgrwt>
<rscale>  2 0.45994867E+03</rscale>
<asrwt>0</asrwt>
<pdfrwt beam="1">  1       21 0.70013854E-02 0.45994867E+03</pdfrwt>
<pdfrwt beam="2">  1       21 0.16336422E+00 0.45994867E+03</pdfrwt>
<totfact> 0.32238932E+04</totfact>
</mgrwt>
</event>
<event>
 6    0  0.1539652E-007  0.4332054E+03  0.7546771E-02  0.1032852E+00
         21   -1    0    0  502  501  0.00000000000E+00  0.00000000000E+00  0.13319997955E+03  0.13319997955E+03  0.00000000000E+00 0. -1.
         21   -1    0    0  501  502 -0.00000000000E+00 -0.00000000000E+00 -0.35222774055E+03  0.35222774055E+03  0.00000000000E+00 0. -1.
      99926    2    1    2    0    0 -0.71054273576E-14  0.00000000000E+00 -0.21902776099E+03  0.48542772010E+03  0.43320539165E+03 0.  0.
         25    1    3    3    0    0  0.37138060455E+01  0.24799984363E+02 -0.33067116861E+02  0.13179443804E+03  0.12509000000E+03 0.  0.
         25    1    3    3    0    0  0.46056538909E+02  0.47242806002E+02 -0.12659345663E+03  0.18980647738E+03  0.12509000000E+03 0.  0.
         25    1    3    3    0    0 -0.49770344955E+02 -0.72042790366E+02 -0.59367187506E+02  0.16382680468E+03  0.12509000000E+03 0.  0.
<mgrwt>
<rscale>  2 0.43320539E+03</rscale>
<asrwt>0</asrwt>
<pdfrwt beam="1">  1       21 0.19588232E-01 0.43320539E+03</pdfrwt>
<pdfrwt beam="2">  1       21 0.51798197E-01 0.43320539E+03</pdfrwt>
<totfact> 0.79137510E+04</totfact>
</mgrwt>
</event>
<event>
 6    0  0.1539652E-007  0.4426821E+03  0.7546771E-02  0.1029927E+00
         21   -1    0    0  502  501  0.00000000000E+00  0.00000000000E+00  0.14641583374E+04  0.14641583374E+04  0.00000000000E+00 0. -1.
         21   -1    0    0  501  502 -0.00000000000E+00 -0.00000000000E+00 -0.33460767216E+02  0.33460767216E+02  0.00000000000E+00 0. -1.
      99926    2    1    2    0    0  0.00000000000E+00  0.71054273576E-14  0.14306975701E+04  0.14976191046E+04  0.44268210397E+03 0.  0.
         25    1    3    3    0    0 -0.15161007284E+02 -0.40096212664E+02  0.31960408411E+03  0.34587836170E+03  0.12509000000E+03 0.  0.
         25    1    3    3    0    0  0.11932514231E+02 -0.51435074260E+02  0.35863984588E+03  0.38348141926E+03  0.12509000000E+03 0.  0.
         25    1    3    3    0    0  0.32284930532E+01  0.91531286924E+02  0.75245364015E+03  0.76825932362E+03  0.12509000000E+03 0.  0.
<mgrwt>
<rscale>  2 0.44268210E+03</rscale>
<asrwt>0</asrwt>
<pdfrwt beam="1">  1       21 0.21531736E+00 0.44268210E+03</pdfrwt>
<pdfrwt beam="2">  1       21 0.49207020E-02 0.44268210E+03</pdfrwt>
<totfact> 0.26261847E+04</totfact>
</mgrwt>
</event>
<event>
 6    0  0.1539652E-007  0.4681226E+03  0.7546771E-02  0.1022451E+00
         21   -1    0    0  502  501  0.00000000000E+00  0.00000000000E+00  0.19193540422E+04  0.19193540422E+04  0.00000000000E+00 0. -1.
         21   -1    0    0  501  502 -0.00000000000E+00 -0.00000000000E+00 -0.28543291091E+02  0.28543291091E+02  0.00000000000E+00 0. -1.
      99926    2    1    2    0    0  0.14210854715E-13  0.10658141036E-13  0.18908107511E+04  0.19478973333E+04  0.46812255290E+03 0.  0.
         25    1    3    3    0    0 -0.99019470058E+02  0.48374144409E+02  0.76802424394E+03  0.78590944814E+03  0.12509000000E+03 0.  0.
         25    1    3    3    0    0  0.90466833953E+02  0.16334329310E+02  0.66886192368E+03  0.68664025472E+03  0.12509000000E+03 0.  0.
         25    1    3    3    0    0  0.85526361051E+01 -0.64708473720E+02  0.45392458352E+03  0.47534763045E+03  0.12509000000E+03 0.  0.
<mgrwt>
<rscale>  2 0.46812255E+03</rscale>
<asrwt>0</asrwt>
<pdfrwt beam="1">  1       21 0.28225786E+00 0.46812255E+03</pdfrwt>
<pdfrwt beam="2">  1       21 0.41975441E-02 0.46812255E+03</pdfrwt>
<totfact> 0.13184618E+04</totfact>
</mgrwt>
</event>
<event>
 6    0  0.1539652E-007  0.4606294E+03  0.7546771E-02  0.1024599E+00
         21   -1    0    0  502  501  0.00000000000E+00  0.00000000000E+00  0.16375625870E+03  0.16375625870E+03  0.00000000000E+00 0. -1.
         21   -1    0    0  501  502 -0.00000000000E+00 -0.00000000000E+00 -0.32392575196E+03  0.32392575196E+03  0.00000000000E+00 0. -1.
      99926    2    1    2    0    0  0.00000000000E+00  0.13322676296E-14 -0.16016949327E+03  0.48768201066E+03  0.46062943561E+03 0.  0.
         25    1    3    3    0    0  0.12637033419E+02  0.20129212730E+01  0.25883325152E+02  0.12837913026E+03  0.12509000000E+03 0.  0.
         25    1    3    3    0    0 -0.18414630517E+02  0.55547793305E+02 -0.17227618957E+03  0.22079685131E+03  0.12509000000E+03 0.  0.
         25    1    3    3    0    0  0.57775970981E+01 -0.57560714578E+02 -0.13776628851E+02  0.13850602909E+03  0.12509000000E+03 0.  0.
<mgrwt>
<rscale>  2 0.46062944E+03</rscale>
<asrwt>0</asrwt>
<pdfrwt beam="1">  1       21 0.24081803E-01 0.46062944E+03</pdfrwt>
<pdfrwt beam="2">  1       21 0.47636139E-01 0.46062944E+03</pdfrwt>
<totfact> 0.63269989E+04</totfact>
</mgrwt>
</event>
<event>
 6    0  0.1539652E-007  0.4526448E+03  0.7546771E-02  0.1026936E+00
         21   -1    0    0  502  501  0.00000000000E+00  0.00000000000E+00  0.92339616493E+02  0.92339616493E+02  0.00000000000E+00 0.  1.
         21   -1    0    0  501  502 -0.00000000000E+00 -0.00000000000E+00 -0.55471133064E+03  0.55471133064E+03  0.00000000000E+00 0.  1.
      99926    2    1    2    0    0  0.00000000000E+00 -0.71054273576E-14 -0.46237171415E+03  0.64705094713E+03  0.45264481234E+03 0.  0.
         25    1    3    3    0    0  0.15896396042E+02 -0.90339882034E+02 -0.15316882252E+03  0.21799583937E+03  0.12509000000E+03 0.  0.
         25    1    3    3    0    0  0.56135896289E+02  0.42435273315E+02 -0.17402439022E+03  0.22557479417E+03  0.12509000000E+03 0.  0.
         25    1    3    3    0    0 -0.72032292331E+02  0.47904608719E+02 -0.13517850141E+03  0.20348031359E+03  0.12509000000E+03 0.  0.
<mgrwt>
<rscale>  2 0.45264481E+03</rscale>
<asrwt>0</asrwt>
<pdfrwt beam="1">  1       21 0.13579356E-01 0.45264481E+03</pdfrwt>
<pdfrwt beam="2">  1       21 0.81575192E-01 0.45264481E+03</pdfrwt>
<totfact> 0.56922046E+04</totfact>
</mgrwt>
</event>
<event>
 6    0  0.1539652E-007  0.4491239E+03  0.7546771E-02  0.1027984E+00
         21   -1    0    0  502  501  0.00000000000E+00  0.00000000000E+00  0.65300844232E+03  0.65300844232E+03  0.00000000000E+00 0.  1.
         21   -1    0    0  501  502 -0.00000000000E+00 -0.00000000000E+00 -0.77224230111E+02  0.77224230111E+02  0.00000000000E+00 0.  1.
      99926    2    1    2    0    0  0.71054273576E-14 -0.71054273576E-14  0.57578421221E+03  0.73023267243E+03  0.44912392149E+03 0.  0.
         25    1    3    3    0    0  0.28490081685E+02 -0.39406717815E+02  0.21243266986E+03  0.25127618568E+03  0.12509000000E+03 0.  0.
         25    1    3    3    0    0 -0.90870916721E+02  0.20896736840E+02  0.11665647773E+03  0.19480872417E+03  0.12509000000E+03 0.  0.
         25    1    3    3    0    0  0.62380835036E+02  0.18509980976E+02  0.24669506462E+03  0.28414776259E+03  0.12509000000E+03 0.  0.
<mgrwt>
<rscale>  2 0.44912392E+03</rscale>
<asrwt>0</asrwt>
<pdfrwt beam="1">  1       21 0.96030650E-01 0.44912392E+03</pdfrwt>
<pdfrwt beam="2">  1       21 0.11356505E-01 0.44912392E+03</pdfrwt>
<totfact> 0.53732142E+04</totfact>
</mgrwt>
</event>
<event>
 6    0  0.1539652E-007  0.4567382E+03  0.7546771E-02  0.1025731E+00
         21   -1    0    0  502  501  0.00000000000E+00  0.00000000000E+00  0.18312317623E+03  0.18312317623E+03  0.00000000000E+00 0. -1.
         21   -1    0    0  501  502 -0.00000000000E+00 -0.00000000000E+00 -0.28479437343E+03  0.28479437343E+03  0.00000000000E+00 0. -1.
      99926    2    1    2    0    0  0.00000000000E+00 -0.44408920985E-14 -0.10167119720E+03  0.46791754965E+03  0.45673821926E+03 0.  0.
         25    1    3    3    0    0 -0.30692872720E+02  0.38032990168E+02 -0.11337883014E+02  0.13477617174E+03  0.12509000000E+03 0.  0.
         25    1    3    3    0    0 -0.10897165334E+02 -0.33961811180E+02 -0.14102125766E+03  0.19185060866E+03  0.12509000000E+03 0.  0.
         25    1    3    3    0    0  0.41590038054E+02 -0.40711789880E+01  0.50687943475E+02  0.14129076926E+03  0.12509000000E+03 0.  0.
<mgrwt>
<rscale>  2 0.45673822E+03</rscale>
<asrwt>0</asrwt>
<pdfrwt beam="1">  1       21 0.26929879E-01 0.45673822E+03</pdfrwt>
<pdfrwt beam="2">  1       21 0.41881525E-01 0.45673822E+03</pdfrwt>
<totfact> 0.66667339E+04</totfact>
</mgrwt>
</event>
<event>
 6    0  0.1539652E-007  0.4637402E+03  0.7546771E-02  0.1023702E+00
         21   -1    0    0  502  501  0.00000000000E+00  0.00000000000E+00  0.10169483750E+03  0.10169483750E+03  0.00000000000E+00 0. -1.
         21   -1    0    0  501  502 -0.00000000000E+00 -0.00000000000E+00 -0.52867712268E+03  0.52867712268E+03  0.00000000000E+00 0. -1.
      99926    2    1    2    0    0  0.00000000000E+00  0.00000000000E+00 -0.42698228519E+03  0.63037196018E+03  0.46374016035E+03 0.  0.
         25    1    3    3    0    0  0.55736155509E+02  0.39699403396E+01 -0.15174478602E+03  0.20444135502E+03  0.12509000000E+03 0.  0.
         25    1    3    3    0    0 -0.88318363436E+02 -0.73309369403E+02 -0.98596391085E+02  0.19632410295E+03  0.12509000000E+03 0.  0.
         25    1    3    3    0    0  0.32582207927E+02  0.69339429064E+02 -0.17664110808E+03  0.22960650222E+03  0.12509000000E+03 0.  0.
<mgrwt>
<rscale>  2 0.46374016E+03</rscale>
<asrwt>0</asrwt>
<pdfrwt beam="1">  1       21 0.14955123E-01 0.46374016E+03</pdfrwt>
<pdfrwt beam="2">  1       21 0.77746636E-01 0.46374016E+03</pdfrwt>
<totfact> 0.53087754E+04</totfact>
</mgrwt>
</event>
<event>
 6    0  0.1539652E-007  0.4574795E+03  0.7546771E-02  0.1025515E+00
         21   -1    0    0  502  501  0.00000000000E+00  0.00000000000E+00  0.15176361915E+03  0.15176361915E+03  0.00000000000E+00 0. -1.
         21   -1    0    0  501  502 -0.00000000000E+00 -0.00000000000E+00 -0.34475897166E+03  0.34475897166E+03  0.00000000000E+00 0. -1.
      99926    2    1    2    0    0 -0.35527136788E-14  0.00000000000E+00 -0.19299535252E+03  0.49652259081E+03  0.45747948270E+03 0.  0.
         25    1    3    3    0    0 -0.83336350180E+02  0.21242658773E+02 -0.67223830311E+02  0.16602032790E+03  0.12509000000E+03 0.  0.
         25    1    3    3    0    0 -0.31421908619E+02 -0.17005239240E+02 -0.86459485336E+02  0.15620264149E+03  0.12509000000E+03 0.  0.
         25    1    3    3    0    0  0.11475825880E+03 -0.42374195331E+01 -0.39312036869E+02  0.17429962143E+03  0.12509000000E+03 0.  0.
<mgrwt>
<rscale>  2 0.45747948E+03</rscale>
<asrwt>0</asrwt>
<pdfrwt beam="1">  1       21 0.22318180E-01 0.45747948E+03</pdfrwt>
<pdfrwt beam="2">  1       21 0.50699848E-01 0.45747948E+03</pdfrwt>
<totfact> 0.64241811E+04</totfact>
</mgrwt>
</event>
<event>
 6    0  0.1539652E-007  0.4569130E+03  0.7546771E-02  0.1025680E+00
         21   -1    0    0  502  501  0.00000000000E+00  0.00000000000E+00  0.36332843900E+03  0.36332843900E+03  0.00000000000E+00 0.  1.
         21   -1    0    0  501  502 -0.00000000000E+00 -0.00000000000E+00 -0.14365067565E+03  0.14365067565E+03  0.00000000000E+00 0.  1.
      99926    2    1    2    0    0  0.71054273576E-14 -0.35527136788E-14  0.21967776335E+03  0.50697911465E+03  0.45691301468E+03 0.  0.
         25    1    3    3    0    0 -0.25269323744E+02 -0.30152325909E+02  0.88935224282E+02  0.15844457611E+03  0.12509000000E+03 0.  0.
         25    1    3    3    0    0  0.65953429780E+02 -0.31010682100E+02 -0.11679261797E+02  0.14524266095E+03  0.12509000000E+03 0.  0.
         25    1    3    3    0    0 -0.40684106036E+02  0.61163008009E+02  0.14242180087E+03  0.20329187759E+03  0.12509000000E+03 0.  0.
<mgrwt>
<rscale>  2 0.45691301E+03</rscale>
<asrwt>0</asrwt>
<pdfrwt beam="1">  1       21 0.53430653E-01 0.45691301E+03</pdfrwt>
<pdfrwt beam="2">  1       21 0.21125099E-01 0.45691301E+03</pdfrwt>
<totfact> 0.63808707E+04</totfact>
</mgrwt>
</event>
<event>
 6    0  0.1539652E-007  0.4901251E+03  0.7546771E-02  0.1016389E+00
         21   -1    0    0  502  501  0.00000000000E+00  0.00000000000E+00  0.73161527261E+02  0.73161527261E+02  0.00000000000E+00 0.  1.
         21   -1    0    0  501  502 -0.00000000000E+00 -0.00000000000E+00 -0.82086371895E+03  0.82086371895E+03  0.00000000000E+00 0.  1.
      99926    2    1    2    0    0  0.00000000000E+00  0.35527136788E-14 -0.74770219169E+03  0.89402524621E+03  0.49012505895E+03 0.  0.
         25    1    3    3    0    0  0.50521079975E+01 -0.11736516919E+03 -0.14906407911E+03  0.22730533323E+03  0.12509000000E+03 0.  0.
         25    1    3    3    0    0 -0.71866998587E+01  0.10117325161E+03 -0.26585166847E+03  0.31082518113E+03  0.12509000000E+03 0.  0.
         25    1    3    3    0    0  0.21345918612E+01  0.16191917584E+02 -0.33278644411E+03  0.35589473185E+03  0.12509000000E+03 0.  0.
<mgrwt>
<rscale>  2 0.49012506E+03</rscale>
<asrwt>0</asrwt>
<pdfrwt beam="1">  1       21 0.10759048E-01 0.49012506E+03</pdfrwt>
<pdfrwt beam="2">  1       21 0.12071525E+00 0.49012506E+03</pdfrwt>
<totfact> 0.33334193E+04</totfact>
</mgrwt>
</event>
<event>
 6    0  0.1539652E-007  0.4603575E+03  0.7546771E-02  0.1024678E+00
         21   -1    0    0  502  501  0.00000000000E+00  0.00000000000E+00  0.80295825742E+02  0.80295825742E+02  0.00000000000E+00 0.  1.
         21   -1    0    0  501  502 -0.00000000000E+00 -0.00000000000E+00 -0.65983834850E+03  0.65983834850E+03  0.00000000000E+00 0.  1.
      99926    2    1    2    0    0  0.00000000000E+00  0.00000000000E+00 -0.57954252276E+03  0.74013417424E+03  0.46035753518E+03 0.  0.
         25    1    3    3    0    0 -0.21345208934E+02 -0.44984147538E+02 -0.68620936074E+02  0.15111430257E+03  0.12509000000E+03 0.  0.
         25    1    3    3    0    0 -0.16510587482E+02  0.89402321821E+02 -0.28565793588E+03  0.32482816854E+03  0.12509000000E+03 0.  0.
         25    1    3    3    0    0  0.37855796416E+02 -0.44418174282E+02 -0.22526365080E+03  0.26419170313E+03  0.12509000000E+03 0.  0.
<mgrwt>
<rscale>  2 0.46035754E+03</rscale>
<asrwt>0</asrwt>
<pdfrwt beam="1">  1       21 0.11808209E-01 0.46035754E+03</pdfrwt>
<pdfrwt beam="2">  1       21 0.97035054E-01 0.46035754E+03</pdfrwt>
<totfact> 0.48693956E+04</totfact>
</mgrwt>
</event>
<event>
 6    0  0.1539652E-007  0.4480731E+03  0.7546771E-02  0.1028298E+00
         21   -1    0    0  502  501  0.00000000000E+00  0.00000000000E+00  0.63339331595E+03  0.63339331595E+03  0.00000000000E+00 0.  1.
         21   -1    0    0  501  502 -0.00000000000E+00 -0.00000000000E+00 -0.79243612541E+02  0.79243612541E+02  0.00000000000E+00 0.  1.
      99926    2    1    2    0    0  0.00000000000E+00  0.00000000000E+00  0.55414970341E+03  0.71263692849E+03  0.44807309455E+03 0.  0.
         25    1    3    3    0    0  0.18728213596E+01 -0.81659263344E+02  0.24901276326E+03  0.29039043909E+03  0.12509000000E+03 0.  0.
         25    1    3    3    0    0 -0.10969191470E+02 -0.98173478933E+01  0.81534859640E+02  0.15004047760E+03  0.12509000000E+03 0.  0.
         25    1    3    3    0    0  0.90963701108E+01  0.91476611237E+02  0.22360208051E+03  0.27220601180E+03  0.12509000000E+03 0.  0.
<mgrwt>
<rscale>  2 0.44807309E+03</rscale>
<asrwt>0</asrwt>
<pdfrwt beam="1">  1       21 0.93146073E-01 0.44807309E+03</pdfrwt>
<pdfrwt beam="2">  1       21 0.11653473E-01 0.44807309E+03</pdfrwt>
<totfact> 0.55167643E+04</totfact>
</mgrwt>
</event>
<event>
 6    0  0.1539652E-007  0.4657870E+03  0.7546771E-02  0.1023116E+00
         21   -1    0    0  502  501  0.00000000000E+00  0.00000000000E+00  0.21016309586E+03  0.21016309586E+03  0.00000000000E+00 0. -1.
         21   -1    0    0  501  502 -0.00000000000E+00 -0.00000000000E+00 -0.25808232467E+03  0.25808232467E+03  0.00000000000E+00 0. -1.
      99926    2    1    2    0    0  0.00000000000E+00  0.00000000000E+00 -0.47919228808E+02  0.46824542053E+03  0.46578699140E+03 0.  0.
         25    1    3    3    0    0 -0.36027987793E+02  0.91355748524E+02 -0.98636061188E+02  0.18713756801E+03  0.12509000000E+03 0.  0.
         25    1    3    3    0    0 -0.38491489423E+01 -0.69103988340E+02  0.18993492926E+02  0.14421663574E+03  0.12509000000E+03 0.  0.
         25    1    3    3    0    0  0.39877136735E+02 -0.22251760184E+02  0.31723339455E+02  0.13689121678E+03  0.12509000000E+03 0.  0.
<mgrwt>
<rscale>  2 0.46578699E+03</rscale>
<asrwt>0</asrwt>
<pdfrwt beam="1">  1       21 0.30906338E-01 0.46578699E+03</pdfrwt>
<pdfrwt beam="2">  1       21 0.37953283E-01 0.46578699E+03</pdfrwt>
<totfact> 0.62069621E+04</totfact>
</mgrwt>
</event>
<event>
 6    0  0.1539652E-007  0.4520501E+03  0.7546771E-02  0.1027112E+00
         21   -1    0    0  502  501  0.00000000000E+00  0.00000000000E+00  0.64190734076E+02  0.64190734076E+02  0.00000000000E+00 0.  1.
         21   -1    0    0  501  502 -0.00000000000E+00 -0.00000000000E+00 -0.79586759746E+03  0.79586759746E+03  0.00000000000E+00 0.  1.
      99926    2    1    2    0    0  0.00000000000E+00  0.00000000000E+00 -0.73167686338E+03  0.86005833153E+03  0.45205010920E+03 0.  0.
         25    1    3    3    0    0  0.65819380779E+02  0.40326001953E+02 -0.16640875901E+03  0.22203098995E+03  0.12509000000E+03 0.  0.
         25    1    3    3    0    0  0.29404785964E+02 -0.13533365978E+02 -0.32401798620E+03  0.34883084284E+03  0.12509000000E+03 0.  0.
         25    1    3    3    0    0 -0.95224166743E+02 -0.26792635975E+02 -0.24125011817E+03  0.28919649875E+03  0.12509000000E+03 0.  0.
<mgrwt>
<rscale>  2 0.45205011E+03</rscale>
<asrwt>0</asrwt>
<pdfrwt beam="1">  1       21 0.94398142E-02 0.45205011E+03</pdfrwt>
<pdfrwt beam="2">  1       21 0.11703935E+00 0.45205011E+03</pdfrwt>
<totfact> 0.46048941E+04</totfact>
</mgrwt>
</event>
<event>
 6    0  0.1539652E-007  0.4541816E+03  0.7546771E-02  0.1026482E+00
         21   -1    0    0  502  501  0.00000000000E+00  0.00000000000E+00  0.28150067250E+03  0.28150067250E+03  0.00000000000E+00 0. -1.
         21   -1    0    0  501  502 -0.00000000000E+00 -0.00000000000E+00 -0.18319756315E+03  0.18319756315E+03  0.00000000000E+00 0. -1.
      99926    2    1    2    0    0  0.00000000000E+00  0.00000000000E+00  0.98303109345E+02  0.46469823565E+03  0.45418162546E+03 0.  0.
         25    1    3    3    0    0  0.84329187857E+02  0.77426363484E+02  0.22960522980E+02  0.17111676540E+03  0.12509000000E+03 0.  0.
         25    1    3    3    0    0 -0.10603411308E+02 -0.44644620835E+02  0.19808019303E+02  0.13470501189E+03  0.12509000000E+03 0.  0.
         25    1    3    3    0    0 -0.73725776549E+02 -0.32781742648E+02  0.55534567062E+02  0.15887645835E+03  0.12509000000E+03 0.  0.
<mgrwt>
<rscale>  2 0.45418163E+03</rscale>
<asrwt>0</asrwt>
<pdfrwt beam="1">  1       21 0.41397157E-01 0.45418163E+03</pdfrwt>
<pdfrwt beam="2">  1       21 0.26940818E-01 0.45418163E+03</pdfrwt>
<totfact> 0.68274757E+04</totfact>
</mgrwt>
</event>
<event>
 6    0  0.1539652E-007  0.4628541E+03  0.7546771E-02  0.1023957E+00
         21   -1    0    0  502  501  0.00000000000E+00  0.00000000000E+00  0.24389122711E+03  0.24389122711E+03  0.00000000000E+00 0.  1.
         21   -1    0    0  501  502 -0.00000000000E+00 -0.00000000000E+00 -0.21959983783E+03  0.21959983783E+03  0.00000000000E+00 0.  1.
      99926    2    1    2    0    0  0.00000000000E+00 -0.71054273576E-14  0.24291389284E+02  0.46349106494E+03  0.46285407602E+03 0.  0.
         25    1    3    3    0    0 -0.19128270954E+02 -0.87283319076E+02  0.20235437684E+01  0.15373962198E+03  0.12509000000E+03 0.  0.
         25    1    3    3    0    0 -0.39872428496E+02  0.60044421223E+02 -0.48138088445E+02  0.15218385832E+03  0.12509000000E+03 0.  0.
         25    1    3    3    0    0  0.59000699449E+02  0.27238897853E+02  0.70405933961E+02  0.15756758464E+03  0.12509000000E+03 0.  0.
<mgrwt>
<rscale>  2 0.46285408E+03</rscale>
<asrwt>0</asrwt>
<pdfrwt beam="1">  1       21 0.35866357E-01 0.46285408E+03</pdfrwt>
<pdfrwt beam="2">  1       21 0.32294094E-01 0.46285408E+03</pdfrwt>
<totfact> 0.63833221E+04</totfact>
</mgrwt>
</event>
<event>
 6    0  0.1539652E-007  0.4845754E+03  0.7546771E-02  0.1017885E+00
         21   -1    0    0  502  501  0.00000000000E+00  0.00000000000E+00  0.12963419091E+04  0.12963419091E+04  0.00000000000E+00 0.  1.
         21   -1    0    0  501  502 -0.00000000000E+00 -0.00000000000E+00 -0.45283840859E+02  0.45283840859E+02  0.00000000000E+00 0.  1.
      99926    2    1    2    0    0  0.00000000000E+00  0.00000000000E+00  0.12510580682E+04  0.13416257499E+04  0.48457544597E+03 0.  0.
         25    1    3    3    0    0  0.81513905559E+02  0.51596893508E+02  0.41829665831E+03  0.44713125441E+03  0.12509000000E+03 0.  0.
         25    1    3    3    0    0 -0.18124857718E+02  0.64265753713E+02  0.30728169028E+03  0.33842006863E+03  0.12509000000E+03 0.  0.
         25    1    3    3    0    0 -0.63389047841E+02 -0.11586264722E+03  0.52547971961E+03  0.55607442688E+03  0.12509000000E+03 0.  0.
<mgrwt>
<rscale>  2 0.48457545E+03</rscale>
<asrwt>0</asrwt>
<pdfrwt beam="1">  1       21 0.19063849E+00 0.48457545E+03</pdfrwt>
<pdfrwt beam="2">  1       21 0.66593892E-02 0.48457545E+03</pdfrwt>
<totfact> 0.22332874E+04</totfact>
</mgrwt>
</event>
<event>
 6    0  0.1539652E-007  0.4514991E+03  0.7546771E-02  0.1027276E+00
         21   -1    0    0  502  501  0.00000000000E+00  0.00000000000E+00  0.62933684003E+03  0.62933684003E+03  0.00000000000E+00 0. -1.
         21   -1    0    0  501  502 -0.00000000000E+00 -0.00000000000E+00 -0.80978654223E+02  0.80978654223E+02  0.00000000000E+00 0. -1.
      99926    2    1    2    0    0  0.35527136788E-14  0.00000000000E+00  0.54835818581E+03  0.71031549426E+03  0.45149906028E+03 0.  0.
         25    1    3    3    0    0  0.45507794545E+02 -0.52469951745E+02  0.18005932856E+03  0.22998461927E+03  0.12509000000E+03 0.  0.
         25    1    3    3    0    0 -0.23194041755E+02  0.10901510892E+03  0.17581724186E+03  0.24286100589E+03  0.12509000000E+03 0.  0.
         25    1    3    3    0    0 -0.22313752790E+02 -0.56545157179E+02  0.19248161539E+03  0.23746986910E+03  0.12509000000E+03 0.  0.
<mgrwt>
<rscale>  2 0.45149906E+03</rscale>
<asrwt>0</asrwt>
<pdfrwt beam="1">  1       21 0.92549533E-01 0.45149906E+03</pdfrwt>
<pdfrwt beam="2">  1       21 0.11908626E-01 0.45149906E+03</pdfrwt>
<totfact> 0.53813461E+04</totfact>
</mgrwt>
</event>
<event>
 6    0  0.1539652E-007  0.4611430E+03  0.7546771E-02  0.1024450E+00
         21   -1    0    0  502  501  0.00000000000E+00  0.00000000000E+00  0.45842057005E+03  0.45842057005E+03  0.00000000000E+00 0. -1.
         21   -1    0    0  501  502 -0.00000000000E+00 -0.00000000000E+00 -0.11597038519E+03  0.11597038519E+03  0.00000000000E+00 0. -1.
      99926    2    1    2    0    0  0.00000000000E+00  0.00000000000E+00  0.34245018486E+03  0.57439095524E+03  0.46114297171E+03 0.  0.
         25    1    3    3    0    0  0.38692037350E+02  0.66354415670E+02  0.50494842683E+02  0.15523279122E+03  0.12509000000E+03 0.  0.
         25    1    3    3    0    0  0.42298256619E+01  0.35628883576E+02  0.96121214117E+02  0.16178412986E+03  0.12509000000E+03 0.  0.
         25    1    3    3    0    0 -0.42921863012E+02 -0.10198329925E+03  0.19583412806E+03  0.25737403416E+03  0.12509000000E+03 0.  0.
<mgrwt>
<rscale>  2 0.46114297E+03</rscale>
<asrwt>0</asrwt>
<pdfrwt beam="1">  1       21 0.67414789E-01 0.46114297E+03</pdfrwt>
<pdfrwt beam="2">  1       21 0.17054469E-01 0.46114297E+03</pdfrwt>
<totfact> 0.57441568E+04</totfact>
</mgrwt>
</event>
<event>
 6    0  0.1539652E-007  0.4666596E+03  0.7546771E-02  0.1022867E+00
         21   -1    0    0  502  501  0.00000000000E+00  0.00000000000E+00  0.66304539513E+03  0.66304539513E+03  0.00000000000E+00 0.  1.
         21   -1    0    0  501  502 -0.00000000000E+00 -0.00000000000E+00 -0.82110194254E+02  0.82110194254E+02  0.00000000000E+00 0.  1.
      99926    2    1    2    0    0  0.00000000000E+00  0.00000000000E+00  0.58093520087E+03  0.74515558938E+03  0.46665955982E+03 0.  0.
         25    1    3    3    0    0 -0.44056531303E+02  0.95392241248E+02  0.14324761108E+03  0.21727412138E+03  0.12509000000E+03 0.  0.
         25    1    3    3    0    0 -0.13491861722E+02 -0.41402227139E+02  0.12565885588E+03  0.18257554849E+03  0.12509000000E+03 0.  0.
         25    1    3    3    0    0  0.57548393025E+02 -0.53990014109E+02  0.31202873392E+03  0.34530591952E+03  0.12509000000E+03 0.  0.
<mgrwt>
<rscale>  2 0.46665956E+03</rscale>
<asrwt>0</asrwt>
<pdfrwt beam="1">  1       21 0.97506673E-01 0.46665956E+03</pdfrwt>
<pdfrwt beam="2">  1       21 0.12075029E-01 0.46665956E+03</pdfrwt>
<totfact> 0.46142231E+04</totfact>
</mgrwt>
</event>
<event>
 6    0  0.1539652E-007  0.4511844E+03  0.7546771E-02  0.1027369E+00
         21   -1    0    0  502  501  0.00000000000E+00  0.00000000000E+00  0.19346121957E+03  0.19346121957E+03  0.00000000000E+00 0.  1.
         21   -1    0    0  501  502 -0.00000000000E+00 -0.00000000000E+00 -0.26305962835E+03  0.26305962835E+03  0.00000000000E+00 0.  1.
      99926    2    1    2    0    0  0.10658141036E-13  0.00000000000E+00 -0.69598408777E+02  0.45652084793E+03  0.45118438147E+03 0.  0.
         25    1    3    3    0    0  0.10605763899E+03  0.18793339532E+02  0.47074853724E+00  0.16507314168E+03  0.12509000000E+03 0.  0.
         25    1    3    3    0    0 -0.78580091591E+02 -0.10147913763E+02 -0.65225570617E+01  0.14821559567E+03  0.12509000000E+03 0.  0.
         25    1    3    3    0    0 -0.27477547401E+02 -0.86454257689E+01 -0.63546600253E+02  0.14323211058E+03  0.12509000000E+03 0.  0.
<mgrwt>
<rscale>  2 0.45118438E+03</rscale>
<asrwt>0</asrwt>
<pdfrwt beam="1">  1       21 0.28450179E-01 0.45118438E+03</pdfrwt>
<pdfrwt beam="2">  1       21 0.38685239E-01 0.45118438E+03</pdfrwt>
<totfact> 0.70557461E+04</totfact>
</mgrwt>
</event>
<event>
 6    0  0.1539652E-007  0.4565136E+03  0.7546771E-02  0.1025797E+00
         21   -1    0    0  502  501  0.00000000000E+00  0.00000000000E+00  0.13358086813E+03  0.13358086813E+03  0.00000000000E+00 0.  1.
         21   -1    0    0  501  502 -0.00000000000E+00 -0.00000000000E+00 -0.39003470022E+03  0.39003470022E+03  0.00000000000E+00 0.  1.
      99926    2    1    2    0    0  0.88817841970E-15 -0.35527136788E-14 -0.25645383209E+03  0.52361556835E+03  0.45651363115E+03 0.  0.
         25    1    3    3    0    0  0.58400621184E+01  0.24226668400E+02 -0.54663597063E+02  0.13876834917E+03  0.12509000000E+03 0.  0.
         25    1    3    3    0    0  0.68716361723E+02  0.14782284535E+02 -0.14200428296E+02  0.14418604152E+03  0.12509000000E+03 0.  0.
         25    1    3    3    0    0 -0.74556423842E+02 -0.39008952935E+02 -0.18758980673E+03  0.24066117766E+03  0.12509000000E+03 0.  0.
<mgrwt>
<rscale>  2 0.45651363E+03</rscale>
<asrwt>0</asrwt>
<pdfrwt beam="1">  1       21 0.19644246E-01 0.45651363E+03</pdfrwt>
<pdfrwt beam="2">  1       21 0.57358044E-01 0.45651363E+03</pdfrwt>
<totfact> 0.62882759E+04</totfact>
</mgrwt>
</event>
<event>
 6    0  0.1539652E-007  0.4573090E+03  0.7546771E-02  0.1025565E+00
         21   -1    0    0  502  501  0.00000000000E+00  0.00000000000E+00  0.68519323775E+03  0.68519323775E+03  0.00000000000E+00 0. -1.
         21   -1    0    0  501  502 -0.00000000000E+00 -0.00000000000E+00 -0.76303846632E+02  0.76303846632E+02  0.00000000000E+00 0. -1.
      99926    2    1    2    0    0  0.00000000000E+00  0.00000000000E+00  0.60888939112E+03  0.76149708438E+03  0.45730899718E+03 0.  0.
         25    1    3    3    0    0  0.32538873398E+02  0.95467896175E+01  0.65070709581E+02  0.14502284241E+03  0.12509000000E+03 0.  0.
         25    1    3    3    0    0  0.26878810057E+02 -0.88457989343E+01  0.14142541425E+03  0.19091719274E+03  0.12509000000E+03 0.  0.
         25    1    3    3    0    0 -0.59417683455E+02 -0.70099068324E+00  0.40239326729E+03  0.42555704923E+03  0.12509000000E+03 0.  0.
<mgrwt>
<rscale>  2 0.45730900E+03</rscale>
<asrwt>0</asrwt>
<pdfrwt beam="1">  1       21 0.10076371E+00 0.45730900E+03</pdfrwt>
<pdfrwt beam="2">  1       21 0.11221154E-01 0.45730900E+03</pdfrwt>
<totfact> 0.48792615E+04</totfact>
</mgrwt>
</event>
<event>
 6    0  0.1539652E-007  0.4757622E+03  0.7546771E-02  0.1020306E+00
         21   -1    0    0  502  501  0.00000000000E+00  0.00000000000E+00  0.72178352813E+02  0.72178352813E+02  0.00000000000E+00 0.  1.
         21   -1    0    0  501  502 -0.00000000000E+00 -0.00000000000E+00 -0.78399441811E+03  0.78399441811E+03  0.00000000000E+00 0.  1.
      99926    2    1    2    0    0  0.00000000000E+00  0.00000000000E+00 -0.71181606529E+03  0.85617277092E+03  0.47576223353E+03 0.  0.
         25    1    3    3    0    0 -0.13056134065E+02  0.62145653974E+02 -0.10478879887E+03  0.17510209997E+03  0.12509000000E+03 0.  0.
         25    1    3    3    0    0  0.55306358585E+02 -0.13879000514E+01 -0.43430458359E+03  0.45533361285E+03  0.12509000000E+03 0.  0.
         25    1    3    3    0    0 -0.42250224519E+02 -0.60757753923E+02 -0.17272268284E+03  0.22573705810E+03  0.12509000000E+03 0.  0.
<mgrwt>
<rscale>  2 0.47576223E+03</rscale>
<asrwt>0</asrwt>
<pdfrwt beam="1">  1       21 0.10614464E-01 0.47576223E+03</pdfrwt>
<pdfrwt beam="2">  1       21 0.11529330E+00 0.47576223E+03</pdfrwt>
<totfact> 0.38500336E+04</totfact>
</mgrwt>
</event>
<event>
 6    0  0.1539652E-007  0.4709687E+03  0.7546771E-02  0.1021647E+00
         21   -1    0    0  502  501  0.00000000000E+00  0.00000000000E+00  0.12058041114E+04  0.12058041114E+04  0.00000000000E+00 0.  1.
         21   -1    0    0  501  502 -0.00000000000E+00 -0.00000000000E+00 -0.45988301275E+02  0.45988301275E+02  0.00000000000E+00 0.  1.
      99926    2    1    2    0    0  0.00000000000E+00  0.00000000000E+00  0.11598158102E+04  0.12517924127E+04  0.47096871554E+03 0.  0.
         25    1    3    3    0    0 -0.84613959880E+01  0.11815730666E+03  0.56583100729E+03  0.59147694905E+03  0.12509000000E+03 0.  0.
         25    1    3    3    0    0 -0.38064145346E+01 -0.78944701888E+02  0.23242074225E+03  0.27552434425E+03  0.12509000000E+03 0.  0.
         25    1    3    3    0    0  0.12267810523E+02 -0.39212604769E+02  0.36156406061E+03  0.38479111941E+03  0.12509000000E+03 0.  0.
<mgrwt>
<rscale>  2 0.47096872E+03</rscale>
<asrwt>0</asrwt>
<pdfrwt beam="1">  1       21 0.17732411E+00 0.47096872E+03</pdfrwt>
<pdfrwt beam="2">  1       21 0.67629863E-02 0.47096872E+03</pdfrwt>
<totfact> 0.27028166E+04</totfact>
</mgrwt>
</event>
<event>
 6    0  0.1539652E-007  0.4564900E+03  0.7546771E-02  0.1025804E+00
         21   -1    0    0  502  501  0.00000000000E+00  0.00000000000E+00  0.48002233417E+03  0.48002233417E+03  0.00000000000E+00 0.  1.
         21   -1    0    0  501  502 -0.00000000000E+00 -0.00000000000E+00 -0.10852781960E+03  0.10852781960E+03  0.00000000000E+00 0.  1.
      99926    2    1    2    0    0  0.00000000000E+00  0.71054273576E-14  0.37149451457E+03  0.58855015377E+03  0.45648998800E+03 0.  0.
         25    1    3    3    0    0  0.19732714386E+02 -0.96493041106E+02  0.17182415806E+03  0.23424631564E+03  0.12509000000E+03 0.  0.
         25    1    3    3    0    0 -0.96741482451E+01  0.62623870282E+02  0.35024187837E+02  0.14453214212E+03  0.12509000000E+03 0.  0.
         25    1    3    3    0    0 -0.10058566141E+02  0.33869170824E+02  0.16464616868E+03  0.20977169601E+03  0.12509000000E+03 0.  0.
<mgrwt>
<rscale>  2 0.45648999E+03</rscale>
<asrwt>0</asrwt>
<pdfrwt beam="1">  1       21 0.70591519E-01 0.45648999E+03</pdfrwt>
<pdfrwt beam="2">  1       21 0.15959974E-01 0.45648999E+03</pdfrwt>
<totfact> 0.58694341E+04</totfact>
</mgrwt>
</event>
<event>
 6    0  0.1539652E-007  0.4599639E+03  0.7546771E-02  0.1024792E+00
         21   -1    0    0  502  501  0.00000000000E+00  0.00000000000E+00  0.31311119827E+03  0.31311119827E+03  0.00000000000E+00 0.  1.
         21   -1    0    0  501  502 -0.00000000000E+00 -0.00000000000E+00 -0.16892303605E+03  0.16892303605E+03  0.00000000000E+00 0.  1.
      99926    2    1    2    0    0  0.00000000000E+00  0.00000000000E+00  0.14418816222E+03  0.48203423432E+03  0.45996388655E+03 0.  0.
         25    1    3    3    0    0 -0.25022635440E+02 -0.14995993917E+02 -0.57247991527E+02  0.14062664311E+03  0.12509000000E+03 0.  0.
         25    1    3    3    0    0 -0.28559823704E+02 -0.15710007277E+02  0.59201561942E+02  0.14217876387E+03  0.12509000000E+03 0.  0.
         25    1    3    3    0    0  0.53582459144E+02  0.30706001194E+02  0.14223459181E+03  0.19922882734E+03  0.12509000000E+03 0.  0.
<mgrwt>
<rscale>  2 0.45996389E+03</rscale>
<asrwt>0</asrwt>
<pdfrwt beam="1">  1       21 0.46045765E-01 0.45996389E+03</pdfrwt>
<pdfrwt beam="2">  1       21 0.24841623E-01 0.45996389E+03</pdfrwt>
<totfact> 0.63993597E+04</totfact>
</mgrwt>
</event>
<event>
 6    0  0.1539652E-007  0.4552457E+03  0.7546771E-02  0.1026169E+00
         21   -1    0    0  502  501  0.00000000000E+00  0.00000000000E+00  0.22798103112E+03  0.22798103112E+03  0.00000000000E+00 0. -1.
         21   -1    0    0  501  502 -0.00000000000E+00 -0.00000000000E+00 -0.22726521730E+03  0.22726521730E+03  0.00000000000E+00 0. -1.
      99926    2    1    2    0    0  0.71054273576E-14  0.00000000000E+00  0.71581382072E+00  0.45524624841E+03  0.45524568565E+03 0.  0.
         25    1    3    3    0    0 -0.40437769760E+02 -0.33121093059E+02  0.60513652826E+02  0.14846423915E+03  0.12509000000E+03 0.  0.
         25    1    3    3    0    0  0.94468146405E+02 -0.77521883279E+01 -0.15115389490E+02  0.15767152631E+03  0.12509000000E+03 0.  0.
         25    1    3    3    0    0 -0.54030376646E+02  0.40873281387E+02 -0.44682449516E+02  0.14911048295E+03  0.12509000000E+03 0.  0.
<mgrwt>
<rscale>  2 0.45524569E+03</rscale>
<asrwt>0</asrwt>
<pdfrwt beam="1">  1       21 0.33526623E-01 0.45524569E+03</pdfrwt>
<pdfrwt beam="2">  1       21 0.33421355E-01 0.45524569E+03</pdfrwt>
<totfact> 0.68393582E+04</totfact>
</mgrwt>
</event>
<event>
 6    0  0.1539652E-007  0.4522373E+03  0.7546771E-02  0.1027057E+00
         21   -1    0    0  502  501  0.00000000000E+00  0.00000000000E+00  0.88933911734E+02  0.88933911734E+02  0.00000000000E+00 0.  1.
         21   -1    0    0  501  502 -0.00000000000E+00 -0.00000000000E+00 -0.57491717003E+03  0.57491717003E+03  0.00000000000E+00 0.  1.
      99926    2    1    2    0    0  0.00000000000E+00 -0.71054273576E-14 -0.48598325830E+03  0.66385108176E+03  0.45223725125E+03 0.  0.
         25    1    3    3    0    0  0.34390065523E+02 -0.39299175290E+02 -0.11567603837E+03  0.17820088591E+03  0.12509000000E+03 0.  0.
         25    1    3    3    0    0 -0.74359256577E+02  0.48503565752E+02 -0.94840870950E+02  0.18034465291E+03  0.12509000000E+03 0.  0.
         25    1    3    3    0    0  0.39969191054E+02 -0.92043904622E+01 -0.27546634898E+03  0.30530554295E+03  0.12509000000E+03 0.  0.
<mgrwt>
<rscale>  2 0.45223725E+03</rscale>
<asrwt>0</asrwt>
<pdfrwt beam="1">  1       21 0.13078517E-01 0.45223725E+03</pdfrwt>
<pdfrwt beam="2">  1       21 0.84546641E-01 0.45223725E+03</pdfrwt>
<totfact> 0.56122195E+04</totfact>
</mgrwt>
</event>
<event>
 6    0  0.1539652E-007  0.4279200E+03  0.7546771E-02  0.1034519E+00
         21   -1    0    0  502  501  0.00000000000E+00  0.00000000000E+00  0.86167471955E+02  0.86167471955E+02  0.00000000000E+00 0. -1.
         21   -1    0    0  501  502 -0.00000000000E+00 -0.00000000000E+00 -0.53127807534E+03  0.53127807534E+03  0.00000000000E+00 0. -1.
      99926    2    1    2    0    0 -0.35527136788E-14  0.00000000000E+00 -0.44511060339E+03  0.61744554730E+03  0.42792003298E+03 0.  0.
         25    1    3    3    0    0  0.27130372648E+02 -0.14532689227E+02 -0.40999018332E+02  0.13518758738E+03  0.12509000000E+03 0.  0.
         25    1    3    3    0    0 -0.36567304648E+02 -0.70591459947E+01 -0.15598430054E+03  0.20338537171E+03  0.12509000000E+03 0.  0.
         25    1    3    3    0    0  0.94369319994E+01  0.21591835221E+02 -0.24812728451E+03  0.27887258821E+03  0.12509000000E+03 0.  0.
<mgrwt>
<rscale>  2 0.42792003E+03</rscale>
<asrwt>0</asrwt>
<pdfrwt beam="1">  1       21 0.12671687E-01 0.42792003E+03</pdfrwt>
<pdfrwt beam="2">  1       21 0.78129127E-01 0.42792003E+03</pdfrwt>
<totfact> 0.71774887E+04</totfact>
</mgrwt>
</event>
<event>
 6    0  0.1539652E-007  0.4643787E+03  0.7546771E-02  0.1023519E+00
         21   -1    0    0  502  501  0.00000000000E+00  0.00000000000E+00  0.46384793857E+02  0.46384793857E+02  0.00000000000E+00 0. -1.
         21   -1    0    0  501  502 -0.00000000000E+00 -0.00000000000E+00 -0.11622751699E+04  0.11622751699E+04  0.00000000000E+00 0. -1.
      99926    2    1    2    0    0 -0.71054273576E-14  0.00000000000E+00 -0.11158903760E+04  0.12086599637E+04  0.46437869960E+03 0.  0.
         25    1    3    3    0    0 -0.43587088628E+02  0.26160098452E+02 -0.45374126578E+03  0.47340556547E+03  0.12509000000E+03 0.  0.
         25    1    3    3    0    0  0.80145282270E+02 -0.25667413367E+02 -0.17505719129E+03  0.23102945852E+03  0.12509000000E+03 0.  0.
         25    1    3    3    0    0 -0.36558193641E+02 -0.49268508519E+00 -0.48709191896E+03  0.50422493976E+03  0.12509000000E+03 0.  0.
<mgrwt>
<rscale>  2 0.46437870E+03</rscale>
<asrwt>0</asrwt>
<pdfrwt beam="1">  1       21 0.68212928E-02 0.46437870E+03</pdfrwt>
<pdfrwt beam="2">  1       21 0.17092283E+00 0.46437870E+03</pdfrwt>
<totfact> 0.29656206E+04</totfact>
</mgrwt>
</event>
<event>
 6    0  0.1539652E-007  0.4561799E+03  0.7546771E-02  0.1025895E+00
         21   -1    0    0  502  501  0.00000000000E+00  0.00000000000E+00  0.67286450320E+02  0.67286450320E+02  0.00000000000E+00 0.  1.
         21   -1    0    0  501  502 -0.00000000000E+00 -0.00000000000E+00 -0.77318710631E+03  0.77318710631E+03  0.00000000000E+00 0.  1.
      99926    2    1    2    0    0 -0.88817841970E-15 -0.71054273576E-14 -0.70590065599E+03  0.84047355663E+03  0.45617985846E+03 0.  0.
         25    1    3    3    0    0 -0.31013228579E+01 -0.88187206386E+02 -0.43406472037E+03  0.46026762991E+03  0.12509000000E+03 0.  0.
         25    1    3    3    0    0 -0.12534393466E+01  0.40311900802E+02 -0.12440951883E+03  0.18097474115E+03  0.12509000000E+03 0.  0.
         25    1    3    3    0    0  0.43547622046E+01  0.47875305584E+02 -0.14742641678E+03  0.19923118557E+03  0.12509000000E+03 0.  0.
<mgrwt>
<rscale>  2 0.45617986E+03</rscale>
<asrwt>0</asrwt>
<pdfrwt beam="1">  1       21 0.98950665E-02 0.45617986E+03</pdfrwt>
<pdfrwt beam="2">  1       21 0.11370398E+00 0.45617986E+03</pdfrwt>
<totfact> 0.45446449E+04</totfact>
</mgrwt>
</event>
<event>
 6    0  0.1539652E-007  0.4536930E+03  0.7546771E-02  0.1026626E+00
         21   -1    0    0  502  501  0.00000000000E+00  0.00000000000E+00  0.36803505294E+02  0.36803505294E+02  0.00000000000E+00 0. -1.
         21   -1    0    0  501  502 -0.00000000000E+00 -0.00000000000E+00 -0.13982181343E+04  0.13982181343E+04  0.00000000000E+00 0. -1.
      99926    2    1    2    0    0  0.00000000000E+00 -0.14210854715E-13 -0.13614146290E+04  0.14350216396E+04  0.45369297330E+03 0.  0.
         25    1    3    3    0    0 -0.72668764532E+02  0.80010439498E+02 -0.61865704220E+03  0.64036432109E+03  0.12509000000E+03 0.  0.
         25    1    3    3    0    0  0.70940590458E+02 -0.35255262709E+02 -0.43266339303E+03  0.45729708143E+03  0.12509000000E+03 0.  0.
         25    1    3    3    0    0  0.17281740742E+01 -0.44755176790E+02 -0.31009419376E+03  0.33736023705E+03  0.12509000000E+03 0.  0.
<mgrwt>
<rscale>  2 0.45369297E+03</rscale>
<asrwt>0</asrwt>
<pdfrwt beam="1">  1       21 0.54122806E-02 0.45369297E+03</pdfrwt>
<pdfrwt beam="2">  1       21 0.20562030E+00 0.45369297E+03</pdfrwt>
<totfact> 0.25673264E+04</totfact>
</mgrwt>
</event>
<event>
 6    0  0.1539652E-007  0.4510360E+03  0.7546771E-02  0.1027414E+00
         21   -1    0    0  502  501  0.00000000000E+00  0.00000000000E+00  0.50913947891E+03  0.50913947891E+03  0.00000000000E+00 0.  1.
         21   -1    0    0  501  502 -0.00000000000E+00 -0.00000000000E+00 -0.99890847300E+02  0.99890847300E+02  0.00000000000E+00 0.  1.
      99926    2    1    2    0    0 -0.71054273576E-14  0.00000000000E+00  0.40924863160E+03  0.60903032621E+03  0.45103602491E+03 0.  0.
         25    1    3    3    0    0 -0.34035748313E+02  0.27641343260E+02  0.33798743324E+02  0.13679305235E+03  0.12509000000E+03 0.  0.
         25    1    3    3    0    0  0.68742713276E+02  0.27415870468E+02  0.18485097503E+03  0.23514799946E+03  0.12509000000E+03 0.  0.
         25    1    3    3    0    0 -0.34706964963E+02 -0.55057213728E+02  0.19059891325E+03  0.23708927440E+03  0.12509000000E+03 0.  0.
<mgrwt>
<rscale>  2 0.45103602E+03</rscale>
<asrwt>0</asrwt>
<pdfrwt beam="1">  1       21 0.74873452E-01 0.45103602E+03</pdfrwt>
<pdfrwt beam="2">  1       21 0.14689831E-01 0.45103602E+03</pdfrwt>
<totfact> 0.59982016E+04</totfact>
</mgrwt>
</event>
<event>
 6    0  0.1794750E-007  0.4574098E+03  0.7546771E-02  0.1025535E+00
         21   -1    0    0  502  501  0.00000000000E+00  0.00000000000E+00  0.11664098242E+04  0.11664098242E+04  0.00000000000E+00 0. -1.
         21   -1    0    0  501  502 -0.00000000000E+00 -0.00000000000E+00 -0.44843521941E+02  0.44843521941E+02  0.00000000000E+00 0.  1.
      99926    2    1    2    0    0 -0.35527136788E-14  0.71054273576E-14  0.11215663022E+04  0.12112533461E+04  0.45740977052E+03 0.  0.
         25    1    3    3    0    0  0.49860296722E+00 -0.10846640073E+03  0.41801659591E+03  0.44961160044E+03  0.12509000000E+03 0.  0.
         25    1    3    3    0    0  0.25065531120E+02  0.10842998169E+02  0.25874309678E+03  0.28868901900E+03  0.12509000000E+03 0.  0.
         25    1    3    3    0    0 -0.25564134087E+02  0.97623402560E+02  0.44480660956E+03  0.47295272669E+03  0.12509000000E+03 0.  0.
<mgrwt>
<rscale>  2 0.45740977E+03</rscale>
<asrwt>0</asrwt>
<pdfrwt beam="1">  1       21 0.17153084E+00 0.45740977E+03</pdfrwt>
<pdfrwt beam="2">  1       21 0.65946363E-02 0.45740977E+03</pdfrwt>
<totfact> 0.31211344E+04</totfact>
</mgrwt>
</event>
<event>
 6    0  0.1539652E-007  0.4564761E+03  0.7546771E-02  0.1025808E+00
         21   -1    0    0  502  501  0.00000000000E+00  0.00000000000E+00  0.88329491970E+03  0.88329491970E+03  0.00000000000E+00 0. -1.
         21   -1    0    0  501  502 -0.00000000000E+00 -0.00000000000E+00 -0.58975340071E+02  0.58975340071E+02  0.00000000000E+00 0. -1.
      99926    2    1    2    0    0 -0.71054273576E-14  0.00000000000E+00  0.82431957963E+03  0.94227025977E+03  0.45647614734E+03 0.  0.
         25    1    3    3    0    0 -0.55356804183E+02  0.63050451408E+02  0.17783430567E+03  0.23304995937E+03  0.12509000000E+03 0.  0.
         25    1    3    3    0    0  0.89365872166E+02 -0.33138519644E+02  0.31622588326E+03  0.35317239124E+03  0.12509000000E+03 0.  0.
         25    1    3    3    0    0 -0.34009067983E+02 -0.29911931764E+02  0.33025939070E+03  0.35604790915E+03  0.12509000000E+03 0.  0.
<mgrwt>
<rscale>  2 0.45647615E+03</rscale>
<asrwt>0</asrwt>
<pdfrwt beam="1">  1       21 0.12989630E+00 0.45647615E+03</pdfrwt>
<pdfrwt beam="2">  1       21 0.86728447E-02 0.45647615E+03</pdfrwt>
<totfact> 0.40980262E+04</totfact>
</mgrwt>
</event>
<event>
 6    0  0.1539652E-007  0.4533267E+03  0.7546771E-02  0.1026735E+00
         21   -1    0    0  502  501  0.00000000000E+00  0.00000000000E+00  0.55384049964E+03  0.55384049964E+03  0.00000000000E+00 0.  1.
         21   -1    0    0  501  502 -0.00000000000E+00 -0.00000000000E+00 -0.92763655835E+02  0.92763655835E+02  0.00000000000E+00 0.  1.
      99926    2    1    2    0    0  0.35527136788E-14  0.00000000000E+00  0.46107684381E+03  0.64660415548E+03  0.45332667910E+03 0.  0.
         25    1    3    3    0    0  0.28815812486E+02  0.79856504876E+02  0.16751465588E+03  0.22564591832E+03  0.12509000000E+03 0.  0.
         25    1    3    3    0    0 -0.61792160148E+02 -0.41914886199E+01  0.82631603516E+02  0.16220767439E+03  0.12509000000E+03 0.  0.
         25    1    3    3    0    0  0.32976347662E+02 -0.75665016256E+02  0.21093058441E+03  0.25875056276E+03  0.12509000000E+03 0.  0.
<mgrwt>
<rscale>  2 0.45332668E+03</rscale>
<asrwt>0</asrwt>
<pdfrwt beam="1">  1       21 0.81447131E-01 0.45332668E+03</pdfrwt>
<pdfrwt beam="2">  1       21 0.13641714E-01 0.45332668E+03</pdfrwt>
<totfact> 0.56641638E+04</totfact>
</mgrwt>
</event>
<event>
 6    0  0.1539652E-007  0.4501043E+03  0.7546771E-02  0.1027691E+00
         21   -1    0    0  502  501  0.00000000000E+00  0.00000000000E+00  0.36501962997E+03  0.36501962997E+03  0.00000000000E+00 0. -1.
         21   -1    0    0  501  502 -0.00000000000E+00 -0.00000000000E+00 -0.13875548678E+03  0.13875548678E+03  0.00000000000E+00 0. -1.
      99926    2    1    2    0    0 -0.39968028887E-14  0.35527136788E-14  0.22626414319E+03  0.50377511676E+03  0.45010432765E+03 0.  0.
         25    1    3    3    0    0  0.40890303637E+02  0.67127497029E+02 -0.75628044640E+01  0.14792843506E+03  0.12509000000E+03 0.  0.
         25    1    3    3    0    0 -0.39350958740E+01 -0.24562487589E+02  0.84147346625E+02  0.15279752884E+03  0.12509000000E+03 0.  0.
         25    1    3    3    0    0 -0.36955207763E+02 -0.42565009440E+02  0.14967960103E+03  0.20304915285E+03  0.12509000000E+03 0.  0.
<mgrwt>
<rscale>  2 0.45010433E+03</rscale>
<asrwt>0</asrwt>
<pdfrwt beam="1">  1       21 0.53679357E-01 0.45010433E+03</pdfrwt>
<pdfrwt beam="2">  1       21 0.20405219E-01 0.45010433E+03</pdfrwt>
<totfact> 0.67594841E+04</totfact>
</mgrwt>
</event>
<event>
 6    0  0.1539652E-007  0.4563174E+03  0.7546771E-02  0.1025855E+00
         21   -1    0    0  502  501  0.00000000000E+00  0.00000000000E+00  0.82537193481E+03  0.82537193481E+03  0.00000000000E+00 0.  1.
         21   -1    0    0  501  502 -0.00000000000E+00 -0.00000000000E+00 -0.63070224416E+02  0.63070224416E+02  0.00000000000E+00 0.  1.
      99926    2    1    2    0    0  0.35527136788E-14  0.00000000000E+00  0.76230171039E+03  0.88844215922E+03  0.45631740337E+03 0.  0.
         25    1    3    3    0    0 -0.16058340407E+02  0.42608406275E+02  0.11381904349E+03  0.17514459553E+03  0.12509000000E+03 0.  0.
         25    1    3    3    0    0 -0.49416870186E+02 -0.58241374650E+01  0.42996270907E+03  0.45054565465E+03  0.12509000000E+03 0.  0.
         25    1    3    3    0    0  0.65475210594E+02 -0.36784268810E+02  0.21851995783E+03  0.26275190904E+03  0.12509000000E+03 0.  0.
<mgrwt>
<rscale>  2 0.45631740E+03</rscale>
<asrwt>0</asrwt>
<pdfrwt beam="1">  1       21 0.12137822E+00 0.45631740E+03</pdfrwt>
<pdfrwt beam="2">  1       21 0.92750334E-02 0.45631740E+03</pdfrwt>
<totfact> 0.43288874E+04</totfact>
</mgrwt>
</event>
<event>
 6    0  0.1539652E-007  0.4555118E+03  0.7546771E-02  0.1026091E+00
         21   -1    0    0  502  501  0.00000000000E+00  0.00000000000E+00  0.25706138332E+03  0.25706138332E+03  0.00000000000E+00 0.  1.
         21   -1    0    0  501  502 -0.00000000000E+00 -0.00000000000E+00 -0.20179125390E+03  0.20179125390E+03  0.00000000000E+00 0.  1.
      99926    2    1    2    0    0 -0.71054273576E-14 -0.71054273576E-14  0.55270129412E+02  0.45885263722E+03  0.45551175120E+03 0.  0.
         25    1    3    3    0    0 -0.93544432161E+02  0.63344839501E+01  0.34853642475E+02  0.16016544874E+03  0.12509000000E+03 0.  0.
         25    1    3    3    0    0  0.30706377812E+02 -0.40038128989E+02  0.62524602807E+02  0.14866999518E+03  0.12509000000E+03 0.  0.
         25    1    3    3    0    0  0.62838054349E+02  0.33703645039E+02 -0.42108115871E+02  0.15001719330E+03  0.12509000000E+03 0.  0.
<mgrwt>
<rscale>  2 0.45551175E+03</rscale>
<asrwt>0</asrwt>
<pdfrwt beam="1">  1       21 0.37803145E-01 0.45551175E+03</pdfrwt>
<pdfrwt beam="2">  1       21 0.29675184E-01 0.45551175E+03</pdfrwt>
<totfact> 0.67986329E+04</totfact>
</mgrwt>
</event>
<event>
 6    0  0.1539652E-007  0.4620196E+03  0.7546771E-02  0.1024197E+00
         21   -1    0    0  502  501  0.00000000000E+00  0.00000000000E+00  0.24504907458E+03  0.24504907458E+03  0.00000000000E+00 0.  1.
         21   -1    0    0  501  502 -0.00000000000E+00 -0.00000000000E+00 -0.21777483756E+03  0.21777483756E+03  0.00000000000E+00 0.  1.
      99926    2    1    2    0    0  0.71054273576E-14  0.71054273576E-14  0.27274237029E+02  0.46282391214E+03  0.46201957712E+03 0.  0.
         25    1    3    3    0    0 -0.73326143463E+02 -0.60182946713E+00  0.52941791865E-01  0.14499860833E+03  0.12509000000E+03 0.  0.
         25    1    3    3    0    0  0.40726900658E+02 -0.34081555029E+02  0.96927318657E+02  0.16692107726E+03  0.12509000000E+03 0.  0.
         25    1    3    3    0    0  0.32599242805E+02  0.34683384496E+02 -0.69706023420E+02  0.15090422656E+03  0.12509000000E+03 0.  0.
<mgrwt>
<rscale>  2 0.46201958E+03</rscale>
<asrwt>0</asrwt>
<pdfrwt beam="1">  1       21 0.36036629E-01 0.46201958E+03</pdfrwt>
<pdfrwt beam="2">  1       21 0.32025711E-01 0.46201958E+03</pdfrwt>
<totfact> 0.64298988E+04</totfact>
</mgrwt>
</event>
<event>
 6    0  0.1539652E-007  0.4574795E+03  0.7546771E-02  0.1025515E+00
         21   -1    0    0  502  501  0.00000000000E+00  0.00000000000E+00  0.68825382870E+02  0.68825382870E+02  0.00000000000E+00 0. -1.
         21   -1    0    0  501  502 -0.00000000000E+00 -0.00000000000E+00 -0.76021177969E+03  0.76021177969E+03  0.00000000000E+00 0. -1.
      99926    2    1    2    0    0  0.00000000000E+00  0.00000000000E+00 -0.69138639682E+03  0.82903716256E+03  0.45747947189E+03 0.  0.
         25    1    3    3    0    0  0.40206090976E+02 -0.21578555164E+02 -0.21021807728E+03  0.24883993231E+03  0.12509000000E+03 0.  0.
         25    1    3    3    0    0  0.44965280608E+02  0.29546008694E+02 -0.36401555369E+03  0.38865109613E+03  0.12509000000E+03 0.  0.
         25    1    3    3    0    0 -0.85171371584E+02 -0.79674535301E+01 -0.11715276584E+03  0.19154613412E+03  0.12509000000E+03 0.  0.
<mgrwt>
<rscale>  2 0.45747947E+03</rscale>
<asrwt>0</asrwt>
<pdfrwt beam="1">  1       21 0.10121380E-01 0.45747947E+03</pdfrwt>
<pdfrwt beam="2">  1       21 0.11179585E+00 0.45747947E+03</pdfrwt>
<totfact> 0.45500511E+04</totfact>
</mgrwt>
</event>
<event>
 6    0  0.1539652E-007  0.4601835E+03  0.7546771E-02  0.1024728E+00
         21   -1    0    0  502  501  0.00000000000E+00  0.00000000000E+00  0.28918211614E+03  0.28918211614E+03  0.00000000000E+00 0. -1.
         21   -1    0    0  501  502 -0.00000000000E+00 -0.00000000000E+00 -0.18307572155E+03  0.18307572155E+03  0.00000000000E+00 0. -1.
      99926    2    1    2    0    0  0.11102230246E-14 -0.45519144010E-14  0.10610639459E+03  0.47225783770E+03  0.46018354848E+03 0.  0.
         25    1    3    3    0    0  0.83491172823E+00  0.91676310075E+00  0.31525276126E+02  0.12900732021E+03  0.12509000000E+03 0.  0.
         25    1    3    3    0    0  0.31536201927E+02 -0.81969955388E+02  0.10794144162E+03  0.18711618994E+03  0.12509000000E+03 0.  0.
         25    1    3    3    0    0 -0.32371113656E+02  0.81053192287E+02 -0.33360323155E+02  0.15613432755E+03  0.12509000000E+03 0.  0.
<mgrwt>
<rscale>  2 0.46018355E+03</rscale>
<asrwt>0</asrwt>
<pdfrwt beam="1">  1       21 0.42526782E-01 0.46018355E+03</pdfrwt>
<pdfrwt beam="2">  1       21 0.26922900E-01 0.46018355E+03</pdfrwt>
<totfact> 0.64572054E+04</totfact>
</mgrwt>
</event>
<event>
 6    0  0.1539652E-007  0.4373637E+03  0.7546771E-02  0.1031559E+00
         21   -1    0    0  502  501  0.00000000000E+00  0.00000000000E+00  0.97470517431E+03  0.97470517431E+03  0.00000000000E+00 0.  1.
         21   -1    0    0  501  502 -0.00000000000E+00 -0.00000000000E+00 -0.49062783215E+02  0.49062783215E+02  0.00000000000E+00 0.  1.
      99926    2    1    2    0    0  0.00000000000E+00  0.00000000000E+00  0.92564239110E+03  0.10237679575E+04  0.43736368695E+03 0.  0.
         25    1    3    3    0    0 -0.24741918216E+02 -0.59186232755E+02  0.47695067561E+03  0.49723699353E+03  0.12509000000E+03 0.  0.
         25    1    3    3    0    0  0.53845846633E+02  0.49108639014E+02  0.26823078264E+03  0.30480533867E+03  0.12509000000E+03 0.  0.
         25    1    3    3    0    0 -0.29103928418E+02  0.10077593741E+02  0.18046093284E+03  0.22172562533E+03  0.12509000000E+03 0.  0.
<mgrwt>
<rscale>  2 0.43736369E+03</rscale>
<asrwt>0</asrwt>
<pdfrwt beam="1">  1       21 0.14333898E+00 0.43736369E+03</pdfrwt>
<pdfrwt beam="2">  1       21 0.72151158E-02 0.43736369E+03</pdfrwt>
<totfact> 0.44009572E+04</totfact>
</mgrwt>
</event>
<event>
 6    0  0.1539652E-007  0.4533299E+03  0.7546771E-02  0.1026734E+00
         21   -1    0    0  502  501  0.00000000000E+00  0.00000000000E+00  0.13374877488E+04  0.13374877488E+04  0.00000000000E+00 0. -1.
         21   -1    0    0  501  502 -0.00000000000E+00 -0.00000000000E+00 -0.38413057789E+02  0.38413057789E+02  0.00000000000E+00 0. -1.
      99926    2    1    2    0    0  0.00000000000E+00  0.71054273576E-14  0.12990746910E+04  0.13759008066E+04  0.45332987630E+03 0.  0.
         25    1    3    3    0    0 -0.95004700799E+01 -0.18825190801E+02  0.70097778415E+03  0.71236367728E+03  0.12509000000E+03 0.  0.
         25    1    3    3    0    0  0.29751295266E+01  0.74495095253E+02  0.36715231767E+03  0.39497683867E+03  0.12509000000E+03 0.  0.
         25    1    3    3    0    0  0.65253405533E+01 -0.55669904452E+02  0.23094458919E+03  0.26856029063E+03  0.12509000000E+03 0.  0.
<mgrwt>
<rscale>  2 0.45332988E+03</rscale>
<asrwt>0</asrwt>
<pdfrwt beam="1">  1       21 0.19668934E+00 0.45332988E+03</pdfrwt>
<pdfrwt beam="2">  1       21 0.56489800E-02 0.45332988E+03</pdfrwt>
<totfact> 0.27334448E+04</totfact>
</mgrwt>
</event>
<event>
 6    0  0.1539652E-007  0.4566127E+03  0.7546771E-02  0.1025768E+00
         21   -1    0    0  502  501  0.00000000000E+00  0.00000000000E+00  0.40001061871E+03  0.40001061871E+03  0.00000000000E+00 0. -1.
         21   -1    0    0  501  502 -0.00000000000E+00 -0.00000000000E+00 -0.13030603541E+03  0.13030603541E+03  0.00000000000E+00 0. -1.
      99926    2    1    2    0    0 -0.15543122345E-14  0.18873791419E-14  0.26970458330E+03  0.53031665411E+03  0.45661273677E+03 0.  0.
         25    1    3    3    0    0  0.18761084985E+02  0.17955085129E+02  0.70264812188E+02  0.14580471640E+03  0.12509000000E+03 0.  0.
         25    1    3    3    0    0 -0.18066690156E+02 -0.17250178834E+02 -0.22707495836E+02  0.12956508955E+03  0.12509000000E+03 0.  0.
         25    1    3    3    0    0 -0.69439482929E+00 -0.70490629504E+00  0.22214726695E+03  0.25494684817E+03  0.12509000000E+03 0.  0.
<mgrwt>
<rscale>  2 0.45661274E+03</rscale>
<asrwt>0</asrwt>
<pdfrwt beam="1">  1       21 0.58825091E-01 0.45661274E+03</pdfrwt>
<pdfrwt beam="2">  1       21 0.19162652E-01 0.45661274E+03</pdfrwt>
<totfact> 0.62383842E+04</totfact>
</mgrwt>
</event>
<event>
 6    0  0.1539652E-007  0.4544075E+03  0.7546771E-02  0.1026416E+00
         21   -1    0    0  502  501  0.00000000000E+00  0.00000000000E+00  0.68196162477E+02  0.68196162477E+02  0.00000000000E+00 0. -1.
         21   -1    0    0  501  502 -0.00000000000E+00 -0.00000000000E+00 -0.75695683079E+03  0.75695683079E+03  0.00000000000E+00 0. -1.
      99926    2    1    2    0    0  0.00000000000E+00  0.10658141036E-13 -0.68876066832E+03  0.82515299327E+03  0.45440753084E+03 0.  0.
         25    1    3    3    0    0 -0.58743327860E+02 -0.70913920770E+02 -0.27232165112E+03  0.31350622401E+03  0.12509000000E+03 0.  0.
         25    1    3    3    0    0  0.73081079824E+01  0.89712795418E+02 -0.16674674895E+03  0.22705457601E+03  0.12509000000E+03 0.  0.
         25    1    3    3    0    0  0.51435219877E+02 -0.18798874648E+02 -0.24969226825E+03  0.28459219324E+03  0.12509000000E+03 0.  0.
<mgrwt>
<rscale>  2 0.45440753E+03</rscale>
<asrwt>0</asrwt>
<pdfrwt beam="1">  1       21 0.10028847E-01 0.45440753E+03</pdfrwt>
<pdfrwt beam="2">  1       21 0.11131718E+00 0.45440753E+03</pdfrwt>
<totfact> 0.46789270E+04</totfact>
</mgrwt>
</event>
<event>
 6    0  0.1539652E-007  0.4706757E+03  0.7546771E-02  0.1021730E+00
         21   -1    0    0  502  501  0.00000000000E+00  0.00000000000E+00  0.12330553598E+03  0.12330553598E+03  0.00000000000E+00 0. -1.
         21   -1    0    0  501  502 -0.00000000000E+00 -0.00000000000E+00 -0.44915989311E+03  0.44915989311E+03  0.00000000000E+00 0. -1.
      99926    2    1    2    0    0  0.00000000000E+00  0.14210854715E-13 -0.32585435712E+03  0.57246542909E+03  0.47067569031E+03 0.  0.
         25    1    3    3    0    0  0.62595593343E+02 -0.99892771557E+02 -0.14222366248E+03  0.22309606089E+03  0.12509000000E+03 0.  0.
         25    1    3    3    0    0 -0.16561817333E+02  0.73597308927E+01 -0.12237276251E+03  0.17592913498E+03  0.12509000000E+03 0.  0.
         25    1    3    3    0    0 -0.46033776010E+02  0.92533040664E+02 -0.61257932134E+02  0.17344023322E+03  0.12509000000E+03 0.  0.
<mgrwt>
<rscale>  2 0.47067569E+03</rscale>
<asrwt>0</asrwt>
<pdfrwt beam="1">  1       21 0.18133167E-01 0.47067569E+03</pdfrwt>
<pdfrwt beam="2">  1       21 0.66052925E-01 0.47067569E+03</pdfrwt>
<totfact> 0.53463908E+04</totfact>
</mgrwt>
</event>
<event>
 6    0  0.1539652E-007  0.4620082E+03  0.7546771E-02  0.1024200E+00
         21   -1    0    0  502  501  0.00000000000E+00  0.00000000000E+00  0.13826737396E+03  0.13826737396E+03  0.00000000000E+00 0.  1.
         21   -1    0    0  501  502 -0.00000000000E+00 -0.00000000000E+00 -0.38593983643E+03  0.38593983643E+03  0.00000000000E+00 0.  1.
      99926    2    1    2    0    0  0.71054273576E-14 -0.35527136788E-14 -0.24767246247E+03  0.52420721039E+03  0.46200817174E+03 0.  0.
         25    1    3    3    0    0  0.81633802765E+02  0.65073454078E+02 -0.10555545188E+03  0.19413421569E+03  0.12509000000E+03 0.  0.
         25    1    3    3    0    0 -0.23222912274E+02 -0.14403244577E+02 -0.13007439677E+03  0.18252017397E+03  0.12509000000E+03 0.  0.
         25    1    3    3    0    0 -0.58410890491E+02 -0.50670209501E+02 -0.12042613815E+02  0.14755282073E+03  0.12509000000E+03 0.  0.
<mgrwt>
<rscale>  2 0.46200817E+03</rscale>
<asrwt>0</asrwt>
<pdfrwt beam="1">  1       21 0.20333438E-01 0.46200817E+03</pdfrwt>
<pdfrwt beam="2">  1       21 0.56755857E-01 0.46200817E+03</pdfrwt>
<totfact> 0.60184877E+04</totfact>
</mgrwt>
</event>
<event>
 6    0  0.1539652E-007  0.4522292E+03  0.7546771E-02  0.1027059E+00
         21   -1    0    0  502  501  0.00000000000E+00  0.00000000000E+00  0.25766243764E+03  0.25766243764E+03  0.00000000000E+00 0.  1.
         21   -1    0    0  501  502 -0.00000000000E+00 -0.00000000000E+00 -0.19842946812E+03  0.19842946812E+03  0.00000000000E+00 0.  1.
      99926    2    1    2    0    0  0.00000000000E+00  0.71054273576E-14  0.59232969523E+02  0.45609190577E+03  0.45222923593E+03 0.  0.
         25    1    3    3    0    0  0.51576056186E+02  0.34137255929E+02  0.47859615713E+02  0.14752454958E+03  0.12509000000E+03 0.  0.
         25    1    3    3    0    0 -0.62036803731E+02 -0.52743892471E+02  0.74518852042E+02  0.16682640864E+03  0.12509000000E+03 0.  0.
         25    1    3    3    0    0  0.10460747544E+02  0.18606636542E+02 -0.63145498232E+02  0.14174094754E+03  0.12509000000E+03 0.  0.
<mgrwt>
<rscale>  2 0.45222924E+03</rscale>
<asrwt>0</asrwt>
<pdfrwt beam="1">  1       21 0.37891535E-01 0.45222924E+03</pdfrwt>
<pdfrwt beam="2">  1       21 0.29180804E-01 0.45222924E+03</pdfrwt>
<totfact> 0.70000325E+04</totfact>
</mgrwt>
</event>
<event>
 6    0  0.1539652E-007  0.4589012E+03  0.7546771E-02  0.1025100E+00
         21   -1    0    0  502  501  0.00000000000E+00  0.00000000000E+00  0.81504785230E+02  0.81504785230E+02  0.00000000000E+00 0. -1.
         21   -1    0    0  501  502 -0.00000000000E+00 -0.00000000000E+00 -0.64594453317E+03  0.64594453317E+03  0.00000000000E+00 0. -1.
      99926    2    1    2    0    0  0.00000000000E+00 -0.17763568394E-14 -0.56443974793E+03  0.72744931840E+03  0.45890116777E+03 0.  0.
         25    1    3    3    0    0 -0.21729352109E+02  0.12264714194E+02 -0.10816515560E+03  0.16724173206E+03  0.12509000000E+03 0.  0.
         25    1    3    3    0    0  0.60948803010E+02  0.69163231279E+02 -0.31382466259E+03  0.35018814386E+03  0.12509000000E+03 0.  0.
         25    1    3    3    0    0 -0.39219450901E+02 -0.81427945473E+02 -0.14244992975E+03  0.21001944248E+03  0.12509000000E+03 0.  0.
<mgrwt>
<rscale>  2 0.45890117E+03</rscale>
<asrwt>0</asrwt>
<pdfrwt beam="1">  1       21 0.11985998E-01 0.45890117E+03</pdfrwt>
<pdfrwt beam="2">  1       21 0.94991845E-01 0.45890117E+03</pdfrwt>
<totfact> 0.49889606E+04</totfact>
</mgrwt>
</event>
<event>
 6    0  0.1539652E-007  0.4566349E+03  0.7546771E-02  0.1025762E+00
         21   -1    0    0  502  501  0.00000000000E+00  0.00000000000E+00  0.28813963769E+03  0.28813963769E+03  0.00000000000E+00 0.  1.
         21   -1    0    0  501  502 -0.00000000000E+00 -0.00000000000E+00 -0.18091527084E+03  0.18091527084E+03  0.00000000000E+00 0.  1.
      99926    2    1    2    0    0  0.00000000000E+00  0.00000000000E+00  0.10722436685E+03  0.46905490853E+03  0.45663491147E+03 0.  0.
         25    1    3    3    0    0 -0.37615293859E+02  0.25835636632E+02  0.12651901052E+03  0.18367623302E+03  0.12509000000E+03 0.  0.
         25    1    3    3    0    0 -0.33438491524E+02  0.23744613623E+02 -0.20378076161E+02  0.13320928451E+03  0.12509000000E+03 0.  0.
         25    1    3    3    0    0  0.71053785383E+02 -0.49580250254E+02  0.10834324865E+01  0.15216939100E+03  0.12509000000E+03 0.  0.
<mgrwt>
<rscale>  2 0.45663491E+03</rscale>
<asrwt>0</asrwt>
<pdfrwt beam="1">  1       21 0.42373476E-01 0.45663491E+03</pdfrwt>
<pdfrwt beam="2">  1       21 0.26605187E-01 0.45663491E+03</pdfrwt>
<totfact> 0.66637823E+04</totfact>
</mgrwt>
</event>
<event>
 6    0  0.1539652E-007  0.4512904E+03  0.7546771E-02  0.1027338E+00
         21   -1    0    0  502  501  0.00000000000E+00  0.00000000000E+00  0.73487470259E+02  0.73487470259E+02  0.00000000000E+00 0.  1.
         21   -1    0    0  501  502 -0.00000000000E+00 -0.00000000000E+00 -0.69284937483E+03  0.69284937483E+03  0.00000000000E+00 0.  1.
      99926    2    1    2    0    0  0.00000000000E+00  0.00000000000E+00 -0.61936190457E+03  0.76633684509E+03  0.45129036252E+03 0.  0.
         25    1    3    3    0    0 -0.43608961344E+02  0.56977286855E+02 -0.24772798894E+03  0.28664406035E+03  0.12509000000E+03 0.  0.
         25    1    3    3    0    0  0.26136369955E+02 -0.65639926449E+01 -0.29963860739E+03  0.32581743197E+03  0.12509000000E+03 0.  0.
         25    1    3    3    0    0  0.17472591390E+02 -0.50413294210E+02 -0.71995308234E+02  0.15387535277E+03  0.12509000000E+03 0.  0.
<mgrwt>
<rscale>  2 0.45129036E+03</rscale>
<asrwt>0</asrwt>
<pdfrwt beam="1">  1       21 0.10806982E-01 0.45129036E+03</pdfrwt>
<pdfrwt beam="2">  1       21 0.10188961E+00 0.45129036E+03</pdfrwt>
<totfact> 0.50902315E+04</totfact>
</mgrwt>
</event>
<event>
 6    0  0.1539652E-007  0.4628623E+03  0.7546771E-02  0.1023954E+00
         21   -1    0    0  502  501  0.00000000000E+00  0.00000000000E+00  0.62046481739E+03  0.62046481739E+03  0.00000000000E+00 0.  1.
         21   -1    0    0  501  502 -0.00000000000E+00 -0.00000000000E+00 -0.86322988022E+02  0.86322988022E+02  0.00000000000E+00 0.  1.
      99926    2    1    2    0    0  0.00000000000E+00  0.00000000000E+00  0.53414182937E+03  0.70678780541E+03  0.46286229918E+03 0.  0.
         25    1    3    3    0    0 -0.23020839645E+02 -0.93175331046E+02  0.18207183697E+03  0.24085112267E+03  0.12509000000E+03 0.  0.
         25    1    3    3    0    0  0.17941074849E+02 -0.13306979130E+00  0.24785735894E+03  0.27821336839E+03  0.12509000000E+03 0.  0.
         25    1    3    3    0    0  0.50797647957E+01  0.93308400837E+02  0.10421263346E+03  0.18772331435E+03  0.12509000000E+03 0.  0.
<mgrwt>
<rscale>  2 0.46286230E+03</rscale>
<asrwt>0</asrwt>
<pdfrwt beam="1">  1       21 0.91244824E-01 0.46286230E+03</pdfrwt>
<pdfrwt beam="2">  1       21 0.12694557E-01 0.46286230E+03</pdfrwt>
<totfact> 0.49407685E+04</totfact>
</mgrwt>
</event>
<event>
 6    0  0.1539652E-007  0.4574186E+03  0.7546771E-02  0.1025533E+00
         21   -1    0    0  502  501  0.00000000000E+00  0.00000000000E+00  0.38717889312E+03  0.38717889312E+03  0.00000000000E+00 0.  1.
         21   -1    0    0  501  502 -0.00000000000E+00 -0.00000000000E+00 -0.13510021515E+03  0.13510021515E+03  0.00000000000E+00 0.  1.
      99926    2    1    2    0    0  0.00000000000E+00  0.00000000000E+00  0.25207867796E+03  0.52227910827E+03  0.45741863435E+03 0.  0.
         25    1    3    3    0    0 -0.59080001900E+02  0.43445857338E+02  0.78051253940E+02  0.16467390651E+03  0.12509000000E+03 0.  0.
         25    1    3    3    0    0  0.22779640558E+02  0.23826500397E+02 -0.91089359910E+00  0.12936364239E+03  0.12509000000E+03 0.  0.
         25    1    3    3    0    0  0.36300361342E+02 -0.67272357735E+02  0.17493831762E+03  0.22824155937E+03  0.12509000000E+03 0.  0.
<mgrwt>
<rscale>  2 0.45741863E+03</rscale>
<asrwt>0</asrwt>
<pdfrwt beam="1">  1       21 0.56938072E-01 0.45741863E+03</pdfrwt>
<pdfrwt beam="2">  1       21 0.19867679E-01 0.45741863E+03</pdfrwt>
<totfact> 0.62523866E+04</totfact>
</mgrwt>
</event>
<event>
 6    0  0.1539652E-007  0.4594968E+03  0.7546771E-02  0.1024927E+00
         21   -1    0    0  502  501  0.00000000000E+00  0.00000000000E+00  0.34120873212E+03  0.34120873212E+03  0.00000000000E+00 0.  1.
         21   -1    0    0  501  502 -0.00000000000E+00 -0.00000000000E+00 -0.15469804181E+03  0.15469804181E+03  0.00000000000E+00 0.  1.
      99926    2    1    2    0    0  0.00000000000E+00 -0.17763568394E-14  0.18651069032E+03  0.49590677393E+03  0.45949678000E+03 0.  0.
         25    1    3    3    0    0 -0.23278565866E+02 -0.14130754849E+02  0.12969110390E+03  0.18223298382E+03  0.12509000000E+03 0.  0.
         25    1    3    3    0    0 -0.57033511971E+02 -0.48201402028E+01 -0.29563092230E+02  0.14070373045E+03  0.12509000000E+03 0.  0.
         25    1    3    3    0    0  0.80312077837E+02  0.18950895052E+02  0.86382678649E+02  0.17297005966E+03  0.12509000000E+03 0.  0.
<mgrwt>
<rscale>  2 0.45949678E+03</rscale>
<asrwt>0</asrwt>
<pdfrwt beam="1">  1       21 0.50177755E-01 0.45949678E+03</pdfrwt>
<pdfrwt beam="2">  1       21 0.22749712E-01 0.45949678E+03</pdfrwt>
<totfact> 0.63270210E+04</totfact>
</mgrwt>
</event>
<event>
 6    0  0.1539652E-007  0.4555251E+03  0.7546771E-02  0.1026087E+00
         21   -1    0    0  502  501  0.00000000000E+00  0.00000000000E+00  0.95755426992E+03  0.95755426992E+03  0.00000000000E+00 0.  1.
         21   -1    0    0  501  502 -0.00000000000E+00 -0.00000000000E+00 -0.54175280380E+02  0.54175280380E+02  0.00000000000E+00 0.  1.
      99926    2    1    2    0    0  0.00000000000E+00 -0.17763568394E-14  0.90337898954E+03  0.10117295503E+04  0.45552506430E+03 0.  0.
         25    1    3    3    0    0  0.83050731519E+01  0.19410431651E+02  0.53465532184E+03  0.54949937250E+03  0.12509000000E+03 0.  0.
         25    1    3    3    0    0 -0.60256169230E+02 -0.94771163911E+01  0.14870080685E+03  0.20366654051E+03  0.12509000000E+03 0.  0.
         25    1    3    3    0    0  0.51951096079E+02 -0.99333152596E+01  0.22002286084E+03  0.25856363729E+03  0.12509000000E+03 0.  0.
<mgrwt>
<rscale>  2 0.45552506E+03</rscale>
<asrwt>0</asrwt>
<pdfrwt beam="1">  1       21 0.14081679E+00 0.45552506E+03</pdfrwt>
<pdfrwt beam="2">  1       21 0.79669536E-02 0.45552506E+03</pdfrwt>
<totfact> 0.38555312E+04</totfact>
</mgrwt>
</event>
<event>
 6    0  0.1539652E-007  0.4537304E+03  0.7546771E-02  0.1026615E+00
         21   -1    0    0  502  501  0.00000000000E+00  0.00000000000E+00  0.95949319714E+02  0.95949319714E+02  0.00000000000E+00 0.  1.
         21   -1    0    0  501  502 -0.00000000000E+00 -0.00000000000E+00 -0.53640638780E+03  0.53640638780E+03  0.00000000000E+00 0.  1.
      99926    2    1    2    0    0 -0.99920072216E-15  0.00000000000E+00 -0.44045706809E+03  0.63235570752E+03  0.45373043980E+03 0.  0.
         25    1    3    3    0    0  0.19711741033E+02  0.57921420258E+01 -0.25131191130E+02  0.12923307050E+03  0.12509000000E+03 0.  0.
         25    1    3    3    0    0 -0.20633199759E+02  0.30045536336E+02 -0.10747168641E+03  0.16889681662E+03  0.12509000000E+03 0.  0.
         25    1    3    3    0    0  0.92145872638E+00 -0.35837678362E+02 -0.30785419055E+03  0.33422582039E+03  0.12509000000E+03 0.  0.
<mgrwt>
<rscale>  2 0.45373044E+03</rscale>
<asrwt>0</asrwt>
<pdfrwt beam="1">  1       21 0.14110194E-01 0.45373044E+03</pdfrwt>
<pdfrwt beam="2">  1       21 0.78883293E-01 0.45373044E+03</pdfrwt>
<totfact> 0.57301676E+04</totfact>
</mgrwt>
</event>
<event>
 6    0  0.1539652E-007  0.4554409E+03  0.7546771E-02  0.1026112E+00
         21   -1    0    0  502  501  0.00000000000E+00  0.00000000000E+00  0.21687778908E+03  0.21687778908E+03  0.00000000000E+00 0. -1.
         21   -1    0    0  501  502 -0.00000000000E+00 -0.00000000000E+00 -0.23910513722E+03  0.23910513722E+03  0.00000000000E+00 0. -1.
      99926    2    1    2    0    0  0.00000000000E+00  0.00000000000E+00 -0.22227348141E+02  0.45598292631E+03  0.45544085684E+03 0.  0.
         25    1    3    3    0    0  0.74060749692E+02  0.29722393962E+01 -0.75608939939E+01  0.14559706065E+03  0.12509000000E+03 0.  0.
         25    1    3    3    0    0 -0.14833907555E+02  0.53575210872E+02 -0.66450509788E+02  0.15216282852E+03  0.12509000000E+03 0.  0.
         25    1    3    3    0    0 -0.59226842137E+02 -0.56547450268E+02  0.51784055641E+02  0.15822303713E+03  0.12509000000E+03 0.  0.
<mgrwt>
<rscale>  2 0.45544086E+03</rscale>
<asrwt>0</asrwt>
<pdfrwt beam="1">  1       21 0.31893792E-01 0.45544086E+03</pdfrwt>
<pdfrwt beam="2">  1       21 0.35162520E-01 0.45544086E+03</pdfrwt>
<totfact> 0.68233540E+04</totfact>
</mgrwt>
</event>
<event>
 6    0  0.1539652E-007  0.4571745E+03  0.7546771E-02  0.1025604E+00
         21   -1    0    0  502  501  0.00000000000E+00  0.00000000000E+00  0.34147841141E+03  0.34147841141E+03  0.00000000000E+00 0. -1.
         21   -1    0    0  501  502 -0.00000000000E+00 -0.00000000000E+00 -0.15301738709E+03  0.15301738709E+03  0.00000000000E+00 0. -1.
      99926    2    1    2    0    0  0.00000000000E+00  0.35527136788E-14  0.18846102432E+03  0.49449579850E+03  0.45717451487E+03 0.  0.
         25    1    3    3    0    0  0.25641036530E+02 -0.22472509079E+02  0.67944083803E+02  0.14637753599E+03  0.12509000000E+03 0.  0.
         25    1    3    3    0    0 -0.54728580451E+02  0.39877464046E+02 -0.34195760089E+02  0.14629520759E+03  0.12509000000E+03 0.  0.
         25    1    3    3    0    0  0.29087543921E+02 -0.17404954967E+02  0.15471270060E+03  0.20182305492E+03  0.12509000000E+03 0.  0.
<mgrwt>
<rscale>  2 0.45717451E+03</rscale>
<asrwt>0</asrwt>
<pdfrwt beam="1">  1       21 0.50217413E-01 0.45717451E+03</pdfrwt>
<pdfrwt beam="2">  1       21 0.22502557E-01 0.45717451E+03</pdfrwt>
<totfact> 0.64537789E+04</totfact>
</mgrwt>
</event>
<event>
 6    0  0.1539652E-007  0.4569675E+03  0.7546771E-02  0.1025664E+00
         21   -1    0    0  502  501  0.00000000000E+00  0.00000000000E+00  0.68668030587E+03  0.68668030587E+03  0.00000000000E+00 0. -1.
         21   -1    0    0  501  502 -0.00000000000E+00 -0.00000000000E+00 -0.76024935360E+02  0.76024935360E+02  0.00000000000E+00 0. -1.
      99926    2    1    2    0    0  0.00000000000E+00 -0.71054273576E-14  0.61065537051E+03  0.76270524123E+03  0.45696750811E+03 0.  0.
         25    1    3    3    0    0  0.23334448222E+02  0.48808423023E+02  0.74463773993E+02  0.15530331732E+03  0.12509000000E+03 0.  0.
         25    1    3    3    0    0 -0.74737528492E+02 -0.20925997094E+02  0.28358907052E+03  0.31952130529E+03  0.12509000000E+03 0.  0.
         25    1    3    3    0    0  0.51403080270E+02 -0.27882425929E+02  0.25260252600E+03  0.28788061862E+03  0.12509000000E+03 0.  0.
<mgrwt>
<rscale>  2 0.45696751E+03</rscale>
<asrwt>0</asrwt>
<pdfrwt beam="1">  1       21 0.10098239E+00 0.45696751E+03</pdfrwt>
<pdfrwt beam="2">  1       21 0.11180138E-01 0.45696751E+03</pdfrwt>
<totfact> 0.48862164E+04</totfact>
</mgrwt>
</event>
<event>
 6    0  0.1539652E-007  0.4748099E+03  0.7546771E-02  0.1020571E+00
         21   -1    0    0  502  501  0.00000000000E+00  0.00000000000E+00  0.16018074706E+04  0.16018074706E+04  0.00000000000E+00 0.  1.
         21   -1    0    0  501  502 -0.00000000000E+00 -0.00000000000E+00 -0.35185949070E+02  0.35185949070E+02  0.00000000000E+00 0.  1.
      99926    2    1    2    0    0  0.71054273576E-14 -0.35527136788E-14  0.15666215215E+04  0.16369934196E+04  0.47480992441E+03 0.  0.
         25    1    3    3    0    0 -0.32849599054E+02  0.29086960720E+02  0.34400980994E+03  0.36866706508E+03  0.12509000000E+03 0.  0.
         25    1    3    3    0    0  0.88906496025E+02  0.63460219557E+02  0.49358031621E+03  0.52076923982E+03  0.12509000000E+03 0.  0.
         25    1    3    3    0    0 -0.56056896971E+02 -0.92547180277E+02  0.72903139536E+03  0.74755711474E+03  0.12509000000E+03 0.  0.
<mgrwt>
<rscale>  2 0.47480992E+03</rscale>
<asrwt>0</asrwt>
<pdfrwt beam="1">  1       21 0.23555987E+00 0.47480992E+03</pdfrwt>
<pdfrwt beam="2">  1       21 0.51744053E-02 0.47480992E+03</pdfrwt>
<totfact> 0.17720288E+04</totfact>
</mgrwt>
</event>
<event>
 6    0  0.1539652E-007  0.4501869E+03  0.7546771E-02  0.1027666E+00
         21   -1    0    0  502  501  0.00000000000E+00  0.00000000000E+00  0.18483472082E+03  0.18483472082E+03  0.00000000000E+00 0.  1.
         21   -1    0    0  501  502 -0.00000000000E+00 -0.00000000000E+00 -0.27412088302E+03  0.27412088302E+03  0.00000000000E+00 0.  1.
      99926    2    1    2    0    0  0.14210854715E-13  0.00000000000E+00 -0.89286162200E+02  0.45895560384E+03  0.45018688068E+03 0.  0.
         25    1    3    3    0    0  0.67271044167E+02 -0.83445270021E+02 -0.66429277554E+02  0.17761999743E+03  0.12509000000E+03 0.  0.
         25    1    3    3    0    0 -0.65376415852E+02  0.48095749464E+02 -0.25647919790E+02  0.15130300974E+03  0.12509000000E+03 0.  0.
         25    1    3    3    0    0 -0.18946283152E+01  0.35349520557E+02  0.27910351442E+01  0.13003259667E+03  0.12509000000E+03 0.  0.
<mgrwt>
<rscale>  2 0.45018688E+03</rscale>
<asrwt>0</asrwt>
<pdfrwt beam="1">  1       21 0.27181577E-01 0.45018688E+03</pdfrwt>
<pdfrwt beam="2">  1       21 0.40311894E-01 0.45018688E+03</pdfrwt>
<totfact> 0.70936747E+04</totfact>
</mgrwt>
</event>
<event>
 6    0  0.1539652E-007  0.4632227E+03  0.7546771E-02  0.1023851E+00
         21   -1    0    0  502  501  0.00000000000E+00  0.00000000000E+00  0.16079785477E+03  0.16079785477E+03  0.00000000000E+00 0. -1.
         21   -1    0    0  501  502 -0.00000000000E+00 -0.00000000000E+00 -0.33361026137E+03  0.33361026137E+03  0.00000000000E+00 0. -1.
      99926    2    1    2    0    0  0.28421709430E-13 -0.71054273576E-14 -0.17281240660E+03  0.49440811614E+03  0.46322268665E+03 0.  0.
         25    1    3    3    0    0 -0.12029377749E+03  0.39371962058E+02 -0.80182824677E+02  0.19518590567E+03  0.12509000000E+03 0.  0.
         25    1    3    3    0    0  0.78848591370E+02 -0.39479917191E+01 -0.53012254809E+02  0.15713209176E+03  0.12509000000E+03 0.  0.
         25    1    3    3    0    0  0.41445186122E+02 -0.35423970339E+02 -0.39617327114E+02  0.14209011871E+03  0.12509000000E+03 0.  0.
<mgrwt>
<rscale>  2 0.46322269E+03</rscale>
<asrwt>0</asrwt>
<pdfrwt beam="1">  1       21 0.23646744E-01 0.46322269E+03</pdfrwt>
<pdfrwt beam="2">  1       21 0.49060332E-01 0.46322269E+03</pdfrwt>
<totfact> 0.61548446E+04</totfact>
</mgrwt>
</event>
<event>
 6    0  0.1539652E-007  0.4543838E+03  0.7546771E-02  0.1026423E+00
         21   -1    0    0  502  501  0.00000000000E+00  0.00000000000E+00  0.33056789751E+03  0.33056789751E+03  0.00000000000E+00 0. -1.
         21   -1    0    0  501  502 -0.00000000000E+00 -0.00000000000E+00 -0.15614389949E+03  0.15614389949E+03  0.00000000000E+00 0. -1.
      99926    2    1    2    0    0 -0.42188474936E-14  0.00000000000E+00  0.17442399802E+03  0.48671179700E+03  0.45438380501E+03 0.  0.
         25    1    3    3    0    0 -0.43846135965E+02  0.99731059859E+02  0.93295979626E+02  0.19031662002E+03  0.12509000000E+03 0.  0.
         25    1    3    3    0    0  0.45141447105E+02 -0.30073012449E+02  0.10520429336E+02  0.13674912745E+03  0.12509000000E+03 0.  0.
         25    1    3    3    0    0 -0.12953111400E+01 -0.69658047410E+02  0.70607589055E+02  0.15964604953E+03  0.12509000000E+03 0.  0.
<mgrwt>
<rscale>  2 0.45438381E+03</rscale>
<asrwt>0</asrwt>
<pdfrwt beam="1">  1       21 0.48612926E-01 0.45438381E+03</pdfrwt>
<pdfrwt beam="2">  1       21 0.22962338E-01 0.45438381E+03</pdfrwt>
<totfact> 0.66539580E+04</totfact>
</mgrwt>
</event>
<event>
 6    0  0.1539652E-007  0.4539811E+03  0.7546771E-02  0.1026541E+00
         21   -1    0    0  502  501  0.00000000000E+00  0.00000000000E+00  0.18051192776E+04  0.18051192776E+04  0.00000000000E+00 0. -1.
         21   -1    0    0  501  502 -0.00000000000E+00 -0.00000000000E+00 -0.28543656079E+02  0.28543656079E+02  0.00000000000E+00 0. -1.
      99926    2    1    2    0    0  0.71054273576E-14  0.00000000000E+00  0.17765756215E+04  0.18336629337E+04  0.45398107380E+03 0.  0.
         25    1    3    3    0    0  0.26108924152E+01 -0.92202178224E+02  0.48465073392E+03  0.50896159032E+03  0.12509000000E+03 0.  0.
         25    1    3    3    0    0 -0.45432423843E+02  0.20329390911E+02  0.76292344857E+03  0.77471096917E+03  0.12509000000E+03 0.  0.
         25    1    3    3    0    0  0.42821531428E+02  0.71872787312E+02  0.52900143905E+03  0.54999037422E+03  0.12509000000E+03 0.  0.
<mgrwt>
<rscale>  2 0.45398107E+03</rscale>
<asrwt>0</asrwt>
<pdfrwt beam="1">  1       21 0.26545864E+00 0.45398107E+03</pdfrwt>
<pdfrwt beam="2">  1       21 0.41975977E-02 0.45398107E+03</pdfrwt>
<totfact> 0.16753576E+04</totfact>
</mgrwt>
</event>
<event>
 6    0  0.1539652E-007  0.4488175E+03  0.7546771E-02  0.1028075E+00
         21   -1    0    0  502  501  0.00000000000E+00  0.00000000000E+00  0.95747860270E+02  0.95747860270E+02  0.00000000000E+00 0.  1.
         21   -1    0    0  501  502 -0.00000000000E+00 -0.00000000000E+00 -0.52595726387E+03  0.52595726387E+03  0.00000000000E+00 0.  1.
      99926    2    1    2    0    0 -0.17763568394E-14 -0.35527136788E-14 -0.43020940360E+03  0.62170512414E+03  0.44881748009E+03 0.  0.
         25    1    3    3    0    0  0.10655486919E+02 -0.29669365300E+02 -0.66788293167E+02  0.14526525683E+03  0.12509000000E+03 0.  0.
         25    1    3    3    0    0  0.12192153114E+02 -0.41089561870E+02 -0.27763410782E+03  0.30751456326E+03  0.12509000000E+03 0.  0.
         25    1    3    3    0    0 -0.22847640033E+02  0.70758927170E+02 -0.85787002612E+02  0.16892530404E+03  0.12509000000E+03 0.  0.
<mgrwt>
<rscale>  2 0.44881748E+03</rscale>
<asrwt>0</asrwt>
<pdfrwt beam="1">  1       21 0.14080568E-01 0.44881748E+03</pdfrwt>
<pdfrwt beam="2">  1       21 0.77346657E-01 0.44881748E+03</pdfrwt>
<totfact> 0.60249466E+04</totfact>
</mgrwt>
</event>
<event>
 6    0  0.1539652E-007  0.4528020E+03  0.7546771E-02  0.1026890E+00
         21   -1    0    0  502  501  0.00000000000E+00  0.00000000000E+00  0.59784305520E+03  0.59784305520E+03  0.00000000000E+00 0.  1.
         21   -1    0    0  501  502 -0.00000000000E+00 -0.00000000000E+00 -0.85737231197E+02  0.85737231197E+02  0.00000000000E+00 0.  1.
      99926    2    1    2    0    0 -0.44408920985E-15  0.00000000000E+00  0.51210582400E+03  0.68358028640E+03  0.45280197987E+03 0.  0.
         25    1    3    3    0    0  0.60034968714E+00  0.59156992989E+02  0.25544790753E+03  0.29051859115E+03  0.12509000000E+03 0.  0.
         25    1    3    3    0    0 -0.49706467846E+01 -0.46197392606E+02  0.22772721107E+03  0.26394335978E+03  0.12509000000E+03 0.  0.
         25    1    3    3    0    0  0.43702970974E+01 -0.12959600383E+02  0.28930705403E+02  0.12911833547E+03  0.12509000000E+03 0.  0.
<mgrwt>
<rscale>  2 0.45280198E+03</rscale>
<asrwt>0</asrwt>
<pdfrwt beam="1">  1       21 0.87918095E-01 0.45280198E+03</pdfrwt>
<pdfrwt beam="2">  1       21 0.12608417E-01 0.45280198E+03</pdfrwt>
<totfact> 0.54745089E+04</totfact>
</mgrwt>
</event>
<event>
 6    0  0.1539652E-007  0.4540939E+03  0.7546771E-02  0.1026508E+00
         21   -1    0    0  502  501  0.00000000000E+00  0.00000000000E+00  0.51087552468E+03  0.51087552468E+03  0.00000000000E+00 0. -1.
         21   -1    0    0  501  502 -0.00000000000E+00 -0.00000000000E+00 -0.10090580918E+03  0.10090580918E+03  0.00000000000E+00 0. -1.
      99926    2    1    2    0    0  0.00000000000E+00 -0.71054273576E-14  0.40996971550E+03  0.61178133385E+03  0.45409385905E+03 0.  0.
         25    1    3    3    0    0 -0.46387042916E+02  0.93266212230E+01  0.19990603981E+03  0.24051751800E+03  0.12509000000E+03 0.  0.
         25    1    3    3    0    0  0.88168228702E+02  0.36609351461E+02  0.66052599957E+02  0.17065853400E+03  0.12509000000E+03 0.  0.
         25    1    3    3    0    0 -0.41781185785E+02 -0.45935972684E+02  0.14401107573E+03  0.20060528185E+03  0.12509000000E+03 0.  0.
<mgrwt>
<rscale>  2 0.45409386E+03</rscale>
<asrwt>0</asrwt>
<pdfrwt beam="1">  1       21 0.75128753E-01 0.45409386E+03</pdfrwt>
<pdfrwt beam="2">  1       21 0.14839090E-01 0.45409386E+03</pdfrwt>
<totfact> 0.58375577E+04</totfact>
</mgrwt>
</event>
<event>
 6    0  0.1539652E-007  0.4758305E+03  0.7546771E-02  0.1020287E+00
         21   -1    0    0  502  501  0.00000000000E+00  0.00000000000E+00  0.60967675578E+03  0.60967675578E+03  0.00000000000E+00 0. -1.
         21   -1    0    0  501  502 -0.00000000000E+00 -0.00000000000E+00 -0.92842084720E+02  0.92842084720E+02  0.00000000000E+00 0. -1.
      99926    2    1    2    0    0  0.00000000000E+00 -0.14210854715E-13  0.51683467106E+03  0.70251884050E+03  0.47583047827E+03 0.  0.
         25    1    3    3    0    0  0.10528723986E+03 -0.60090224059E+02  0.14672513515E+03  0.22775427831E+03  0.12509000000E+03 0.  0.
         25    1    3    3    0    0 -0.82785954175E+02  0.77315179286E+02  0.19898939387E+03  0.26091270213E+03  0.12509000000E+03 0.  0.
         25    1    3    3    0    0 -0.22501285688E+02 -0.17224955227E+02  0.17112014204E+03  0.21385186006E+03  0.12509000000E+03 0.  0.
<mgrwt>
<rscale>  2 0.47583048E+03</rscale>
<asrwt>0</asrwt>
<pdfrwt beam="1">  1       21 0.89658345E-01 0.47583048E+03</pdfrwt>
<pdfrwt beam="2">  1       21 0.13653248E-01 0.47583048E+03</pdfrwt>
<totfact> 0.44931124E+04</totfact>
</mgrwt>
</event>
<event>
 6    0  0.1539652E-007  0.4768274E+03  0.7546771E-02  0.1020011E+00
         21   -1    0    0  502  501  0.00000000000E+00  0.00000000000E+00  0.17776933472E+03  0.17776933472E+03  0.00000000000E+00 0. -1.
         21   -1    0    0  501  502 -0.00000000000E+00 -0.00000000000E+00 -0.31974626498E+03  0.31974626498E+03  0.00000000000E+00 0. -1.
      99926    2    1    2    0    0 -0.53290705182E-14  0.35527136788E-14 -0.14197693027E+03  0.49751559970E+03  0.47682735158E+03 0.  0.
         25    1    3    3    0    0  0.11831177700E+02  0.20993411568E+02  0.37092386833E+01  0.12744397454E+03  0.12509000000E+03 0.  0.
         25    1    3    3    0    0 -0.11345625665E+03  0.27146217048E+02 -0.87187678439E+02  0.19198551676E+03  0.12509000000E+03 0.  0.
         25    1    3    3    0    0  0.10162507895E+03 -0.48139628617E+02 -0.58498490511E+02  0.17808610840E+03  0.12509000000E+03 0.  0.
<mgrwt>
<rscale>  2 0.47682735E+03</rscale>
<asrwt>0</asrwt>
<pdfrwt beam="1">  1       21 0.26142549E-01 0.47682735E+03</pdfrwt>
<pdfrwt beam="2">  1       21 0.47021509E-01 0.47682735E+03</pdfrwt>
<totfact> 0.55236461E+04</totfact>
</mgrwt>
</event>
<event>
 6    0  0.1539652E-007  0.4581771E+03  0.7546771E-02  0.1025311E+00
         21   -1    0    0  502  501  0.00000000000E+00  0.00000000000E+00  0.25215282179E+03  0.25215282179E+03  0.00000000000E+00 0. -1.
         21   -1    0    0  501  502 -0.00000000000E+00 -0.00000000000E+00 -0.20813391290E+03  0.20813391290E+03  0.00000000000E+00 0. -1.
      99926    2    1    2    0    0  0.35527136788E-14  0.71054273576E-14  0.44018908884E+02  0.46028673469E+03  0.45817705507E+03 0.  0.
         25    1    3    3    0    0  0.91431462800E+02  0.12742665265E+02  0.35428295339E+02  0.15945143498E+03  0.12509000000E+03 0.  0.
         25    1    3    3    0    0 -0.18166822767E+02  0.48483283761E+02  0.38289503273E+02  0.14069206237E+03  0.12509000000E+03 0.  0.
         25    1    3    3    0    0 -0.73264640033E+02 -0.61225949025E+02 -0.29698889727E+02  0.16014323734E+03  0.12509000000E+03 0.  0.
<mgrwt>
<rscale>  2 0.45817706E+03</rscale>
<asrwt>0</asrwt>
<pdfrwt beam="1">  1       21 0.37081297E-01 0.45817706E+03</pdfrwt>
<pdfrwt beam="2">  1       21 0.30607928E-01 0.45817706E+03</pdfrwt>
<totfact> 0.66459527E+04</totfact>
</mgrwt>
</event>
<event>
 6    0  0.1539652E-007  0.4556785E+03  0.7546771E-02  0.1026042E+00
         21   -1    0    0  502  501  0.00000000000E+00  0.00000000000E+00  0.29807619034E+03  0.29807619034E+03  0.00000000000E+00 0.  1.
         21   -1    0    0  501  502 -0.00000000000E+00 -0.00000000000E+00 -0.17415256036E+03  0.17415256036E+03  0.00000000000E+00 0.  1.
      99926    2    1    2    0    0 -0.71054273576E-14  0.00000000000E+00  0.12392362998E+03  0.47222875070E+03  0.45567853463E+03 0.  0.
         25    1    3    3    0    0 -0.39151080506E+02  0.28203408715E+02 -0.86636289378E+01  0.13435328777E+03  0.12509000000E+03 0.  0.
         25    1    3    3    0    0  0.67273938840E+01  0.66005737239E+02  0.21644011647E+02  0.14324100850E+03  0.12509000000E+03 0.  0.
         25    1    3    3    0    0  0.32423686622E+02 -0.94209145955E+02  0.11094324727E+03  0.19463445443E+03  0.12509000000E+03 0.  0.
<mgrwt>
<rscale>  2 0.45567853E+03</rscale>
<asrwt>0</asrwt>
<pdfrwt beam="1">  1       21 0.43834734E-01 0.45567853E+03</pdfrwt>
<pdfrwt beam="2">  1       21 0.25610671E-01 0.45567853E+03</pdfrwt>
<totfact> 0.66909415E+04</totfact>
</mgrwt>
</event>
<event>
 6    0  0.1539652E-007  0.4578796E+03  0.7546771E-02  0.1025398E+00
         21   -1    0    0  502  501  0.00000000000E+00  0.00000000000E+00  0.29253153810E+03  0.29253153810E+03  0.00000000000E+00 0. -1.
         21   -1    0    0  501  502 -0.00000000000E+00 -0.00000000000E+00 -0.17917187868E+03  0.17917187868E+03  0.00000000000E+00 0. -1.
      99926    2    1    2    0    0  0.00000000000E+00 -0.71054273576E-14  0.11335965942E+03  0.47170341677E+03  0.45787957042E+03 0.  0.
         25    1    3    3    0    0 -0.81247837854E+02  0.45276881400E+02 -0.17452432037E+02  0.15685439946E+03  0.12509000000E+03 0.  0.
         25    1    3    3    0    0  0.61282270537E+02 -0.45050864579E+02  0.22369841013E+02  0.14809799110E+03  0.12509000000E+03 0.  0.
         25    1    3    3    0    0  0.19965567316E+02 -0.22601682032E+00  0.10844225044E+03  0.16675102621E+03  0.12509000000E+03 0.  0.
<mgrwt>
<rscale>  2 0.45787957E+03</rscale>
<asrwt>0</asrwt>
<pdfrwt beam="1">  1       21 0.43019344E-01 0.45787957E+03</pdfrwt>
<pdfrwt beam="2">  1       21 0.26348806E-01 0.45787957E+03</pdfrwt>
<totfact> 0.65793424E+04</totfact>
</mgrwt>
</event>
<event>
 6    0  0.1539652E-007  0.4905526E+03  0.7546771E-02  0.1016275E+00
         21   -1    0    0  502  501  0.00000000000E+00  0.00000000000E+00  0.87419824473E+03  0.87419824473E+03  0.00000000000E+00 0.  1.
         21   -1    0    0  501  502 -0.00000000000E+00 -0.00000000000E+00 -0.68817862827E+02  0.68817862827E+02  0.00000000000E+00 0.  1.
      99926    2    1    2    0    0  0.00000000000E+00  0.00000000000E+00  0.80538038190E+03  0.94301610755E+03  0.49055256554E+03 0.  0.
         25    1    3    3    0    0  0.48651908168E+02 -0.70338814109E+02  0.14281382509E+03  0.20822548757E+03  0.12509000000E+03 0.  0.
         25    1    3    3    0    0 -0.20001534557E+02  0.79746397090E+02  0.17382830857E+03  0.22939777286E+03  0.12509000000E+03 0.  0.
         25    1    3    3    0    0 -0.28650373611E+02 -0.94075829812E+01  0.48873824824E+03  0.50539284712E+03  0.12509000000E+03 0.  0.
<mgrwt>
<rscale>  2 0.49055257E+03</rscale>
<asrwt>0</asrwt>
<pdfrwt beam="1">  1       21 0.12855856E+00 0.49055257E+03</pdfrwt>
<pdfrwt beam="2">  1       21 0.10120274E-01 0.49055257E+03</pdfrwt>
<totfact> 0.31655880E+04</totfact>
</mgrwt>
</event>
<event>
 6    0  0.1539652E-007  0.4514511E+03  0.7546771E-02  0.1027290E+00
         21   -1    0    0  502  501  0.00000000000E+00  0.00000000000E+00  0.41014460495E+03  0.41014460495E+03  0.00000000000E+00 0. -1.
         21   -1    0    0  501  502 -0.00000000000E+00 -0.00000000000E+00 -0.12422939150E+03  0.12422939150E+03  0.00000000000E+00 0. -1.
      99926    2    1    2    0    0  0.00000000000E+00  0.00000000000E+00  0.28591521345E+03  0.53437399645E+03  0.45145105914E+03 0.  0.
         25    1    3    3    0    0  0.20562680552E+02 -0.22531356570E+02  0.17635980214E+03  0.21835927681E+03  0.12509000000E+03 0.  0.
         25    1    3    3    0    0  0.67706730871E+02  0.11699373790E+02  0.58838627635E+02  0.15437152896E+03  0.12509000000E+03 0.  0.
         25    1    3    3    0    0 -0.88269411423E+02  0.10831982780E+02  0.50716783679E+02  0.16164319067E+03  0.12509000000E+03 0.  0.
<mgrwt>
<rscale>  2 0.45145106E+03</rscale>
<asrwt>0</asrwt>
<pdfrwt beam="1">  1       21 0.60315383E-01 0.45145106E+03</pdfrwt>
<pdfrwt beam="2">  1       21 0.18269028E-01 0.45145106E+03</pdfrwt>
<totfact> 0.64709672E+04</totfact>
</mgrwt>
</event>
<event>
 6    0  0.1539652E-007  0.4492170E+03  0.7546771E-02  0.1027956E+00
         21   -1    0    0  502  501  0.00000000000E+00  0.00000000000E+00  0.16395363469E+03  0.16395363469E+03  0.00000000000E+00 0. -1.
         21   -1    0    0  501  502 -0.00000000000E+00 -0.00000000000E+00 -0.30770268241E+03  0.30770268241E+03  0.00000000000E+00 0. -1.
      99926    2    1    2    0    0  0.00000000000E+00  0.00000000000E+00 -0.14374904772E+03  0.47165631710E+03  0.44921697735E+03 0.  0.
         25    1    3    3    0    0 -0.48977131064E+02 -0.43650736490E+01 -0.43430937909E+02  0.14125001842E+03  0.12509000000E+03 0.  0.
         25    1    3    3    0    0  0.35402114443E+02  0.52487372552E+02  0.29559675595E+02  0.14328124967E+03  0.12509000000E+03 0.  0.
         25    1    3    3    0    0  0.13575016621E+02 -0.48122298903E+02 -0.12987778540E+03  0.18712504902E+03  0.12509000000E+03 0.  0.
<mgrwt>
<rscale>  2 0.44921698E+03</rscale>
<asrwt>0</asrwt>
<pdfrwt beam="1">  1       21 0.24110829E-01 0.44921698E+03</pdfrwt>
<pdfrwt beam="2">  1       21 0.45250394E-01 0.44921698E+03</pdfrwt>
<totfact> 0.70492666E+04</totfact>
</mgrwt>
</event>
<event>
 6    0  0.1539652E-007  0.4585583E+03  0.7546771E-02  0.1025200E+00
         21   -1    0    0  502  501  0.00000000000E+00  0.00000000000E+00  0.78060058806E+03  0.78060058806E+03  0.00000000000E+00 0. -1.
         21   -1    0    0  501  502 -0.00000000000E+00 -0.00000000000E+00 -0.67344208807E+02  0.67344208807E+02  0.00000000000E+00 0. -1.
      99926    2    1    2    0    0  0.00000000000E+00  0.53290705182E-14  0.71325637925E+03  0.84794479686E+03  0.45855830162E+03 0.  0.
         25    1    3    3    0    0  0.85465300124E+01 -0.64083348539E+02  0.36309154762E+03  0.38943895386E+03  0.12509000000E+03 0.  0.
         25    1    3    3    0    0 -0.17401736304E+02  0.74029427364E+02  0.96427935228E+02  0.17529698039E+03  0.12509000000E+03 0.  0.
         25    1    3    3    0    0  0.88552062917E+01 -0.99460788250E+01  0.25373689641E+03  0.28320886261E+03  0.12509000000E+03 0.  0.
<mgrwt>
<rscale>  2 0.45855830E+03</rscale>
<asrwt>0</asrwt>
<pdfrwt beam="1">  1       21 0.11479420E+00 0.45855830E+03</pdfrwt>
<pdfrwt beam="2">  1       21 0.99035606E-02 0.45855830E+03</pdfrwt>
<totfact> 0.44282349E+04</totfact>
</mgrwt>
</event>
<event>
 6    0  0.1539652E-007  0.4656215E+03  0.7546771E-02  0.1023163E+00
         21   -1    0    0  502  501  0.00000000000E+00  0.00000000000E+00  0.35587637834E+03  0.35587637834E+03  0.00000000000E+00 0. -1.
         21   -1    0    0  501  502 -0.00000000000E+00 -0.00000000000E+00 -0.15230242568E+03  0.15230242568E+03  0.00000000000E+00 0. -1.
      99926    2    1    2    0    0 -0.35527136788E-14  0.35527136788E-14  0.20357395266E+03  0.50817880401E+03  0.46562145854E+03 0.  0.
         25    1    3    3    0    0 -0.97355171333E+02  0.52175595103E+02  0.38730521483E+02  0.17131223980E+03  0.12509000000E+03 0.  0.
         25    1    3    3    0    0  0.10267950942E+02 -0.29835961448E+02  0.12057859035E+03  0.17658516349E+03  0.12509000000E+03 0.  0.
         25    1    3    3    0    0  0.87087220392E+02 -0.22339633656E+02  0.44264840820E+02  0.16028140073E+03  0.12509000000E+03 0.  0.
<mgrwt>
<rscale>  2 0.46562146E+03</rscale>
<asrwt>0</asrwt>
<pdfrwt beam="1">  1       21 0.52334762E-01 0.46562146E+03</pdfrwt>
<pdfrwt beam="2">  1       21 0.22397415E-01 0.46562146E+03</pdfrwt>
<totfact> 0.59521053E+04</totfact>
</mgrwt>
</event>
<event>
 6    0  0.1539652E-007  0.4642104E+03  0.7546771E-02  0.1023567E+00
         21   -1    0    0  502  501  0.00000000000E+00  0.00000000000E+00  0.62753218221E+03  0.62753218221E+03  0.00000000000E+00 0. -1.
         21   -1    0    0  501  502 -0.00000000000E+00 -0.00000000000E+00 -0.85848695692E+02  0.85848695692E+02  0.00000000000E+00 0. -1.
      99926    2    1    2    0    0 -0.22204460493E-15  0.62172489379E-14  0.54168348652E+03  0.71338087790E+03  0.46421038053E+03 0.  0.
         25    1    3    3    0    0  0.47481537599E+00 -0.64194049387E+01  0.41586183152E+02  0.13197860788E+03  0.12509000000E+03 0.  0.
         25    1    3    3    0    0 -0.42150709283E+02  0.63784935674E+02  0.19352803495E+03  0.24278757943E+03  0.12509000000E+03 0.  0.
         25    1    3    3    0    0  0.41675893907E+02 -0.57365530735E+02  0.30656926841E+03  0.33861469059E+03  0.12509000000E+03 0.  0.
<mgrwt>
<rscale>  2 0.46421038E+03</rscale>
<asrwt>0</asrwt>
<pdfrwt beam="1">  1       21 0.92284142E-01 0.46421038E+03</pdfrwt>
<pdfrwt beam="2">  1       21 0.12624809E-01 0.46421038E+03</pdfrwt>
<totfact> 0.48566540E+04</totfact>
</mgrwt>
</event>
<event>
 6    0  0.1539652E-007  0.4570484E+03  0.7546771E-02  0.1025641E+00
         21   -1    0    0  502  501  0.00000000000E+00  0.00000000000E+00  0.15072736440E+03  0.15072736440E+03  0.00000000000E+00 0. -1.
         21   -1    0    0  501  502 -0.00000000000E+00 -0.00000000000E+00 -0.34647526088E+03  0.34647526088E+03  0.00000000000E+00 0. -1.
      99926    2    1    2    0    0 -0.17763568394E-14  0.14210854715E-13 -0.19574789648E+03  0.49720262528E+03  0.45704836900E+03 0.  0.
         25    1    3    3    0    0 -0.93350816455E+02  0.21216258201E+02 -0.51009734024E+02  0.16557175366E+03  0.12509000000E+03 0.  0.
         25    1    3    3    0    0  0.12813396013E+02 -0.66427953741E+02 -0.80283307689E+02  0.16330882937E+03  0.12509000000E+03 0.  0.
         25    1    3    3    0    0  0.80537420442E+02  0.45211695540E+02 -0.64454854765E+02  0.16832204225E+03  0.12509000000E+03 0.  0.
<mgrwt>
<rscale>  2 0.45704837E+03</rscale>
<asrwt>0</asrwt>
<pdfrwt beam="1">  1       21 0.22165789E-01 0.45704837E+03</pdfrwt>
<pdfrwt beam="2">  1       21 0.50952244E-01 0.45704837E+03</pdfrwt>
<totfact> 0.64413816E+04</totfact>
</mgrwt>
</event>
<event>
 6    0  0.1539652E-007  0.4492224E+03  0.7546771E-02  0.1027954E+00
         21   -1    0    0  502  501  0.00000000000E+00  0.00000000000E+00  0.79809406303E+02  0.79809406303E+02  0.00000000000E+00 0. -1.
         21   -1    0    0  501  502 -0.00000000000E+00 -0.00000000000E+00 -0.63213350100E+03  0.63213350100E+03  0.00000000000E+00 0. -1.
      99926    2    1    2    0    0  0.00000000000E+00 -0.14210854715E-13 -0.55232409469E+03  0.71194290730E+03  0.44922243675E+03 0.  0.
         25    1    3    3    0    0  0.40018553971E+02 -0.96946063780E+02 -0.21475396451E+03  0.26975321558E+03  0.12509000000E+03 0.  0.
         25    1    3    3    0    0 -0.43440436038E+01  0.22703623756E+02 -0.10206031356E+03  0.16308936492E+03  0.12509000000E+03 0.  0.
         25    1    3    3    0    0 -0.35674510367E+02  0.74242440024E+02 -0.23550981663E+03  0.27910032680E+03  0.12509000000E+03 0.  0.
<mgrwt>
<rscale>  2 0.44922244E+03</rscale>
<asrwt>0</asrwt>
<pdfrwt beam="1">  1       21 0.11736677E-01 0.44922244E+03</pdfrwt>
<pdfrwt beam="2">  1       21 0.92960811E-01 0.44922244E+03</pdfrwt>
<totfact> 0.54703716E+04</totfact>
</mgrwt>
</event>
<event>
 6    0  0.1539652E-007  0.4838602E+03  0.7546771E-02  0.1018080E+00
         21   -1    0    0  502  501  0.00000000000E+00  0.00000000000E+00  0.32791878916E+04  0.32791878916E+04  0.00000000000E+00 0.  1.
         21   -1    0    0  501  502 -0.00000000000E+00 -0.00000000000E+00 -0.17848982088E+02  0.17848982088E+02  0.00000000000E+00 0.  1.
      99926    2    1    2    0    0 -0.14210854715E-13  0.00000000000E+00  0.32613389096E+04  0.32970368737E+04  0.48386016964E+03 0.  0.
         25    1    3    3    0    0  0.22734568372E+02 -0.63492631442E+02  0.16200134803E+04  0.16262347184E+04  0.12509000000E+03 0.  0.
         25    1    3    3    0    0 -0.64941211673E+02  0.12357378360E+02  0.11742131348E+04  0.11827062441E+04  0.12509000000E+03 0.  0.
         25    1    3    3    0    0  0.42206643301E+02  0.51135253082E+02  0.46711229442E+03  0.48809591122E+03  0.12509000000E+03 0.  0.
<mgrwt>
<rscale>  2 0.48386017E+03</rscale>
<asrwt>0</asrwt>
<pdfrwt beam="1">  1       21 0.48223310E+00 0.48386017E+03</pdfrwt>
<pdfrwt beam="2">  1       21 0.26248526E-02 0.48386017E+03</pdfrwt>
<totfact> 0.15316843E+03</totfact>
</mgrwt>
</event>
<event>
 6    0  0.1539652E-007  0.4487017E+03  0.7546771E-02  0.1028110E+00
         21   -1    0    0  502  501  0.00000000000E+00  0.00000000000E+00  0.11374969658E+03  0.11374969658E+03  0.00000000000E+00 0. -1.
         21   -1    0    0  501  502 -0.00000000000E+00 -0.00000000000E+00 -0.44249179294E+03  0.44249179294E+03  0.00000000000E+00 0. -1.
      99926    2    1    2    0    0  0.00000000000E+00 -0.35527136788E-14 -0.32874209635E+03  0.55624148952E+03  0.44870171467E+03 0.  0.
         25    1    3    3    0    0 -0.35913125187E+02  0.39323164386E+02 -0.15287724559E+03  0.20458500467E+03  0.12509000000E+03 0.  0.
         25    1    3    3    0    0  0.10022437815E+03 -0.14465076464E+02 -0.80845448304E+02  0.18010457802E+03  0.12509000000E+03 0.  0.
         25    1    3    3    0    0 -0.64311252960E+02 -0.24858087922E+02 -0.95019402462E+02  0.17155190683E+03  0.12509000000E+03 0.  0.
<mgrwt>
<rscale>  2 0.44870171E+03</rscale>
<asrwt>0</asrwt>
<pdfrwt beam="1">  1       21 0.16727897E-01 0.44870171E+03</pdfrwt>
<pdfrwt beam="2">  1       21 0.65072321E-01 0.44870171E+03</pdfrwt>
<totfact> 0.64615607E+04</totfact>
</mgrwt>
</event>
<event>
 6    0  0.1539652E-007  0.4794286E+03  0.7546771E-02  0.1019292E+00
         21   -1    0    0  502  501  0.00000000000E+00  0.00000000000E+00  0.46137497859E+03  0.46137497859E+03  0.00000000000E+00 0.  1.
         21   -1    0    0  501  502 -0.00000000000E+00 -0.00000000000E+00 -0.12454717647E+03  0.12454717647E+03  0.00000000000E+00 0.  1.
      99926    2    1    2    0    0  0.53290705182E-14  0.26645352591E-14  0.33682780212E+03  0.58592215507E+03  0.47942862192E+03 0.  0.
         25    1    3    3    0    0 -0.36384108615E+02  0.68691550434E+02  0.25198206731E+03  0.29186435686E+03  0.12509000000E+03 0.  0.
         25    1    3    3    0    0 -0.41828728599E+01  0.43376180211E+01  0.68517784516E+02  0.14275330557E+03  0.12509000000E+03 0.  0.
         25    1    3    3    0    0  0.40566981475E+02 -0.73029168455E+02  0.16327950296E+02  0.15130449264E+03  0.12509000000E+03 0.  0.
<mgrwt>
<rscale>  2 0.47942862E+03</rscale>
<asrwt>0</asrwt>
<pdfrwt beam="1">  1       21 0.67849261E-01 0.47942862E+03</pdfrwt>
<pdfrwt beam="2">  1       21 0.18315761E-01 0.47942862E+03</pdfrwt>
<totfact> 0.49316797E+04</totfact>
</mgrwt>
</event>
<event>
 6    0  0.1539652E-007  0.4453219E+03  0.7546771E-02  0.1029126E+00
         21   -1    0    0  502  501  0.00000000000E+00  0.00000000000E+00  0.37177106814E+03  0.37177106814E+03  0.00000000000E+00 0.  1.
         21   -1    0    0  501  502 -0.00000000000E+00 -0.00000000000E+00 -0.13335600527E+03  0.13335600527E+03  0.00000000000E+00 0.  1.
      99926    2    1    2    0    0 -0.35527136788E-14  0.00000000000E+00  0.23841506287E+03  0.50512707341E+03  0.44532192635E+03 0.  0.
         25    1    3    3    0    0 -0.99933023226E+02  0.16205889654E+02  0.49330914799E+02  0.16831603383E+03  0.12509000000E+03 0.  0.
         25    1    3    3    0    0  0.82077631190E+02 -0.19063092314E+02  0.12024461989E+03  0.19288964654E+03  0.12509000000E+03 0.  0.
         25    1    3    3    0    0  0.17855392036E+02  0.28572026595E+01  0.68839528183E+02  0.14392139303E+03  0.12509000000E+03 0.  0.
<mgrwt>
<rscale>  2 0.44532193E+03</rscale>
<asrwt>0</asrwt>
<pdfrwt beam="1">  1       21 0.54672216E-01 0.44532193E+03</pdfrwt>
<pdfrwt beam="2">  1       21 0.19611177E-01 0.44532193E+03</pdfrwt>
<totfact> 0.70146796E+04</totfact>
</mgrwt>
</event>
<event>
 6    0  0.1539652E-007  0.4526630E+03  0.7546771E-02  0.1026931E+00
         21   -1    0    0  502  501  0.00000000000E+00  0.00000000000E+00  0.32848971213E+03  0.32848971213E+03  0.00000000000E+00 0. -1.
         21   -1    0    0  501  502 -0.00000000000E+00 -0.00000000000E+00 -0.15594386699E+03  0.15594386699E+03  0.00000000000E+00 0. -1.
      99926    2    1    2    0    0  0.16653345369E-15  0.00000000000E+00  0.17254584513E+03  0.48443357912E+03  0.45266303572E+03 0.  0.
         25    1    3    3    0    0  0.29283032757E+02  0.15272951493E+01  0.71853463180E+02  0.14720820938E+03  0.12509000000E+03 0.  0.
         25    1    3    3    0    0 -0.28873817644E+02 -0.99884161533E+02  0.47805276398E+02  0.16953877321E+03  0.12509000000E+03 0.  0.
         25    1    3    3    0    0 -0.40921511275E+00  0.98356866384E+02  0.52887105557E+02  0.16768659653E+03  0.12509000000E+03 0.  0.
<mgrwt>
<rscale>  2 0.45266304E+03</rscale>
<asrwt>0</asrwt>
<pdfrwt beam="1">  1       21 0.48307311E-01 0.45266304E+03</pdfrwt>
<pdfrwt beam="2">  1       21 0.22932922E-01 0.45266304E+03</pdfrwt>
<totfact> 0.67624643E+04</totfact>
</mgrwt>
</event>
<event>
 6    0  0.1539652E-007  0.4426618E+03  0.7546771E-02  0.1029933E+00
         21   -1    0    0  502  501  0.00000000000E+00  0.00000000000E+00  0.41814823482E+02  0.41814823482E+02  0.00000000000E+00 0. -1.
         21   -1    0    0  501  502 -0.00000000000E+00 -0.00000000000E+00 -0.11715311769E+04  0.11715311769E+04  0.00000000000E+00 0. -1.
      99926    2    1    2    0    0 -0.12434497876E-13  0.00000000000E+00 -0.11297163534E+04  0.12133460003E+04  0.44266180935E+03 0.  0.
         25    1    3    3    0    0 -0.75809608155E+02  0.23015203423E+02 -0.37949470861E+03  0.40735799764E+03  0.12509000000E+03 0.  0.
         25    1    3    3    0    0  0.84681840192E+02 -0.38811479214E+02 -0.29685855111E+03  0.33533543273E+03  0.12509000000E+03 0.  0.
         25    1    3    3    0    0 -0.88722320371E+01  0.15796275791E+02 -0.45336309365E+03  0.47065256997E+03  0.12509000000E+03 0.  0.
<mgrwt>
<rscale>  2 0.44266181E+03</rscale>
<asrwt>0</asrwt>
<pdfrwt beam="1">  1       21 0.61492399E-02 0.44266181E+03</pdfrwt>
<pdfrwt beam="2">  1       21 0.17228397E+00 0.44266181E+03</pdfrwt>
<totfact> 0.34978252E+04</totfact>
</mgrwt>
</event>
<event>
 6    0  0.1539652E-007  0.4450445E+03  0.7546771E-02  0.1029210E+00
         21   -1    0    0  502  501  0.00000000000E+00  0.00000000000E+00  0.33903880991E+03  0.33903880991E+03  0.00000000000E+00 0. -1.
         21   -1    0    0  501  502 -0.00000000000E+00 -0.00000000000E+00 -0.14604861198E+03  0.14604861198E+03  0.00000000000E+00 0. -1.
      99926    2    1    2    0    0  0.00000000000E+00 -0.11102230246E-14  0.19299019794E+03  0.48508742189E+03  0.44504448134E+03 0.  0.
         25    1    3    3    0    0 -0.43929142811E+02  0.43533907300E+02  0.99597342871E+02  0.17144127123E+03  0.12509000000E+03 0.  0.
         25    1    3    3    0    0 -0.51027269828E+02 -0.44871615887E+02  0.45709504367E+02  0.14951291271E+03  0.12509000000E+03 0.  0.
         25    1    3    3    0    0  0.94956412639E+02  0.13377085867E+01  0.47683350699E+02  0.16413323795E+03  0.12509000000E+03 0.  0.
<mgrwt>
<rscale>  2 0.44504448E+03</rscale>
<asrwt>0</asrwt>
<pdfrwt beam="1">  1       21 0.49858649E-01 0.44504448E+03</pdfrwt>
<pdfrwt beam="2">  1       21 0.21477737E-01 0.44504448E+03</pdfrwt>
<totfact> 0.71843972E+04</totfact>
</mgrwt>
</event>
<event>
 6    0  0.1539652E-007  0.4611014E+03  0.7546771E-02  0.1024462E+00
         21   -1    0    0  502  501  0.00000000000E+00  0.00000000000E+00  0.12932893805E+04  0.12932893805E+04  0.00000000000E+00 0. -1.
         21   -1    0    0  501  502 -0.00000000000E+00 -0.00000000000E+00 -0.41099563033E+02  0.41099563033E+02  0.00000000000E+00 0. -1.
      99926    2    1    2    0    0  0.00000000000E+00  0.00000000000E+00  0.12521898174E+04  0.13343889435E+04  0.46110141363E+03 0.  0.
         25    1    3    3    0    0  0.53505933154E+02 -0.51230253381E+01  0.71270824993E+03  0.72559609142E+03  0.12509000000E+03 0.  0.
         25    1    3    3    0    0  0.23816737465E+02  0.29893078324E+02  0.21461805485E+03  0.25133493725E+03  0.12509000000E+03 0.  0.
         25    1    3    3    0    0 -0.77322670619E+02 -0.24770052986E+02  0.32486351265E+03  0.35745791482E+03  0.12509000000E+03 0.  0.
<mgrwt>
<rscale>  2 0.46110141E+03</rscale>
<asrwt>0</asrwt>
<pdfrwt beam="1">  1       21 0.19018959E+00 0.46110141E+03</pdfrwt>
<pdfrwt beam="2">  1       21 0.60440542E-02 0.46110141E+03</pdfrwt>
<totfact> 0.26836273E+04</totfact>
</mgrwt>
</event>
<event>
 6    0  0.1539652E-007  0.4535861E+03  0.7546771E-02  0.1026658E+00
         21   -1    0    0  502  501  0.00000000000E+00  0.00000000000E+00  0.19803208221E+03  0.19803208221E+03  0.00000000000E+00 0. -1.
         21   -1    0    0  501  502 -0.00000000000E+00 -0.00000000000E+00 -0.25973111016E+03  0.25973111016E+03  0.00000000000E+00 0. -1.
      99926    2    1    2    0    0 -0.44408920985E-15  0.00000000000E+00 -0.61699027951E+02  0.45776319236E+03  0.45358612218E+03 0.  0.
         25    1    3    3    0    0  0.43012863041E+02 -0.44581032685E+02 -0.17396676373E+02  0.14066885693E+03  0.12509000000E+03 0.  0.
         25    1    3    3    0    0 -0.40898480069E+02 -0.44622961707E+02 -0.78608209688E+02  0.15965792531E+03  0.12509000000E+03 0.  0.
         25    1    3    3    0    0 -0.21143829724E+01  0.89203994392E+02  0.34305858109E+02  0.15743641012E+03  0.12509000000E+03 0.  0.
<mgrwt>
<rscale>  2 0.45358612E+03</rscale>
<asrwt>0</asrwt>
<pdfrwt beam="1">  1       21 0.29122365E-01 0.45358612E+03</pdfrwt>
<pdfrwt beam="2">  1       21 0.38195751E-01 0.45358612E+03</pdfrwt>
<totfact> 0.69119962E+04</totfact>
</mgrwt>
</event>
<event>
 6    0  0.1539652E-007  0.4442097E+03  0.7546771E-02  0.1029463E+00
         21   -1    0    0  502  501  0.00000000000E+00  0.00000000000E+00  0.17214321979E+03  0.17214321979E+03  0.00000000000E+00 0.  1.
         21   -1    0    0  501  502 -0.00000000000E+00 -0.00000000000E+00 -0.28656705184E+03  0.28656705184E+03  0.00000000000E+00 0.  1.
      99926    2    1    2    0    0  0.35527136788E-14  0.00000000000E+00 -0.11442383205E+03  0.45871027163E+03  0.44420974771E+03 0.  0.
         25    1    3    3    0    0 -0.14590254791E+02  0.44893959160E+02 -0.12887260697E+03  0.18569868075E+03  0.12509000000E+03 0.  0.
         25    1    3    3    0    0 -0.28870057829E+02  0.10241865185E+02 -0.53065543135E+00  0.12878728872E+03  0.12509000000E+03 0.  0.
         25    1    3    3    0    0  0.43460312620E+02 -0.55135824345E+02  0.14979430355E+02  0.14422430216E+03  0.12509000000E+03 0.  0.
<mgrwt>
<rscale>  2 0.44420975E+03</rscale>
<asrwt>0</asrwt>
<pdfrwt beam="1">  1       21 0.25315180E-01 0.44420975E+03</pdfrwt>
<pdfrwt beam="2">  1       21 0.42142213E-01 0.44420975E+03</pdfrwt>
<totfact> 0.74456395E+04</totfact>
</mgrwt>
</event>
<event>
 6    0  0.1539652E-007  0.4666835E+03  0.7546771E-02  0.1022860E+00
         21   -1    0    0  502  501  0.00000000000E+00  0.00000000000E+00  0.13408062053E+03  0.13408062053E+03  0.00000000000E+00 0.  1.
         21   -1    0    0  501  502 -0.00000000000E+00 -0.00000000000E+00 -0.40608685539E+03  0.40608685539E+03  0.00000000000E+00 0.  1.
      99926    2    1    2    0    0 -0.88817841970E-15  0.00000000000E+00 -0.27200623486E+03  0.54016747592E+03  0.46668352257E+03 0.  0.
         25    1    3    3    0    0 -0.79824660227E+01 -0.10772689733E+03 -0.69850242766E+02  0.17943067933E+03  0.12509000000E+03 0.  0.
         25    1    3    3    0    0  0.48561439233E+02  0.77556456552E+02 -0.15116701276E+03  0.21649986416E+03  0.12509000000E+03 0.  0.
         25    1    3    3    0    0 -0.40578973211E+02  0.30170440775E+02 -0.50988979336E+02  0.14423693243E+03  0.12509000000E+03 0.  0.
<mgrwt>
<rscale>  2 0.46668352E+03</rscale>
<asrwt>0</asrwt>
<pdfrwt beam="1">  1       21 0.19717738E-01 0.46668352E+03</pdfrwt>
<pdfrwt beam="2">  1       21 0.59718655E-01 0.46668352E+03</pdfrwt>
<totfact> 0.57054532E+04</totfact>
</mgrwt>
</event>
<event>
 6    0  0.1539652E-007  0.4569017E+03  0.7546771E-02  0.1025684E+00
         21   -1    0    0  502  501  0.00000000000E+00  0.00000000000E+00  0.41220961185E+03  0.41220961185E+03  0.00000000000E+00 0. -1.
         21   -1    0    0  501  502 -0.00000000000E+00 -0.00000000000E+00 -0.12660984028E+03  0.12660984028E+03  0.00000000000E+00 0. -1.
      99926    2    1    2    0    0  0.17763568394E-14 -0.14210854715E-13  0.28559977157E+03  0.53881945214E+03  0.45690170986E+03 0.  0.
         25    1    3    3    0    0 -0.15944718451E+02  0.54536212667E+02  0.61616003503E+02  0.15057381089E+03  0.12509000000E+03 0.  0.
         25    1    3    3    0    0  0.89768769591E+01 -0.91517154694E+02  0.20359530951E+03  0.25603619290E+03  0.12509000000E+03 0.  0.
         25    1    3    3    0    0  0.69678414919E+01  0.36980942028E+02  0.20388458565E+02  0.13220944834E+03  0.12509000000E+03 0.  0.
<mgrwt>
<rscale>  2 0.45690171E+03</rscale>
<asrwt>0</asrwt>
<pdfrwt beam="1">  1       21 0.60619060E-01 0.45690171E+03</pdfrwt>
<pdfrwt beam="2">  1       21 0.18619094E-01 0.45690171E+03</pdfrwt>
<totfact> 0.61677893E+04</totfact>
</mgrwt>
</event>
<event>
 6    0  0.1539652E-007  0.4565802E+03  0.7546771E-02  0.1025778E+00
         21   -1    0    0  502  501  0.00000000000E+00  0.00000000000E+00  0.72311934052E+03  0.72311934052E+03  0.00000000000E+00 0. -1.
         21   -1    0    0  501  502 -0.00000000000E+00 -0.00000000000E+00 -0.72071591559E+02  0.72071591559E+02  0.00000000000E+00 0. -1.
      99926    2    1    2    0    0  0.00000000000E+00 -0.71054273576E-14  0.65104774896E+03  0.79519093208E+03  0.45658016496E+03 0.  0.
         25    1    3    3    0    0  0.27752775346E+01 -0.73514837124E+01  0.14404190459E+03  0.19093801313E+03  0.12509000000E+03 0.  0.
         25    1    3    3    0    0  0.93673184848E+02  0.43472041227E+02  0.20385830196E+03  0.26051909586E+03  0.12509000000E+03 0.  0.
         25    1    3    3    0    0 -0.96448462382E+02 -0.36120557515E+02  0.30314754241E+03  0.34373382310E+03  0.12509000000E+03 0.  0.
<mgrwt>
<rscale>  2 0.45658016E+03</rscale>
<asrwt>0</asrwt>
<pdfrwt beam="1">  1       21 0.10634108E+00 0.45658016E+03</pdfrwt>
<pdfrwt beam="2">  1       21 0.10598764E-01 0.45658016E+03</pdfrwt>
<totfact> 0.47407650E+04</totfact>
</mgrwt>
</event>
<event>
 6    0  0.1539652E-007  0.4667235E+03  0.7546771E-02  0.1022849E+00
         21   -1    0    0  502  501  0.00000000000E+00  0.00000000000E+00  0.56192404167E+03  0.56192404167E+03  0.00000000000E+00 0.  1.
         21   -1    0    0  501  502 -0.00000000000E+00 -0.00000000000E+00 -0.96912917144E+02  0.96912917144E+02  0.00000000000E+00 0.  1.
      99926    2    1    2    0    0  0.00000000000E+00 -0.53290705182E-14  0.46501112452E+03  0.65883695881E+03  0.46672346455E+03 0.  0.
         25    1    3    3    0    0 -0.29435737189E+02 -0.92595158705E+02  0.14556315403E+03  0.21511965496E+03  0.12509000000E+03 0.  0.
         25    1    3    3    0    0 -0.39488815250E+02  0.99828528900E+02  0.16508514986E+03  0.23329319861E+03  0.12509000000E+03 0.  0.
         25    1    3    3    0    0  0.68924552439E+02 -0.72333701952E+01  0.15436282063E+03  0.21042410524E+03  0.12509000000E+03 0.  0.
<mgrwt>
<rscale>  2 0.46672346E+03</rscale>
<asrwt>0</asrwt>
<pdfrwt beam="1">  1       21 0.82635887E-01 0.46672346E+03</pdfrwt>
<pdfrwt beam="2">  1       21 0.14251900E-01 0.46672346E+03</pdfrwt>
<totfact> 0.50373194E+04</totfact>
</mgrwt>
</event>
<event>
 6    0  0.1539652E-007  0.4573717E+03  0.7546771E-02  0.1025546E+00
         21   -1    0    0  502  501  0.00000000000E+00  0.00000000000E+00  0.26660487275E+02  0.26660487275E+02  0.00000000000E+00 0. -1.
         21   -1    0    0  501  502 -0.00000000000E+00 -0.00000000000E+00 -0.19616002460E+04  0.19616002460E+04  0.00000000000E+00 0. -1.
      99926    2    1    2    0    0  0.88817841970E-15  0.35527136788E-14 -0.19349397587E+04  0.19882607333E+04  0.45737170177E+03 0.  0.
         25    1    3    3    0    0  0.25248325745E+02  0.38232859925E+02 -0.11214744836E+04  0.11293590018E+04  0.12509000000E+03 0.  0.
         25    1    3    3    0    0 -0.30029606632E+02 -0.59786754070E+02 -0.52257185124E+03  0.54148414662E+03  0.12509000000E+03 0.  0.
         25    1    3    3    0    0  0.47812808875E+01  0.21553894145E+02 -0.29089342391E+03  0.31741758485E+03  0.12509000000E+03 0.  0.
<mgrwt>
<rscale>  2 0.45737170E+03</rscale>
<asrwt>0</asrwt>
<pdfrwt beam="1">  1       21 0.39206598E-02 0.45737170E+03</pdfrwt>
<pdfrwt beam="2">  1       21 0.28847063E+00 0.45737170E+03</pdfrwt>
<totfact> 0.13649331E+04</totfact>
</mgrwt>
</event>
<event>
 6    0  0.1539652E-007  0.4525653E+03  0.7546771E-02  0.1026960E+00
         21   -1    0    0  502  501  0.00000000000E+00  0.00000000000E+00  0.66978962921E+03  0.66978962921E+03  0.00000000000E+00 0.  1.
         21   -1    0    0  501  502 -0.00000000000E+00 -0.00000000000E+00 -0.76447631899E+02  0.76447631899E+02  0.00000000000E+00 0.  1.
      99926    2    1    2    0    0 -0.97699626167E-14  0.00000000000E+00  0.59334199731E+03  0.74623726111E+03  0.45256527054E+03 0.  0.
         25    1    3    3    0    0  0.10069834444E+03  0.33512442905E+02  0.22428926265E+03  0.27787842997E+03  0.12509000000E+03 0.  0.
         25    1    3    3    0    0 -0.64869568841E+01 -0.38511465486E+02  0.18382748659E+03  0.22575488147E+03  0.12509000000E+03 0.  0.
         25    1    3    3    0    0 -0.94211387551E+02  0.49990225811E+01  0.18522524807E+03  0.24260394967E+03  0.12509000000E+03 0.  0.
<mgrwt>
<rscale>  2 0.45256527E+03</rscale>
<asrwt>0</asrwt>
<pdfrwt beam="1">  1       21 0.98498472E-01 0.45256527E+03</pdfrwt>
<pdfrwt beam="2">  1       21 0.11242299E-01 0.45256527E+03</pdfrwt>
<totfact> 0.51440819E+04</totfact>
</mgrwt>
</event>
<event>
 6    0  0.1539652E-007  0.4575637E+03  0.7546771E-02  0.1025490E+00
         21   -1    0    0  502  501  0.00000000000E+00  0.00000000000E+00  0.87392884406E+02  0.87392884406E+02  0.00000000000E+00 0.  1.
         21   -1    0    0  501  502 -0.00000000000E+00 -0.00000000000E+00 -0.59891765627E+03  0.59891765627E+03  0.00000000000E+00 0.  1.
      99926    2    1    2    0    0  0.00000000000E+00  0.00000000000E+00 -0.51152477186E+03  0.68631054067E+03  0.45756372891E+03 0.  0.
         25    1    3    3    0    0  0.10335990598E+03 -0.50720127987E+01 -0.16545631048E+03  0.23180227406E+03  0.12509000000E+03 0.  0.
         25    1    3    3    0    0 -0.78185295913E+01 -0.38498909381E+02 -0.16259994022E+03  0.20887686345E+03  0.12509000000E+03 0.  0.
         25    1    3    3    0    0 -0.95541376392E+02  0.43570922180E+02 -0.18346852116E+03  0.24563140316E+03  0.12509000000E+03 0.  0.
<mgrwt>
<rscale>  2 0.45756373E+03</rscale>
<asrwt>0</asrwt>
<pdfrwt beam="1">  1       21 0.12851895E-01 0.45756373E+03</pdfrwt>
<pdfrwt beam="2">  1       21 0.88076128E-01 0.45756373E+03</pdfrwt>
<totfact> 0.52583318E+04</totfact>
</mgrwt>
</event>
<event>
 6    0  0.1539652E-007  0.4567511E+03  0.7546771E-02  0.1025728E+00
         21   -1    0    0  502  501  0.00000000000E+00  0.00000000000E+00  0.26699638279E+02  0.26699638279E+02  0.00000000000E+00 0.  1.
         21   -1    0    0  501  502 -0.00000000000E+00 -0.00000000000E+00 -0.19534121517E+04  0.19534121517E+04  0.00000000000E+00 0.  1.
      99926    2    1    2    0    0  0.71054273576E-14  0.00000000000E+00 -0.19267125134E+04  0.19801117900E+04  0.45675112637E+03 0.  0.
         25    1    3    3    0    0  0.27001623076E+00  0.95179326677E+02 -0.56507321578E+03  0.58652742854E+03  0.12509000000E+03 0.  0.
         25    1    3    3    0    0  0.62979062603E+02 -0.37153694837E+02 -0.64964646447E+03  0.66560859088E+03  0.12509000000E+03 0.  0.
         25    1    3    3    0    0 -0.63249078834E+02 -0.58025631840E+02 -0.71199283320E+03  0.72797577058E+03  0.12509000000E+03 0.  0.
<mgrwt>
<rscale>  2 0.45675113E+03</rscale>
<asrwt>0</asrwt>
<pdfrwt beam="1">  1       21 0.39264167E-02 0.45675113E+03</pdfrwt>
<pdfrwt beam="2">  1       21 0.28726655E+00 0.45675113E+03</pdfrwt>
<totfact> 0.13848032E+04</totfact>
</mgrwt>
</event>
<event>
 6    0  0.1539652E-007  0.4521496E+03  0.7546771E-02  0.1027083E+00
         21   -1    0    0  502  501  0.00000000000E+00  0.00000000000E+00  0.18601993936E+04  0.18601993936E+04  0.00000000000E+00 0. -1.
         21   -1    0    0  501  502 -0.00000000000E+00 -0.00000000000E+00 -0.27475447226E+02  0.27475447226E+02  0.00000000000E+00 0. -1.
      99926    2    1    2    0    0 -0.88817841970E-14  0.00000000000E+00  0.18327239464E+04  0.18876748408E+04  0.45214957821E+03 0.  0.
         25    1    3    3    0    0  0.46245860888E+01 -0.18986278821E+02  0.68590234111E+03  0.69748935134E+03  0.12509000000E+03 0.  0.
         25    1    3    3    0    0  0.71401119099E+02  0.57859248253E+02  0.73956560930E+03  0.75567890732E+03  0.12509000000E+03 0.  0.
         25    1    3    3    0    0 -0.76025705188E+02 -0.38872969431E+02  0.40725599598E+03  0.43450658219E+03  0.12509000000E+03 0.  0.
<mgrwt>
<rscale>  2 0.45214958E+03</rscale>
<asrwt>0</asrwt>
<pdfrwt beam="1">  1       21 0.27355865E+00 0.45214958E+03</pdfrwt>
<pdfrwt beam="2">  1       21 0.40405082E-02 0.45214958E+03</pdfrwt>
<totfact> 0.15982218E+04</totfact>
</mgrwt>
</event>
<event>
 6    0  0.1539652E-007  0.4879843E+03  0.7546771E-02  0.1016964E+00
         21   -1    0    0  502  501  0.00000000000E+00  0.00000000000E+00  0.40142248513E+03  0.40142248513E+03  0.00000000000E+00 0. -1.
         21   -1    0    0  501  502 -0.00000000000E+00 -0.00000000000E+00 -0.14830304121E+03  0.14830304121E+03  0.00000000000E+00 0. -1.
      99926    2    1    2    0    0 -0.17763568394E-14  0.35527136788E-14  0.25311944392E+03  0.54972552634E+03  0.48798432498E+03 0.  0.
         25    1    3    3    0    0 -0.10904543341E+03  0.44182745493E+02  0.83163952665E+02  0.19080558868E+03  0.12509000000E+03 0.  0.
         25    1    3    3    0    0 -0.13876030401E+02 -0.27374442998E+02  0.11939837974E+03  0.17562854419E+03  0.12509000000E+03 0.  0.
         25    1    3    3    0    0  0.12292146381E+03 -0.16808302495E+02  0.50557111522E+02  0.18329139348E+03  0.12509000000E+03 0.  0.
<mgrwt>
<rscale>  2 0.48798432E+03</rscale>
<asrwt>0</asrwt>
<pdfrwt beam="1">  1       21 0.59032718E-01 0.48798432E+03</pdfrwt>
<pdfrwt beam="2">  1       21 0.21809271E-01 0.48798432E+03</pdfrwt>
<totfact> 0.48046392E+04</totfact>
</mgrwt>
</event>
<event>
 6    0  0.1539652E-007  0.4561754E+03  0.7546771E-02  0.1025896E+00
         21   -1    0    0  502  501  0.00000000000E+00  0.00000000000E+00  0.76889830625E+02  0.76889830625E+02  0.00000000000E+00 0. -1.
         21   -1    0    0  501  502 -0.00000000000E+00 -0.00000000000E+00 -0.67660453519E+03  0.67660453519E+03  0.00000000000E+00 0. -1.
      99926    2    1    2    0    0  0.35527136788E-14  0.00000000000E+00 -0.59971470457E+03  0.75349436582E+03  0.45617544042E+03 0.  0.
         25    1    3    3    0    0 -0.50331505753E+01 -0.97640542284E+02 -0.25788670878E+03  0.30284000853E+03  0.12509000000E+03 0.  0.
         25    1    3    3    0    0  0.48046146857E+02  0.57372803226E+02 -0.23235524311E+03  0.27429279590E+03  0.12509000000E+03 0.  0.
         25    1    3    3    0    0 -0.43012996282E+02  0.40267739057E+02 -0.10947275267E+03  0.17636156139E+03  0.12509000000E+03 0.  0.
<mgrwt>
<rscale>  2 0.45617544E+03</rscale>
<asrwt>0</asrwt>
<pdfrwt beam="1">  1       21 0.11307328E-01 0.45617544E+03</pdfrwt>
<pdfrwt beam="2">  1       21 0.99500670E-01 0.45617544E+03</pdfrwt>
<totfact> 0.49632874E+04</totfact>
</mgrwt>
</event>
<event>
 6    0  0.1539652E-007  0.4540128E+03  0.7546771E-02  0.1026532E+00
         21   -1    0    0  502  501  0.00000000000E+00  0.00000000000E+00  0.22328624041E+03  0.22328624041E+03  0.00000000000E+00 0. -1.
         21   -1    0    0  501  502 -0.00000000000E+00 -0.00000000000E+00 -0.23078853184E+03  0.23078853184E+03  0.00000000000E+00 0. -1.
      99926    2    1    2    0    0 -0.71054273576E-14  0.00000000000E+00 -0.75022914301E+01  0.45407477226E+03  0.45401279104E+03 0.  0.
         25    1    3    3    0    0 -0.22187146507E+02 -0.31238693196E+02  0.78248164620E+02  0.15244149300E+03  0.12509000000E+03 0.  0.
         25    1    3    3    0    0 -0.37871420856E+02  0.19412249932E+02  0.10186377453E+02  0.13252301819E+03  0.12509000000E+03 0.  0.
         25    1    3    3    0    0  0.60058567363E+02  0.11826443263E+02 -0.95936833503E+02  0.16911026106E+03  0.12509000000E+03 0.  0.
<mgrwt>
<rscale>  2 0.45401279E+03</rscale>
<asrwt>0</asrwt>
<pdfrwt beam="1">  1       21 0.32836212E-01 0.45401279E+03</pdfrwt>
<pdfrwt beam="2">  1       21 0.33939490E-01 0.45401279E+03</pdfrwt>
<totfact> 0.69156765E+04</totfact>
</mgrwt>
</event>
<event>
 6    0  0.1539652E-007  0.4500451E+03  0.7546771E-02  0.1027709E+00
         21   -1    0    0  502  501  0.00000000000E+00  0.00000000000E+00  0.16392793661E+03  0.16392793661E+03  0.00000000000E+00 0.  1.
         21   -1    0    0  501  502 -0.00000000000E+00 -0.00000000000E+00 -0.30888666745E+03  0.30888666745E+03  0.00000000000E+00 0.  1.
      99926    2    1    2    0    0  0.00000000000E+00  0.35527136788E-14 -0.14495873084E+03  0.47281460406E+03  0.45004512681E+03 0.  0.
         25    1    3    3    0    0  0.52001678908E+02  0.27120249174E+02 -0.83857742036E+02  0.16161470083E+03  0.12509000000E+03 0.  0.
         25    1    3    3    0    0 -0.10519206312E+03 -0.24538594498E+02 -0.58183000006E+02  0.17521496042E+03  0.12509000000E+03 0.  0.
         25    1    3    3    0    0  0.53190384216E+02 -0.25816546764E+01 -0.29179888035E+01  0.13598494282E+03  0.12509000000E+03 0.  0.
<mgrwt>
<rscale>  2 0.45004513E+03</rscale>
<asrwt>0</asrwt>
<pdfrwt beam="1">  1       21 0.24107049E-01 0.45004513E+03</pdfrwt>
<pdfrwt beam="2">  1       21 0.45424510E-01 0.45004513E+03</pdfrwt>
<totfact> 0.69936868E+04</totfact>
</mgrwt>
</event>
<event>
 6    0  0.1539652E-007  0.4602424E+03  0.7546771E-02  0.1024711E+00
         21   -1    0    0  502  501  0.00000000000E+00  0.00000000000E+00  0.72520786174E+02  0.72520786174E+02  0.00000000000E+00 0.  1.
         21   -1    0    0  501  502 -0.00000000000E+00 -0.00000000000E+00 -0.73021503246E+03  0.73021503246E+03  0.00000000000E+00 0.  1.
      99926    2    1    2    0    0  0.35527136788E-14 -0.57731597281E-14 -0.65769424628E+03  0.80273581863E+03  0.46024240669E+03 0.  0.
         25    1    3    3    0    0 -0.95778401605E+02  0.38392294805E+02 -0.35734026087E+03  0.39241182532E+03  0.12509000000E+03 0.  0.
         25    1    3    3    0    0  0.26938400296E+02 -0.36159691450E+01 -0.10320702749E+03  0.16443220873E+03  0.12509000000E+03 0.  0.
         25    1    3    3    0    0  0.68840001308E+02 -0.34776325660E+02 -0.19714695792E+03  0.24589178458E+03  0.12509000000E+03 0.  0.
<mgrwt>
<rscale>  2 0.46024241E+03</rscale>
<asrwt>0</asrwt>
<pdfrwt beam="1">  1       21 0.10664822E-01 0.46024241E+03</pdfrwt>
<pdfrwt beam="2">  1       21 0.10738456E+00 0.46024241E+03</pdfrwt>
<totfact> 0.45722499E+04</totfact>
</mgrwt>
</event>
<event>
 6    0  0.1539652E-007  0.4558758E+03  0.7546771E-02  0.1025984E+00
         21   -1    0    0  502  501  0.00000000000E+00  0.00000000000E+00  0.49833706087E+03  0.49833706087E+03  0.00000000000E+00 0.  1.
         21   -1    0    0  501  502 -0.00000000000E+00 -0.00000000000E+00 -0.10425810275E+03  0.10425810275E+03  0.00000000000E+00 0.  1.
      99926    2    1    2    0    0  0.00000000000E+00  0.00000000000E+00  0.39407895811E+03  0.60259516362E+03  0.45587575719E+03 0.  0.
         25    1    3    3    0    0  0.14838805332E+02  0.53321341921E+02  0.28920852810E+03  0.31992567335E+03  0.12509000000E+03 0.  0.
         25    1    3    3    0    0 -0.18014705256E+02 -0.43510465272E+02  0.31641611645E+02  0.13735497764E+03  0.12509000000E+03 0.  0.
         25    1    3    3    0    0  0.31758999240E+01 -0.98108766493E+01  0.73228818373E+02  0.14531451263E+03  0.12509000000E+03 0.  0.
<mgrwt>
<rscale>  2 0.45587576E+03</rscale>
<asrwt>0</asrwt>
<pdfrwt beam="1">  1       21 0.73284861E-01 0.45587576E+03</pdfrwt>
<pdfrwt beam="2">  1       21 0.15332074E-01 0.45587576E+03</pdfrwt>
<totfact> 0.58115660E+04</totfact>
</mgrwt>
</event>
<event>
 6    0  0.1539652E-007  0.4593017E+03  0.7546771E-02  0.1024984E+00
         21   -1    0    0  502  501  0.00000000000E+00  0.00000000000E+00  0.58126650553E+03  0.58126650553E+03  0.00000000000E+00 0.  1.
         21   -1    0    0  501  502 -0.00000000000E+00 -0.00000000000E+00 -0.90732067188E+02  0.90732067188E+02  0.00000000000E+00 0.  1.
      99926    2    1    2    0    0 -0.17763568394E-14  0.00000000000E+00  0.49053443834E+03  0.67199857271E+03  0.45930169446E+03 0.  0.
         25    1    3    3    0    0  0.13078076429E+02  0.48809020644E+02  0.17246678820E+03  0.21896496914E+03  0.12509000000E+03 0.  0.
         25    1    3    3    0    0 -0.23420084455E+02  0.64459059646E+02  0.88324093524E+02  0.16778594793E+03  0.12509000000E+03 0.  0.
         25    1    3    3    0    0  0.10342008026E+02 -0.11326808029E+03  0.22974355661E+03  0.28524765564E+03  0.12509000000E+03 0.  0.
<mgrwt>
<rscale>  2 0.45930169E+03</rscale>
<asrwt>0</asrwt>
<pdfrwt beam="1">  1       21 0.85480367E-01 0.45930169E+03</pdfrwt>
<pdfrwt beam="2">  1       21 0.13342951E-01 0.45930169E+03</pdfrwt>
<totfact> 0.52642075E+04</totfact>
</mgrwt>
</event>
<event>
 6    0  0.1539652E-007  0.4576484E+03  0.7546771E-02  0.1025465E+00
         21   -1    0    0  502  501  0.00000000000E+00  0.00000000000E+00  0.89416598342E+03  0.89416598342E+03  0.00000000000E+00 0.  1.
         21   -1    0    0  501  502 -0.00000000000E+00 -0.00000000000E+00 -0.58557924526E+02  0.58557924526E+02  0.00000000000E+00 0.  1.
      99926    2    1    2    0    0  0.00000000000E+00  0.00000000000E+00  0.83560805889E+03  0.95272390795E+03  0.45764835484E+03 0.  0.
         25    1    3    3    0    0 -0.51586322977E+02  0.35156095391E+02  0.22415290026E+03  0.26417632475E+03  0.12509000000E+03 0.  0.
         25    1    3    3    0    0  0.31581874164E+02  0.13240914824E+02  0.11313160290E+03  0.17210172654E+03  0.12509000000E+03 0.  0.
         25    1    3    3    0    0  0.20004448813E+02 -0.48397010215E+02  0.49832355573E+03  0.51644585667E+03  0.12509000000E+03 0.  0.
<mgrwt>
<rscale>  2 0.45764835E+03</rscale>
<asrwt>0</asrwt>
<pdfrwt beam="1">  1       21 0.13149499E+00 0.45764835E+03</pdfrwt>
<pdfrwt beam="2">  1       21 0.86114600E-02 0.45764835E+03</pdfrwt>
<totfact> 0.40191900E+04</totfact>
</mgrwt>
</event>
<event>
 6    0  0.1539652E-007  0.4580884E+03  0.7546771E-02  0.1025337E+00
         21   -1    0    0  502  501  0.00000000000E+00  0.00000000000E+00  0.24779334523E+03  0.24779334523E+03  0.00000000000E+00 0.  1.
         21   -1    0    0  501  502 -0.00000000000E+00 -0.00000000000E+00 -0.21171366780E+03  0.21171366780E+03  0.00000000000E+00 0.  1.
      99926    2    1    2    0    0  0.00000000000E+00  0.00000000000E+00  0.36079677430E+02  0.45950701304E+03  0.45808836692E+03 0.  0.
         25    1    3    3    0    0  0.29082247220E+02  0.35194557606E+02  0.60455893326E+01  0.13329850426E+03  0.12509000000E+03 0.  0.
         25    1    3    3    0    0 -0.67297972289E+02 -0.38475993020E+02 -0.68590455709E+02  0.16236248898E+03  0.12509000000E+03 0.  0.
         25    1    3    3    0    0  0.38215725068E+02  0.32814354148E+01  0.98624543807E+02  0.16384601979E+03  0.12509000000E+03 0.  0.
<mgrwt>
<rscale>  2 0.45808837E+03</rscale>
<asrwt>0</asrwt>
<pdfrwt beam="1">  1       21 0.36440198E-01 0.45808837E+03</pdfrwt>
<pdfrwt beam="2">  1       21 0.31134363E-01 0.45808837E+03</pdfrwt>
<totfact> 0.66561560E+04</totfact>
</mgrwt>
</event>
<event>
 6    0  0.1539652E-007  0.4515501E+03  0.7546771E-02  0.1027261E+00
         21   -1    0    0  502  501  0.00000000000E+00  0.00000000000E+00  0.35861879553E+03  0.35861879553E+03  0.00000000000E+00 0.  1.
         21   -1    0    0  501  502 -0.00000000000E+00 -0.00000000000E+00 -0.14214081195E+03  0.14214081195E+03  0.00000000000E+00 0.  1.
      99926    2    1    2    0    0 -0.53290705182E-14  0.17763568394E-14  0.21647798358E+03  0.50075960748E+03  0.45155007154E+03 0.  0.
         25    1    3    3    0    0  0.59650034495E+02  0.79643535446E+02  0.76174725371E+02  0.17706302900E+03  0.12509000000E+03 0.  0.
         25    1    3    3    0    0 -0.50008466861E+02 -0.94889076411E+02  0.89180741929E+02  0.18736460821E+03  0.12509000000E+03 0.  0.
         25    1    3    3    0    0 -0.96415676335E+01  0.15245540965E+02  0.51122516277E+02  0.13633197026E+03  0.12509000000E+03 0.  0.
<mgrwt>
<rscale>  2 0.45155007E+03</rscale>
<asrwt>0</asrwt>
<pdfrwt beam="1">  1       21 0.52738058E-01 0.45155007E+03</pdfrwt>
<pdfrwt beam="2">  1       21 0.20903061E-01 0.45155007E+03</pdfrwt>
<totfact> 0.67034300E+04</totfact>
</mgrwt>
</event>
<event>
 6    0  0.1539652E-007  0.4591271E+03  0.7546771E-02  0.1025035E+00
         21   -1    0    0  502  501  0.00000000000E+00  0.00000000000E+00  0.57037444323E+03  0.57037444323E+03  0.00000000000E+00 0.  1.
         21   -1    0    0  501  502 -0.00000000000E+00 -0.00000000000E+00 -0.92394442540E+02  0.92394442540E+02  0.00000000000E+00 0.  1.
      99926    2    1    2    0    0 -0.28865798640E-14  0.71054273576E-14  0.47798000069E+03  0.66276888577E+03  0.45912712279E+03 0.  0.
         25    1    3    3    0    0 -0.67406245864E+02  0.49485305846E+02  0.18825580543E+03  0.24099824450E+03  0.12509000000E+03 0.  0.
         25    1    3    3    0    0 -0.18841120375E+01  0.41179861475E+02  0.16682877326E+03  0.21255276652E+03  0.12509000000E+03 0.  0.
         25    1    3    3    0    0  0.69290357901E+02 -0.90665167320E+02  0.12289542200E+03  0.20921787474E+03  0.12509000000E+03 0.  0.
<mgrwt>
<rscale>  2 0.45912712E+03</rscale>
<asrwt>0</asrwt>
<pdfrwt beam="1">  1       21 0.83878593E-01 0.45912712E+03</pdfrwt>
<pdfrwt beam="2">  1       21 0.13587418E-01 0.45912712E+03</pdfrwt>
<totfact> 0.53217960E+04</totfact>
</mgrwt>
</event>
<event>
 6    0  0.1539652E-007  0.4386860E+03  0.7546771E-02  0.1031151E+00
         21   -1    0    0  502  501  0.00000000000E+00  0.00000000000E+00  0.39201789898E+03  0.39201789898E+03  0.00000000000E+00 0. -1.
         21   -1    0    0  501  502 -0.00000000000E+00 -0.00000000000E+00 -0.12272741750E+03  0.12272741750E+03  0.00000000000E+00 0. -1.
      99926    2    1    2    0    0  0.00000000000E+00 -0.71054273576E-14  0.26929048149E+03  0.51474531648E+03  0.43868596675E+03 0.  0.
         25    1    3    3    0    0 -0.60383988944E+02 -0.61608291479E+02  0.10114056202E+03  0.18253418607E+03  0.12509000000E+03 0.  0.
         25    1    3    3    0    0  0.22314057129E+02  0.18739628412E+02  0.14320599352E+03  0.19236568171E+03  0.12509000000E+03 0.  0.
         25    1    3    3    0    0  0.38069931815E+02  0.42868663068E+02  0.24943925950E+02  0.13984544870E+03  0.12509000000E+03 0.  0.
<mgrwt>
<rscale>  2 0.43868597E+03</rscale>
<asrwt>0</asrwt>
<pdfrwt beam="1">  1       21 0.57649691E-01 0.43868597E+03</pdfrwt>
<pdfrwt beam="2">  1       21 0.18048150E-01 0.43868597E+03</pdfrwt>
<totfact> 0.73275398E+04</totfact>
</mgrwt>
</event>
<event>
 6    0  0.1539652E-007  0.4603878E+03  0.7546771E-02  0.1024669E+00
         21   -1    0    0  502  501  0.00000000000E+00  0.00000000000E+00  0.13425383363E+03  0.13425383363E+03  0.00000000000E+00 0. -1.
         21   -1    0    0  501  502 -0.00000000000E+00 -0.00000000000E+00 -0.39469442397E+03  0.39469442397E+03  0.00000000000E+00 0. -1.
      99926    2    1    2    0    0  0.88817841970E-14  0.14210854715E-13 -0.26044059034E+03  0.52894825759E+03  0.46038783446E+03 0.  0.
         25    1    3    3    0    0  0.76115570921E+02  0.99519458304E+01 -0.13987485842E+03  0.20274394068E+03  0.12509000000E+03 0.  0.
         25    1    3    3    0    0 -0.66881433423E+02  0.57124085577E+02 -0.25265717053E+02  0.15499081214E+03  0.12509000000E+03 0.  0.
         25    1    3    3    0    0 -0.92341374985E+01 -0.67076031408E+02 -0.95300014865E+02  0.17121350478E+03  0.12509000000E+03 0.  0.
<mgrwt>
<rscale>  2 0.46038783E+03</rscale>
<asrwt>0</asrwt>
<pdfrwt beam="1">  1       21 0.19743211E-01 0.46038783E+03</pdfrwt>
<pdfrwt beam="2">  1       21 0.58043298E-01 0.46038783E+03</pdfrwt>
<totfact> 0.60645932E+04</totfact>
</mgrwt>
</event>
<event>
 6    0  0.1539652E-007  0.4542323E+03  0.7546771E-02  0.1026467E+00
         21   -1    0    0  502  501  0.00000000000E+00  0.00000000000E+00  0.29152361124E+03  0.29152361124E+03  0.00000000000E+00 0.  1.
         21   -1    0    0  501  502 -0.00000000000E+00 -0.00000000000E+00 -0.17693849057E+03  0.17693849057E+03  0.00000000000E+00 0.  1.
      99926    2    1    2    0    0  0.00000000000E+00  0.00000000000E+00  0.11458512067E+03  0.46846210181E+03  0.45423230946E+03 0.  0.
         25    1    3    3    0    0  0.44219054711E+02 -0.54967954711E+02  0.22550255541E+02  0.14537132788E+03  0.12509000000E+03 0.  0.
         25    1    3    3    0    0 -0.82562736016E+02  0.86875345014E+02  0.34469932232E+02  0.17663412829E+03  0.12509000000E+03 0.  0.
         25    1    3    3    0    0  0.38343681304E+02 -0.31907390303E+02  0.57564932893E+02  0.14645664564E+03  0.12509000000E+03 0.  0.
<mgrwt>
<rscale>  2 0.45423231E+03</rscale>
<asrwt>0</asrwt>
<pdfrwt beam="1">  1       21 0.42871120E-01 0.45423231E+03</pdfrwt>
<pdfrwt beam="2">  1       21 0.26020366E-01 0.45423231E+03</pdfrwt>
<totfact> 0.67963246E+04</totfact>
</mgrwt>
</event>
<event>
 6    0  0.1539652E-007  0.4570364E+03  0.7546771E-02  0.1025644E+00
         21   -1    0    0  502  501  0.00000000000E+00  0.00000000000E+00  0.13812913826E+04  0.13812913826E+04  0.00000000000E+00 0.  1.
         21   -1    0    0  501  502 -0.00000000000E+00 -0.00000000000E+00 -0.37805608625E+02  0.37805608625E+02  0.00000000000E+00 0. -1.
      99926    2    1    2    0    0 -0.35527136788E-14  0.00000000000E+00  0.13434857740E+04  0.14190969912E+04  0.45703637233E+03 0.  0.
         25    1    3    3    0    0 -0.47012159959E+02 -0.26311171469E+02  0.20217018548E+03  0.24376774382E+03  0.12509000000E+03 0.  0.
         25    1    3    3    0    0  0.33970930592E+02  0.52989975809E+02  0.42236844635E+03  0.44497704911E+03  0.12509000000E+03 0.  0.
         25    1    3    3    0    0  0.13041229368E+02 -0.26678804340E+02  0.71894714216E+03  0.73035219831E+03  0.12509000000E+03 0.  0.
<mgrwt>
<rscale>  2 0.45703637E+03</rscale>
<asrwt>0</asrwt>
<pdfrwt beam="1">  1       21 0.20313105E+00 0.45703637E+03</pdfrwt>
<pdfrwt beam="2">  1       21 0.55596492E-02 0.45703637E+03</pdfrwt>
<totfact> 0.25422866E+04</totfact>
</mgrwt>
</event>
<event>
 6    0  0.1539652E-007  0.4532710E+03  0.7546771E-02  0.1026751E+00
         21   -1    0    0  502  501  0.00000000000E+00  0.00000000000E+00  0.18608249704E+03  0.18608249704E+03  0.00000000000E+00 0.  1.
         21   -1    0    0  501  502 -0.00000000000E+00 -0.00000000000E+00 -0.27602620814E+03  0.27602620814E+03  0.00000000000E+00 0.  1.
      99926    2    1    2    0    0  0.00000000000E+00  0.00000000000E+00 -0.89943711099E+02  0.46210870518E+03  0.45327098322E+03 0.  0.
         25    1    3    3    0    0 -0.97183210446E+01 -0.13574226567E+02  0.18207705485E+02  0.12750581959E+03  0.12509000000E+03 0.  0.
         25    1    3    3    0    0  0.29233349060E+02  0.85390301597E+02 -0.10928994970E+03  0.18904468654E+03  0.12509000000E+03 0.  0.
         25    1    3    3    0    0 -0.19515028015E+02 -0.71816075029E+02  0.11385331155E+01  0.14555819904E+03  0.12509000000E+03 0.  0.
<mgrwt>
<rscale>  2 0.45327098E+03</rscale>
<asrwt>0</asrwt>
<pdfrwt beam="1">  1       21 0.27365073E-01 0.45327098E+03</pdfrwt>
<pdfrwt beam="2">  1       21 0.40592089E-01 0.45327098E+03</pdfrwt>
<totfact> 0.68968453E+04</totfact>
</mgrwt>
</event>
<event>
 6    0  0.1539652E-007  0.4467480E+03  0.7546771E-02  0.1028696E+00
         21   -1    0    0  502  501  0.00000000000E+00  0.00000000000E+00  0.13553904811E+03  0.13553904811E+03  0.00000000000E+00 0. -1.
         21   -1    0    0  501  502 -0.00000000000E+00 -0.00000000000E+00 -0.36812959804E+03  0.36812959804E+03  0.00000000000E+00 0. -1.
      99926    2    1    2    0    0  0.00000000000E+00  0.00000000000E+00 -0.23259054993E+03  0.50366864615E+03  0.44674796161E+03 0.  0.
         25    1    3    3    0    0 -0.33131713139E+02 -0.35824939309E+02 -0.61356117959E+02  0.14762526208E+03  0.12509000000E+03 0.  0.
         25    1    3    3    0    0  0.71973267606E+02  0.66050594613E+02 -0.30861620081E+02  0.16168729076E+03  0.12509000000E+03 0.  0.
         25    1    3    3    0    0 -0.38841554467E+02 -0.30225655304E+02 -0.14037281189E+03  0.19435609331E+03  0.12509000000E+03 0.  0.
<mgrwt>
<rscale>  2 0.44674796E+03</rscale>
<asrwt>0</asrwt>
<pdfrwt beam="1">  1       21 0.19932213E-01 0.44674796E+03</pdfrwt>
<pdfrwt beam="2">  1       21 0.54136706E-01 0.44674796E+03</pdfrwt>
<totfact> 0.69452075E+04</totfact>
</mgrwt>
</event>
<event>
 6    0  0.1539652E-007  0.4476999E+03  0.7546771E-02  0.1028410E+00
         21   -1    0    0  502  501  0.00000000000E+00  0.00000000000E+00  0.55485680371E+03  0.55485680371E+03  0.00000000000E+00 0.  1.
         21   -1    0    0  501  502 -0.00000000000E+00 -0.00000000000E+00 -0.90309409814E+02  0.90309409814E+02  0.00000000000E+00 0.  1.
      99926    2    1    2    0    0  0.00000000000E+00  0.35527136788E-14  0.46454739390E+03  0.64516621352E+03  0.44769985693E+03 0.  0.
         25    1    3    3    0    0  0.51896453056E+02  0.16717493378E+02  0.18807269004E+03  0.23236084279E+03  0.12509000000E+03 0.  0.
         25    1    3    3    0    0  0.51790321556E+02  0.10626645717E+02  0.16582437586E+03  0.21433710537E+03  0.12509000000E+03 0.  0.
         25    1    3    3    0    0 -0.10368677461E+03 -0.27344139095E+02  0.11065032799E+03  0.19846826536E+03  0.12509000000E+03 0.  0.
<mgrwt>
<rscale>  2 0.44769986E+03</rscale>
<asrwt>0</asrwt>
<pdfrwt beam="1">  1       21 0.81596587E-01 0.44769986E+03</pdfrwt>
<pdfrwt beam="2">  1       21 0.13280796E-01 0.44769986E+03</pdfrwt>
<totfact> 0.59324566E+04</totfact>
</mgrwt>
</event>
<event>
 6    0  0.1539652E-007  0.4514782E+03  0.7546771E-02  0.1027282E+00
         21   -1    0    0  502  501  0.00000000000E+00  0.00000000000E+00  0.95298280761E+03  0.95298280761E+03  0.00000000000E+00 0. -1.
         21   -1    0    0  501  502 -0.00000000000E+00 -0.00000000000E+00 -0.53472265319E+02  0.53472265319E+02  0.00000000000E+00 0. -1.
      99926    2    1    2    0    0  0.71054273576E-14  0.00000000000E+00  0.89951054229E+03  0.10064550729E+04  0.45147823661E+03 0.  0.
         25    1    3    3    0    0 -0.70408525490E+02  0.77178541041E+02  0.31678590899E+03  0.35625090582E+03  0.12509000000E+03 0.  0.
         25    1    3    3    0    0  0.38394180510E+02 -0.89625187896E+02  0.31125714990E+03  0.34933552477E+03  0.12509000000E+03 0.  0.
         25    1    3    3    0    0  0.32014344979E+02  0.12446646855E+02  0.27146748339E+03  0.30086864233E+03  0.12509000000E+03 0.  0.
<mgrwt>
<rscale>  2 0.45147824E+03</rscale>
<asrwt>0</asrwt>
<pdfrwt beam="1">  1       21 0.14014452E+00 0.45147824E+03</pdfrwt>
<pdfrwt beam="2">  1       21 0.78635690E-02 0.45147824E+03</pdfrwt>
<totfact> 0.40005604E+04</totfact>
</mgrwt>
</event>
<event>
 6    0  0.1539652E-007  0.4470996E+03  0.7546771E-02  0.1028591E+00
         21   -1    0    0  502  501  0.00000000000E+00  0.00000000000E+00  0.11339916041E+04  0.11339916041E+04  0.00000000000E+00 0. -1.
         21   -1    0    0  501  502 -0.00000000000E+00 -0.00000000000E+00 -0.44069558019E+02  0.44069558019E+02  0.00000000000E+00 0. -1.
      99926    2    1    2    0    0 -0.35527136788E-14 -0.71054273576E-14  0.10899220460E+04  0.11780611621E+04  0.44709958080E+03 0.  0.
         25    1    3    3    0    0 -0.27678611094E+02 -0.64432647900E+02  0.31401689257E+03  0.34521267148E+03  0.12509000000E+03 0.  0.
         25    1    3    3    0    0  0.55596952090E+01  0.57028701819E+01  0.17132025769E+03  0.21227711072E+03  0.12509000000E+03 0.  0.
         25    1    3    3    0    0  0.22118915885E+02  0.58729777718E+02  0.60458489578E+03  0.62057137989E+03  0.12509000000E+03 0.  0.
<mgrwt>
<rscale>  2 0.44709958E+03</rscale>
<asrwt>0</asrwt>
<pdfrwt beam="1">  1       21 0.16676345E+00 0.44709958E+03</pdfrwt>
<pdfrwt beam="2">  1       21 0.64808181E-02 0.44709958E+03</pdfrwt>
<totfact> 0.34962226E+04</totfact>
</mgrwt>
</event>
<event>
 6    0  0.1539652E-007  0.4555791E+03  0.7546771E-02  0.1026071E+00
         21   -1    0    0  502  501  0.00000000000E+00  0.00000000000E+00  0.18949262029E+03  0.18949262029E+03  0.00000000000E+00 0. -1.
         21   -1    0    0  501  502 -0.00000000000E+00 -0.00000000000E+00 -0.27382635844E+03  0.27382635844E+03  0.00000000000E+00 0. -1.
      99926    2    1    2    0    0 -0.35527136788E-14 -0.71054273576E-14 -0.84333738152E+02  0.46331897872E+03  0.45557907838E+03 0.  0.
         25    1    3    3    0    0 -0.22358679399E+02 -0.26631356805E+02 -0.26095853289E+02  0.13242976013E+03  0.12509000000E+03 0.  0.
         25    1    3    3    0    0 -0.22506852052E+02  0.81183626666E+02 -0.10039924450E+03  0.18117631198E+03  0.12509000000E+03 0.  0.
         25    1    3    3    0    0  0.44865531451E+02 -0.54552269861E+02  0.42161359635E+02  0.14971290661E+03  0.12509000000E+03 0.  0.
<mgrwt>
<rscale>  2 0.45557908E+03</rscale>
<asrwt>0</asrwt>
<pdfrwt beam="1">  1       21 0.27866562E-01 0.45557908E+03</pdfrwt>
<pdfrwt beam="2">  1       21 0.40268582E-01 0.45557908E+03</pdfrwt>
<totfact> 0.67623289E+04</totfact>
</mgrwt>
</event>
<event>
 6    0  0.1539652E-007  0.4626229E+03  0.7546771E-02  0.1024023E+00
         21   -1    0    0  502  501  0.00000000000E+00  0.00000000000E+00  0.16492713560E+03  0.16492713560E+03  0.00000000000E+00 0. -1.
         21   -1    0    0  501  502 -0.00000000000E+00 -0.00000000000E+00 -0.32441598077E+03  0.32441598077E+03  0.00000000000E+00 0. -1.
      99926    2    1    2    0    0  0.00000000000E+00  0.00000000000E+00 -0.15948884516E+03  0.48934311637E+03  0.46262294994E+03 0.  0.
         25    1    3    3    0    0 -0.37097426113E+02  0.63679239297E+02 -0.10118400470E+03  0.17696602908E+03  0.12509000000E+03 0.  0.
         25    1    3    3    0    0  0.78193411812E+02 -0.29020486189E+02 -0.86331282491E+02  0.17336953800E+03  0.12509000000E+03 0.  0.
         25    1    3    3    0    0 -0.41095985699E+02 -0.34658753108E+02  0.28026442023E+02  0.13900754929E+03  0.12509000000E+03 0.  0.
<mgrwt>
<rscale>  2 0.46262295E+03</rscale>
<asrwt>0</asrwt>
<pdfrwt beam="1">  1       21 0.24253991E-01 0.46262295E+03</pdfrwt>
<pdfrwt beam="2">  1       21 0.47708232E-01 0.46262295E+03</pdfrwt>
<totfact> 0.62177418E+04</totfact>
</mgrwt>
</event>
<event>
 6    0  0.1539652E-007  0.4558005E+03  0.7546771E-02  0.1026006E+00
         21   -1    0    0  502  501  0.00000000000E+00  0.00000000000E+00  0.77064227454E+02  0.77064227454E+02  0.00000000000E+00 0.  1.
         21   -1    0    0  501  502 -0.00000000000E+00 -0.00000000000E+00 -0.67396418424E+03  0.67396418424E+03  0.00000000000E+00 0.  1.
      99926    2    1    2    0    0  0.00000000000E+00  0.35527136788E-14 -0.59689995679E+03  0.75102841170E+03  0.45580052300E+03 0.  0.
         25    1    3    3    0    0 -0.35963446098E+02  0.22714204433E+02 -0.27733064650E+03  0.30719554054E+03  0.12509000000E+03 0.  0.
         25    1    3    3    0    0  0.15926676949E+01  0.58989390950E+02 -0.22373071562E+03  0.26303084619E+03  0.12509000000E+03 0.  0.
         25    1    3    3    0    0  0.34370778403E+02 -0.81703595382E+02 -0.95838594676E+02  0.18080202498E+03  0.12509000000E+03 0.  0.
<mgrwt>
<rscale>  2 0.45580052E+03</rscale>
<asrwt>0</asrwt>
<pdfrwt beam="1">  1       21 0.11332974E-01 0.45580052E+03</pdfrwt>
<pdfrwt beam="2">  1       21 0.99112382E-01 0.45580052E+03</pdfrwt>
<totfact> 0.49903757E+04</totfact>
</mgrwt>
</event>
<event>
 6    0  0.1539652E-007  0.4801779E+03  0.7546771E-02  0.1019086E+00
         21   -1    0    0  502  501  0.00000000000E+00  0.00000000000E+00  0.48788899917E+03  0.48788899917E+03  0.00000000000E+00 0. -1.
         21   -1    0    0  501  502 -0.00000000000E+00 -0.00000000000E+00 -0.11814719130E+03  0.11814719130E+03  0.00000000000E+00 0. -1.
      99926    2    1    2    0    0  0.35527136788E-14 -0.71054273576E-14  0.36974180787E+03  0.60603619047E+03  0.48017794584E+03 0.  0.
         25    1    3    3    0    0  0.27936931244E+02  0.58963043660E+02  0.19540991420E+03  0.24101795641E+03  0.12509000000E+03 0.  0.
         25    1    3    3    0    0  0.42008280982E+02 -0.10663281506E+03  0.93258042851E+02  0.19359706499E+03  0.12509000000E+03 0.  0.
         25    1    3    3    0    0 -0.69945212225E+02  0.47669771396E+02  0.81073850822E+02  0.17142116907E+03  0.12509000000E+03 0.  0.
<mgrwt>
<rscale>  2 0.48017795E+03</rscale>
<asrwt>0</asrwt>
<pdfrwt beam="1">  1       21 0.71748381E-01 0.48017795E+03</pdfrwt>
<pdfrwt beam="2">  1       21 0.17374587E-01 0.48017795E+03</pdfrwt>
<totfact> 0.48018831E+04</totfact>
</mgrwt>
</event>
<event>
 6    0  0.1539652E-007  0.4489173E+03  0.7546771E-02  0.1028045E+00
         21   -1    0    0  502  501  0.00000000000E+00  0.00000000000E+00  0.75628259365E+03  0.75628259365E+03  0.00000000000E+00 0.  1.
         21   -1    0    0  501  502 -0.00000000000E+00 -0.00000000000E+00 -0.66617551016E+02  0.66617551016E+02  0.00000000000E+00 0.  1.
      99926    2    1    2    0    0  0.00000000000E+00  0.00000000000E+00  0.68966504263E+03  0.82290014466E+03  0.44891733878E+03 0.  0.
         25    1    3    3    0    0 -0.86693845219E+01  0.69182097242E+02  0.11096994429E+03  0.18117162428E+03  0.12509000000E+03 0.  0.
         25    1    3    3    0    0 -0.33247924599E+02 -0.26032955635E+01  0.26066798218E+03  0.29104554055E+03  0.12509000000E+03 0.  0.
         25    1    3    3    0    0  0.41917309121E+02 -0.66578801679E+02  0.31802711615E+03  0.35068297984E+03  0.12509000000E+03 0.  0.
<mgrwt>
<rscale>  2 0.44891734E+03</rscale>
<asrwt>0</asrwt>
<pdfrwt beam="1">  1       21 0.11121802E+00 0.44891734E+03</pdfrwt>
<pdfrwt beam="2">  1       21 0.97966991E-02 0.44891734E+03</pdfrwt>
<totfact> 0.48972877E+04</totfact>
</mgrwt>
</event>
<event>
 6    0  0.1539652E-007  0.4729689E+03  0.7546771E-02  0.1021086E+00
         21   -1    0    0  502  501  0.00000000000E+00  0.00000000000E+00  0.20439672855E+03  0.20439672855E+03  0.00000000000E+00 0. -1.
         21   -1    0    0  501  502 -0.00000000000E+00 -0.00000000000E+00 -0.27360956319E+03  0.27360956319E+03  0.00000000000E+00 0. -1.
      99926    2    1    2    0    0 -0.35527136788E-14 -0.71054273576E-14 -0.69212834645E+02  0.47800629174E+03  0.47296891913E+03 0.  0.
         25    1    3    3    0    0 -0.19418372853E+02 -0.27737426537E+02 -0.20846471616E+02  0.13125746270E+03  0.12509000000E+03 0.  0.
         25    1    3    3    0    0 -0.91185107300E+02 -0.21197673208E+02 -0.70383591135E+02  0.17136342417E+03  0.12509000000E+03 0.  0.
         25    1    3    3    0    0  0.11060348015E+03  0.48935099745E+02  0.22017228107E+02  0.17538540487E+03  0.12509000000E+03 0.  0.
<mgrwt>
<rscale>  2 0.47296892E+03</rscale>
<asrwt>0</asrwt>
<pdfrwt beam="1">  1       21 0.30058342E-01 0.47296892E+03</pdfrwt>
<pdfrwt beam="2">  1       21 0.40236700E-01 0.47296892E+03</pdfrwt>
<totfact> 0.58101907E+04</totfact>
</mgrwt>
</event>
<event>
 6    0  0.1539652E-007  0.4638328E+03  0.7546771E-02  0.1023675E+00
         21   -1    0    0  502  501  0.00000000000E+00  0.00000000000E+00  0.79004557576E+02  0.79004557576E+02  0.00000000000E+00 0. -1.
         21   -1    0    0  501  502 -0.00000000000E+00 -0.00000000000E+00 -0.68078615882E+03  0.68078615882E+03  0.00000000000E+00 0. -1.
      99926    2    1    2    0    0  0.00000000000E+00 -0.71054273576E-14 -0.60178160124E+03  0.75979071639E+03  0.46383276849E+03 0.  0.
         25    1    3    3    0    0 -0.40076935977E+02 -0.83687422012E+02 -0.35774817939E+03  0.39018074448E+03  0.12509000000E+03 0.  0.
         25    1    3    3    0    0  0.31329049250E+02  0.51869213507E+02 -0.17334136585E+03  0.22218609734E+03  0.12509000000E+03 0.  0.
         25    1    3    3    0    0  0.87478867273E+01  0.31818208505E+02 -0.70692056001E+02  0.14742387458E+03  0.12509000000E+03 0.  0.
<mgrwt>
<rscale>  2 0.46383277E+03</rscale>
<asrwt>0</asrwt>
<pdfrwt beam="1">  1       21 0.11618317E-01 0.46383277E+03</pdfrwt>
<pdfrwt beam="2">  1       21 0.10011562E+00 0.46383277E+03</pdfrwt>
<totfact> 0.46463733E+04</totfact>
</mgrwt>
</event>
<event>
 6    0  0.1539652E-007  0.4661688E+03  0.7546771E-02  0.1023007E+00
         21   -1    0    0  502  501  0.00000000000E+00  0.00000000000E+00  0.30258517912E+03  0.30258517912E+03  0.00000000000E+00 0. -1.
         21   -1    0    0  501  502 -0.00000000000E+00 -0.00000000000E+00 -0.17954728905E+03  0.17954728905E+03  0.00000000000E+00 0. -1.
      99926    2    1    2    0    0  0.00000000000E+00  0.71054273576E-14  0.12303789007E+03  0.48213246817E+03  0.46616884760E+03 0.  0.
         25    1    3    3    0    0 -0.41674952207E+02 -0.10396740447E+03  0.43065284282E+02  0.17334402108E+03  0.12509000000E+03 0.  0.
         25    1    3    3    0    0  0.32451020104E+02 -0.85438227025E+01  0.28592396029E+02  0.13263143980E+03  0.12509000000E+03 0.  0.
         25    1    3    3    0    0  0.92239321033E+01  0.11251122717E+03  0.51380209759E+02  0.17615700729E+03  0.12509000000E+03 0.  0.
<mgrwt>
<rscale>  2 0.46616885E+03</rscale>
<asrwt>0</asrwt>
<pdfrwt beam="1">  1       21 0.44497821E-01 0.46616885E+03</pdfrwt>
<pdfrwt beam="2">  1       21 0.26404013E-01 0.46616885E+03</pdfrwt>
<totfact> 0.60960147E+04</totfact>
</mgrwt>
</event>
<event>
 6    0  0.1539652E-007  0.4593726E+03  0.7546771E-02  0.1024963E+00
         21   -1    0    0  502  501  0.00000000000E+00  0.00000000000E+00  0.34352123259E+02  0.34352123259E+02  0.00000000000E+00 0. -1.
         21   -1    0    0  501  502 -0.00000000000E+00 -0.00000000000E+00 -0.15357361835E+04  0.15357361835E+04  0.00000000000E+00 0. -1.
      99926    2    1    2    0    0  0.00000000000E+00 -0.14210854715E-13 -0.15013840602E+04  0.15700883068E+04  0.45937260984E+03 0.  0.
         25    1    3    3    0    0 -0.15028541846E+01  0.10508982087E+02 -0.35015326935E+03  0.37197784532E+03  0.12509000000E+03 0.  0.
         25    1    3    3    0    0  0.51727660728E+02  0.80193121725E+02 -0.72705020293E+03  0.74387915238E+03  0.12509000000E+03 0.  0.
         25    1    3    3    0    0 -0.50224806543E+02 -0.90702103812E+02 -0.42418058796E+03  0.45423130906E+03  0.12509000000E+03 0.  0.
<mgrwt>
<rscale>  2 0.45937261E+03</rscale>
<asrwt>0</asrwt>
<pdfrwt beam="1">  1       21 0.50517837E-02 0.45937261E+03</pdfrwt>
<pdfrwt beam="2">  1       21 0.22584352E+00 0.45937261E+03</pdfrwt>
<totfact> 0.21377292E+04</totfact>
</mgrwt>
</event>
<event>
 6    0  0.1539652E-007  0.4532859E+03  0.7546771E-02  0.1026747E+00
         21   -1    0    0  502  501  0.00000000000E+00  0.00000000000E+00  0.64930852420E+02  0.64930852420E+02  0.00000000000E+00 0. -1.
         21   -1    0    0  501  502 -0.00000000000E+00 -0.00000000000E+00 -0.79110351400E+03  0.79110351400E+03  0.00000000000E+00 0. -1.
      99926    2    1    2    0    0  0.00000000000E+00 -0.35527136788E-14 -0.72617266158E+03  0.85603436642E+03  0.45328589440E+03 0.  0.
         25    1    3    3    0    0  0.59273927616E+02 -0.29577092787E+02 -0.19488984246E+03  0.24086876449E+03  0.12509000000E+03 0.  0.
         25    1    3    3    0    0 -0.34893975338E+02  0.35524768242E+02 -0.10658752045E+03  0.17172072178E+03  0.12509000000E+03 0.  0.
         25    1    3    3    0    0 -0.24379952277E+02 -0.59476754553E+01 -0.42469529867E+03  0.44344488015E+03  0.12509000000E+03 0.  0.
<mgrwt>
<rscale>  2 0.45328589E+03</rscale>
<asrwt>0</asrwt>
<pdfrwt beam="1">  1       21 0.95486541E-02 0.45328589E+03</pdfrwt>
<pdfrwt beam="2">  1       21 0.11633876E+00 0.45328589E+03</pdfrwt>
<totfact> 0.45783092E+04</totfact>
</mgrwt>
</event>
<event>
 6    0  0.1539652E-007  0.4547436E+03  0.7546771E-02  0.1026317E+00
         21   -1    0    0  502  501  0.00000000000E+00  0.00000000000E+00  0.55061657469E+03  0.55061657469E+03  0.00000000000E+00 0.  1.
         21   -1    0    0  501  502 -0.00000000000E+00 -0.00000000000E+00 -0.93890989029E+02  0.93890989029E+02  0.00000000000E+00 0.  1.
      99926    2    1    2    0    0 -0.35527136788E-14  0.35527136788E-14  0.45672558566E+03  0.64450756372E+03  0.45474359709E+03 0.  0.
         25    1    3    3    0    0  0.77742439586E+02 -0.41834569178E+01  0.16028007114E+03  0.21771218967E+03  0.12509000000E+03 0.  0.
         25    1    3    3    0    0 -0.78887405350E+02  0.25287237455E+02  0.66362741998E+02  0.16405544406E+03  0.12509000000E+03 0.  0.
         25    1    3    3    0    0  0.11449657637E+01 -0.21103780538E+02  0.23008277252E+03  0.26273992999E+03  0.12509000000E+03 0.  0.
<mgrwt>
<rscale>  2 0.45474360E+03</rscale>
<asrwt>0</asrwt>
<pdfrwt beam="1">  1       21 0.80973025E-01 0.45474360E+03</pdfrwt>
<pdfrwt beam="2">  1       21 0.13807499E-01 0.45474360E+03</pdfrwt>
<totfact> 0.56132497E+04</totfact>
</mgrwt>
</event>
<event>
 6    0  0.1539652E-007  0.4598081E+03  0.7546771E-02  0.1024837E+00
         21   -1    0    0  502  501  0.00000000000E+00  0.00000000000E+00  0.14911711270E+03  0.14911711270E+03  0.00000000000E+00 0.  1.
         21   -1    0    0  501  502 -0.00000000000E+00 -0.00000000000E+00 -0.35445878200E+03  0.35445878200E+03  0.00000000000E+00 0.  1.
      99926    2    1    2    0    0 -0.35527136788E-14  0.00000000000E+00 -0.20534166930E+03  0.50357589469E+03  0.45980809102E+03 0.  0.
         25    1    3    3    0    0  0.30108273769E+02  0.27731928049E+02  0.24667543098E+02  0.13390878898E+03  0.12509000000E+03 0.  0.
         25    1    3    3    0    0 -0.37620950527E+02  0.27515500650E+02 -0.17949972215E+03  0.22369643950E+03  0.12509000000E+03 0.  0.
         25    1    3    3    0    0  0.75126767579E+01 -0.55247428699E+02 -0.50509490250E+02  0.14597066621E+03  0.12509000000E+03 0.  0.
<mgrwt>
<rscale>  2 0.45980809E+03</rscale>
<asrwt>0</asrwt>
<pdfrwt beam="1">  1       21 0.21928987E-01 0.45980809E+03</pdfrwt>
<pdfrwt beam="2">  1       21 0.52126292E-01 0.45980809E+03</pdfrwt>
<totfact> 0.62596749E+04</totfact>
</mgrwt>
</event>
<event>
 6    0  0.1539652E-007  0.4525056E+03  0.7546771E-02  0.1026977E+00
         21   -1    0    0  502  501  0.00000000000E+00  0.00000000000E+00  0.64669535927E+03  0.64669535927E+03  0.00000000000E+00 0. -1.
         21   -1    0    0  501  502 -0.00000000000E+00 -0.00000000000E+00 -0.79156786211E+02  0.79156786211E+02  0.00000000000E+00 0. -1.
      99926    2    1    2    0    0  0.00000000000E+00  0.00000000000E+00  0.56753857306E+03  0.72585214548E+03  0.45250558581E+03 0.  0.
         25    1    3    3    0    0  0.13187443231E+02  0.48089441200E+02  0.16241579856E+03  0.21098081130E+03  0.12509000000E+03 0.  0.
         25    1    3    3    0    0 -0.99465067277E+02 -0.30015346088E+02  0.17898033252E+03  0.24181746864E+03  0.12509000000E+03 0.  0.
         25    1    3    3    0    0  0.86277624046E+02 -0.18074095112E+02  0.22614244198E+03  0.27305386554E+03  0.12509000000E+03 0.  0.
<mgrwt>
<rscale>  2 0.45250559E+03</rscale>
<asrwt>0</asrwt>
<pdfrwt beam="1">  1       21 0.95102256E-01 0.45250559E+03</pdfrwt>
<pdfrwt beam="2">  1       21 0.11640704E-01 0.45250559E+03</pdfrwt>
<totfact> 0.52544980E+04</totfact>
</mgrwt>
</event>
<event>
 6    0  0.1539652E-007  0.4508028E+03  0.7546771E-02  0.1027483E+00
         21   -1    0    0  502  501  0.00000000000E+00  0.00000000000E+00  0.42560125863E+03  0.42560125863E+03  0.00000000000E+00 0. -1.
         21   -1    0    0  501  502 -0.00000000000E+00 -0.00000000000E+00 -0.11937413247E+03  0.11937413247E+03  0.00000000000E+00 0. -1.
      99926    2    1    2    0    0  0.00000000000E+00  0.00000000000E+00  0.30622712616E+03  0.54497539110E+03  0.45080275522E+03 0.  0.
         25    1    3    3    0    0 -0.63722330083E+02 -0.62639168525E+02  0.46554532434E+02  0.16062077504E+03  0.12509000000E+03 0.  0.
         25    1    3    3    0    0  0.37316127195E+02  0.46403947153E+02  0.70474635696E+02  0.15543488037E+03  0.12509000000E+03 0.  0.
         25    1    3    3    0    0  0.26406202889E+02  0.16235221371E+02  0.18919795803E+03  0.22891973569E+03  0.12509000000E+03 0.  0.
<mgrwt>
<rscale>  2 0.45080276E+03</rscale>
<asrwt>0</asrwt>
<pdfrwt beam="1">  1       21 0.62588420E-01 0.45080276E+03</pdfrwt>
<pdfrwt beam="2">  1       21 0.17555020E-01 0.45080276E+03</pdfrwt>
<totfact> 0.64309150E+04</totfact>
</mgrwt>
</event>
<event>
 6    0  0.1539652E-007  0.4555097E+03  0.7546771E-02  0.1026092E+00
         21   -1    0    0  502  501  0.00000000000E+00  0.00000000000E+00  0.45361730556E+03  0.45361730556E+03  0.00000000000E+00 0.  1.
         21   -1    0    0  501  502 -0.00000000000E+00 -0.00000000000E+00 -0.11435249212E+03  0.11435249212E+03  0.00000000000E+00 0.  1.
      99926    2    1    2    0    0  0.71054273576E-14  0.71054273576E-14  0.33926481344E+03  0.56796979768E+03  0.45550968973E+03 0.  0.
         25    1    3    3    0    0  0.24963655574E-01  0.43909809133E+02  0.13408566794E+03  0.18855913239E+03  0.12509000000E+03 0.  0.
         25    1    3    3    0    0  0.50642296462E+02  0.24984123121E+02  0.17912296218E+03  0.22565768828E+03  0.12509000000E+03 0.  0.
         25    1    3    3    0    0 -0.50667260117E+02 -0.68893932254E+02  0.26056183320E+02  0.15375297701E+03  0.12509000000E+03 0.  0.
<mgrwt>
<rscale>  2 0.45550969E+03</rscale>
<asrwt>0</asrwt>
<pdfrwt beam="1">  1       21 0.66708427E-01 0.45550969E+03</pdfrwt>
<pdfrwt beam="2">  1       21 0.16816543E-01 0.45550969E+03</pdfrwt>
<totfact> 0.60450410E+04</totfact>
</mgrwt>
</event>
<event>
 6    0  0.1539652E-007  0.4582635E+03  0.7546771E-02  0.1025286E+00
         21   -1    0    0  502  501  0.00000000000E+00  0.00000000000E+00  0.81668668956E+02  0.81668668956E+02  0.00000000000E+00 0. -1.
         21   -1    0    0  501  502 -0.00000000000E+00 -0.00000000000E+00 -0.64285795907E+03  0.64285795907E+03  0.00000000000E+00 0. -1.
      99926    2    1    2    0    0  0.17763568394E-14  0.00000000000E+00 -0.56118929012E+03  0.72452662803E+03  0.45826347812E+03 0.  0.
         25    1    3    3    0    0  0.40481468943E+02 -0.10515412994E+03 -0.29943881252E+03  0.34352183470E+03  0.12509000000E+03 0.  0.
         25    1    3    3    0    0 -0.30146240168E+02  0.46403886763E+02 -0.14977322122E+03  0.20283402673E+03  0.12509000000E+03 0.  0.
         25    1    3    3    0    0 -0.10335228775E+02  0.58750243176E+02 -0.11197725638E+03  0.17817076661E+03  0.12509000000E+03 0.  0.
<mgrwt>
<rscale>  2 0.45826348E+03</rscale>
<asrwt>0</asrwt>
<pdfrwt beam="1">  1       21 0.12010099E-01 0.45826348E+03</pdfrwt>
<pdfrwt beam="2">  1       21 0.94537932E-01 0.45826348E+03</pdfrwt>
<totfact> 0.50288317E+04</totfact>
</mgrwt>
</event>
<event>
 6    0  0.1539652E-007  0.4538574E+03  0.7546771E-02  0.1026578E+00
         21   -1    0    0  502  501  0.00000000000E+00  0.00000000000E+00  0.39794497897E+02  0.39794497897E+02  0.00000000000E+00 0. -1.
         21   -1    0    0  501  502 -0.00000000000E+00 -0.00000000000E+00 -0.12940642715E+04  0.12940642715E+04  0.00000000000E+00 0. -1.
      99926    2    1    2    0    0 -0.35527136788E-14  0.00000000000E+00 -0.12542697736E+04  0.13338587694E+04  0.45385741342E+03 0.  0.
         25    1    3    3    0    0  0.21729485560E+02  0.80286738493E+01 -0.58551450423E+03  0.59917557770E+03  0.12509000000E+03 0.  0.
         25    1    3    3    0    0 -0.33925985637E+02  0.74393135428E+02 -0.27091253510E+03  0.30939686630E+03  0.12509000000E+03 0.  0.
         25    1    3    3    0    0  0.12196500078E+02 -0.82421809278E+02 -0.39784273425E+03  0.42528632538E+03  0.12509000000E+03 0.  0.
<mgrwt>
<rscale>  2 0.45385741E+03</rscale>
<asrwt>0</asrwt>
<pdfrwt beam="1">  1       21 0.58521322E-02 0.45385741E+03</pdfrwt>
<pdfrwt beam="2">  1       21 0.19030356E+00 0.45385741E+03</pdfrwt>
<totfact> 0.28398509E+04</totfact>
</mgrwt>
</event>
<event>
 6    0  0.1539652E-007  0.4667782E+03  0.7546771E-02  0.1022834E+00
         21   -1    0    0  502  501  0.00000000000E+00  0.00000000000E+00  0.64652023529E+03  0.64652023529E+03  0.00000000000E+00 0. -1.
         21   -1    0    0  501  502 -0.00000000000E+00 -0.00000000000E+00 -0.84251754787E+02  0.84251754787E+02  0.00000000000E+00 0. -1.
      99926    2    1    2    0    0  0.71054273576E-14  0.00000000000E+00  0.56226848050E+03  0.73077199008E+03  0.46677816714E+03 0.  0.
         25    1    3    3    0    0  0.84914617034E+02  0.19776401861E+02  0.24246803458E+03  0.28642600118E+03  0.12509000000E+03 0.  0.
         25    1    3    3    0    0  0.26541727240E+02 -0.16670370359E+02  0.20147183487E+03  0.23920863881E+03  0.12509000000E+03 0.  0.
         25    1    3    3    0    0 -0.11145634427E+03 -0.31060315025E+01  0.11832861105E+03  0.20513735009E+03  0.12509000000E+03 0.  0.
<mgrwt>
<rscale>  2 0.46677817E+03</rscale>
<asrwt>0</asrwt>
<pdfrwt beam="1">  1       21 0.95076503E-01 0.46677817E+03</pdfrwt>
<pdfrwt beam="2">  1       21 0.12389964E-01 0.46677817E+03</pdfrwt>
<totfact> 0.46778439E+04</totfact>
</mgrwt>
</event>
<event>
 6    0  0.1539652E-007  0.4588946E+03  0.7546771E-02  0.1025102E+00
         21   -1    0    0  502  501  0.00000000000E+00  0.00000000000E+00  0.48782496316E+03  0.48782496316E+03  0.00000000000E+00 0.  1.
         21   -1    0    0  501  502 -0.00000000000E+00 -0.00000000000E+00 -0.10791997594E+03  0.10791997594E+03  0.00000000000E+00 0.  1.
      99926    2    1    2    0    0  0.71054273576E-14 -0.71054273576E-14  0.37990498723E+03  0.59574493910E+03  0.45889457738E+03 0.  0.
         25    1    3    3    0    0 -0.50681526191E+02 -0.41105139558E+02  0.13787490320E+03  0.19726947718E+03  0.12509000000E+03 0.  0.
         25    1    3    3    0    0 -0.61801381256E+02  0.13319737736E+01  0.76437148369E+02  0.15909535075E+03  0.12509000000E+03 0.  0.
         25    1    3    3    0    0  0.11248290745E+03  0.39773165784E+02  0.16559293566E+03  0.23938011117E+03  0.12509000000E+03 0.  0.
<mgrwt>
<rscale>  2 0.45889458E+03</rscale>
<asrwt>0</asrwt>
<pdfrwt beam="1">  1       21 0.71738964E-01 0.45889458E+03</pdfrwt>
<pdfrwt beam="2">  1       21 0.15870585E-01 0.45889458E+03</pdfrwt>
<totfact> 0.57161307E+04</totfact>
</mgrwt>
</event>
<event>
 6    0  0.1539652E-007  0.4590329E+03  0.7546771E-02  0.1025062E+00
         21   -1    0    0  502  501  0.00000000000E+00  0.00000000000E+00  0.42790681770E+03  0.42790681770E+03  0.00000000000E+00 0. -1.
         21   -1    0    0  501  502 -0.00000000000E+00 -0.00000000000E+00 -0.12310579905E+03  0.12310579905E+03  0.00000000000E+00 0. -1.
      99926    2    1    2    0    0  0.17763568394E-14 -0.17763568394E-14  0.30480101865E+03  0.55101261675E+03  0.45903294310E+03 0.  0.
         25    1    3    3    0    0 -0.44754613323E+02  0.88026675198E+02  0.45843272995E+02  0.16583360558E+03  0.12509000000E+03 0.  0.
         25    1    3    3    0    0  0.49865618530E+02 -0.82751776944E+02  0.16557748815E+03  0.22890576485E+03  0.12509000000E+03 0.  0.
         25    1    3    3    0    0 -0.51110052075E+01 -0.52748982540E+01  0.93380257499E+02  0.15627324632E+03  0.12509000000E+03 0.  0.
<mgrwt>
<rscale>  2 0.45903294E+03</rscale>
<asrwt>0</asrwt>
<pdfrwt beam="1">  1       21 0.62927473E-01 0.45903294E+03</pdfrwt>
<pdfrwt beam="2">  1       21 0.18103794E-01 0.45903294E+03</pdfrwt>
<totfact> 0.59866454E+04</totfact>
</mgrwt>
</event>
<event>
 6    0  0.1539652E-007  0.4584823E+03  0.7546771E-02  0.1025222E+00
         21   -1    0    0  502  501  0.00000000000E+00  0.00000000000E+00  0.28672062625E+03  0.28672062625E+03  0.00000000000E+00 0. -1.
         21   -1    0    0  501  502 -0.00000000000E+00 -0.00000000000E+00 -0.18328468842E+03  0.18328468842E+03  0.00000000000E+00 0. -1.
      99926    2    1    2    0    0  0.00000000000E+00 -0.14210854715E-13  0.10343593782E+03  0.47000531467E+03  0.45848228165E+03 0.  0.
         25    1    3    3    0    0 -0.50927943851E+01  0.67965694335E+02  0.10086876550E+03  0.17454881298E+03  0.12509000000E+03 0.  0.
         25    1    3    3    0    0  0.10912089652E+02  0.25347219165E+01 -0.59435429029E+02  0.13894450993E+03  0.12509000000E+03 0.  0.
         25    1    3    3    0    0 -0.58192952670E+01 -0.70500416251E+02  0.62002601354E+02  0.15651199176E+03  0.12509000000E+03 0.  0.
<mgrwt>
<rscale>  2 0.45848228E+03</rscale>
<asrwt>0</asrwt>
<pdfrwt beam="1">  1       21 0.42164798E-01 0.45848228E+03</pdfrwt>
<pdfrwt beam="2">  1       21 0.26953631E-01 0.45848228E+03</pdfrwt>
<totfact> 0.65604613E+04</totfact>
</mgrwt>
</event>
<event>
 6    0  0.1539652E-007  0.4575659E+03  0.7546771E-02  0.1025490E+00
         21   -1    0    0  502  501  0.00000000000E+00  0.00000000000E+00  0.11424378222E+04  0.11424378222E+04  0.00000000000E+00 0. -1.
         21   -1    0    0  501  502 -0.00000000000E+00 -0.00000000000E+00 -0.45815742732E+02  0.45815742732E+02  0.00000000000E+00 0. -1.
      99926    2    1    2    0    0  0.17763568394E-14  0.35527136788E-14  0.10966220794E+04  0.11882535649E+04  0.45756589623E+03 0.  0.
         25    1    3    3    0    0 -0.11489570389E+02 -0.12901299113E+02  0.25604567182E+03  0.28549141476E+03  0.12509000000E+03 0.  0.
         25    1    3    3    0    0  0.53520634537E+02  0.10126124558E+03  0.46623334032E+03  0.49612431295E+03  0.12509000000E+03 0.  0.
         25    1    3    3    0    0 -0.42031064148E+02 -0.88359946471E+02  0.37434306730E+03  0.40663783718E+03  0.12509000000E+03 0.  0.
<mgrwt>
<rscale>  2 0.45756590E+03</rscale>
<asrwt>0</asrwt>
<pdfrwt beam="1">  1       21 0.16800554E+00 0.45756590E+03</pdfrwt>
<pdfrwt beam="2">  1       21 0.67376099E-02 0.45756590E+03</pdfrwt>
<totfact> 0.31888231E+04</totfact>
</mgrwt>
</event>
<event>
 6    0  0.1539652E-007  0.4513836E+03  0.7546771E-02  0.1027310E+00
         21   -1    0    0  502  501  0.00000000000E+00  0.00000000000E+00  0.12005463958E+03  0.12005463958E+03  0.00000000000E+00 0.  1.
         21   -1    0    0  501  502 -0.00000000000E+00 -0.00000000000E+00 -0.42428006515E+03  0.42428006515E+03  0.00000000000E+00 0.  1.
      99926    2    1    2    0    0 -0.35527136788E-14  0.14210854715E-13 -0.30422542557E+03  0.54433470473E+03  0.45138360760E+03 0.  0.
         25    1    3    3    0    0 -0.22679175831E+02 -0.93131943343E+02 -0.15923049682E+03  0.22403071911E+03  0.12509000000E+03 0.  0.
         25    1    3    3    0    0  0.59530285319E+02  0.48014083285E+02 -0.61300109211E+02  0.15891638856E+03  0.12509000000E+03 0.  0.
         25    1    3    3    0    0 -0.36851109488E+02  0.45117860058E+02 -0.83694819541E+02  0.16138759706E+03  0.12509000000E+03 0.  0.
<mgrwt>
<rscale>  2 0.45138361E+03</rscale>
<asrwt>0</asrwt>
<pdfrwt beam="1">  1       21 0.17655093E-01 0.45138361E+03</pdfrwt>
<pdfrwt beam="2">  1       21 0.62394129E-01 0.45138361E+03</pdfrwt>
<totfact> 0.64055906E+04</totfact>
</mgrwt>
</event>
<event>
 6    0  0.1539652E-007  0.4428108E+03  0.7546771E-02  0.1029888E+00
         21   -1    0    0  502  501  0.00000000000E+00  0.00000000000E+00  0.15681365223E+03  0.15681365223E+03  0.00000000000E+00 0.  1.
         21   -1    0    0  501  502 -0.00000000000E+00 -0.00000000000E+00 -0.31260263189E+03  0.31260263189E+03  0.00000000000E+00 0.  1.
      99926    2    1    2    0    0  0.00000000000E+00  0.35527136788E-14 -0.15578897966E+03  0.46941628412E+03  0.44281084179E+03 0.  0.
         25    1    3    3    0    0 -0.26914772673E+02 -0.52570310749E+02 -0.13984151420E+03  0.19670078737E+03  0.12509000000E+03 0.  0.
         25    1    3    3    0    0  0.43396869538E+02  0.21138143399E+02  0.25003125411E+02  0.13639198573E+03  0.12509000000E+03 0.  0.
         25    1    3    3    0    0 -0.16482096866E+02  0.31432167349E+02 -0.40950590879E+02  0.13632351101E+03  0.12509000000E+03 0.  0.
<mgrwt>
<rscale>  2 0.44281084E+03</rscale>
<asrwt>0</asrwt>
<pdfrwt beam="1">  1       21 0.23060832E-01 0.44281084E+03</pdfrwt>
<pdfrwt beam="2">  1       21 0.45970975E-01 0.44281084E+03</pdfrwt>
<totfact> 0.74421910E+04</totfact>
</mgrwt>
</event>
<event>
 6    0  0.1539652E-007  0.4581436E+03  0.7546771E-02  0.1025321E+00
         21   -1    0    0  502  501  0.00000000000E+00  0.00000000000E+00  0.50988955681E+02  0.50988955681E+02  0.00000000000E+00 0.  1.
         21   -1    0    0  501  502 -0.00000000000E+00 -0.00000000000E+00 -0.10291225907E+04  0.10291225907E+04  0.00000000000E+00 0.  1.
      99926    2    1    2    0    0  0.00000000000E+00  0.00000000000E+00 -0.97813363503E+03  0.10801115464E+04  0.45814358521E+03 0.  0.
         25    1    3    3    0    0  0.52749855778E+02 -0.56730746419E+02 -0.38050902032E+03  0.40796513027E+03  0.12509000000E+03 0.  0.
         25    1    3    3    0    0 -0.53715650603E+01  0.71189328384E+02 -0.16467629455E+03  0.21877514546E+03  0.12509000000E+03 0.  0.
         25    1    3    3    0    0 -0.47378290718E+02 -0.14458581965E+02 -0.43294832016E+03  0.45337127065E+03  0.12509000000E+03 0.  0.
<mgrwt>
<rscale>  2 0.45814359E+03</rscale>
<asrwt>0</asrwt>
<pdfrwt beam="1">  1       21 0.74983757E-02 0.45814359E+03</pdfrwt>
<pdfrwt beam="2">  1       21 0.15134156E+00 0.45814359E+03</pdfrwt>
<totfact> 0.35317255E+04</totfact>
</mgrwt>
</event>
<event>
 6    0  0.1539652E-007  0.4530188E+03  0.7546771E-02  0.1026826E+00
         21   -1    0    0  502  501  0.00000000000E+00  0.00000000000E+00  0.50610214429E+02  0.50610214429E+02  0.00000000000E+00 0. -1.
         21   -1    0    0  501  502 -0.00000000000E+00 -0.00000000000E+00 -0.10137578708E+04  0.10137578708E+04  0.00000000000E+00 0. -1.
      99926    2    1    2    0    0  0.71054273576E-14  0.00000000000E+00 -0.96314765639E+03  0.10643680852E+04  0.45301877763E+03 0.  0.
         25    1    3    3    0    0 -0.13246400969E+02 -0.81760851719E+02 -0.37437086428E+03  0.40331297541E+03  0.12509000000E+03 0.  0.
         25    1    3    3    0    0  0.61472869110E+02  0.62707713340E+02 -0.40423046473E+03  0.43215847517E+03  0.12509000000E+03 0.  0.
         25    1    3    3    0    0 -0.48226468141E+02  0.19053138379E+02 -0.18454632739E+03  0.22889663467E+03  0.12509000000E+03 0.  0.
<mgrwt>
<rscale>  2 0.45301878E+03</rscale>
<asrwt>0</asrwt>
<pdfrwt beam="1">  1       21 0.74426791E-02 0.45301878E+03</pdfrwt>
<pdfrwt beam="2">  1       21 0.14908203E+00 0.45301878E+03</pdfrwt>
<totfact> 0.37328387E+04</totfact>
</mgrwt>
</event>
<event>
 6    0  0.1539652E-007  0.4563738E+03  0.7546771E-02  0.1025838E+00
         21   -1    0    0  502  501  0.00000000000E+00  0.00000000000E+00  0.48923061514E+03  0.48923061514E+03  0.00000000000E+00 0.  1.
         21   -1    0    0  501  502 -0.00000000000E+00 -0.00000000000E+00 -0.10643089580E+03  0.10643089580E+03  0.00000000000E+00 0.  1.
      99926    2    1    2    0    0 -0.17763568394E-14  0.35527136788E-14  0.38279971934E+03  0.59566151094E+03  0.45637376183E+03 0.  0.
         25    1    3    3    0    0  0.86641361956E+02  0.15018053084E+02  0.19459284892E+03  0.24747960011E+03  0.12509000000E+03 0.  0.
         25    1    3    3    0    0  0.79403335308E+01  0.31718496296E+02  0.82822756392E+02  0.15354552739E+03  0.12509000000E+03 0.  0.
         25    1    3    3    0    0 -0.94581695487E+02 -0.46736549380E+02  0.10538411403E+03  0.19463638344E+03  0.12509000000E+03 0.  0.
<mgrwt>
<rscale>  2 0.45637376E+03</rscale>
<asrwt>0</asrwt>
<pdfrwt beam="1">  1       21 0.71945678E-01 0.45637376E+03</pdfrwt>
<pdfrwt beam="2">  1       21 0.15651603E-01 0.45637376E+03</pdfrwt>
<totfact> 0.58310515E+04</totfact>
</mgrwt>
</event>
<event>
 6    0  0.1539652E-007  0.4692203E+03  0.7546771E-02  0.1022141E+00
         21   -1    0    0  502  501  0.00000000000E+00  0.00000000000E+00  0.26685750888E+03  0.26685750888E+03  0.00000000000E+00 0.  1.
         21   -1    0    0  501  502 -0.00000000000E+00 -0.00000000000E+00 -0.20625959538E+03  0.20625959538E+03  0.00000000000E+00 0.  1.
      99926    2    1    2    0    0  0.00000000000E+00  0.00000000000E+00  0.60597913503E+02  0.47311710426E+03  0.46922029711E+03 0.  0.
         25    1    3    3    0    0  0.59260014038E+02 -0.74393787591E+02 -0.33737253266E+02  0.16072303896E+03  0.12509000000E+03 0.  0.
         25    1    3    3    0    0 -0.70375016004E+02  0.78398729393E+02  0.15991134196E+02  0.16432354707E+03  0.12509000000E+03 0.  0.
         25    1    3    3    0    0  0.11115001966E+02 -0.40049418027E+01  0.78344032573E+02  0.14807051822E+03  0.12509000000E+03 0.  0.
<mgrwt>
<rscale>  2 0.46922030E+03</rscale>
<asrwt>0</asrwt>
<pdfrwt beam="1">  1       21 0.39243751E-01 0.46922030E+03</pdfrwt>
<pdfrwt beam="2">  1       21 0.30332293E-01 0.46922030E+03</pdfrwt>
<totfact> 0.60122033E+04</totfact>
</mgrwt>
</event>
<event>
 6    0  0.1539652E-007  0.4586449E+03  0.7546771E-02  0.1025175E+00
         21   -1    0    0  502  501  0.00000000000E+00  0.00000000000E+00  0.60212195159E+03  0.60212195159E+03  0.00000000000E+00 0. -1.
         21   -1    0    0  501  502 -0.00000000000E+00 -0.00000000000E+00 -0.87339095878E+02  0.87339095878E+02  0.00000000000E+00 0. -1.
      99926    2    1    2    0    0 -0.14210854715E-13  0.35527136788E-14  0.51478285571E+03  0.68946104747E+03  0.45864490343E+03 0.  0.
         25    1    3    3    0    0  0.65796883653E+02 -0.14993603868E+02  0.12303811490E+03  0.18798915893E+03  0.12509000000E+03 0.  0.
         25    1    3    3    0    0  0.45363751948E+02 -0.36261850597E+02  0.17993840396E+03  0.22671155489E+03  0.12509000000E+03 0.  0.
         25    1    3    3    0    0 -0.11116063560E+03  0.51255454465E+02  0.21180633685E+03  0.27476033365E+03  0.12509000000E+03 0.  0.
<mgrwt>
<rscale>  2 0.45864490E+03</rscale>
<asrwt>0</asrwt>
<pdfrwt beam="1">  1       21 0.88547343E-01 0.45864490E+03</pdfrwt>
<pdfrwt beam="2">  1       21 0.12843985E-01 0.45864490E+03</pdfrwt>
<totfact> 0.51971639E+04</totfact>
</mgrwt>
</event>
<event>
 6    0  0.1539652E-007  0.4508353E+03  0.7546771E-02  0.1027473E+00
         21   -1    0    0  502  501  0.00000000000E+00  0.00000000000E+00  0.11876784641E+04  0.11876784641E+04  0.00000000000E+00 0.  1.
         21   -1    0    0  501  502 -0.00000000000E+00 -0.00000000000E+00 -0.42783558644E+02  0.42783558644E+02  0.00000000000E+00 0.  1.
      99926    2    1    2    0    0  0.00000000000E+00  0.35527136788E-14  0.11448949055E+04  0.12304620228E+04  0.45083527466E+03 0.  0.
         25    1    3    3    0    0 -0.59039353463E+02  0.30079399775E+02  0.24730584740E+03  0.28495281330E+03  0.12509000000E+03 0.  0.
         25    1    3    3    0    0  0.62729304698E+02  0.30454059921E+02  0.60290496960E+03  0.61968082583E+03  0.12509000000E+03 0.  0.
         25    1    3    3    0    0 -0.36899512344E+01 -0.60533459695E+02  0.29468408849E+03  0.32582838365E+03  0.12509000000E+03 0.  0.
<mgrwt>
<rscale>  2 0.45083527E+03</rscale>
<asrwt>0</asrwt>
<pdfrwt beam="1">  1       21 0.17465858E+00 0.45083527E+03</pdfrwt>
<pdfrwt beam="2">  1       21 0.62917006E-02 0.45083527E+03</pdfrwt>
<totfact> 0.32235626E+04</totfact>
</mgrwt>
</event>
<event>
 6    0  0.1539652E-007  0.4464266E+03  0.7546771E-02  0.1028793E+00
         21   -1    0    0  502  501  0.00000000000E+00  0.00000000000E+00  0.16232002811E+04  0.16232002811E+04  0.00000000000E+00 0. -1.
         21   -1    0    0  501  502 -0.00000000000E+00 -0.00000000000E+00 -0.30695023672E+02  0.30695023672E+02  0.00000000000E+00 0. -1.
      99926    2    1    2    0    0 -0.35527136788E-14  0.71054273576E-14  0.15925052574E+04  0.16538953047E+04  0.44642657202E+03 0.  0.
         25    1    3    3    0    0  0.31656733523E+01 -0.24510434472E+02  0.84848705021E+03  0.85801431536E+03  0.12509000000E+03 0.  0.
         25    1    3    3    0    0  0.30901818565E+02 -0.43757917030E+02  0.35698414377E+03  0.38204039668E+03  0.12509000000E+03 0.  0.
         25    1    3    3    0    0 -0.34067491917E+02  0.68268351501E+02  0.38703406342E+03  0.41384059270E+03  0.12509000000E+03 0.  0.
<mgrwt>
<rscale>  2 0.44642657E+03</rscale>
<asrwt>0</asrwt>
<pdfrwt beam="1">  1       21 0.23870587E+00 0.44642657E+03</pdfrwt>
<pdfrwt beam="2">  1       21 0.45139752E-02 0.44642657E+03</pdfrwt>
<totfact> 0.21644208E+04</totfact>
</mgrwt>
</event>
<event>
 6    0  0.1539652E-007  0.4606284E+03  0.7546771E-02  0.1024599E+00
         21   -1    0    0  502  501  0.00000000000E+00  0.00000000000E+00  0.63439492989E+03  0.63439492989E+03  0.00000000000E+00 0. -1.
         21   -1    0    0  501  502 -0.00000000000E+00 -0.00000000000E+00 -0.83614535803E+02  0.83614535803E+02  0.00000000000E+00 0. -1.
      99926    2    1    2    0    0  0.00000000000E+00  0.00000000000E+00  0.55078039408E+03  0.71800946569E+03  0.46062842977E+03 0.  0.
         25    1    3    3    0    0  0.64481252622E+02  0.15519234925E+02  0.20484717094E+03  0.24901516045E+03  0.12509000000E+03 0.  0.
         25    1    3    3    0    0 -0.58522899548E+02 -0.94930870500E+02  0.20018935435E+03  0.26107486597E+03  0.12509000000E+03 0.  0.
         25    1    3    3    0    0 -0.59583530738E+01  0.79411635575E+02  0.14574386880E+03  0.20791943928E+03  0.12509000000E+03 0.  0.
<mgrwt>
<rscale>  2 0.46062843E+03</rscale>
<asrwt>0</asrwt>
<pdfrwt beam="1">  1       21 0.93293370E-01 0.46062843E+03</pdfrwt>
<pdfrwt beam="2">  1       21 0.12296255E-01 0.46062843E+03</pdfrwt>
<totfact> 0.49698898E+04</totfact>
</mgrwt>
</event>
<event>
 6    0  0.1539652E-007  0.4561913E+03  0.7546771E-02  0.1025892E+00
         21   -1    0    0  502  501  0.00000000000E+00  0.00000000000E+00  0.25191428580E+03  0.25191428580E+03  0.00000000000E+00 0. -1.
         21   -1    0    0  501  502 -0.00000000000E+00 -0.00000000000E+00 -0.20652910537E+03  0.20652910537E+03  0.00000000000E+00 0. -1.
      99926    2    1    2    0    0  0.00000000000E+00 -0.46629367034E-14  0.45385180433E+02  0.45844339117E+03  0.45619132861E+03 0.  0.
         25    1    3    3    0    0 -0.29446682911E+01  0.90737850419E+02 -0.30529706530E+02  0.15754872151E+03  0.12509000000E+03 0.  0.
         25    1    3    3    0    0 -0.30279132949E+02 -0.10367543177E+01  0.66966485907E+01  0.12888077418E+03  0.12509000000E+03 0.  0.
         25    1    3    3    0    0  0.33223801241E+02 -0.89701096102E+02  0.69218238372E+02  0.17201389547E+03  0.12509000000E+03 0.  0.
<mgrwt>
<rscale>  2 0.45619133E+03</rscale>
<asrwt>0</asrwt>
<pdfrwt beam="1">  1       21 0.37046219E-01 0.45619133E+03</pdfrwt>
<pdfrwt beam="2">  1       21 0.30371927E-01 0.45619133E+03</pdfrwt>
<totfact> 0.67648958E+04</totfact>
</mgrwt>
</event>
<event>
 6    0  0.1539652E-007  0.4735805E+03  0.7546771E-02  0.1020914E+00
         21   -1    0    0  502  501  0.00000000000E+00  0.00000000000E+00  0.21908966787E+04  0.21908966787E+04  0.00000000000E+00 0. -1.
         21   -1    0    0  501  502 -0.00000000000E+00 -0.00000000000E+00 -0.25592086997E+02  0.25592086997E+02  0.00000000000E+00 0. -1.
      99926    2    1    2    0    0  0.00000000000E+00  0.88817841970E-15  0.21653045917E+04  0.22164887657E+04  0.47358048272E+03 0.  0.
         25    1    3    3    0    0  0.11274787649E+03 -0.63742118230E+01  0.12062739563E+04  0.12179889491E+04  0.12509000000E+03 0.  0.
         25    1    3    3    0    0 -0.33890825079E+02 -0.33725543005E+01  0.43260689155E+03  0.45161509370E+03  0.12509000000E+03 0.  0.
         25    1    3    3    0    0 -0.78857051415E+02  0.97467661235E+01  0.52642374386E+03  0.54688472296E+03  0.12509000000E+03 0.  0.
<mgrwt>
<rscale>  2 0.47358048E+03</rscale>
<asrwt>0</asrwt>
<pdfrwt beam="1">  1       21 0.32219056E+00 0.47358048E+03</pdfrwt>
<pdfrwt beam="2">  1       21 0.37635437E-02 0.47358048E+03</pdfrwt>
<totfact> 0.91006358E+03</totfact>
</mgrwt>
</event>
<event>
 6    0  0.1539652E-007  0.4684006E+03  0.7546771E-02  0.1022373E+00
         21   -1    0    0  502  501  0.00000000000E+00  0.00000000000E+00  0.13858596491E+03  0.13858596491E+03  0.00000000000E+00 0. -1.
         21   -1    0    0  501  502 -0.00000000000E+00 -0.00000000000E+00 -0.39578165884E+03  0.39578165884E+03  0.00000000000E+00 0. -1.
      99926    2    1    2    0    0 -0.71054273576E-14  0.00000000000E+00 -0.25719569393E+03  0.53436762374E+03  0.46840061094E+03 0.  0.
         25    1    3    3    0    0 -0.23199439193E+02 -0.29699846879E+02 -0.15722840046E+02  0.13158651406E+03  0.12509000000E+03 0.  0.
         25    1    3    3    0    0 -0.55119129225E+02  0.67240539628E+02 -0.54853272244E+02  0.16191293386E+03  0.12509000000E+03 0.  0.
         25    1    3    3    0    0  0.78318568418E+02 -0.37540692749E+02 -0.18661958164E+03  0.24086817582E+03  0.12509000000E+03 0.  0.
<mgrwt>
<rscale>  2 0.46840061E+03</rscale>
<asrwt>0</asrwt>
<pdfrwt beam="1">  1       21 0.20380289E-01 0.46840061E+03</pdfrwt>
<pdfrwt beam="2">  1       21 0.58203185E-01 0.46840061E+03</pdfrwt>
<totfact> 0.56650678E+04</totfact>
</mgrwt>
</event>
<event>
 6    0  0.1539652E-007  0.4491502E+03  0.7546771E-02  0.1027976E+00
         21   -1    0    0  502  501  0.00000000000E+00  0.00000000000E+00  0.20303082169E+03  0.20303082169E+03  0.00000000000E+00 0. -1.
         21   -1    0    0  501  502 -0.00000000000E+00 -0.00000000000E+00 -0.24840556216E+03  0.24840556216E+03  0.00000000000E+00 0. -1.
      99926    2    1    2    0    0  0.71054273576E-14  0.00000000000E+00 -0.45374740462E+02  0.45143638385E+03  0.44915024389E+03 0.  0.
         25    1    3    3    0    0 -0.36196520818E+02  0.11180364437E+02  0.43807941368E+02  0.13784713452E+03  0.12509000000E+03 0.  0.
         25    1    3    3    0    0  0.76734608667E+02 -0.47670742905E+02 -0.86940565147E+02  0.17710694471E+03  0.12509000000E+03 0.  0.
         25    1    3    3    0    0 -0.40538087849E+02  0.36490378468E+02 -0.22421166826E+01  0.13648230462E+03  0.12509000000E+03 0.  0.
<mgrwt>
<rscale>  2 0.44915024E+03</rscale>
<asrwt>0</asrwt>
<pdfrwt beam="1">  1       21 0.29857474E-01 0.44915024E+03</pdfrwt>
<pdfrwt beam="2">  1       21 0.36530230E-01 0.44915024E+03</pdfrwt>
<totfact> 0.72115118E+04</totfact>
</mgrwt>
</event>
<event>
 6    0  0.1539652E-007  0.4517756E+03  0.7546771E-02  0.1027194E+00
         21   -1    0    0  502  501  0.00000000000E+00  0.00000000000E+00  0.27806468664E+02  0.27806468664E+02  0.00000000000E+00 0. -1.
         21   -1    0    0  501  502 -0.00000000000E+00 -0.00000000000E+00 -0.18350157245E+04  0.18350157245E+04  0.00000000000E+00 0. -1.
      99926    2    1    2    0    0 -0.71054273576E-14  0.26645352591E-14 -0.18072092558E+04  0.18628221931E+04  0.45177564007E+03 0.  0.
         25    1    3    3    0    0 -0.49547576686E+02  0.49244038323E+02 -0.70489949960E+03  0.71931269300E+03  0.12509000000E+03 0.  0.
         25    1    3    3    0    0 -0.52875359357E+02 -0.23148571290E+01 -0.48737593251E+03  0.50594858423E+03  0.12509000000E+03 0.  0.
         25    1    3    3    0    0  0.10242293604E+03 -0.46929181194E+02 -0.61493382369E+03  0.63756091591E+03  0.12509000000E+03 0.  0.
<mgrwt>
<rscale>  2 0.45177564E+03</rscale>
<asrwt>0</asrwt>
<pdfrwt beam="1">  1       21 0.40891845E-02 0.45177564E+03</pdfrwt>
<pdfrwt beam="2">  1       21 0.26985539E+00 0.45177564E+03</pdfrwt>
<totfact> 0.16490320E+04</totfact>
</mgrwt>
</event>
<event>
 6    0  0.1539652E-007  0.4596353E+03  0.7546771E-02  0.1024887E+00
         21   -1    0    0  502  501  0.00000000000E+00  0.00000000000E+00  0.11845059698E+03  0.11845059698E+03  0.00000000000E+00 0. -1.
         21   -1    0    0  501  502 -0.00000000000E+00 -0.00000000000E+00 -0.44589184132E+03  0.44589184132E+03  0.00000000000E+00 0. -1.
      99926    2    1    2    0    0 -0.71054273576E-14  0.00000000000E+00 -0.32744124434E+03  0.56434243830E+03  0.45963531106E+03 0.  0.
         25    1    3    3    0    0 -0.56138903203E+02 -0.17413961551E+01 -0.58450304009E+02  0.14905889793E+03  0.12509000000E+03 0.  0.
         25    1    3    3    0    0  0.41994875386E+02  0.28039818402E+01 -0.16318639199E+02  0.13298585623E+03  0.12509000000E+03 0.  0.
         25    1    3    3    0    0  0.14144027818E+02 -0.10625856851E+01 -0.25267230113E+03  0.28229768414E+03  0.12509000000E+03 0.  0.
<mgrwt>
<rscale>  2 0.45963531E+03</rscale>
<asrwt>0</asrwt>
<pdfrwt beam="1">  1       21 0.17419206E-01 0.45963531E+03</pdfrwt>
<pdfrwt beam="2">  1       21 0.65572329E-01 0.45963531E+03</pdfrwt>
<totfact> 0.58745119E+04</totfact>
</mgrwt>
</event>
<event>
 6    0  0.1539652E-007  0.4570288E+03  0.7546771E-02  0.1025646E+00
         21   -1    0    0  502  501  0.00000000000E+00  0.00000000000E+00  0.63618695055E+02  0.63618695055E+02  0.00000000000E+00 0. -1.
         21   -1    0    0  501  502 -0.00000000000E+00 -0.00000000000E+00 -0.82080955230E+03  0.82080955230E+03  0.00000000000E+00 0. -1.
      99926    2    1    2    0    0  0.00000000000E+00  0.00000000000E+00 -0.75719085725E+03  0.88442824736E+03  0.45702880699E+03 0.  0.
         25    1    3    3    0    0  0.86618756001E+01 -0.20062675706E+02 -0.31046885618E+03  0.33543398427E+03  0.12509000000E+03 0.  0.
         25    1    3    3    0    0 -0.54204042006E+02  0.48726137436E+02 -0.35878968262E+03  0.38689773725E+03  0.12509000000E+03 0.  0.
         25    1    3    3    0    0  0.45542166406E+02 -0.28663461730E+02 -0.87932318451E+02  0.16209652583E+03  0.12509000000E+03 0.  0.
<mgrwt>
<rscale>  2 0.45702881E+03</rscale>
<asrwt>0</asrwt>
<pdfrwt beam="1">  1       21 0.93556905E-02 0.45702881E+03</pdfrwt>
<pdfrwt beam="2">  1       21 0.12070729E+00 0.45702881E+03</pdfrwt>
<totfact> 0.43222981E+04</totfact>
</mgrwt>
</event>
<event>
 6    0  0.1539652E-007  0.4452677E+03  0.7546771E-02  0.1029143E+00
         21   -1    0    0  502  501  0.00000000000E+00  0.00000000000E+00  0.18872615751E+03  0.18872615751E+03  0.00000000000E+00 0. -1.
         21   -1    0    0  501  502 -0.00000000000E+00 -0.00000000000E+00 -0.26263355639E+03  0.26263355639E+03  0.00000000000E+00 0. -1.
      99926    2    1    2    0    0 -0.14210854715E-13  0.71054273576E-14 -0.73907398881E+02  0.45135971390E+03  0.44526765851E+03 0.  0.
         25    1    3    3    0    0  0.20163359676E+02  0.29626340581E+02 -0.10981054105E+02  0.13058473410E+03  0.12509000000E+03 0.  0.
         25    1    3    3    0    0 -0.90219983683E+02  0.33090104846E+02 -0.24438140838E+02  0.15962246497E+03  0.12509000000E+03 0.  0.
         25    1    3    3    0    0  0.70056624008E+02 -0.62716445428E+02 -0.38488203938E+02  0.16115251483E+03  0.12509000000E+03 0.  0.
<mgrwt>
<rscale>  2 0.44526766E+03</rscale>
<asrwt>0</asrwt>
<pdfrwt beam="1">  1       21 0.27753847E-01 0.44526766E+03</pdfrwt>
<pdfrwt beam="2">  1       21 0.38622582E-01 0.44526766E+03</pdfrwt>
<totfact> 0.74425408E+04</totfact>
</mgrwt>
</event>
<event>
 6    0  0.1539652E-007  0.4552196E+03  0.7546771E-02  0.1026177E+00
         21   -1    0    0  502  501  0.00000000000E+00  0.00000000000E+00  0.44377189717E+03  0.44377189717E+03  0.00000000000E+00 0. -1.
         21   -1    0    0  501  502 -0.00000000000E+00 -0.00000000000E+00 -0.11674065824E+03  0.11674065824E+03  0.00000000000E+00 0. -1.
      99926    2    1    2    0    0  0.71054273576E-14  0.00000000000E+00  0.32703123893E+03  0.56051255541E+03  0.45521961023E+03 0.  0.
         25    1    3    3    0    0 -0.29663317557E+02 -0.20161700874E+02  0.29323191355E+02  0.13339326910E+03  0.12509000000E+03 0.  0.
         25    1    3    3    0    0 -0.41403672835E+02  0.74518374296E+02  0.16575546192E+03  0.22447635396E+03  0.12509000000E+03 0.  0.
         25    1    3    3    0    0  0.71066990392E+02 -0.54356673422E+02  0.13195258565E+03  0.20264293235E+03  0.12509000000E+03 0.  0.
<mgrwt>
<rscale>  2 0.45521961E+03</rscale>
<asrwt>0</asrwt>
<pdfrwt beam="1">  1       21 0.65260573E-01 0.45521961E+03</pdfrwt>
<pdfrwt beam="2">  1       21 0.17167744E-01 0.45521961E+03</pdfrwt>
<totfact> 0.61070980E+04</totfact>
</mgrwt>
</event>
<event>
 6    0  0.1539652E-007  0.4889928E+03  0.7546771E-02  0.1016693E+00
         21   -1    0    0  502  501  0.00000000000E+00  0.00000000000E+00  0.51006386169E+03  0.51006386169E+03  0.00000000000E+00 0. -1.
         21   -1    0    0  501  502 -0.00000000000E+00 -0.00000000000E+00 -0.11719804665E+03  0.11719804665E+03  0.00000000000E+00 0. -1.
      99926    2    1    2    0    0  0.00000000000E+00  0.00000000000E+00  0.39286581504E+03  0.62726190834E+03  0.48899279445E+03 0.  0.
         25    1    3    3    0    0 -0.10275995557E+03  0.72876204827E+01  0.13779424132E+03  0.21271454798E+03  0.12509000000E+03 0.  0.
         25    1    3    3    0    0  0.12187896594E+03  0.58453742324E+02  0.14558877051E+03  0.23476567153E+03  0.12509000000E+03 0.  0.
         25    1    3    3    0    0 -0.19119010373E+02 -0.65741362807E+02  0.10948280321E+03  0.17978168884E+03  0.12509000000E+03 0.  0.
<mgrwt>
<rscale>  2 0.48899279E+03</rscale>
<asrwt>0</asrwt>
<pdfrwt beam="1">  1       21 0.75009391E-01 0.48899279E+03</pdfrwt>
<pdfrwt beam="2">  1       21 0.17235007E-01 0.48899279E+03</pdfrwt>
<totfact> 0.43981499E+04</totfact>
</mgrwt>
</event>
<event>
 6    0  0.1539652E-007  0.4522560E+03  0.7546771E-02  0.1027051E+00
         21   -1    0    0  502  501  0.00000000000E+00  0.00000000000E+00  0.11847082330E+03  0.11847082330E+03  0.00000000000E+00 0. -1.
         21   -1    0    0  501  502 -0.00000000000E+00 -0.00000000000E+00 -0.43161583225E+03  0.43161583225E+03  0.00000000000E+00 0. -1.
      99926    2    1    2    0    0  0.35527136788E-14  0.00000000000E+00 -0.31314500895E+03  0.55008665555E+03  0.45225604693E+03 0.  0.
         25    1    3    3    0    0 -0.11488778594E+02  0.51788900645E+02 -0.12544593784E+03  0.18492775261E+03  0.12509000000E+03 0.  0.
         25    1    3    3    0    0 -0.17949048651E+02  0.53459827393E+02 -0.40108998699E+02  0.14295580215E+03  0.12509000000E+03 0.  0.
         25    1    3    3    0    0  0.29437827245E+02 -0.10524872804E+03 -0.14759007242E+03  0.22220310079E+03  0.12509000000E+03 0.  0.
<mgrwt>
<rscale>  2 0.45225605E+03</rscale>
<asrwt>0</asrwt>
<pdfrwt beam="1">  1       21 0.17422180E-01 0.45225605E+03</pdfrwt>
<pdfrwt beam="2">  1       21 0.63472918E-01 0.45225605E+03</pdfrwt>
<totfact> 0.63222183E+04</totfact>
</mgrwt>
</event>
<event>
 6    0  0.1539652E-007  0.4568420E+03  0.7546771E-02  0.1025701E+00
         21   -1    0    0  502  501  0.00000000000E+00  0.00000000000E+00  0.68943217334E+03  0.68943217334E+03  0.00000000000E+00 0.  1.
         21   -1    0    0  501  502 -0.00000000000E+00 -0.00000000000E+00 -0.75679896102E+02  0.75679896102E+02  0.00000000000E+00 0.  1.
      99926    2    1    2    0    0  0.71054273576E-14  0.35527136788E-14  0.61375227724E+03  0.76511206944E+03  0.45684200878E+03 0.  0.
         25    1    3    3    0    0  0.31656065201E+02  0.40930147284E+02  0.11143020403E+03  0.17533277472E+03  0.12509000000E+03 0.  0.
         25    1    3    3    0    0  0.63138122514E+02 -0.15796927544E+02  0.16612856365E+03  0.21790404584E+03  0.12509000000E+03 0.  0.
         25    1    3    3    0    0 -0.94794187715E+02 -0.25133219741E+02  0.33619350956E+03  0.37187524888E+03  0.12509000000E+03 0.  0.
<mgrwt>
<rscale>  2 0.45684201E+03</rscale>
<asrwt>0</asrwt>
<pdfrwt beam="1">  1       21 0.10138708E+00 0.45684201E+03</pdfrwt>
<pdfrwt beam="2">  1       21 0.11129397E-01 0.45684201E+03</pdfrwt>
<totfact> 0.48789022E+04</totfact>
</mgrwt>
</event>
<event>
 6    0  0.1539652E-007  0.4535563E+03  0.7546771E-02  0.1026667E+00
         21   -1    0    0  502  501  0.00000000000E+00  0.00000000000E+00  0.37850862105E+03  0.37850862105E+03  0.00000000000E+00 0. -1.
         21   -1    0    0  501  502 -0.00000000000E+00 -0.00000000000E+00 -0.13587094479E+03  0.13587094479E+03  0.00000000000E+00 0. -1.
      99926    2    1    2    0    0  0.00000000000E+00 -0.14210854715E-13  0.24263767625E+03  0.51437956584E+03  0.45355627634E+03 0.  0.
         25    1    3    3    0    0 -0.13094883681E+01  0.67951439775E+02  0.15972741436E+03  0.21396137017E+03  0.12509000000E+03 0.  0.
         25    1    3    3    0    0 -0.56460039412E+01 -0.91265935425E+02  0.76549127701E+02  0.17282541879E+03  0.12509000000E+03 0.  0.
         25    1    3    3    0    0  0.69554923093E+01  0.23314495650E+02  0.63611341901E+01  0.12759277687E+03  0.12509000000E+03 0.  0.
<mgrwt>
<rscale>  2 0.45355628E+03</rscale>
<asrwt>0</asrwt>
<pdfrwt beam="1">  1       21 0.55663032E-01 0.45355628E+03</pdfrwt>
<pdfrwt beam="2">  1       21 0.19981021E-01 0.45355628E+03</pdfrwt>
<totfact> 0.65013416E+04</totfact>
</mgrwt>
</event>
<event>
 6    0  0.1539652E-007  0.4551863E+03  0.7546771E-02  0.1026187E+00
         21   -1    0    0  502  501  0.00000000000E+00  0.00000000000E+00  0.17797906300E+03  0.17797906300E+03  0.00000000000E+00 0. -1.
         21   -1    0    0  501  502 -0.00000000000E+00 -0.00000000000E+00 -0.29103789348E+03  0.29103789348E+03  0.00000000000E+00 0. -1.
      99926    2    1    2    0    0  0.00000000000E+00  0.00000000000E+00 -0.11305883048E+03  0.46901695648E+03  0.45518634241E+03 0.  0.
         25    1    3    3    0    0  0.57947175388E+02  0.77938571368E+02 -0.27651156140E+02  0.16076190649E+03  0.12509000000E+03 0.  0.
         25    1    3    3    0    0  0.16561996256E+02 -0.25337549115E+02  0.53347908737E+01  0.12881094367E+03  0.12509000000E+03 0.  0.
         25    1    3    3    0    0 -0.74509171644E+02 -0.52601022253E+02 -0.90742465209E+02  0.17944410632E+03  0.12509000000E+03 0.  0.
<mgrwt>
<rscale>  2 0.45518634E+03</rscale>
<asrwt>0</asrwt>
<pdfrwt beam="1">  1       21 0.26173392E-01 0.45518634E+03</pdfrwt>
<pdfrwt beam="2">  1       21 0.42799690E-01 0.45518634E+03</pdfrwt>
<totfact> 0.67409247E+04</totfact>
</mgrwt>
</event>
<event>
 6    0  0.1539652E-007  0.4523341E+03  0.7546771E-02  0.1027028E+00
         21   -1    0    0  502  501  0.00000000000E+00  0.00000000000E+00  0.80482975881E+02  0.80482975881E+02  0.00000000000E+00 0. -1.
         21   -1    0    0  501  502 -0.00000000000E+00 -0.00000000000E+00 -0.63555722772E+03  0.63555722772E+03  0.00000000000E+00 0. -1.
      99926    2    1    2    0    0  0.00000000000E+00 -0.13322676296E-14 -0.55507425184E+03  0.71604020360E+03  0.45233411116E+03 0.  0.
         25    1    3    3    0    0  0.38565043845E+02  0.22409568237E+01 -0.13013250347E+03  0.18459214787E+03  0.12509000000E+03 0.  0.
         25    1    3    3    0    0 -0.44826500442E+02  0.87689127378E+02 -0.26601577815E+03  0.31001725844E+03  0.12509000000E+03 0.  0.
         25    1    3    3    0    0  0.62614565969E+01 -0.89930084202E+02 -0.15892597021E+03  0.22143079730E+03  0.12509000000E+03 0.  0.
<mgrwt>
<rscale>  2 0.45233411E+03</rscale>
<asrwt>0</asrwt>
<pdfrwt beam="1">  1       21 0.11835731E-01 0.45233411E+03</pdfrwt>
<pdfrwt beam="2">  1       21 0.93464301E-01 0.45233411E+03</pdfrwt>
<totfact> 0.53146535E+04</totfact>
</mgrwt>
</event>
<event>
 6    0  0.1539652E-007  0.4573660E+03  0.7546771E-02  0.1025548E+00
         21   -1    0    0  502  501  0.00000000000E+00  0.00000000000E+00  0.40454118786E+03  0.40454118786E+03  0.00000000000E+00 0.  1.
         21   -1    0    0  501  502 -0.00000000000E+00 -0.00000000000E+00 -0.12927217372E+03  0.12927217372E+03  0.00000000000E+00 0.  1.
      99926    2    1    2    0    0  0.00000000000E+00  0.00000000000E+00  0.27526901415E+03  0.53381336158E+03  0.45736601848E+03 0.  0.
         25    1    3    3    0    0 -0.14158471721E+02 -0.80887685132E+02  0.80543127690E+02  0.16993523309E+03  0.12509000000E+03 0.  0.
         25    1    3    3    0    0  0.75898111528E+02  0.44710187371E+02  0.14673411637E+03  0.21198569101E+03  0.12509000000E+03 0.  0.
         25    1    3    3    0    0 -0.61739639807E+02  0.36177497761E+02  0.47991770091E+02  0.15189243748E+03  0.12509000000E+03 0.  0.
<mgrwt>
<rscale>  2 0.45736602E+03</rscale>
<asrwt>0</asrwt>
<pdfrwt beam="1">  1       21 0.59491351E-01 0.45736602E+03</pdfrwt>
<pdfrwt beam="2">  1       21 0.19010614E-01 0.45736602E+03</pdfrwt>
<totfact> 0.61782405E+04</totfact>
</mgrwt>
</event>
<event>
 6    0  0.1539652E-007  0.4549777E+03  0.7546771E-02  0.1026248E+00
         21   -1    0    0  502  501  0.00000000000E+00  0.00000000000E+00  0.63177976845E+03  0.63177976845E+03  0.00000000000E+00 0. -1.
         21   -1    0    0  501  502 -0.00000000000E+00 -0.00000000000E+00 -0.81913327406E+02  0.81913327406E+02  0.00000000000E+00 0. -1.
      99926    2    1    2    0    0  0.44408920985E-15 -0.14210854715E-13  0.54986644104E+03  0.71369309585E+03  0.45497772702E+03 0.  0.
         25    1    3    3    0    0 -0.11897662014E+02  0.46090984259E+02  0.15410866199E+03  0.20411497004E+03  0.12509000000E+03 0.  0.
         25    1    3    3    0    0  0.33998871059E+01 -0.11013129721E+03  0.28611348475E+03  0.33113274697E+03  0.12509000000E+03 0.  0.
         25    1    3    3    0    0  0.84977749082E+01  0.64040312949E+02  0.10964429430E+03  0.17844537885E+03  0.12509000000E+03 0.  0.
<mgrwt>
<rscale>  2 0.45497773E+03</rscale>
<asrwt>0</asrwt>
<pdfrwt beam="1">  1       21 0.92908787E-01 0.45497773E+03</pdfrwt>
<pdfrwt beam="2">  1       21 0.12046078E-01 0.45497773E+03</pdfrwt>
<totfact> 0.52174974E+04</totfact>
</mgrwt>
</event>
<event>
 6    0  0.1539652E-007  0.4518014E+03  0.7546771E-02  0.1027186E+00
         21   -1    0    0  502  501  0.00000000000E+00  0.00000000000E+00  0.36498347024E+02  0.36498347024E+02  0.00000000000E+00 0.  1.
         21   -1    0    0  501  502 -0.00000000000E+00 -0.00000000000E+00 -0.13981765708E+04  0.13981765708E+04  0.00000000000E+00 0.  1.
      99926    2    1    2    0    0  0.71054273576E-14  0.13322676296E-14 -0.13616782238E+04  0.14346749178E+04  0.45180143286E+03 0.  0.
         25    1    3    3    0    0  0.18633428528E+02  0.63670093192E+02 -0.55112483880E+03  0.56902300610E+03  0.12509000000E+03 0.  0.
         25    1    3    3    0    0 -0.71536042054E+02 -0.60619715496E+02 -0.31277016578E+03  0.34966389565E+03  0.12509000000E+03 0.  0.
         25    1    3    3    0    0  0.52902613527E+02 -0.30503776964E+01 -0.49778321921E+03  0.51598801609E+03  0.12509000000E+03 0.  0.
<mgrwt>
<rscale>  2 0.45180143E+03</rscale>
<asrwt>0</asrwt>
<pdfrwt beam="1">  1       21 0.53674048E-02 0.45180143E+03</pdfrwt>
<pdfrwt beam="2">  1       21 0.20561417E+00 0.45180143E+03</pdfrwt>
<totfact> 0.26064261E+04</totfact>
</mgrwt>
</event>
<event>
 6    0  0.1539652E-007  0.4468545E+03  0.7546771E-02  0.1028664E+00
         21   -1    0    0  502  501  0.00000000000E+00  0.00000000000E+00  0.53691576576E+03  0.53691576576E+03  0.00000000000E+00 0.  1.
         21   -1    0    0  501  502 -0.00000000000E+00 -0.00000000000E+00 -0.92975006857E+02  0.92975006857E+02  0.00000000000E+00 0.  1.
      99926    2    1    2    0    0 -0.17763568394E-14  0.00000000000E+00  0.44394075890E+03  0.62989077262E+03  0.44685454906E+03 0.  0.
         25    1    3    3    0    0 -0.72523298346E+02  0.41245398126E+01  0.16834870855E+03  0.22195818616E+03  0.12509000000E+03 0.  0.
         25    1    3    3    0    0 -0.12683863254E+02  0.81092549955E+01  0.20466621176E+03  0.24033810921E+03  0.12509000000E+03 0.  0.
         25    1    3    3    0    0  0.85207161600E+02 -0.12233794808E+02  0.70925838589E+02  0.16759447724E+03  0.12509000000E+03 0.  0.
<mgrwt>
<rscale>  2 0.44685455E+03</rscale>
<asrwt>0</asrwt>
<pdfrwt beam="1">  1       21 0.78958200E-01 0.44685455E+03</pdfrwt>
<pdfrwt beam="2">  1       21 0.13672795E-01 0.44685455E+03</pdfrwt>
<totfact> 0.60683800E+04</totfact>
</mgrwt>
</event>
<event>
 6    0  0.1539652E-007  0.4317236E+03  0.7546771E-02  0.1033317E+00
         21   -1    0    0  502  501  0.00000000000E+00  0.00000000000E+00  0.20979139150E+02  0.20979139150E+02  0.00000000000E+00 0.  1.
         21   -1    0    0  501  502 -0.00000000000E+00 -0.00000000000E+00 -0.22210787428E+04  0.22210787428E+04  0.00000000000E+00 0.  1.
      99926    2    1    2    0    0  0.00000000000E+00  0.00000000000E+00 -0.22000996036E+04  0.22420578819E+04  0.43172361532E+03 0.  0.
         25    1    3    3    0    0  0.36960207975E+02 -0.22666984292E+01 -0.52607323071E+03  0.54200714669E+03  0.12509000000E+03 0.  0.
         25    1    3    3    0    0  0.12891450908E+02  0.38943269716E+02 -0.11589049478E+04  0.11663579871E+04  0.12509000000E+03 0.  0.
         25    1    3    3    0    0 -0.49851658884E+02 -0.36676571287E+02 -0.51512142507E+03  0.53369274816E+03  0.12509000000E+03 0.  0.
<mgrwt>
<rscale>  2 0.43172362E+03</rscale>
<asrwt>0</asrwt>
<pdfrwt beam="1">  1       21 0.30851693E-02 0.43172362E+03</pdfrwt>
<pdfrwt beam="2">  1       21 0.32662904E+00 0.43172362E+03</pdfrwt>
<totfact> 0.12207753E+04</totfact>
</mgrwt>
</event>
<event>
 6    0  0.1539652E-007  0.4508299E+03  0.7546771E-02  0.1027475E+00
         21   -1    0    0  502  501  0.00000000000E+00  0.00000000000E+00  0.59807754143E+03  0.59807754143E+03  0.00000000000E+00 0. -1.
         21   -1    0    0  501  502 -0.00000000000E+00 -0.00000000000E+00 -0.84958715347E+02  0.84958715347E+02  0.00000000000E+00 0. -1.
      99926    2    1    2    0    0  0.44408920985E-15 -0.71054273576E-14  0.51311882608E+03  0.68303625677E+03  0.45082989962E+03 0.  0.
         25    1    3    3    0    0 -0.22824230554E+01  0.57115712692E+02  0.70538451067E+02  0.15456582828E+03  0.12509000000E+03 0.  0.
         25    1    3    3    0    0  0.44780319779E+01  0.33683101740E+02  0.24920395639E+03  0.28089984709E+03  0.12509000000E+03 0.  0.
         25    1    3    3    0    0 -0.21956089224E+01 -0.90798814433E+02  0.19337641862E+03  0.24757058141E+03  0.12509000000E+03 0.  0.
<mgrwt>
<rscale>  2 0.45082990E+03</rscale>
<asrwt>0</asrwt>
<pdfrwt beam="1">  1       21 0.87952577E-01 0.45082990E+03</pdfrwt>
<pdfrwt beam="2">  1       21 0.12493929E-01 0.45082990E+03</pdfrwt>
<totfact> 0.55638376E+04</totfact>
</mgrwt>
</event>
<event>
 6    0  0.1539652E-007  0.4484439E+03  0.7546771E-02  0.1028187E+00
         21   -1    0    0  502  501  0.00000000000E+00  0.00000000000E+00  0.23853581011E+04  0.23853581011E+04  0.00000000000E+00 0. -1.
         21   -1    0    0  501  502 -0.00000000000E+00 -0.00000000000E+00 -0.21076699782E+02  0.21076699782E+02  0.00000000000E+00 0. -1.
      99926    2    1    2    0    0  0.17763568394E-14  0.00000000000E+00  0.23642814013E+04  0.24064348009E+04  0.44844387194E+03 0.  0.
         25    1    3    3    0    0  0.11284561862E+02 -0.97160239544E+02  0.90033523318E+03  0.91423109425E+03  0.12509000000E+03 0.  0.
         25    1    3    3    0    0 -0.35172698978E+02  0.30959512359E+02  0.49592510628E+03  0.51359987276E+03  0.12509000000E+03 0.  0.
         25    1    3    3    0    0  0.23888137116E+02  0.66200727184E+02  0.96802106184E+03  0.97860383385E+03  0.12509000000E+03 0.  0.
<mgrwt>
<rscale>  2 0.44844387E+03</rscale>
<asrwt>0</asrwt>
<pdfrwt beam="1">  1       21 0.35078777E+00 0.44844387E+03</pdfrwt>
<pdfrwt beam="2">  1       21 0.30995163E-02 0.44844387E+03</pdfrwt>
<totfact> 0.85652475E+03</totfact>
</mgrwt>
</event>
<event>
 6    0  0.1539652E-007  0.4831602E+03  0.7546771E-02  0.1018270E+00
         21   -1    0    0  502  501  0.00000000000E+00  0.00000000000E+00  0.32173695440E+02  0.32173695440E+02  0.00000000000E+00 0. -1.
         21   -1    0    0  501  502 -0.00000000000E+00 -0.00000000000E+00 -0.18139335254E+04  0.18139335254E+04  0.00000000000E+00 0. -1.
      99926    2    1    2    0    0  0.71054273576E-14  0.35527136788E-14 -0.17817598300E+04  0.18461072209E+04  0.48316020033E+03 0.  0.
         25    1    3    3    0    0  0.44342939780E+02 -0.21011036183E+02 -0.29734257469E+03  0.32629415375E+03  0.12509000000E+03 0.  0.
         25    1    3    3    0    0 -0.42909868718E+02 -0.84579357758E+02 -0.58932723367E+03  0.60987623419E+03  0.12509000000E+03 0.  0.
         25    1    3    3    0    0 -0.14330710619E+01  0.10559039394E+03 -0.89509002162E+03  0.90993683291E+03  0.12509000000E+03 0.  0.
<mgrwt>
<rscale>  2 0.48316020E+03</rscale>
<asrwt>0</asrwt>
<pdfrwt beam="1">  1       21 0.47314255E-02 0.48316020E+03</pdfrwt>
<pdfrwt beam="2">  1       21 0.26675495E+00 0.48316020E+03</pdfrwt>
<totfact> 0.13248001E+04</totfact>
</mgrwt>
</event>
<event>
 6    0  0.1539652E-007  0.4301852E+03  0.7546771E-02  0.1033801E+00
         21   -1    0    0  502  501  0.00000000000E+00  0.00000000000E+00  0.64570365247E+02  0.64570365247E+02  0.00000000000E+00 0. -1.
         21   -1    0    0  501  502 -0.00000000000E+00 -0.00000000000E+00 -0.71650254264E+03  0.71650254264E+03  0.00000000000E+00 0. -1.
      99926    2    1    2    0    0 -0.71054273576E-14  0.00000000000E+00 -0.65193217739E+03  0.78107290789E+03  0.43018522001E+03 0.  0.
         25    1    3    3    0    0 -0.37728390736E+02 -0.45347907315E+02 -0.18446764733E+03  0.23055516732E+03  0.12509000000E+03 0.  0.
         25    1    3    3    0    0  0.65430398745E+02  0.56077805331E+02 -0.17943906440E+03  0.23509943271E+03  0.12509000000E+03 0.  0.
         25    1    3    3    0    0 -0.27702008008E+02 -0.10729898016E+02 -0.28802546566E+03  0.31541830785E+03  0.12509000000E+03 0.  0.
<mgrwt>
<rscale>  2 0.43018522E+03</rscale>
<asrwt>0</asrwt>
<pdfrwt beam="1">  1       21 0.94956414E-02 0.43018522E+03</pdfrwt>
<pdfrwt beam="2">  1       21 0.10536803E+00 0.43018522E+03</pdfrwt>
<totfact> 0.59456466E+04</totfact>
</mgrwt>
</event>
<event>
 6    0  0.1539652E-007  0.4553159E+03  0.7546771E-02  0.1026149E+00
         21   -1    0    0  502  501  0.00000000000E+00  0.00000000000E+00  0.50238428674E+03  0.50238428674E+03  0.00000000000E+00 0. -1.
         21   -1    0    0  501  502 -0.00000000000E+00 -0.00000000000E+00 -0.10316435997E+03  0.10316435997E+03  0.00000000000E+00 0. -1.
      99926    2    1    2    0    0  0.00000000000E+00 -0.71054273576E-14  0.39921992677E+03  0.60554864671E+03  0.45531594920E+03 0.  0.
         25    1    3    3    0    0  0.12860568442E+01 -0.37928437779E+02  0.15961980698E+03  0.20631580457E+03  0.12509000000E+03 0.  0.
         25    1    3    3    0    0 -0.51628092713E+02 -0.59649160625E+02  0.77788945477E+02  0.16709910370E+03  0.12509000000E+03 0.  0.
         25    1    3    3    0    0  0.50342035869E+02  0.97577598404E+02  0.16181117432E+03  0.23213373844E+03  0.12509000000E+03 0.  0.
<mgrwt>
<rscale>  2 0.45531595E+03</rscale>
<asrwt>0</asrwt>
<pdfrwt beam="1">  1       21 0.73880041E-01 0.45531595E+03</pdfrwt>
<pdfrwt beam="2">  1       21 0.15171230E-01 0.45531595E+03</pdfrwt>
<totfact> 0.58192644E+04</totfact>
</mgrwt>
</event>
<event>
 6    0  0.1539652E-007  0.4534908E+03  0.7546771E-02  0.1026686E+00
         21   -1    0    0  502  501  0.00000000000E+00  0.00000000000E+00  0.65740167325E+03  0.65740167325E+03  0.00000000000E+00 0. -1.
         21   -1    0    0  501  502 -0.00000000000E+00 -0.00000000000E+00 -0.78207087705E+02  0.78207087705E+02  0.00000000000E+00 0. -1.
      99926    2    1    2    0    0 -0.14210854715E-13  0.17763568394E-14  0.57919458554E+03  0.73560876095E+03  0.45349077308E+03 0.  0.
         25    1    3    3    0    0  0.96142452144E+02 -0.38469294514E+02  0.20898914924E+03  0.26466437298E+03  0.12509000000E+03 0.  0.
         25    1    3    3    0    0 -0.88089762735E+02 -0.15093797000E+02  0.21603873248E+03  0.26515631435E+03  0.12509000000E+03 0.  0.
         25    1    3    3    0    0 -0.80526894088E+01  0.53563091513E+02  0.15416670382E+03  0.20578807362E+03  0.12509000000E+03 0.  0.
<mgrwt>
<rscale>  2 0.45349077E+03</rscale>
<asrwt>0</asrwt>
<pdfrwt beam="1">  1       21 0.96676714E-01 0.45349077E+03</pdfrwt>
<pdfrwt beam="2">  1       21 0.11501043E-01 0.45349077E+03</pdfrwt>
<totfact> 0.51621753E+04</totfact>
</mgrwt>
</event>
<event>
 6    0  0.1539652E-007  0.4911659E+03  0.7546771E-02  0.1016111E+00
         21   -1    0    0  502  501  0.00000000000E+00  0.00000000000E+00  0.62589245890E+03  0.62589245890E+03  0.00000000000E+00 0. -1.
         21   -1    0    0  501  502 -0.00000000000E+00 -0.00000000000E+00 -0.96359999377E+02  0.96359999377E+02  0.00000000000E+00 0. -1.
      99926    2    1    2    0    0  0.71054273576E-14  0.00000000000E+00  0.52953245952E+03  0.72225245828E+03  0.49116594731E+03 0.  0.
         25    1    3    3    0    0  0.81402666758E+02  0.28395089986E+02  0.22788197224E+03  0.27388022320E+03  0.12509000000E+03 0.  0.
         25    1    3    3    0    0 -0.34794563931E+02  0.67826095074E+02  0.22093743777E+03  0.26508847648E+03  0.12509000000E+03 0.  0.
         25    1    3    3    0    0 -0.46608102828E+02 -0.96221185059E+02  0.80713049515E+02  0.18328375860E+03  0.12509000000E+03 0.  0.
<mgrwt>
<rscale>  2 0.49116595E+03</rscale>
<asrwt>0</asrwt>
<pdfrwt beam="1">  1       21 0.92043007E-01 0.49116595E+03</pdfrwt>
<pdfrwt beam="2">  1       21 0.14170588E-01 0.49116595E+03</pdfrwt>
<totfact> 0.39279294E+04</totfact>
</mgrwt>
</event>
<event>
 6    0  0.1539652E-007  0.4546878E+03  0.7546771E-02  0.1026333E+00
         21   -1    0    0  502  501  0.00000000000E+00  0.00000000000E+00  0.12530457110E+03  0.12530457110E+03  0.00000000000E+00 0.  1.
         21   -1    0    0  501  502 -0.00000000000E+00 -0.00000000000E+00 -0.41247692773E+03  0.41247692773E+03  0.00000000000E+00 0.  1.
      99926    2    1    2    0    0  0.00000000000E+00  0.00000000000E+00 -0.28717235662E+03  0.53778149883E+03  0.45468778087E+03 0.  0.
         25    1    3    3    0    0  0.11470262722E+02  0.26801171139E+00 -0.75895466973E+02  0.14676262727E+03  0.12509000000E+03 0.  0.
         25    1    3    3    0    0  0.13038445962E+02  0.99086224657E+02 -0.64213718656E+02  0.17250794403E+03  0.12509000000E+03 0.  0.
         25    1    3    3    0    0 -0.24508708684E+02 -0.99354236369E+02 -0.14706317100E+03  0.21851092753E+03  0.12509000000E+03 0.  0.
<mgrwt>
<rscale>  2 0.45468778E+03</rscale>
<asrwt>0</asrwt>
<pdfrwt beam="1">  1       21 0.18427143E-01 0.45468778E+03</pdfrwt>
<pdfrwt beam="2">  1       21 0.60658372E-01 0.45468778E+03</pdfrwt>
<totfact> 0.62836339E+04</totfact>
</mgrwt>
</event>
<event>
 6    0  0.1539652E-007  0.4554827E+03  0.7546771E-02  0.1026100E+00
         21   -1    0    0  502  501  0.00000000000E+00  0.00000000000E+00  0.44956397204E+03  0.44956397204E+03  0.00000000000E+00 0.  1.
         21   -1    0    0  501  502 -0.00000000000E+00 -0.00000000000E+00 -0.11536985491E+03  0.11536985491E+03  0.00000000000E+00 0.  1.
      99926    2    1    2    0    0  0.71054273576E-14  0.35527136788E-14  0.33419411712E+03  0.56493382695E+03  0.45548273393E+03 0.  0.
         25    1    3    3    0    0 -0.40644953815E+02  0.22263981914E+02  0.16379617292E+03  0.21124486153E+03  0.12509000000E+03 0.  0.
         25    1    3    3    0    0 -0.49139845758E+02 -0.59727044933E+02  0.52445206799E+02  0.15614112896E+03  0.12509000000E+03 0.  0.
         25    1    3    3    0    0  0.89784799573E+02  0.37463063020E+02  0.11795273741E+03  0.19754783645E+03  0.12509000000E+03 0.  0.
<mgrwt>
<rscale>  2 0.45548273E+03</rscale>
<asrwt>0</asrwt>
<pdfrwt beam="1">  1       21 0.66112348E-01 0.45548273E+03</pdfrwt>
<pdfrwt beam="2">  1       21 0.16966155E-01 0.45548273E+03</pdfrwt>
<totfact> 0.60658408E+04</totfact>
</mgrwt>
</event>
<event>
 6    0  0.1539652E-007  0.4549831E+03  0.7546771E-02  0.1026246E+00
         21   -1    0    0  502  501  0.00000000000E+00  0.00000000000E+00  0.15620462215E+03  0.15620462215E+03  0.00000000000E+00 0.  1.
         21   -1    0    0  501  502 -0.00000000000E+00 -0.00000000000E+00 -0.33131162317E+03  0.33131162317E+03  0.00000000000E+00 0.  1.
      99926    2    1    2    0    0  0.17763568394E-14  0.00000000000E+00 -0.17510700101E+03  0.48751624532E+03  0.45498310699E+03 0.  0.
         25    1    3    3    0    0 -0.99476440333E+01  0.75656890367E+02 -0.33858278413E+02  0.15038886860E+03  0.12509000000E+03 0.  0.
         25    1    3    3    0    0  0.14951824050E+02  0.18578663810E+02 -0.12690156359E+03  0.17977830440E+03  0.12509000000E+03 0.  0.
         25    1    3    3    0    0 -0.50041800170E+01 -0.94235554177E+02 -0.14347159009E+02  0.15734907232E+03  0.12509000000E+03 0.  0.
<mgrwt>
<rscale>  2 0.45498311E+03</rscale>
<asrwt>0</asrwt>
<pdfrwt beam="1">  1       21 0.22971268E-01 0.45498311E+03</pdfrwt>
<pdfrwt beam="2">  1       21 0.48722297E-01 0.45498311E+03</pdfrwt>
<totfact> 0.66165784E+04</totfact>
</mgrwt>
</event>
<event>
 6    0  0.1539652E-007  0.4543526E+03  0.7546771E-02  0.1026432E+00
         21   -1    0    0  502  501  0.00000000000E+00  0.00000000000E+00  0.77765007766E+02  0.77765007766E+02  0.00000000000E+00 0.  1.
         21   -1    0    0  501  502 -0.00000000000E+00 -0.00000000000E+00 -0.66365425976E+03  0.66365425976E+03  0.00000000000E+00 0.  1.
      99926    2    1    2    0    0  0.26645352591E-14  0.00000000000E+00 -0.58588925199E+03  0.74141926752E+03  0.45435263250E+03 0.  0.
         25    1    3    3    0    0 -0.62747642336E+01  0.62632422872E+02 -0.21288960242E+03  0.25481696172E+03  0.12509000000E+03 0.  0.
         25    1    3    3    0    0  0.87055874429E+02 -0.29054621071E+02 -0.23002182902E+03  0.27745350278E+03  0.12509000000E+03 0.  0.
         25    1    3    3    0    0 -0.80781110196E+02 -0.33577801801E+02 -0.14297782056E+03  0.20914880303E+03  0.12509000000E+03 0.  0.
<mgrwt>
<rscale>  2 0.45435263E+03</rscale>
<asrwt>0</asrwt>
<pdfrwt beam="1">  1       21 0.11436030E-01 0.45435263E+03</pdfrwt>
<pdfrwt beam="2">  1       21 0.97596219E-01 0.45435263E+03</pdfrwt>
<totfact> 0.50970074E+04</totfact>
</mgrwt>
</event>
<event>
 6    0  0.1539652E-007  0.4625294E+03  0.7546771E-02  0.1024050E+00
         21   -1    0    0  502  501  0.00000000000E+00  0.00000000000E+00  0.75048369825E+03  0.75048369825E+03  0.00000000000E+00 0.  1.
         21   -1    0    0  501  502 -0.00000000000E+00 -0.00000000000E+00 -0.71265179147E+02  0.71265179147E+02  0.00000000000E+00 0.  1.
      99926    2    1    2    0    0  0.00000000000E+00  0.00000000000E+00  0.67921851911E+03  0.82174887740E+03  0.46252937292E+03 0.  0.
         25    1    3    3    0    0 -0.78982648366E+02 -0.26161169984E+02  0.10746652856E+03  0.18471390965E+03  0.12509000000E+03 0.  0.
         25    1    3    3    0    0 -0.58206381366E+01 -0.83460166405E+01  0.27270068094E+03  0.30019444583E+03  0.12509000000E+03 0.  0.
         25    1    3    3    0    0  0.84803286502E+02  0.34507186624E+02  0.29905130961E+03  0.33684052192E+03  0.12509000000E+03 0.  0.
<mgrwt>
<rscale>  2 0.46252937E+03</rscale>
<asrwt>0</asrwt>
<pdfrwt beam="1">  1       21 0.11036525E+00 0.46252937E+03</pdfrwt>
<pdfrwt beam="2">  1       21 0.10480174E-01 0.46252937E+03</pdfrwt>
<totfact> 0.44068924E+04</totfact>
</mgrwt>
</event>
<event>
 6    0  0.1539652E-007  0.4608422E+03  0.7546771E-02  0.1024537E+00
         21   -1    0    0  502  501  0.00000000000E+00  0.00000000000E+00  0.16798407794E+02  0.16798407794E+02  0.00000000000E+00 0.  1.
         21   -1    0    0  501  502 -0.00000000000E+00 -0.00000000000E+00 -0.31606499258E+04  0.31606499258E+04  0.00000000000E+00 0.  1.
      99926    2    1    2    0    0  0.00000000000E+00  0.00000000000E+00 -0.31438515180E+04  0.31774483336E+04  0.46084221312E+03 0.  0.
         25    1    3    3    0    0 -0.16563585362E+02  0.70527738847E+01 -0.14692164524E+04  0.14746418501E+04  0.12509000000E+03 0.  0.
         25    1    3    3    0    0  0.72488541539E+01  0.85225092179E+02 -0.75096494842E+03  0.76610164083E+03  0.12509000000E+03 0.  0.
         25    1    3    3    0    0  0.93147312084E+01 -0.92277866064E+02 -0.92367011721E+03  0.93670484268E+03  0.12509000000E+03 0.  0.
<mgrwt>
<rscale>  2 0.46084221E+03</rscale>
<asrwt>0</asrwt>
<pdfrwt beam="1">  1       21 0.24703509E-02 0.46084221E+03</pdfrwt>
<pdfrwt beam="2">  1       21 0.46480206E+00 0.46084221E+03</pdfrwt>
<totfact> 0.22701084E+03</totfact>
</mgrwt>
</event>
<event>
 6    0  0.1539652E-007  0.4448687E+03  0.7546771E-02  0.1029263E+00
         21   -1    0    0  502  501  0.00000000000E+00  0.00000000000E+00  0.45168842815E+03  0.45168842815E+03  0.00000000000E+00 0.  1.
         21   -1    0    0  501  502 -0.00000000000E+00 -0.00000000000E+00 -0.10953796449E+03  0.10953796449E+03  0.00000000000E+00 0.  1.
      99926    2    1    2    0    0 -0.35527136788E-14  0.71054273576E-14  0.34215046366E+03  0.56122639265E+03  0.44486865929E+03 0.  0.
         25    1    3    3    0    0 -0.25080441863E+02 -0.22383733275E+01  0.12705423447E+03  0.18006755809E+03  0.12509000000E+03 0.  0.
         25    1    3    3    0    0  0.17256200729E+02  0.74125232850E+02  0.18080388300E+03  0.23265828766E+03  0.12509000000E+03 0.  0.
         25    1    3    3    0    0  0.78242411342E+01 -0.71886859523E+02  0.34292346190E+02  0.14850054690E+03  0.12509000000E+03 0.  0.
<mgrwt>
<rscale>  2 0.44486866E+03</rscale>
<asrwt>0</asrwt>
<pdfrwt beam="1">  1       21 0.66424768E-01 0.44486866E+03</pdfrwt>
<pdfrwt beam="2">  1       21 0.16108524E-01 0.44486866E+03</pdfrwt>
<totfact> 0.66284789E+04</totfact>
</mgrwt>
</event>
<event>
 6    0  0.1539652E-007  0.4558528E+03  0.7546771E-02  0.1025991E+00
         21   -1    0    0  502  501  0.00000000000E+00  0.00000000000E+00  0.48271741467E+03  0.48271741467E+03  0.00000000000E+00 0. -1.
         21   -1    0    0  501  502 -0.00000000000E+00 -0.00000000000E+00 -0.10762079947E+03  0.10762079947E+03  0.00000000000E+00 0. -1.
      99926    2    1    2    0    0 -0.88817841970E-14 -0.14210854715E-13  0.37509661520E+03  0.59033821413E+03  0.45585275729E+03 0.  0.
         25    1    3    3    0    0 -0.67714770453E+02 -0.84333239875E+02  0.16701936125E+03  0.23503267990E+03  0.12509000000E+03 0.  0.
         25    1    3    3    0    0  0.57213337639E+02  0.23186993584E+01  0.89297640319E+02  0.16401316727E+03  0.12509000000E+03 0.  0.
         25    1    3    3    0    0  0.10501432814E+02  0.82014540516E+02  0.11877961363E+03  0.19129236697E+03  0.12509000000E+03 0.  0.
<mgrwt>
<rscale>  2 0.45585276E+03</rscale>
<asrwt>0</asrwt>
<pdfrwt beam="1">  1       21 0.70987854E-01 0.45585276E+03</pdfrwt>
<pdfrwt beam="2">  1       21 0.15826588E-01 0.45585276E+03</pdfrwt>
<totfact> 0.58879115E+04</totfact>
</mgrwt>
</event>
<event>
 6    0  0.1539652E-007  0.4561641E+03  0.7546771E-02  0.1025900E+00
         21   -1    0    0  502  501  0.00000000000E+00  0.00000000000E+00  0.22310031604E+03  0.22310031604E+03  0.00000000000E+00 0.  1.
         21   -1    0    0  501  502 -0.00000000000E+00 -0.00000000000E+00 -0.23317498802E+03  0.23317498802E+03  0.00000000000E+00 0.  1.
      99926    2    1    2    0    0 -0.35527136788E-14  0.00000000000E+00 -0.10074671984E+02  0.45627530407E+03  0.45616406488E+03 0.  0.
         25    1    3    3    0    0  0.18379505238E+02 -0.17640449330E+02 -0.60952816033E+02  0.14146287692E+03  0.12509000000E+03 0.  0.
         25    1    3    3    0    0  0.11874884879E+02  0.66834882720E+02  0.93860199543E+02  0.17048507148E+03  0.12509000000E+03 0.  0.
         25    1    3    3    0    0 -0.30254390117E+02 -0.49194433389E+02 -0.42982055495E+02  0.14432735566E+03  0.12509000000E+03 0.  0.
<mgrwt>
<rscale>  2 0.45616406E+03</rscale>
<asrwt>0</asrwt>
<pdfrwt beam="1">  1       21 0.32808870E-01 0.45616406E+03</pdfrwt>
<pdfrwt beam="2">  1       21 0.34290439E-01 0.45616406E+03</pdfrwt>
<totfact> 0.67820362E+04</totfact>
</mgrwt>
</event>
<event>
 6    0  0.1539652E-007  0.4557436E+03  0.7546771E-02  0.1026023E+00
         21   -1    0    0  502  501  0.00000000000E+00  0.00000000000E+00  0.55035887123E+03  0.55035887123E+03  0.00000000000E+00 0. -1.
         21   -1    0    0  501  502 -0.00000000000E+00 -0.00000000000E+00 -0.94348553808E+02  0.94348553808E+02  0.00000000000E+00 0. -1.
      99926    2    1    2    0    0  0.35527136788E-14  0.00000000000E+00  0.45601031742E+03  0.64470742504E+03  0.45574362783E+03 0.  0.
         25    1    3    3    0    0  0.15974163255E+02 -0.57492021296E+02  0.13616884337E+03  0.19429351098E+03  0.12509000000E+03 0.  0.
         25    1    3    3    0    0 -0.80941138629E+02  0.18943180003E+02  0.24206502134E+03  0.28487417336E+03  0.12509000000E+03 0.  0.
         25    1    3    3    0    0  0.64966975374E+02  0.38548841293E+02  0.77776452718E+02  0.16553974070E+03  0.12509000000E+03 0.  0.
<mgrwt>
<rscale>  2 0.45574363E+03</rscale>
<asrwt>0</asrwt>
<pdfrwt beam="1">  1       21 0.80935127E-01 0.45574363E+03</pdfrwt>
<pdfrwt beam="2">  1       21 0.13874788E-01 0.45574363E+03</pdfrwt>
<totfact> 0.55680005E+04</totfact>
</mgrwt>
</event>
<event>
 6    0  0.1539652E-007  0.4556140E+03  0.7546771E-02  0.1026061E+00
         21   -1    0    0  502  501  0.00000000000E+00  0.00000000000E+00  0.50466943078E+03  0.50466943078E+03  0.00000000000E+00 0.  1.
         21   -1    0    0  501  502 -0.00000000000E+00 -0.00000000000E+00 -0.10283171702E+03  0.10283171702E+03  0.00000000000E+00 0.  1.
      99926    2    1    2    0    0  0.00000000000E+00  0.00000000000E+00  0.40183771376E+03  0.60750114779E+03  0.45561397737E+03 0.  0.
         25    1    3    3    0    0 -0.46957295037E+01  0.15953318833E+02  0.11388466768E+03  0.16998171634E+03  0.12509000000E+03 0.  0.
         25    1    3    3    0    0 -0.65782545185E+02 -0.71739307373E+02  0.76721562394E+02  0.17608968655E+03  0.12509000000E+03 0.  0.
         25    1    3    3    0    0  0.70478274689E+02  0.55785988540E+02  0.21123148368E+03  0.26142974490E+03  0.12509000000E+03 0.  0.
<mgrwt>
<rscale>  2 0.45561398E+03</rscale>
<asrwt>0</asrwt>
<pdfrwt beam="1">  1       21 0.74216092E-01 0.45561398E+03</pdfrwt>
<pdfrwt beam="2">  1       21 0.15122312E-01 0.45561398E+03</pdfrwt>
<totfact> 0.57937398E+04</totfact>
</mgrwt>
</event>
<event>
 6    0  0.1539652E-007  0.4530432E+03  0.7546771E-02  0.1026818E+00
         21   -1    0    0  502  501  0.00000000000E+00  0.00000000000E+00  0.82513110652E+02  0.82513110652E+02  0.00000000000E+00 0.  1.
         21   -1    0    0  501  502 -0.00000000000E+00 -0.00000000000E+00 -0.62186522034E+03  0.62186522034E+03  0.00000000000E+00 0.  1.
      99926    2    1    2    0    0  0.00000000000E+00 -0.88817841970E-15 -0.53935210969E+03  0.70437833099E+03  0.45304319325E+03 0.  0.
         25    1    3    3    0    0 -0.51943472222E+02 -0.12178946244E+02 -0.36071408001E+03  0.38549786854E+03  0.12509000000E+03 0.  0.
         25    1    3    3    0    0  0.59502944541E+02  0.58927719516E+01 -0.91626817974E+02  0.16618756585E+03  0.12509000000E+03 0.  0.
         25    1    3    3    0    0 -0.75594723187E+01  0.62861742927E+01 -0.87011211707E+02  0.15269289660E+03  0.12509000000E+03 0.  0.
<mgrwt>
<rscale>  2 0.45304319E+03</rscale>
<asrwt>0</asrwt>
<pdfrwt beam="1">  1       21 0.12134281E-01 0.45304319E+03</pdfrwt>
<pdfrwt beam="2">  1       21 0.91450768E-01 0.45304319E+03</pdfrwt>
<totfact> 0.53484682E+04</totfact>
</mgrwt>
</event>
<event>
 6    0  0.1539652E-007  0.4451678E+03  0.7546771E-02  0.1029173E+00
         21   -1    0    0  502  501  0.00000000000E+00  0.00000000000E+00  0.12666485911E+04  0.12666485911E+04  0.00000000000E+00 0. -1.
         21   -1    0    0  501  502 -0.00000000000E+00 -0.00000000000E+00 -0.39113923336E+02  0.39113923336E+02  0.00000000000E+00 0. -1.
      99926    2    1    2    0    0 -0.35527136788E-14  0.00000000000E+00  0.12275346678E+04  0.13057625145E+04  0.44516781504E+03 0.  0.
         25    1    3    3    0    0  0.23891648533E+02  0.87776342414E+02  0.39695204048E+03  0.42602104138E+03  0.12509000000E+03 0.  0.
         25    1    3    3    0    0 -0.67834715344E+02 -0.60355178455E+02  0.44126728106E+03  0.46755600478E+03  0.12509000000E+03 0.  0.
         25    1    3    3    0    0  0.43943066811E+02 -0.27421163959E+02  0.38931534625E+03  0.41218546830E+03  0.12509000000E+03 0.  0.
<mgrwt>
<rscale>  2 0.44516782E+03</rscale>
<asrwt>0</asrwt>
<pdfrwt beam="1">  1       21 0.18627183E+00 0.44516782E+03</pdfrwt>
<pdfrwt beam="2">  1       21 0.57520484E-02 0.44516782E+03</pdfrwt>
<totfact> 0.31271392E+04</totfact>
</mgrwt>
</event>
<event>
 6    0  0.1539652E-007  0.4592867E+03  0.7546771E-02  0.1024988E+00
         21   -1    0    0  502  501  0.00000000000E+00  0.00000000000E+00  0.22895402013E+03  0.22895402013E+03  0.00000000000E+00 0.  1.
         21   -1    0    0  501  502 -0.00000000000E+00 -0.00000000000E+00 -0.23033475834E+03  0.23033475834E+03  0.00000000000E+00 0.  1.
      99926    2    1    2    0    0  0.00000000000E+00  0.00000000000E+00 -0.13807382088E+01  0.45928877847E+03  0.45928670304E+03 0.  0.
         25    1    3    3    0    0 -0.21344059290E+02  0.85125643988E+02 -0.51433386259E+02  0.16122917060E+03  0.12509000000E+03 0.  0.
         25    1    3    3    0    0  0.48964704382E+02 -0.15716333638E+02  0.67788422178E+02  0.15128557003E+03  0.12509000000E+03 0.  0.
         25    1    3    3    0    0 -0.27620645093E+02 -0.69409310350E+02 -0.17735774128E+02  0.14677403784E+03  0.12509000000E+03 0.  0.
<mgrwt>
<rscale>  2 0.45928670E+03</rscale>
<asrwt>0</asrwt>
<pdfrwt beam="1">  1       21 0.33669709E-01 0.45928670E+03</pdfrwt>
<pdfrwt beam="2">  1       21 0.33872759E-01 0.45928670E+03</pdfrwt>
<totfact> 0.65948053E+04</totfact>
</mgrwt>
</event>
<event>
 6    0  0.1539652E-007  0.4542708E+03  0.7546771E-02  0.1026456E+00
         21   -1    0    0  502  501  0.00000000000E+00  0.00000000000E+00  0.15201453746E+04  0.15201453746E+04  0.00000000000E+00 0.  1.
         21   -1    0    0  501  502 -0.00000000000E+00 -0.00000000000E+00 -0.33937867445E+02  0.33937867445E+02  0.00000000000E+00 0.  1.
      99926    2    1    2    0    0  0.00000000000E+00 -0.71054273576E-14  0.14862075071E+04  0.15540832420E+04  0.45427081006E+03 0.  0.
         25    1    3    3    0    0 -0.45934342734E+01 -0.80716309573E+02  0.84282215841E+03  0.85588137091E+03  0.12509000000E+03 0.  0.
         25    1    3    3    0    0  0.30068897592E+02  0.56649786420E+02  0.30917801836E+03  0.33963493937E+03  0.12509000000E+03 0.  0.
         25    1    3    3    0    0 -0.25475463319E+02  0.24066523153E+02  0.33420733035E+03  0.35856693173E+03  0.12509000000E+03 0.  0.
<mgrwt>
<rscale>  2 0.45427081E+03</rscale>
<asrwt>0</asrwt>
<pdfrwt beam="1">  1       21 0.22355075E+00 0.45427081E+03</pdfrwt>
<pdfrwt beam="2">  1       21 0.49908639E-02 0.45427081E+03</pdfrwt>
<totfact> 0.22612031E+04</totfact>
</mgrwt>
</event>
<event>
 6    0  0.1539652E-007  0.4568580E+03  0.7546771E-02  0.1025696E+00
         21   -1    0    0  502  501  0.00000000000E+00  0.00000000000E+00  0.37409721718E+03  0.37409721718E+03  0.00000000000E+00 0.  1.
         21   -1    0    0  501  502 -0.00000000000E+00 -0.00000000000E+00 -0.13948192714E+03  0.13948192714E+03  0.00000000000E+00 0.  1.
      99926    2    1    2    0    0 -0.71054273576E-14 -0.14210854715E-13  0.23461529003E+03  0.51357914432E+03  0.45685796826E+03 0.  0.
         25    1    3    3    0    0  0.52924408529E+02 -0.90387947197E+02  0.11015186433E+03  0.19685506174E+03  0.12509000000E+03 0.  0.
         25    1    3    3    0    0 -0.67156278987E+02  0.12030316556E+02  0.69964941926E+02  0.15873656013E+03  0.12509000000E+03 0.  0.
         25    1    3    3    0    0  0.14231870457E+02  0.78357630641E+02  0.54498483775E+02  0.15798752245E+03  0.12509000000E+03 0.  0.
<mgrwt>
<rscale>  2 0.45685797E+03</rscale>
<asrwt>0</asrwt>
<pdfrwt beam="1">  1       21 0.55014296E-01 0.45685797E+03</pdfrwt>
<pdfrwt beam="2">  1       21 0.20512048E-01 0.45685797E+03</pdfrwt>
<totfact> 0.63387066E+04</totfact>
</mgrwt>
</event>
<event>
 6    0  0.1539652E-007  0.4522755E+03  0.7546771E-02  0.1027046E+00
         21   -1    0    0  502  501  0.00000000000E+00  0.00000000000E+00  0.60618036162E+03  0.60618036162E+03  0.00000000000E+00 0. -1.
         21   -1    0    0  501  502 -0.00000000000E+00 -0.00000000000E+00 -0.84361478787E+02  0.84361478787E+02  0.00000000000E+00 0. -1.
      99926    2    1    2    0    0  0.10599160438E-14  0.00000000000E+00  0.52181888283E+03  0.69054184040E+03  0.45227545464E+03 0.  0.
         25    1    3    3    0    0 -0.89235391318E-02 -0.31745905639E+02  0.22559845984E+03  0.25990378179E+03  0.12509000000E+03 0.  0.
         25    1    3    3    0    0  0.14724617334E+02  0.58882238818E+02  0.26314379892E+03  0.29761737082E+03  0.12509000000E+03 0.  0.
         25    1    3    3    0    0 -0.14715693795E+02 -0.27136333179E+02  0.33076624070E+02  0.13302068780E+03  0.12509000000E+03 0.  0.
<mgrwt>
<rscale>  2 0.45227545E+03</rscale>
<asrwt>0</asrwt>
<pdfrwt beam="1">  1       21 0.89144169E-01 0.45227545E+03</pdfrwt>
<pdfrwt beam="2">  1       21 0.12406100E-01 0.45227545E+03</pdfrwt>
<totfact> 0.54580792E+04</totfact>
</mgrwt>
</event>
<event>
 6    0  0.1539652E-007  0.4515957E+03  0.7546771E-02  0.1027247E+00
         21   -1    0    0  502  501  0.00000000000E+00  0.00000000000E+00  0.15523546081E+04  0.15523546081E+04  0.00000000000E+00 0. -1.
         21   -1    0    0  501  502 -0.00000000000E+00 -0.00000000000E+00 -0.32843445338E+02  0.32843445338E+02  0.00000000000E+00 0. -1.
      99926    2    1    2    0    0  0.00000000000E+00  0.00000000000E+00  0.15195111627E+04  0.15851980534E+04  0.45159572060E+03 0.  0.
         25    1    3    3    0    0 -0.37978826609E+02 -0.21163819828E+02  0.85197035888E+03  0.86220142604E+03  0.12509000000E+03 0.  0.
         25    1    3    3    0    0  0.25010985999E+02 -0.21042963921E+02  0.44995827066E+03  0.46816483122E+03  0.12509000000E+03 0.  0.
         25    1    3    3    0    0  0.12967840610E+02  0.42206783749E+02  0.21758253319E+03  0.25483179616E+03  0.12509000000E+03 0.  0.
<mgrwt>
<rscale>  2 0.45159572E+03</rscale>
<asrwt>0</asrwt>
<pdfrwt beam="1">  1       21 0.22828739E+00 0.45159572E+03</pdfrwt>
<pdfrwt beam="2">  1       21 0.48299195E-02 0.45159572E+03</pdfrwt>
<totfact> 0.22351180E+04</totfact>
</mgrwt>
</event>
<event>
 6    0  0.1539652E-007  0.4537587E+03  0.7546771E-02  0.1026607E+00
         21   -1    0    0  502  501  0.00000000000E+00  0.00000000000E+00  0.16736630016E+03  0.16736630016E+03  0.00000000000E+00 0.  1.
         21   -1    0    0  501  502 -0.00000000000E+00 -0.00000000000E+00 -0.30755434523E+03  0.30755434523E+03  0.00000000000E+00 0.  1.
      99926    2    1    2    0    0  0.00000000000E+00  0.14210854715E-13 -0.14018804507E+03  0.47492064538E+03  0.45375867091E+03 0.  0.
         25    1    3    3    0    0 -0.18224488850E+02  0.91051376362E+02 -0.94160867238E+02  0.18203368411E+03  0.12509000000E+03 0.  0.
         25    1    3    3    0    0  0.39090222892E+02 -0.58157212174E+01  0.64052638479E+01  0.13134079200E+03  0.12509000000E+03 0.  0.
         25    1    3    3    0    0 -0.20865734042E+02 -0.85235655145E+02 -0.52432441679E+02  0.16154616927E+03  0.12509000000E+03 0.  0.
<mgrwt>
<rscale>  2 0.45375867E+03</rscale>
<asrwt>0</asrwt>
<pdfrwt beam="1">  1       21 0.24612691E-01 0.45375867E+03</pdfrwt>
<pdfrwt beam="2">  1       21 0.45228580E-01 0.45375867E+03</pdfrwt>
<totfact> 0.67736577E+04</totfact>
</mgrwt>
</event>
<event>
 6    0  0.1539652E-007  0.4781494E+03  0.7546771E-02  0.1019645E+00
         21   -1    0    0  502  501  0.00000000000E+00  0.00000000000E+00  0.10444833878E+03  0.10444833878E+03  0.00000000000E+00 0.  1.
         21   -1    0    0  501  502 -0.00000000000E+00 -0.00000000000E+00 -0.54722467788E+03  0.54722467788E+03  0.00000000000E+00 0.  1.
      99926    2    1    2    0    0  0.00000000000E+00  0.71054273576E-14 -0.44277633910E+03  0.65167301666E+03  0.47814938480E+03 0.  0.
         25    1    3    3    0    0 -0.42874604709E+01  0.10237354930E+03 -0.81231123496E+02  0.18095504812E+03  0.12509000000E+03 0.  0.
         25    1    3    3    0    0  0.21035202114E+02 -0.50305797243E+02 -0.28054816146E+03  0.31197424888E+03  0.12509000000E+03 0.  0.
         25    1    3    3    0    0 -0.16747741643E+02 -0.52067752061E+02 -0.80997054139E+02  0.15874371967E+03  0.12509000000E+03 0.  0.
<mgrwt>
<rscale>  2 0.47814938E+03</rscale>
<asrwt>0</asrwt>
<pdfrwt beam="1">  1       21 0.15360049E-01 0.47814938E+03</pdfrwt>
<pdfrwt beam="2">  1       21 0.80474219E-01 0.47814938E+03</pdfrwt>
<totfact> 0.46509940E+04</totfact>
</mgrwt>
</event>
<event>
 6    0  0.1539652E-007  0.4534064E+03  0.7546771E-02  0.1026711E+00
         21   -1    0    0  502  501  0.00000000000E+00  0.00000000000E+00  0.19291100492E+03  0.19291100492E+03  0.00000000000E+00 0.  1.
         21   -1    0    0  501  502 -0.00000000000E+00 -0.00000000000E+00 -0.26641476878E+03  0.26641476878E+03  0.00000000000E+00 0.  1.
      99926    2    1    2    0    0 -0.35527136788E-14  0.00000000000E+00 -0.73503763858E+02  0.45932577370E+03  0.45340639947E+03 0.  0.
         25    1    3    3    0    0  0.16457959935E+02  0.90917844232E+01 -0.54195655036E+02  0.13761614046E+03  0.12509000000E+03 0.  0.
         25    1    3    3    0    0 -0.32757812378E+02 -0.10066502109E+03 -0.24767941347E+02  0.16573315830E+03  0.12509000000E+03 0.  0.
         25    1    3    3    0    0  0.16299852443E+02  0.91573236667E+02  0.54598325248E+01  0.15597647494E+03  0.12509000000E+03 0.  0.
<mgrwt>
<rscale>  2 0.45340640E+03</rscale>
<asrwt>0</asrwt>
<pdfrwt beam="1">  1       21 0.28369266E-01 0.45340640E+03</pdfrwt>
<pdfrwt beam="2">  1       21 0.39178642E-01 0.45340640E+03</pdfrwt>
<totfact> 0.69103699E+04</totfact>
</mgrwt>
</event>
<event>
 6    0  0.1539652E-007  0.4638763E+03  0.7546771E-02  0.1023663E+00
         21   -1    0    0  502  501  0.00000000000E+00  0.00000000000E+00  0.91031494828E+02  0.91031494828E+02  0.00000000000E+00 0. -1.
         21   -1    0    0  501  502 -0.00000000000E+00 -0.00000000000E+00 -0.59095279626E+03  0.59095279626E+03  0.00000000000E+00 0. -1.
      99926    2    1    2    0    0  0.00000000000E+00  0.00000000000E+00 -0.49992130144E+03  0.68198429109E+03  0.46387634739E+03 0.  0.
         25    1    3    3    0    0  0.35596007556E+02  0.78319378693E+02 -0.12258205259E+03  0.19512782618E+03  0.12509000000E+03 0.  0.
         25    1    3    3    0    0 -0.78046287448E+02 -0.90682771153E+02 -0.18671630567E+03  0.25460768816E+03  0.12509000000E+03 0.  0.
         25    1    3    3    0    0  0.42450279892E+02  0.12363392460E+02 -0.19062294317E+03  0.23224877675E+03  0.12509000000E+03 0.  0.
<mgrwt>
<rscale>  2 0.46387635E+03</rscale>
<asrwt>0</asrwt>
<pdfrwt beam="1">  1       21 0.13386984E-01 0.46387635E+03</pdfrwt>
<pdfrwt beam="2">  1       21 0.86904823E-01 0.46387635E+03</pdfrwt>
<totfact> 0.50282306E+04</totfact>
</mgrwt>
</event>
<event>
 6    0  0.1539652E-007  0.4756974E+03  0.7546771E-02  0.1020324E+00
         21   -1    0    0  502  501  0.00000000000E+00  0.00000000000E+00  0.13555370270E+04  0.13555370270E+04  0.00000000000E+00 0.  1.
         21   -1    0    0  501  502 -0.00000000000E+00 -0.00000000000E+00 -0.41734016683E+02  0.41734016683E+02  0.00000000000E+00 0.  1.
      99926    2    1    2    0    0  0.71054273576E-14  0.00000000000E+00  0.13138030103E+04  0.13972710436E+04  0.47569740339E+03 0.  0.
         25    1    3    3    0    0 -0.63122016843E+02  0.12260074041E+02  0.16989490389E+03  0.22055948153E+03  0.12509000000E+03 0.  0.
         25    1    3    3    0    0  0.27373498427E+02 -0.40323725350E+02  0.71975607229E+03  0.73216912182E+03  0.12509000000E+03 0.  0.
         25    1    3    3    0    0  0.35748518417E+02  0.28063651310E+02  0.42415203409E+03  0.44454244029E+03  0.12509000000E+03 0.  0.
<mgrwt>
<rscale>  2 0.47569740E+03</rscale>
<asrwt>0</asrwt>
<pdfrwt beam="1">  1       21 0.19934365E+00 0.47569740E+03</pdfrwt>
<pdfrwt beam="2">  1       21 0.61373563E-02 0.47569740E+03</pdfrwt>
<totfact> 0.22553200E+04</totfact>
</mgrwt>
</event>
<event>
 6    0  0.1539652E-007  0.4315632E+03  0.7546771E-02  0.1033367E+00
         21   -1    0    0  502  501  0.00000000000E+00  0.00000000000E+00  0.20064202563E+03  0.20064202563E+03  0.00000000000E+00 0.  1.
         21   -1    0    0  501  502 -0.00000000000E+00 -0.00000000000E+00 -0.23206352268E+03  0.23206352268E+03  0.00000000000E+00 0.  1.
      99926    2    1    2    0    0  0.00000000000E+00  0.22204460493E-14 -0.31421497055E+02  0.43270554831E+03  0.43156318316E+03 0.  0.
         25    1    3    3    0    0  0.92832562318E+01  0.31235340630E+02 -0.89009311996E+02  0.15694582209E+03  0.12509000000E+03 0.  0.
         25    1    3    3    0    0 -0.39974659399E+02  0.22963412585E+01  0.55668551218E+02  0.14265252284E+03  0.12509000000E+03 0.  0.
         25    1    3    3    0    0  0.30691403167E+02 -0.33531681889E+02  0.19192637227E+01  0.13310720338E+03  0.12509000000E+03 0.  0.
<mgrwt>
<rscale>  2 0.43156318E+03</rscale>
<asrwt>0</asrwt>
<pdfrwt beam="1">  1       21 0.29506180E-01 0.43156318E+03</pdfrwt>
<pdfrwt beam="2">  1       21 0.34126988E-01 0.43156318E+03</pdfrwt>
<totfact> 0.85033785E+04</totfact>
</mgrwt>
</event>
<event>
 6    0  0.1539652E-007  0.4595353E+03  0.7546771E-02  0.1024916E+00
         21   -1    0    0  502  501  0.00000000000E+00  0.00000000000E+00  0.22879314948E+03  0.22879314948E+03  0.00000000000E+00 0. -1.
         21   -1    0    0  501  502 -0.00000000000E+00 -0.00000000000E+00 -0.23074626650E+03  0.23074626650E+03  0.00000000000E+00 0. -1.
      99926    2    1    2    0    0  0.00000000000E+00  0.00000000000E+00 -0.19531170280E+01  0.45953941598E+03  0.45953526543E+03 0.  0.
         25    1    3    3    0    0 -0.48165560851E+02  0.71160925967E+02 -0.91438090745E+02  0.17717852910E+03  0.12509000000E+03 0.  0.
         25    1    3    3    0    0  0.20425274290E+02 -0.21625779483E+02  0.59871489106E+02  0.14183430289E+03  0.12509000000E+03 0.  0.
         25    1    3    3    0    0  0.27740286561E+02 -0.49535146485E+02  0.29613484611E+02  0.14052658399E+03  0.12509000000E+03 0.  0.
<mgrwt>
<rscale>  2 0.45953527E+03</rscale>
<asrwt>0</asrwt>
<pdfrwt beam="1">  1       21 0.33646051E-01 0.45953527E+03</pdfrwt>
<pdfrwt beam="2">  1       21 0.33933274E-01 0.45953527E+03</pdfrwt>
<totfact> 0.65800956E+04</totfact>
</mgrwt>
</event>
<event>
 6    0  0.1539652E-007  0.4544487E+03  0.7546771E-02  0.1026404E+00
         21   -1    0    0  502  501  0.00000000000E+00  0.00000000000E+00  0.23018854090E+03  0.23018854090E+03  0.00000000000E+00 0. -1.
         21   -1    0    0  501  502 -0.00000000000E+00 -0.00000000000E+00 -0.22429831635E+03  0.22429831635E+03  0.00000000000E+00 0. -1.
      99926    2    1    2    0    0  0.35527136788E-14  0.00000000000E+00  0.58902245476E+01  0.45448685726E+03  0.45444868651E+03 0.  0.
         25    1    3    3    0    0  0.88961951977E+01 -0.17700192131E+02  0.19603562312E+02  0.12815711781E+03  0.12509000000E+03 0.  0.
         25    1    3    3    0    0 -0.64295890216E+02  0.55592078051E+02 -0.78375990556E+02  0.17033714990E+03  0.12509000000E+03 0.  0.
         25    1    3    3    0    0  0.55399695018E+02 -0.37891885920E+02  0.64662652792E+02  0.15599258954E+03  0.12509000000E+03 0.  0.
<mgrwt>
<rscale>  2 0.45444869E+03</rscale>
<asrwt>0</asrwt>
<pdfrwt beam="1">  1       21 0.33851256E-01 0.45444869E+03</pdfrwt>
<pdfrwt beam="2">  1       21 0.32985046E-01 0.45444869E+03</pdfrwt>
<totfact> 0.68885925E+04</totfact>
</mgrwt>
</event>
<event>
 6    0  0.1539652E-007  0.4424611E+03  0.7546771E-02  0.1029994E+00
         21   -1    0    0  502  501  0.00000000000E+00  0.00000000000E+00  0.22664714335E+03  0.22664714335E+03  0.00000000000E+00 0. -1.
         21   -1    0    0  501  502 -0.00000000000E+00 -0.00000000000E+00 -0.21594336642E+03  0.21594336642E+03  0.00000000000E+00 0. -1.
      99926    2    1    2    0    0  0.00000000000E+00 -0.35527136788E-14  0.10703776928E+02  0.44259050977E+03  0.44246105874E+03 0.  0.
         25    1    3    3    0    0 -0.42661715431E+02  0.23590634365E+02  0.60037396204E+02  0.14706643749E+03  0.12509000000E+03 0.  0.
         25    1    3    3    0    0  0.60116221249E+01 -0.55067560983E+02  0.29529777097E+02  0.13995746393E+03  0.12509000000E+03 0.  0.
         25    1    3    3    0    0  0.36650093306E+02  0.31476926618E+02 -0.78863396373E+02  0.15556660836E+03  0.12509000000E+03 0.  0.
<mgrwt>
<rscale>  2 0.44246106E+03</rscale>
<asrwt>0</asrwt>
<pdfrwt beam="1">  1       21 0.33330463E-01 0.44246106E+03</pdfrwt>
<pdfrwt beam="2">  1       21 0.31756377E-01 0.44246106E+03</pdfrwt>
<totfact> 0.76872426E+04</totfact>
</mgrwt>
</event>
<event>
 6    0  0.1539652E-007  0.4506493E+03  0.7546771E-02  0.1027529E+00
         21   -1    0    0  502  501  0.00000000000E+00  0.00000000000E+00  0.23237042587E+03  0.23237042587E+03  0.00000000000E+00 0.  1.
         21   -1    0    0  501  502 -0.00000000000E+00 -0.00000000000E+00 -0.21849253103E+03  0.21849253103E+03  0.00000000000E+00 0.  1.
      99926    2    1    2    0    0  0.00000000000E+00  0.00000000000E+00  0.13877894835E+02  0.45086295690E+03  0.45064932036E+03 0.  0.
         25    1    3    3    0    0  0.37155317853E+01  0.45518779232E+02 -0.38121130169E+02  0.13851531722E+03  0.12509000000E+03 0.  0.
         25    1    3    3    0    0 -0.49300669010E+02 -0.54232903407E+02  0.93624860452E+02  0.17258298401E+03  0.12509000000E+03 0.  0.
         25    1    3    3    0    0  0.45585137225E+02  0.87141241754E+01 -0.41625835448E+02  0.13976465566E+03  0.12509000000E+03 0.  0.
<mgrwt>
<rscale>  2 0.45064932E+03</rscale>
<asrwt>0</asrwt>
<pdfrwt beam="1">  1       21 0.34172122E-01 0.45064932E+03</pdfrwt>
<pdfrwt beam="2">  1       21 0.32131254E-01 0.45064932E+03</pdfrwt>
<totfact> 0.71292833E+04</totfact>
</mgrwt>
</event>
<event>
 6    0  0.1539652E-007  0.4503293E+03  0.7546771E-02  0.1027624E+00
         21   -1    0    0  502  501  0.00000000000E+00  0.00000000000E+00  0.31358570340E+03  0.31358570340E+03  0.00000000000E+00 0.  1.
         21   -1    0    0  501  502 -0.00000000000E+00 -0.00000000000E+00 -0.16167547789E+03  0.16167547789E+03  0.00000000000E+00 0.  1.
      99926    2    1    2    0    0 -0.35527136788E-14 -0.17763568394E-14  0.15191022551E+03  0.47526118130E+03  0.45032929489E+03 0.  0.
         25    1    3    3    0    0 -0.21481529662E+02 -0.11514130933E+02  0.15796444559E+03  0.20296380342E+03  0.12509000000E+03 0.  0.
         25    1    3    3    0    0 -0.19487076322E+02 -0.12853997410E+02  0.35540053571E+02  0.13211954776E+03  0.12509000000E+03 0.  0.
         25    1    3    3    0    0  0.40968605985E+02  0.24368128342E+02 -0.41594273652E+02  0.14017783012E+03  0.12509000000E+03 0.  0.
<mgrwt>
<rscale>  2 0.45032929E+03</rscale>
<asrwt>0</asrwt>
<pdfrwt beam="1">  1       21 0.46115545E-01 0.45032929E+03</pdfrwt>
<pdfrwt beam="2">  1       21 0.23775805E-01 0.45032929E+03</pdfrwt>
<totfact> 0.69590924E+04</totfact>
</mgrwt>
</event>
<event>
 6    0  0.1539652E-007  0.4581473E+03  0.7546771E-02  0.1025320E+00
         21   -1    0    0  502  501  0.00000000000E+00  0.00000000000E+00  0.25898141365E+03  0.25898141365E+03  0.00000000000E+00 0.  1.
         21   -1    0    0  501  502 -0.00000000000E+00 -0.00000000000E+00 -0.20261973449E+03  0.20261973449E+03  0.00000000000E+00 0.  1.
      99926    2    1    2    0    0  0.35527136788E-14 -0.26645352591E-14  0.56361679167E+02  0.46160114814E+03  0.45814733556E+03 0.  0.
         25    1    3    3    0    0 -0.25835242506E+02 -0.23801600737E+01  0.45483809691E+02  0.13560755864E+03  0.12509000000E+03 0.  0.
         25    1    3    3    0    0 -0.32745815856E+02  0.93558049243E+02 -0.53551933461E+01  0.15969215144E+03  0.12509000000E+03 0.  0.
         25    1    3    3    0    0  0.58581058362E+02 -0.91177889169E+02  0.16233062823E+02  0.16630143806E+03  0.12509000000E+03 0.  0.
<mgrwt>
<rscale>  2 0.45814734E+03</rscale>
<asrwt>0</asrwt>
<pdfrwt beam="1">  1       21 0.38085502E-01 0.45814734E+03</pdfrwt>
<pdfrwt beam="2">  1       21 0.29797020E-01 0.45814734E+03</pdfrwt>
<totfact> 0.66382112E+04</totfact>
</mgrwt>
</event>
<event>
 6    0  0.1539652E-007  0.4535085E+03  0.7546771E-02  0.1026681E+00
         21   -1    0    0  502  501  0.00000000000E+00  0.00000000000E+00  0.17828554595E+04  0.17828554595E+04  0.00000000000E+00 0.  1.
         21   -1    0    0  501  502 -0.00000000000E+00 -0.00000000000E+00 -0.28839964891E+02  0.28839964891E+02  0.00000000000E+00 0.  1.
      99926    2    1    2    0    0 -0.14432899320E-14  0.00000000000E+00  0.17540154946E+04  0.18116954244E+04  0.45350849543E+03 0.  0.
         25    1    3    3    0    0 -0.59378394259E+00 -0.43168934715E+02  0.25108787040E+03  0.28382483377E+03  0.12509000000E+03 0.  0.
         25    1    3    3    0    0  0.28430375725E+02 -0.68816916681E+01  0.53459477929E+03  0.54981335932E+03  0.12509000000E+03 0.  0.
         25    1    3    3    0    0 -0.27836591782E+02  0.50050626383E+02  0.96833284489E+03  0.97805723127E+03  0.12509000000E+03 0.  0.
<mgrwt>
<rscale>  2 0.45350850E+03</rscale>
<asrwt>0</asrwt>
<pdfrwt beam="1">  1       21 0.26218455E+00 0.45350850E+03</pdfrwt>
<pdfrwt beam="2">  1       21 0.42411725E-02 0.45350850E+03</pdfrwt>
<totfact> 0.17234536E+04</totfact>
</mgrwt>
</event>
<event>
 6    0  0.1539652E-007  0.4569555E+03  0.7546771E-02  0.1025668E+00
         21   -1    0    0  502  501  0.00000000000E+00  0.00000000000E+00  0.21939751110E+03  0.21939751110E+03  0.00000000000E+00 0.  1.
         21   -1    0    0  501  502 -0.00000000000E+00 -0.00000000000E+00 -0.23793377981E+03  0.23793377981E+03  0.00000000000E+00 0.  1.
      99926    2    1    2    0    0  0.14210854715E-13  0.71054273576E-14 -0.18536268711E+02  0.45733129090E+03  0.45695548622E+03 0.  0.
         25    1    3    3    0    0 -0.16389218738E+02 -0.39247966285E+01  0.11836208791E+01  0.12622566925E+03  0.12509000000E+03 0.  0.
         25    1    3    3    0    0  0.99400427108E+02  0.56371878415E+02 -0.28635488533E+02  0.17183053538E+03  0.12509000000E+03 0.  0.
         25    1    3    3    0    0 -0.83011208370E+02 -0.52447081787E+02  0.89155989436E+01  0.15927508627E+03  0.12509000000E+03 0.  0.
<mgrwt>
<rscale>  2 0.45695549E+03</rscale>
<asrwt>0</asrwt>
<pdfrwt beam="1">  1       21 0.32264340E-01 0.45695549E+03</pdfrwt>
<pdfrwt beam="2">  1       21 0.34990261E-01 0.45695549E+03</pdfrwt>
<totfact> 0.67318862E+04</totfact>
</mgrwt>
</event>
<event>
 6    0  0.1539652E-007  0.4518926E+03  0.7546771E-02  0.1027159E+00
         21   -1    0    0  502  501  0.00000000000E+00  0.00000000000E+00  0.48826437351E+03  0.48826437351E+03  0.00000000000E+00 0. -1.
         21   -1    0    0  501  502 -0.00000000000E+00 -0.00000000000E+00 -0.10455753997E+03  0.10455753997E+03  0.00000000000E+00 0. -1.
      99926    2    1    2    0    0 -0.14210854715E-13  0.71054273576E-14  0.38370683354E+03  0.59282191348E+03  0.45189256135E+03 0.  0.
         25    1    3    3    0    0 -0.83709110731E+02 -0.10869502763E+02  0.87137586164E+02  0.17425793621E+03  0.12509000000E+03 0.  0.
         25    1    3    3    0    0  0.94387097382E+02 -0.34266746736E+02  0.14045416648E+03  0.21320885316E+03  0.12509000000E+03 0.  0.
         25    1    3    3    0    0 -0.10677986651E+02  0.45136249499E+02  0.15611508090E+03  0.20535512412E+03  0.12509000000E+03 0.  0.
<mgrwt>
<rscale>  2 0.45189256E+03</rscale>
<asrwt>0</asrwt>
<pdfrwt beam="1">  1       21 0.71803583E-01 0.45189256E+03</pdfrwt>
<pdfrwt beam="2">  1       21 0.15376109E-01 0.45189256E+03</pdfrwt>
<totfact> 0.60596730E+04</totfact>
</mgrwt>
</event>
<event>
 6    0  0.1539652E-007  0.4565315E+03  0.7546771E-02  0.1025792E+00
         21   -1    0    0  502  501  0.00000000000E+00  0.00000000000E+00  0.80403784650E+03  0.80403784650E+03  0.00000000000E+00 0.  1.
         21   -1    0    0  501  502 -0.00000000000E+00 -0.00000000000E+00 -0.64804486419E+02  0.64804486419E+02  0.00000000000E+00 0.  1.
      99926    2    1    2    0    0  0.00000000000E+00 -0.35527136788E-14  0.73923336008E+03  0.86884233292E+03  0.45653153102E+03 0.  0.
         25    1    3    3    0    0  0.45492319391E+02  0.61168019169E+02  0.20280072669E+03  0.25017338095E+03  0.12509000000E+03 0.  0.
         25    1    3    3    0    0  0.24508053562E+02 -0.17665118418E+02  0.38383341959E+03  0.40483120333E+03  0.12509000000E+03 0.  0.
         25    1    3    3    0    0 -0.70000372953E+02 -0.43502900750E+02  0.15259921380E+03  0.21383774863E+03  0.12509000000E+03 0.  0.
<mgrwt>
<rscale>  2 0.45653153E+03</rscale>
<asrwt>0</asrwt>
<pdfrwt beam="1">  1       21 0.11824085E+00 0.45653153E+03</pdfrwt>
<pdfrwt beam="2">  1       21 0.95300720E-02 0.45653153E+03</pdfrwt>
<totfact> 0.44075959E+04</totfact>
</mgrwt>
</event>
<event>
 6    0  0.1539652E-007  0.4577007E+03  0.7546771E-02  0.1025450E+00
         21   -1    0    0  502  501  0.00000000000E+00  0.00000000000E+00  0.24599000199E+03  0.24599000199E+03  0.00000000000E+00 0. -1.
         21   -1    0    0  501  502 -0.00000000000E+00 -0.00000000000E+00 -0.21290494136E+03  0.21290494136E+03  0.00000000000E+00 0. -1.
      99926    2    1    2    0    0  0.00000000000E+00  0.00000000000E+00  0.33085060626E+02  0.45889494335E+03  0.45770071859E+03 0.  0.
         25    1    3    3    0    0  0.40749378336E+02  0.13765374281E+02  0.64367697744E+02  0.14710780393E+03  0.12509000000E+03 0.  0.
         25    1    3    3    0    0 -0.64947678589E+02 -0.30707548846E+02 -0.90479358126E+02  0.17027970184E+03  0.12509000000E+03 0.  0.
         25    1    3    3    0    0  0.24198300253E+02  0.16942174565E+02  0.59196721008E+02  0.14150743759E+03  0.12509000000E+03 0.  0.
<mgrwt>
<rscale>  2 0.45770072E+03</rscale>
<asrwt>0</asrwt>
<pdfrwt beam="1">  1       21 0.36175000E-01 0.45770072E+03</pdfrwt>
<pdfrwt beam="2">  1       21 0.31309550E-01 0.45770072E+03</pdfrwt>
<totfact> 0.66810128E+04</totfact>
</mgrwt>
</event>
<event>
 6    0  0.1539652E-007  0.4625549E+03  0.7546771E-02  0.1024043E+00
         21   -1    0    0  502  501  0.00000000000E+00  0.00000000000E+00  0.34132536882E+02  0.34132536882E+02  0.00000000000E+00 0. -1.
         21   -1    0    0  501  502 -0.00000000000E+00 -0.00000000000E+00 -0.15671047293E+04  0.15671047293E+04  0.00000000000E+00 0. -1.
      99926    2    1    2    0    0 -0.62172489379E-14  0.35527136788E-14 -0.15329721924E+04  0.16012372661E+04  0.46255490472E+03 0.  0.
         25    1    3    3    0    0  0.85965356981E+02 -0.60092907713E+02 -0.40340974533E+03  0.43518746637E+03  0.12509000000E+03 0.  0.
         25    1    3    3    0    0 -0.78485674674E+02  0.38957101106E+02 -0.76153412326E+03  0.77669774420E+03  0.12509000000E+03 0.  0.
         25    1    3    3    0    0 -0.74796823073E+01  0.21135806607E+02 -0.36802832379E+03  0.38935205558E+03  0.12509000000E+03 0.  0.
<mgrwt>
<rscale>  2 0.46255490E+03</rscale>
<asrwt>0</asrwt>
<pdfrwt beam="1">  1       21 0.50194896E-02 0.46255490E+03</pdfrwt>
<pdfrwt beam="2">  1       21 0.23045663E+00 0.46255490E+03</pdfrwt>
<totfact> 0.20191151E+04</totfact>
</mgrwt>
</event>
<event>
 6    0  0.1539652E-007  0.4557078E+03  0.7546771E-02  0.1026033E+00
         21   -1    0    0  502  501  0.00000000000E+00  0.00000000000E+00  0.12021884965E+03  0.12021884965E+03  0.00000000000E+00 0.  1.
         21   -1    0    0  501  502 -0.00000000000E+00 -0.00000000000E+00 -0.43185747904E+03  0.43185747904E+03  0.00000000000E+00 0.  1.
      99926    2    1    2    0    0  0.71054273576E-14  0.35527136788E-14 -0.31163862939E+03  0.55207632868E+03  0.45570784211E+03 0.  0.
         25    1    3    3    0    0 -0.12435770886E+01  0.93418770709E+02 -0.83639174222E+02  0.17712039061E+03  0.12509000000E+03 0.  0.
         25    1    3    3    0    0 -0.58800663730E+02 -0.74551587574E+02 -0.10866936645E+03  0.19097642936E+03  0.12509000000E+03 0.  0.
         25    1    3    3    0    0  0.60044240818E+02 -0.18867183135E+02 -0.11933008872E+03  0.18397950872E+03  0.12509000000E+03 0.  0.
<mgrwt>
<rscale>  2 0.45570784E+03</rscale>
<asrwt>0</asrwt>
<pdfrwt beam="1">  1       21 0.17679243E-01 0.45570784E+03</pdfrwt>
<pdfrwt beam="2">  1       21 0.63508452E-01 0.45570784E+03</pdfrwt>
<totfact> 0.61385030E+04</totfact>
</mgrwt>
</event>
<event>
 6    0  0.1539652E-007  0.4549345E+03  0.7546771E-02  0.1026261E+00
         21   -1    0    0  502  501  0.00000000000E+00  0.00000000000E+00  0.29154951194E+03  0.29154951194E+03  0.00000000000E+00 0. -1.
         21   -1    0    0  501  502 -0.00000000000E+00 -0.00000000000E+00 -0.17747018280E+03  0.17747018280E+03  0.00000000000E+00 0. -1.
      99926    2    1    2    0    0  0.53290705182E-14  0.00000000000E+00  0.11407932914E+03  0.46901969474E+03  0.45493447958E+03 0.  0.
         25    1    3    3    0    0  0.43470254395E+02 -0.49793129313E+02  0.10767809454E+03  0.17779510366E+03  0.12509000000E+03 0.  0.
         25    1    3    3    0    0 -0.51945846869E+02  0.82848007530E+02 -0.16231792693E+02  0.15960307814E+03  0.12509000000E+03 0.  0.
         25    1    3    3    0    0  0.84755924744E+01 -0.33054878217E+02  0.22633027300E+02  0.13162151293E+03  0.12509000000E+03 0.  0.
<mgrwt>
<rscale>  2 0.45493448E+03</rscale>
<asrwt>0</asrwt>
<pdfrwt beam="1">  1       21 0.42874928E-01 0.45493448E+03</pdfrwt>
<pdfrwt beam="2">  1       21 0.26098556E-01 0.45493448E+03</pdfrwt>
<totfact> 0.67543829E+04</totfact>
</mgrwt>
</event>
<event>
 6    0  0.1539652E-007  0.4529218E+03  0.7546771E-02  0.1026854E+00
         21   -1    0    0  502  501  0.00000000000E+00  0.00000000000E+00  0.29328396436E+03  0.29328396436E+03  0.00000000000E+00 0. -1.
         21   -1    0    0  501  502 -0.00000000000E+00 -0.00000000000E+00 -0.17486308405E+03  0.17486308405E+03  0.00000000000E+00 0. -1.
      99926    2    1    2    0    0  0.88817841970E-15  0.00000000000E+00  0.11842088031E+03  0.46814704840E+03  0.45292179682E+03 0.  0.
         25    1    3    3    0    0 -0.10575271725E+02  0.70929129634E+02 -0.46057493200E+02  0.15136571138E+03  0.12509000000E+03 0.  0.
         25    1    3    3    0    0 -0.26433459751E+01 -0.73127595300E+02  0.89249129458E+02  0.17019855370E+03  0.12509000000E+03 0.  0.
         25    1    3    3    0    0  0.13218617701E+02  0.21984656654E+01  0.75229244054E+02  0.14658278332E+03  0.12509000000E+03 0.  0.
<mgrwt>
<rscale>  2 0.45292180E+03</rscale>
<asrwt>0</asrwt>
<pdfrwt beam="1">  1       21 0.43129995E-01 0.45292180E+03</pdfrwt>
<pdfrwt beam="2">  1       21 0.25715159E-01 0.45292180E+03</pdfrwt>
<totfact> 0.68699408E+04</totfact>
</mgrwt>
</event>
<event>
 6    0  0.1539652E-007  0.4535971E+03  0.7546771E-02  0.1026655E+00
         21   -1    0    0  502  501  0.00000000000E+00  0.00000000000E+00  0.32105522720E+03  0.32105522720E+03  0.00000000000E+00 0.  1.
         21   -1    0    0  501  502 -0.00000000000E+00 -0.00000000000E+00 -0.16021414350E+03  0.16021414350E+03  0.00000000000E+00 0.  1.
      99926    2    1    2    0    0 -0.35527136788E-14  0.35527136788E-14  0.16084108370E+03  0.48126937071E+03  0.45359712629E+03 0.  0.
         25    1    3    3    0    0  0.57339141035E+02  0.15430483362E+02  0.43775180888E+02  0.14522276500E+03  0.12509000000E+03 0.  0.
         25    1    3    3    0    0  0.26816844276E+02  0.30417250314E+02  0.12059852195E+03  0.17842607391E+03  0.12509000000E+03 0.  0.
         25    1    3    3    0    0 -0.84155985311E+02 -0.45847733676E+02 -0.35326191446E+01  0.15762053180E+03  0.12509000000E+03 0.  0.
<mgrwt>
<rscale>  2 0.45359713E+03</rscale>
<asrwt>0</asrwt>
<pdfrwt beam="1">  1       21 0.47214004E-01 0.45359713E+03</pdfrwt>
<pdfrwt beam="2">  1       21 0.23560903E-01 0.45359713E+03</pdfrwt>
<totfact> 0.67354751E+04</totfact>
</mgrwt>
</event>
<event>
 6    0  0.1539652E-007  0.4563297E+03  0.7546771E-02  0.1025851E+00
         21   -1    0    0  502  501  0.00000000000E+00  0.00000000000E+00  0.19054740756E+03  0.19054740756E+03  0.00000000000E+00 0. -1.
         21   -1    0    0  501  502 -0.00000000000E+00 -0.00000000000E+00 -0.27320869796E+03  0.27320869796E+03  0.00000000000E+00 0. -1.
      99926    2    1    2    0    0 -0.35527136788E-14  0.00000000000E+00 -0.82661290392E+02  0.46375610552E+03  0.45632974533E+03 0.  0.
         25    1    3    3    0    0  0.30761513980E+02 -0.70565838768E+02 -0.32573073599E+02  0.15044707231E+03  0.12509000000E+03 0.  0.
         25    1    3    3    0    0 -0.39587187127E+02  0.26142617578E+02 -0.10431411429E+03  0.16964528988E+03  0.12509000000E+03 0.  0.
         25    1    3    3    0    0  0.88256731471E+01  0.44423221190E+02  0.54225897497E+02  0.14366374333E+03  0.12509000000E+03 0.  0.
<mgrwt>
<rscale>  2 0.45632975E+03</rscale>
<asrwt>0</asrwt>
<pdfrwt beam="1">  1       21 0.28021678E-01 0.45632975E+03</pdfrwt>
<pdfrwt beam="2">  1       21 0.40177750E-01 0.45632975E+03</pdfrwt>
<totfact> 0.67189520E+04</totfact>
</mgrwt>
</event>
<event>
 6    0  0.1539652E-007  0.4545019E+03  0.7546771E-02  0.1026388E+00
         21   -1    0    0  502  501  0.00000000000E+00  0.00000000000E+00  0.50867474549E+02  0.50867474549E+02  0.00000000000E+00 0. -1.
         21   -1    0    0  501  502 -0.00000000000E+00 -0.00000000000E+00 -0.10152460699E+04  0.10152460699E+04  0.00000000000E+00 0. -1.
      99926    2    1    2    0    0  0.00000000000E+00 -0.17763568394E-14 -0.96437859532E+03  0.10661135444E+04  0.45450194112E+03 0.  0.
         25    1    3    3    0    0  0.38800958319E+02 -0.46367406955E+02 -0.16123666860E+03  0.21283848852E+03  0.12509000000E+03 0.  0.
         25    1    3    3    0    0  0.37200888206E+02 -0.10292964322E+02 -0.38490739109E+03  0.40656003126E+03  0.12509000000E+03 0.  0.
         25    1    3    3    0    0 -0.76001846525E+02  0.56660371277E+02 -0.41823453563E+03  0.44671502465E+03  0.12509000000E+03 0.  0.
<mgrwt>
<rscale>  2 0.45450194E+03</rscale>
<asrwt>0</asrwt>
<pdfrwt beam="1">  1       21 0.74805108E-02 0.45450194E+03</pdfrwt>
<pdfrwt beam="2">  1       21 0.14930090E+00 0.45450194E+03</pdfrwt>
<totfact> 0.36834598E+04</totfact>
</mgrwt>
</event>
<event>
 6    0  0.1539652E-007  0.4472933E+03  0.7546771E-02  0.1028532E+00
         21   -1    0    0  502  501  0.00000000000E+00  0.00000000000E+00  0.21472477440E+03  0.21472477440E+03  0.00000000000E+00 0. -1.
         21   -1    0    0  501  502 -0.00000000000E+00 -0.00000000000E+00 -0.23293918517E+03  0.23293918517E+03  0.00000000000E+00 0. -1.
      99926    2    1    2    0    0 -0.55511151231E-15  0.00000000000E+00 -0.18214410772E+02  0.44766395958E+03  0.44729325497E+03 0.  0.
         25    1    3    3    0    0  0.93003780204E+01 -0.27265355437E+02 -0.10139309460E+03  0.16357861832E+03  0.12509000000E+03 0.  0.
         25    1    3    3    0    0  0.92941101344E+00  0.32925330614E+02 -0.68315940657E+01  0.12953424249E+03  0.12509000000E+03 0.  0.
         25    1    3    3    0    0 -0.10229789034E+02 -0.56599751769E+01  0.90010277896E+02  0.15455109877E+03  0.12509000000E+03 0.  0.
<mgrwt>
<rscale>  2 0.44729325E+03</rscale>
<asrwt>0</asrwt>
<pdfrwt beam="1">  1       21 0.31577173E-01 0.44729325E+03</pdfrwt>
<pdfrwt beam="2">  1       21 0.34255763E-01 0.44729325E+03</pdfrwt>
<totfact> 0.73503527E+04</totfact>
</mgrwt>
</event>
<event>
 6    0  0.1539652E-007  0.4556947E+03  0.7546771E-02  0.1026037E+00
         21   -1    0    0  502  501  0.00000000000E+00  0.00000000000E+00  0.51002303175E+03  0.51002303175E+03  0.00000000000E+00 0.  1.
         21   -1    0    0  501  502 -0.00000000000E+00 -0.00000000000E+00 -0.10178836965E+03  0.10178836965E+03  0.00000000000E+00 0.  1.
      99926    2    1    2    0    0  0.00000000000E+00 -0.17763568394E-14  0.40823466210E+03  0.61181140140E+03  0.45569469115E+03 0.  0.
         25    1    3    3    0    0  0.14949548447E+01  0.53479628881E+02  0.10834490304E+03  0.17392076273E+03  0.12509000000E+03 0.  0.
         25    1    3    3    0    0  0.73563764862E+02  0.15409522148E+02  0.20195237018E+03  0.24916129073E+03  0.12509000000E+03 0.  0.
         25    1    3    3    0    0 -0.75058719707E+02 -0.68889151030E+02  0.97937388882E+02  0.18872934794E+03  0.12509000000E+03 0.  0.
<mgrwt>
<rscale>  2 0.45569469E+03</rscale>
<asrwt>0</asrwt>
<pdfrwt beam="1">  1       21 0.75003386E-01 0.45569469E+03</pdfrwt>
<pdfrwt beam="2">  1       21 0.14968878E-01 0.45569469E+03</pdfrwt>
<totfact> 0.57640149E+04</totfact>
</mgrwt>
</event>
<event>
 6    0  0.1539652E-007  0.4811960E+03  0.7546771E-02  0.1018807E+00
         21   -1    0    0  502  501  0.00000000000E+00  0.00000000000E+00  0.10308521069E+03  0.10308521069E+03  0.00000000000E+00 0. -1.
         21   -1    0    0  501  502 -0.00000000000E+00 -0.00000000000E+00 -0.56154898974E+03  0.56154898974E+03  0.00000000000E+00 0. -1.
      99926    2    1    2    0    0  0.44408920985E-15  0.00000000000E+00 -0.45846377905E+03  0.66463420042E+03  0.48119599300E+03 0.  0.
         25    1    3    3    0    0  0.22559411397E+02 -0.22730480221E+02 -0.10127856586E+03  0.16410502057E+03  0.12509000000E+03 0.  0.
         25    1    3    3    0    0  0.33994454446E+01  0.70107797816E+02 -0.33241182567E+03  0.36203838124E+03  0.12509000000E+03 0.  0.
         25    1    3    3    0    0 -0.25958856842E+02 -0.47377317595E+02 -0.24773387510E+02  0.13849079861E+03  0.12509000000E+03 0.  0.
<mgrwt>
<rscale>  2 0.48119599E+03</rscale>
<asrwt>0</asrwt>
<pdfrwt beam="1">  1       21 0.15159590E-01 0.48119599E+03</pdfrwt>
<pdfrwt beam="2">  1       21 0.82580735E-01 0.48119599E+03</pdfrwt>
<totfact> 0.44855127E+04</totfact>
</mgrwt>
</event>
<event>
 6    0  0.1539652E-007  0.4675706E+03  0.7546771E-02  0.1022608E+00
         21   -1    0    0  502  501  0.00000000000E+00  0.00000000000E+00  0.71455042202E+02  0.71455042202E+02  0.00000000000E+00 0.  1.
         21   -1    0    0  501  502 -0.00000000000E+00 -0.00000000000E+00 -0.76489440483E+03  0.76489440483E+03  0.00000000000E+00 0.  1.
      99926    2    1    2    0    0  0.55511151231E-14  0.00000000000E+00 -0.69343936263E+03  0.83634944704E+03  0.46757058067E+03 0.  0.
         25    1    3    3    0    0  0.64432689752E+00  0.57509897618E+02 -0.16476163911E+03  0.21471308601E+03  0.12509000000E+03 0.  0.
         25    1    3    3    0    0  0.67090938706E+02 -0.10439854630E+03 -0.26118132858E+03  0.31506101794E+03  0.12509000000E+03 0.  0.
         25    1    3    3    0    0 -0.67735265603E+02  0.46888648686E+02 -0.26749639494E+03  0.30657534308E+03  0.12509000000E+03 0.  0.
<mgrwt>
<rscale>  2 0.46757058E+03</rscale>
<asrwt>0</asrwt>
<pdfrwt beam="1">  1       21 0.10508095E-01 0.46757058E+03</pdfrwt>
<pdfrwt beam="2">  1       21 0.11248447E+00 0.46757058E+03</pdfrwt>
<totfact> 0.41780690E+04</totfact>
</mgrwt>
</event>
<event>
 6    0  0.1539652E-007  0.4549920E+03  0.7546771E-02  0.1026244E+00
         21   -1    0    0  502  501  0.00000000000E+00  0.00000000000E+00  0.45042449939E+03  0.45042449939E+03  0.00000000000E+00 0. -1.
         21   -1    0    0  501  502 -0.00000000000E+00 -0.00000000000E+00 -0.11490144444E+03  0.11490144444E+03  0.00000000000E+00 0. -1.
      99926    2    1    2    0    0  0.00000000000E+00  0.14210854715E-13  0.33552305495E+03  0.56532594383E+03  0.45499198055E+03 0.  0.
         25    1    3    3    0    0  0.40167684166E+02 -0.15398284398E+02  0.12754630756E+03  0.18375559498E+03  0.12509000000E+03 0.  0.
         25    1    3    3    0    0 -0.12837059394E+02  0.10482657495E+03  0.10856237086E+03  0.19643496984E+03  0.12509000000E+03 0.  0.
         25    1    3    3    0    0 -0.27330624772E+02 -0.89428290551E+02  0.99414376525E+02  0.18513537901E+03  0.12509000000E+03 0.  0.
<mgrwt>
<rscale>  2 0.45499198E+03</rscale>
<asrwt>0</asrwt>
<pdfrwt beam="1">  1       21 0.66238896E-01 0.45499198E+03</pdfrwt>
<pdfrwt beam="2">  1       21 0.16897271E-01 0.45499198E+03</pdfrwt>
<totfact> 0.60868839E+04</totfact>
</mgrwt>
</event>
<event>
 6    0  0.1539652E-007  0.4677898E+03  0.7546771E-02  0.1022546E+00
         21   -1    0    0  502  501  0.00000000000E+00  0.00000000000E+00  0.27010135185E+03  0.27010135185E+03  0.00000000000E+00 0. -1.
         21   -1    0    0  501  502 -0.00000000000E+00 -0.00000000000E+00 -0.20254184985E+03  0.20254184985E+03  0.00000000000E+00 0. -1.
      99926    2    1    2    0    0  0.28865798640E-14 -0.17763568394E-14  0.67559501995E+02  0.47264320170E+03  0.46778981371E+03 0.  0.
         25    1    3    3    0    0  0.53295978923E+02 -0.89707178794E+02 -0.33234101516E+02  0.16625237713E+03  0.12509000000E+03 0.  0.
         25    1    3    3    0    0 -0.51782828771E+02  0.77931556203E+02  0.89980660208E+02  0.18027428025E+03  0.12509000000E+03 0.  0.
         25    1    3    3    0    0 -0.15131501512E+01  0.11775622591E+02  0.10812943303E+02  0.12611654433E+03  0.12509000000E+03 0.  0.
<mgrwt>
<rscale>  2 0.46778981E+03</rscale>
<asrwt>0</asrwt>
<pdfrwt beam="1">  1       21 0.39720787E-01 0.46778981E+03</pdfrwt>
<pdfrwt beam="2">  1       21 0.29785566E-01 0.46778981E+03</pdfrwt>
<totfact> 0.60823329E+04</totfact>
</mgrwt>
</event>
<event>
 6    0  0.1539652E-007  0.4548791E+03  0.7546771E-02  0.1026277E+00
         21   -1    0    0  502  501  0.00000000000E+00  0.00000000000E+00  0.10874329082E+03  0.10874329082E+03  0.00000000000E+00 0. -1.
         21   -1    0    0  501  502 -0.00000000000E+00 -0.00000000000E+00 -0.47569590638E+03  0.47569590638E+03  0.00000000000E+00 0. -1.
      99926    2    1    2    0    0  0.71054273576E-14  0.71054273576E-14 -0.36695261556E+03  0.58443919720E+03  0.45487905332E+03 0.  0.
         25    1    3    3    0    0  0.58342724965E+02 -0.49564539486E+02 -0.15013743947E+03  0.20987919374E+03  0.12509000000E+03 0.  0.
         25    1    3    3    0    0 -0.11566996056E+02  0.96065783630E+02 -0.77749137255E+02  0.17622391048E+03  0.12509000000E+03 0.  0.
         25    1    3    3    0    0 -0.46775728910E+02 -0.46501244143E+02 -0.13906603883E+03  0.19833609298E+03  0.12509000000E+03 0.  0.
<mgrwt>
<rscale>  2 0.45487905E+03</rscale>
<asrwt>0</asrwt>
<pdfrwt beam="1">  1       21 0.15991660E-01 0.45487905E+03</pdfrwt>
<pdfrwt beam="2">  1       21 0.69955282E-01 0.45487905E+03</pdfrwt>
<totfact> 0.59703503E+04</totfact>
</mgrwt>
</event>
<event>
 6    0  0.1539652E-007  0.4555064E+03  0.7546771E-02  0.1026093E+00
         21   -1    0    0  502  501  0.00000000000E+00  0.00000000000E+00  0.63256563372E+03  0.63256563372E+03  0.00000000000E+00 0.  1.
         21   -1    0    0  501  502 -0.00000000000E+00 -0.00000000000E+00 -0.82001801089E+02  0.82001801089E+02  0.00000000000E+00 0.  1.
      99926    2    1    2    0    0  0.22204460493E-15  0.71054273576E-14  0.55056383263E+03  0.71456743481E+03  0.45550640510E+03 0.  0.
         25    1    3    3    0    0  0.53327967457E+02  0.89513886760E+02  0.29280324433E+03  0.33501918755E+03  0.12509000000E+03 0.  0.
         25    1    3    3    0    0 -0.57584421123E+00 -0.37691682183E+02  0.14817617418E+03  0.19754665575E+03  0.12509000000E+03 0.  0.
         25    1    3    3    0    0 -0.52752123246E+02 -0.51822204577E+02  0.10958441411E+03  0.18200159151E+03  0.12509000000E+03 0.  0.
<mgrwt>
<rscale>  2 0.45550641E+03</rscale>
<asrwt>0</asrwt>
<pdfrwt beam="1">  1       21 0.93024356E-01 0.45550641E+03</pdfrwt>
<pdfrwt beam="2">  1       21 0.12059089E-01 0.45550641E+03</pdfrwt>
<totfact> 0.51912080E+04</totfact>
</mgrwt>
</event>
<event>
 6    0  0.1539652E-007  0.4544465E+03  0.7546771E-02  0.1026404E+00
         21   -1    0    0  502  501  0.00000000000E+00  0.00000000000E+00  0.65139593856E+02  0.65139593856E+02  0.00000000000E+00 0. -1.
         21   -1    0    0  501  502 -0.00000000000E+00 -0.00000000000E+00 -0.79261161308E+03  0.79261161308E+03  0.00000000000E+00 0. -1.
      99926    2    1    2    0    0  0.00000000000E+00  0.00000000000E+00 -0.72747201922E+03  0.85775120694E+03  0.45444647017E+03 0.  0.
         25    1    3    3    0    0  0.35735244261E+02  0.52179237329E+02 -0.15883689372E+03  0.21184038189E+03  0.12509000000E+03 0.  0.
         25    1    3    3    0    0 -0.16953941933E+02 -0.10379279130E+03 -0.37366910655E+03  0.40784370654E+03  0.12509000000E+03 0.  0.
         25    1    3    3    0    0 -0.18781302328E+02  0.51613553971E+02 -0.19496601895E+03  0.23806711851E+03  0.12509000000E+03 0.  0.
<mgrwt>
<rscale>  2 0.45444647E+03</rscale>
<asrwt>0</asrwt>
<pdfrwt beam="1">  1       21 0.95793529E-02 0.45444647E+03</pdfrwt>
<pdfrwt beam="2">  1       21 0.11656052E+00 0.45444647E+03</pdfrwt>
<totfact> 0.45290913E+04</totfact>
</mgrwt>
</event>
<event>
 6    0  0.1539652E-007  0.4526537E+03  0.7546771E-02  0.1026934E+00
         21   -1    0    0  502  501  0.00000000000E+00  0.00000000000E+00  0.28148036518E+03  0.28148036518E+03  0.00000000000E+00 0.  1.
         21   -1    0    0  501  502 -0.00000000000E+00 -0.00000000000E+00 -0.18198013536E+03  0.18198013536E+03  0.00000000000E+00 0.  1.
      99926    2    1    2    0    0  0.00000000000E+00  0.00000000000E+00  0.99500229822E+02  0.46346050054E+03  0.45265366432E+03 0.  0.
         25    1    3    3    0    0 -0.23910297780E+02 -0.98013655011E+02  0.70774792517E+02  0.17559885610E+03  0.12509000000E+03 0.  0.
         25    1    3    3    0    0  0.37072091210E+02  0.55800500255E+02  0.55756417297E+02  0.15246088661E+03  0.12509000000E+03 0.  0.
         25    1    3    3    0    0 -0.13161793430E+02  0.42213154756E+02 -0.27030979992E+02  0.13540075783E+03  0.12509000000E+03 0.  0.
<mgrwt>
<rscale>  2 0.45265366E+03</rscale>
<asrwt>0</asrwt>
<pdfrwt beam="1">  1       21 0.41394172E-01 0.45265366E+03</pdfrwt>
<pdfrwt beam="2">  1       21 0.26761785E-01 0.45265366E+03</pdfrwt>
<totfact> 0.69204729E+04</totfact>
</mgrwt>
</event>
<event>
 6    0  0.1539652E-007  0.4513233E+03  0.7546771E-02  0.1027328E+00
         21   -1    0    0  502  501  0.00000000000E+00  0.00000000000E+00  0.45234820509E+02  0.45234820509E+02  0.00000000000E+00 0.  1.
         21   -1    0    0  501  502 -0.00000000000E+00 -0.00000000000E+00 -0.11257515594E+04  0.11257515594E+04  0.00000000000E+00 0.  1.
      99926    2    1    2    0    0 -0.71054273576E-14  0.00000000000E+00 -0.10805167389E+04  0.11709863799E+04  0.45132325323E+03 0.  0.
         25    1    3    3    0    0  0.38337017068E+02 -0.30811182864E+02 -0.24228157709E+03  0.27706845105E+03  0.12509000000E+03 0.  0.
         25    1    3    3    0    0  0.35306955070E+02  0.33971737276E+02 -0.21131340303E+03  0.25040272045E+03  0.12509000000E+03 0.  0.
         25    1    3    3    0    0 -0.73643972138E+02 -0.31605544120E+01 -0.62692175877E+03  0.64351520841E+03  0.12509000000E+03 0.  0.
<mgrwt>
<rscale>  2 0.45132325E+03</rscale>
<asrwt>0</asrwt>
<pdfrwt beam="1">  1       21 0.66521799E-02 0.45132325E+03</pdfrwt>
<pdfrwt beam="2">  1       21 0.16555169E+00 0.45132325E+03</pdfrwt>
<totfact> 0.34054589E+04</totfact>
</mgrwt>
</event>
<event>
 6    0  0.1539652E-007  0.4483039E+03  0.7546771E-02  0.1028229E+00
         21   -1    0    0  502  501  0.00000000000E+00  0.00000000000E+00  0.16196031221E+03  0.16196031221E+03  0.00000000000E+00 0. -1.
         21   -1    0    0  501  502 -0.00000000000E+00 -0.00000000000E+00 -0.31022481061E+03  0.31022481061E+03  0.00000000000E+00 0. -1.
      99926    2    1    2    0    0  0.00000000000E+00  0.00000000000E+00 -0.14826449840E+03  0.47218512282E+03  0.44830394681E+03 0.  0.
         25    1    3    3    0    0 -0.38623339415E+02  0.52384069445E+02  0.52873878479E+01  0.14110746844E+03  0.12509000000E+03 0.  0.
         25    1    3    3    0    0  0.65134520740E+02  0.25590328343E+02 -0.81405232753E+02  0.16483837756E+03  0.12509000000E+03 0.  0.
         25    1    3    3    0    0 -0.26511181326E+02 -0.77974397789E+02 -0.72146653495E+02  0.16623927682E+03  0.12509000000E+03 0.  0.
<mgrwt>
<rscale>  2 0.44830395E+03</rscale>
<asrwt>0</asrwt>
<pdfrwt beam="1">  1       21 0.23817693E-01 0.44830395E+03</pdfrwt>
<pdfrwt beam="2">  1       21 0.45621295E-01 0.44830395E+03</pdfrwt>
<totfact> 0.70970670E+04</totfact>
</mgrwt>
</event>
<event>
 6    0  0.1539652E-007  0.4484052E+03  0.7546771E-02  0.1028199E+00
         21   -1    0    0  502  501  0.00000000000E+00  0.00000000000E+00  0.14359686409E+04  0.14359686409E+04  0.00000000000E+00 0.  1.
         21   -1    0    0  501  502 -0.00000000000E+00 -0.00000000000E+00 -0.35005510616E+02  0.35005510616E+02  0.00000000000E+00 0.  1.
      99926    2    1    2    0    0  0.17763568394E-14  0.71054273576E-14  0.14009631303E+04  0.14709741516E+04  0.44840524307E+03 0.  0.
         25    1    3    3    0    0 -0.46488062322E+02 -0.36159638999E+02  0.22895644492E+03  0.26746442979E+03  0.12509000000E+03 0.  0.
         25    1    3    3    0    0  0.60387951145E+02  0.47397944129E+02  0.66340736443E+03  0.67944838585E+03  0.12509000000E+03 0.  0.
         25    1    3    3    0    0 -0.13899888823E+02 -0.11238305130E+02  0.50859932097E+03  0.52406133592E+03  0.12509000000E+03 0.  0.
<mgrwt>
<rscale>  2 0.44840524E+03</rscale>
<asrwt>0</asrwt>
<pdfrwt beam="1">  1       21 0.21117182E+00 0.44840524E+03</pdfrwt>
<pdfrwt beam="2">  1       21 0.51478702E-02 0.44840524E+03</pdfrwt>
<totfact> 0.25795960E+04</totfact>
</mgrwt>
</event>
<event>
 6    0  0.1539652E-007  0.4581632E+03  0.7546771E-02  0.1025315E+00
         21   -1    0    0  502  501  0.00000000000E+00  0.00000000000E+00  0.77193209627E+02  0.77193209627E+02  0.00000000000E+00 0. -1.
         21   -1    0    0  501  502 -0.00000000000E+00 -0.00000000000E+00 -0.67983161332E+03  0.67983161332E+03  0.00000000000E+00 0. -1.
      99926    2    1    2    0    0 -0.71054273576E-14  0.14210854715E-13 -0.60263840369E+03  0.75702482295E+03  0.45816322086E+03 0.  0.
         25    1    3    3    0    0 -0.17388309175E+02  0.34247230146E+02 -0.17274038879E+03  0.21670712053E+03  0.12509000000E+03 0.  0.
         25    1    3    3    0    0 -0.24820705972E+02  0.33298187477E+02 -0.34527389827E+03  0.36957598631E+03  0.12509000000E+03 0.  0.
         25    1    3    3    0    0  0.42209015146E+02 -0.67545417623E+02 -0.84624116632E+02  0.17074171610E+03  0.12509000000E+03 0.  0.
<mgrwt>
<rscale>  2 0.45816322E+03</rscale>
<asrwt>0</asrwt>
<pdfrwt beam="1">  1       21 0.11351943E-01 0.45816322E+03</pdfrwt>
<pdfrwt beam="2">  1       21 0.99975231E-01 0.45816322E+03</pdfrwt>
<totfact> 0.48692228E+04</totfact>
</mgrwt>
</event>
<event>
 6    0  0.1539652E-007  0.4412528E+03  0.7546771E-02  0.1030363E+00
         21   -1    0    0  502  501  0.00000000000E+00  0.00000000000E+00  0.61054117314E+03  0.61054117314E+03  0.00000000000E+00 0.  1.
         21   -1    0    0  501  502 -0.00000000000E+00 -0.00000000000E+00 -0.79726019030E+02  0.79726019030E+02  0.00000000000E+00 0.  1.
      99926    2    1    2    0    0 -0.17763568394E-14  0.26645352591E-14  0.53081515411E+03  0.69026719217E+03  0.44125283994E+03 0.  0.
         25    1    3    3    0    0 -0.85469857456E+01 -0.53886867216E+02  0.22200273680E+03  0.26059464436E+03  0.12509000000E+03 0.  0.
         25    1    3    3    0    0  0.20486689396E+02  0.56129685216E+02  0.26038169752E+03  0.29498539372E+03  0.12509000000E+03 0.  0.
         25    1    3    3    0    0 -0.11939703650E+02 -0.22428180000E+01  0.48430719784E+02  0.13468715408E+03  0.12509000000E+03 0.  0.
<mgrwt>
<rscale>  2 0.44125284E+03</rscale>
<asrwt>0</asrwt>
<pdfrwt beam="1">  1       21 0.89785464E-01 0.44125284E+03</pdfrwt>
<pdfrwt beam="2">  1       21 0.11724415E-01 0.44125284E+03</pdfrwt>
<totfact> 0.59630180E+04</totfact>
</mgrwt>
</event>
<event>
 6    0  0.1539652E-007  0.4513840E+03  0.7546771E-02  0.1027310E+00
         21   -1    0    0  502  501  0.00000000000E+00  0.00000000000E+00  0.20482942559E+03  0.20482942559E+03  0.00000000000E+00 0.  1.
         21   -1    0    0  501  502 -0.00000000000E+00 -0.00000000000E+00 -0.24867949683E+03  0.24867949683E+03  0.00000000000E+00 0.  1.
      99926    2    1    2    0    0  0.35527136788E-14  0.00000000000E+00 -0.43850071239E+02  0.45350892243E+03  0.45138399836E+03 0.  0.
         25    1    3    3    0    0  0.25108633453E+02  0.40791491618E+02  0.59279515198E+02  0.14647852499E+03  0.12509000000E+03 0.  0.
         25    1    3    3    0    0 -0.35591796926E+02  0.25580053701E+02 -0.98181521856E+02  0.16494918760E+03  0.12509000000E+03 0.  0.
         25    1    3    3    0    0  0.10483163473E+02 -0.66371545320E+02 -0.49480645809E+01  0.14208120983E+03  0.12509000000E+03 0.  0.
<mgrwt>
<rscale>  2 0.45138400E+03</rscale>
<asrwt>0</asrwt>
<pdfrwt beam="1">  1       21 0.30121974E-01 0.45138400E+03</pdfrwt>
<pdfrwt beam="2">  1       21 0.36570514E-01 0.45138400E+03</pdfrwt>
<totfact> 0.70672195E+04</totfact>
</mgrwt>
</event>
<event>
 6    0  0.1539652E-007  0.4537484E+03  0.7546771E-02  0.1026610E+00
         21   -1    0    0  502  501  0.00000000000E+00  0.00000000000E+00  0.14143753282E+03  0.14143753282E+03  0.00000000000E+00 0. -1.
         21   -1    0    0  501  502 -0.00000000000E+00 -0.00000000000E+00 -0.36391969721E+03  0.36391969721E+03  0.00000000000E+00 0. -1.
      99926    2    1    2    0    0 -0.17763568394E-14  0.14210854715E-13 -0.22248216440E+03  0.50535723003E+03  0.45374840658E+03 0.  0.
         25    1    3    3    0    0 -0.29487876094E+02  0.63437750872E+02 -0.32284696230E+02  0.14691389581E+03  0.12509000000E+03 0.  0.
         25    1    3    3    0    0 -0.15805163909E+02 -0.93765238371E+02 -0.55318949000E+02  0.16658156366E+03  0.12509000000E+03 0.  0.
         25    1    3    3    0    0  0.45293040003E+02  0.30327487499E+02 -0.13487851916E+03  0.19186177056E+03  0.12509000000E+03 0.  0.
<mgrwt>
<rscale>  2 0.45374841E+03</rscale>
<asrwt>0</asrwt>
<pdfrwt beam="1">  1       21 0.20799637E-01 0.45374841E+03</pdfrwt>
<pdfrwt beam="2">  1       21 0.53517602E-01 0.45374841E+03</pdfrwt>
<totfact> 0.65544621E+04</totfact>
</mgrwt>
</event>
<event>
 6    0  0.1539652E-007  0.4478728E+03  0.7546771E-02  0.1028358E+00
         21   -1    0    0  502  501  0.00000000000E+00  0.00000000000E+00  0.14610977527E+03  0.14610977527E+03  0.00000000000E+00 0. -1.
         21   -1    0    0  501  502 -0.00000000000E+00 -0.00000000000E+00 -0.34321807888E+03  0.34321807888E+03  0.00000000000E+00 0. -1.
      99926    2    1    2    0    0  0.00000000000E+00  0.00000000000E+00 -0.19710830361E+03  0.48932785415E+03  0.44787282291E+03 0.  0.
         25    1    3    3    0    0  0.49899362762E+01 -0.46450583179E+01 -0.11731450444E+03  0.17162947615E+03  0.12509000000E+03 0.  0.
         25    1    3    3    0    0 -0.61216093362E+02  0.87402926199E+01 -0.10942601918E+03  0.17732840882E+03  0.12509000000E+03 0.  0.
         25    1    3    3    0    0  0.56226157086E+02 -0.40952343020E+01  0.29632220014E+02  0.14036996918E+03  0.12509000000E+03 0.  0.
<mgrwt>
<rscale>  2 0.44787282E+03</rscale>
<asrwt>0</asrwt>
<pdfrwt beam="1">  1       21 0.21486732E-01 0.44787282E+03</pdfrwt>
<pdfrwt beam="2">  1       21 0.50473246E-01 0.44787282E+03</pdfrwt>
<totfact> 0.69899061E+04</totfact>
</mgrwt>
</event>
<event>
 6    0  0.1539652E-007  0.4568385E+03  0.7546771E-02  0.1025702E+00
         21   -1    0    0  502  501  0.00000000000E+00  0.00000000000E+00  0.84769461407E+03  0.84769461407E+03  0.00000000000E+00 0. -1.
         21   -1    0    0  501  502 -0.00000000000E+00 -0.00000000000E+00 -0.61549694133E+02  0.61549694133E+02  0.00000000000E+00 0. -1.
      99926    2    1    2    0    0 -0.35527136788E-14  0.71054273576E-14  0.78614491994E+03  0.90924430820E+03  0.45683845816E+03 0.  0.
         25    1    3    3    0    0 -0.40496706653E+02 -0.42509477591E+02  0.12576399716E+03  0.18684520336E+03  0.12509000000E+03 0.  0.
         25    1    3    3    0    0  0.17065048457E+02 -0.44520462371E+02  0.37262271762E+03  0.39594000207E+03  0.12509000000E+03 0.  0.
         25    1    3    3    0    0  0.23431658197E+02  0.87029939963E+02  0.28775820515E+03  0.32645910278E+03  0.12509000000E+03 0.  0.
<mgrwt>
<rscale>  2 0.45683846E+03</rscale>
<asrwt>0</asrwt>
<pdfrwt beam="1">  1       21 0.12466097E+00 0.45683846E+03</pdfrwt>
<pdfrwt beam="2">  1       21 0.90514261E-02 0.45683846E+03</pdfrwt>
<totfact> 0.42225446E+04</totfact>
</mgrwt>
</event>
<event>
 6    0  0.1539652E-007  0.4786476E+03  0.7546771E-02  0.1019508E+00
         21   -1    0    0  502  501  0.00000000000E+00  0.00000000000E+00  0.33493227103E+02  0.33493227103E+02  0.00000000000E+00 0. -1.
         21   -1    0    0  501  502 -0.00000000000E+00 -0.00000000000E+00 -0.17100734096E+04  0.17100734096E+04  0.00000000000E+00 0. -1.
      99926    2    1    2    0    0  0.00000000000E+00  0.14210854715E-13 -0.16765801825E+04  0.17435666367E+04  0.47864758255E+03 0.  0.
         25    1    3    3    0    0 -0.35548141217E+01 -0.53887108088E+02 -0.65991693175E+03  0.67383553040E+03  0.12509000000E+03 0.  0.
         25    1    3    3    0    0  0.49821260810E+01 -0.71145064028E+02 -0.60088275973E+03  0.61789484603E+03  0.12509000000E+03 0.  0.
         25    1    3    3    0    0 -0.14273119593E+01  0.12503217212E+03 -0.41578049106E+03  0.45183626031E+03  0.12509000000E+03 0.  0.
<mgrwt>
<rscale>  2 0.47864758E+03</rscale>
<asrwt>0</asrwt>
<pdfrwt beam="1">  1       21 0.49254747E-02 0.47864758E+03</pdfrwt>
<pdfrwt beam="2">  1       21 0.25148138E+00 0.47864758E+03</pdfrwt>
<totfact> 0.15351775E+04</totfact>
</mgrwt>
</event>
<event>
 6    0  0.1539652E-007  0.4517340E+03  0.7546771E-02  0.1027206E+00
         21   -1    0    0  502  501  0.00000000000E+00  0.00000000000E+00  0.57450602400E+03  0.57450602400E+03  0.00000000000E+00 0. -1.
         21   -1    0    0  501  502 -0.00000000000E+00 -0.00000000000E+00 -0.88799603996E+02  0.88799603996E+02  0.00000000000E+00 0. -1.
      99926    2    1    2    0    0  0.00000000000E+00  0.00000000000E+00  0.48570642000E+03  0.66330562799E+03  0.45173402539E+03 0.  0.
         25    1    3    3    0    0  0.20318343440E+02 -0.25532469292E+02  0.74295311291E+02  0.14910413625E+03  0.12509000000E+03 0.  0.
         25    1    3    3    0    0 -0.13339336592E+02 -0.68495698359E+02  0.13688048075E+03  0.19812463932E+03  0.12509000000E+03 0.  0.
         25    1    3    3    0    0 -0.69790068476E+01  0.94028167651E+02  0.27453062796E+03  0.31607685242E+03  0.12509000000E+03 0.  0.
<mgrwt>
<rscale>  2 0.45173403E+03</rscale>
<asrwt>0</asrwt>
<pdfrwt beam="1">  1       21 0.84486178E-01 0.45173403E+03</pdfrwt>
<pdfrwt beam="2">  1       21 0.13058766E-01 0.45173403E+03</pdfrwt>
<totfact> 0.56378418E+04</totfact>
</mgrwt>
</event>
<event>
 6    0  0.1539652E-007  0.4563721E+03  0.7546771E-02  0.1025839E+00
         21   -1    0    0  502  501  0.00000000000E+00  0.00000000000E+00  0.24843044439E+04  0.24843044439E+04  0.00000000000E+00 0.  1.
         21   -1    0    0  501  502 -0.00000000000E+00 -0.00000000000E+00 -0.20959133169E+02  0.20959133169E+02  0.00000000000E+00 0.  1.
      99926    2    1    2    0    0  0.00000000000E+00  0.00000000000E+00  0.24633453108E+04  0.25052635771E+04  0.45637207484E+03 0.  0.
         25    1    3    3    0    0 -0.44745883363E+02  0.26355944271E+02  0.52857608302E+03  0.54565283241E+03  0.12509000000E+03 0.  0.
         25    1    3    3    0    0  0.89283954926E+02  0.25737172095E+02  0.73122867339E+03  0.74764758244E+03  0.12509000000E+03 0.  0.
         25    1    3    3    0    0 -0.44538071563E+02 -0.52093116366E+02  0.12035405543E+04  0.12119631622E+04  0.12509000000E+03 0.  0.
<mgrwt>
<rscale>  2 0.45637207E+03</rscale>
<asrwt>0</asrwt>
<pdfrwt beam="1">  1       21 0.36533869E+00 0.45637207E+03</pdfrwt>
<pdfrwt beam="2">  1       21 0.30822272E-02 0.45637207E+03</pdfrwt>
<totfact> 0.70030816E+03</totfact>
</mgrwt>
</event>
<event>
 6    0  0.1539652E-007  0.4557124E+03  0.7546771E-02  0.1026032E+00
         21   -1    0    0  502  501  0.00000000000E+00  0.00000000000E+00  0.14890285492E+03  0.14890285492E+03  0.00000000000E+00 0. -1.
         21   -1    0    0  501  502 -0.00000000000E+00 -0.00000000000E+00 -0.34867321417E+03  0.34867321417E+03  0.00000000000E+00 0. -1.
      99926    2    1    2    0    0 -0.71054273576E-14  0.71054273576E-14 -0.19977035925E+03  0.49757606909E+03  0.45571235237E+03 0.  0.
         25    1    3    3    0    0  0.72733687665E+02  0.22974304847E+02 -0.20799213068E+02  0.14798014518E+03  0.12509000000E+03 0.  0.
         25    1    3    3    0    0 -0.18593164107E+02 -0.83047771918E+02 -0.93712153638E+02  0.17796660926E+03  0.12509000000E+03 0.  0.
         25    1    3    3    0    0 -0.54140523558E+02  0.60073467071E+02 -0.85258992541E+02  0.17162931465E+03  0.12509000000E+03 0.  0.
<mgrwt>
<rscale>  2 0.45571235E+03</rscale>
<asrwt>0</asrwt>
<pdfrwt beam="1">  1       21 0.21897479E-01 0.45571235E+03</pdfrwt>
<pdfrwt beam="2">  1       21 0.51275473E-01 0.45571235E+03</pdfrwt>
<totfact> 0.65072526E+04</totfact>
</mgrwt>
</event>
<event>
 6    0  0.1539652E-007  0.4840179E+03  0.7546771E-02  0.1018037E+00
         21   -1    0    0  502  501  0.00000000000E+00  0.00000000000E+00  0.92464400158E+03  0.92464400158E+03  0.00000000000E+00 0.  1.
         21   -1    0    0  501  502 -0.00000000000E+00 -0.00000000000E+00 -0.63341496275E+02  0.63341496275E+02  0.00000000000E+00 0.  1.
      99926    2    1    2    0    0 -0.71054273576E-14  0.00000000000E+00  0.86130250531E+03  0.98798549786E+03  0.48401791117E+03 0.  0.
         25    1    3    3    0    0 -0.71490440658E+02 -0.67011357654E+01  0.37531588417E+03  0.40207624816E+03  0.12509000000E+03 0.  0.
         25    1    3    3    0    0  0.99201921694E+02 -0.86869526762E+01  0.40018789286E+03  0.43094586912E+03  0.12509000000E+03 0.  0.
         25    1    3    3    0    0 -0.27711481035E+02  0.15388088442E+02  0.85798728275E+02  0.15496338058E+03  0.12509000000E+03 0.  0.
<mgrwt>
<rscale>  2 0.48401791E+03</rscale>
<asrwt>0</asrwt>
<pdfrwt beam="1">  1       21 0.13597705E+00 0.48401791E+03</pdfrwt>
<pdfrwt beam="2">  1       21 0.93149265E-02 0.48401791E+03</pdfrwt>
<totfact> 0.31790107E+04</totfact>
</mgrwt>
</event>
<event>
 6    0  0.1539652E-007  0.4585091E+03  0.7546771E-02  0.1025215E+00
         21   -1    0    0  502  501  0.00000000000E+00  0.00000000000E+00  0.81909950323E+03  0.81909950323E+03  0.00000000000E+00 0. -1.
         21   -1    0    0  501  502 -0.00000000000E+00 -0.00000000000E+00 -0.64165159685E+02  0.64165159685E+02  0.00000000000E+00 0. -1.
      99926    2    1    2    0    0  0.35527136788E-14  0.35527136788E-14  0.75493434354E+03  0.88326466291E+03  0.45850910753E+03 0.  0.
         25    1    3    3    0    0  0.70117407239E+02 -0.75879877699E+01  0.38969593376E+03  0.41531248144E+03  0.12509000000E+03 0.  0.
         25    1    3    3    0    0 -0.40154881530E+02  0.25497304307E+02  0.28614439910E+03  0.31589341917E+03  0.12509000000E+03 0.  0.
         25    1    3    3    0    0 -0.29962525710E+02 -0.17909316537E+02  0.79094010684E+02  0.15205876230E+03  0.12509000000E+03 0.  0.
<mgrwt>
<rscale>  2 0.45850911E+03</rscale>
<asrwt>0</asrwt>
<pdfrwt beam="1">  1       21 0.12045580E+00 0.45850911E+03</pdfrwt>
<pdfrwt beam="2">  1       21 0.94360534E-02 0.45850911E+03</pdfrwt>
<totfact> 0.42777435E+04</totfact>
</mgrwt>
</event>
<event>
 6    0  0.1539652E-007  0.4679637E+03  0.7546771E-02  0.1022497E+00
         21   -1    0    0  502  501  0.00000000000E+00  0.00000000000E+00  0.99444183857E+02  0.99444183857E+02  0.00000000000E+00 0. -1.
         21   -1    0    0  501  502 -0.00000000000E+00 -0.00000000000E+00 -0.55053505129E+03  0.55053505129E+03  0.00000000000E+00 0. -1.
      99926    2    1    2    0    0 -0.17763568394E-14  0.00000000000E+00 -0.45109086743E+03  0.64997923514E+03  0.46796371167E+03 0.  0.
         25    1    3    3    0    0  0.14169883194E+02 -0.24531361924E+02 -0.27200202072E+03  0.30072442648E+03  0.12509000000E+03 0.  0.
         25    1    3    3    0    0  0.25058111427E+02 -0.58517162894E+01 -0.31463037411E+01  0.12774802879E+03  0.12509000000E+03 0.  0.
         25    1    3    3    0    0 -0.39227994621E+02  0.30383078213E+02 -0.17594254297E+03  0.22150677987E+03  0.12509000000E+03 0.  0.
<mgrwt>
<rscale>  2 0.46796371E+03</rscale>
<asrwt>0</asrwt>
<pdfrwt beam="1">  1       21 0.14624144E-01 0.46796371E+03</pdfrwt>
<pdfrwt beam="2">  1       21 0.80961039E-01 0.46796371E+03</pdfrwt>
<totfact> 0.50351602E+04</totfact>
</mgrwt>
</event>
<event>
 6    0  0.1539652E-007  0.4555615E+03  0.7546771E-02  0.1026076E+00
         21   -1    0    0  502  501  0.00000000000E+00  0.00000000000E+00  0.34022719834E+03  0.34022719834E+03  0.00000000000E+00 0.  1.
         21   -1    0    0  501  502 -0.00000000000E+00 -0.00000000000E+00 -0.15249830481E+03  0.15249830481E+03  0.00000000000E+00 0.  1.
      99926    2    1    2    0    0  0.71054273576E-14  0.00000000000E+00  0.18772889353E+03  0.49272550315E+03  0.45556150407E+03 0.  0.
         25    1    3    3    0    0 -0.10990056557E+03 -0.17749162077E+02  0.49617705258E+02  0.17464991223E+03  0.12509000000E+03 0.  0.
         25    1    3    3    0    0  0.45242050968E+02 -0.32539496747E+02  0.69302811599E+02  0.15347980264E+03  0.12509000000E+03 0.  0.
         25    1    3    3    0    0  0.64658514603E+02  0.50288658824E+02  0.68808376673E+02  0.16459578827E+03  0.12509000000E+03 0.  0.
<mgrwt>
<rscale>  2 0.45556150E+03</rscale>
<asrwt>0</asrwt>
<pdfrwt beam="1">  1       21 0.50033411E-01 0.45556150E+03</pdfrwt>
<pdfrwt beam="2">  1       21 0.22426221E-01 0.45556150E+03</pdfrwt>
<totfact> 0.65492368E+04</totfact>
</mgrwt>
</event>
<event>
 6    0  0.1539652E-007  0.4492282E+03  0.7546771E-02  0.1027952E+00
         21   -1    0    0  502  501  0.00000000000E+00  0.00000000000E+00  0.53639867425E+02  0.53639867425E+02  0.00000000000E+00 0.  1.
         21   -1    0    0  501  502 -0.00000000000E+00 -0.00000000000E+00 -0.94055948817E+03  0.94055948817E+03  0.00000000000E+00 0.  1.
      99926    2    1    2    0    0  0.00000000000E+00  0.00000000000E+00 -0.88691962075E+03  0.99419935560E+03  0.44922816586E+03 0.  0.
         25    1    3    3    0    0 -0.33707281991E+01  0.58757359652E+02 -0.20082182430E+03  0.24380463970E+03  0.12509000000E+03 0.  0.
         25    1    3    3    0    0 -0.23875754861E+02 -0.28713363855E+02 -0.15208550915E+03  0.20042958646E+03  0.12509000000E+03 0.  0.
         25    1    3    3    0    0  0.27246483061E+02 -0.30043995797E+02 -0.53401228729E+03  0.54996512944E+03  0.12509000000E+03 0.  0.
<mgrwt>
<rscale>  2 0.44922817E+03</rscale>
<asrwt>0</asrwt>
<pdfrwt beam="1">  1       21 0.78882166E-02 0.44922817E+03</pdfrwt>
<pdfrwt beam="2">  1       21 0.13831756E+00 0.44922817E+03</pdfrwt>
<totfact> 0.41220253E+04</totfact>
</mgrwt>
</event>
<event>
 6    0  0.1539652E-007  0.4604775E+03  0.7546771E-02  0.1024643E+00
         21   -1    0    0  502  501  0.00000000000E+00  0.00000000000E+00  0.13193447211E+03  0.13193447211E+03  0.00000000000E+00 0.  1.
         21   -1    0    0  501  502 -0.00000000000E+00 -0.00000000000E+00 -0.40178942617E+03  0.40178942617E+03  0.00000000000E+00 0.  1.
      99926    2    1    2    0    0 -0.35527136788E-14  0.00000000000E+00 -0.26985495407E+03  0.53372389828E+03  0.46047747324E+03 0.  0.
         25    1    3    3    0    0 -0.79218725328E+02 -0.31508686591E+02 -0.17213780785E+03  0.22923205876E+03  0.12509000000E+03 0.  0.
         25    1    3    3    0    0  0.25651915510E+02 -0.40737616432E+02 -0.52230809903E+02  0.14385110276E+03  0.12509000000E+03 0.  0.
         25    1    3    3    0    0  0.53566809818E+02  0.72246303023E+02 -0.45486336315E+02  0.16064073676E+03  0.12509000000E+03 0.  0.
<mgrwt>
<rscale>  2 0.46047747E+03</rscale>
<asrwt>0</asrwt>
<pdfrwt beam="1">  1       21 0.19402129E-01 0.46047747E+03</pdfrwt>
<pdfrwt beam="2">  1       21 0.59086679E-01 0.46047747E+03</pdfrwt>
<totfact> 0.60294680E+04</totfact>
</mgrwt>
</event>
<event>
 6    0  0.1539652E-007  0.4564886E+03  0.7546771E-02  0.1025805E+00
         21   -1    0    0  502  501  0.00000000000E+00  0.00000000000E+00  0.36686211020E+03  0.36686211020E+03  0.00000000000E+00 0.  1.
         21   -1    0    0  501  502 -0.00000000000E+00 -0.00000000000E+00 -0.14200286709E+03  0.14200286709E+03  0.00000000000E+00 0.  1.
      99926    2    1    2    0    0 -0.35527136788E-14  0.00000000000E+00  0.22485924310E+03  0.50886497729E+03  0.45648864817E+03 0.  0.
         25    1    3    3    0    0 -0.43193950614E+02 -0.77028884138E+02  0.69724230922E+02  0.16825023875E+03  0.12509000000E+03 0.  0.
         25    1    3    3    0    0  0.28876792765E+02 -0.58761251027E+01  0.61428019835E+01  0.12866095026E+03  0.12509000000E+03 0.  0.
         25    1    3    3    0    0  0.14317157849E+02  0.82905009241E+02  0.14899221020E+03  0.21195378828E+03  0.12509000000E+03 0.  0.
<mgrwt>
<rscale>  2 0.45648865E+03</rscale>
<asrwt>0</asrwt>
<pdfrwt beam="1">  1       21 0.53950310E-01 0.45648865E+03</pdfrwt>
<pdfrwt beam="2">  1       21 0.20882775E-01 0.45648865E+03</pdfrwt>
<totfact> 0.63894000E+04</totfact>
</mgrwt>
</event>
<event>
 6    0  0.1539652E-007  0.4598485E+03  0.7546771E-02  0.1024825E+00
         21   -1    0    0  502  501  0.00000000000E+00  0.00000000000E+00  0.30319806003E+03  0.30319806003E+03  0.00000000000E+00 0.  1.
         21   -1    0    0  501  502 -0.00000000000E+00 -0.00000000000E+00 -0.17435853394E+03  0.17435853394E+03  0.00000000000E+00 0.  1.
      99926    2    1    2    0    0  0.35527136788E-14  0.14210854715E-13  0.12883952610E+03  0.47755659397E+03  0.45984853698E+03 0.  0.
         25    1    3    3    0    0  0.16496704112E+02 -0.11984337830E+03  0.28210422157E+02  0.17628928665E+03  0.12509000000E+03 0.  0.
         25    1    3    3    0    0 -0.35297020487E+02  0.51771434528E+02  0.41556995977E+02  0.14594743267E+03  0.12509000000E+03 0.  0.
         25    1    3    3    0    0  0.18800316375E+02  0.68071943770E+02  0.59072107961E+02  0.15531987466E+03  0.12509000000E+03 0.  0.
<mgrwt>
<rscale>  2 0.45984854E+03</rscale>
<asrwt>0</asrwt>
<pdfrwt beam="1">  1       21 0.44587950E-01 0.45984854E+03</pdfrwt>
<pdfrwt beam="2">  1       21 0.25640961E-01 0.45984854E+03</pdfrwt>
<totfact> 0.64365955E+04</totfact>
</mgrwt>
</event>
<event>
 6    0  0.1539652E-007  0.4531118E+03  0.7546771E-02  0.1026798E+00
         21   -1    0    0  502  501  0.00000000000E+00  0.00000000000E+00  0.35485427771E+02  0.35485427771E+02  0.00000000000E+00 0. -1.
         21   -1    0    0  501  502 -0.00000000000E+00 -0.00000000000E+00 -0.14464409791E+04  0.14464409791E+04  0.00000000000E+00 0. -1.
      99926    2    1    2    0    0  0.00000000000E+00  0.00000000000E+00 -0.14109555513E+04  0.14819264069E+04  0.45311180469E+03 0.  0.
         25    1    3    3    0    0  0.65643482629E+02 -0.22979899096E+02 -0.51431421788E+03  0.53385743920E+03  0.12509000000E+03 0.  0.
         25    1    3    3    0    0  0.34588072616E+02 -0.28190266173E+02 -0.29851532635E+03  0.32672608411E+03  0.12509000000E+03 0.  0.
         25    1    3    3    0    0 -0.10023155525E+03  0.51170165269E+02 -0.59812600708E+03  0.62134288354E+03  0.12509000000E+03 0.  0.
<mgrwt>
<rscale>  2 0.45311180E+03</rscale>
<asrwt>0</asrwt>
<pdfrwt beam="1">  1       21 0.52184455E-02 0.45311180E+03</pdfrwt>
<pdfrwt beam="2">  1       21 0.21271190E+00 0.45311180E+03</pdfrwt>
<totfact> 0.24584183E+04</totfact>
</mgrwt>
</event>
<event>
 6    0  0.1539652E-007  0.4534637E+03  0.7546771E-02  0.1026694E+00
         21   -1    0    0  502  501  0.00000000000E+00  0.00000000000E+00  0.84877988247E+03  0.84877988247E+03  0.00000000000E+00 0.  1.
         21   -1    0    0  501  502 -0.00000000000E+00 -0.00000000000E+00 -0.60566155755E+02  0.60566155755E+02  0.00000000000E+00 0.  1.
      99926    2    1    2    0    0  0.00000000000E+00  0.00000000000E+00  0.78821372671E+03  0.90934603822E+03  0.45346371217E+03 0.  0.
         25    1    3    3    0    0 -0.54242010140E+01  0.22865965740E+02  0.35211366859E+03  0.37441129531E+03  0.12509000000E+03 0.  0.
         25    1    3    3    0    0  0.88337781265E+02  0.18068713749E+02  0.21295251936E+03  0.26291885748E+03  0.12509000000E+03 0.  0.
         25    1    3    3    0    0 -0.82913580251E+02 -0.40934679488E+02  0.22314753876E+03  0.27201588544E+03  0.12509000000E+03 0.  0.
<mgrwt>
<rscale>  2 0.45346371E+03</rscale>
<asrwt>0</asrwt>
<pdfrwt beam="1">  1       21 0.12482056E+00 0.45346371E+03</pdfrwt>
<pdfrwt beam="2">  1       21 0.89067881E-02 0.45346371E+03</pdfrwt>
<totfact> 0.43351139E+04</totfact>
</mgrwt>
</event>
<event>
 6    0  0.1539652E-007  0.4542545E+03  0.7546771E-02  0.1026461E+00
         21   -1    0    0  502  501  0.00000000000E+00  0.00000000000E+00  0.31474553967E+03  0.31474553967E+03  0.00000000000E+00 0.  1.
         21   -1    0    0  501  502 -0.00000000000E+00 -0.00000000000E+00 -0.16389995318E+03  0.16389995318E+03  0.00000000000E+00 0.  1.
      99926    2    1    2    0    0 -0.71054273576E-14  0.00000000000E+00  0.15084558649E+03  0.47864549285E+03  0.45425446267E+03 0.  0.
         25    1    3    3    0    0  0.55315505009E+02 -0.82690220866E+00 -0.33954683712E+02  0.14092876749E+03  0.12509000000E+03 0.  0.
         25    1    3    3    0    0 -0.68252436125E+01 -0.19187638741E+02  0.26912153501E+02  0.12956280924E+03  0.12509000000E+03 0.  0.
         25    1    3    3    0    0 -0.48490261396E+02  0.20014540950E+02  0.15788811670E+03  0.20815391612E+03  0.12509000000E+03 0.  0.
<mgrwt>
<rscale>  2 0.45425446E+03</rscale>
<asrwt>0</asrwt>
<pdfrwt beam="1">  1       21 0.46286109E-01 0.45425446E+03</pdfrwt>
<pdfrwt beam="2">  1       21 0.24102934E-01 0.45425446E+03</pdfrwt>
<totfact> 0.67195575E+04</totfact>
</mgrwt>
</event>
<event>
 6    0  0.1539652E-007  0.4547041E+03  0.7546771E-02  0.1026328E+00
         21   -1    0    0  502  501  0.00000000000E+00  0.00000000000E+00  0.10209590712E+04  0.10209590712E+04  0.00000000000E+00 0.  1.
         21   -1    0    0  501  502 -0.00000000000E+00 -0.00000000000E+00 -0.50627846316E+02  0.50627846316E+02  0.00000000000E+00 0.  1.
      99926    2    1    2    0    0  0.00000000000E+00  0.14210854715E-13  0.97033122484E+03  0.10715869175E+04  0.45470411896E+03 0.  0.
         25    1    3    3    0    0  0.26023289420E+02  0.72233373346E+02  0.56152355037E+03  0.58038872968E+03  0.12509000000E+03 0.  0.
         25    1    3    3    0    0 -0.27915091563E+02 -0.68600843294E+02  0.19151880374E+03  0.24044186059E+03  0.12509000000E+03 0.  0.
         25    1    3    3    0    0  0.18918021435E+01 -0.36325300519E+01  0.21728887073E+03  0.25075632721E+03  0.12509000000E+03 0.  0.
<mgrwt>
<rscale>  2 0.45470412E+03</rscale>
<asrwt>0</asrwt>
<pdfrwt beam="1">  1       21 0.15014103E+00 0.45470412E+03</pdfrwt>
<pdfrwt beam="2">  1       21 0.74452721E-02 0.45470412E+03</pdfrwt>
<totfact> 0.36579530E+04</totfact>
</mgrwt>
</event>
<event>
 6    0  0.1539652E-007  0.4566164E+03  0.7546771E-02  0.1025767E+00
         21   -1    0    0  502  501  0.00000000000E+00  0.00000000000E+00  0.20156740163E+03  0.20156740163E+03  0.00000000000E+00 0.  1.
         21   -1    0    0  501  502 -0.00000000000E+00 -0.00000000000E+00 -0.25859657424E+03  0.25859657424E+03  0.00000000000E+00 0.  1.
      99926    2    1    2    0    0  0.35527136788E-14  0.35527136788E-14 -0.57029172602E+02  0.46016397587E+03  0.45661642345E+03 0.  0.
         25    1    3    3    0    0 -0.17838723109E+02  0.24079004929E+02  0.53224673869E+02  0.13920629486E+03  0.12509000000E+03 0.  0.
         25    1    3    3    0    0 -0.26888608019E+02  0.59795943892E+02 -0.75131509065E+02  0.15997125961E+03  0.12509000000E+03 0.  0.
         25    1    3    3    0    0  0.44727331127E+02 -0.83874948821E+02 -0.35122337406E+02  0.16098642140E+03  0.12509000000E+03 0.  0.
<mgrwt>
<rscale>  2 0.45661642E+03</rscale>
<asrwt>0</asrwt>
<pdfrwt beam="1">  1       21 0.29642265E-01 0.45661642E+03</pdfrwt>
<pdfrwt beam="2">  1       21 0.38028908E-01 0.45661642E+03</pdfrwt>
<totfact> 0.67296883E+04</totfact>
</mgrwt>
</event>
<event>
 6    0  0.1539652E-007  0.4514456E+03  0.7546771E-02  0.1027292E+00
         21   -1    0    0  502  501  0.00000000000E+00  0.00000000000E+00  0.27170653083E+03  0.27170653083E+03  0.00000000000E+00 0.  1.
         21   -1    0    0  501  502 -0.00000000000E+00 -0.00000000000E+00 -0.18752140966E+03  0.18752140966E+03  0.00000000000E+00 0.  1.
      99926    2    1    2    0    0  0.35527136788E-14  0.71054273576E-14  0.84185121170E+02  0.45922794049E+03  0.45144564091E+03 0.  0.
         25    1    3    3    0    0  0.48835074662E+02 -0.76690212936E+02  0.17901006043E+02  0.15567339977E+03  0.12509000000E+03 0.  0.
         25    1    3    3    0    0  0.46063270069E+01  0.47590127535E+02 -0.26274668368E+02  0.13646942802E+03  0.12509000000E+03 0.  0.
         25    1    3    3    0    0 -0.53441401669E+02  0.29100085401E+02  0.92558783495E+02  0.16708511270E+03  0.12509000000E+03 0.  0.
<mgrwt>
<rscale>  2 0.45144564E+03</rscale>
<asrwt>0</asrwt>
<pdfrwt beam="1">  1       21 0.39956843E-01 0.45144564E+03</pdfrwt>
<pdfrwt beam="2">  1       21 0.27576678E-01 0.45144564E+03</pdfrwt>
<totfact> 0.70203491E+04</totfact>
</mgrwt>
</event>
<event>
 6    0  0.1539652E-007  0.4566975E+03  0.7546771E-02  0.1025743E+00
         21   -1    0    0  502  501  0.00000000000E+00  0.00000000000E+00  0.59257421217E+03  0.59257421217E+03  0.00000000000E+00 0. -1.
         21   -1    0    0  501  502 -0.00000000000E+00 -0.00000000000E+00 -0.87994293589E+02  0.87994293589E+02  0.00000000000E+00 0. -1.
      99926    2    1    2    0    0  0.00000000000E+00 -0.71054273576E-14  0.50457991858E+03  0.68056850576E+03  0.45669748937E+03 0.  0.
         25    1    3    3    0    0 -0.23147032815E+02 -0.10913521237E+03  0.12224027090E+03  0.20745233582E+03  0.12509000000E+03 0.  0.
         25    1    3    3    0    0  0.27298447208E+02  0.43708030775E+02  0.15780723899E+03  0.20786108330E+03  0.12509000000E+03 0.  0.
         25    1    3    3    0    0 -0.41514143928E+01  0.65427181599E+02  0.22453240868E+03  0.26525508663E+03  0.12509000000E+03 0.  0.
<mgrwt>
<rscale>  2 0.45669749E+03</rscale>
<asrwt>0</asrwt>
<pdfrwt beam="1">  1       21 0.87143265E-01 0.45669749E+03</pdfrwt>
<pdfrwt beam="2">  1       21 0.12940338E-01 0.45669749E+03</pdfrwt>
<totfact> 0.53255578E+04</totfact>
</mgrwt>
</event>
<event>
 6    0  0.1539652E-007  0.4577436E+03  0.7546771E-02  0.1025438E+00
         21   -1    0    0  502  501  0.00000000000E+00  0.00000000000E+00  0.63055832069E+02  0.63055832069E+02  0.00000000000E+00 0. -1.
         21   -1    0    0  501  502 -0.00000000000E+00 -0.00000000000E+00 -0.83072873363E+03  0.83072873363E+03  0.00000000000E+00 0. -1.
      99926    2    1    2    0    0 -0.35527136788E-14  0.35527136788E-14 -0.76767290156E+03  0.89378456570E+03  0.45774355931E+03 0.  0.
         25    1    3    3    0    0 -0.15285773375E+02  0.16781941767E+02 -0.22956677099E+03  0.26241893773E+03  0.12509000000E+03 0.  0.
         25    1    3    3    0    0  0.57599347924E+02  0.84271695368E+02 -0.22627346036E+03  0.27796868616E+03  0.12509000000E+03 0.  0.
         25    1    3    3    0    0 -0.42313574549E+02 -0.10105363713E+03 -0.31183267021E+03  0.35339694181E+03  0.12509000000E+03 0.  0.
<mgrwt>
<rscale>  2 0.45774356E+03</rscale>
<asrwt>0</asrwt>
<pdfrwt beam="1">  1       21 0.92729168E-02 0.45774356E+03</pdfrwt>
<pdfrwt beam="2">  1       21 0.12216599E+00 0.45774356E+03</pdfrwt>
<totfact> 0.42581352E+04</totfact>
</mgrwt>
</event>
<event>
 6    0  0.1539652E-007  0.4450006E+03  0.7546771E-02  0.1029223E+00
         21   -1    0    0  502  501  0.00000000000E+00  0.00000000000E+00  0.29797604416E+03  0.29797604416E+03  0.00000000000E+00 0.  1.
         21   -1    0    0  501  502 -0.00000000000E+00 -0.00000000000E+00 -0.16614218090E+03  0.16614218090E+03  0.00000000000E+00 0.  1.
      99926    2    1    2    0    0  0.71054273576E-14  0.00000000000E+00  0.13183386325E+03  0.46411822506E+03  0.44500062846E+03 0.  0.
         25    1    3    3    0    0 -0.33113320666E+02  0.60060305473E+02  0.21580243726E+02  0.14428079331E+03  0.12509000000E+03 0.  0.
         25    1    3    3    0    0  0.86481402860E+02 -0.16078598316E+02  0.29738853420E+02  0.15578659078E+03  0.12509000000E+03 0.  0.
         25    1    3    3    0    0 -0.53368082194E+02 -0.43981707157E+02  0.80514766105E+02  0.16405084097E+03  0.12509000000E+03 0.  0.
<mgrwt>
<rscale>  2 0.44500063E+03</rscale>
<asrwt>0</asrwt>
<pdfrwt beam="1">  1       21 0.43820006E-01 0.44500063E+03</pdfrwt>
<pdfrwt beam="2">  1       21 0.24432674E-01 0.44500063E+03</pdfrwt>
<totfact> 0.73538692E+04</totfact>
</mgrwt>
</event>
<event>
 6    0  0.1539652E-007  0.4261338E+03  0.7546771E-02  0.1035088E+00
         21   -1    0    0  502  501  0.00000000000E+00  0.00000000000E+00  0.20401248268E+03  0.20401248268E+03  0.00000000000E+00 0. -1.
         21   -1    0    0  501  502 -0.00000000000E+00 -0.00000000000E+00 -0.22252317829E+03  0.22252317829E+03  0.00000000000E+00 0. -1.
      99926    2    1    2    0    0  0.00000000000E+00  0.00000000000E+00 -0.18510695606E+02  0.42653566097E+03  0.42613381024E+03 0.  0.
         25    1    3    3    0    0 -0.78427590493E+00  0.33461219098E+02  0.74082354131E+01  0.12970219090E+03  0.12509000000E+03 0.  0.
         25    1    3    3    0    0 -0.60535020366E+02 -0.14768191906E+02  0.34331002206E+02  0.14390522574E+03  0.12509000000E+03 0.  0.
         25    1    3    3    0    0  0.61319296271E+02 -0.18693027192E+02 -0.60249933224E+02  0.15292824433E+03  0.12509000000E+03 0.  0.
<mgrwt>
<rscale>  2 0.42613381E+03</rscale>
<asrwt>0</asrwt>
<pdfrwt beam="1">  1       21 0.30001836E-01 0.42613381E+03</pdfrwt>
<pdfrwt beam="2">  1       21 0.32723997E-01 0.42613381E+03</pdfrwt>
<totfact> 0.89611710E+04</totfact>
</mgrwt>
</event>
<event>
 6    0  0.1539652E-007  0.4523907E+03  0.7546771E-02  0.1027012E+00
         21   -1    0    0  502  501  0.00000000000E+00  0.00000000000E+00  0.17664983417E+02  0.17664983417E+02  0.00000000000E+00 0.  1.
         21   -1    0    0  501  502 -0.00000000000E+00 -0.00000000000E+00 -0.28963698981E+04  0.28963698981E+04  0.00000000000E+00 0.  1.
      99926    2    1    2    0    0 -0.71054273576E-14  0.00000000000E+00 -0.28787049146E+04  0.29140348815E+04  0.45239065516E+03 0.  0.
         25    1    3    3    0    0 -0.17893338086E+02  0.14327476203E+02 -0.78940898611E+03  0.79958708317E+03  0.12509000000E+03 0.  0.
         25    1    3    3    0    0 -0.63240630319E+02 -0.80826427688E+02 -0.10128047984E+04  0.10256477741E+04  0.12509000000E+03 0.  0.
         25    1    3    3    0    0  0.81133968405E+02  0.66498951485E+02 -0.10764911302E+04  0.10888000242E+04  0.12509000000E+03 0.  0.
<mgrwt>
<rscale>  2 0.45239066E+03</rscale>
<asrwt>0</asrwt>
<pdfrwt beam="1">  1       21 0.25977945E-02 0.45239066E+03</pdfrwt>
<pdfrwt beam="2">  1       21 0.42593629E+00 0.45239066E+03</pdfrwt>
<totfact> 0.38322073E+03</totfact>
</mgrwt>
</event>
<event>
 6    0  0.1539652E-007  0.4418857E+03  0.7546771E-02  0.1030170E+00
         21   -1    0    0  502  501  0.00000000000E+00  0.00000000000E+00  0.11381910526E+03  0.11381910526E+03  0.00000000000E+00 0.  1.
         21   -1    0    0  501  502 -0.00000000000E+00 -0.00000000000E+00 -0.42888881641E+03  0.42888881641E+03  0.00000000000E+00 0.  1.
      99926    2    1    2    0    0  0.22204460493E-15  0.00000000000E+00 -0.31506971115E+03  0.54270792167E+03  0.44188569264E+03 0.  0.
         25    1    3    3    0    0 -0.17881312256E+02 -0.57657846527E+02 -0.81528218152E+02  0.16105442263E+03  0.12509000000E+03 0.  0.
         25    1    3    3    0    0  0.15915379848E+02 -0.49210254220E+02 -0.12716963251E+03  0.18572714387E+03  0.12509000000E+03 0.  0.
         25    1    3    3    0    0  0.19659324079E+01  0.10686810075E+03 -0.10637186048E+03  0.19592635517E+03  0.12509000000E+03 0.  0.
<mgrwt>
<rscale>  2 0.44188569E+03</rscale>
<asrwt>0</asrwt>
<pdfrwt beam="1">  1       21 0.16738104E-01 0.44188569E+03</pdfrwt>
<pdfrwt beam="2">  1       21 0.63071884E-01 0.44188569E+03</pdfrwt>
<totfact> 0.69263924E+04</totfact>
</mgrwt>
</event>
<event>
 6    0  0.1539652E-007  0.4505030E+03  0.7546771E-02  0.1027572E+00
         21   -1    0    0  502  501  0.00000000000E+00  0.00000000000E+00  0.80551820164E+03  0.80551820164E+03  0.00000000000E+00 0. -1.
         21   -1    0    0  501  502 -0.00000000000E+00 -0.00000000000E+00 -0.62988318158E+02  0.62988318158E+02  0.00000000000E+00 0. -1.
      99926    2    1    2    0    0  0.00000000000E+00  0.14210854715E-13  0.74252988348E+03  0.86850651980E+03  0.45050299340E+03 0.  0.
         25    1    3    3    0    0 -0.17110759105E+02  0.89645003926E+01  0.24134993289E+03  0.27252603279E+03  0.12509000000E+03 0.  0.
         25    1    3    3    0    0  0.26468977920E+02  0.92505359585E+02  0.29072494847E+03  0.33079654186E+03  0.12509000000E+03 0.  0.
         25    1    3    3    0    0 -0.93582188147E+01 -0.10146985998E+03  0.21045500213E+03  0.26518394515E+03  0.12509000000E+03 0.  0.
<mgrwt>
<rscale>  2 0.45050299E+03</rscale>
<asrwt>0</asrwt>
<pdfrwt beam="1">  1       21 0.11845855E+00 0.45050299E+03</pdfrwt>
<pdfrwt beam="2">  1       21 0.92629884E-02 0.45050299E+03</pdfrwt>
<totfact> 0.46230549E+04</totfact>
</mgrwt>
</event>
<event>
 6    0  0.1539652E-007  0.4596676E+03  0.7546771E-02  0.1024878E+00
         21   -1    0    0  502  501  0.00000000000E+00  0.00000000000E+00  0.61919359778E+02  0.61919359778E+02  0.00000000000E+00 0.  1.
         21   -1    0    0  501  502 -0.00000000000E+00 -0.00000000000E+00 -0.85310288987E+03  0.85310288987E+03  0.00000000000E+00 0.  1.
      99926    2    1    2    0    0  0.00000000000E+00  0.00000000000E+00 -0.79118353009E+03  0.91502224964E+03  0.45966763978E+03 0.  0.
         25    1    3    3    0    0 -0.53148566097E+02 -0.65083918054E+02 -0.33826258657E+03  0.37031037258E+03  0.12509000000E+03 0.  0.
         25    1    3    3    0    0 -0.35033429960E+02 -0.12827790213E+02 -0.20842349879E+03  0.24592632304E+03  0.12509000000E+03 0.  0.
         25    1    3    3    0    0  0.88181996057E+02  0.77911708267E+02 -0.24449744473E+03  0.29878555402E+03  0.12509000000E+03 0.  0.
<mgrwt>
<rscale>  2 0.45966764E+03</rscale>
<asrwt>0</asrwt>
<pdfrwt beam="1">  1       21 0.91057890E-02 0.45966764E+03</pdfrwt>
<pdfrwt beam="2">  1       21 0.12545630E+00 0.45966764E+03</pdfrwt>
<totfact> 0.41069373E+04</totfact>
</mgrwt>
</event>
<event>
 6    0  0.1539652E-007  0.4524033E+03  0.7546771E-02  0.1027008E+00
         21   -1    0    0  502  501  0.00000000000E+00  0.00000000000E+00  0.80873804660E+03  0.80873804660E+03  0.00000000000E+00 0.  1.
         21   -1    0    0  501  502 -0.00000000000E+00 -0.00000000000E+00 -0.63267932778E+02  0.63267932778E+02  0.00000000000E+00 0.  1.
      99926    2    1    2    0    0  0.00000000000E+00 -0.35527136788E-14  0.74547011383E+03  0.87200597938E+03  0.45240329074E+03 0.  0.
         25    1    3    3    0    0  0.12162949371E+01  0.43701486885E+02  0.32923359338E+03  0.35489937509E+03  0.12509000000E+03 0.  0.
         25    1    3    3    0    0 -0.39329502464E+02 -0.19484051123E+02  0.78348851476E+02  0.15398859906E+03  0.12509000000E+03 0.  0.
         25    1    3    3    0    0  0.38113207527E+02 -0.24217435762E+02  0.33788766897E+03  0.36311800524E+03  0.12509000000E+03 0.  0.
<mgrwt>
<rscale>  2 0.45240329E+03</rscale>
<asrwt>0</asrwt>
<pdfrwt beam="1">  1       21 0.11893206E+00 0.45240329E+03</pdfrwt>
<pdfrwt beam="2">  1       21 0.93041083E-02 0.45240329E+03</pdfrwt>
<totfact> 0.45382265E+04</totfact>
</mgrwt>
</event>
<event>
 6    0  0.1539652E-007  0.4599744E+03  0.7546771E-02  0.1024789E+00
         21   -1    0    0  502  501  0.00000000000E+00  0.00000000000E+00  0.15224786497E+03  0.15224786497E+03  0.00000000000E+00 0.  1.
         21   -1    0    0  501  502 -0.00000000000E+00 -0.00000000000E+00 -0.34742105686E+03  0.34742105686E+03  0.00000000000E+00 0.  1.
      99926    2    1    2    0    0 -0.17763568394E-14 -0.35527136788E-14 -0.19517319189E+03  0.49966892183E+03  0.45997440864E+03 0.  0.
         25    1    3    3    0    0  0.13866061842E+02  0.22904602380E+02  0.31885053970E+02  0.13183722254E+03  0.12509000000E+03 0.  0.
         25    1    3    3    0    0 -0.16006061727E+01  0.52970156097E+02 -0.69956847333E+02  0.15280663587E+03  0.12509000000E+03 0.  0.
         25    1    3    3    0    0 -0.12265455670E+02 -0.75874758476E+02 -0.15710139853E+03  0.21502506342E+03  0.12509000000E+03 0.  0.
<mgrwt>
<rscale>  2 0.45997441E+03</rscale>
<asrwt>0</asrwt>
<pdfrwt beam="1">  1       21 0.22389392E-01 0.45997441E+03</pdfrwt>
<pdfrwt beam="2">  1       21 0.51091332E-01 0.45997441E+03</pdfrwt>
<totfact> 0.62778034E+04</totfact>
</mgrwt>
</event>
<event>
 6    0  0.1539652E-007  0.4596634E+03  0.7546771E-02  0.1024879E+00
         21   -1    0    0  502  501  0.00000000000E+00  0.00000000000E+00  0.46366818335E+03  0.46366818335E+03  0.00000000000E+00 0. -1.
         21   -1    0    0  501  502 -0.00000000000E+00 -0.00000000000E+00 -0.11392331798E+03  0.11392331798E+03  0.00000000000E+00 0. -1.
      99926    2    1    2    0    0  0.71054273576E-14  0.00000000000E+00  0.34974486536E+03  0.57759150133E+03  0.45966343292E+03 0.  0.
         25    1    3    3    0    0 -0.48194838749E+02  0.10152751242E+03  0.13781558815E+03  0.21741946255E+03  0.12509000000E+03 0.  0.
         25    1    3    3    0    0  0.63710336805E+02 -0.81031900641E+02  0.10072170065E+03  0.19083381519E+03  0.12509000000E+03 0.  0.
         25    1    3    3    0    0 -0.15515498056E+02 -0.20495611783E+02  0.11120757657E+03  0.16933822359E+03  0.12509000000E+03 0.  0.
<mgrwt>
<rscale>  2 0.45966343E+03</rscale>
<asrwt>0</asrwt>
<pdfrwt beam="1">  1       21 0.68186497E-01 0.45966343E+03</pdfrwt>
<pdfrwt beam="2">  1       21 0.16753429E-01 0.45966343E+03</pdfrwt>
<totfact> 0.57914157E+04</totfact>
</mgrwt>
</event>
<event>
 6    0  0.1539652E-007  0.4579192E+03  0.7546771E-02  0.1025386E+00
         21   -1    0    0  502  501  0.00000000000E+00  0.00000000000E+00  0.66776289025E+02  0.66776289025E+02  0.00000000000E+00 0.  1.
         21   -1    0    0  501  502 -0.00000000000E+00 -0.00000000000E+00 -0.78504659659E+03  0.78504659659E+03  0.00000000000E+00 0.  1.
      99926    2    1    2    0    0  0.17763568394E-14  0.00000000000E+00 -0.71827030757E+03  0.85182288562E+03  0.45791920000E+03 0.  0.
         25    1    3    3    0    0  0.18704000034E+02 -0.12124211722E+03 -0.27204522148E+03  0.32358244890E+03  0.12509000000E+03 0.  0.
         25    1    3    3    0    0 -0.27655785764E+01  0.72929966820E+02 -0.19343461521E+03  0.24164206369E+03  0.12509000000E+03 0.  0.
         25    1    3    3    0    0 -0.15938421458E+02  0.48312150397E+02 -0.25279047088E+03  0.28659837303E+03  0.12509000000E+03 0.  0.
<mgrwt>
<rscale>  2 0.45791920E+03</rscale>
<asrwt>0</asrwt>
<pdfrwt beam="1">  1       21 0.98200426E-02 0.45791920E+03</pdfrwt>
<pdfrwt beam="2">  1       21 0.11544803E+00 0.45791920E+03</pdfrwt>
<totfact> 0.44333963E+04</totfact>
</mgrwt>
</event>
<event>
 6    0  0.1539652E-007  0.4624576E+03  0.7546771E-02  0.1024071E+00
         21   -1    0    0  502  501  0.00000000000E+00  0.00000000000E+00  0.14015090511E+03  0.14015090511E+03  0.00000000000E+00 0. -1.
         21   -1    0    0  501  502 -0.00000000000E+00 -0.00000000000E+00 -0.38149419679E+03  0.38149419679E+03  0.00000000000E+00 0. -1.
      99926    2    1    2    0    0 -0.71054273576E-14  0.00000000000E+00 -0.24134329167E+03  0.52164510190E+03  0.46245759579E+03 0.  0.
         25    1    3    3    0    0  0.62567369329E+02  0.28892052100E+02 -0.14342560173E+03  0.20240513262E+03  0.12509000000E+03 0.  0.
         25    1    3    3    0    0 -0.68427955005E+02 -0.85354952700E+02 -0.60724735698E+02  0.17692612753E+03  0.12509000000E+03 0.  0.
         25    1    3    3    0    0  0.58605856766E+01  0.56462900600E+02 -0.37192954245E+02  0.14231384175E+03  0.12509000000E+03 0.  0.
<mgrwt>
<rscale>  2 0.46245760E+03</rscale>
<asrwt>0</asrwt>
<pdfrwt beam="1">  1       21 0.20610428E-01 0.46245760E+03</pdfrwt>
<pdfrwt beam="2">  1       21 0.56102087E-01 0.46245760E+03</pdfrwt>
<totfact> 0.60137291E+04</totfact>
</mgrwt>
</event>
<event>
 6    0  0.1539652E-007  0.4467521E+03  0.7546771E-02  0.1028695E+00
         21   -1    0    0  502  501  0.00000000000E+00  0.00000000000E+00  0.18170234067E+04  0.18170234067E+04  0.00000000000E+00 0. -1.
         21   -1    0    0  501  502 -0.00000000000E+00 -0.00000000000E+00 -0.27460772211E+02  0.27460772211E+02  0.00000000000E+00 0. -1.
      99926    2    1    2    0    0  0.14210854715E-13  0.35527136788E-14  0.17895626345E+04  0.18444841790E+04  0.44675212758E+03 0.  0.
         25    1    3    3    0    0  0.46976834468E+02 -0.32001378826E+02  0.49387003039E+03  0.51262659533E+03  0.12509000000E+03 0.  0.
         25    1    3    3    0    0 -0.90691077698E+02  0.63476221219E+01  0.91436375409E+03  0.92734769465E+03  0.12509000000E+03 0.  0.
         25    1    3    3    0    0  0.43714243230E+02  0.25653756704E+02  0.38132885006E+03  0.40450988898E+03  0.12509000000E+03 0.  0.
<mgrwt>
<rscale>  2 0.44675213E+03</rscale>
<asrwt>0</asrwt>
<pdfrwt beam="1">  1       21 0.26720924E+00 0.44675213E+03</pdfrwt>
<pdfrwt beam="2">  1       21 0.40383501E-02 0.44675213E+03</pdfrwt>
<totfact> 0.17514059E+04</totfact>
</mgrwt>
</event>
<event>
 6    0  0.1539652E-007  0.4559195E+03  0.7546771E-02  0.1025971E+00
         21   -1    0    0  502  501  0.00000000000E+00  0.00000000000E+00  0.31189921990E+03  0.31189921990E+03  0.00000000000E+00 0.  1.
         21   -1    0    0  501  502 -0.00000000000E+00 -0.00000000000E+00 -0.16661039251E+03  0.16661039251E+03  0.00000000000E+00 0.  1.
      99926    2    1    2    0    0  0.44408920985E-15  0.14210854715E-13  0.14528882740E+03  0.47850961241E+03  0.45591951680E+03 0.  0.
         25    1    3    3    0    0 -0.90827102665E+01  0.54166186761E+02  0.14165873072E+02  0.13734864933E+03  0.12509000000E+03 0.  0.
         25    1    3    3    0    0  0.26110867688E+01 -0.10355597446E+03  0.14547351616E+02  0.16306376409E+03  0.12509000000E+03 0.  0.
         25    1    3    3    0    0  0.64716234977E+01  0.49389787694E+02  0.11657560271E+03  0.17809719898E+03  0.12509000000E+03 0.  0.
<mgrwt>
<rscale>  2 0.45591952E+03</rscale>
<asrwt>0</asrwt>
<pdfrwt beam="1">  1       21 0.45867532E-01 0.45591952E+03</pdfrwt>
<pdfrwt beam="2">  1       21 0.24501528E-01 0.45591952E+03</pdfrwt>
<totfact> 0.66323387E+04</totfact>
</mgrwt>
</event>
<event>
 6    0  0.1539652E-007  0.4522909E+03  0.7546771E-02  0.1027041E+00
         21   -1    0    0  502  501  0.00000000000E+00  0.00000000000E+00  0.17841688341E+03  0.17841688341E+03  0.00000000000E+00 0. -1.
         21   -1    0    0  501  502 -0.00000000000E+00 -0.00000000000E+00 -0.28664190217E+03  0.28664190217E+03  0.00000000000E+00 0. -1.
      99926    2    1    2    0    0  0.79936057773E-14  0.71054273576E-14 -0.10822501876E+03  0.46505878558E+03  0.45229085704E+03 0.  0.
         25    1    3    3    0    0 -0.71920852598E+02 -0.10007385307E+01  0.25501969952E+02  0.14653146108E+03  0.12509000000E+03 0.  0.
         25    1    3    3    0    0  0.66124578370E+02 -0.54424036439E+02 -0.60379274299E+02  0.16317965704E+03  0.12509000000E+03 0.  0.
         25    1    3    3    0    0  0.57962742280E+01  0.55424774970E+02 -0.73347714410E+02  0.15534766746E+03  0.12509000000E+03 0.  0.
<mgrwt>
<rscale>  2 0.45229086E+03</rscale>
<asrwt>0</asrwt>
<pdfrwt beam="1">  1       21 0.26237777E-01 0.45229086E+03</pdfrwt>
<pdfrwt beam="2">  1       21 0.42153220E-01 0.45229086E+03</pdfrwt>
<totfact> 0.69282086E+04</totfact>
</mgrwt>
</event>
<event>
 6    0  0.1539652E-007  0.4524747E+03  0.7546771E-02  0.1026987E+00
         21   -1    0    0  502  501  0.00000000000E+00  0.00000000000E+00  0.46624746454E+02  0.46624746454E+02  0.00000000000E+00 0. -1.
         21   -1    0    0  501  502 -0.00000000000E+00 -0.00000000000E+00 -0.10977717032E+04  0.10977717032E+04  0.00000000000E+00 0. -1.
      99926    2    1    2    0    0 -0.17763568394E-14  0.00000000000E+00 -0.10511469567E+04  0.11443964496E+04  0.45247465045E+03 0.  0.
         25    1    3    3    0    0 -0.46683988413E+01 -0.10369642350E+03 -0.49067633499E+03  0.51689990909E+03  0.12509000000E+03 0.  0.
         25    1    3    3    0    0 -0.19397245524E+02  0.59180439308E+02 -0.35673830415E+03  0.38312961682E+03  0.12509000000E+03 0.  0.
         25    1    3    3    0    0  0.24065644366E+02  0.44515984190E+02 -0.20373231758E+03  0.24436692373E+03  0.12509000000E+03 0.  0.
<mgrwt>
<rscale>  2 0.45247465E+03</rscale>
<asrwt>0</asrwt>
<pdfrwt beam="1">  1       21 0.68565809E-02 0.45247465E+03</pdfrwt>
<pdfrwt beam="2">  1       21 0.16143700E+00 0.45247465E+03</pdfrwt>
<totfact> 0.34646955E+04</totfact>
</mgrwt>
</event>
<event>
 6    0  0.1539652E-007  0.4494564E+03  0.7546771E-02  0.1027884E+00
         21   -1    0    0  502  501  0.00000000000E+00  0.00000000000E+00  0.12565047273E+03  0.12565047273E+03  0.00000000000E+00 0.  1.
         21   -1    0    0  501  502 -0.00000000000E+00 -0.00000000000E+00 -0.40193057250E+03  0.40193057250E+03  0.00000000000E+00 0.  1.
      99926    2    1    2    0    0 -0.71054273576E-14  0.71054273576E-14 -0.27628009977E+03  0.52758104523E+03  0.44945641141E+03 0.  0.
         25    1    3    3    0    0 -0.13591492112E+02 -0.21561511122E+02 -0.24704736862E+02  0.13002868739E+03  0.12509000000E+03 0.  0.
         25    1    3    3    0    0 -0.39839676158E+02  0.81662748893E+02 -0.94266695345E+02  0.18107932600E+03  0.12509000000E+03 0.  0.
         25    1    3    3    0    0  0.53431168270E+02 -0.60101237771E+02 -0.15730866756E+03  0.21647303184E+03  0.12509000000E+03 0.  0.
<mgrwt>
<rscale>  2 0.44945641E+03</rscale>
<asrwt>0</asrwt>
<pdfrwt beam="1">  1       21 0.18478011E-01 0.44945641E+03</pdfrwt>
<pdfrwt beam="2">  1       21 0.59107437E-01 0.44945641E+03</pdfrwt>
<totfact> 0.66231802E+04</totfact>
</mgrwt>
</event>
<event>
 6    0  0.1539652E-007  0.4539848E+03  0.7546771E-02  0.1026540E+00
         21   -1    0    0  502  501  0.00000000000E+00  0.00000000000E+00  0.78705078033E+03  0.78705078033E+03  0.00000000000E+00 0. -1.
         21   -1    0    0  501  502 -0.00000000000E+00 -0.00000000000E+00 -0.65466624423E+02  0.65466624423E+02  0.00000000000E+00 0. -1.
      99926    2    1    2    0    0  0.00000000000E+00  0.00000000000E+00  0.72158415591E+03  0.85251740475E+03  0.45398483604E+03 0.  0.
         25    1    3    3    0    0  0.33493456267E+02  0.52092525419E+02  0.20203903185E+03  0.24556612410E+03  0.12509000000E+03 0.  0.
         25    1    3    3    0    0 -0.61151065641E+02 -0.39771825474E+02  0.12283827252E+03  0.18988944211E+03  0.12509000000E+03 0.  0.
         25    1    3    3    0    0  0.27657609374E+02 -0.12320699945E+02  0.39670685154E+03  0.41706183854E+03  0.12509000000E+03 0.  0.
<mgrwt>
<rscale>  2 0.45398484E+03</rscale>
<asrwt>0</asrwt>
<pdfrwt beam="1">  1       21 0.11574276E+00 0.45398484E+03</pdfrwt>
<pdfrwt beam="2">  1       21 0.96274452E-02 0.45398484E+03</pdfrwt>
<totfact> 0.45689726E+04</totfact>
</mgrwt>
</event>
<event>
 6    0  0.1539652E-007  0.4591182E+03  0.7546771E-02  0.1025037E+00
         21   -1    0    0  502  501  0.00000000000E+00  0.00000000000E+00  0.68193825779E+02  0.68193825779E+02  0.00000000000E+00 0. -1.
         21   -1    0    0  501  502 -0.00000000000E+00 -0.00000000000E+00 -0.77275895463E+03  0.77275895463E+03  0.00000000000E+00 0. -1.
      99926    2    1    2    0    0 -0.71054273576E-14 -0.35527136788E-14 -0.70456512885E+03  0.84095278040E+03  0.45911823976E+03 0.  0.
         25    1    3    3    0    0  0.70425148354E+02  0.73445483081E+02 -0.22376945813E+03  0.27581555250E+03  0.12509000000E+03 0.  0.
         25    1    3    3    0    0 -0.57342550121E+02  0.10323202981E+02 -0.16537653128E+03  0.21538719036E+03  0.12509000000E+03 0.  0.
         25    1    3    3    0    0 -0.13082598232E+02 -0.83768686063E+02 -0.31541913944E+03  0.34975003755E+03  0.12509000000E+03 0.  0.
<mgrwt>
<rscale>  2 0.45911824E+03</rscale>
<asrwt>0</asrwt>
<pdfrwt beam="1">  1       21 0.10028504E-01 0.45911824E+03</pdfrwt>
<pdfrwt beam="2">  1       21 0.11364102E+00 0.45911824E+03</pdfrwt>
<totfact> 0.44395005E+04</totfact>
</mgrwt>
</event>
<event>
 6    0  0.1539652E-007  0.4594796E+03  0.7546771E-02  0.1024932E+00
         21   -1    0    0  502  501  0.00000000000E+00  0.00000000000E+00  0.41111568802E+03  0.41111568802E+03  0.00000000000E+00 0.  1.
         21   -1    0    0  501  502 -0.00000000000E+00 -0.00000000000E+00 -0.12838324253E+03  0.12838324253E+03  0.00000000000E+00 0.  1.
      99926    2    1    2    0    0  0.00000000000E+00  0.00000000000E+00  0.28273244550E+03  0.53949893055E+03  0.45947955377E+03 0.  0.
         25    1    3    3    0    0  0.90388487758E+02  0.15022660919E+02  0.10614006305E+03  0.18790683900E+03  0.12509000000E+03 0.  0.
         25    1    3    3    0    0  0.73395173339E+01 -0.12278264267E+01  0.17675191130E+02  0.12655155690E+03  0.12509000000E+03 0.  0.
         25    1    3    3    0    0 -0.97728005092E+02 -0.13794834492E+02  0.15891719132E+03  0.22504053465E+03  0.12509000000E+03 0.  0.
<mgrwt>
<rscale>  2 0.45947955E+03</rscale>
<asrwt>0</asrwt>
<pdfrwt beam="1">  1       21 0.60458189E-01 0.45947955E+03</pdfrwt>
<pdfrwt beam="2">  1       21 0.18879889E-01 0.45947955E+03</pdfrwt>
<totfact> 0.60395329E+04</totfact>
</mgrwt>
</event>
<event>
 6    0  0.1539652E-007  0.4509372E+03  0.7546771E-02  0.1027443E+00
         21   -1    0    0  502  501  0.00000000000E+00  0.00000000000E+00  0.23936144900E+02  0.23936144900E+02  0.00000000000E+00 0.  1.
         21   -1    0    0  501  502 -0.00000000000E+00 -0.00000000000E+00 -0.21238215116E+04  0.21238215116E+04  0.00000000000E+00 0.  1.
      99926    2    1    2    0    0  0.00000000000E+00  0.17763568394E-14 -0.20998853667E+04  0.21477576565E+04  0.45093724371E+03 0.  0.
         25    1    3    3    0    0  0.32189718699E+02  0.16787964059E+02 -0.71004246484E+03  0.72189045131E+03  0.12509000000E+03 0.  0.
         25    1    3    3    0    0 -0.65564488178E+02 -0.10304361088E+02 -0.10905902197E+04  0.10997451602E+04  0.12509000000E+03 0.  0.
         25    1    3    3    0    0  0.33374769479E+02 -0.64836029709E+01 -0.29925268214E+03  0.32612204497E+03  0.12509000000E+03 0.  0.
<mgrwt>
<rscale>  2 0.45093724E+03</rscale>
<asrwt>0</asrwt>
<pdfrwt beam="1">  1       21 0.35200214E-02 0.45093724E+03</pdfrwt>
<pdfrwt beam="2">  1       21 0.31232668E+00 0.45093724E+03</pdfrwt>
<totfact> 0.11812231E+04</totfact>
</mgrwt>
</event>
<event>
 6    0  0.1539652E-007  0.4529755E+03  0.7546771E-02  0.1026838E+00
         21   -1    0    0  502  501  0.00000000000E+00  0.00000000000E+00  0.48269342342E+03  0.48269342342E+03  0.00000000000E+00 0. -1.
         21   -1    0    0  501  502 -0.00000000000E+00 -0.00000000000E+00 -0.10627179256E+03  0.10627179256E+03  0.00000000000E+00 0. -1.
      99926    2    1    2    0    0 -0.88817841970E-15  0.00000000000E+00  0.37642163086E+03  0.58896521597E+03  0.45297547554E+03 0.  0.
         25    1    3    3    0    0  0.54206675616E+01  0.51518736818E+02  0.18925612341E+03  0.23269927423E+03  0.12509000000E+03 0.  0.
         25    1    3    3    0    0 -0.20205110586E+02 -0.10037020601E+03  0.13785123338E+03  0.21244504088E+03  0.12509000000E+03 0.  0.
         25    1    3    3    0    0  0.14784443024E+02  0.48851469194E+02  0.49314274072E+02  0.14382090086E+03  0.12509000000E+03 0.  0.
<mgrwt>
<rscale>  2 0.45297548E+03</rscale>
<asrwt>0</asrwt>
<pdfrwt beam="1">  1       21 0.70984326E-01 0.45297548E+03</pdfrwt>
<pdfrwt beam="2">  1       21 0.15628205E-01 0.45297548E+03</pdfrwt>
<totfact> 0.60322126E+04</totfact>
</mgrwt>
</event>
<event>
 6    0  0.1539652E-007  0.4566843E+03  0.7546771E-02  0.1025747E+00
         21   -1    0    0  502  501  0.00000000000E+00  0.00000000000E+00  0.91790909108E+02  0.91790909108E+02  0.00000000000E+00 0.  1.
         21   -1    0    0  501  502 -0.00000000000E+00 -0.00000000000E+00 -0.56803156015E+03  0.56803156015E+03  0.00000000000E+00 0.  1.
      99926    2    1    2    0    0  0.00000000000E+00 -0.71054273576E-14 -0.47624065104E+03  0.65982246926E+03  0.45668428179E+03 0.  0.
         25    1    3    3    0    0 -0.10063338588E+03 -0.41858864092E+02 -0.19112571371E+03  0.25309245227E+03  0.12509000000E+03 0.  0.
         25    1    3    3    0    0  0.62083621471E+02 -0.22560059774E+02 -0.16817724311E+03  0.21975992708E+03  0.12509000000E+03 0.  0.
         25    1    3    3    0    0  0.38549764405E+02  0.64418923867E+02 -0.11693769422E+03  0.18697008990E+03  0.12509000000E+03 0.  0.
<mgrwt>
<rscale>  2 0.45668428E+03</rscale>
<asrwt>0</asrwt>
<pdfrwt beam="1">  1       21 0.13498664E-01 0.45668428E+03</pdfrwt>
<pdfrwt beam="2">  1       21 0.83534049E-01 0.45668428E+03</pdfrwt>
<totfact> 0.54412436E+04</totfact>
</mgrwt>
</event>
<event>
 6    0  0.1539652E-007  0.4433648E+03  0.7546771E-02  0.1029719E+00
         21   -1    0    0  502  501  0.00000000000E+00  0.00000000000E+00  0.81505551445E+03  0.81505551445E+03  0.00000000000E+00 0.  1.
         21   -1    0    0  501  502 -0.00000000000E+00 -0.00000000000E+00 -0.60294171142E+02  0.60294171142E+02  0.00000000000E+00 0.  1.
      99926    2    1    2    0    0 -0.71054273576E-14  0.00000000000E+00  0.75476134331E+03  0.87534968559E+03  0.44336484605E+03 0.  0.
         25    1    3    3    0    0  0.41836897073E+02  0.59157233424E+02  0.16140929954E+03  0.21668035052E+03  0.12509000000E+03 0.  0.
         25    1    3    3    0    0  0.27894264871E+02 -0.36002684701E+01  0.32635801868E+03  0.35063958191E+03  0.12509000000E+03 0.  0.
         25    1    3    3    0    0 -0.69731161944E+02 -0.55556964954E+02  0.26699402509E+03  0.30802975317E+03  0.12509000000E+03 0.  0.
<mgrwt>
<rscale>  2 0.44336485E+03</rscale>
<asrwt>0</asrwt>
<pdfrwt beam="1">  1       21 0.11986110E+00 0.44336485E+03</pdfrwt>
<pdfrwt beam="2">  1       21 0.88667903E-02 0.44336485E+03</pdfrwt>
<totfact> 0.48596080E+04</totfact>
</mgrwt>
</event>
<event>
 6    0  0.1539652E-007  0.4368219E+03  0.7546771E-02  0.1031726E+00
         21   -1    0    0  502  501  0.00000000000E+00  0.00000000000E+00  0.88932871887E+03  0.88932871887E+03  0.00000000000E+00 0. -1.
         21   -1    0    0  501  502 -0.00000000000E+00 -0.00000000000E+00 -0.53639710215E+02  0.53639710215E+02  0.00000000000E+00 0. -1.
      99926    2    1    2    0    0  0.00000000000E+00  0.00000000000E+00  0.83568900865E+03  0.94296842908E+03  0.43682186193E+03 0.  0.
         25    1    3    3    0    0 -0.34873749400E+02 -0.84634696171E+02  0.26586157666E+03  0.30774843011E+03  0.12509000000E+03 0.  0.
         25    1    3    3    0    0  0.53119096787E+02  0.60594501789E+02  0.25711822762E+03  0.29707006441E+03  0.12509000000E+03 0.  0.
         25    1    3    3    0    0 -0.18245347387E+02  0.24040194382E+02  0.31270920437E+03  0.33814993456E+03  0.12509000000E+03 0.  0.
<mgrwt>
<rscale>  2 0.43682186E+03</rscale>
<asrwt>0</asrwt>
<pdfrwt beam="1">  1       21 0.13078363E+00 0.43682186E+03</pdfrwt>
<pdfrwt beam="2">  1       21 0.78881932E-02 0.43682186E+03</pdfrwt>
<totfact> 0.47879459E+04</totfact>
</mgrwt>
</event>
<event>
 6    0  0.1539652E-007  0.4597710E+03  0.7546771E-02  0.1024848E+00
         21   -1    0    0  502  501  0.00000000000E+00  0.00000000000E+00  0.24562062388E+03  0.24562062388E+03  0.00000000000E+00 0.  1.
         21   -1    0    0  501  502 -0.00000000000E+00 -0.00000000000E+00 -0.21515841033E+03  0.21515841033E+03  0.00000000000E+00 0.  1.
      99926    2    1    2    0    0 -0.53290705182E-14 -0.71054273576E-14  0.30462213547E+02  0.46077903421E+03  0.45977099943E+03 0.  0.
         25    1    3    3    0    0  0.10175944377E+03  0.47099862934E+02  0.51626099624E+02  0.17574454116E+03  0.12509000000E+03 0.  0.
         25    1    3    3    0    0 -0.88291276999E+02 -0.12968805667E+02 -0.57551438451E+01  0.15376660657E+03  0.12509000000E+03 0.  0.
         25    1    3    3    0    0 -0.13468166767E+02 -0.34131057267E+02 -0.15408742231E+02  0.13126788649E+03  0.12509000000E+03 0.  0.
<mgrwt>
<rscale>  2 0.45977100E+03</rscale>
<asrwt>0</asrwt>
<pdfrwt beam="1">  1       21 0.36120680E-01 0.45977100E+03</pdfrwt>
<pdfrwt beam="2">  1       21 0.31640943E-01 0.45977100E+03</pdfrwt>
<totfact> 0.65591861E+04</totfact>
</mgrwt>
</event>
<event>
 6    0  0.1539652E-007  0.4562341E+03  0.7546771E-02  0.1025879E+00
         21   -1    0    0  502  501  0.00000000000E+00  0.00000000000E+00  0.22009732477E+03  0.22009732477E+03  0.00000000000E+00 0. -1.
         21   -1    0    0  501  502 -0.00000000000E+00 -0.00000000000E+00 -0.23642899609E+03  0.23642899609E+03  0.00000000000E+00 0. -1.
      99926    2    1    2    0    0  0.00000000000E+00  0.35527136788E-14 -0.16331671318E+02  0.45652632086E+03  0.45623410455E+03 0.  0.
         25    1    3    3    0    0 -0.90574372233E+02 -0.23030812295E+02 -0.77037510303E+01  0.15633614777E+03  0.12509000000E+03 0.  0.
         25    1    3    3    0    0  0.78903322197E+02  0.47465669615E+02  0.44559138549E+02  0.16159130228E+03  0.12509000000E+03 0.  0.
         25    1    3    3    0    0  0.11671050036E+02 -0.24434857320E+02 -0.53187058837E+02  0.13859887081E+03  0.12509000000E+03 0.  0.
<mgrwt>
<rscale>  2 0.45623410E+03</rscale>
<asrwt>0</asrwt>
<pdfrwt beam="1">  1       21 0.32367254E-01 0.45623410E+03</pdfrwt>
<pdfrwt beam="2">  1       21 0.34768970E-01 0.45623410E+03</pdfrwt>
<totfact> 0.67764410E+04</totfact>
</mgrwt>
</event>
<event>
 6    0  0.1539652E-007  0.4911057E+03  0.7546771E-02  0.1016127E+00
         21   -1    0    0  502  501  0.00000000000E+00  0.00000000000E+00  0.38501639449E+03  0.38501639449E+03  0.00000000000E+00 0. -1.
         21   -1    0    0  501  502 -0.00000000000E+00 -0.00000000000E+00 -0.15660681519E+03  0.15660681519E+03  0.00000000000E+00 0. -1.
      99926    2    1    2    0    0  0.71054273576E-14  0.00000000000E+00  0.22840957930E+03  0.54162320967E+03  0.49110565598E+03 0.  0.
         25    1    3    3    0    0 -0.31043389450E+02  0.67015873642E+02 -0.27230603566E+02  0.14779659407E+03  0.12509000000E+03 0.  0.
         25    1    3    3    0    0  0.78252484238E+02 -0.97769655034E+00  0.99805547351E+02  0.17813776288E+03  0.12509000000E+03 0.  0.
         25    1    3    3    0    0 -0.47209094788E+02 -0.66038177092E+02  0.15583463551E+03  0.21568885273E+03  0.12509000000E+03 0.  0.
<mgrwt>
<rscale>  2 0.49110566E+03</rscale>
<asrwt>0</asrwt>
<pdfrwt beam="1">  1       21 0.56620058E-01 0.49110566E+03</pdfrwt>
<pdfrwt beam="2">  1       21 0.23030414E-01 0.49110566E+03</pdfrwt>
<totfact> 0.47349277E+04</totfact>
</mgrwt>
</event>
<event>
 6    0  0.1539652E-007  0.4648419E+03  0.7546771E-02  0.1023386E+00
         21   -1    0    0  502  501  0.00000000000E+00  0.00000000000E+00  0.92793741289E+02  0.92793741289E+02  0.00000000000E+00 0. -1.
         21   -1    0    0  501  502 -0.00000000000E+00 -0.00000000000E+00 -0.58214602946E+03  0.58214602946E+03  0.00000000000E+00 0. -1.
      99926    2    1    2    0    0  0.00000000000E+00  0.71054273576E-14 -0.48935228817E+03  0.67493977075E+03  0.46484194324E+03 0.  0.
         25    1    3    3    0    0 -0.48079611892E+02 -0.21581335626E+02 -0.29147517401E+03  0.32153178426E+03  0.12509000000E+03 0.  0.
         25    1    3    3    0    0  0.68176809701E+02  0.56220479337E+02 -0.14780174769E+03  0.21284192350E+03  0.12509000000E+03 0.  0.
         25    1    3    3    0    0 -0.20097197809E+02 -0.34639143711E+02 -0.50075366472E+02  0.14056606299E+03  0.12509000000E+03 0.  0.
<mgrwt>
<rscale>  2 0.46484194E+03</rscale>
<asrwt>0</asrwt>
<pdfrwt beam="1">  1       21 0.13646139E-01 0.46484194E+03</pdfrwt>
<pdfrwt beam="2">  1       21 0.85609708E-01 0.46484194E+03</pdfrwt>
<totfact> 0.50270288E+04</totfact>
</mgrwt>
</event>
<event>
 6    0  0.1539652E-007  0.4565195E+03  0.7546771E-02  0.1025796E+00
         21   -1    0    0  502  501  0.00000000000E+00  0.00000000000E+00  0.28489374838E+02  0.28489374838E+02  0.00000000000E+00 0. -1.
         21   -1    0    0  501  502 -0.00000000000E+00 -0.00000000000E+00 -0.18288403453E+04  0.18288403453E+04  0.00000000000E+00 0. -1.
      99926    2    1    2    0    0  0.71054273576E-14  0.00000000000E+00 -0.18003509705E+04  0.18573297202E+04  0.45651952036E+03 0.  0.
         25    1    3    3    0    0  0.77340971654E+02 -0.12935479482E+02 -0.57214188495E+03  0.59088306554E+03  0.12509000000E+03 0.  0.
         25    1    3    3    0    0 -0.21383294476E+02  0.62218982911E+02 -0.37206682556E+03  0.39800713298E+03  0.12509000000E+03 0.  0.
         25    1    3    3    0    0 -0.55957677178E+02 -0.49283503429E+02 -0.85614225996E+03  0.86843952164E+03  0.12509000000E+03 0.  0.
<mgrwt>
<rscale>  2 0.45651952E+03</rscale>
<asrwt>0</asrwt>
<pdfrwt beam="1">  1       21 0.41896133E-02 0.45651952E+03</pdfrwt>
<pdfrwt beam="2">  1       21 0.26894715E+00 0.45651952E+03</pdfrwt>
<totfact> 0.15992863E+04</totfact>
</mgrwt>
</event>
<event>
 6    0  0.1539652E-007  0.4523611E+03  0.7546771E-02  0.1027020E+00
         21   -1    0    0  502  501  0.00000000000E+00  0.00000000000E+00  0.20207067965E+03  0.20207067965E+03  0.00000000000E+00 0.  1.
         21   -1    0    0  501  502 -0.00000000000E+00 -0.00000000000E+00 -0.25316705842E+03  0.25316705842E+03  0.00000000000E+00 0.  1.
      99926    2    1    2    0    0  0.00000000000E+00  0.00000000000E+00 -0.51096378769E+02  0.45523773806E+03  0.45236109275E+03 0.  0.
         25    1    3    3    0    0 -0.49538008347E+02 -0.78499248887E+02 -0.52673741175E+02  0.16443289651E+03  0.12509000000E+03 0.  0.
         25    1    3    3    0    0  0.32957320326E+02  0.40051251283E+02  0.58022404199E+02  0.14732411609E+03  0.12509000000E+03 0.  0.
         25    1    3    3    0    0  0.16580688022E+02  0.38447997604E+02 -0.56445041793E+02  0.14348072546E+03  0.12509000000E+03 0.  0.
<mgrwt>
<rscale>  2 0.45236109E+03</rscale>
<asrwt>0</asrwt>
<pdfrwt beam="1">  1       21 0.29716277E-01 0.45236109E+03</pdfrwt>
<pdfrwt beam="2">  1       21 0.37230450E-01 0.45236109E+03</pdfrwt>
<totfact> 0.69990346E+04</totfact>
</mgrwt>
</event>
<event>
 6    0  0.1539652E-007  0.4545741E+03  0.7546771E-02  0.1026367E+00
         21   -1    0    0  502  501  0.00000000000E+00  0.00000000000E+00  0.77245340814E+03  0.77245340814E+03  0.00000000000E+00 0.  1.
         21   -1    0    0  501  502 -0.00000000000E+00 -0.00000000000E+00 -0.66877054611E+02  0.66877054611E+02  0.00000000000E+00 0.  1.
      99926    2    1    2    0    0  0.00000000000E+00  0.00000000000E+00  0.70557635353E+03  0.83933046276E+03  0.45457412492E+03 0.  0.
         25    1    3    3    0    0 -0.12707178004E+02 -0.28564393361E+02  0.42686575746E+03  0.44591398266E+03  0.12509000000E+03 0.  0.
         25    1    3    3    0    0  0.24186487833E+02  0.51052133027E+02  0.84979334219E+02  0.16143203469E+03  0.12509000000E+03 0.  0.
         25    1    3    3    0    0 -0.11479309829E+02 -0.22487739666E+02  0.19373126185E+03  0.23198444540E+03  0.12509000000E+03 0.  0.
<mgrwt>
<rscale>  2 0.45457412E+03</rscale>
<asrwt>0</asrwt>
<pdfrwt beam="1">  1       21 0.11359608E+00 0.45457412E+03</pdfrwt>
<pdfrwt beam="2">  1       21 0.98348614E-02 0.45457412E+03</pdfrwt>
<totfact> 0.46074250E+04</totfact>
</mgrwt>
</event>
<event>
 6    0  0.1539652E-007  0.4586750E+03  0.7546771E-02  0.1025166E+00
         21   -1    0    0  502  501  0.00000000000E+00  0.00000000000E+00  0.19059255820E+03  0.19059255820E+03  0.00000000000E+00 0.  1.
         21   -1    0    0  501  502 -0.00000000000E+00 -0.00000000000E+00 -0.27595873826E+03  0.27595873826E+03  0.00000000000E+00 0.  1.
      99926    2    1    2    0    0  0.00000000000E+00  0.00000000000E+00 -0.85366180065E+02  0.46655129646E+03  0.45867496937E+03 0.  0.
         25    1    3    3    0    0 -0.74423448718E+02  0.68463979773E+02 -0.39641950134E+02  0.16566580382E+03  0.12509000000E+03 0.  0.
         25    1    3    3    0    0  0.99212797293E+02 -0.44600362033E+02 -0.88313821586E+01  0.16600564102E+03  0.12509000000E+03 0.  0.
         25    1    3    3    0    0 -0.24789348575E+02 -0.23863617740E+02 -0.36892847772E+02  0.13487985161E+03  0.12509000000E+03 0.  0.
<mgrwt>
<rscale>  2 0.45867497E+03</rscale>
<asrwt>0</asrwt>
<pdfrwt beam="1">  1       21 0.28028317E-01 0.45867497E+03</pdfrwt>
<pdfrwt beam="2">  1       21 0.40582167E-01 0.45867497E+03</pdfrwt>
<totfact> 0.65753188E+04</totfact>
</mgrwt>
</event>
<event>
 6    0  0.1539652E-007  0.4545766E+03  0.7546771E-02  0.1026366E+00
         21   -1    0    0  502  501  0.00000000000E+00  0.00000000000E+00  0.77663817435E+03  0.77663817435E+03  0.00000000000E+00 0. -1.
         21   -1    0    0  501  502 -0.00000000000E+00 -0.00000000000E+00 -0.66517413508E+02  0.66517413508E+02  0.00000000000E+00 0. -1.
      99926    2    1    2    0    0  0.14210854715E-13 -0.17763568394E-14  0.71012076085E+03  0.84315558786E+03  0.45457656160E+03 0.  0.
         25    1    3    3    0    0  0.68024593869E+02  0.12572165639E+02  0.20686606697E+03  0.25144876711E+03  0.12509000000E+03 0.  0.
         25    1    3    3    0    0 -0.61622030013E+02  0.61779529527E+02  0.34164169825E+03  0.37413973718E+03  0.12509000000E+03 0.  0.
         25    1    3    3    0    0 -0.64025638553E+01 -0.74351695165E+02  0.16161299563E+03  0.21756708357E+03  0.12509000000E+03 0.  0.
<mgrwt>
<rscale>  2 0.45457656E+03</rscale>
<asrwt>0</asrwt>
<pdfrwt beam="1">  1       21 0.11421149E+00 0.45457656E+03</pdfrwt>
<pdfrwt beam="2">  1       21 0.97819730E-02 0.45457656E+03</pdfrwt>
<totfact> 0.45899407E+04</totfact>
</mgrwt>
</event>
<event>
 6    0  0.1539652E-007  0.4547614E+03  0.7546771E-02  0.1026312E+00
         21   -1    0    0  502  501  0.00000000000E+00  0.00000000000E+00  0.64159168954E+03  0.64159168954E+03  0.00000000000E+00 0. -1.
         21   -1    0    0  501  502 -0.00000000000E+00 -0.00000000000E+00 -0.80583921151E+02  0.80583921151E+02  0.00000000000E+00 0. -1.
      99926    2    1    2    0    0  0.00000000000E+00 -0.35527136788E-14  0.56100776839E+03  0.72217561069E+03  0.45476136213E+03 0.  0.
         25    1    3    3    0    0 -0.29538090980E+02 -0.61611185990E+02  0.97992527464E+02  0.17296959443E+03  0.12509000000E+03 0.  0.
         25    1    3    3    0    0 -0.19938679054E+02  0.77345228056E+02  0.16541916390E+03  0.22224050736E+03  0.12509000000E+03 0.  0.
         25    1    3    3    0    0  0.49476770034E+02 -0.15734042067E+02  0.29759607702E+03  0.32696550890E+03  0.12509000000E+03 0.  0.
<mgrwt>
<rscale>  2 0.45476136E+03</rscale>
<asrwt>0</asrwt>
<pdfrwt beam="1">  1       21 0.94351717E-01 0.45476136E+03</pdfrwt>
<pdfrwt beam="2">  1       21 0.11850577E-01 0.45476136E+03</pdfrwt>
<totfact> 0.51812672E+04</totfact>
</mgrwt>
</event>
<event>
 6    0  0.1539652E-007  0.4551495E+03  0.7546771E-02  0.1026197E+00
         21   -1    0    0  502  501  0.00000000000E+00  0.00000000000E+00  0.24310848400E+03  0.24310848400E+03  0.00000000000E+00 0.  1.
         21   -1    0    0  501  502 -0.00000000000E+00 -0.00000000000E+00 -0.21303360887E+03  0.21303360887E+03  0.00000000000E+00 0.  1.
      99926    2    1    2    0    0  0.71054273576E-14  0.35527136788E-14  0.30074875133E+02  0.45614209287E+03  0.45514954770E+03 0.  0.
         25    1    3    3    0    0  0.46272622277E+02 -0.75196910781E+02  0.90277256975E+02  0.17774482324E+03  0.12509000000E+03 0.  0.
         25    1    3    3    0    0 -0.81855799906E+01  0.56924010302E+02 -0.48000052039E+02  0.14580418295E+03  0.12509000000E+03 0.  0.
         25    1    3    3    0    0 -0.38087042286E+02  0.18272900479E+02 -0.12202329803E+02  0.13259308668E+03  0.12509000000E+03 0.  0.
<mgrwt>
<rscale>  2 0.45514955E+03</rscale>
<asrwt>0</asrwt>
<pdfrwt beam="1">  1       21 0.35751248E-01 0.45514955E+03</pdfrwt>
<pdfrwt beam="2">  1       21 0.31328472E-01 0.45514955E+03</pdfrwt>
<totfact> 0.68380612E+04</totfact>
</mgrwt>
</event>
<event>
 6    0  0.1539652E-007  0.4541717E+03  0.7546771E-02  0.1026485E+00
         21   -1    0    0  502  501  0.00000000000E+00  0.00000000000E+00  0.27924778342E+03  0.27924778342E+03  0.00000000000E+00 0.  1.
         21   -1    0    0  501  502 -0.00000000000E+00 -0.00000000000E+00 -0.18466744558E+03  0.18466744558E+03  0.00000000000E+00 0.  1.
      99926    2    1    2    0    0  0.00000000000E+00 -0.71054273576E-14  0.94580337836E+02  0.46391522900E+03  0.45417166291E+03 0.  0.
         25    1    3    3    0    0  0.49632928197E+02 -0.10494520304E+02  0.42958125200E+02  0.14165617226E+03  0.12509000000E+03 0.  0.
         25    1    3    3    0    0 -0.18276165416E+02  0.98252988635E+02  0.44179901129E+02  0.16609346694E+03  0.12509000000E+03 0.  0.
         25    1    3    3    0    0 -0.31356762782E+02 -0.87758468331E+02  0.74423115072E+01  0.15616558980E+03  0.12509000000E+03 0.  0.
<mgrwt>
<rscale>  2 0.45417166E+03</rscale>
<asrwt>0</asrwt>
<pdfrwt beam="1">  1       21 0.41065850E-01 0.45417166E+03</pdfrwt>
<pdfrwt beam="2">  1       21 0.27156977E-01 0.45417166E+03</pdfrwt>
<totfact> 0.68339647E+04</totfact>
</mgrwt>
</event>
<event>
 6    0  0.1539652E-007  0.4520675E+03  0.7546771E-02  0.1027107E+00
         21   -1    0    0  502  501  0.00000000000E+00  0.00000000000E+00  0.13008936201E+04  0.13008936201E+04  0.00000000000E+00 0.  1.
         21   -1    0    0  501  502 -0.00000000000E+00 -0.00000000000E+00 -0.39273977687E+02  0.39273977687E+02  0.00000000000E+00 0.  1.
      99926    2    1    2    0    0  0.00000000000E+00  0.00000000000E+00  0.12616196425E+04  0.13401675978E+04  0.45206754809E+03 0.  0.
         25    1    3    3    0    0  0.11247386624E+02 -0.68437101870E+02  0.38010490940E+03  0.40612484640E+03  0.12509000000E+03 0.  0.
         25    1    3    3    0    0  0.27698548509E+02  0.10424918593E+03  0.37761349978E+03  0.41215842303E+03  0.12509000000E+03 0.  0.
         25    1    3    3    0    0 -0.38945935134E+02 -0.35812084060E+02  0.50390123327E+03  0.52188432839E+03  0.12509000000E+03 0.  0.
<mgrwt>
<rscale>  2 0.45206755E+03</rscale>
<asrwt>0</asrwt>
<pdfrwt beam="1">  1       21 0.19130786E+00 0.45206755E+03</pdfrwt>
<pdfrwt beam="2">  1       21 0.57755858E-02 0.45206755E+03</pdfrwt>
<totfact> 0.28617072E+04</totfact>
</mgrwt>
</event>
<event>
 6    0  0.1539652E-007  0.4629437E+03  0.7546771E-02  0.1023931E+00
         21   -1    0    0  502  501  0.00000000000E+00  0.00000000000E+00  0.40242302596E+02  0.40242302596E+02  0.00000000000E+00 0.  1.
         21   -1    0    0  501  502 -0.00000000000E+00 -0.00000000000E+00 -0.13314154702E+04  0.13314154702E+04  0.00000000000E+00 0.  1.
      99926    2    1    2    0    0  0.97144514655E-16 -0.71054273576E-14 -0.12911731676E+04  0.13716577728E+04  0.46294372977E+03 0.  0.
         25    1    3    3    0    0  0.15116003522E+02 -0.82641363918E+02 -0.33291887262E+03  0.36543203532E+03  0.12509000000E+03 0.  0.
         25    1    3    3    0    0  0.95082609792E-01  0.15996939018E+02 -0.69974866363E+03  0.71102152671E+03  0.12509000000E+03 0.  0.
         25    1    3    3    0    0 -0.15211086132E+02  0.66644424899E+02 -0.25850563139E+03  0.29520421080E+03  0.12509000000E+03 0.  0.
<mgrwt>
<rscale>  2 0.46294373E+03</rscale>
<asrwt>0</asrwt>
<pdfrwt beam="1">  1       21 0.59179865E-02 0.46294373E+03</pdfrwt>
<pdfrwt beam="2">  1       21 0.19579637E+00 0.46294373E+03</pdfrwt>
<totfact> 0.25486896E+04</totfact>
</mgrwt>
</event>
<event>
 6    0  0.1539652E-007  0.4554627E+03  0.7546771E-02  0.1026105E+00
         21   -1    0    0  502  501  0.00000000000E+00  0.00000000000E+00  0.11209149367E+04  0.11209149367E+04  0.00000000000E+00 0.  1.
         21   -1    0    0  501  502 -0.00000000000E+00 -0.00000000000E+00 -0.46267174142E+02  0.46267174142E+02  0.00000000000E+00 0.  1.
      99926    2    1    2    0    0  0.00000000000E+00  0.00000000000E+00  0.10746477625E+04  0.11671821108E+04  0.45546269473E+03 0.  0.
         25    1    3    3    0    0  0.61512520742E+02 -0.56806472709E+02  0.44143981367E+03  0.46639830911E+03  0.12509000000E+03 0.  0.
         25    1    3    3    0    0 -0.18839376036E+02 -0.10865726222E+02  0.15672616942E+03  0.20170172626E+03  0.12509000000E+03 0.  0.
         25    1    3    3    0    0 -0.42673144706E+02  0.67672198931E+02  0.47648177945E+03  0.49908207545E+03  0.12509000000E+03 0.  0.
<mgrwt>
<rscale>  2 0.45546269E+03</rscale>
<asrwt>0</asrwt>
<pdfrwt beam="1">  1       21 0.16484042E+00 0.45546269E+03</pdfrwt>
<pdfrwt beam="2">  1       21 0.68039969E-02 0.45546269E+03</pdfrwt>
<totfact> 0.33094366E+04</totfact>
</mgrwt>
</event>
<event>
 6    0  0.1539652E-007  0.4550033E+03  0.7546771E-02  0.1026240E+00
         21   -1    0    0  502  501  0.00000000000E+00  0.00000000000E+00  0.30115427823E+02  0.30115427823E+02  0.00000000000E+00 0.  1.
         21   -1    0    0  501  502 -0.00000000000E+00 -0.00000000000E+00 -0.17186205211E+04  0.17186205211E+04  0.00000000000E+00 0.  1.
      99926    2    1    2    0    0  0.35527136788E-14  0.00000000000E+00 -0.16885050932E+04  0.17487359489E+04  0.45500326266E+03 0.  0.
         25    1    3    3    0    0  0.79677604687E+02 -0.50597138341E+02 -0.72437684826E+03  0.74113286089E+03  0.12509000000E+03 0.  0.
         25    1    3    3    0    0 -0.10098073521E+03  0.18569375601E+02 -0.54465725183E+03  0.56819095440E+03  0.12509000000E+03 0.  0.
         25    1    3    3    0    0  0.21303130518E+02  0.32027762740E+02 -0.41947099315E+03  0.43941213360E+03  0.12509000000E+03 0.  0.
<mgrwt>
<rscale>  2 0.45500326E+03</rscale>
<asrwt>0</asrwt>
<pdfrwt beam="1">  1       21 0.44287415E-02 0.45500326E+03</pdfrwt>
<pdfrwt beam="2">  1       21 0.25273819E+00 0.45500326E+03</pdfrwt>
<totfact> 0.18265167E+04</totfact>
</mgrwt>
</event>
<event>
 6    0  0.1539652E-007  0.4582364E+03  0.7546771E-02  0.1025294E+00
         21   -1    0    0  502  501  0.00000000000E+00  0.00000000000E+00  0.58137361333E+02  0.58137361333E+02  0.00000000000E+00 0. -1.
         21   -1    0    0  501  502 -0.00000000000E+00 -0.00000000000E+00 -0.90295049994E+03  0.90295049994E+03  0.00000000000E+00 0. -1.
      99926    2    1    2    0    0  0.00000000000E+00  0.71054273576E-14 -0.84481313860E+03  0.96108786127E+03  0.45823644325E+03 0.  0.
         25    1    3    3    0    0  0.49388995070E+02  0.39496236853E+02 -0.24886284130E+03  0.28562116070E+03  0.12509000000E+03 0.  0.
         25    1    3    3    0    0  0.24981427544E+02 -0.89317773515E+02 -0.37690801634E+03  0.40780987883E+03  0.12509000000E+03 0.  0.
         25    1    3    3    0    0 -0.74370422614E+02  0.49821536662E+02 -0.21904228097E+03  0.26765682174E+03  0.12509000000E+03 0.  0.
<mgrwt>
<rscale>  2 0.45823644E+03</rscale>
<asrwt>0</asrwt>
<pdfrwt beam="1">  1       21 0.85496128E-02 0.45823644E+03</pdfrwt>
<pdfrwt beam="2">  1       21 0.13278683E+00 0.45823644E+03</pdfrwt>
<totfact> 0.39681385E+04</totfact>
</mgrwt>
</event>
<event>
 6    0  0.1539652E-007  0.4611946E+03  0.7546771E-02  0.1024435E+00
         21   -1    0    0  502  501  0.00000000000E+00  0.00000000000E+00  0.58971639261E+03  0.58971639261E+03  0.00000000000E+00 0. -1.
         21   -1    0    0  501  502 -0.00000000000E+00 -0.00000000000E+00 -0.90170646119E+02  0.90170646119E+02  0.00000000000E+00 0. -1.
      99926    2    1    2    0    0  0.00000000000E+00  0.00000000000E+00  0.49954574649E+03  0.67988703873E+03  0.46119457130E+03 0.  0.
         25    1    3    3    0    0  0.15866634041E+02 -0.31026283709E+02  0.38606134324E+02  0.13547074246E+03  0.12509000000E+03 0.  0.
         25    1    3    3    0    0 -0.49177194154E+02 -0.20854654832E+01  0.33432587513E+03  0.36033879124E+03  0.12509000000E+03 0.  0.
         25    1    3    3    0    0  0.33310560112E+02  0.33111749193E+02  0.12661373704E+03  0.18407750503E+03  0.12509000000E+03 0.  0.
<mgrwt>
<rscale>  2 0.46119457E+03</rscale>
<asrwt>0</asrwt>
<pdfrwt beam="1">  1       21 0.86722997E-01 0.46119457E+03</pdfrwt>
<pdfrwt beam="2">  1       21 0.13260389E-01 0.46119457E+03</pdfrwt>
<totfact> 0.51451221E+04</totfact>
</mgrwt>
</event>
<event>
 6    0  0.1539652E-007  0.4431731E+03  0.7546771E-02  0.1029778E+00
         21   -1    0    0  502  501  0.00000000000E+00  0.00000000000E+00  0.47934873066E+03  0.47934873066E+03  0.00000000000E+00 0. -1.
         21   -1    0    0  501  502 -0.00000000000E+00 -0.00000000000E+00 -0.10243190647E+03  0.10243190647E+03  0.00000000000E+00 0. -1.
      99926    2    1    2    0    0 -0.62172489379E-14 -0.71054273576E-14  0.37691682420E+03  0.58178063713E+03  0.44317312348E+03 0.  0.
         25    1    3    3    0    0 -0.57223266564E+02  0.46008038770E+02  0.98015236566E+02  0.17505923731E+03  0.12509000000E+03 0.  0.
         25    1    3    3    0    0  0.49566726744E+02 -0.84303942455E+02  0.19348894031E+03  0.25029880790E+03  0.12509000000E+03 0.  0.
         25    1    3    3    0    0  0.76565398195E+01  0.38295903685E+02  0.85412647322E+02  0.15642259192E+03  0.12509000000E+03 0.  0.
<mgrwt>
<rscale>  2 0.44317312E+03</rscale>
<asrwt>0</asrwt>
<pdfrwt beam="1">  1       21 0.70492459E-01 0.44317312E+03</pdfrwt>
<pdfrwt beam="2">  1       21 0.15063516E-01 0.44317312E+03</pdfrwt>
<totfact> 0.65748665E+04</totfact>
</mgrwt>
</event>
<event>
 6    0  0.1539652E-007  0.4538378E+03  0.7546771E-02  0.1026584E+00
         21   -1    0    0  502  501  0.00000000000E+00  0.00000000000E+00  0.57739884717E+03  0.57739884717E+03  0.00000000000E+00 0. -1.
         21   -1    0    0  501  502 -0.00000000000E+00 -0.00000000000E+00 -0.89179585134E+02  0.89179585134E+02  0.00000000000E+00 0. -1.
      99926    2    1    2    0    0  0.00000000000E+00  0.72164496601E-15  0.48821926203E+03  0.66657843230E+03  0.45383781089E+03 0.  0.
         25    1    3    3    0    0  0.11738589058E+02  0.11917655675E+02  0.33323769804E+03  0.35633509016E+03  0.12509000000E+03 0.  0.
         25    1    3    3    0    0 -0.51227392245E+02 -0.41503539001E+00  0.60044608411E+02  0.14790970580E+03  0.12509000000E+03 0.  0.
         25    1    3    3    0    0  0.39488803187E+02 -0.11502620284E+02  0.94936955585E+02  0.16233363634E+03  0.12509000000E+03 0.  0.
<mgrwt>
<rscale>  2 0.45383781E+03</rscale>
<asrwt>0</asrwt>
<pdfrwt beam="1">  1       21 0.84911593E-01 0.45383781E+03</pdfrwt>
<pdfrwt beam="2">  1       21 0.13114645E-01 0.45383781E+03</pdfrwt>
<totfact> 0.55259833E+04</totfact>
</mgrwt>
</event>
<event>
 6    0  0.1539652E-007  0.4307449E+03  0.7546771E-02  0.1033625E+00
         21   -1    0    0  502  501  0.00000000000E+00  0.00000000000E+00  0.89784924680E+02  0.89784924680E+02  0.00000000000E+00 0. -1.
         21   -1    0    0  501  502 -0.00000000000E+00 -0.00000000000E+00 -0.51662677891E+03  0.51662677891E+03  0.00000000000E+00 0. -1.
      99926    2    1    2    0    0  0.00000000000E+00  0.00000000000E+00 -0.42684185423E+03  0.60641170359E+03  0.43074491956E+03 0.  0.
         25    1    3    3    0    0 -0.11618462866E+02 -0.80131480972E+02 -0.17518863499E+03  0.22998827981E+03  0.12509000000E+03 0.  0.
         25    1    3    3    0    0  0.82733387263E+01  0.60065599890E+02 -0.71950341146E+02  0.15652694373E+03  0.12509000000E+03 0.  0.
         25    1    3    3    0    0  0.33451241398E+01  0.20065881083E+02 -0.17970287809E+03  0.21989648004E+03  0.12509000000E+03 0.  0.
<mgrwt>
<rscale>  2 0.43074492E+03</rscale>
<asrwt>0</asrwt>
<pdfrwt beam="1">  1       21 0.13203665E-01 0.43074492E+03</pdfrwt>
<pdfrwt beam="2">  1       21 0.75974528E-01 0.43074492E+03</pdfrwt>
<totfact> 0.70928318E+04</totfact>
</mgrwt>
</event>
<event>
 6    0  0.1539652E-007  0.4636001E+03  0.7546771E-02  0.1023742E+00
         21   -1    0    0  502  501  0.00000000000E+00  0.00000000000E+00  0.38392383525E+02  0.38392383525E+02  0.00000000000E+00 0. -1.
         21   -1    0    0  501  502 -0.00000000000E+00 -0.00000000000E+00 -0.13995292668E+04  0.13995292668E+04  0.00000000000E+00 0. -1.
      99926    2    1    2    0    0  0.00000000000E+00 -0.17763568394E-14 -0.13611368833E+04  0.14379216503E+04  0.46360010512E+03 0.  0.
         25    1    3    3    0    0  0.48509759040E+02  0.68772533421E+02 -0.28470715241E+03  0.32216227093E+03  0.12509000000E+03 0.  0.
         25    1    3    3    0    0  0.13759659268E+02  0.83996722145E+01 -0.60597938393E+03  0.61896559240E+03  0.12509000000E+03 0.  0.
         25    1    3    3    0    0 -0.62269418308E+02 -0.77172205635E+02 -0.47045034695E+03  0.49679378702E+03  0.12509000000E+03 0.  0.
<mgrwt>
<rscale>  2 0.46360011E+03</rscale>
<asrwt>0</asrwt>
<pdfrwt beam="1">  1       21 0.56459402E-02 0.46360011E+03</pdfrwt>
<pdfrwt beam="2">  1       21 0.20581308E+00 0.46360011E+03</pdfrwt>
<totfact> 0.23714135E+04</totfact>
</mgrwt>
</event>
<event>
 6    0  0.1539652E-007  0.4587538E+03  0.7546771E-02  0.1025143E+00
         21   -1    0    0  502  501  0.00000000000E+00  0.00000000000E+00  0.82788715618E+03  0.82788715618E+03  0.00000000000E+00 0.  1.
         21   -1    0    0  501  502 -0.00000000000E+00 -0.00000000000E+00 -0.63551857777E+02  0.63551857777E+02  0.00000000000E+00 0.  1.
      99926    2    1    2    0    0  0.00000000000E+00  0.71054273576E-14  0.76433529840E+03  0.89143901395E+03  0.45875381984E+03 0.  0.
         25    1    3    3    0    0  0.88778939101E+02 -0.62405733949E+02  0.36168229277E+03  0.39779110681E+03  0.12509000000E+03 0.  0.
         25    1    3    3    0    0 -0.54341385254E+02  0.22941105599E+01  0.24787743869E+03  0.28292928764E+03  0.12509000000E+03 0.  0.
         25    1    3    3    0    0 -0.34437553846E+02  0.60111623389E+02  0.15477556695E+03  0.21071861950E+03  0.12509000000E+03 0.  0.
<mgrwt>
<rscale>  2 0.45875382E+03</rscale>
<asrwt>0</asrwt>
<pdfrwt beam="1">  1       21 0.12174810E+00 0.45875382E+03</pdfrwt>
<pdfrwt beam="2">  1       21 0.93458619E-02 0.45875382E+03</pdfrwt>
<totfact> 0.42347346E+04</totfact>
</mgrwt>
</event>
<event>
 6    0  0.1539652E-007  0.4604938E+03  0.7546771E-02  0.1024638E+00
         21   -1    0    0  502  501  0.00000000000E+00  0.00000000000E+00  0.13512803053E+03  0.13512803053E+03  0.00000000000E+00 0. -1.
         21   -1    0    0  501  502 -0.00000000000E+00 -0.00000000000E+00 -0.39232155921E+03  0.39232155921E+03  0.00000000000E+00 0. -1.
      99926    2    1    2    0    0  0.00000000000E+00  0.00000000000E+00 -0.25719352868E+03  0.52744958975E+03  0.46049382030E+03 0.  0.
         25    1    3    3    0    0 -0.66520384160E+02  0.64773715995E+02 -0.55125090752E+02  0.16524793349E+03  0.12509000000E+03 0.  0.
         25    1    3    3    0    0 -0.27814119760E+01 -0.39315344466E+02 -0.25574857366E+02  0.13362265524E+03  0.12509000000E+03 0.  0.
         25    1    3    3    0    0  0.69301796136E+02 -0.25458371529E+02 -0.17649358056E+03  0.22857900102E+03  0.12509000000E+03 0.  0.
<mgrwt>
<rscale>  2 0.46049382E+03</rscale>
<asrwt>0</asrwt>
<pdfrwt beam="1">  1       21 0.19871769E-01 0.46049382E+03</pdfrwt>
<pdfrwt beam="2">  1       21 0.57694346E-01 0.46049382E+03</pdfrwt>
<totfact> 0.60692818E+04</totfact>
</mgrwt>
</event>
<event>
 6    0  0.1539652E-007  0.4590081E+03  0.7546771E-02  0.1025069E+00
         21   -1    0    0  502  501  0.00000000000E+00  0.00000000000E+00  0.11107707854E+03  0.11107707854E+03  0.00000000000E+00 0.  1.
         21   -1    0    0  501  502 -0.00000000000E+00 -0.00000000000E+00 -0.47419429459E+03  0.47419429459E+03  0.00000000000E+00 0.  1.
      99926    2    1    2    0    0 -0.35527136788E-14  0.00000000000E+00 -0.36311721604E+03  0.58527137313E+03  0.45900813458E+03 0.  0.
         25    1    3    3    0    0  0.66936160683E+02  0.77848190019E+02 -0.15081891267E+03  0.22121176012E+03  0.12509000000E+03 0.  0.
         25    1    3    3    0    0 -0.85645588193E+02 -0.98197613861E+01 -0.10214656090E+03  0.18306562347E+03  0.12509000000E+03 0.  0.
         25    1    3    3    0    0  0.18709427510E+02 -0.68028428633E+02 -0.11015174247E+03  0.18099398954E+03  0.12509000000E+03 0.  0.
<mgrwt>
<rscale>  2 0.45900813E+03</rscale>
<asrwt>0</asrwt>
<pdfrwt beam="1">  1       21 0.16334865E-01 0.45900813E+03</pdfrwt>
<pdfrwt beam="2">  1       21 0.69734455E-01 0.45900813E+03</pdfrwt>
<totfact> 0.57742806E+04</totfact>
</mgrwt>
</event>
<event>
 6    0  0.1539652E-007  0.4589597E+03  0.7546771E-02  0.1025083E+00
         21   -1    0    0  502  501  0.00000000000E+00  0.00000000000E+00  0.50471281447E+03  0.50471281447E+03  0.00000000000E+00 0. -1.
         21   -1    0    0  501  502 -0.00000000000E+00 -0.00000000000E+00 -0.10433856808E+03  0.10433856808E+03  0.00000000000E+00 0. -1.
      99926    2    1    2    0    0  0.00000000000E+00  0.00000000000E+00  0.40037424639E+03  0.60905138255E+03  0.45895974705E+03 0.  0.
         25    1    3    3    0    0 -0.82738156512E+02 -0.58436329451E+02  0.11257799239E+03  0.19642229917E+03  0.12509000000E+03 0.  0.
         25    1    3    3    0    0  0.94747792358E+02  0.11173823536E+01  0.13939310976E+03  0.20989602152E+03  0.12509000000E+03 0.  0.
         25    1    3    3    0    0 -0.12009635847E+02  0.57318947097E+02  0.14840314425E+03  0.20273306186E+03  0.12509000000E+03 0.  0.
<mgrwt>
<rscale>  2 0.45895975E+03</rscale>
<asrwt>0</asrwt>
<pdfrwt beam="1">  1       21 0.74222471E-01 0.45895975E+03</pdfrwt>
<pdfrwt beam="2">  1       21 0.15343907E-01 0.45895975E+03</pdfrwt>
<totfact> 0.56341452E+04</totfact>
</mgrwt>
</event>
<event>
 6    0  0.1539652E-007  0.4459729E+03  0.7546771E-02  0.1028930E+00
         21   -1    0    0  502  501  0.00000000000E+00  0.00000000000E+00  0.95128969826E+02  0.95128969826E+02  0.00000000000E+00 0. -1.
         21   -1    0    0  501  502 -0.00000000000E+00 -0.00000000000E+00 -0.52268998755E+03  0.52268998755E+03  0.00000000000E+00 0. -1.
      99926    2    1    2    0    0  0.00000000000E+00 -0.71054273576E-14 -0.42756101772E+03  0.61781895737E+03  0.44597291422E+03 0.  0.
         25    1    3    3    0    0  0.73569956965E+01 -0.48197598946E+02 -0.17753525481E+03  0.22258348710E+03  0.12509000000E+03 0.  0.
         25    1    3    3    0    0 -0.78405998109E+02 -0.12459068594E+02 -0.14329743112E+03  0.20611741992E+03  0.12509000000E+03 0.  0.
         25    1    3    3    0    0  0.71049002413E+02  0.60656667539E+02 -0.10672833179E+03  0.18911805035E+03  0.12509000000E+03 0.  0.
<mgrwt>
<rscale>  2 0.44597291E+03</rscale>
<asrwt>0</asrwt>
<pdfrwt beam="1">  1       21 0.13989554E-01 0.44597291E+03</pdfrwt>
<pdfrwt beam="2">  1       21 0.76866174E-01 0.44597291E+03</pdfrwt>
<totfact> 0.61889783E+04</totfact>
</mgrwt>
</event>
<event>
 6    0  0.1539652E-007  0.4519340E+03  0.7546771E-02  0.1027147E+00
         21   -1    0    0  502  501  0.00000000000E+00  0.00000000000E+00  0.39253412220E+03  0.39253412220E+03  0.00000000000E+00 0.  1.
         21   -1    0    0  501  502 -0.00000000000E+00 -0.00000000000E+00 -0.13008060880E+03  0.13008060880E+03  0.00000000000E+00 0.  1.
      99926    2    1    2    0    0  0.43298697960E-14 -0.17763568394E-14  0.26245351339E+03  0.52261473100E+03  0.45193396682E+03 0.  0.
         25    1    3    3    0    0 -0.76928214939E+00  0.43224849047E+01 -0.92800904471E+01  0.12551057266E+03  0.12509000000E+03 0.  0.
         25    1    3    3    0    0 -0.40853766759E+02  0.34226393467E+02  0.69679221323E+02  0.15278474483E+03  0.12509000000E+03 0.  0.
         25    1    3    3    0    0  0.41623048908E+02 -0.38548878372E+02  0.20205438252E+03  0.24431941351E+03  0.12509000000E+03 0.  0.
<mgrwt>
<rscale>  2 0.45193397E+03</rscale>
<asrwt>0</asrwt>
<pdfrwt beam="1">  1       21 0.57725606E-01 0.45193397E+03</pdfrwt>
<pdfrwt beam="2">  1       21 0.19129501E-01 0.45193397E+03</pdfrwt>
<totfact> 0.65281552E+04</totfact>
</mgrwt>
</event>
<event>
 6    0  0.1539652E-007  0.4510190E+03  0.7546771E-02  0.1027419E+00
         21   -1    0    0  502  501  0.00000000000E+00  0.00000000000E+00  0.14536638874E+03  0.14536638874E+03  0.00000000000E+00 0.  1.
         21   -1    0    0  501  502 -0.00000000000E+00 -0.00000000000E+00 -0.34983700651E+03  0.34983700651E+03  0.00000000000E+00 0.  1.
      99926    2    1    2    0    0  0.00000000000E+00  0.14210854715E-13 -0.20447061776E+03  0.49520339525E+03  0.45101903412E+03 0.  0.
         25    1    3    3    0    0  0.38655089084E+02  0.98996528476E+02 -0.10678596852E+03  0.19581950805E+03  0.12509000000E+03 0.  0.
         25    1    3    3    0    0 -0.46242937624E+02 -0.28189475135E+02 -0.68342470605E+02  0.15248362921E+03  0.12509000000E+03 0.  0.
         25    1    3    3    0    0  0.75878485407E+01 -0.70807053341E+02 -0.29342178644E+02  0.14690025798E+03  0.12509000000E+03 0.  0.
<mgrwt>
<rscale>  2 0.45101903E+03</rscale>
<asrwt>0</asrwt>
<pdfrwt beam="1">  1       21 0.21377410E-01 0.45101903E+03</pdfrwt>
<pdfrwt beam="2">  1       21 0.51446618E-01 0.45101903E+03</pdfrwt>
<totfact> 0.67724022E+04</totfact>
</mgrwt>
</event>
<event>
 6    0  0.1539652E-007  0.4508255E+03  0.7546771E-02  0.1027476E+00
         21   -1    0    0  502  501  0.00000000000E+00  0.00000000000E+00  0.10581299734E+04  0.10581299734E+04  0.00000000000E+00 0. -1.
         21   -1    0    0  501  502 -0.00000000000E+00 -0.00000000000E+00 -0.48019542809E+02  0.48019542809E+02  0.00000000000E+00 0. -1.
      99926    2    1    2    0    0  0.00000000000E+00  0.00000000000E+00  0.10101104306E+04  0.11061495162E+04  0.45082554299E+03 0.  0.
         25    1    3    3    0    0 -0.86286831908E+02 -0.61057683257E+02  0.32024195706E+03  0.35968858365E+03  0.12509000000E+03 0.  0.
         25    1    3    3    0    0  0.52037666346E+02  0.14589712224E+02  0.24018180654E+03  0.27614414120E+03  0.12509000000E+03 0.  0.
         25    1    3    3    0    0  0.34249165561E+02  0.46467971033E+02  0.44968666695E+03  0.47031679133E+03  0.12509000000E+03 0.  0.
<mgrwt>
<rscale>  2 0.45082554E+03</rscale>
<asrwt>0</asrwt>
<pdfrwt beam="1">  1       21 0.15560733E+00 0.45082554E+03</pdfrwt>
<pdfrwt beam="2">  1       21 0.70616981E-02 0.45082554E+03</pdfrwt>
<totfact> 0.36452649E+04</totfact>
</mgrwt>
</event>
<event>
 6    0  0.1539652E-007  0.4529164E+03  0.7546771E-02  0.1026856E+00
         21   -1    0    0  502  501  0.00000000000E+00  0.00000000000E+00  0.17027596263E+03  0.17027596263E+03  0.00000000000E+00 0.  1.
         21   -1    0    0  501  502 -0.00000000000E+00 -0.00000000000E+00 -0.30117768897E+03  0.30117768897E+03  0.00000000000E+00 0.  1.
      99926    2    1    2    0    0  0.00000000000E+00  0.71054273576E-14 -0.13090172634E+03  0.47145365160E+03  0.45291642016E+03 0.  0.
         25    1    3    3    0    0 -0.98786691097E+02  0.52666061333E+02 -0.25382873129E+02  0.16977727381E+03  0.12509000000E+03 0.  0.
         25    1    3    3    0    0  0.80615134001E+02 -0.18839612722E+02 -0.73108247735E+02  0.16687137209E+03  0.12509000000E+03 0.  0.
         25    1    3    3    0    0  0.18171557097E+02 -0.33826448611E+02 -0.32410605474E+02  0.13480500569E+03  0.12509000000E+03 0.  0.
<mgrwt>
<rscale>  2 0.45291642E+03</rscale>
<asrwt>0</asrwt>
<pdfrwt beam="1">  1       21 0.25040583E-01 0.45291642E+03</pdfrwt>
<pdfrwt beam="2">  1       21 0.44290836E-01 0.45291642E+03</pdfrwt>
<totfact> 0.68452449E+04</totfact>
</mgrwt>
</event>
<event>
 6    0  0.1539652E-007  0.4571601E+03  0.7546771E-02  0.1025608E+00
         21   -1    0    0  502  501  0.00000000000E+00  0.00000000000E+00  0.37336117730E+03  0.37336117730E+03  0.00000000000E+00 0. -1.
         21   -1    0    0  501  502 -0.00000000000E+00 -0.00000000000E+00 -0.13994178390E+03  0.13994178390E+03  0.00000000000E+00 0. -1.
      99926    2    1    2    0    0  0.00000000000E+00  0.35527136788E-14  0.23341939339E+03  0.51330296120E+03  0.45716005596E+03 0.  0.
         25    1    3    3    0    0 -0.10581510050E+03  0.48147279016E+02  0.43302183157E+02  0.17617486522E+03  0.12509000000E+03 0.  0.
         25    1    3    3    0    0  0.38946430977E+02 -0.16912113607E+02  0.10532458438E+03  0.16894857279E+03  0.12509000000E+03 0.  0.
         25    1    3    3    0    0  0.66868669518E+02 -0.31235165410E+02  0.84792625854E+02  0.16817952319E+03  0.12509000000E+03 0.  0.
<mgrwt>
<rscale>  2 0.45716006E+03</rscale>
<asrwt>0</asrwt>
<pdfrwt beam="1">  1       21 0.54906055E-01 0.45716006E+03</pdfrwt>
<pdfrwt beam="2">  1       21 0.20579674E-01 0.45716006E+03</pdfrwt>
<totfact> 0.63254561E+04</totfact>
</mgrwt>
</event>
<event>
 6    0  0.1539652E-007  0.4501504E+03  0.7546771E-02  0.1027677E+00
         21   -1    0    0  502  501  0.00000000000E+00  0.00000000000E+00  0.47418342978E+02  0.47418342978E+02  0.00000000000E+00 0.  1.
         21   -1    0    0  501  502 -0.00000000000E+00 -0.00000000000E+00 -0.10683384075E+04  0.10683384075E+04  0.00000000000E+00 0.  1.
      99926    2    1    2    0    0  0.00000000000E+00  0.00000000000E+00 -0.10209200646E+04  0.11157567505E+04  0.45015036166E+03 0.  0.
         25    1    3    3    0    0  0.60799400859E+02  0.50712310513E+02 -0.24799590738E+03  0.28882136998E+03  0.12509000000E+03 0.  0.
         25    1    3    3    0    0 -0.44359458002E+02 -0.28831281782E+02 -0.21346644657E+03  0.25301074332E+03  0.12509000000E+03 0.  0.
         25    1    3    3    0    0 -0.16439942856E+02 -0.21881028730E+02 -0.55945771063E+03  0.57392463723E+03  0.12509000000E+03 0.  0.
<mgrwt>
<rscale>  2 0.45015036E+03</rscale>
<asrwt>0</asrwt>
<pdfrwt beam="1">  1       21 0.69732860E-02 0.45015036E+03</pdfrwt>
<pdfrwt beam="2">  1       21 0.15710858E+00 0.45015036E+03</pdfrwt>
<totfact> 0.36299627E+04</totfact>
</mgrwt>
</event>
<event>
 6    0  0.1539652E-007  0.4580043E+03  0.7546771E-02  0.1025362E+00
         21   -1    0    0  502  501  0.00000000000E+00  0.00000000000E+00  0.68871389750E+03  0.68871389750E+03  0.00000000000E+00 0. -1.
         21   -1    0    0  501  502 -0.00000000000E+00 -0.00000000000E+00 -0.76144796383E+02  0.76144796383E+02  0.00000000000E+00 0. -1.
      99926    2    1    2    0    0  0.71054273576E-14  0.00000000000E+00  0.61256910112E+03  0.76485869388E+03  0.45800427724E+03 0.  0.
         25    1    3    3    0    0  0.40626253825E+02  0.16957718118E+02  0.14146439059E+03  0.19390136309E+03  0.12509000000E+03 0.  0.
         25    1    3    3    0    0 -0.73959486804E+02  0.23742450104E+02  0.37994370362E+03  0.40747814131E+03  0.12509000000E+03 0.  0.
         25    1    3    3    0    0  0.33333232979E+02 -0.40700168222E+02  0.91161006912E+02  0.16347918949E+03  0.12509000000E+03 0.  0.
<mgrwt>
<rscale>  2 0.45800428E+03</rscale>
<asrwt>0</asrwt>
<pdfrwt beam="1">  1       21 0.10128145E+00 0.45800428E+03</pdfrwt>
<pdfrwt beam="2">  1       21 0.11197765E-01 0.45800428E+03</pdfrwt>
<totfact> 0.48360573E+04</totfact>
</mgrwt>
</event>
<event>
 6    0  0.1539652E-007  0.4538035E+03  0.7546771E-02  0.1026594E+00
         21   -1    0    0  502  501  0.00000000000E+00  0.00000000000E+00  0.21876927135E+03  0.21876927135E+03  0.00000000000E+00 0. -1.
         21   -1    0    0  501  502 -0.00000000000E+00 -0.00000000000E+00 -0.23533652544E+03  0.23533652544E+03  0.00000000000E+00 0. -1.
      99926    2    1    2    0    0  0.14210854715E-13 -0.35527136788E-14 -0.16567254088E+02  0.45410579680E+03  0.45380348255E+03 0.  0.
         25    1    3    3    0    0 -0.64618150136E+02 -0.20895998868E+02 -0.22742721452E+02  0.14414190083E+03  0.12509000000E+03 0.  0.
         25    1    3    3    0    0  0.54812999874E+02 -0.49019999479E+02 -0.53185243340E+02  0.15454320921E+03  0.12509000000E+03 0.  0.
         25    1    3    3    0    0  0.98051502627E+01  0.69915998347E+02  0.59360710704E+02  0.15542068676E+03  0.12509000000E+03 0.  0.
<mgrwt>
<rscale>  2 0.45380348E+03</rscale>
<asrwt>0</asrwt>
<pdfrwt beam="1">  1       21 0.32171952E-01 0.45380348E+03</pdfrwt>
<pdfrwt beam="2">  1       21 0.34608312E-01 0.45380348E+03</pdfrwt>
<totfact> 0.69270325E+04</totfact>
</mgrwt>
</event>
<event>
 6    0  0.1539652E-007  0.4604751E+03  0.7546771E-02  0.1024644E+00
         21   -1    0    0  502  501  0.00000000000E+00  0.00000000000E+00  0.91428356213E+02  0.91428356213E+02  0.00000000000E+00 0. -1.
         21   -1    0    0  501  502 -0.00000000000E+00 -0.00000000000E+00 -0.57979095369E+03  0.57979095369E+03  0.00000000000E+00 0. -1.
      99926    2    1    2    0    0  0.00000000000E+00  0.00000000000E+00 -0.48836259747E+03  0.67121930990E+03  0.46047511917E+03 0.  0.
         25    1    3    3    0    0  0.64654277325E+02 -0.93870819067E+02 -0.21011575669E+03  0.26979259730E+03  0.12509000000E+03 0.  0.
         25    1    3    3    0    0 -0.29562358029E+02  0.93230934303E+02 -0.16624497865E+03  0.22989310809E+03  0.12509000000E+03 0.  0.
         25    1    3    3    0    0 -0.35091919296E+02  0.63988476457E+00 -0.11200186213E+03  0.17153360450E+03  0.12509000000E+03 0.  0.
<mgrwt>
<rscale>  2 0.46047512E+03</rscale>
<asrwt>0</asrwt>
<pdfrwt beam="1">  1       21 0.13445346E-01 0.46047512E+03</pdfrwt>
<pdfrwt beam="2">  1       21 0.85263378E-01 0.46047512E+03</pdfrwt>
<totfact> 0.52203824E+04</totfact>
</mgrwt>
</event>
<event>
 6    0  0.1539652E-007  0.4527872E+03  0.7546771E-02  0.1026894E+00
         21   -1    0    0  502  501  0.00000000000E+00  0.00000000000E+00  0.81100193673E+02  0.81100193673E+02  0.00000000000E+00 0.  1.
         21   -1    0    0  501  502 -0.00000000000E+00 -0.00000000000E+00 -0.63198440546E+03  0.63198440546E+03  0.00000000000E+00 0.  1.
      99926    2    1    2    0    0  0.17763568394E-14 -0.71054273576E-14 -0.55088421178E+03  0.71308459913E+03  0.45278718039E+03 0.  0.
         25    1    3    3    0    0  0.23043575366E+02  0.52665749315E+02 -0.73261110987E+02  0.15594674091E+03  0.12509000000E+03 0.  0.
         25    1    3    3    0    0 -0.12218316152E+02 -0.79908196509E+02 -0.18463400619E+03  0.23721684481E+03  0.12509000000E+03 0.  0.
         25    1    3    3    0    0 -0.10825259215E+02  0.27242447193E+02 -0.29298909460E+03  0.31992101341E+03  0.12509000000E+03 0.  0.
<mgrwt>
<rscale>  2 0.45278718E+03</rscale>
<asrwt>0</asrwt>
<pdfrwt beam="1">  1       21 0.11926499E-01 0.45278718E+03</pdfrwt>
<pdfrwt beam="2">  1       21 0.92938882E-01 0.45278718E+03</pdfrwt>
<totfact> 0.53116971E+04</totfact>
</mgrwt>
</event>
<event>
 6    0  0.1539652E-007  0.4862222E+03  0.7546771E-02  0.1017439E+00
         21   -1    0    0  502  501  0.00000000000E+00  0.00000000000E+00  0.14632904805E+03  0.14632904805E+03  0.00000000000E+00 0.  1.
         21   -1    0    0  501  502 -0.00000000000E+00 -0.00000000000E+00 -0.40390483363E+03  0.40390483363E+03  0.00000000000E+00 0.  1.
      99926    2    1    2    0    0  0.00000000000E+00  0.00000000000E+00 -0.25757578558E+03  0.55023388168E+03  0.48622221178E+03 0.  0.
         25    1    3    3    0    0  0.79118979018E+02 -0.11877529158E+03 -0.11879153305E+03  0.22388907779E+03  0.12509000000E+03 0.  0.
         25    1    3    3    0    0 -0.62490930715E+02  0.77555854339E+02 -0.97685672894E+02  0.18737669480E+03  0.12509000000E+03 0.  0.
         25    1    3    3    0    0 -0.16628048303E+02  0.41219437237E+02 -0.41098579634E+02  0.13896810909E+03  0.12509000000E+03 0.  0.
<mgrwt>
<rscale>  2 0.48622221E+03</rscale>
<asrwt>0</asrwt>
<pdfrwt beam="1">  1       21 0.21518978E-01 0.48622221E+03</pdfrwt>
<pdfrwt beam="2">  1       21 0.59397769E-01 0.48622221E+03</pdfrwt>
<totfact> 0.48655434E+04</totfact>
</mgrwt>
</event>
<event>
 6    0  0.1539652E-007  0.4557517E+03  0.7546771E-02  0.1026021E+00
         21   -1    0    0  502  501  0.00000000000E+00  0.00000000000E+00  0.35154974928E+03  0.35154974928E+03  0.00000000000E+00 0.  1.
         21   -1    0    0  501  502 -0.00000000000E+00 -0.00000000000E+00 -0.14770993804E+03  0.14770993804E+03  0.00000000000E+00 0.  1.
      99926    2    1    2    0    0  0.12434497876E-13 -0.71054273576E-14  0.20383981124E+03  0.49925968731E+03  0.45575165028E+03 0.  0.
         25    1    3    3    0    0 -0.94712316002E+01  0.46081246189E+02  0.83010077394E+02  0.15732567027E+03  0.12509000000E+03 0.  0.
         25    1    3    3    0    0 -0.78231436515E+02 -0.72741941762E+02  0.54837657586E+02  0.17339614915E+03  0.12509000000E+03 0.  0.
         25    1    3    3    0    0  0.87702668115E+02  0.26660695573E+02  0.65992076262E+02  0.16853786789E+03  0.12509000000E+03 0.  0.
<mgrwt>
<rscale>  2 0.45575165E+03</rscale>
<asrwt>0</asrwt>
<pdfrwt beam="1">  1       21 0.51698493E-01 0.45575165E+03</pdfrwt>
<pdfrwt beam="2">  1       21 0.21722050E-01 0.45575165E+03</pdfrwt>
<totfact> 0.64934388E+04</totfact>
</mgrwt>
</event>
<event>
 6    0  0.1539652E-007  0.4566061E+03  0.7546771E-02  0.1025770E+00
         21   -1    0    0  502  501  0.00000000000E+00  0.00000000000E+00  0.83989266238E+02  0.83989266238E+02  0.00000000000E+00 0. -1.
         21   -1    0    0  501  502 -0.00000000000E+00 -0.00000000000E+00 -0.62058262018E+03  0.62058262018E+03  0.00000000000E+00 0. -1.
      99926    2    1    2    0    0 -0.15543122345E-14  0.00000000000E+00 -0.53659335395E+03  0.70457188642E+03  0.45660608366E+03 0.  0.
         25    1    3    3    0    0  0.56928871122E+00 -0.65196156233E+02 -0.63040895072E+02  0.15450736367E+03  0.12509000000E+03 0.  0.
         25    1    3    3    0    0 -0.45045858477E+02  0.15812495487E+02 -0.18221587203E+03  0.22611788186E+03  0.12509000000E+03 0.  0.
         25    1    3    3    0    0  0.44476569766E+02  0.49383660746E+02 -0.29133658685E+03  0.32394664089E+03  0.12509000000E+03 0.  0.
<mgrwt>
<rscale>  2 0.45660608E+03</rscale>
<asrwt>0</asrwt>
<pdfrwt beam="1">  1       21 0.12351362E-01 0.45660608E+03</pdfrwt>
<pdfrwt beam="2">  1       21 0.91262152E-01 0.45660608E+03</pdfrwt>
<totfact> 0.51995193E+04</totfact>
</mgrwt>
</event>
<event>
 6    0  0.1539652E-007  0.4708870E+03  0.7546771E-02  0.1021670E+00
         21   -1    0    0  502  501  0.00000000000E+00  0.00000000000E+00  0.88832120053E+02  0.88832120053E+02  0.00000000000E+00 0. -1.
         21   -1    0    0  501  502 -0.00000000000E+00 -0.00000000000E+00 -0.62402689154E+03  0.62402689154E+03  0.00000000000E+00 0. -1.
      99926    2    1    2    0    0  0.35527136788E-14  0.00000000000E+00 -0.53519477148E+03  0.71285901159E+03  0.47088695775E+03 0.  0.
         25    1    3    3    0    0  0.55569459164E+02  0.14369172055E+02 -0.68259850448E+02  0.15362731912E+03  0.12509000000E+03 0.  0.
         25    1    3    3    0    0 -0.86527450386E+02  0.54031562277E+02 -0.23015526052E+03  0.28111449880E+03  0.12509000000E+03 0.  0.
         25    1    3    3    0    0  0.30957991222E+02 -0.68400734332E+02 -0.23677966052E+03  0.27811719366E+03  0.12509000000E+03 0.  0.
<mgrwt>
<rscale>  2 0.47088696E+03</rscale>
<asrwt>0</asrwt>
<pdfrwt beam="1">  1       21 0.13063548E-01 0.47088696E+03</pdfrwt>
<pdfrwt beam="2">  1       21 0.91768655E-01 0.47088696E+03</pdfrwt>
<totfact> 0.46163308E+04</totfact>
</mgrwt>
</event>
<event>
 6    0  0.1539652E-007  0.4546175E+03  0.7546771E-02  0.1026354E+00
         21   -1    0    0  502  501  0.00000000000E+00  0.00000000000E+00  0.13791282722E+03  0.13791282722E+03  0.00000000000E+00 0. -1.
         21   -1    0    0  501  502 -0.00000000000E+00 -0.00000000000E+00 -0.37465160023E+03  0.37465160023E+03  0.00000000000E+00 0. -1.
      99926    2    1    2    0    0  0.00000000000E+00  0.00000000000E+00 -0.23673877301E+03  0.51256442745E+03  0.45461747177E+03 0.  0.
         25    1    3    3    0    0 -0.43773836395E+02  0.10493089130E+03 -0.58911573717E+02  0.17901039724E+03  0.12509000000E+03 0.  0.
         25    1    3    3    0    0  0.26524896387E+02 -0.85616219170E+02 -0.86596285815E+02  0.17657896797E+03  0.12509000000E+03 0.  0.
         25    1    3    3    0    0  0.17248940008E+02 -0.19314672125E+02 -0.91230913479E+02  0.15697506224E+03  0.12509000000E+03 0.  0.
<mgrwt>
<rscale>  2 0.45461747E+03</rscale>
<asrwt>0</asrwt>
<pdfrwt beam="1">  1       21 0.20281298E-01 0.45461747E+03</pdfrwt>
<pdfrwt beam="2">  1       21 0.55095823E-01 0.45461747E+03</pdfrwt>
<totfact> 0.64592537E+04</totfact>
</mgrwt>
</event>
<event>
 6    0  0.1539652E-007  0.4607782E+03  0.7546771E-02  0.1024556E+00
         21   -1    0    0  502  501  0.00000000000E+00  0.00000000000E+00  0.43276243839E+03  0.43276243839E+03  0.00000000000E+00 0. -1.
         21   -1    0    0  501  502 -0.00000000000E+00 -0.00000000000E+00 -0.12265190768E+03  0.12265190768E+03  0.00000000000E+00 0. -1.
      99926    2    1    2    0    0  0.00000000000E+00  0.00000000000E+00  0.31011053071E+03  0.55541434607E+03  0.46077820539E+03 0.  0.
         25    1    3    3    0    0  0.22809758947E+02  0.32216120164E+02  0.85599998036E+02  0.15663023739E+03  0.12509000000E+03 0.  0.
         25    1    3    3    0    0  0.55494643892E+01 -0.11460585836E+02  0.23696323225E+03  0.26825589112E+03  0.12509000000E+03 0.  0.
         25    1    3    3    0    0 -0.28359223336E+02 -0.20755534328E+02 -0.12452699570E+02  0.13052821756E+03  0.12509000000E+03 0.  0.
<mgrwt>
<rscale>  2 0.46077821E+03</rscale>
<asrwt>0</asrwt>
<pdfrwt beam="1">  1       21 0.63641534E-01 0.46077821E+03</pdfrwt>
<pdfrwt beam="2">  1       21 0.18037045E-01 0.46077821E+03</pdfrwt>
<totfact> 0.58776957E+04</totfact>
</mgrwt>
</event>
<event>
 6    0  0.1539652E-007  0.4526577E+03  0.7546771E-02  0.1026932E+00
         21   -1    0    0  502  501  0.00000000000E+00  0.00000000000E+00  0.53614474846E+02  0.53614474846E+02  0.00000000000E+00 0. -1.
         21   -1    0    0  501  502 -0.00000000000E+00 -0.00000000000E+00 -0.95542767385E+03  0.95542767385E+03  0.00000000000E+00 0. -1.
      99926    2    1    2    0    0 -0.71054273576E-14  0.00000000000E+00 -0.90181319900E+03  0.10090421487E+04  0.45265772052E+03 0.  0.
         25    1    3    3    0    0 -0.54941137061E+02 -0.81369421404E+02 -0.31449749518E+03  0.35241409429E+03  0.12509000000E+03 0.  0.
         25    1    3    3    0    0  0.17008840207E+02  0.50975999868E+02 -0.16731288946E+03  0.21570573541E+03  0.12509000000E+03 0.  0.
         25    1    3    3    0    0  0.37932296854E+02  0.30393421537E+02 -0.42000281436E+03  0.44092231900E+03  0.12509000000E+03 0.  0.
<mgrwt>
<rscale>  2 0.45265772E+03</rscale>
<asrwt>0</asrwt>
<pdfrwt beam="1">  1       21 0.78844818E-02 0.45265772E+03</pdfrwt>
<pdfrwt beam="2">  1       21 0.14050407E+00 0.45265772E+03</pdfrwt>
<totfact> 0.39535098E+04</totfact>
</mgrwt>
</event>
<event>
 6    0  0.1539652E-007  0.4823347E+03  0.7546771E-02  0.1018495E+00
         21   -1    0    0  502  501  0.00000000000E+00  0.00000000000E+00  0.63961058258E+02  0.63961058258E+02  0.00000000000E+00 0. -1.
         21   -1    0    0  501  502 -0.00000000000E+00 -0.00000000000E+00 -0.90932981998E+03  0.90932981998E+03  0.00000000000E+00 0. -1.
      99926    2    1    2    0    0  0.71054273576E-14  0.00000000000E+00 -0.84536876172E+03  0.97329087824E+03  0.48233472855E+03 0.  0.
         25    1    3    3    0    0  0.84400379402E+02  0.83758431774E+02 -0.45416613836E+03  0.48585315504E+03  0.12509000000E+03 0.  0.
         25    1    3    3    0    0 -0.18189396770E+02 -0.78096023022E+02 -0.21530860733E+03  0.26160112281E+03  0.12509000000E+03 0.  0.
         25    1    3    3    0    0 -0.66210982632E+02 -0.56624087516E+01 -0.17589401603E+03  0.22583660038E+03  0.12509000000E+03 0.  0.
<mgrwt>
<rscale>  2 0.48233473E+03</rscale>
<asrwt>0</asrwt>
<pdfrwt beam="1">  1       21 0.94060382E-02 0.48233473E+03</pdfrwt>
<pdfrwt beam="2">  1       21 0.13372497E+00 0.48233473E+03</pdfrwt>
<totfact> 0.32652228E+04</totfact>
</mgrwt>
</event>
<event>
 6    0  0.1539652E-007  0.4420152E+03  0.7546771E-02  0.1030130E+00
         21   -1    0    0  502  501  0.00000000000E+00  0.00000000000E+00  0.93215143390E+03  0.93215143390E+03  0.00000000000E+00 0.  1.
         21   -1    0    0  501  502 -0.00000000000E+00 -0.00000000000E+00 -0.52399586027E+02  0.52399586027E+02  0.00000000000E+00 0.  1.
      99926    2    1    2    0    0  0.00000000000E+00  0.00000000000E+00  0.87975184787E+03  0.98455101992E+03  0.44201515472E+03 0.  0.
         25    1    3    3    0    0  0.47343121930E+02 -0.51216763047E+02  0.24868709741E+03  0.28697963086E+03  0.12509000000E+03 0.  0.
         25    1    3    3    0    0 -0.95890394832E+02  0.18418224387E+02  0.31836975728E+03  0.35572603118E+03  0.12509000000E+03 0.  0.
         25    1    3    3    0    0  0.48547272903E+02  0.32798538660E+02  0.31269499318E+03  0.34184535788E+03  0.12509000000E+03 0.  0.
<mgrwt>
<rscale>  2 0.44201515E+03</rscale>
<asrwt>0</asrwt>
<pdfrwt beam="1">  1       21 0.13708108E+00 0.44201515E+03</pdfrwt>
<pdfrwt beam="2">  1       21 0.77058220E-02 0.44201515E+03</pdfrwt>
<totfact> 0.44076785E+04</totfact>
</mgrwt>
</event>
<event>
 6    0  0.1539652E-007  0.4791542E+03  0.7546771E-02  0.1019368E+00
         21   -1    0    0  502  501  0.00000000000E+00  0.00000000000E+00  0.12925887239E+04  0.12925887239E+04  0.00000000000E+00 0. -1.
         21   -1    0    0  501  502 -0.00000000000E+00 -0.00000000000E+00 -0.44404827038E+02  0.44404827038E+02  0.00000000000E+00 0. -1.
      99926    2    1    2    0    0  0.00000000000E+00 -0.71054273576E-14  0.12481838969E+04  0.13369935510E+04  0.47915416607E+03 0.  0.
         25    1    3    3    0    0 -0.66987231739E+02 -0.78488673442E+02  0.58760543132E+03  0.60956985826E+03  0.12509000000E+03 0.  0.
         25    1    3    3    0    0 -0.35642794555E+02  0.41231931734E+02  0.34100957744E+03  0.36729486929E+03  0.12509000000E+03 0.  0.
         25    1    3    3    0    0  0.10263002629E+03  0.37256741708E+02  0.31956888811E+03  0.36012882341E+03  0.12509000000E+03 0.  0.
<mgrwt>
<rscale>  2 0.47915417E+03</rscale>
<asrwt>0</asrwt>
<pdfrwt beam="1">  1       21 0.19008655E+00 0.47915417E+03</pdfrwt>
<pdfrwt beam="2">  1       21 0.65301224E-02 0.47915417E+03</pdfrwt>
<totfact> 0.23353612E+04</totfact>
</mgrwt>
</event>
<event>
 6    0  0.1539652E-007  0.4598579E+03  0.7546771E-02  0.1024822E+00
         21   -1    0    0  502  501  0.00000000000E+00  0.00000000000E+00  0.33666286232E+03  0.33666286232E+03  0.00000000000E+00 0. -1.
         21   -1    0    0  501  502 -0.00000000000E+00 -0.00000000000E+00 -0.15703343515E+03  0.15703343515E+03  0.00000000000E+00 0. -1.
      99926    2    1    2    0    0  0.42743586448E-14  0.71054273576E-14  0.17962942717E+03  0.49369629747E+03  0.45985791614E+03 0.  0.
         25    1    3    3    0    0  0.38235946147E+02 -0.88346409465E+02  0.30578767910E+02  0.16077824725E+03  0.12509000000E+03 0.  0.
         25    1    3    3    0    0 -0.38636476882E+02  0.51505696902E+02  0.81351617410E+01  0.14092303969E+03  0.12509000000E+03 0.  0.
         25    1    3    3    0    0  0.40053073520E+00  0.36840712563E+02  0.14091549752E+03  0.19199501053E+03  0.12509000000E+03 0.  0.
<mgrwt>
<rscale>  2 0.45985792E+03</rscale>
<asrwt>0</asrwt>
<pdfrwt beam="1">  1       21 0.49509244E-01 0.45985792E+03</pdfrwt>
<pdfrwt beam="2">  1       21 0.23093152E-01 0.45985792E+03</pdfrwt>
<totfact> 0.63241474E+04</totfact>
</mgrwt>
</event>
<event>
 6    0  0.1539652E-007  0.4539025E+03  0.7546771E-02  0.1026565E+00
         21   -1    0    0  502  501  0.00000000000E+00  0.00000000000E+00  0.10473225176E+03  0.10473225176E+03  0.00000000000E+00 0.  1.
         21   -1    0    0  501  502 -0.00000000000E+00 -0.00000000000E+00 -0.49179572892E+03  0.49179572892E+03  0.00000000000E+00 0.  1.
      99926    2    1    2    0    0  0.00000000000E+00  0.17763568394E-14 -0.38706347715E+03  0.59652798068E+03  0.45390251860E+03 0.  0.
         25    1    3    3    0    0 -0.71321017094E+02  0.61757427343E+02 -0.12874195486E+03  0.20278724406E+03  0.12509000000E+03 0.  0.
         25    1    3    3    0    0 -0.22579265443E+02 -0.49635517394E+02 -0.89022998779E+02  0.16292977084E+03  0.12509000000E+03 0.  0.
         25    1    3    3    0    0  0.93900282536E+02 -0.12121909949E+02 -0.16929852351E+03  0.23081096578E+03  0.12509000000E+03 0.  0.
<mgrwt>
<rscale>  2 0.45390252E+03</rscale>
<asrwt>0</asrwt>
<pdfrwt beam="1">  1       21 0.15401802E-01 0.45390252E+03</pdfrwt>
<pdfrwt beam="2">  1       21 0.72322902E-01 0.45390252E+03</pdfrwt>
<totfact> 0.59406002E+04</totfact>
</mgrwt>
</event>
<event>
 6    0  0.1539652E-007  0.4524142E+03  0.7546771E-02  0.1027005E+00
         21   -1    0    0  502  501  0.00000000000E+00  0.00000000000E+00  0.23388326710E+03  0.23388326710E+03  0.00000000000E+00 0.  1.
         21   -1    0    0  501  502 -0.00000000000E+00 -0.00000000000E+00 -0.21878285524E+03  0.21878285524E+03  0.00000000000E+00 0.  1.
      99926    2    1    2    0    0 -0.35527136788E-14  0.00000000000E+00  0.15100411858E+02  0.45266612233E+03  0.45241418620E+03 0.  0.
         25    1    3    3    0    0  0.50906709077E+02  0.66549109311E+02  0.60246548290E+02  0.16216482868E+03  0.12509000000E+03 0.  0.
         25    1    3    3    0    0 -0.67489323077E+02  0.40201396128E+01 -0.16921672680E+02  0.14319504656E+03  0.12509000000E+03 0.  0.
         25    1    3    3    0    0  0.16582614000E+02 -0.70569248924E+02 -0.28224463752E+02  0.14730624710E+03  0.12509000000E+03 0.  0.
<mgrwt>
<rscale>  2 0.45241419E+03</rscale>
<asrwt>0</asrwt>
<pdfrwt beam="1">  1       21 0.34394598E-01 0.45241419E+03</pdfrwt>
<pdfrwt beam="2">  1       21 0.32173949E-01 0.45241419E+03</pdfrwt>
<totfact> 0.70153392E+04</totfact>
</mgrwt>
</event>
<event>
 6    0  0.1539652E-007  0.4514673E+03  0.7546771E-02  0.1027285E+00
         21   -1    0    0  502  501  0.00000000000E+00  0.00000000000E+00  0.78476703160E+02  0.78476703160E+02  0.00000000000E+00 0. -1.
         21   -1    0    0  501  502 -0.00000000000E+00 -0.00000000000E+00 -0.64930957488E+03  0.64930957488E+03  0.00000000000E+00 0. -1.
      99926    2    1    2    0    0  0.00000000000E+00  0.00000000000E+00 -0.57083287172E+03  0.72778627804E+03  0.45146727353E+03 0.  0.
         25    1    3    3    0    0  0.25320496565E+02 -0.57774563934E+02 -0.28506610481E+03  0.31763063453E+03  0.12509000000E+03 0.  0.
         25    1    3    3    0    0 -0.45808050868E+02  0.27203069484E+02 -0.23243279461E+03  0.26927847412E+03  0.12509000000E+03 0.  0.
         25    1    3    3    0    0  0.20487554303E+02  0.30571494450E+02 -0.53333972309E+02  0.14087716939E+03  0.12509000000E+03 0.  0.
<mgrwt>
<rscale>  2 0.45146727E+03</rscale>
<asrwt>0</asrwt>
<pdfrwt beam="1">  1       21 0.11540692E-01 0.45146727E+03</pdfrwt>
<pdfrwt beam="2">  1       21 0.95486700E-01 0.45146727E+03</pdfrwt>
<totfact> 0.52873868E+04</totfact>
</mgrwt>
</event>
<event>
 6    0  0.1539652E-007  0.4813362E+03  0.7546771E-02  0.1018769E+00
         21   -1    0    0  502  501  0.00000000000E+00  0.00000000000E+00  0.12875446631E+03  0.12875446631E+03  0.00000000000E+00 0.  1.
         21   -1    0    0  501  502 -0.00000000000E+00 -0.00000000000E+00 -0.44985732689E+03  0.44985732689E+03  0.00000000000E+00 0.  1.
      99926    2    1    2    0    0  0.00000000000E+00  0.00000000000E+00 -0.32110286058E+03  0.57861179320E+03  0.48133622361E+03 0.  0.
         25    1    3    3    0    0 -0.66989246657E+02 -0.30429335486E+02 -0.10144598176E+03  0.17706580399E+03  0.12509000000E+03 0.  0.
         25    1    3    3    0    0 -0.51774264329E+02 -0.50636881223E+02 -0.79422316858E+02  0.16492446969E+03  0.12509000000E+03 0.  0.
         25    1    3    3    0    0  0.11876351099E+03  0.81066216709E+02 -0.14023456196E+03  0.23662151952E+03  0.12509000000E+03 0.  0.
<mgrwt>
<rscale>  2 0.48133622E+03</rscale>
<asrwt>0</asrwt>
<pdfrwt beam="1">  1       21 0.18934480E-01 0.48133622E+03</pdfrwt>
<pdfrwt beam="2">  1       21 0.66155489E-01 0.48133622E+03</pdfrwt>
<totfact> 0.48987308E+04</totfact>
</mgrwt>
</event>
<event>
 6    0  0.1539652E-007  0.4593496E+03  0.7546771E-02  0.1024970E+00
         21   -1    0    0  502  501  0.00000000000E+00  0.00000000000E+00  0.15823372702E+03  0.15823372702E+03  0.00000000000E+00 0. -1.
         21   -1    0    0  501  502 -0.00000000000E+00 -0.00000000000E+00 -0.33337080055E+03  0.33337080055E+03  0.00000000000E+00 0. -1.
      99926    2    1    2    0    0  0.00000000000E+00 -0.35527136788E-14 -0.17513707353E+03  0.49160452757E+03  0.45934955862E+03 0.  0.
         25    1    3    3    0    0  0.10303786038E+03 -0.52490872586E+02 -0.99278074216E+02  0.19716930921E+03  0.12509000000E+03 0.  0.
         25    1    3    3    0    0 -0.14471127538E+02  0.30112839646E+02 -0.30181681897E+02  0.13294599906E+03  0.12509000000E+03 0.  0.
         25    1    3    3    0    0 -0.88566732837E+02  0.22378032939E+02 -0.45677317413E+02  0.16148921930E+03  0.12509000000E+03 0.  0.
<mgrwt>
<rscale>  2 0.45934956E+03</rscale>
<asrwt>0</asrwt>
<pdfrwt beam="1">  1       21 0.23269666E-01 0.45934956E+03</pdfrwt>
<pdfrwt beam="2">  1       21 0.49025117E-01 0.45934956E+03</pdfrwt>
<totfact> 0.63638620E+04</totfact>
</mgrwt>
</event>
<event>
 6    0  0.1539652E-007  0.4499673E+03  0.7546771E-02  0.1027732E+00
         21   -1    0    0  502  501  0.00000000000E+00  0.00000000000E+00  0.35209414054E+03  0.35209414054E+03  0.00000000000E+00 0. -1.
         21   -1    0    0  501  502 -0.00000000000E+00 -0.00000000000E+00 -0.14376166221E+03  0.14376166221E+03  0.00000000000E+00 0. -1.
      99926    2    1    2    0    0 -0.35527136788E-14  0.00000000000E+00  0.20833247833E+03  0.49585580275E+03  0.44996728280E+03 0.  0.
         25    1    3    3    0    0 -0.28126417698E+02 -0.70241823254E+02  0.14680235776E+02  0.14692864435E+03  0.12509000000E+03 0.  0.
         25    1    3    3    0    0 -0.26545131214E+02 -0.53512744686E+01  0.12342726685E+03  0.17780629469E+03  0.12509000000E+03 0.  0.
         25    1    3    3    0    0  0.54671548913E+02  0.75593097723E+02  0.70224975711E+02  0.17112086371E+03  0.12509000000E+03 0.  0.
<mgrwt>
<rscale>  2 0.44996728E+03</rscale>
<asrwt>0</asrwt>
<pdfrwt beam="1">  1       21 0.51778550E-01 0.44996728E+03</pdfrwt>
<pdfrwt beam="2">  1       21 0.21141421E-01 0.44996728E+03</pdfrwt>
<totfact> 0.68248899E+04</totfact>
</mgrwt>
</event>
<event>
 6    0  0.1539652E-007  0.4635030E+03  0.7546771E-02  0.1023770E+00
         21   -1    0    0  502  501  0.00000000000E+00  0.00000000000E+00  0.22807219053E+03  0.22807219053E+03  0.00000000000E+00 0. -1.
         21   -1    0    0  501  502 -0.00000000000E+00 -0.00000000000E+00 -0.23549019921E+03  0.23549019921E+03  0.00000000000E+00 0. -1.
      99926    2    1    2    0    0  0.00000000000E+00  0.00000000000E+00 -0.74180086817E+01  0.46356238974E+03  0.46350303379E+03 0.  0.
         25    1    3    3    0    0 -0.81639338411E+02  0.74172557126E+02  0.45170258470E+02  0.17278428793E+03  0.12509000000E+03 0.  0.
         25    1    3    3    0    0  0.56319055801E+02 -0.77370817771E+02 -0.18098254178E+02  0.15853433191E+03  0.12509000000E+03 0.  0.
         25    1    3    3    0    0  0.25320282610E+02  0.31982606453E+01 -0.34490012974E+02  0.13224376990E+03  0.12509000000E+03 0.  0.
<mgrwt>
<rscale>  2 0.46350303E+03</rscale>
<asrwt>0</asrwt>
<pdfrwt beam="1">  1       21 0.33540028E-01 0.46350303E+03</pdfrwt>
<pdfrwt beam="2">  1       21 0.34630911E-01 0.46350303E+03</pdfrwt>
<totfact> 0.63503969E+04</totfact>
</mgrwt>
</event>
<event>
 6    0  0.1539652E-007  0.4529403E+03  0.7546771E-02  0.1026849E+00
         21   -1    0    0  502  501  0.00000000000E+00  0.00000000000E+00  0.76232120491E+03  0.76232120491E+03  0.00000000000E+00 0.  1.
         21   -1    0    0  501  502 -0.00000000000E+00 -0.00000000000E+00 -0.67279689072E+02  0.67279689072E+02  0.00000000000E+00 0.  1.
      99926    2    1    2    0    0  0.00000000000E+00  0.00000000000E+00  0.69504151584E+03  0.82960089398E+03  0.45294032119E+03 0.  0.
         25    1    3    3    0    0  0.34540350420E+02 -0.88728908428E+02  0.18659453411E+03  0.24398951465E+03  0.12509000000E+03 0.  0.
         25    1    3    3    0    0 -0.32677321931E+02  0.95991797233E+02  0.23570902025E+03  0.28546187632E+03  0.12509000000E+03 0.  0.
         25    1    3    3    0    0 -0.18630284882E+01 -0.72628888051E+01  0.27273796147E+03  0.30014950301E+03  0.12509000000E+03 0.  0.
<mgrwt>
<rscale>  2 0.45294032E+03</rscale>
<asrwt>0</asrwt>
<pdfrwt beam="1">  1       21 0.11210605E+00 0.45294032E+03</pdfrwt>
<pdfrwt beam="2">  1       21 0.98940723E-02 0.45294032E+03</pdfrwt>
<totfact> 0.47123068E+04</totfact>
</mgrwt>
</event>
<event>
 6    0  0.1539652E-007  0.4569453E+03  0.7546771E-02  0.1025671E+00
         21   -1    0    0  502  501  0.00000000000E+00  0.00000000000E+00  0.62022239350E+03  0.62022239350E+03  0.00000000000E+00 0. -1.
         21   -1    0    0  501  502 -0.00000000000E+00 -0.00000000000E+00 -0.84162976998E+02  0.84162976998E+02  0.00000000000E+00 0. -1.
      99926    2    1    2    0    0  0.71054273576E-14 -0.53290705182E-14  0.53605941650E+03  0.70438537050E+03  0.45694534920E+03 0.  0.
         25    1    3    3    0    0  0.13496068339E+02 -0.69625745383E+02  0.31621153706E+03  0.34737174979E+03  0.12509000000E+03 0.  0.
         25    1    3    3    0    0  0.41323071665E+02  0.14199776480E+02  0.12188348350E+03  0.18003422329E+03  0.12509000000E+03 0.  0.
         25    1    3    3    0    0 -0.54819140004E+02  0.55425968904E+02  0.97964395931E+02  0.17697939742E+03  0.12509000000E+03 0.  0.
<mgrwt>
<rscale>  2 0.45694535E+03</rscale>
<asrwt>0</asrwt>
<pdfrwt beam="1">  1       21 0.91209173E-01 0.45694535E+03</pdfrwt>
<pdfrwt beam="2">  1       21 0.12376909E-01 0.45694535E+03</pdfrwt>
<totfact> 0.51866965E+04</totfact>
</mgrwt>
</event>
<event>
 6    0  0.1539652E-007  0.4530434E+03  0.7546771E-02  0.1026818E+00
         21   -1    0    0  502  501  0.00000000000E+00  0.00000000000E+00  0.74792607498E+03  0.74792607498E+03  0.00000000000E+00 0. -1.
         21   -1    0    0  501  502 -0.00000000000E+00 -0.00000000000E+00 -0.68605816148E+02  0.68605816148E+02  0.00000000000E+00 0. -1.
      99926    2    1    2    0    0  0.00000000000E+00  0.00000000000E+00  0.67932025883E+03  0.81653189112E+03  0.45304339215E+03 0.  0.
         25    1    3    3    0    0 -0.23877469639E+02 -0.47783765579E+01  0.14400047919E+03  0.19229303821E+03  0.12509000000E+03 0.  0.
         25    1    3    3    0    0  0.10866778784E+03 -0.21762503835E+02  0.29727360519E+03  0.34102990944E+03  0.12509000000E+03 0.  0.
         25    1    3    3    0    0 -0.84790318204E+02  0.26540880392E+02  0.23804617445E+03  0.28320894347E+03  0.12509000000E+03 0.  0.
<mgrwt>
<rscale>  2 0.45304339E+03</rscale>
<asrwt>0</asrwt>
<pdfrwt beam="1">  1       21 0.10998912E+00 0.45304339E+03</pdfrwt>
<pdfrwt beam="2">  1       21 0.10089091E-01 0.45304339E+03</pdfrwt>
<totfact> 0.47703762E+04</totfact>
</mgrwt>
</event>
<event>
 6    0  0.1539652E-007  0.4633840E+03  0.7546771E-02  0.1023804E+00
         21   -1    0    0  502  501  0.00000000000E+00  0.00000000000E+00  0.10321717618E+04  0.10321717618E+04  0.00000000000E+00 0.  1.
         21   -1    0    0  501  502 -0.00000000000E+00 -0.00000000000E+00 -0.52007983830E+02  0.52007983830E+02  0.00000000000E+00 0.  1.
      99926    2    1    2    0    0  0.71054273576E-14  0.35527136788E-14  0.98016377801E+03  0.10841797457E+04  0.46338395440E+03 0.  0.
         25    1    3    3    0    0 -0.14348441971E+02 -0.34136258850E+02  0.57993525003E+03  0.59442708912E+03  0.12509000000E+03 0.  0.
         25    1    3    3    0    0  0.44306738196E+02 -0.30539510306E+02  0.16467194876E+03  0.21368225838E+03  0.12509000000E+03 0.  0.
         25    1    3    3    0    0 -0.29958296225E+02  0.64675769156E+02  0.23555657923E+03  0.27607039817E+03  0.12509000000E+03 0.  0.
<mgrwt>
<rscale>  2 0.46338395E+03</rscale>
<asrwt>0</asrwt>
<pdfrwt beam="1">  1       21 0.15178995E+00 0.46338395E+03</pdfrwt>
<pdfrwt beam="2">  1       21 0.76482336E-02 0.46338395E+03</pdfrwt>
<totfact> 0.33783013E+04</totfact>
</mgrwt>
</event>
<event>
 6    0  0.1539652E-007  0.4707836E+03  0.7546771E-02  0.1021699E+00
         21   -1    0    0  502  501  0.00000000000E+00  0.00000000000E+00  0.84811049330E+03  0.84811049330E+03  0.00000000000E+00 0. -1.
         21   -1    0    0  501  502 -0.00000000000E+00 -0.00000000000E+00 -0.65332653578E+02  0.65332653578E+02  0.00000000000E+00 0. -1.
      99926    2    1    2    0    0  0.00000000000E+00  0.00000000000E+00  0.78277783972E+03  0.91344314687E+03  0.47078364056E+03 0.  0.
         25    1    3    3    0    0 -0.79777930905E+02  0.42052334731E+01  0.20978939413E+03  0.25698501948E+03  0.12509000000E+03 0.  0.
         25    1    3    3    0    0  0.12228206391E+02  0.48617764338E+02  0.41977969706E+03  0.44088061673E+03  0.12509000000E+03 0.  0.
         25    1    3    3    0    0  0.67549724514E+02 -0.52822997811E+02  0.15320874852E+03  0.21557751066E+03  0.12509000000E+03 0.  0.
<mgrwt>
<rscale>  2 0.47078364E+03</rscale>
<asrwt>0</asrwt>
<pdfrwt beam="1">  1       21 0.12472213E+00 0.47078364E+03</pdfrwt>
<pdfrwt beam="2">  1       21 0.96077437E-02 0.47078364E+03</pdfrwt>
<totfact> 0.37770049E+04</totfact>
</mgrwt>
</event>
<event>
 6    0  0.1539652E-007  0.4543608E+03  0.7546771E-02  0.1026430E+00
         21   -1    0    0  502  501  0.00000000000E+00  0.00000000000E+00  0.12404150096E+03  0.12404150096E+03  0.00000000000E+00 0. -1.
         21   -1    0    0  501  502 -0.00000000000E+00 -0.00000000000E+00 -0.41607804515E+03  0.41607804515E+03  0.00000000000E+00 0. -1.
      99926    2    1    2    0    0  0.00000000000E+00 -0.35527136788E-14 -0.29203654418E+03  0.54011954611E+03  0.45436084883E+03 0.  0.
         25    1    3    3    0    0 -0.13159591362E+02 -0.17498072819E+02 -0.50945289499E+02  0.13682941211E+03  0.12509000000E+03 0.  0.
         25    1    3    3    0    0 -0.86149472125E+02  0.31030049542E+02 -0.16314800006E+03  0.22505415692E+03  0.12509000000E+03 0.  0.
         25    1    3    3    0    0  0.99309063488E+02 -0.13531976723E+02 -0.77943254628E+02  0.17823597708E+03  0.12509000000E+03 0.  0.
<mgrwt>
<rscale>  2 0.45436085E+03</rscale>
<asrwt>0</asrwt>
<pdfrwt beam="1">  1       21 0.18241397E-01 0.45436085E+03</pdfrwt>
<pdfrwt beam="2">  1       21 0.61187947E-01 0.45436085E+03</pdfrwt>
<totfact> 0.62841441E+04</totfact>
</mgrwt>
</event>
<event>
 6    0  0.1539652E-007  0.4571654E+03  0.7546771E-02  0.1025607E+00
         21   -1    0    0  502  501  0.00000000000E+00  0.00000000000E+00  0.25387613602E+02  0.25387613602E+02  0.00000000000E+00 0.  1.
         21   -1    0    0  501  502 -0.00000000000E+00 -0.00000000000E+00 -0.20580922114E+04  0.20580922114E+04  0.00000000000E+00 0.  1.
      99926    2    1    2    0    0  0.00000000000E+00  0.00000000000E+00 -0.20327045978E+04  0.20834798250E+04  0.45716539598E+03 0.  0.
         25    1    3    3    0    0 -0.72954992459E+02  0.56753063978E+02 -0.64087117526E+03  0.65947457310E+03  0.12509000000E+03 0.  0.
         25    1    3    3    0    0  0.89243303149E+02 -0.79173032266E+02 -0.80112167491E+03  0.81955852891E+03  0.12509000000E+03 0.  0.
         25    1    3    3    0    0 -0.16288310690E+02  0.22419968288E+02 -0.59071174762E+03  0.60444672298E+03  0.12509000000E+03 0.  0.
<mgrwt>
<rscale>  2 0.45716540E+03</rscale>
<asrwt>0</asrwt>
<pdfrwt beam="1">  1       21 0.37334735E-02 0.45716540E+03</pdfrwt>
<pdfrwt beam="2">  1       21 0.30266055E+00 0.45716540E+03</pdfrwt>
<totfact> 0.12188239E+04</totfact>
</mgrwt>
</event>
<event>
 6    0  0.1539652E-007  0.4539215E+03  0.7546771E-02  0.1026559E+00
         21   -1    0    0  502  501  0.00000000000E+00  0.00000000000E+00  0.60678827679E+03  0.60678827679E+03  0.00000000000E+00 0.  1.
         21   -1    0    0  501  502 -0.00000000000E+00 -0.00000000000E+00 -0.84891532943E+02  0.84891532943E+02  0.00000000000E+00 0.  1.
      99926    2    1    2    0    0 -0.35527136788E-14  0.00000000000E+00  0.52189674385E+03  0.69167980973E+03  0.45392152180E+03 0.  0.
         25    1    3    3    0    0 -0.20884695200E+02  0.17912492938E+02  0.68633034159E+02  0.14531011450E+03  0.12509000000E+03 0.  0.
         25    1    3    3    0    0  0.40537628733E+02  0.51179436606E+02  0.32107947494E+03  0.35071665401E+03  0.12509000000E+03 0.  0.
         25    1    3    3    0    0 -0.19652933534E+02 -0.69091929544E+02  0.13218423475E+03  0.19565304123E+03  0.12509000000E+03 0.  0.
<mgrwt>
<rscale>  2 0.45392152E+03</rscale>
<asrwt>0</asrwt>
<pdfrwt beam="1">  1       21 0.89233568E-01 0.45392152E+03</pdfrwt>
<pdfrwt beam="2">  1       21 0.12484049E-01 0.45392152E+03</pdfrwt>
<totfact> 0.53812474E+04</totfact>
</mgrwt>
</event>
<event>
 6    0  0.1539652E-007  0.4717114E+03  0.7546771E-02  0.1021438E+00
         21   -1    0    0  502  501  0.00000000000E+00  0.00000000000E+00  0.10935899681E+04  0.10935899681E+04  0.00000000000E+00 0. -1.
         21   -1    0    0  501  502 -0.00000000000E+00 -0.00000000000E+00 -0.50867242307E+02  0.50867242307E+02  0.00000000000E+00 0. -1.
      99926    2    1    2    0    0 -0.71054273576E-14 -0.71054273576E-14  0.10427227258E+04  0.11444572104E+04  0.47171137739E+03 0.  0.
         25    1    3    3    0    0  0.58328481960E+02 -0.10069334526E+03  0.47350671740E+03  0.50338601601E+03  0.12509000000E+03 0.  0.
         25    1    3    3    0    0  0.21149555231E+01  0.62819457600E+02  0.19452472717E+03  0.23966254374E+03  0.12509000000E+03 0.  0.
         25    1    3    3    0    0 -0.60443437483E+02  0.37873887662E+02  0.37469128119E+03  0.40140865063E+03  0.12509000000E+03 0.  0.
<mgrwt>
<rscale>  2 0.47171138E+03</rscale>
<asrwt>0</asrwt>
<pdfrwt beam="1">  1       21 0.16082204E+00 0.47171138E+03</pdfrwt>
<pdfrwt beam="2">  1       21 0.74804775E-02 0.47171138E+03</pdfrwt>
<totfact> 0.29881893E+04</totfact>
</mgrwt>
</event>
<event>
 6    0  0.1539652E-007  0.4533161E+03  0.7546771E-02  0.1026738E+00
         21   -1    0    0  502  501  0.00000000000E+00  0.00000000000E+00  0.16904511375E+02  0.16904511375E+02  0.00000000000E+00 0.  1.
         21   -1    0    0  501  502 -0.00000000000E+00 -0.00000000000E+00 -0.30390624196E+04  0.30390624196E+04  0.00000000000E+00 0.  1.
      99926    2    1    2    0    0  0.14210854715E-13  0.00000000000E+00 -0.30221579082E+04  0.30559669309E+04  0.45331607181E+03 0.  0.
         25    1    3    3    0    0  0.11625308005E+03  0.39240053106E+01 -0.12038650785E+04  0.12159230287E+04  0.12509000000E+03 0.  0.
         25    1    3    3    0    0 -0.81088007450E+02  0.13616073487E+02 -0.10559492556E+04  0.10665069155E+04  0.12509000000E+03 0.  0.
         25    1    3    3    0    0 -0.35165072597E+02 -0.17540078798E+02 -0.76234357416E+03  0.77353698674E+03  0.12509000000E+03 0.  0.
<mgrwt>
<rscale>  2 0.45331607E+03</rscale>
<asrwt>0</asrwt>
<pdfrwt beam="1">  1       21 0.24859606E-02 0.45331607E+03</pdfrwt>
<pdfrwt beam="2">  1       21 0.44692040E+00 0.45331607E+03</pdfrwt>
<totfact> 0.29867243E+03</totfact>
</mgrwt>
</event>
<event>
 6    0  0.1539652E-007  0.4427884E+03  0.7546771E-02  0.1029895E+00
         21   -1    0    0  502  501  0.00000000000E+00  0.00000000000E+00  0.10374290761E+03  0.10374290761E+03  0.00000000000E+00 0. -1.
         21   -1    0    0  501  502 -0.00000000000E+00 -0.00000000000E+00 -0.47246978170E+03  0.47246978170E+03  0.00000000000E+00 0. -1.
      99926    2    1    2    0    0  0.35527136788E-14  0.00000000000E+00 -0.36872687410E+03  0.57621268931E+03  0.44278838698E+03 0.  0.
         25    1    3    3    0    0 -0.49317463936E+02 -0.81896696809E+01 -0.68934509234E+02  0.15132335445E+03  0.12509000000E+03 0.  0.
         25    1    3    3    0    0  0.29618408378E+02 -0.38689584641E+02 -0.24459415569E+03  0.27901244268E+03  0.12509000000E+03 0.  0.
         25    1    3    3    0    0  0.19699055558E+02  0.46879254322E+02 -0.55198209174E+02  0.14587689218E+03  0.12509000000E+03 0.  0.
<mgrwt>
<rscale>  2 0.44278839E+03</rscale>
<asrwt>0</asrwt>
<pdfrwt beam="1">  1       21 0.15256310E-01 0.44278839E+03</pdfrwt>
<pdfrwt beam="2">  1       21 0.69480849E-01 0.44278839E+03</pdfrwt>
<totfact> 0.66343945E+04</totfact>
</mgrwt>
</event>
<event>
 6    0  0.1539652E-007  0.4622138E+03  0.7546771E-02  0.1024141E+00
         21   -1    0    0  502  501  0.00000000000E+00  0.00000000000E+00  0.16756301111E+03  0.16756301111E+03  0.00000000000E+00 0.  1.
         21   -1    0    0  501  502 -0.00000000000E+00 -0.00000000000E+00 -0.31874821475E+03  0.31874821475E+03  0.00000000000E+00 0.  1.
      99926    2    1    2    0    0 -0.35527136788E-14  0.00000000000E+00 -0.15118520364E+03  0.48631122587E+03  0.46221384943E+03 0.  0.
         25    1    3    3    0    0  0.74829073004E+02  0.27283593167E+02 -0.50816825070E+02  0.15675982404E+03  0.12509000000E+03 0.  0.
         25    1    3    3    0    0 -0.87562744696E+02  0.39615108301E+02 -0.43963096166E+01  0.15780819593E+03  0.12509000000E+03 0.  0.
         25    1    3    3    0    0  0.12733671692E+02 -0.66898701468E+02 -0.95972068954E+02  0.17174320590E+03  0.12509000000E+03 0.  0.
<mgrwt>
<rscale>  2 0.46221385E+03</rscale>
<asrwt>0</asrwt>
<pdfrwt beam="1">  1       21 0.24641620E-01 0.46221385E+03</pdfrwt>
<pdfrwt beam="2">  1       21 0.46874737E-01 0.46221385E+03</pdfrwt>
<totfact> 0.62582342E+04</totfact>
</mgrwt>
</event>
<event>
 6    0  0.1539652E-007  0.4544153E+03  0.7546771E-02  0.1026413E+00
         21   -1    0    0  502  501  0.00000000000E+00  0.00000000000E+00  0.37192138069E+02  0.37192138069E+02  0.00000000000E+00 0. -1.
         21   -1    0    0  501  502 -0.00000000000E+00 -0.00000000000E+00 -0.13880168247E+04  0.13880168247E+04  0.00000000000E+00 0. -1.
      99926    2    1    2    0    0  0.71054273576E-14 -0.66613381478E-15 -0.13508246866E+04  0.14252089628E+04  0.45441528753E+03 0.  0.
         25    1    3    3    0    0  0.27034007350E+02 -0.65785288009E+00 -0.45189661552E+03  0.46966938323E+03  0.12509000000E+03 0.  0.
         25    1    3    3    0    0 -0.68466073405E+02 -0.11890106779E+02 -0.21070125228E+03  0.25469884895E+03  0.12509000000E+03 0.  0.
         25    1    3    3    0    0  0.41432066055E+02  0.12547959659E+02 -0.68822681882E+03  0.70084073058E+03  0.12509000000E+03 0.  0.
<mgrwt>
<rscale>  2 0.45441529E+03</rscale>
<asrwt>0</asrwt>
<pdfrwt beam="1">  1       21 0.54694328E-02 0.45441529E+03</pdfrwt>
<pdfrwt beam="2">  1       21 0.20412009E+00 0.45441529E+03</pdfrwt>
<totfact> 0.25784880E+04</totfact>
</mgrwt>
</event>
<event>
 6    0  0.1539652E-007  0.4599193E+03  0.7546771E-02  0.1024805E+00
         21   -1    0    0  502  501  0.00000000000E+00  0.00000000000E+00  0.43647489605E+03  0.43647489605E+03  0.00000000000E+00 0.  1.
         21   -1    0    0  501  502 -0.00000000000E+00 -0.00000000000E+00 -0.12115575043E+03  0.12115575043E+03  0.00000000000E+00 0.  1.
      99926    2    1    2    0    0  0.71054273576E-14 -0.35527136788E-14  0.31531914562E+03  0.55763064647E+03  0.45991931281E+03 0.  0.
         25    1    3    3    0    0 -0.51625067050E+02 -0.86995096847E+02  0.56177709616E+02  0.17040169477E+03  0.12509000000E+03 0.  0.
         25    1    3    3    0    0  0.62054255516E+02  0.27173340890E+02  0.17168311195E+03  0.22296125249E+03  0.12509000000E+03 0.  0.
         25    1    3    3    0    0 -0.10429188466E+02  0.59821755958E+02  0.87458324056E+02  0.16426769921E+03  0.12509000000E+03 0.  0.
<mgrwt>
<rscale>  2 0.45991931E+03</rscale>
<asrwt>0</asrwt>
<pdfrwt beam="1">  1       21 0.64187484E-01 0.45991931E+03</pdfrwt>
<pdfrwt beam="2">  1       21 0.17817022E-01 0.45991931E+03</pdfrwt>
<totfact> 0.59034060E+04</totfact>
</mgrwt>
</event>
<event>
 6    0  0.1539652E-007  0.4537134E+03  0.7546771E-02  0.1026620E+00
         21   -1    0    0  502  501  0.00000000000E+00  0.00000000000E+00  0.16494009804E+03  0.16494009804E+03  0.00000000000E+00 0. -1.
         21   -1    0    0  501  502 -0.00000000000E+00 -0.00000000000E+00 -0.31201610757E+03  0.31201610757E+03  0.00000000000E+00 0. -1.
      99926    2    1    2    0    0  0.00000000000E+00  0.00000000000E+00 -0.14707600953E+03  0.47695620560E+03  0.45371342220E+03 0.  0.
         25    1    3    3    0    0 -0.47794444139E+02  0.78940135361E+02 -0.44453829060E+02  0.16167716252E+03  0.12509000000E+03 0.  0.
         25    1    3    3    0    0 -0.42700528095E+02 -0.37118666841E+02 -0.35464370663E+02  0.14179689776E+03  0.12509000000E+03 0.  0.
         25    1    3    3    0    0  0.90494972234E+02 -0.41821468520E+02 -0.67157809810E+02  0.17348214533E+03  0.12509000000E+03 0.  0.
<mgrwt>
<rscale>  2 0.45371342E+03</rscale>
<asrwt>0</asrwt>
<pdfrwt beam="1">  1       21 0.24255897E-01 0.45371342E+03</pdfrwt>
<pdfrwt beam="2">  1       21 0.45884722E-01 0.45371342E+03</pdfrwt>
<totfact> 0.67610090E+04</totfact>
</mgrwt>
</event>
<event>
 6    0  0.1539652E-007  0.4387590E+03  0.7546771E-02  0.1031128E+00
         21   -1    0    0  502  501  0.00000000000E+00  0.00000000000E+00  0.45937465350E+03  0.45937465350E+03  0.00000000000E+00 0.  1.
         21   -1    0    0  501  502 -0.00000000000E+00 -0.00000000000E+00 -0.10476715439E+03  0.10476715439E+03  0.00000000000E+00 0.  1.
      99926    2    1    2    0    0  0.71054273576E-14  0.00000000000E+00  0.35460749911E+03  0.56414180789E+03  0.43875904662E+03 0.  0.
         25    1    3    3    0    0 -0.12179424750E+02 -0.83925320110E+01  0.19080601501E+03  0.22863336686E+03  0.12509000000E+03 0.  0.
         25    1    3    3    0    0 -0.33402432557E+02 -0.40039458567E+01  0.74073445436E+01  0.12974641011E+03  0.12509000000E+03 0.  0.
         25    1    3    3    0    0  0.45581857307E+02  0.12396477868E+02  0.15639413956E+03  0.20576203092E+03  0.12509000000E+03 0.  0.
<mgrwt>
<rscale>  2 0.43875905E+03</rscale>
<asrwt>0</asrwt>
<pdfrwt beam="1">  1       21 0.67555095E-01 0.43875905E+03</pdfrwt>
<pdfrwt beam="2">  1       21 0.15406935E-01 0.43875905E+03</pdfrwt>
<totfact> 0.69440272E+04</totfact>
</mgrwt>
</event>
<event>
 6    0  0.1539652E-007  0.4519986E+03  0.7546771E-02  0.1027128E+00
         21   -1    0    0  502  501  0.00000000000E+00  0.00000000000E+00  0.40332707908E+03  0.40332707908E+03  0.00000000000E+00 0.  1.
         21   -1    0    0  501  502 -0.00000000000E+00 -0.00000000000E+00 -0.12663591664E+03  0.12663591664E+03  0.00000000000E+00 0.  1.
      99926    2    1    2    0    0  0.71054273576E-14  0.00000000000E+00  0.27669116244E+03  0.52996299572E+03  0.45199864763E+03 0.  0.
         25    1    3    3    0    0  0.80422055069E+02 -0.48916190366E+01  0.15344633524E+03  0.21374031154E+03  0.12509000000E+03 0.  0.
         25    1    3    3    0    0 -0.10262139855E+03 -0.43550186491E+01  0.50592045121E+02  0.16957942316E+03  0.12509000000E+03 0.  0.
         25    1    3    3    0    0  0.22199343486E+02  0.92466376856E+01  0.72652782072E+02  0.14664326102E+03  0.12509000000E+03 0.  0.
<mgrwt>
<rscale>  2 0.45199865E+03</rscale>
<asrwt>0</asrwt>
<pdfrwt beam="1">  1       21 0.59312806E-01 0.45199865E+03</pdfrwt>
<pdfrwt beam="2">  1       21 0.18622929E-01 0.45199865E+03</pdfrwt>
<totfact> 0.64734644E+04</totfact>
</mgrwt>
</event>
<event>
 6    0  0.1539652E-007  0.4564242E+03  0.7546771E-02  0.1025823E+00
         21   -1    0    0  502  501  0.00000000000E+00  0.00000000000E+00  0.86707190000E+03  0.86707190000E+03  0.00000000000E+00 0.  1.
         21   -1    0    0  501  502 -0.00000000000E+00 -0.00000000000E+00 -0.60065108126E+02  0.60065108126E+02  0.00000000000E+00 0.  1.
      99926    2    1    2    0    0  0.00000000000E+00  0.35527136788E-14  0.80700679187E+03  0.92713700813E+03  0.45642422121E+03 0.  0.
         25    1    3    3    0    0 -0.21836302863E+02 -0.47572926365E+02  0.17923338953E+03  0.22474902329E+03  0.12509000000E+03 0.  0.
         25    1    3    3    0    0  0.97935521459E+02  0.17742821374E+02  0.39087989627E+03  0.42230412676E+03  0.12509000000E+03 0.  0.
         25    1    3    3    0    0 -0.76099218595E+02  0.29830104991E+02  0.23689350607E+03  0.28008385808E+03  0.12509000000E+03 0.  0.
<mgrwt>
<rscale>  2 0.45642422E+03</rscale>
<asrwt>0</asrwt>
<pdfrwt beam="1">  1       21 0.12751057E+00 0.45642422E+03</pdfrwt>
<pdfrwt beam="2">  1       21 0.88331047E-02 0.45642422E+03</pdfrwt>
<totfact> 0.41615244E+04</totfact>
</mgrwt>
</event>
<event>
 6    0  0.1539652E-007  0.4565252E+03  0.7546771E-02  0.1025794E+00
         21   -1    0    0  502  501  0.00000000000E+00  0.00000000000E+00  0.18961736210E+03  0.18961736210E+03  0.00000000000E+00 0. -1.
         21   -1    0    0  501  502 -0.00000000000E+00 -0.00000000000E+00 -0.27478400368E+03  0.27478400368E+03  0.00000000000E+00 0. -1.
      99926    2    1    2    0    0  0.00000000000E+00  0.00000000000E+00 -0.85166641581E+02  0.46440136577E+03  0.45652521474E+03 0.  0.
         25    1    3    3    0    0 -0.40242342002E+02  0.36813423745E+02 -0.11535529239E+03  0.17868694927E+03  0.12509000000E+03 0.  0.
         25    1    3    3    0    0 -0.36659451234E+02  0.54571800095E+01  0.24909914387E+02  0.13282209196E+03  0.12509000000E+03 0.  0.
         25    1    3    3    0    0  0.76901793235E+02 -0.42270603754E+02  0.52787364212E+01  0.15289232454E+03  0.12509000000E+03 0.  0.
<mgrwt>
<rscale>  2 0.45652521E+03</rscale>
<asrwt>0</asrwt>
<pdfrwt beam="1">  1       21 0.27884906E-01 0.45652521E+03</pdfrwt>
<pdfrwt beam="2">  1       21 0.40409412E-01 0.45652521E+03</pdfrwt>
<totfact> 0.67038127E+04</totfact>
</mgrwt>
</event>
<event>
 6    0  0.1539652E-007  0.4601727E+03  0.7546771E-02  0.1024731E+00
         21   -1    0    0  502  501  0.00000000000E+00  0.00000000000E+00  0.44310465055E+02  0.44310465055E+02  0.00000000000E+00 0. -1.
         21   -1    0    0  501  502 -0.00000000000E+00 -0.00000000000E+00 -0.11947455992E+04  0.11947455992E+04  0.00000000000E+00 0. -1.
      99926    2    1    2    0    0  0.35527136788E-14  0.00000000000E+00 -0.11504351341E+04  0.12390560642E+04  0.46017272028E+03 0.  0.
         25    1    3    3    0    0  0.45775125070E+02 -0.20898956730E+02 -0.21261994767E+03  0.25176750925E+03  0.12509000000E+03 0.  0.
         25    1    3    3    0    0 -0.14983324092E+02 -0.76271358333E+01 -0.73206564837E+03  0.74286626981E+03  0.12509000000E+03 0.  0.
         25    1    3    3    0    0 -0.30791800978E+02  0.28526092564E+02 -0.20574953806E+03  0.24442228514E+03  0.12509000000E+03 0.  0.
<mgrwt>
<rscale>  2 0.46017272E+03</rscale>
<asrwt>0</asrwt>
<pdfrwt beam="1">  1       21 0.65162456E-02 0.46017272E+03</pdfrwt>
<pdfrwt beam="2">  1       21 0.17569786E+00 0.46017272E+03</pdfrwt>
<totfact> 0.29722179E+04</totfact>
</mgrwt>
</event>
<event>
 6    0  0.1539652E-007  0.4573182E+03  0.7546771E-02  0.1025562E+00
         21   -1    0    0  502  501  0.00000000000E+00  0.00000000000E+00  0.39991295137E+03  0.39991295137E+03  0.00000000000E+00 0. -1.
         21   -1    0    0  501  502 -0.00000000000E+00 -0.00000000000E+00 -0.13074090092E+03  0.13074090092E+03  0.00000000000E+00 0. -1.
      99926    2    1    2    0    0  0.00000000000E+00  0.00000000000E+00  0.26917205045E+03  0.53065385229E+03  0.45731818049E+03 0.  0.
         25    1    3    3    0    0 -0.51099104379E+01  0.78866673591E+02  0.18351045563E+03  0.23573217602E+03  0.12509000000E+03 0.  0.
         25    1    3    3    0    0  0.87019811201E+01 -0.34932778292E+02  0.96224091660E+02  0.16187219462E+03  0.12509000000E+03 0.  0.
         25    1    3    3    0    0 -0.35920706822E+01 -0.43933895300E+02 -0.10562496833E+02  0.13304948165E+03  0.12509000000E+03 0.  0.
<mgrwt>
<rscale>  2 0.45731818E+03</rscale>
<asrwt>0</asrwt>
<pdfrwt beam="1">  1       21 0.58810728E-01 0.45731818E+03</pdfrwt>
<pdfrwt beam="2">  1       21 0.19226603E-01 0.45731818E+03</pdfrwt>
<totfact> 0.62014955E+04</totfact>
</mgrwt>
</event>
<event>
 6    0  0.1539652E-007  0.4892730E+03  0.7546771E-02  0.1016617E+00
         21   -1    0    0  502  501  0.00000000000E+00  0.00000000000E+00  0.55228346157E+03  0.55228346157E+03  0.00000000000E+00 0.  1.
         21   -1    0    0  501  502 -0.00000000000E+00 -0.00000000000E+00 -0.10836288145E+03  0.10836288145E+03  0.00000000000E+00 0.  1.
      99926    2    1    2    0    0  0.35527136788E-14 -0.14210854715E-13  0.44392058011E+03  0.66064634302E+03  0.48927304145E+03 0.  0.
         25    1    3    3    0    0 -0.35996843885E+01  0.13035034079E+03  0.15284784243E+03  0.23667306587E+03  0.12509000000E+03 0.  0.
         25    1    3    3    0    0  0.23828161906E+02 -0.20046412223E+02  0.71196917700E+02  0.14726217822E+03  0.12509000000E+03 0.  0.
         25    1    3    3    0    0 -0.20228477518E+02 -0.11030392857E+03  0.21987581998E+03  0.27671109893E+03  0.12509000000E+03 0.  0.
<mgrwt>
<rscale>  2 0.48927304E+03</rscale>
<asrwt>0</asrwt>
<pdfrwt beam="1">  1       21 0.81218155E-01 0.48927304E+03</pdfrwt>
<pdfrwt beam="2">  1       21 0.15935718E-01 0.48927304E+03</pdfrwt>
<totfact> 0.42409407E+04</totfact>
</mgrwt>
</event>
<event>
 6    0  0.1539652E-007  0.4558184E+03  0.7546771E-02  0.1026001E+00
         21   -1    0    0  502  501  0.00000000000E+00  0.00000000000E+00  0.14936124992E+03  0.14936124992E+03  0.00000000000E+00 0. -1.
         21   -1    0    0  501  502 -0.00000000000E+00 -0.00000000000E+00 -0.34776492569E+03  0.34776492569E+03  0.00000000000E+00 0. -1.
      99926    2    1    2    0    0  0.00000000000E+00  0.00000000000E+00 -0.19840367577E+03  0.49712617561E+03  0.45581840235E+03 0.  0.
         25    1    3    3    0    0 -0.69780950236E+02 -0.42099492033E+01 -0.22846285167E+01  0.14331724361E+03  0.12509000000E+03 0.  0.
         25    1    3    3    0    0  0.37000047267E+02  0.71366566717E+02 -0.10300718759E+03  0.18088720004E+03  0.12509000000E+03 0.  0.
         25    1    3    3    0    0  0.32780902969E+02 -0.67156617514E+02 -0.93111859669E+02  0.17292173197E+03  0.12509000000E+03 0.  0.
<mgrwt>
<rscale>  2 0.45581840E+03</rscale>
<asrwt>0</asrwt>
<pdfrwt beam="1">  1       21 0.21964889E-01 0.45581840E+03</pdfrwt>
<pdfrwt beam="2">  1       21 0.51141901E-01 0.45581840E+03</pdfrwt>
<totfact> 0.65049386E+04</totfact>
</mgrwt>
</event>
<event>
 6    0  0.1539652E-007  0.4771423E+03  0.7546771E-02  0.1019924E+00
         21   -1    0    0  502  501  0.00000000000E+00  0.00000000000E+00  0.43440598582E+03  0.43440598582E+03  0.00000000000E+00 0. -1.
         21   -1    0    0  501  502 -0.00000000000E+00 -0.00000000000E+00 -0.13102075584E+03  0.13102075584E+03  0.00000000000E+00 0. -1.
      99926    2    1    2    0    0  0.00000000000E+00  0.00000000000E+00  0.30338522999E+03  0.56542674166E+03  0.47714232930E+03 0.  0.
         25    1    3    3    0    0 -0.39827896827E+02 -0.10104000753E+03  0.15289599907E+03  0.22543300361E+03  0.12509000000E+03 0.  0.
         25    1    3    3    0    0  0.87611946373E+01 -0.13974104892E+02  0.30926250063E+02  0.12990756399E+03  0.12509000000E+03 0.  0.
         25    1    3    3    0    0  0.31066702190E+02  0.11501411242E+03  0.11956298086E+03  0.21008617406E+03  0.12509000000E+03 0.  0.
<mgrwt>
<rscale>  2 0.47714233E+03</rscale>
<asrwt>0</asrwt>
<pdfrwt beam="1">  1       21 0.63883233E-01 0.47714233E+03</pdfrwt>
<pdfrwt beam="2">  1       21 0.19267758E-01 0.47714233E+03</pdfrwt>
<totfact> 0.51269354E+04</totfact>
</mgrwt>
</event>
<event>
 6    0  0.1539652E-007  0.4497637E+03  0.7546771E-02  0.1027793E+00
         21   -1    0    0  502  501  0.00000000000E+00  0.00000000000E+00  0.27959348550E+03  0.27959348550E+03  0.00000000000E+00 0.  1.
         21   -1    0    0  501  502 -0.00000000000E+00 -0.00000000000E+00 -0.18087632700E+03  0.18087632700E+03  0.00000000000E+00 0.  1.
      99926    2    1    2    0    0  0.00000000000E+00  0.00000000000E+00  0.98717158503E+02  0.46046981250E+03  0.44976368333E+03 0.  0.
         25    1    3    3    0    0 -0.72634516387E+01  0.73439781517E+02  0.84761077036E+01  0.14548371641E+03  0.12509000000E+03 0.  0.
         25    1    3    3    0    0 -0.32582351075E+01 -0.10842356931E+03  0.19520552169E+02  0.16671786508E+03  0.12509000000E+03 0.  0.
         25    1    3    3    0    0  0.10521686746E+02  0.34983787797E+02  0.70720498630E+02  0.14826823101E+03  0.12509000000E+03 0.  0.
<mgrwt>
<rscale>  2 0.44976368E+03</rscale>
<asrwt>0</asrwt>
<pdfrwt beam="1">  1       21 0.41116689E-01 0.44976368E+03</pdfrwt>
<pdfrwt beam="2">  1       21 0.26599460E-01 0.44976368E+03</pdfrwt>
<totfact> 0.71057378E+04</totfact>
</mgrwt>
</event>
<event>
 6    0  0.1539652E-007  0.4517775E+03  0.7546771E-02  0.1027193E+00
         21   -1    0    0  502  501  0.00000000000E+00  0.00000000000E+00  0.26458527085E+03  0.26458527085E+03  0.00000000000E+00 0. -1.
         21   -1    0    0  501  502 -0.00000000000E+00 -0.00000000000E+00 -0.19285176663E+03  0.19285176663E+03  0.00000000000E+00 0. -1.
      99926    2    1    2    0    0  0.00000000000E+00 -0.71054273576E-14  0.71733504223E+02  0.45743703749E+03  0.45177754220E+03 0.  0.
         25    1    3    3    0    0 -0.46958035531E+02  0.37819166779E+02 -0.11223198487E+02  0.13931552233E+03  0.12509000000E+03 0.  0.
         25    1    3    3    0    0 -0.15254376530E+02 -0.91627587241E+02  0.26099304530E+02  0.15797782295E+03  0.12509000000E+03 0.  0.
         25    1    3    3    0    0  0.62212412061E+02  0.53808420462E+02  0.56857398180E+02  0.16014369221E+03  0.12509000000E+03 0.  0.
<mgrwt>
<rscale>  2 0.45177754E+03</rscale>
<asrwt>0</asrwt>
<pdfrwt beam="1">  1       21 0.38909599E-01 0.45177754E+03</pdfrwt>
<pdfrwt beam="2">  1       21 0.28360554E-01 0.45177754E+03</pdfrwt>
<totfact> 0.70153238E+04</totfact>
</mgrwt>
</event>
<event>
 6    0  0.1539652E-007  0.4573850E+03  0.7546771E-02  0.1025542E+00
         21   -1    0    0  502  501  0.00000000000E+00  0.00000000000E+00  0.29227696981E+03  0.29227696981E+03  0.00000000000E+00 0. -1.
         21   -1    0    0  501  502 -0.00000000000E+00 -0.00000000000E+00 -0.17894075991E+03  0.17894075991E+03  0.00000000000E+00 0. -1.
      99926    2    1    2    0    0  0.00000000000E+00 -0.35527136788E-14  0.11333620989E+03  0.47121772972E+03  0.45738501542E+03 0.  0.
         25    1    3    3    0    0  0.74380971114E+01  0.42650883535E+02  0.10099180944E+03  0.16649707754E+03  0.12509000000E+03 0.  0.
         25    1    3    3    0    0 -0.76976624782E+02  0.14924860482E+02  0.25791238426E+02  0.14986943752E+03  0.12509000000E+03 0.  0.
         25    1    3    3    0    0  0.69538527670E+02 -0.57575744017E+02 -0.13446837977E+02  0.15485121466E+03  0.12509000000E+03 0.  0.
<mgrwt>
<rscale>  2 0.45738502E+03</rscale>
<asrwt>0</asrwt>
<pdfrwt beam="1">  1       21 0.42981908E-01 0.45738502E+03</pdfrwt>
<pdfrwt beam="2">  1       21 0.26314817E-01 0.45738502E+03</pdfrwt>
<totfact> 0.66086056E+04</totfact>
</mgrwt>
</event>
<event>
 6    0  0.1539652E-007  0.4539601E+03  0.7546771E-02  0.1026548E+00
         21   -1    0    0  502  501  0.00000000000E+00  0.00000000000E+00  0.32812242352E+03  0.32812242352E+03  0.00000000000E+00 0. -1.
         21   -1    0    0  501  502 -0.00000000000E+00 -0.00000000000E+00 -0.15701436095E+03  0.15701436095E+03  0.00000000000E+00 0. -1.
      99926    2    1    2    0    0  0.00000000000E+00  0.35527136788E-14  0.17110806256E+03  0.48513678447E+03  0.45396005394E+03 0.  0.
         25    1    3    3    0    0  0.71175577393E+02  0.16263407900E+02  0.45667257160E+02  0.15186661164E+03  0.12509000000E+03 0.  0.
         25    1    3    3    0    0  0.20656391613E+02 -0.37874510923E+02  0.11656707926E+03  0.17634215933E+03  0.12509000000E+03 0.  0.
         25    1    3    3    0    0 -0.91831969005E+02  0.21611103024E+02  0.88737261488E+01  0.15692801350E+03  0.12509000000E+03 0.  0.
<mgrwt>
<rscale>  2 0.45396005E+03</rscale>
<asrwt>0</asrwt>
<pdfrwt beam="1">  1       21 0.48253298E-01 0.45396005E+03</pdfrwt>
<pdfrwt beam="2">  1       21 0.23090347E-01 0.45396005E+03</pdfrwt>
<totfact> 0.66878458E+04</totfact>
</mgrwt>
</event>
<event>
 6    0  0.1539652E-007  0.4540281E+03  0.7546771E-02  0.1026528E+00
         21   -1    0    0  502  501  0.00000000000E+00  0.00000000000E+00  0.87647816879E+03  0.87647816879E+03  0.00000000000E+00 0. -1.
         21   -1    0    0  501  502 -0.00000000000E+00 -0.00000000000E+00 -0.58798251064E+02  0.58798251064E+02  0.00000000000E+00 0. -1.
      99926    2    1    2    0    0  0.14210854715E-13  0.00000000000E+00  0.81767991772E+03  0.93527641985E+03  0.45402811992E+03 0.  0.
         25    1    3    3    0    0 -0.90813798953E+02  0.36850843207E+02  0.24588539630E+03  0.29276657415E+03  0.12509000000E+03 0.  0.
         25    1    3    3    0    0 -0.68208901788E+01  0.13492053295E+02  0.22684100477E+03  0.25948585624E+03  0.12509000000E+03 0.  0.
         25    1    3    3    0    0  0.97634689132E+02 -0.50342896501E+02  0.34495351666E+03  0.38302398946E+03  0.12509000000E+03 0.  0.
<mgrwt>
<rscale>  2 0.45402812E+03</rscale>
<asrwt>0</asrwt>
<pdfrwt beam="1">  1       21 0.12889384E+00 0.45402812E+03</pdfrwt>
<pdfrwt beam="2">  1       21 0.86468022E-02 0.45402812E+03</pdfrwt>
<totfact> 0.42061641E+04</totfact>
</mgrwt>
</event>
<event>
 6    0  0.1629174E-007  0.4810437E+03  0.7546771E-02  0.1018849E+00
         21   -1    0    0  502  501  0.00000000000E+00  0.00000000000E+00  0.20306302925E+03  0.20306302925E+03  0.00000000000E+00 0.  1.
         21   -1    0    0  501  502 -0.00000000000E+00 -0.00000000000E+00 -0.28489067994E+03  0.28489067994E+03  0.00000000000E+00 0.  1.
      99926    2    1    2    0    0  0.71054273576E-14  0.14210854715E-13 -0.81827650696E+02  0.48795370919E+03  0.48104371724E+03 0.  0.
         25    1    3    3    0    0  0.50161563816E+01  0.81697913626E+02 -0.10813075734E+03  0.18449791245E+03  0.12509000000E+03 0.  0.
         25    1    3    3    0    0  0.57168226294E+02 -0.39922198983E+02  0.57543643591E+02  0.15433977804E+03  0.12509000000E+03 0.  0.
         25    1    3    3    0    0 -0.62184382675E+02 -0.41775714643E+02 -0.31240536950E+02  0.14911601870E+03  0.12509000000E+03 0.  0.
<mgrwt>
<rscale>  2 0.48104372E+03</rscale>
<asrwt>0</asrwt>
<pdfrwt beam="1">  1       21 0.29862210E-01 0.48104372E+03</pdfrwt>
<pdfrwt beam="2">  1       21 0.41895688E-01 0.48104372E+03</pdfrwt>
<totfact> 0.54051914E+04</totfact>
</mgrwt>
</event>
<event>
 6    0  0.1539652E-007  0.4415838E+03  0.7546771E-02  0.1030262E+00
         21   -1    0    0  502  501  0.00000000000E+00  0.00000000000E+00  0.47190412181E+03  0.47190412181E+03  0.00000000000E+00 0.  1.
         21   -1    0    0  501  502 -0.00000000000E+00 -0.00000000000E+00 -0.10330291336E+03  0.10330291336E+03  0.00000000000E+00 0.  1.
      99926    2    1    2    0    0  0.71054273576E-14  0.00000000000E+00  0.36860120845E+03  0.57520703517E+03  0.44158383398E+03 0.  0.
         25    1    3    3    0    0 -0.34483917341E+02 -0.61177226793E+02  0.12103354657E+03  0.18769235767E+03  0.12509000000E+03 0.  0.
         25    1    3    3    0    0 -0.28674957294E+02  0.84768643441E+02  0.10503275643E+03  0.18624544051E+03  0.12509000000E+03 0.  0.
         25    1    3    3    0    0  0.63158874635E+02 -0.23591416648E+02  0.14253490546E+03  0.20126923699E+03  0.12509000000E+03 0.  0.
<mgrwt>
<rscale>  2 0.44158383E+03</rscale>
<asrwt>0</asrwt>
<pdfrwt beam="1">  1       21 0.69397664E-01 0.44158383E+03</pdfrwt>
<pdfrwt beam="2">  1       21 0.15191605E-01 0.44158383E+03</pdfrwt>
<totfact> 0.67066832E+04</totfact>
</mgrwt>
</event>
<event>
 6    0  0.1539652E-007  0.4549587E+03  0.7546771E-02  0.1026254E+00
         21   -1    0    0  502  501  0.00000000000E+00  0.00000000000E+00  0.54528894050E+03  0.54528894050E+03  0.00000000000E+00 0.  1.
         21   -1    0    0  501  502 -0.00000000000E+00 -0.00000000000E+00 -0.94898058570E+02  0.94898058570E+02  0.00000000000E+00 0.  1.
      99926    2    1    2    0    0  0.35527136788E-14  0.71054273576E-14  0.45039088193E+03  0.64018699907E+03  0.45495873137E+03 0.  0.
         25    1    3    3    0    0  0.86217663028E+02 -0.73022562803E+02  0.10772349395E+03  0.20004409350E+03  0.12509000000E+03 0.  0.
         25    1    3    3    0    0 -0.30055548932E+02  0.44807068098E+02  0.16699277347E+03  0.21551126157E+03  0.12509000000E+03 0.  0.
         25    1    3    3    0    0 -0.56162114095E+02  0.28215494705E+02  0.17567461451E+03  0.22463164399E+03  0.12509000000E+03 0.  0.
<mgrwt>
<rscale>  2 0.45495873E+03</rscale>
<asrwt>0</asrwt>
<pdfrwt beam="1">  1       21 0.80189548E-01 0.45495873E+03</pdfrwt>
<pdfrwt beam="2">  1       21 0.13955597E-01 0.45495873E+03</pdfrwt>
<totfact> 0.56288714E+04</totfact>
</mgrwt>
</event>
<event>
 6    0  0.1539652E-007  0.4632689E+03  0.7546771E-02  0.1023837E+00
         21   -1    0    0  502  501  0.00000000000E+00  0.00000000000E+00  0.80924053846E+02  0.80924053846E+02  0.00000000000E+00 0. -1.
         21   -1    0    0  501  502 -0.00000000000E+00 -0.00000000000E+00 -0.66302315949E+03  0.66302315949E+03  0.00000000000E+00 0. -1.
      99926    2    1    2    0    0 -0.71054273576E-14 -0.71054273576E-14 -0.58209910564E+03  0.74394721333E+03  0.46326891482E+03 0.  0.
         25    1    3    3    0    0 -0.13398995188E+02  0.31175425352E+02 -0.26626102461E+03  0.29613152744E+03  0.12509000000E+03 0.  0.
         25    1    3    3    0    0  0.58536387985E+02  0.59704448616E+02 -0.19580466960E+03  0.24693745492E+03  0.12509000000E+03 0.  0.
         25    1    3    3    0    0 -0.45137392796E+02 -0.90879873968E+02 -0.12003341143E+03  0.20087823098E+03  0.12509000000E+03 0.  0.
<mgrwt>
<rscale>  2 0.46326891E+03</rscale>
<asrwt>0</asrwt>
<pdfrwt beam="1">  1       21 0.11900596E-01 0.46326891E+03</pdfrwt>
<pdfrwt beam="2">  1       21 0.97503404E-01 0.46326891E+03</pdfrwt>
<totfact> 0.47422519E+04</totfact>
</mgrwt>
</event>
<event>
 6    0  0.1539652E-007  0.4518008E+03  0.7546771E-02  0.1027186E+00
         21   -1    0    0  502  501  0.00000000000E+00  0.00000000000E+00  0.64420386536E+03  0.64420386536E+03  0.00000000000E+00 0.  1.
         21   -1    0    0  501  502 -0.00000000000E+00 -0.00000000000E+00 -0.79215605315E+02  0.79215605315E+02  0.00000000000E+00 0.  1.
      99926    2    1    2    0    0  0.17763568394E-14  0.00000000000E+00  0.56498826004E+03  0.72341947067E+03  0.45180083727E+03 0.  0.
         25    1    3    3    0    0 -0.62168688020E+01 -0.63058150501E+02  0.14983673261E+03  0.20521582381E+03  0.12509000000E+03 0.  0.
         25    1    3    3    0    0  0.57116640191E+02 -0.27659317587E+02  0.13763464035E+03  0.19651501409E+03  0.12509000000E+03 0.  0.
         25    1    3    3    0    0 -0.50899771389E+02  0.90717468088E+02  0.27751688708E+03  0.32168863277E+03  0.12509000000E+03 0.  0.
<mgrwt>
<rscale>  2 0.45180084E+03</rscale>
<asrwt>0</asrwt>
<pdfrwt beam="1">  1       21 0.94735860E-01 0.45180084E+03</pdfrwt>
<pdfrwt beam="2">  1       21 0.11649354E-01 0.45180084E+03</pdfrwt>
<totfact> 0.52970098E+04</totfact>
</mgrwt>
</event>
<event>
 6    0  0.1539652E-007  0.4441263E+03  0.7546771E-02  0.1029488E+00
         21   -1    0    0  502  501  0.00000000000E+00  0.00000000000E+00  0.65790739869E+03  0.65790739869E+03  0.00000000000E+00 0.  1.
         21   -1    0    0  501  502 -0.00000000000E+00 -0.00000000000E+00 -0.74952864260E+02  0.74952864260E+02  0.00000000000E+00 0.  1.
      99926    2    1    2    0    0  0.00000000000E+00  0.00000000000E+00  0.58295453443E+03  0.73286026295E+03  0.44412630613E+03 0.  0.
         25    1    3    3    0    0 -0.46842914746E+02 -0.98251222254E+01  0.22540344656E+03  0.26219270301E+03  0.12509000000E+03 0.  0.
         25    1    3    3    0    0  0.10547426569E+02  0.88780552405E+02  0.18180832134E+03  0.23810713660E+03  0.12509000000E+03 0.  0.
         25    1    3    3    0    0  0.36295488177E+02 -0.78955430179E+02  0.17574276653E+03  0.23256042334E+03  0.12509000000E+03 0.  0.
<mgrwt>
<rscale>  2 0.44412631E+03</rscale>
<asrwt>0</asrwt>
<pdfrwt beam="1">  1       21 0.96751085E-01 0.44412631E+03</pdfrwt>
<pdfrwt beam="2">  1       21 0.11022480E-01 0.44412631E+03</pdfrwt>
<totfact> 0.55772612E+04</totfact>
</mgrwt>
</event>
<event>
 6    0  0.1539652E-007  0.4565766E+03  0.7546771E-02  0.1025779E+00
         21   -1    0    0  502  501  0.00000000000E+00  0.00000000000E+00  0.44269045457E+03  0.44269045457E+03  0.00000000000E+00 0. -1.
         21   -1    0    0  501  502 -0.00000000000E+00 -0.00000000000E+00 -0.11772459808E+03  0.11772459808E+03  0.00000000000E+00 0. -1.
      99926    2    1    2    0    0  0.00000000000E+00  0.00000000000E+00  0.32496585649E+03  0.56041505266E+03  0.45657663471E+03 0.  0.
         25    1    3    3    0    0 -0.72721344577E+01 -0.50647569997E+02  0.52685813199E+02  0.14505641419E+03  0.12509000000E+03 0.  0.
         25    1    3    3    0    0 -0.61742178863E+02  0.23610020951E+02  0.21854890445E+03  0.26034719410E+03  0.12509000000E+03 0.  0.
         25    1    3    3    0    0  0.69014313321E+02  0.27037549046E+02  0.53731138841E+02  0.15501144436E+03  0.12509000000E+03 0.  0.
<mgrwt>
<rscale>  2 0.45657663E+03</rscale>
<asrwt>0</asrwt>
<pdfrwt beam="1">  1       21 0.65101537E-01 0.45657663E+03</pdfrwt>
<pdfrwt beam="2">  1       21 0.17312441E-01 0.45657663E+03</pdfrwt>
<totfact> 0.60426374E+04</totfact>
</mgrwt>
</event>
<event>
 6    0  0.1539652E-007  0.4372487E+03  0.7546771E-02  0.1031594E+00
         21   -1    0    0  502  501  0.00000000000E+00  0.00000000000E+00  0.98101450876E+03  0.98101450876E+03  0.00000000000E+00 0.  1.
         21   -1    0    0  501  502 -0.00000000000E+00 -0.00000000000E+00 -0.48721616437E+02  0.48721616437E+02  0.00000000000E+00 0.  1.
      99926    2    1    2    0    0 -0.71054273576E-14  0.00000000000E+00  0.93229289232E+03  0.10297361252E+04  0.43724872837E+03 0.  0.
         25    1    3    3    0    0 -0.32948922610E+02  0.36835450820E+02  0.41123165610E+03  0.43266784607E+03  0.12509000000E+03 0.  0.
         25    1    3    3    0    0 -0.24710373522E+02 -0.18574020325E+02  0.13434994554E+03  0.18615319701E+03  0.12509000000E+03 0.  0.
         25    1    3    3    0    0  0.57659296132E+02 -0.18261430495E+02  0.38671129068E+03  0.41091508212E+03  0.12509000000E+03 0.  0.
<mgrwt>
<rscale>  2 0.43724873E+03</rscale>
<asrwt>0</asrwt>
<pdfrwt beam="1">  1       21 0.14426683E+00 0.43724873E+03</pdfrwt>
<pdfrwt beam="2">  1       21 0.71649442E-02 0.43724873E+03</pdfrwt>
<totfact> 0.43790948E+04</totfact>
</mgrwt>
</event>
<event>
 6    0  0.1539652E-007  0.4672573E+03  0.7546771E-02  0.1022697E+00
         21   -1    0    0  502  501  0.00000000000E+00  0.00000000000E+00  0.32998733392E+03  0.32998733392E+03  0.00000000000E+00 0. -1.
         21   -1    0    0  501  502 -0.00000000000E+00 -0.00000000000E+00 -0.16540739201E+03  0.16540739201E+03  0.00000000000E+00 0. -1.
      99926    2    1    2    0    0  0.00000000000E+00  0.71054273576E-14  0.16457994191E+03  0.49539472593E+03  0.46725729229E+03 0.  0.
         25    1    3    3    0    0 -0.90913894383E+02 -0.67931387614E+02  0.51097492892E+01  0.16897818573E+03  0.12509000000E+03 0.  0.
         25    1    3    3    0    0  0.40668209542E+02  0.31889909191E+02  0.12130951383E+03  0.18175361295E+03  0.12509000000E+03 0.  0.
         25    1    3    3    0    0  0.50245684841E+02  0.36041478423E+02  0.38160678794E+02  0.14466292724E+03  0.12509000000E+03 0.  0.
<mgrwt>
<rscale>  2 0.46725729E+03</rscale>
<asrwt>0</asrwt>
<pdfrwt beam="1">  1       21 0.48527549E-01 0.46725729E+03</pdfrwt>
<pdfrwt beam="2">  1       21 0.24324616E-01 0.46725729E+03</pdfrwt>
<totfact> 0.59583193E+04</totfact>
</mgrwt>
</event>
<event>
 6    0  0.1539652E-007  0.4547054E+03  0.7546771E-02  0.1026328E+00
         21   -1    0    0  502  501  0.00000000000E+00  0.00000000000E+00  0.74868602039E+03  0.74868602039E+03  0.00000000000E+00 0.  1.
         21   -1    0    0  501  502 -0.00000000000E+00 -0.00000000000E+00 -0.69039963005E+02  0.69039963005E+02  0.00000000000E+00 0.  1.
      99926    2    1    2    0    0  0.00000000000E+00  0.00000000000E+00  0.67964605738E+03  0.81772598339E+03  0.45470542178E+03 0.  0.
         25    1    3    3    0    0 -0.69984054059E+02 -0.23791629533E+02  0.11970654485E+03  0.18825773407E+03  0.12509000000E+03 0.  0.
         25    1    3    3    0    0  0.38248754040E+02  0.45323786564E+02  0.17645768524E+03  0.22428115301E+03  0.12509000000E+03 0.  0.
         25    1    3    3    0    0  0.31735300019E+02 -0.21532157031E+02  0.38348182729E+03  0.40518709631E+03  0.12509000000E+03 0.  0.
<mgrwt>
<rscale>  2 0.45470542E+03</rscale>
<asrwt>0</asrwt>
<pdfrwt beam="1">  1       21 0.11010088E+00 0.45470542E+03</pdfrwt>
<pdfrwt beam="2">  1       21 0.10152936E-01 0.45470542E+03</pdfrwt>
<totfact> 0.47027965E+04</totfact>
</mgrwt>
</event>
<event>
 6    0  0.1539652E-007  0.4553929E+03  0.7546771E-02  0.1026126E+00
         21   -1    0    0  502  501  0.00000000000E+00  0.00000000000E+00  0.33801972730E+03  0.33801972730E+03  0.00000000000E+00 0.  1.
         21   -1    0    0  501  502 -0.00000000000E+00 -0.00000000000E+00 -0.15338059726E+03  0.15338059726E+03  0.00000000000E+00 0.  1.
      99926    2    1    2    0    0 -0.35527136788E-14  0.00000000000E+00  0.18463913004E+03  0.49140032456E+03  0.45539287504E+03 0.  0.
         25    1    3    3    0    0  0.28421534176E+02 -0.31243668197E+02  0.75491603635E+02  0.15208695120E+03  0.12509000000E+03 0.  0.
         25    1    3    3    0    0 -0.10016174854E+02  0.72741339916E+02 -0.28539315257E+02  0.14782972268E+03  0.12509000000E+03 0.  0.
         25    1    3    3    0    0 -0.18405359322E+02 -0.41497671719E+02  0.13768684166E+03  0.19148365068E+03  0.12509000000E+03 0.  0.
<mgrwt>
<rscale>  2 0.45539288E+03</rscale>
<asrwt>0</asrwt>
<pdfrwt beam="1">  1       21 0.49708783E-01 0.45539288E+03</pdfrwt>
<pdfrwt beam="2">  1       21 0.22555970E-01 0.45539288E+03</pdfrwt>
<totfact> 0.65674063E+04</totfact>
</mgrwt>
</event>
<event>
 6    0  0.1539652E-007  0.4549106E+03  0.7546771E-02  0.1026268E+00
         21   -1    0    0  502  501  0.00000000000E+00  0.00000000000E+00  0.12296565983E+03  0.12296565983E+03  0.00000000000E+00 0. -1.
         21   -1    0    0  501  502 -0.00000000000E+00 -0.00000000000E+00 -0.42073459019E+03  0.42073459019E+03  0.00000000000E+00 0. -1.
      99926    2    1    2    0    0  0.00000000000E+00  0.00000000000E+00 -0.29776893037E+03  0.54370025002E+03  0.45491056921E+03 0.  0.
         25    1    3    3    0    0  0.25105150117E+02  0.36776628171E+02 -0.12578771980E+00  0.13277918837E+03  0.12509000000E+03 0.  0.
         25    1    3    3    0    0  0.96664517480E+01  0.14698419720E+02 -0.21290777626E+03  0.24756153402E+03  0.12509000000E+03 0.  0.
         25    1    3    3    0    0 -0.34771601865E+02 -0.51475047891E+02 -0.84735366387E+02  0.16335952763E+03  0.12509000000E+03 0.  0.
<mgrwt>
<rscale>  2 0.45491057E+03</rscale>
<asrwt>0</asrwt>
<pdfrwt beam="1">  1       21 0.18083186E-01 0.45491057E+03</pdfrwt>
<pdfrwt beam="2">  1       21 0.61872732E-01 0.45491057E+03</pdfrwt>
<totfact> 0.62328832E+04</totfact>
</mgrwt>
</event>
<event>
 6    0  0.1539652E-007  0.4544539E+03  0.7546771E-02  0.1026402E+00
         21   -1    0    0  502  501  0.00000000000E+00  0.00000000000E+00  0.21366273736E+03  0.21366273736E+03  0.00000000000E+00 0.  1.
         21   -1    0    0  501  502 -0.00000000000E+00 -0.00000000000E+00 -0.24165232517E+03  0.24165232517E+03  0.00000000000E+00 0.  1.
      99926    2    1    2    0    0  0.00000000000E+00  0.00000000000E+00 -0.27989587806E+02  0.45531506254E+03  0.45445394612E+03 0.  0.
         25    1    3    3    0    0 -0.59013926110E+02 -0.33928847175E+02  0.13133735368E+02  0.14301682856E+03  0.12509000000E+03 0.  0.
         25    1    3    3    0    0  0.10887176764E+03  0.44168895485E+02 -0.44198436669E+02  0.17721445489E+03  0.12509000000E+03 0.  0.
         25    1    3    3    0    0 -0.49857841526E+02 -0.10240048311E+02  0.30751134956E+01  0.13508377909E+03  0.12509000000E+03 0.  0.
<mgrwt>
<rscale>  2 0.45445395E+03</rscale>
<asrwt>0</asrwt>
<pdfrwt beam="1">  1       21 0.31420991E-01 0.45445395E+03</pdfrwt>
<pdfrwt beam="2">  1       21 0.35537107E-01 0.45445395E+03</pdfrwt>
<totfact> 0.68822112E+04</totfact>
</mgrwt>
</event>
<event>
 6    0  0.1539652E-007  0.4605796E+03  0.7546771E-02  0.1024613E+00
         21   -1    0    0  502  501  0.00000000000E+00  0.00000000000E+00  0.44022513194E+03  0.44022513194E+03  0.00000000000E+00 0. -1.
         21   -1    0    0  501  502 -0.00000000000E+00 -0.00000000000E+00 -0.12046879358E+03  0.12046879358E+03  0.00000000000E+00 0. -1.
      99926    2    1    2    0    0  0.71054273576E-14 -0.35527136788E-14  0.31975633836E+03  0.56069392552E+03  0.46057959377E+03 0.  0.
         25    1    3    3    0    0  0.36389255949E+02  0.89506369722E+02  0.13860253069E+03  0.21022306672E+03  0.12509000000E+03 0.  0.
         25    1    3    3    0    0 -0.49007923305E+02  0.29273397355E+01  0.12809267278E+03  0.18564909584E+03  0.12509000000E+03 0.  0.
         25    1    3    3    0    0  0.12618667355E+02 -0.92433709458E+02  0.53061134892E+02  0.16482176296E+03  0.12509000000E+03 0.  0.
<mgrwt>
<rscale>  2 0.46057959E+03</rscale>
<asrwt>0</asrwt>
<pdfrwt beam="1">  1       21 0.64738989E-01 0.46057959E+03</pdfrwt>
<pdfrwt beam="2">  1       21 0.17715999E-01 0.46057959E+03</pdfrwt>
<totfact> 0.58538702E+04</totfact>
</mgrwt>
</event>
<event>
 6    0  0.1539652E-007  0.4488718E+03  0.7546771E-02  0.1028059E+00
         21   -1    0    0  502  501  0.00000000000E+00  0.00000000000E+00  0.15386555381E+03  0.15386555381E+03  0.00000000000E+00 0. -1.
         21   -1    0    0  501  502 -0.00000000000E+00 -0.00000000000E+00 -0.32737324361E+03  0.32737324361E+03  0.00000000000E+00 0. -1.
      99926    2    1    2    0    0  0.00000000000E+00  0.00000000000E+00 -0.17350768980E+03  0.48123879742E+03  0.44887176534E+03 0.  0.
         25    1    3    3    0    0 -0.30225714901E+02 -0.47258529699E+02  0.69686219225E+01  0.13726992483E+03  0.12509000000E+03 0.  0.
         25    1    3    3    0    0  0.82771913000E+02  0.11027448055E+02 -0.11327334694E+03  0.18828476683E+03  0.12509000000E+03 0.  0.
         25    1    3    3    0    0 -0.52546198099E+02  0.36231081644E+02 -0.67202964784E+02  0.15568410576E+03  0.12509000000E+03 0.  0.
<mgrwt>
<rscale>  2 0.44887177E+03</rscale>
<asrwt>0</asrwt>
<pdfrwt beam="1">  1       21 0.22627287E-01 0.44887177E+03</pdfrwt>
<pdfrwt beam="2">  1       21 0.48143125E-01 0.44887177E+03</pdfrwt>
<totfact> 0.69951592E+04</totfact>
</mgrwt>
</event>
<event>
 6    0  0.1539652E-007  0.4488349E+03  0.7546771E-02  0.1028070E+00
         21   -1    0    0  502  501  0.00000000000E+00  0.00000000000E+00  0.47241504692E+03  0.47241504692E+03  0.00000000000E+00 0.  1.
         21   -1    0    0  501  502 -0.00000000000E+00 -0.00000000000E+00 -0.10660795367E+03  0.10660795367E+03  0.00000000000E+00 0.  1.
      99926    2    1    2    0    0  0.00000000000E+00  0.79936057773E-14  0.36580709325E+03  0.57902300060E+03  0.44883494266E+03 0.  0.
         25    1    3    3    0    0 -0.27828051923E+02 -0.78920169599E+02  0.18492718899E+03  0.23842895582E+03  0.12509000000E+03 0.  0.
         25    1    3    3    0    0  0.37560239526E+02  0.83594584422E+02  0.13897210549E+03  0.20822963368E+03  0.12509000000E+03 0.  0.
         25    1    3    3    0    0 -0.97321876038E+01 -0.46744148226E+01  0.41907798774E+02  0.13236441111E+03  0.12509000000E+03 0.  0.
<mgrwt>
<rscale>  2 0.44883494E+03</rscale>
<asrwt>0</asrwt>
<pdfrwt beam="1">  1       21 0.69472800E-01 0.44883494E+03</pdfrwt>
<pdfrwt beam="2">  1       21 0.15677640E-01 0.44883494E+03</pdfrwt>
<totfact> 0.63003459E+04</totfact>
</mgrwt>
</event>
<event>
 6    0  0.1539652E-007  0.4459782E+03  0.7546771E-02  0.1028928E+00
         21   -1    0    0  502  501  0.00000000000E+00  0.00000000000E+00  0.48211724746E+03  0.48211724746E+03  0.00000000000E+00 0. -1.
         21   -1    0    0  501  502 -0.00000000000E+00 -0.00000000000E+00 -0.10313702109E+03  0.10313702109E+03  0.00000000000E+00 0. -1.
      99926    2    1    2    0    0  0.71054273576E-14 -0.26645352591E-14  0.37898022637E+03  0.58525426855E+03  0.44597819103E+03 0.  0.
         25    1    3    3    0    0  0.21234741015E+02  0.23594155364E+01  0.12621267778E+03  0.17897940999E+03  0.12509000000E+03 0.  0.
         25    1    3    3    0    0  0.51844407542E+02 -0.33120880829E+02  0.36399793871E+02  0.14407389921E+03  0.12509000000E+03 0.  0.
         25    1    3    3    0    0 -0.73079148557E+02  0.30761465293E+02  0.21636775471E+03  0.26220095934E+03  0.12509000000E+03 0.  0.
<mgrwt>
<rscale>  2 0.44597819E+03</rscale>
<asrwt>0</asrwt>
<pdfrwt beam="1">  1       21 0.70899594E-01 0.44597819E+03</pdfrwt>
<pdfrwt beam="2">  1       21 0.15167209E-01 0.44597819E+03</pdfrwt>
<totfact> 0.64041342E+04</totfact>
</mgrwt>
</event>
<event>
 6    0  0.1539652E-007  0.4528177E+03  0.7546771E-02  0.1026885E+00
         21   -1    0    0  502  501  0.00000000000E+00  0.00000000000E+00  0.66044673613E+03  0.66044673613E+03  0.00000000000E+00 0.  1.
         21   -1    0    0  501  502 -0.00000000000E+00 -0.00000000000E+00 -0.77615611790E+02  0.77615611790E+02  0.00000000000E+00 0.  1.
      99926    2    1    2    0    0  0.00000000000E+00  0.00000000000E+00  0.58283112434E+03  0.73806234792E+03  0.45281774470E+03 0.  0.
         25    1    3    3    0    0 -0.20208629659E+02  0.77879860880E+01  0.66495179355E+02  0.14331140365E+03  0.12509000000E+03 0.  0.
         25    1    3    3    0    0  0.75470549366E+02 -0.39777855796E+02  0.22324605907E+03  0.26974875833E+03  0.12509000000E+03 0.  0.
         25    1    3    3    0    0 -0.55261919708E+02  0.31989869708E+02  0.29308988592E+03  0.32500218594E+03  0.12509000000E+03 0.  0.
<mgrwt>
<rscale>  2 0.45281774E+03</rscale>
<asrwt>0</asrwt>
<pdfrwt beam="1">  1       21 0.97124517E-01 0.45281774E+03</pdfrwt>
<pdfrwt beam="2">  1       21 0.11414061E-01 0.45281774E+03</pdfrwt>
<totfact> 0.51767116E+04</totfact>
</mgrwt>
</event>
<event>
 6    0  0.1539652E-007  0.4610071E+03  0.7546771E-02  0.1024490E+00
         21   -1    0    0  502  501  0.00000000000E+00  0.00000000000E+00  0.26756970511E+03  0.26756970511E+03  0.00000000000E+00 0.  1.
         21   -1    0    0  501  502 -0.00000000000E+00 -0.00000000000E+00 -0.19857208970E+03  0.19857208970E+03  0.00000000000E+00 0.  1.
      99926    2    1    2    0    0  0.00000000000E+00 -0.35527136788E-14  0.68997615413E+02  0.46614179481E+03  0.46100705194E+03 0.  0.
         25    1    3    3    0    0  0.38677279529E+02 -0.17328455441E+02 -0.14050127938E+02  0.13281988373E+03  0.12509000000E+03 0.  0.
         25    1    3    3    0    0 -0.43385892763E+02  0.98848947961E+02  0.62357305621E+01  0.16534764177E+03  0.12509000000E+03 0.  0.
         25    1    3    3    0    0  0.47086132345E+01 -0.81520492520E+02  0.76812012790E+02  0.16797426930E+03  0.12509000000E+03 0.  0.
<mgrwt>
<rscale>  2 0.46100705E+03</rscale>
<asrwt>0</asrwt>
<pdfrwt beam="1">  1       21 0.39348486E-01 0.46100705E+03</pdfrwt>
<pdfrwt beam="2">  1       21 0.29201778E-01 0.46100705E+03</pdfrwt>
<totfact> 0.64585451E+04</totfact>
</mgrwt>
</event>
<event>
 6    0  0.1539652E-007  0.4559195E+03  0.7546771E-02  0.1025971E+00
         21   -1    0    0  502  501  0.00000000000E+00  0.00000000000E+00  0.29517503746E+03  0.29517503746E+03  0.00000000000E+00 0. -1.
         21   -1    0    0  501  502 -0.00000000000E+00 -0.00000000000E+00 -0.17605025105E+03  0.17605025105E+03  0.00000000000E+00 0. -1.
      99926    2    1    2    0    0  0.00000000000E+00  0.00000000000E+00  0.11912478640E+03  0.47122528851E+03  0.45591946415E+03 0.  0.
         25    1    3    3    0    0 -0.86491486450E+02 -0.81862422657E+01 -0.41519144019E+02  0.15785797164E+03  0.12509000000E+03 0.  0.
         25    1    3    3    0    0  0.42326962451E+02  0.31483243011E+01  0.10774053694E+03  0.17046118355E+03  0.12509000000E+03 0.  0.
         25    1    3    3    0    0  0.44164523999E+02  0.50379179645E+01  0.52903393481E+02  0.14290613332E+03  0.12509000000E+03 0.  0.
<mgrwt>
<rscale>  2 0.45591946E+03</rscale>
<asrwt>0</asrwt>
<pdfrwt beam="1">  1       21 0.43408094E-01 0.45591946E+03</pdfrwt>
<pdfrwt beam="2">  1       21 0.25889743E-01 0.45591946E+03</pdfrwt>
<totfact> 0.66855691E+04</totfact>
</mgrwt>
</event>
<event>
 6    0  0.1539652E-007  0.4483225E+03  0.7546771E-02  0.1028223E+00
         21   -1    0    0  502  501  0.00000000000E+00  0.00000000000E+00  0.61768786469E+03  0.61768786469E+03  0.00000000000E+00 0. -1.
         21   -1    0    0  501  502 -0.00000000000E+00 -0.00000000000E+00 -0.81348949857E+02  0.81348949857E+02  0.00000000000E+00 0. -1.
      99926    2    1    2    0    0  0.00000000000E+00  0.71054273576E-14  0.53633891483E+03  0.69903681454E+03  0.44832246935E+03 0.  0.
         25    1    3    3    0    0 -0.64073304033E+02  0.52985067625E+02  0.94994363947E+02  0.17771956269E+03  0.12509000000E+03 0.  0.
         25    1    3    3    0    0  0.17173944494E+02 -0.91737890589E+01  0.13976406708E+03  0.18857519805E+03  0.12509000000E+03 0.  0.
         25    1    3    3    0    0  0.46899359539E+02 -0.43811278566E+02  0.30158048381E+03  0.33274205380E+03  0.12509000000E+03 0.  0.
<mgrwt>
<rscale>  2 0.44832247E+03</rscale>
<asrwt>0</asrwt>
<pdfrwt beam="1">  1       21 0.90836448E-01 0.44832247E+03</pdfrwt>
<pdfrwt beam="2">  1       21 0.11963081E-01 0.44832247E+03</pdfrwt>
<totfact> 0.55831990E+04</totfact>
</mgrwt>
</event>
<event>
 6    0  0.1539652E-007  0.4581992E+03  0.7546771E-02  0.1025305E+00
         21   -1    0    0  502  501  0.00000000000E+00  0.00000000000E+00  0.10583636541E+03  0.10583636541E+03  0.00000000000E+00 0.  1.
         21   -1    0    0  501  502 -0.00000000000E+00 -0.00000000000E+00 -0.49592251451E+03  0.49592251451E+03  0.00000000000E+00 0.  1.
      99926    2    1    2    0    0  0.88817841970E-15  0.00000000000E+00 -0.39008614910E+03  0.60175887992E+03  0.45819924252E+03 0.  0.
         25    1    3    3    0    0 -0.33322058726E+02  0.95651568715E+01 -0.17537025236E+03  0.21818360465E+03  0.12509000000E+03 0.  0.
         25    1    3    3    0    0 -0.57022004683E+01 -0.11570303324E+02  0.70835444697E+01  0.12595265663E+03  0.12509000000E+03 0.  0.
         25    1    3    3    0    0  0.39024259194E+02  0.20051464528E+01 -0.22179944121E+03  0.25762261865E+03  0.12509000000E+03 0.  0.
<mgrwt>
<rscale>  2 0.45819924E+03</rscale>
<asrwt>0</asrwt>
<pdfrwt beam="1">  1       21 0.15564172E-01 0.45819924E+03</pdfrwt>
<pdfrwt beam="2">  1       21 0.72929781E-01 0.45819924E+03</pdfrwt>
<totfact> 0.57112739E+04</totfact>
</mgrwt>
</event>
<event>
 6    0  0.1539652E-007  0.4550913E+03  0.7546771E-02  0.1026215E+00
         21   -1    0    0  502  501  0.00000000000E+00  0.00000000000E+00  0.11312403145E+03  0.11312403145E+03  0.00000000000E+00 0. -1.
         21   -1    0    0  501  502 -0.00000000000E+00 -0.00000000000E+00 -0.45770141800E+03  0.45770141800E+03  0.00000000000E+00 0. -1.
      99926    2    1    2    0    0  0.35527136788E-14  0.71054273576E-14 -0.34457738655E+03  0.57082544946E+03  0.45509132977E+03 0.  0.
         25    1    3    3    0    0  0.22893305412E+02  0.55065447690E+02 -0.19189167593E+03  0.23669860657E+03  0.12509000000E+03 0.  0.
         25    1    3    3    0    0  0.29782459671E+02  0.16713889367E+02 -0.12099239326E+03  0.17734998260E+03  0.12509000000E+03 0.  0.
         25    1    3    3    0    0 -0.52675765083E+02 -0.71779337057E+02 -0.31693317360E+02  0.15677686028E+03  0.12509000000E+03 0.  0.
<mgrwt>
<rscale>  2 0.45509133E+03</rscale>
<asrwt>0</asrwt>
<pdfrwt beam="1">  1       21 0.16635887E-01 0.45509133E+03</pdfrwt>
<pdfrwt beam="2">  1       21 0.67309032E-01 0.45509133E+03</pdfrwt>
<totfact> 0.60467281E+04</totfact>
</mgrwt>
</event>
<event>
 6    0  0.1539652E-007  0.4556253E+03  0.7546771E-02  0.1026058E+00
         21   -1    0    0  502  501  0.00000000000E+00  0.00000000000E+00  0.54270234921E+03  0.54270234921E+03  0.00000000000E+00 0. -1.
         21   -1    0    0  501  502 -0.00000000000E+00 -0.00000000000E+00 -0.95629956140E+02  0.95629956140E+02  0.00000000000E+00 0. -1.
      99926    2    1    2    0    0  0.35527136788E-14 -0.35527136788E-14  0.44707239307E+03  0.63833230535E+03  0.45562529276E+03 0.  0.
         25    1    3    3    0    0 -0.96309947264E+02  0.22714238015E+02  0.25283882308E+03  0.29894233742E+03  0.12509000000E+03 0.  0.
         25    1    3    3    0    0  0.29966908450E+02 -0.22885649201E+02  0.12860307463E+03  0.18332492314E+03  0.12509000000E+03 0.  0.
         25    1    3    3    0    0  0.66343038813E+02  0.17141118635E+00  0.65630495366E+02  0.15606504478E+03  0.12509000000E+03 0.  0.
<mgrwt>
<rscale>  2 0.45562529E+03</rscale>
<asrwt>0</asrwt>
<pdfrwt beam="1">  1       21 0.79809167E-01 0.45562529E+03</pdfrwt>
<pdfrwt beam="2">  1       21 0.14063229E-01 0.45562529E+03</pdfrwt>
<totfact> 0.56101357E+04</totfact>
</mgrwt>
</event>
<event>
 6    0  0.1539652E-007  0.4720212E+03  0.7546771E-02  0.1021351E+00
         21   -1    0    0  502  501  0.00000000000E+00  0.00000000000E+00  0.37428556593E+03  0.37428556593E+03  0.00000000000E+00 0. -1.
         21   -1    0    0  501  502 -0.00000000000E+00 -0.00000000000E+00 -0.14881952142E+03  0.14881952142E+03  0.00000000000E+00 0. -1.
      99926    2    1    2    0    0  0.71054273576E-14  0.00000000000E+00  0.22546604451E+03  0.52310508735E+03  0.47202118086E+03 0.  0.
         25    1    3    3    0    0 -0.53978994613E+02 -0.41496374701E+02  0.57057502215E+02  0.15342342595E+03  0.12509000000E+03 0.  0.
         25    1    3    3    0    0  0.89085313946E+02 -0.18148209248E+01  0.17466992243E+03  0.23258670778E+03  0.12509000000E+03 0.  0.
         25    1    3    3    0    0 -0.35106319333E+02  0.43311195626E+02 -0.62613801408E+01  0.13709495361E+03  0.12509000000E+03 0.  0.
<mgrwt>
<rscale>  2 0.47202118E+03</rscale>
<asrwt>0</asrwt>
<pdfrwt beam="1">  1       21 0.55041995E-01 0.47202118E+03</pdfrwt>
<pdfrwt beam="2">  1       21 0.21885224E-01 0.47202118E+03</pdfrwt>
<totfact> 0.55755924E+04</totfact>
</mgrwt>
</event>
<event>
 6    0  0.1539652E-007  0.4506879E+03  0.7546771E-02  0.1027517E+00
         21   -1    0    0  502  501  0.00000000000E+00  0.00000000000E+00  0.57381703307E+03  0.57381703307E+03  0.00000000000E+00 0. -1.
         21   -1    0    0  501  502 -0.00000000000E+00 -0.00000000000E+00 -0.88494914774E+02  0.88494914774E+02  0.00000000000E+00 0. -1.
      99926    2    1    2    0    0  0.71054273576E-14  0.00000000000E+00  0.48532211830E+03  0.66231194785E+03  0.45068787176E+03 0.  0.
         25    1    3    3    0    0  0.53869628132E+02  0.38216625472E+01  0.15942625046E+03  0.20971594927E+03  0.12509000000E+03 0.  0.
         25    1    3    3    0    0  0.63829613561E+01  0.67518952874E+02  0.22666054942E+03  0.26762298847E+03  0.12509000000E+03 0.  0.
         25    1    3    3    0    0 -0.60252589488E+02 -0.71340615422E+02  0.99235318412E+02  0.18497301011E+03  0.12509000000E+03 0.  0.
<mgrwt>
<rscale>  2 0.45068787E+03</rscale>
<asrwt>0</asrwt>
<pdfrwt beam="1">  1       21 0.84384856E-01 0.45068787E+03</pdfrwt>
<pdfrwt beam="2">  1       21 0.13013958E-01 0.45068787E+03</pdfrwt>
<totfact> 0.56907330E+04</totfact>
</mgrwt>
</event>
<event>
 6    0  0.1539652E-007  0.4524070E+03  0.7546771E-02  0.1027007E+00
         21   -1    0    0  502  501  0.00000000000E+00  0.00000000000E+00  0.11665379914E+03  0.11665379914E+03  0.00000000000E+00 0.  1.
         21   -1    0    0  501  502 -0.00000000000E+00 -0.00000000000E+00 -0.43863147983E+03  0.43863147983E+03  0.00000000000E+00 0.  1.
      99926    2    1    2    0    0  0.35527136788E-14 -0.35527136788E-14 -0.32197768070E+03  0.55528527897E+03  0.45240702268E+03 0.  0.
         25    1    3    3    0    0 -0.29933436293E+02  0.38104653031E+02 -0.42863459978E+02  0.14082883047E+03  0.12509000000E+03 0.  0.
         25    1    3    3    0    0  0.67042447605E+01 -0.67189971149E+02 -0.49833283685E+02  0.15063300894E+03  0.12509000000E+03 0.  0.
         25    1    3    3    0    0  0.23229191533E+02  0.29085318119E+02 -0.22928093704E+03  0.26382343955E+03  0.12509000000E+03 0.  0.
<mgrwt>
<rscale>  2 0.45240702E+03</rscale>
<asrwt>0</asrwt>
<pdfrwt beam="1">  1       21 0.17154970E-01 0.45240702E+03</pdfrwt>
<pdfrwt beam="2">  1       21 0.64504630E-01 0.45240702E+03</pdfrwt>
<totfact> 0.62796844E+04</totfact>
</mgrwt>
</event>
<event>
 6    0  0.1539652E-007  0.4614734E+03  0.7546771E-02  0.1024355E+00
         21   -1    0    0  502  501  0.00000000000E+00  0.00000000000E+00  0.17969791147E+03  0.17969791147E+03  0.00000000000E+00 0.  1.
         21   -1    0    0  501  502 -0.00000000000E+00 -0.00000000000E+00 -0.29627183355E+03  0.29627183355E+03  0.00000000000E+00 0.  1.
      99926    2    1    2    0    0 -0.14210854715E-13  0.00000000000E+00 -0.11657392208E+03  0.47596974502E+03  0.46147342162E+03 0.  0.
         25    1    3    3    0    0  0.90692513311E+02  0.23684195026E+02  0.32498688813E+01  0.15634622737E+03  0.12509000000E+03 0.  0.
         25    1    3    3    0    0 -0.33359485962E+01 -0.53843105914E+01 -0.10820607710E+03  0.16551792221E+03  0.12509000000E+03 0.  0.
         25    1    3    3    0    0 -0.87356564714E+02 -0.18299884435E+02 -0.11617713869E+02  0.15410559544E+03  0.12509000000E+03 0.  0.
<mgrwt>
<rscale>  2 0.46147342E+03</rscale>
<asrwt>0</asrwt>
<pdfrwt beam="1">  1       21 0.26426164E-01 0.46147342E+03</pdfrwt>
<pdfrwt beam="2">  1       21 0.43569386E-01 0.46147342E+03</pdfrwt>
<totfact> 0.63661506E+04</totfact>
</mgrwt>
</event>
<event>
 6    0  0.1539652E-007  0.4466273E+03  0.7546771E-02  0.1028733E+00
         21   -1    0    0  502  501  0.00000000000E+00  0.00000000000E+00  0.21946516259E+03  0.21946516259E+03  0.00000000000E+00 0.  1.
         21   -1    0    0  501  502 -0.00000000000E+00 -0.00000000000E+00 -0.22722966477E+03  0.22722966477E+03  0.00000000000E+00 0.  1.
      99926    2    1    2    0    0  0.00000000000E+00  0.88817841970E-15 -0.77645021784E+01  0.44669482736E+03  0.44662734051E+03 0.  0.
         25    1    3    3    0    0  0.34059284794E+02  0.46917043540E+02 -0.50715202484E+02  0.14690399490E+03  0.12509000000E+03 0.  0.
         25    1    3    3    0    0  0.38410976662E+02 -0.49171151900E+02  0.63893317924E+02  0.15369798139E+03  0.12509000000E+03 0.  0.
         25    1    3    3    0    0 -0.72470261456E+02  0.22541083596E+01 -0.20942617618E+02  0.14609285107E+03  0.12509000000E+03 0.  0.
<mgrwt>
<rscale>  2 0.44662734E+03</rscale>
<asrwt>0</asrwt>
<pdfrwt beam="1">  1       21 0.32274289E-01 0.44662734E+03</pdfrwt>
<pdfrwt beam="2">  1       21 0.33416127E-01 0.44662734E+03</pdfrwt>
<totfact> 0.73978544E+04</totfact>
</mgrwt>
</event>
<event>
 6    0  0.1539652E-007  0.4569459E+03  0.7546771E-02  0.1025671E+00
         21   -1    0    0  502  501  0.00000000000E+00  0.00000000000E+00  0.24428858036E+03  0.24428858036E+03  0.00000000000E+00 0. -1.
         21   -1    0    0  501  502 -0.00000000000E+00 -0.00000000000E+00 -0.21368126181E+03  0.21368126181E+03  0.00000000000E+00 0. -1.
      99926    2    1    2    0    0  0.00000000000E+00  0.00000000000E+00  0.30607318552E+02  0.45796984217E+03  0.45694591408E+03 0.  0.
         25    1    3    3    0    0  0.43704386404E+02 -0.28699353830E+02 -0.31948763416E+02  0.13929091099E+03  0.12509000000E+03 0.  0.
         25    1    3    3    0    0  0.11941584824E+02 -0.50667892695E+02  0.83341260760E+02  0.15906951513E+03  0.12509000000E+03 0.  0.
         25    1    3    3    0    0 -0.55645971228E+02  0.79367246525E+02 -0.20785178793E+02  0.15960941605E+03  0.12509000000E+03 0.  0.
<mgrwt>
<rscale>  2 0.45694591E+03</rscale>
<asrwt>0</asrwt>
<pdfrwt beam="1">  1       21 0.35924791E-01 0.45694591E+03</pdfrwt>
<pdfrwt beam="2">  1       21 0.31423715E-01 0.45694591E+03</pdfrwt>
<totfact> 0.67278161E+04</totfact>
</mgrwt>
</event>
<event>
 6    0  0.1539652E-007  0.4838776E+03  0.7546771E-02  0.1018075E+00
         21   -1    0    0  502  501  0.00000000000E+00  0.00000000000E+00  0.76794246387E+02  0.76794246387E+02  0.00000000000E+00 0.  1.
         21   -1    0    0  501  502 -0.00000000000E+00 -0.00000000000E+00 -0.76222357853E+03  0.76222357853E+03  0.00000000000E+00 0.  1.
      99926    2    1    2    0    0 -0.14210854715E-13  0.00000000000E+00 -0.68542933214E+03  0.83901782492E+03  0.48387760970E+03 0.  0.
         25    1    3    3    0    0  0.10006035131E+03  0.24183059050E+02 -0.32280772036E+03  0.36117755560E+03  0.12509000000E+03 0.  0.
         25    1    3    3    0    0 -0.10590162554E+03 -0.40143789700E+02 -0.28016473032E+03  0.32705727688E+03  0.12509000000E+03 0.  0.
         25    1    3    3    0    0  0.58412742326E+01  0.15960730650E+02 -0.82456881469E+02  0.15078299244E+03  0.12509000000E+03 0.  0.
<mgrwt>
<rscale>  2 0.48387761E+03</rscale>
<asrwt>0</asrwt>
<pdfrwt beam="1">  1       21 0.11293271E-01 0.48387761E+03</pdfrwt>
<pdfrwt beam="2">  1       21 0.11209171E+00 0.48387761E+03</pdfrwt>
<totfact> 0.36848952E+04</totfact>
</mgrwt>
</event>
<event>
 6    0  0.1539652E-007  0.4295748E+03  0.7546771E-02  0.1033994E+00
         21   -1    0    0  502  501  0.00000000000E+00  0.00000000000E+00  0.50521074450E+03  0.50521074450E+03  0.00000000000E+00 0. -1.
         21   -1    0    0  501  502 -0.00000000000E+00 -0.00000000000E+00 -0.91315596190E+02  0.91315596190E+02  0.00000000000E+00 0. -1.
      99926    2    1    2    0    0  0.00000000000E+00 -0.71054273576E-14  0.41389514831E+03  0.59652634069E+03  0.42957476805E+03 0.  0.
         25    1    3    3    0    0  0.53356022263E+02  0.45792109395E+02  0.12564907556E+03  0.19073274675E+03  0.12509000000E+03 0.  0.
         25    1    3    3    0    0 -0.10414585201E+02 -0.78599771029E+02  0.13103383153E+03  0.19774670843E+03  0.12509000000E+03 0.  0.
         25    1    3    3    0    0 -0.42941437062E+02  0.32807661634E+02  0.15721224122E+03  0.20804688550E+03  0.12509000000E+03 0.  0.
<mgrwt>
<rscale>  2 0.42957477E+03</rscale>
<asrwt>0</asrwt>
<pdfrwt beam="1">  1       21 0.74295696E-01 0.42957477E+03</pdfrwt>
<pdfrwt beam="2">  1       21 0.13428764E-01 0.42957477E+03</pdfrwt>
<totfact> 0.72371887E+04</totfact>
</mgrwt>
</event>
<event>
 6    0  0.1539652E-007  0.4480795E+03  0.7546771E-02  0.1028296E+00
         21   -1    0    0  502  501  0.00000000000E+00  0.00000000000E+00  0.13308969124E+04  0.13308969124E+04  0.00000000000E+00 0. -1.
         21   -1    0    0  501  502 -0.00000000000E+00 -0.00000000000E+00 -0.37714275014E+02  0.37714275014E+02  0.00000000000E+00 0. -1.
      99926    2    1    2    0    0  0.71054273576E-14  0.00000000000E+00  0.12931826374E+04  0.13686111874E+04  0.44807951155E+03 0.  0.
         25    1    3    3    0    0 -0.99416344115E+01 -0.26699060626E+02  0.48216131365E+03  0.49893758769E+03  0.12509000000E+03 0.  0.
         25    1    3    3    0    0  0.61739224720E+02 -0.44594731775E+02  0.26681744698E+03  0.30436734398E+03  0.12509000000E+03 0.  0.
         25    1    3    3    0    0 -0.51797590309E+02  0.71293792402E+02  0.54420387673E+03  0.56530625571E+03  0.12509000000E+03 0.  0.
<mgrwt>
<rscale>  2 0.44807951E+03</rscale>
<asrwt>0</asrwt>
<pdfrwt beam="1">  1       21 0.19572010E+00 0.44807951E+03</pdfrwt>
<pdfrwt beam="2">  1       21 0.55462178E-02 0.44807951E+03</pdfrwt>
<totfact> 0.28693252E+04</totfact>
</mgrwt>
</event>
<event>
 6    0  0.1539652E-007  0.4576153E+03  0.7546771E-02  0.1025475E+00
         21   -1    0    0  502  501  0.00000000000E+00  0.00000000000E+00  0.22857774768E+03  0.22857774768E+03  0.00000000000E+00 0.  1.
         21   -1    0    0  501  502 -0.00000000000E+00 -0.00000000000E+00 -0.22903777073E+03  0.22903777073E+03  0.00000000000E+00 0.  1.
      99926    2    1    2    0    0  0.71054273576E-14  0.00000000000E+00 -0.46002304026E+00  0.45761551841E+03  0.45761528719E+03 0.  0.
         25    1    3    3    0    0 -0.58764578328E+02 -0.21919662259E+02 -0.16202694156E+02  0.14086796179E+03  0.12509000000E+03 0.  0.
         25    1    3    3    0    0 -0.53580540536E+02  0.56049604244E+01  0.48693507941E+02  0.14464043598E+03  0.12509000000E+03 0.  0.
         25    1    3    3    0    0  0.11234511886E+03  0.16314701834E+02 -0.32950836825E+02  0.17210712064E+03  0.12509000000E+03 0.  0.
<mgrwt>
<rscale>  2 0.45761529E+03</rscale>
<asrwt>0</asrwt>
<pdfrwt beam="1">  1       21 0.33614375E-01 0.45761529E+03</pdfrwt>
<pdfrwt beam="2">  1       21 0.33682025E-01 0.45761529E+03</pdfrwt>
<totfact> 0.66946663E+04</totfact>
</mgrwt>
</event>
<event>
 6    0  0.1539652E-007  0.4558283E+03  0.7546771E-02  0.1025998E+00
         21   -1    0    0  502  501  0.00000000000E+00  0.00000000000E+00  0.90230637715E+03  0.90230637715E+03  0.00000000000E+00 0. -1.
         21   -1    0    0  501  502 -0.00000000000E+00 -0.00000000000E+00 -0.57568990933E+02  0.57568990933E+02  0.00000000000E+00 0. -1.
      99926    2    1    2    0    0  0.00000000000E+00  0.00000000000E+00  0.84473738621E+03  0.95987536808E+03  0.45582833455E+03 0.  0.
         25    1    3    3    0    0 -0.51909041696E+02  0.45881096519E+02  0.39900836808E+03  0.42385706261E+03  0.12509000000E+03 0.  0.
         25    1    3    3    0    0  0.36851465906E+02  0.47691804091E+02  0.23985795471E+03  0.27714957199E+03  0.12509000000E+03 0.  0.
         25    1    3    3    0    0  0.15057575791E+02 -0.93572900610E+02  0.20587106342E+03  0.25886873347E+03  0.12509000000E+03 0.  0.
<mgrwt>
<rscale>  2 0.45582833E+03</rscale>
<asrwt>0</asrwt>
<pdfrwt beam="1">  1       21 0.13269211E+00 0.45582833E+03</pdfrwt>
<pdfrwt beam="2">  1       21 0.84660287E-02 0.45582833E+03</pdfrwt>
<totfact> 0.40480702E+04</totfact>
</mgrwt>
</event>
<event>
 6    0  0.1539652E-007  0.4454868E+03  0.7546771E-02  0.1029077E+00
         21   -1    0    0  502  501  0.00000000000E+00  0.00000000000E+00  0.24695196992E+03  0.24695196992E+03  0.00000000000E+00 0. -1.
         21   -1    0    0  501  502 -0.00000000000E+00 -0.00000000000E+00 -0.20090801278E+03  0.20090801278E+03  0.00000000000E+00 0. -1.
      99926    2    1    2    0    0 -0.14210854715E-13 -0.17763568394E-14  0.46043957134E+02  0.44785998270E+03  0.44548683271E+03 0.  0.
         25    1    3    3    0    0 -0.96897905697E+02  0.60253203576E+01  0.43270652032E+01  0.15840372536E+03  0.12509000000E+03 0.  0.
         25    1    3    3    0    0  0.57939692171E+01 -0.27230362082E+02  0.14712926395E+01  0.12815902426E+03  0.12509000000E+03 0.  0.
         25    1    3    3    0    0  0.91103936480E+02  0.21205041724E+02  0.40245599291E+02  0.16129723308E+03  0.12509000000E+03 0.  0.
<mgrwt>
<rscale>  2 0.44548683E+03</rscale>
<asrwt>0</asrwt>
<pdfrwt beam="1">  1       21 0.36316466E-01 0.44548683E+03</pdfrwt>
<pdfrwt beam="2">  1       21 0.29545296E-01 0.44548683E+03</pdfrwt>
<totfact> 0.74573535E+04</totfact>
</mgrwt>
</event>
<event>
 6    0  0.1539652E-007  0.4603233E+03  0.7546771E-02  0.1024688E+00
         21   -1    0    0  502  501  0.00000000000E+00  0.00000000000E+00  0.12924141774E+03  0.12924141774E+03  0.00000000000E+00 0.  1.
         21   -1    0    0  501  502 -0.00000000000E+00 -0.00000000000E+00 -0.40988701260E+03  0.40988701260E+03  0.00000000000E+00 0.  1.
      99926    2    1    2    0    0 -0.71054273576E-14  0.71054273576E-14 -0.28064559486E+03  0.53912843034E+03  0.46032327172E+03 0.  0.
         25    1    3    3    0    0  0.85661845535E+01  0.10038962425E+03 -0.13606887159E+03  0.21050819958E+03  0.12509000000E+03 0.  0.
         25    1    3    3    0    0 -0.49123589207E+02 -0.39717930863E+02 -0.28463458276E+02  0.14299761399E+03  0.12509000000E+03 0.  0.
         25    1    3    3    0    0  0.40557404653E+02 -0.60671693388E+02 -0.11611326499E+03  0.18562261677E+03  0.12509000000E+03 0.  0.
<mgrwt>
<rscale>  2 0.46032327E+03</rscale>
<asrwt>0</asrwt>
<pdfrwt beam="1">  1       21 0.19006091E-01 0.46032327E+03</pdfrwt>
<pdfrwt beam="2">  1       21 0.60277501E-01 0.46032327E+03</pdfrwt>
<totfact> 0.60020444E+04</totfact>
</mgrwt>
</event>
<event>
 6    0  0.1539652E-007  0.4549077E+03  0.7546771E-02  0.1026269E+00
         21   -1    0    0  502  501  0.00000000000E+00  0.00000000000E+00  0.61840115314E+02  0.61840115314E+02  0.00000000000E+00 0.  1.
         21   -1    0    0  501  502 -0.00000000000E+00 -0.00000000000E+00 -0.83659682252E+03  0.83659682252E+03  0.00000000000E+00 0.  1.
      99926    2    1    2    0    0 -0.17763568394E-14  0.10658141036E-13 -0.77475670721E+03  0.89843693783E+03  0.45490765646E+03 0.  0.
         25    1    3    3    0    0  0.11254789781E+02 -0.27236268629E+02 -0.22144483116E+03  0.25603477492E+03  0.12509000000E+03 0.  0.
         25    1    3    3    0    0 -0.29206126938E+02 -0.68035224456E+02 -0.14872064100E+03  0.20795943541E+03  0.12509000000E+03 0.  0.
         25    1    3    3    0    0  0.17951337157E+02  0.95271493085E+02 -0.40459123505E+03  0.43444272750E+03  0.12509000000E+03 0.  0.
<mgrwt>
<rscale>  2 0.45490766E+03</rscale>
<asrwt>0</asrwt>
<pdfrwt beam="1">  1       21 0.90941352E-02 0.45490766E+03</pdfrwt>
<pdfrwt beam="2">  1       21 0.12302894E+00 0.45490766E+03</pdfrwt>
<totfact> 0.43332658E+04</totfact>
</mgrwt>
</event>
<event>
 6    0  0.1539652E-007  0.4536281E+03  0.7546771E-02  0.1026646E+00
         21   -1    0    0  502  501  0.00000000000E+00  0.00000000000E+00  0.22327407126E+03  0.22327407126E+03  0.00000000000E+00 0.  1.
         21   -1    0    0  501  502 -0.00000000000E+00 -0.00000000000E+00 -0.23041012040E+03  0.23041012040E+03  0.00000000000E+00 0.  1.
      99926    2    1    2    0    0  0.00000000000E+00  0.00000000000E+00 -0.71360491461E+01  0.45368419166E+03  0.45362806633E+03 0.  0.
         25    1    3    3    0    0 -0.39684682402E+02 -0.22842645587E+02  0.10141463159E+02  0.13359273128E+03  0.12509000000E+03 0.  0.
         25    1    3    3    0    0 -0.34898909612E+02  0.16011217865E+02 -0.88358966192E+02  0.15788954366E+03  0.12509000000E+03 0.  0.
         25    1    3    3    0    0  0.74583592014E+02  0.68314277215E+01  0.71081453887E+02  0.16220191672E+03  0.12509000000E+03 0.  0.
<mgrwt>
<rscale>  2 0.45362807E+03</rscale>
<asrwt>0</asrwt>
<pdfrwt beam="1">  1       21 0.32834422E-01 0.45362807E+03</pdfrwt>
<pdfrwt beam="2">  1       21 0.33883841E-01 0.45362807E+03</pdfrwt>
<totfact> 0.69398871E+04</totfact>
</mgrwt>
</event>
<event>
 6    0  0.1539652E-007  0.4543913E+03  0.7546771E-02  0.1026421E+00
         21   -1    0    0  502  501  0.00000000000E+00  0.00000000000E+00  0.56380598795E+02  0.56380598795E+02  0.00000000000E+00 0. -1.
         21   -1    0    0  501  502 -0.00000000000E+00 -0.00000000000E+00 -0.91552527415E+03  0.91552527415E+03  0.00000000000E+00 0. -1.
      99926    2    1    2    0    0  0.35527136788E-14  0.17763568394E-14 -0.85914467535E+03  0.97190587294E+03  0.45439129907E+03 0.  0.
         25    1    3    3    0    0 -0.75688041509E+02  0.17039941008E+02 -0.18503376682E+03  0.23644035649E+03  0.12509000000E+03 0.  0.
         25    1    3    3    0    0  0.93719079280E+02 -0.23478879704E+02 -0.46407935596E+03  0.49025674941E+03  0.12509000000E+03 0.  0.
         25    1    3    3    0    0 -0.18031037770E+02  0.64389386953E+01 -0.21003155258E+03  0.24520876704E+03  0.12509000000E+03 0.  0.
<mgrwt>
<rscale>  2 0.45439130E+03</rscale>
<asrwt>0</asrwt>
<pdfrwt beam="1">  1       21 0.82912648E-02 0.45439130E+03</pdfrwt>
<pdfrwt beam="2">  1       21 0.13463607E+00 0.45439130E+03</pdfrwt>
<totfact> 0.40458460E+04</totfact>
</mgrwt>
</event>
<event>
 6    0  0.1539652E-007  0.4770678E+03  0.7546771E-02  0.1019944E+00
         21   -1    0    0  502  501  0.00000000000E+00  0.00000000000E+00  0.36565549236E+03  0.36565549236E+03  0.00000000000E+00 0. -1.
         21   -1    0    0  501  502 -0.00000000000E+00 -0.00000000000E+00 -0.15560665344E+03  0.15560665344E+03  0.00000000000E+00 0. -1.
      99926    2    1    2    0    0 -0.31086244690E-14 -0.71054273576E-14  0.21004883892E+03  0.52126214579E+03  0.47706782527E+03 0.  0.
         25    1    3    3    0    0  0.99497088198E+02  0.26925300003E+02  0.42631277033E+02  0.16759945173E+03  0.12509000000E+03 0.  0.
         25    1    3    3    0    0 -0.34481639244E+01 -0.61749870252E+02  0.32654248112E+02  0.14331344784E+03  0.12509000000E+03 0.  0.
         25    1    3    3    0    0 -0.96048924273E+02  0.34824570249E+02  0.13476331378E+03  0.21034924622E+03  0.12509000000E+03 0.  0.
<mgrwt>
<rscale>  2 0.47706783E+03</rscale>
<asrwt>0</asrwt>
<pdfrwt beam="1">  1       21 0.53772866E-01 0.47706783E+03</pdfrwt>
<pdfrwt beam="2">  1       21 0.22883331E-01 0.47706783E+03</pdfrwt>
<totfact> 0.53752085E+04</totfact>
</mgrwt>
</event>
<event>
 6    0  0.1539652E-007  0.4549850E+03  0.7546771E-02  0.1026246E+00
         21   -1    0    0  502  501  0.00000000000E+00  0.00000000000E+00  0.14935212796E+03  0.14935212796E+03  0.00000000000E+00 0. -1.
         21   -1    0    0  501  502 -0.00000000000E+00 -0.00000000000E+00 -0.34651554703E+03  0.34651554703E+03  0.00000000000E+00 0. -1.
      99926    2    1    2    0    0  0.00000000000E+00 -0.71054273576E-14 -0.19716341907E+03  0.49586767499E+03  0.45498498577E+03 0.  0.
         25    1    3    3    0    0 -0.39876098634E+02  0.57569269910E+02 -0.78292133478E+02  0.16334469794E+03  0.12509000000E+03 0.  0.
         25    1    3    3    0    0  0.10898493679E+02 -0.95464096956E+02 -0.12072767010E+03  0.19863244800E+03  0.12509000000E+03 0.  0.
         25    1    3    3    0    0  0.28977604955E+02  0.37894827046E+02  0.18563845037E+01  0.13389052905E+03  0.12509000000E+03 0.  0.
<mgrwt>
<rscale>  2 0.45498499E+03</rscale>
<asrwt>0</asrwt>
<pdfrwt beam="1">  1       21 0.21963549E-01 0.45498499E+03</pdfrwt>
<pdfrwt beam="2">  1       21 0.50958168E-01 0.45498499E+03</pdfrwt>
<totfact> 0.65569766E+04</totfact>
</mgrwt>
</event>
<event>
 6    0  0.1539652E-007  0.4787641E+03  0.7546771E-02  0.1019475E+00
         21   -1    0    0  502  501  0.00000000000E+00  0.00000000000E+00  0.25322077253E+03  0.25322077253E+03  0.00000000000E+00 0.  1.
         21   -1    0    0  501  502 -0.00000000000E+00 -0.00000000000E+00 -0.22629966245E+03  0.22629966245E+03  0.00000000000E+00 0.  1.
      99926    2    1    2    0    0  0.00000000000E+00 -0.71054273576E-14  0.26921110079E+02  0.47952043499E+03  0.47876413964E+03 0.  0.
         25    1    3    3    0    0 -0.10302291575E+03 -0.46979996526E+02 -0.42727267358E+02  0.17405162659E+03  0.12509000000E+03 0.  0.
         25    1    3    3    0    0  0.54564662603E+02  0.73795399083E+02  0.78203042732E+01  0.15534390426E+03  0.12509000000E+03 0.  0.
         25    1    3    3    0    0  0.48458253146E+02 -0.26815402557E+02  0.61828073163E+02  0.15012490414E+03  0.12509000000E+03 0.  0.
<mgrwt>
<rscale>  2 0.47876414E+03</rscale>
<asrwt>0</asrwt>
<pdfrwt beam="1">  1       21 0.37238349E-01 0.47876414E+03</pdfrwt>
<pdfrwt beam="2">  1       21 0.33279362E-01 0.47876414E+03</pdfrwt>
<totfact> 0.55493160E+04</totfact>
</mgrwt>
</event>
<event>
 6    0  0.1539652E-007  0.4561588E+03  0.7546771E-02  0.1025901E+00
         21   -1    0    0  502  501  0.00000000000E+00  0.00000000000E+00  0.58620430698E+03  0.58620430698E+03  0.00000000000E+00 0. -1.
         21   -1    0    0  501  502 -0.00000000000E+00 -0.00000000000E+00 -0.88740767215E+02  0.88740767215E+02  0.00000000000E+00 0. -1.
      99926    2    1    2    0    0  0.00000000000E+00  0.88817841970E-15  0.49746353976E+03  0.67494507419E+03  0.45615883175E+03 0.  0.
         25    1    3    3    0    0 -0.47328586874E+01  0.79166349078E+02  0.13769716541E+03  0.20223186751E+03  0.12509000000E+03 0.  0.
         25    1    3    3    0    0 -0.64332764900E+02 -0.68365291004E+01  0.21384289773E+03  0.25605026026E+03  0.12509000000E+03 0.  0.
         25    1    3    3    0    0  0.69065623588E+02 -0.72329819977E+02  0.14592347663E+03  0.21666294642E+03  0.12509000000E+03 0.  0.
<mgrwt>
<rscale>  2 0.45615883E+03</rscale>
<asrwt>0</asrwt>
<pdfrwt beam="1">  1       21 0.86206514E-01 0.45615883E+03</pdfrwt>
<pdfrwt beam="2">  1       21 0.13050113E-01 0.45615883E+03</pdfrwt>
<totfact> 0.53791898E+04</totfact>
</mgrwt>
</event>
<event>
 6    0  0.1539652E-007  0.4547106E+03  0.7546771E-02  0.1026327E+00
         21   -1    0    0  502  501  0.00000000000E+00  0.00000000000E+00  0.44528622918E+03  0.44528622918E+03  0.00000000000E+00 0. -1.
         21   -1    0    0  501  502 -0.00000000000E+00 -0.00000000000E+00 -0.11608361587E+03  0.11608361587E+03  0.00000000000E+00 0. -1.
      99926    2    1    2    0    0  0.00000000000E+00 -0.14210854715E-13  0.32920261331E+03  0.56136984505E+03  0.45471061382E+03 0.  0.
         25    1    3    3    0    0 -0.60789963201E+02 -0.92356463391E+02  0.18144143942E+03  0.24656366317E+03  0.12509000000E+03 0.  0.
         25    1    3    3    0    0  0.70661103905E+01  0.36856798271E+02  0.61538859169E+02  0.14437067840E+03  0.12509000000E+03 0.  0.
         25    1    3    3    0    0  0.53723852810E+02  0.55499665120E+02  0.86222314720E+02  0.17043550348E+03  0.12509000000E+03 0.  0.
<mgrwt>
<rscale>  2 0.45471061E+03</rscale>
<asrwt>0</asrwt>
<pdfrwt beam="1">  1       21 0.65483268E-01 0.45471061E+03</pdfrwt>
<pdfrwt beam="2">  1       21 0.17071120E-01 0.45471061E+03</pdfrwt>
<totfact> 0.61261481E+04</totfact>
</mgrwt>
</event>
<event>
 6    0  0.1539652E-007  0.4457577E+03  0.7546771E-02  0.1028995E+00
         21   -1    0    0  502  501  0.00000000000E+00  0.00000000000E+00  0.43713460406E+03  0.43713460406E+03  0.00000000000E+00 0.  1.
         21   -1    0    0  501  502 -0.00000000000E+00 -0.00000000000E+00 -0.11363772890E+03  0.11363772890E+03  0.00000000000E+00 0.  1.
      99926    2    1    2    0    0  0.00000000000E+00  0.00000000000E+00  0.32349687516E+03  0.55077233297E+03  0.44575770831E+03 0.  0.
         25    1    3    3    0    0  0.33779706488E+02  0.28190793451E+02  0.36512460788E+02  0.13753711244E+03  0.12509000000E+03 0.  0.
         25    1    3    3    0    0  0.53163871729E+02  0.86382880459E+01  0.98368721202E+02  0.16800276988E+03  0.12509000000E+03 0.  0.
         25    1    3    3    0    0 -0.86943578217E+02 -0.36829081496E+02  0.18861569317E+03  0.24523245064E+03  0.12509000000E+03 0.  0.
<mgrwt>
<rscale>  2 0.44575771E+03</rscale>
<asrwt>0</asrwt>
<pdfrwt beam="1">  1       21 0.64284500E-01 0.44575771E+03</pdfrwt>
<pdfrwt beam="2">  1       21 0.16711431E-01 0.44575771E+03</pdfrwt>
<totfact> 0.66549871E+04</totfact>
</mgrwt>
</event>
<event>
 6    0  0.1539652E-007  0.4884221E+03  0.7546771E-02  0.1016846E+00
         21   -1    0    0  502  501  0.00000000000E+00  0.00000000000E+00  0.23352072248E+03  0.23352072248E+03  0.00000000000E+00 0.  1.
         21   -1    0    0  501  502 -0.00000000000E+00 -0.00000000000E+00 -0.25539075861E+03  0.25539075861E+03  0.00000000000E+00 0.  1.
      99926    2    1    2    0    0  0.00000000000E+00 -0.28421709430E-13 -0.21870036138E+02  0.48891148109E+03  0.48842208986E+03 0.  0.
         25    1    3    3    0    0 -0.44176270270E+02  0.12972032153E+03  0.65381047993E+01  0.18565871805E+03  0.12509000000E+03 0.  0.
         25    1    3    3    0    0  0.19523072363E+02 -0.10731173596E+03 -0.46956670796E+02  0.17248013237E+03  0.12509000000E+03 0.  0.
         25    1    3    3    0    0  0.24653197907E+02 -0.22408585568E+02  0.18548529859E+02  0.13077263068E+03  0.12509000000E+03 0.  0.
<mgrwt>
<rscale>  2 0.48842209E+03</rscale>
<asrwt>0</asrwt>
<pdfrwt beam="1">  1       21 0.34341283E-01 0.48842209E+03</pdfrwt>
<pdfrwt beam="2">  1       21 0.37557464E-01 0.48842209E+03</pdfrwt>
<totfact> 0.51085848E+04</totfact>
</mgrwt>
</event>
<event>
 6    0  0.1539652E-007  0.4537040E+03  0.7546771E-02  0.1026623E+00
         21   -1    0    0  502  501  0.00000000000E+00  0.00000000000E+00  0.11762060403E+03  0.11762060403E+03  0.00000000000E+00 0.  1.
         21   -1    0    0  501  502 -0.00000000000E+00 -0.00000000000E+00 -0.43752401670E+03  0.43752401670E+03  0.00000000000E+00 0.  1.
      99926    2    1    2    0    0  0.00000000000E+00 -0.17763568394E-14 -0.31990341267E+03  0.55514462073E+03  0.45370404063E+03 0.  0.
         25    1    3    3    0    0  0.16870467358E+02  0.11587845752E+02 -0.67600019134E+02  0.14365292035E+03  0.12509000000E+03 0.  0.
         25    1    3    3    0    0  0.35526203137E+02  0.37146271794E+02 -0.18019494946E+02  0.13643374552E+03  0.12509000000E+03 0.  0.
         25    1    3    3    0    0 -0.52396670495E+02 -0.48734117546E+02 -0.23428389859E+03  0.27505795486E+03  0.12509000000E+03 0.  0.
<mgrwt>
<rscale>  2 0.45370404E+03</rscale>
<asrwt>0</asrwt>
<pdfrwt beam="1">  1       21 0.17297148E-01 0.45370404E+03</pdfrwt>
<pdfrwt beam="2">  1       21 0.64341767E-01 0.45370404E+03</pdfrwt>
<totfact> 0.62162679E+04</totfact>
</mgrwt>
</event>
<event>
 6    0  0.1539652E-007  0.4741415E+03  0.7546771E-02  0.1020758E+00
         21   -1    0    0  502  501  0.00000000000E+00  0.00000000000E+00  0.87715435679E+03  0.87715435679E+03  0.00000000000E+00 0.  1.
         21   -1    0    0  501  502 -0.00000000000E+00 -0.00000000000E+00 -0.64073708028E+02  0.64073708028E+02  0.00000000000E+00 0.  1.
      99926    2    1    2    0    0 -0.71054273576E-14  0.00000000000E+00  0.81308064876E+03  0.94122806482E+03  0.47414146476E+03 0.  0.
         25    1    3    3    0    0 -0.55636197600E+02  0.63830956874E+01  0.17699434638E+03  0.22385405322E+03  0.12509000000E+03 0.  0.
         25    1    3    3    0    0  0.75208739698E+00  0.49779583643E+02  0.11926114458E+03  0.17985911512E+03  0.12509000000E+03 0.  0.
         25    1    3    3    0    0  0.54884110203E+02 -0.56162679331E+02  0.51682515780E+03  0.53751489648E+03  0.12509000000E+03 0.  0.
<mgrwt>
<rscale>  2 0.47414146E+03</rscale>
<asrwt>0</asrwt>
<pdfrwt beam="1">  1       21 0.12899328E+00 0.47414146E+03</pdfrwt>
<pdfrwt beam="2">  1       21 0.94226047E-02 0.47414146E+03</pdfrwt>
<totfact> 0.35824042E+04</totfact>
</mgrwt>
</event>
<event>
 6    0  0.1539652E-007  0.4543443E+03  0.7546771E-02  0.1026434E+00
         21   -1    0    0  502  501  0.00000000000E+00  0.00000000000E+00  0.42454459500E+03  0.42454459500E+03  0.00000000000E+00 0.  1.
         21   -1    0    0  501  502 -0.00000000000E+00 -0.00000000000E+00 -0.12155892449E+03  0.12155892449E+03  0.00000000000E+00 0.  1.
      99926    2    1    2    0    0  0.14432899320E-14  0.71054273576E-14  0.30298567051E+03  0.54610351948E+03  0.45434429396E+03 0.  0.
         25    1    3    3    0    0  0.14787176208E+02  0.96110363149E+02  0.13493239859E+03  0.20811084252E+03  0.12509000000E+03 0.  0.
         25    1    3    3    0    0 -0.61539049463E+00 -0.52147667905E+02  0.17136266527E+02  0.13660496954E+03  0.12509000000E+03 0.  0.
         25    1    3    3    0    0 -0.14171785714E+02 -0.43962695243E+02  0.15091700539E+03  0.20138770742E+03  0.12509000000E+03 0.  0.
<mgrwt>
<rscale>  2 0.45434429E+03</rscale>
<asrwt>0</asrwt>
<pdfrwt beam="1">  1       21 0.62433028E-01 0.45434429E+03</pdfrwt>
<pdfrwt beam="2">  1       21 0.17876313E-01 0.45434429E+03</pdfrwt>
<totfact> 0.62448107E+04</totfact>
</mgrwt>
</event>
<event>
 6    0  0.1539652E-007  0.4468515E+03  0.7546771E-02  0.1028665E+00
         21   -1    0    0  502  501  0.00000000000E+00  0.00000000000E+00  0.67463500300E+02  0.67463500300E+02  0.00000000000E+00 0. -1.
         21   -1    0    0  501  502 -0.00000000000E+00 -0.00000000000E+00 -0.73994182228E+03  0.73994182228E+03  0.00000000000E+00 0. -1.
      99926    2    1    2    0    0 -0.14210854715E-13  0.71054273576E-14 -0.67247832198E+03  0.80740532258E+03  0.44685149815E+03 0.  0.
         25    1    3    3    0    0  0.15736155566E+02 -0.18374511713E+02 -0.27362518689E+03  0.30183356387E+03  0.12509000000E+03 0.  0.
         25    1    3    3    0    0 -0.79619208021E+02  0.46091055727E+02 -0.27707099031E+03  0.31761524755E+03  0.12509000000E+03 0.  0.
         25    1    3    3    0    0  0.63883052455E+02 -0.27716544014E+02 -0.12178214477E+03  0.18795651116E+03  0.12509000000E+03 0.  0.
<mgrwt>
<rscale>  2 0.44685150E+03</rscale>
<asrwt>0</asrwt>
<pdfrwt beam="1">  1       21 0.99211024E-02 0.44685150E+03</pdfrwt>
<pdfrwt beam="2">  1       21 0.10881498E+00 0.44685150E+03</pdfrwt>
<totfact> 0.50565381E+04</totfact>
</mgrwt>
</event>
<event>
 6    0  0.1539652E-007  0.4257420E+03  0.7546771E-02  0.1035214E+00
         21   -1    0    0  502  501  0.00000000000E+00  0.00000000000E+00  0.43087452557E+03  0.43087452557E+03  0.00000000000E+00 0. -1.
         21   -1    0    0  501  502 -0.00000000000E+00 -0.00000000000E+00 -0.10516767765E+03  0.10516767765E+03  0.00000000000E+00 0. -1.
      99926    2    1    2    0    0  0.00000000000E+00  0.00000000000E+00  0.32570684792E+03  0.53604220323E+03  0.42574204967E+03 0.  0.
         25    1    3    3    0    0  0.36901458656E+02  0.17216716612E+02  0.18111114127E+03  0.22384567580E+03  0.12509000000E+03 0.  0.
         25    1    3    3    0    0 -0.48820160936E+01 -0.51556427379E+02  0.36191556434E+02  0.14014005902E+03  0.12509000000E+03 0.  0.
         25    1    3    3    0    0 -0.32019442563E+02  0.34339710766E+02  0.10840415022E+03  0.17205646841E+03  0.12509000000E+03 0.  0.
<mgrwt>
<rscale>  2 0.42574205E+03</rscale>
<asrwt>0</asrwt>
<pdfrwt beam="1">  1       21 0.63363900E-01 0.42574205E+03</pdfrwt>
<pdfrwt beam="2">  1       21 0.15465835E-01 0.42574205E+03</pdfrwt>
<totfact> 0.79715412E+04</totfact>
</mgrwt>
</event>
<event>
 6    0  0.1539652E-007  0.4509587E+03  0.7546771E-02  0.1027437E+00
         21   -1    0    0  502  501  0.00000000000E+00  0.00000000000E+00  0.29265021383E+02  0.29265021383E+02  0.00000000000E+00 0.  1.
         21   -1    0    0  501  502 -0.00000000000E+00 -0.00000000000E+00 -0.17372595049E+04  0.17372595049E+04  0.00000000000E+00 0.  1.
      99926    2    1    2    0    0  0.00000000000E+00  0.00000000000E+00 -0.17079944835E+04  0.17665245262E+04  0.45095869681E+03 0.  0.
         25    1    3    3    0    0 -0.27585559786E+01 -0.55574564269E+02 -0.95836647522E+03  0.96809604418E+03  0.12509000000E+03 0.  0.
         25    1    3    3    0    0 -0.94970199898E+01  0.40910377342E+02 -0.24609436948E+03  0.27923788989E+03  0.12509000000E+03 0.  0.
         25    1    3    3    0    0  0.12255575968E+02  0.14664186927E+02 -0.50353363877E+03  0.51919059217E+03  0.12509000000E+03 0.  0.
<mgrwt>
<rscale>  2 0.45095870E+03</rscale>
<asrwt>0</asrwt>
<pdfrwt beam="1">  1       21 0.43036799E-02 0.45095870E+03</pdfrwt>
<pdfrwt beam="2">  1       21 0.25547932E+00 0.45095870E+03</pdfrwt>
<totfact> 0.18484823E+04</totfact>
</mgrwt>
</event>
<event>
 6    0  0.1539652E-007  0.4557447E+03  0.7546771E-02  0.1026023E+00
         21   -1    0    0  502  501  0.00000000000E+00  0.00000000000E+00  0.14620518427E+03  0.14620518427E+03  0.00000000000E+00 0. -1.
         21   -1    0    0  501  502 -0.00000000000E+00 -0.00000000000E+00 -0.35515702899E+03  0.35515702899E+03  0.00000000000E+00 0. -1.
      99926    2    1    2    0    0  0.00000000000E+00 -0.17763568394E-14 -0.20895184472E+03  0.50136221326E+03  0.45574466039E+03 0.  0.
         25    1    3    3    0    0 -0.82463395532E+02 -0.66668804332E+02 -0.40676938925E+02  0.16895875986E+03  0.12509000000E+03 0.  0.
         25    1    3    3    0    0  0.22019474525E+00  0.52596286824E+02 -0.90579312744E+02  0.16315188589E+03  0.12509000000E+03 0.  0.
         25    1    3    3    0    0  0.82243200787E+02  0.14072517508E+02 -0.77695593049E+02  0.16925156751E+03  0.12509000000E+03 0.  0.
<mgrwt>
<rscale>  2 0.45574466E+03</rscale>
<asrwt>0</asrwt>
<pdfrwt beam="1">  1       21 0.21500762E-01 0.45574466E+03</pdfrwt>
<pdfrwt beam="2">  1       21 0.52228975E-01 0.45574466E+03</pdfrwt>
<totfact> 0.64791235E+04</totfact>
</mgrwt>
</event>
<event>
 6    0  0.1539652E-007  0.4574425E+03  0.7546771E-02  0.1025526E+00
         21   -1    0    0  502  501  0.00000000000E+00  0.00000000000E+00  0.88411144934E+02  0.88411144934E+02  0.00000000000E+00 0. -1.
         21   -1    0    0  501  502 -0.00000000000E+00 -0.00000000000E+00 -0.59170599114E+03  0.59170599114E+03  0.00000000000E+00 0. -1.
      99926    2    1    2    0    0  0.71054273576E-14  0.00000000000E+00 -0.50329484620E+03  0.68011713607E+03  0.45744247350E+03 0.  0.
         25    1    3    3    0    0  0.60647796368E+02 -0.50687787652E+02 -0.14397393386E+03  0.20645437450E+03  0.12509000000E+03 0.  0.
         25    1    3    3    0    0  0.41656108133E+02  0.45413340498E+02 -0.11530759839E+03  0.18094461359E+03  0.12509000000E+03 0.  0.
         25    1    3    3    0    0 -0.10230390450E+03  0.52744471539E+01 -0.24401331395E+03  0.29271814798E+03  0.12509000000E+03 0.  0.
<mgrwt>
<rscale>  2 0.45744247E+03</rscale>
<asrwt>0</asrwt>
<pdfrwt beam="1">  1       21 0.13001639E-01 0.45744247E+03</pdfrwt>
<pdfrwt beam="2">  1       21 0.87015586E-01 0.45744247E+03</pdfrwt>
<totfact> 0.52969671E+04</totfact>
</mgrwt>
</event>
<event>
 6    0  0.1539652E-007  0.4522797E+03  0.7546771E-02  0.1027044E+00
         21   -1    0    0  502  501  0.00000000000E+00  0.00000000000E+00  0.72913193642E+03  0.72913193642E+03  0.00000000000E+00 0.  1.
         21   -1    0    0  501  502 -0.00000000000E+00 -0.00000000000E+00 -0.70137137706E+02  0.70137137706E+02  0.00000000000E+00 0.  1.
      99926    2    1    2    0    0  0.00000000000E+00  0.00000000000E+00  0.65899479871E+03  0.79926907412E+03  0.45227967909E+03 0.  0.
         25    1    3    3    0    0 -0.31114511146E+02  0.58045248312E+02  0.25458286085E+03  0.29119976785E+03  0.12509000000E+03 0.  0.
         25    1    3    3    0    0  0.57512108847E+02 -0.92579026422E+02  0.16222248846E+03  0.23203914036E+03  0.12509000000E+03 0.  0.
         25    1    3    3    0    0 -0.26397597700E+02  0.34533778109E+02  0.24218944939E+03  0.27603016591E+03  0.12509000000E+03 0.  0.
<mgrwt>
<rscale>  2 0.45227968E+03</rscale>
<asrwt>0</asrwt>
<pdfrwt beam="1">  1       21 0.10722528E+00 0.45227968E+03</pdfrwt>
<pdfrwt beam="2">  1       21 0.10314285E-01 0.45227968E+03</pdfrwt>
<totfact> 0.48834419E+04</totfact>
</mgrwt>
</event>
<event>
 6    0  0.1539652E-007  0.4560038E+03  0.7546771E-02  0.1025947E+00
         21   -1    0    0  502  501  0.00000000000E+00  0.00000000000E+00  0.14637844409E+04  0.14637844409E+04  0.00000000000E+00 0. -1.
         21   -1    0    0  501  502 -0.00000000000E+00 -0.00000000000E+00 -0.35514019120E+02  0.35514019120E+02  0.00000000000E+00 0. -1.
      99926    2    1    2    0    0  0.00000000000E+00  0.00000000000E+00  0.14282704218E+04  0.14992984600E+04  0.45600380973E+03 0.  0.
         25    1    3    3    0    0 -0.83679775308E+02  0.27189555526E+02  0.40562963838E+03  0.43350258172E+03  0.12509000000E+03 0.  0.
         25    1    3    3    0    0  0.38159902509E+02 -0.45816889006E+02  0.29604462067E+03  0.32687197954E+03  0.12509000000E+03 0.  0.
         25    1    3    3    0    0  0.45519872799E+02  0.18627333480E+02  0.72659616275E+03  0.73892389878E+03  0.12509000000E+03 0.  0.
<mgrwt>
<rscale>  2 0.45600381E+03</rscale>
<asrwt>0</asrwt>
<pdfrwt beam="1">  1       21 0.21526238E+00 0.45600381E+03</pdfrwt>
<pdfrwt beam="2">  1       21 0.52226508E-02 0.45600381E+03</pdfrwt>
<totfact> 0.23611689E+04</totfact>
</mgrwt>
</event>
<event>
 6    0  0.1539652E-007  0.4542739E+03  0.7546771E-02  0.1026455E+00
         21   -1    0    0  502  501  0.00000000000E+00  0.00000000000E+00  0.48914887343E+03  0.48914887343E+03  0.00000000000E+00 0. -1.
         21   -1    0    0  501  502 -0.00000000000E+00 -0.00000000000E+00 -0.10547134670E+03  0.10547134670E+03  0.00000000000E+00 0. -1.
      99926    2    1    2    0    0  0.00000000000E+00 -0.35527136788E-14  0.38367752674E+03  0.59462022013E+03  0.45427388398E+03 0.  0.
         25    1    3    3    0    0 -0.15328126482E+02  0.17499443574E+02  0.14411627506E+03  0.19224513212E+03  0.12509000000E+03 0.  0.
         25    1    3    3    0    0  0.69381514769E+01  0.46531100213E+02  0.11204828409E+02  0.13411315190E+03  0.12509000000E+03 0.  0.
         25    1    3    3    0    0  0.83899750053E+01 -0.64030543786E+02  0.22835642326E+03  0.26826193611E+03  0.12509000000E+03 0.  0.
<mgrwt>
<rscale>  2 0.45427388E+03</rscale>
<asrwt>0</asrwt>
<pdfrwt beam="1">  1       21 0.71933657E-01 0.45427388E+03</pdfrwt>
<pdfrwt beam="2">  1       21 0.15510492E-01 0.45427388E+03</pdfrwt>
<totfact> 0.59350460E+04</totfact>
</mgrwt>
</event>
<event>
 6    0  0.1539652E-007  0.4469369E+03  0.7546771E-02  0.1028639E+00
         21   -1    0    0  502  501  0.00000000000E+00  0.00000000000E+00  0.24988605413E+03  0.24988605413E+03  0.00000000000E+00 0.  1.
         21   -1    0    0  501  502 -0.00000000000E+00 -0.00000000000E+00 -0.19984371555E+03  0.19984371555E+03  0.00000000000E+00 0.  1.
      99926    2    1    2    0    0  0.17763568394E-14 -0.53290705182E-14  0.50042338585E+02  0.44972976968E+03  0.44693694196E+03 0.  0.
         25    1    3    3    0    0  0.55910388608E+02 -0.69127494903E+02 -0.28912166555E+02  0.15616658920E+03  0.12509000000E+03 0.  0.
         25    1    3    3    0    0 -0.66501357040E+02  0.62944005196E+02  0.61024693466E+02  0.16660101918E+03  0.12509000000E+03 0.  0.
         25    1    3    3    0    0  0.10590968432E+02  0.61834897075E+01  0.17929811674E+02  0.12696216131E+03  0.12509000000E+03 0.  0.
<mgrwt>
<rscale>  2 0.44693694E+03</rscale>
<asrwt>0</asrwt>
<pdfrwt beam="1">  1       21 0.36747949E-01 0.44693694E+03</pdfrwt>
<pdfrwt beam="2">  1       21 0.29388782E-01 0.44693694E+03</pdfrwt>
<totfact> 0.73552578E+04</totfact>
</mgrwt>
</event>
<event>
 6    0  0.1539652E-007  0.4641366E+03  0.7546771E-02  0.1023588E+00
         21   -1    0    0  502  501  0.00000000000E+00  0.00000000000E+00  0.16269890692E+03  0.16269890692E+03  0.00000000000E+00 0.  1.
         21   -1    0    0  501  502 -0.00000000000E+00 -0.00000000000E+00 -0.33101447174E+03  0.33101447174E+03  0.00000000000E+00 0.  1.
      99926    2    1    2    0    0  0.00000000000E+00  0.00000000000E+00 -0.16831556481E+03  0.49371337866E+03  0.46413658648E+03 0.  0.
         25    1    3    3    0    0  0.78901796922E+02 -0.90669770681E+02 -0.10119216064E+03  0.20083292147E+03  0.12509000000E+03 0.  0.
         25    1    3    3    0    0 -0.45213635815E+02  0.77607376559E+02 -0.47846090942E+02  0.16125735418E+03  0.12509000000E+03 0.  0.
         25    1    3    3    0    0 -0.33688161107E+02  0.13062394122E+02 -0.19277313232E+02  0.13162310300E+03  0.12509000000E+03 0.  0.
<mgrwt>
<rscale>  2 0.46413659E+03</rscale>
<asrwt>0</asrwt>
<pdfrwt beam="1">  1       21 0.23926310E-01 0.46413659E+03</pdfrwt>
<pdfrwt beam="2">  1       21 0.48678598E-01 0.46413659E+03</pdfrwt>
<totfact> 0.61156978E+04</totfact>
</mgrwt>
</event>
<event>
 6    0  0.1539652E-007  0.4595745E+03  0.7546771E-02  0.1024905E+00
         21   -1    0    0  502  501  0.00000000000E+00  0.00000000000E+00  0.37475005238E+03  0.37475005238E+03  0.00000000000E+00 0.  1.
         21   -1    0    0  501  502 -0.00000000000E+00 -0.00000000000E+00 -0.14089973715E+03  0.14089973715E+03  0.00000000000E+00 0.  1.
      99926    2    1    2    0    0  0.35527136788E-14 -0.17763568394E-14  0.23385031523E+03  0.51564978954E+03  0.45957451574E+03 0.  0.
         25    1    3    3    0    0  0.45827321950E+02  0.33543829024E+02  0.64359037986E+02  0.15170670972E+03  0.12509000000E+03 0.  0.
         25    1    3    3    0    0 -0.77688007715E+02 -0.20648698798E+02 -0.22549946003E+01  0.14870907304E+03  0.12509000000E+03 0.  0.
         25    1    3    3    0    0  0.31860685764E+02 -0.12895130226E+02  0.17174627184E+03  0.21523400678E+03  0.12509000000E+03 0.  0.
<mgrwt>
<rscale>  2 0.45957452E+03</rscale>
<asrwt>0</asrwt>
<pdfrwt beam="1">  1       21 0.55110302E-01 0.45957452E+03</pdfrwt>
<pdfrwt beam="2">  1       21 0.20720550E-01 0.45957452E+03</pdfrwt>
<totfact> 0.61906613E+04</totfact>
</mgrwt>
</event>
<event>
 6    0  0.1539652E-007  0.4524767E+03  0.7546771E-02  0.1026986E+00
         21   -1    0    0  502  501  0.00000000000E+00  0.00000000000E+00  0.76383782543E+03  0.76383782543E+03  0.00000000000E+00 0.  1.
         21   -1    0    0  501  502 -0.00000000000E+00 -0.00000000000E+00 -0.67008707306E+02  0.67008707306E+02  0.00000000000E+00 0.  1.
      99926    2    1    2    0    0 -0.71054273576E-14  0.00000000000E+00  0.69682911812E+03  0.83084653273E+03  0.45247667464E+03 0.  0.
         25    1    3    3    0    0 -0.83784167467E+02 -0.22440322676E+02  0.39631876121E+03  0.42454613811E+03  0.12509000000E+03 0.  0.
         25    1    3    3    0    0  0.57007757012E+02  0.16404189647E+02  0.20125241822E+03  0.24427244163E+03  0.12509000000E+03 0.  0.
         25    1    3    3    0    0  0.26776410454E+02  0.60361330283E+01  0.99257938691E+02  0.16202795300E+03  0.12509000000E+03 0.  0.
<mgrwt>
<rscale>  2 0.45247667E+03</rscale>
<asrwt>0</asrwt>
<pdfrwt beam="1">  1       21 0.11232909E+00 0.45247667E+03</pdfrwt>
<pdfrwt beam="2">  1       21 0.98542221E-02 0.45247667E+03</pdfrwt>
<totfact> 0.47236988E+04</totfact>
</mgrwt>
</event>
<event>
 6    0  0.1539652E-007  0.4431949E+03  0.7546771E-02  0.1029771E+00
         21   -1    0    0  502  501  0.00000000000E+00  0.00000000000E+00  0.14770812178E+03  0.14770812178E+03  0.00000000000E+00 0. -1.
         21   -1    0    0  501  502 -0.00000000000E+00 -0.00000000000E+00 -0.33244914535E+03  0.33244914535E+03  0.00000000000E+00 0. -1.
      99926    2    1    2    0    0  0.00000000000E+00  0.00000000000E+00 -0.18474102358E+03  0.48015726713E+03  0.44319494061E+03 0.  0.
         25    1    3    3    0    0 -0.56381686508E+02 -0.22740068318E+02 -0.11578831056E+03  0.18097084362E+03  0.12509000000E+03 0.  0.
         25    1    3    3    0    0  0.21515128336E+02 -0.52821620556E+02 -0.10173055912E+02  0.13785508156E+03  0.12509000000E+03 0.  0.
         25    1    3    3    0    0  0.34866558172E+02  0.75561688874E+02 -0.58779657110E+02  0.16133134195E+03  0.12509000000E+03 0.  0.
<mgrwt>
<rscale>  2 0.44319494E+03</rscale>
<asrwt>0</asrwt>
<pdfrwt beam="1">  1       21 0.21721783E-01 0.44319494E+03</pdfrwt>
<pdfrwt beam="2">  1       21 0.48889579E-01 0.44319494E+03</pdfrwt>
<totfact> 0.73322852E+04</totfact>
</mgrwt>
</event>
<event>
 6    0  0.1539652E-007  0.4413376E+03  0.7546771E-02  0.1030337E+00
         21   -1    0    0  502  501  0.00000000000E+00  0.00000000000E+00  0.22339313479E+03  0.22339313479E+03  0.00000000000E+00 0. -1.
         21   -1    0    0  501  502 -0.00000000000E+00 -0.00000000000E+00 -0.21797765910E+03  0.21797765910E+03  0.00000000000E+00 0. -1.
      99926    2    1    2    0    0 -0.17763568394E-14 -0.10658141036E-13  0.54154756986E+01  0.44137079389E+03  0.44133756958E+03 0.  0.
         25    1    3    3    0    0  0.28464326220E+02 -0.64363805080E+02  0.66288398447E+02  0.15809673349E+03  0.12509000000E+03 0.  0.
         25    1    3    3    0    0 -0.43391633749E+02  0.66203216279E+02 -0.13401193620E+02  0.14863646866E+03  0.12509000000E+03 0.  0.
         25    1    3    3    0    0  0.14927307529E+02 -0.18394111995E+01 -0.47471729128E+02  0.13463759174E+03  0.12509000000E+03 0.  0.
<mgrwt>
<rscale>  2 0.44133757E+03</rscale>
<asrwt>0</asrwt>
<pdfrwt beam="1">  1       21 0.32851932E-01 0.44133757E+03</pdfrwt>
<pdfrwt beam="2">  1       21 0.32055538E-01 0.44133757E+03</pdfrwt>
<totfact> 0.77685511E+04</totfact>
</mgrwt>
</event>
<event>
 6    0  0.1539652E-007  0.4711112E+03  0.7546771E-02  0.1021607E+00
         21   -1    0    0  502  501  0.00000000000E+00  0.00000000000E+00  0.20669471512E+03  0.20669471512E+03  0.00000000000E+00 0.  1.
         21   -1    0    0  501  502 -0.00000000000E+00 -0.00000000000E+00 -0.26844630689E+03  0.26844630689E+03  0.00000000000E+00 0.  1.
      99926    2    1    2    0    0  0.00000000000E+00 -0.35527136788E-14 -0.61751591774E+02  0.47514102202E+03  0.47111116705E+03 0.  0.
         25    1    3    3    0    0 -0.68485802902E+02  0.74922746639E+02  0.13216396528E+01  0.16109927993E+03  0.12509000000E+03 0.  0.
         25    1    3    3    0    0 -0.10705357854E+02 -0.92516314209E+02 -0.52592237046E+02  0.16458227298E+03  0.12509000000E+03 0.  0.
         25    1    3    3    0    0  0.79191160755E+02  0.17593567570E+02 -0.10480994381E+02  0.14945946910E+03  0.12509000000E+03 0.  0.
<mgrwt>
<rscale>  2 0.47111117E+03</rscale>
<asrwt>0</asrwt>
<pdfrwt beam="1">  1       21 0.30396282E-01 0.47111117E+03</pdfrwt>
<pdfrwt beam="2">  1       21 0.39477398E-01 0.47111117E+03</pdfrwt>
<totfact> 0.59121531E+04</totfact>
</mgrwt>
</event>
<event>
 6    0  0.1539652E-007  0.4503658E+03  0.7546771E-02  0.1027613E+00
         21   -1    0    0  502  501  0.00000000000E+00  0.00000000000E+00  0.87192000718E+03  0.87192000718E+03  0.00000000000E+00 0. -1.
         21   -1    0    0  501  502 -0.00000000000E+00 -0.00000000000E+00 -0.58155943924E+02  0.58155943924E+02  0.00000000000E+00 0. -1.
      99926    2    1    2    0    0  0.00000000000E+00  0.00000000000E+00  0.81376406325E+03  0.93007595110E+03  0.45036576710E+03 0.  0.
         25    1    3    3    0    0  0.84973744326E+02  0.13105168434E+02  0.40336664608E+03  0.43098079068E+03  0.12509000000E+03 0.  0.
         25    1    3    3    0    0 -0.16886209663E+02  0.38361584537E+02  0.17410649254E+03  0.21844297674E+03  0.12509000000E+03 0.  0.
         25    1    3    3    0    0 -0.68087534663E+02 -0.51466752971E+02  0.23629092463E+03  0.28065218367E+03  0.12509000000E+03 0.  0.
<mgrwt>
<rscale>  2 0.45036577E+03</rscale>
<asrwt>0</asrwt>
<pdfrwt beam="1">  1       21 0.12822352E+00 0.45036577E+03</pdfrwt>
<pdfrwt beam="2">  1       21 0.85523452E-02 0.45036577E+03</pdfrwt>
<totfact> 0.43514276E+04</totfact>
</mgrwt>
</event>
<event>
 6    0  0.1539652E-007  0.4827512E+03  0.7546771E-02  0.1018382E+00
         21   -1    0    0  502  501  0.00000000000E+00  0.00000000000E+00  0.39281517952E+03  0.39281517952E+03  0.00000000000E+00 0.  1.
         21   -1    0    0  501  502 -0.00000000000E+00 -0.00000000000E+00 -0.14831959439E+03  0.14831959439E+03  0.00000000000E+00 0.  1.
      99926    2    1    2    0    0  0.00000000000E+00  0.00000000000E+00  0.24449558513E+03  0.54113477390E+03  0.48275123240E+03 0.  0.
         25    1    3    3    0    0  0.24197465959E+02 -0.13457591684E+03  0.74235708187E+02  0.19963627732E+03  0.12509000000E+03 0.  0.
         25    1    3    3    0    0 -0.43658471511E+02  0.73959587409E+02  0.60632800206E+02  0.16340112382E+03  0.12509000000E+03 0.  0.
         25    1    3    3    0    0  0.19461005553E+02  0.60616329434E+02  0.10962707674E+03  0.17809737276E+03  0.12509000000E+03 0.  0.
<mgrwt>
<rscale>  2 0.48275123E+03</rscale>
<asrwt>0</asrwt>
<pdfrwt beam="1">  1       21 0.57766938E-01 0.48275123E+03</pdfrwt>
<pdfrwt beam="2">  1       21 0.21811705E-01 0.48275123E+03</pdfrwt>
<totfact> 0.50420125E+04</totfact>
</mgrwt>
</event>
<event>
 6    0  0.1539652E-007  0.4252117E+03  0.7546771E-02  0.1035383E+00
         21   -1    0    0  502  501  0.00000000000E+00  0.00000000000E+00  0.30013145918E+02  0.30013145918E+02  0.00000000000E+00 0.  1.
         21   -1    0    0  501  502 -0.00000000000E+00 -0.00000000000E+00 -0.15060486146E+04  0.15060486146E+04  0.00000000000E+00 0.  1.
      99926    2    1    2    0    0 -0.17763568394E-14  0.00000000000E+00 -0.14760354687E+04  0.15360617605E+04  0.42521174410E+03 0.  0.
         25    1    3    3    0    0  0.26287804175E+02  0.45536496328E+02 -0.64880830007E+03  0.66284563775E+03  0.12509000000E+03 0.  0.
         25    1    3    3    0    0  0.29865348824E+01 -0.48640361765E+02 -0.57100050742E+03  0.58656959669E+03  0.12509000000E+03 0.  0.
         25    1    3    3    0    0 -0.29274339057E+02  0.31038654368E+01 -0.25622666118E+03  0.28664652607E+03  0.12509000000E+03 0.  0.
<mgrwt>
<rscale>  2 0.42521174E+03</rscale>
<asrwt>0</asrwt>
<pdfrwt beam="1">  1       21 0.44136977E-02 0.42521174E+03</pdfrwt>
<pdfrwt beam="2">  1       21 0.22147775E+00 0.42521174E+03</pdfrwt>
<totfact> 0.29076880E+04</totfact>
</mgrwt>
</event>
<event>
 6    0  0.1539652E-007  0.4551286E+03  0.7546771E-02  0.1026204E+00
         21   -1    0    0  502  501  0.00000000000E+00  0.00000000000E+00  0.78880705446E+03  0.78880705446E+03  0.00000000000E+00 0. -1.
         21   -1    0    0  501  502 -0.00000000000E+00 -0.00000000000E+00 -0.65650416954E+02  0.65650416954E+02  0.00000000000E+00 0. -1.
      99926    2    1    2    0    0  0.00000000000E+00  0.71054273576E-14  0.72315663751E+03  0.85445747142E+03  0.45512860610E+03 0.  0.
         25    1    3    3    0    0 -0.29014349311E+02  0.62918781487E+02  0.30587061593E+03  0.33764618659E+03  0.12509000000E+03 0.  0.
         25    1    3    3    0    0  0.65687293195E+02  0.37392555438E+01  0.29081459937E+03  0.32334106115E+03  0.12509000000E+03 0.  0.
         25    1    3    3    0    0 -0.36672943884E+02 -0.66658037031E+02  0.12647142221E+03  0.19347022368E+03  0.12509000000E+03 0.  0.
<mgrwt>
<rscale>  2 0.45512861E+03</rscale>
<asrwt>0</asrwt>
<pdfrwt beam="1">  1       21 0.11600103E+00 0.45512861E+03</pdfrwt>
<pdfrwt beam="2">  1       21 0.96544735E-02 0.45512861E+03</pdfrwt>
<totfact> 0.45195018E+04</totfact>
</mgrwt>
</event>
<event>
 6    0  0.1539652E-007  0.4645064E+03  0.7546771E-02  0.1023482E+00
         21   -1    0    0  502  501  0.00000000000E+00  0.00000000000E+00  0.17848437152E+04  0.17848437152E+04  0.00000000000E+00 0.  1.
         21   -1    0    0  501  502 -0.00000000000E+00 -0.00000000000E+00 -0.30222003486E+02  0.30222003486E+02  0.00000000000E+00 0.  1.
      99926    2    1    2    0    0  0.00000000000E+00  0.00000000000E+00  0.17546217117E+04  0.18150657187E+04  0.46450641754E+03 0.  0.
         25    1    3    3    0    0  0.84053302152E+02 -0.47358719864E+02  0.38840670838E+03  0.41930309463E+03  0.12509000000E+03 0.  0.
         25    1    3    3    0    0 -0.40174644301E+02  0.14050641819E+02  0.43670105531E+03  0.45625293686E+03  0.12509000000E+03 0.  0.
         25    1    3    3    0    0 -0.43878657851E+02  0.33308078045E+02  0.92951394805E+03  0.93950968723E+03  0.12509000000E+03 0.  0.
<mgrwt>
<rscale>  2 0.46450642E+03</rscale>
<asrwt>0</asrwt>
<pdfrwt beam="1">  1       21 0.26247695E+00 0.46450642E+03</pdfrwt>
<pdfrwt beam="2">  1       21 0.44444135E-02 0.46450642E+03</pdfrwt>
<totfact> 0.15775025E+04</totfact>
</mgrwt>
</event>
<event>
 6    0  0.1539652E-007  0.4549293E+03  0.7546771E-02  0.1026262E+00
         21   -1    0    0  502  501  0.00000000000E+00  0.00000000000E+00  0.56595734731E+02  0.56595734731E+02  0.00000000000E+00 0.  1.
         21   -1    0    0  501  502 -0.00000000000E+00 -0.00000000000E+00 -0.91420616813E+03  0.91420616813E+03  0.00000000000E+00 0.  1.
      99926    2    1    2    0    0  0.00000000000E+00 -0.71054273576E-14 -0.85761043340E+03  0.97080190286E+03  0.45492931222E+03 0.  0.
         25    1    3    3    0    0  0.12208302140E+02  0.85426653484E+02 -0.21785713668E+03  0.26562378634E+03  0.12509000000E+03 0.  0.
         25    1    3    3    0    0  0.35277969175E+02  0.37274863112E+01 -0.35654014591E+03  0.37950864682E+03  0.12509000000E+03 0.  0.
         25    1    3    3    0    0 -0.47486271315E+02 -0.89154139795E+02 -0.28321315081E+03  0.32566946970E+03  0.12509000000E+03 0.  0.
<mgrwt>
<rscale>  2 0.45492931E+03</rscale>
<asrwt>0</asrwt>
<pdfrwt beam="1">  1       21 0.83229027E-02 0.45492931E+03</pdfrwt>
<pdfrwt beam="2">  1       21 0.13444207E+00 0.45492931E+03</pdfrwt>
<totfact> 0.40332053E+04</totfact>
</mgrwt>
</event>
<event>
 6    0  0.1539652E-007  0.4579036E+03  0.7546771E-02  0.1025391E+00
         21   -1    0    0  502  501  0.00000000000E+00  0.00000000000E+00  0.32804482887E+03  0.32804482887E+03  0.00000000000E+00 0.  1.
         21   -1    0    0  501  502 -0.00000000000E+00 -0.00000000000E+00 -0.15979198291E+03  0.15979198291E+03  0.00000000000E+00 0.  1.
      99926    2    1    2    0    0  0.00000000000E+00  0.00000000000E+00  0.16825284596E+03  0.48783681178E+03  0.45790363042E+03 0.  0.
         25    1    3    3    0    0  0.65342926013E+02 -0.59613865854E+02  0.15874883287E+02  0.15402282623E+03  0.12509000000E+03 0.  0.
         25    1    3    3    0    0  0.10302328705E+02  0.54517870949E+02  0.12430503933E+03  0.18487181271E+03  0.12509000000E+03 0.  0.
         25    1    3    3    0    0 -0.75645254718E+02  0.50959949046E+01  0.28072923343E+02  0.14894217284E+03  0.12509000000E+03 0.  0.
<mgrwt>
<rscale>  2 0.45790363E+03</rscale>
<asrwt>0</asrwt>
<pdfrwt beam="1">  1       21 0.48241887E-01 0.45790363E+03</pdfrwt>
<pdfrwt beam="2">  1       21 0.23498821E-01 0.45790363E+03</pdfrwt>
<totfact> 0.64631241E+04</totfact>
</mgrwt>
</event>
<event>
 6    0  0.1539652E-007  0.4572072E+03  0.7546771E-02  0.1025594E+00
         21   -1    0    0  502  501  0.00000000000E+00  0.00000000000E+00  0.18358198689E+03  0.18358198689E+03  0.00000000000E+00 0. -1.
         21   -1    0    0  501  502 -0.00000000000E+00 -0.00000000000E+00 -0.28466630931E+03  0.28466630931E+03  0.00000000000E+00 0. -1.
      99926    2    1    2    0    0  0.71054273576E-14 -0.35527136788E-14 -0.10108432242E+03  0.46824829619E+03  0.45720720319E+03 0.  0.
         25    1    3    3    0    0  0.59723166481E+02 -0.82336015913E+02 -0.53534173053E+02  0.16988081680E+03  0.12509000000E+03 0.  0.
         25    1    3    3    0    0 -0.51738791834E+02  0.91433074238E+01  0.21944128386E+02  0.13743927940E+03  0.12509000000E+03 0.  0.
         25    1    3    3    0    0 -0.79843746472E+01  0.73192708489E+02 -0.69494277752E+02  0.16092820000E+03  0.12509000000E+03 0.  0.
<mgrwt>
<rscale>  2 0.45720720E+03</rscale>
<asrwt>0</asrwt>
<pdfrwt beam="1">  1       21 0.26997351E-01 0.45720720E+03</pdfrwt>
<pdfrwt beam="2">  1       21 0.41862692E-01 0.45720720E+03</pdfrwt>
<totfact> 0.66396521E+04</totfact>
</mgrwt>
</event>
<event>
 6    0  0.1539652E-007  0.4600024E+03  0.7546771E-02  0.1024781E+00
         21   -1    0    0  502  501  0.00000000000E+00  0.00000000000E+00  0.16180911791E+03  0.16180911791E+03  0.00000000000E+00 0.  1.
         21   -1    0    0  501  502 -0.00000000000E+00 -0.00000000000E+00 -0.32693181006E+03  0.32693181006E+03  0.00000000000E+00 0.  1.
      99926    2    1    2    0    0  0.00000000000E+00 -0.35527136788E-14 -0.16512269215E+03  0.48874092796E+03  0.46000238174E+03 0.  0.
         25    1    3    3    0    0 -0.48920732841E+01 -0.15707581445E+02  0.22299003900E+02  0.12812265284E+03  0.12509000000E+03 0.  0.
         25    1    3    3    0    0  0.84162176016E+02  0.37379917678E+02 -0.69958550270E+02  0.17035914115E+03  0.12509000000E+03 0.  0.
         25    1    3    3    0    0 -0.79270102732E+02 -0.21672336233E+02 -0.11746314578E+03  0.19025913397E+03  0.12509000000E+03 0.  0.
<mgrwt>
<rscale>  2 0.46000238E+03</rscale>
<asrwt>0</asrwt>
<pdfrwt beam="1">  1       21 0.23795459E-01 0.46000238E+03</pdfrwt>
<pdfrwt beam="2">  1       21 0.48078206E-01 0.46000238E+03</pdfrwt>
<totfact> 0.63509379E+04</totfact>
</mgrwt>
</event>
<event>
 6    0  0.1539652E-007  0.4553769E+03  0.7546771E-02  0.1026131E+00
         21   -1    0    0  502  501  0.00000000000E+00  0.00000000000E+00  0.38937372858E+03  0.38937372858E+03  0.00000000000E+00 0. -1.
         21   -1    0    0  501  502 -0.00000000000E+00 -0.00000000000E+00 -0.13314211040E+03  0.13314211040E+03  0.00000000000E+00 0. -1.
      99926    2    1    2    0    0  0.71054273576E-14  0.71054273576E-14  0.25623161818E+03  0.52251583897E+03  0.45537694257E+03 0.  0.
         25    1    3    3    0    0  0.40623280414E+02 -0.49478285287E+02  0.53337480538E+02  0.15030218414E+03  0.12509000000E+03 0.  0.
         25    1    3    3    0    0 -0.98243975947E+02 -0.14794503143E+02  0.95464640879E+02  0.18609610929E+03  0.12509000000E+03 0.  0.
         25    1    3    3    0    0  0.57620695534E+02  0.64272788430E+02  0.10742949677E+03  0.18611754555E+03  0.12509000000E+03 0.  0.
<mgrwt>
<rscale>  2 0.45537694E+03</rscale>
<asrwt>0</asrwt>
<pdfrwt beam="1">  1       21 0.57260842E-01 0.45537694E+03</pdfrwt>
<pdfrwt beam="2">  1       21 0.19579722E-01 0.45537694E+03</pdfrwt>
<totfact> 0.63525888E+04</totfact>
</mgrwt>
</event>
<event>
 6    0  0.1539652E-007  0.4485856E+03  0.7546771E-02  0.1028145E+00
         21   -1    0    0  502  501  0.00000000000E+00  0.00000000000E+00  0.52515622434E+03  0.52515622434E+03  0.00000000000E+00 0.  1.
         21   -1    0    0  501  502 -0.00000000000E+00 -0.00000000000E+00 -0.95794859733E+02  0.95794859733E+02  0.00000000000E+00 0.  1.
      99926    2    1    2    0    0  0.71054273576E-14 -0.71054273576E-14  0.42936136461E+03  0.62095108407E+03  0.44858562995E+03 0.  0.
         25    1    3    3    0    0 -0.27942397453E+01 -0.12079780601E+02  0.12847882126E+03  0.17974438653E+03  0.12509000000E+03 0.  0.
         25    1    3    3    0    0 -0.34603815315E+02  0.44655944088E+02  0.27038894997E+03  0.30323137987E+03  0.12509000000E+03 0.  0.
         25    1    3    3    0    0  0.37398055060E+02 -0.32576163487E+02  0.30493593383E+02  0.13797531767E+03  0.12509000000E+03 0.  0.
<mgrwt>
<rscale>  2 0.44858563E+03</rscale>
<asrwt>0</asrwt>
<pdfrwt beam="1">  1       21 0.77228855E-01 0.44858563E+03</pdfrwt>
<pdfrwt beam="2">  1       21 0.14087480E-01 0.44858563E+03</pdfrwt>
<totfact> 0.60408773E+04</totfact>
</mgrwt>
</event>
<event>
 6    0  0.1539652E-007  0.4608833E+03  0.7546771E-02  0.1024525E+00
         21   -1    0    0  502  501  0.00000000000E+00  0.00000000000E+00  0.10170477249E+04  0.10170477249E+04  0.00000000000E+00 0. -1.
         21   -1    0    0  501  502 -0.00000000000E+00 -0.00000000000E+00 -0.52213236494E+02  0.52213236494E+02  0.00000000000E+00 0. -1.
      99926    2    1    2    0    0  0.35527136788E-14 -0.10658141036E-13  0.96483448837E+03  0.10692609614E+04  0.46088329709E+03 0.  0.
         25    1    3    3    0    0 -0.35810620388E+02 -0.73846594267E+02  0.50276566155E+03  0.52455365651E+03  0.12509000000E+03 0.  0.
         25    1    3    3    0    0  0.82594479968E+01  0.94141237576E+02  0.28430523667E+03  0.32466562305E+03  0.12509000000E+03 0.  0.
         25    1    3    3    0    0  0.27551172391E+02 -0.20294643310E+02  0.17776359014E+03  0.22004168180E+03  0.12509000000E+03 0.  0.
<mgrwt>
<rscale>  2 0.46088330E+03</rscale>
<asrwt>0</asrwt>
<pdfrwt beam="1">  1       21 0.14956583E+00 0.46088330E+03</pdfrwt>
<pdfrwt beam="2">  1       21 0.76784178E-02 0.46088330E+03</pdfrwt>
<totfact> 0.34946275E+04</totfact>
</mgrwt>
</event>
<event>
 6    0  0.1539652E-007  0.4515523E+03  0.7546771E-02  0.1027260E+00
         21   -1    0    0  502  501  0.00000000000E+00  0.00000000000E+00  0.95020157621E+02  0.95020157621E+02  0.00000000000E+00 0.  1.
         21   -1    0    0  501  502 -0.00000000000E+00 -0.00000000000E+00 -0.53646379218E+03  0.53646379218E+03  0.00000000000E+00 0.  1.
      99926    2    1    2    0    0  0.00000000000E+00 -0.35527136788E-14 -0.44144363455E+03  0.63148394980E+03  0.45155231852E+03 0.  0.
         25    1    3    3    0    0 -0.14017321462E+02  0.93680117148E+02 -0.14427192256E+03  0.21315333774E+03  0.12509000000E+03 0.  0.
         25    1    3    3    0    0 -0.18207143395E+02 -0.29705824273E+02 -0.65403872179E+02  0.14539295259E+03  0.12509000000E+03 0.  0.
         25    1    3    3    0    0  0.32224464857E+02 -0.63974292875E+02 -0.23176783982E+03  0.27293765947E+03  0.12509000000E+03 0.  0.
<mgrwt>
<rscale>  2 0.45155232E+03</rscale>
<asrwt>0</asrwt>
<pdfrwt beam="1">  1       21 0.13973553E-01 0.45155232E+03</pdfrwt>
<pdfrwt beam="2">  1       21 0.78891733E-01 0.45155232E+03</pdfrwt>
<totfact> 0.58352904E+04</totfact>
</mgrwt>
</event>
<event>
 6    0  0.1539652E-007  0.4542370E+03  0.7546771E-02  0.1026466E+00
         21   -1    0    0  502  501  0.00000000000E+00  0.00000000000E+00  0.73631855557E+02  0.73631855557E+02  0.00000000000E+00 0.  1.
         21   -1    0    0  501  502 -0.00000000000E+00 -0.00000000000E+00 -0.70055016334E+03  0.70055016334E+03  0.00000000000E+00 0.  1.
      99926    2    1    2    0    0  0.17763568394E-14  0.00000000000E+00 -0.62691830779E+03  0.77418201890E+03  0.45423697972E+03 0.  0.
         25    1    3    3    0    0  0.95810083927E+00  0.41649890266E+02 -0.22900341979E+03  0.26424554053E+03  0.12509000000E+03 0.  0.
         25    1    3    3    0    0 -0.15368287959E+02  0.62460887563E+02 -0.26216864367E+03  0.29751882726E+03  0.12509000000E+03 0.  0.
         25    1    3    3    0    0  0.14410187119E+02 -0.10411077783E+03 -0.13574624433E+03  0.21241765111E+03  0.12509000000E+03 0.  0.
<mgrwt>
<rscale>  2 0.45423698E+03</rscale>
<asrwt>0</asrwt>
<pdfrwt beam="1">  1       21 0.10828214E-01 0.45423698E+03</pdfrwt>
<pdfrwt beam="2">  1       21 0.10302209E+00 0.45423698E+03</pdfrwt>
<totfact> 0.49333776E+04</totfact>
</mgrwt>
</event>
<event>
 6    0  0.1539652E-007  0.4628789E+03  0.7546771E-02  0.1023950E+00
         21   -1    0    0  502  501  0.00000000000E+00  0.00000000000E+00  0.65601688298E+03  0.65601688298E+03  0.00000000000E+00 0.  1.
         21   -1    0    0  501  502 -0.00000000000E+00 -0.00000000000E+00 -0.81650681458E+02  0.81650681458E+02  0.00000000000E+00 0.  1.
      99926    2    1    2    0    0  0.35527136788E-14  0.14210854715E-13  0.57436620152E+03  0.73766756444E+03  0.46287892820E+03 0.  0.
         25    1    3    3    0    0  0.18335689661E+02 -0.45305036738E+01  0.34636238861E+03  0.36874264105E+03  0.12509000000E+03 0.  0.
         25    1    3    3    0    0 -0.42590799544E+02 -0.62339719540E+02  0.11245671048E+03  0.18437526046E+03  0.12509000000E+03 0.  0.
         25    1    3    3    0    0  0.24255109883E+02  0.66870223214E+02  0.11554710242E+03  0.18454966293E+03  0.12509000000E+03 0.  0.
<mgrwt>
<rscale>  2 0.46287893E+03</rscale>
<asrwt>0</asrwt>
<pdfrwt beam="1">  1       21 0.96473068E-01 0.46287893E+03</pdfrwt>
<pdfrwt beam="2">  1       21 0.12007454E-01 0.46287893E+03</pdfrwt>
<totfact> 0.47870174E+04</totfact>
</mgrwt>
</event>
<event>
 6    0  0.1539652E-007  0.4491716E+03  0.7546771E-02  0.1027969E+00
         21   -1    0    0  502  501  0.00000000000E+00  0.00000000000E+00  0.30117697360E+03  0.30117697360E+03  0.00000000000E+00 0.  1.
         21   -1    0    0  501  502 -0.00000000000E+00 -0.00000000000E+00 -0.16747225067E+03  0.16747225067E+03  0.00000000000E+00 0.  1.
      99926    2    1    2    0    0  0.00000000000E+00  0.00000000000E+00  0.13370472292E+03  0.46864922427E+03  0.44917161807E+03 0.  0.
         25    1    3    3    0    0 -0.28364637572E+02  0.90756504027E+01  0.32037401763E+02  0.13251725664E+03  0.12509000000E+03 0.  0.
         25    1    3    3    0    0  0.58331307553E+02 -0.18971095933E+02  0.14399037670E+03  0.20035763176E+03  0.12509000000E+03 0.  0.
         25    1    3    3    0    0 -0.29966669981E+02  0.98954455302E+01 -0.42323055541E+02  0.13577433587E+03  0.12509000000E+03 0.  0.
<mgrwt>
<rscale>  2 0.44917162E+03</rscale>
<asrwt>0</asrwt>
<pdfrwt beam="1">  1       21 0.44290732E-01 0.44917162E+03</pdfrwt>
<pdfrwt beam="2">  1       21 0.24628272E-01 0.44917162E+03</pdfrwt>
<totfact> 0.70751943E+04</totfact>
</mgrwt>
</event>
<event>
 6    0  0.1539652E-007  0.4419519E+03  0.7546771E-02  0.1030150E+00
         21   -1    0    0  502  501  0.00000000000E+00  0.00000000000E+00  0.18434556524E+03  0.18434556524E+03  0.00000000000E+00 0.  1.
         21   -1    0    0  501  502 -0.00000000000E+00 -0.00000000000E+00 -0.26488501654E+03  0.26488501654E+03  0.00000000000E+00 0.  1.
      99926    2    1    2    0    0  0.71054273576E-14  0.00000000000E+00 -0.80539451301E+02  0.44923058178E+03  0.44195193448E+03 0.  0.
         25    1    3    3    0    0  0.50937302602E+02  0.68872683488E+02 -0.12332409926E+01  0.15161492113E+03  0.12509000000E+03 0.  0.
         25    1    3    3    0    0  0.28602161178E+02 -0.18859290383E+02 -0.46395448726E+02  0.13774542541E+03  0.12509000000E+03 0.  0.
         25    1    3    3    0    0 -0.79539463780E+02 -0.50013393105E+02 -0.32910761583E+02  0.15987023524E+03  0.12509000000E+03 0.  0.
<mgrwt>
<rscale>  2 0.44195193E+03</rscale>
<asrwt>0</asrwt>
<pdfrwt beam="1">  1       21 0.27109642E-01 0.44195193E+03</pdfrwt>
<pdfrwt beam="2">  1       21 0.38953679E-01 0.44195193E+03</pdfrwt>
<totfact> 0.76641367E+04</totfact>
</mgrwt>
</event>
<event>
 6    0  0.1539652E-007  0.4538551E+03  0.7546771E-02  0.1026579E+00
         21   -1    0    0  502  501  0.00000000000E+00  0.00000000000E+00  0.45960085035E+03  0.45960085035E+03  0.00000000000E+00 0. -1.
         21   -1    0    0  501  502 -0.00000000000E+00 -0.00000000000E+00 -0.11204531918E+03  0.11204531918E+03  0.00000000000E+00 0. -1.
      99926    2    1    2    0    0  0.00000000000E+00  0.00000000000E+00  0.34755553118E+03  0.57164616953E+03  0.45385514857E+03 0.  0.
         25    1    3    3    0    0  0.67245103857E+02 -0.49415831510E+02  0.12567278057E+03  0.19597189664E+03  0.12509000000E+03 0.  0.
         25    1    3    3    0    0 -0.29775229819E+02 -0.50421886717E+02  0.11366222327E+03  0.17887297188E+03  0.12509000000E+03 0.  0.
         25    1    3    3    0    0 -0.37469874038E+02  0.99837718226E+02  0.10822052734E+03  0.19680130101E+03  0.12509000000E+03 0.  0.
<mgrwt>
<rscale>  2 0.45385515E+03</rscale>
<asrwt>0</asrwt>
<pdfrwt beam="1">  1       21 0.67588359E-01 0.45385515E+03</pdfrwt>
<pdfrwt beam="2">  1       21 0.16477253E-01 0.45385515E+03</pdfrwt>
<totfact> 0.61008801E+04</totfact>
</mgrwt>
</event>
<event>
 6    0  0.1539652E-007  0.4513513E+03  0.7546771E-02  0.1027320E+00
         21   -1    0    0  502  501  0.00000000000E+00  0.00000000000E+00  0.22278321252E+03  0.22278321252E+03  0.00000000000E+00 0. -1.
         21   -1    0    0  501  502 -0.00000000000E+00 -0.00000000000E+00 -0.22860561506E+03  0.22860561506E+03  0.00000000000E+00 0. -1.
      99926    2    1    2    0    0  0.00000000000E+00  0.00000000000E+00 -0.58224025403E+01  0.45138882758E+03  0.45135127484E+03 0.  0.
         25    1    3    3    0    0  0.43476275226E+02  0.75727320035E+01  0.92279444573E+01  0.13296689752E+03  0.12509000000E+03 0.  0.
         25    1    3    3    0    0 -0.12873386999E+02  0.91213558347E+02 -0.15469745214E+02  0.15611681023E+03  0.12509000000E+03 0.  0.
         25    1    3    3    0    0 -0.30602888227E+02 -0.98786290350E+02  0.41939821678E+00  0.16230511983E+03  0.12509000000E+03 0.  0.
<mgrwt>
<rscale>  2 0.45135127E+03</rscale>
<asrwt>0</asrwt>
<pdfrwt beam="1">  1       21 0.32762237E-01 0.45135127E+03</pdfrwt>
<pdfrwt beam="2">  1       21 0.33618473E-01 0.45135127E+03</pdfrwt>
<totfact> 0.70851499E+04</totfact>
</mgrwt>
</event>
<event>
 6    0  0.1539652E-007  0.4570672E+03  0.7546771E-02  0.1025635E+00
         21   -1    0    0  502  501  0.00000000000E+00  0.00000000000E+00  0.12252575885E+04  0.12252575885E+04  0.00000000000E+00 0. -1.
         21   -1    0    0  501  502 -0.00000000000E+00 -0.00000000000E+00 -0.42625817731E+02  0.42625817731E+02  0.00000000000E+00 0. -1.
      99926    2    1    2    0    0  0.00000000000E+00  0.00000000000E+00  0.11826317708E+04  0.12678834062E+04  0.45706720136E+03 0.  0.
         25    1    3    3    0    0  0.63154111795E+02 -0.72423546076E+02  0.46235030029E+03  0.48851706229E+03  0.12509000000E+03 0.  0.
         25    1    3    3    0    0 -0.61744684272E+01  0.31612099870E+02  0.18791769619E+03  0.22803073819E+03  0.12509000000E+03 0.  0.
         25    1    3    3    0    0 -0.56979643368E+02  0.40811446206E+02  0.53236377428E+03  0.55133560575E+03  0.12509000000E+03 0.  0.
<mgrwt>
<rscale>  2 0.45706720E+03</rscale>
<asrwt>0</asrwt>
<pdfrwt beam="1">  1       21 0.18018492E+00 0.45706720E+03</pdfrwt>
<pdfrwt beam="2">  1       21 0.62685034E-02 0.45706720E+03</pdfrwt>
<totfact> 0.29583046E+04</totfact>
</mgrwt>
</event>
<event>
 6    0  0.1539652E-007  0.4611068E+03  0.7546771E-02  0.1024461E+00
         21   -1    0    0  502  501  0.00000000000E+00  0.00000000000E+00  0.18397538615E+03  0.18397538615E+03  0.00000000000E+00 0.  1.
         21   -1    0    0  501  502 -0.00000000000E+00 -0.00000000000E+00 -0.28892384594E+03  0.28892384594E+03  0.00000000000E+00 0.  1.
      99926    2    1    2    0    0  0.00000000000E+00  0.00000000000E+00 -0.10494845979E+03  0.47289923208E+03  0.46110682547E+03 0.  0.
         25    1    3    3    0    0  0.21687578253E+02  0.75913161291E+02 -0.54673656729E+02  0.15770185778E+03  0.12509000000E+03 0.  0.
         25    1    3    3    0    0 -0.74660486206E+02 -0.49450101151E+02 -0.80363854858E+02  0.17356658080E+03  0.12509000000E+03 0.  0.
         25    1    3    3    0    0  0.52972907953E+02 -0.26463060139E+02  0.30089051795E+02  0.14163079350E+03  0.12509000000E+03 0.  0.
<mgrwt>
<rscale>  2 0.46110683E+03</rscale>
<asrwt>0</asrwt>
<pdfrwt beam="1">  1       21 0.27055204E-01 0.46110683E+03</pdfrwt>
<pdfrwt beam="2">  1       21 0.42488801E-01 0.46110683E+03</pdfrwt>
<totfact> 0.64060882E+04</totfact>
</mgrwt>
</event>
<event>
 6    0  0.1539652E-007  0.4532333E+03  0.7546771E-02  0.1026762E+00
         21   -1    0    0  502  501  0.00000000000E+00  0.00000000000E+00  0.40112612525E+03  0.40112612525E+03  0.00000000000E+00 0.  1.
         21   -1    0    0  501  502 -0.00000000000E+00 -0.00000000000E+00 -0.12802734971E+03  0.12802734971E+03  0.00000000000E+00 0.  1.
      99926    2    1    2    0    0  0.00000000000E+00  0.35527136788E-14  0.27309877555E+03  0.52915347496E+03  0.45323333820E+03 0.  0.
         25    1    3    3    0    0  0.66921368604E+02 -0.20037485157E+02  0.15360018010E+03  0.21004878913E+03  0.12509000000E+03 0.  0.
         25    1    3    3    0    0 -0.99338265040E+02 -0.12429676730E+02  0.85464217237E+02  0.18158807310E+03  0.12509000000E+03 0.  0.
         25    1    3    3    0    0  0.32416896436E+02  0.32467161887E+02  0.34034378207E+02  0.13751661273E+03  0.12509000000E+03 0.  0.
<mgrwt>
<rscale>  2 0.45323334E+03</rscale>
<asrwt>0</asrwt>
<pdfrwt beam="1">  1       21 0.58989136E-01 0.45323334E+03</pdfrwt>
<pdfrwt beam="2">  1       21 0.18827552E-01 0.45323334E+03</pdfrwt>
<totfact> 0.64157535E+04</totfact>
</mgrwt>
</event>
<event>
 6    0  0.1539652E-007  0.4571215E+03  0.7546771E-02  0.1025619E+00
         21   -1    0    0  502  501  0.00000000000E+00  0.00000000000E+00  0.95102839555E+02  0.95102839555E+02  0.00000000000E+00 0.  1.
         21   -1    0    0  501  502 -0.00000000000E+00 -0.00000000000E+00 -0.54930019274E+03  0.54930019274E+03  0.00000000000E+00 0.  1.
      99926    2    1    2    0    0  0.35527136788E-14 -0.48849813084E-14 -0.45419735319E+03  0.64440303230E+03  0.45712146350E+03 0.  0.
         25    1    3    3    0    0  0.29542975913E+02 -0.76925469013E+02 -0.17056869472E+03  0.22700551299E+03  0.12509000000E+03 0.  0.
         25    1    3    3    0    0  0.21633500469E+01  0.74216303255E+02 -0.24094083543E+03  0.28144756888E+03  0.12509000000E+03 0.  0.
         25    1    3    3    0    0 -0.31706325960E+02  0.27091657579E+01 -0.42687823037E+02  0.13594995043E+03  0.12509000000E+03 0.  0.
<mgrwt>
<rscale>  2 0.45712146E+03</rscale>
<asrwt>0</asrwt>
<pdfrwt beam="1">  1       21 0.13985712E-01 0.45712146E+03</pdfrwt>
<pdfrwt beam="2">  1       21 0.80779441E-01 0.45712146E+03</pdfrwt>
<totfact> 0.55096980E+04</totfact>
</mgrwt>
</event>
<event>
 6    0  0.1539652E-007  0.4543593E+03  0.7546771E-02  0.1026430E+00
         21   -1    0    0  502  501  0.00000000000E+00  0.00000000000E+00  0.11752150723E+03  0.11752150723E+03  0.00000000000E+00 0.  1.
         21   -1    0    0  501  502 -0.00000000000E+00 -0.00000000000E+00 -0.43915862311E+03  0.43915862311E+03  0.00000000000E+00 0.  1.
      99926    2    1    2    0    0 -0.35527136788E-14  0.00000000000E+00 -0.32163711589E+03  0.55668013034E+03  0.45435925566E+03 0.  0.
         25    1    3    3    0    0 -0.36046723566E+02 -0.10227673043E+03 -0.87232341765E+02  0.18712799207E+03  0.12509000000E+03 0.  0.
         25    1    3    3    0    0  0.27617985310E+02  0.95598415855E+02 -0.13972534358E+03  0.21230282609E+03  0.12509000000E+03 0.  0.
         25    1    3    3    0    0  0.84287382568E+01  0.66783145706E+01 -0.94679430545E+02  0.15724931218E+03  0.12509000000E+03 0.  0.
<mgrwt>
<rscale>  2 0.45435926E+03</rscale>
<asrwt>0</asrwt>
<pdfrwt beam="1">  1       21 0.17282575E-01 0.45435926E+03</pdfrwt>
<pdfrwt beam="2">  1       21 0.64582149E-01 0.45435926E+03</pdfrwt>
<totfact> 0.61739572E+04</totfact>
</mgrwt>
</event>
<event>
 6    0  0.1539652E-007  0.4591225E+03  0.7546771E-02  0.1025036E+00
         21   -1    0    0  502  501  0.00000000000E+00  0.00000000000E+00  0.26816179861E+02  0.26816179861E+02  0.00000000000E+00 0. -1.
         21   -1    0    0  501  502 -0.00000000000E+00 -0.00000000000E+00 -0.19651707720E+04  0.19651707720E+04  0.00000000000E+00 0. -1.
      99926    2    1    2    0    0  0.00000000000E+00  0.00000000000E+00 -0.19383545922E+04  0.19919869519E+04  0.45912252343E+03 0.  0.
         25    1    3    3    0    0  0.88531305662E+02 -0.64423852336E+02 -0.67969200251E+03  0.69972634022E+03  0.12509000000E+03 0.  0.
         25    1    3    3    0    0 -0.26479127432E+02 -0.10524741113E+02 -0.43649823984E+03  0.45496168613E+03  0.12509000000E+03 0.  0.
         25    1    3    3    0    0 -0.62052178230E+02  0.74948593449E+02 -0.82216434981E+03  0.83729892552E+03  0.12509000000E+03 0.  0.
<mgrwt>
<rscale>  2 0.45912252E+03</rscale>
<asrwt>0</asrwt>
<pdfrwt beam="1">  1       21 0.39435556E-02 0.45912252E+03</pdfrwt>
<pdfrwt beam="2">  1       21 0.28899572E+00 0.45912252E+03</pdfrwt>
<totfact> 0.13406815E+04</totfact>
</mgrwt>
</event>
<event>
 6    0  0.1539652E-007  0.4441474E+03  0.7546771E-02  0.1029482E+00
         21   -1    0    0  502  501  0.00000000000E+00  0.00000000000E+00  0.58079262574E+02  0.58079262574E+02  0.00000000000E+00 0.  1.
         21   -1    0    0  501  502 -0.00000000000E+00 -0.00000000000E+00 -0.84912793778E+03  0.84912793778E+03  0.00000000000E+00 0.  1.
      99926    2    1    2    0    0  0.00000000000E+00  0.00000000000E+00 -0.79104867521E+03  0.90720720035E+03  0.44414738300E+03 0.  0.
         25    1    3    3    0    0 -0.80856192039E+01 -0.60320761118E+02 -0.33786483145E+03  0.36538216143E+03  0.12509000000E+03 0.  0.
         25    1    3    3    0    0  0.66410875990E+01  0.10245625714E+03 -0.20995822550E+03  0.26508744449E+03  0.12509000000E+03 0.  0.
         25    1    3    3    0    0  0.14445316049E+01 -0.42135496025E+02 -0.24322561826E+03  0.27673759443E+03  0.12509000000E+03 0.  0.
<mgrwt>
<rscale>  2 0.44414738E+03</rscale>
<asrwt>0</asrwt>
<pdfrwt beam="1">  1       21 0.85410688E-02 0.44414738E+03</pdfrwt>
<pdfrwt beam="2">  1       21 0.12487174E+00 0.44414738E+03</pdfrwt>
<totfact> 0.46770609E+04</totfact>
</mgrwt>
</event>
<event>
 6    0  0.1539652E-007  0.4523557E+03  0.7546771E-02  0.1027022E+00
         21   -1    0    0  502  501  0.00000000000E+00  0.00000000000E+00  0.65791076317E+03  0.65791076317E+03  0.00000000000E+00 0.  1.
         21   -1    0    0  501  502 -0.00000000000E+00 -0.00000000000E+00 -0.77755863328E+02  0.77755863328E+02  0.00000000000E+00 0.  1.
      99926    2    1    2    0    0  0.35527136788E-14  0.00000000000E+00  0.58015489984E+03  0.73566662650E+03  0.45235569802E+03 0.  0.
         25    1    3    3    0    0 -0.47214989917E+02 -0.78556229085E+02  0.30836584663E+03  0.34516277300E+03  0.12509000000E+03 0.  0.
         25    1    3    3    0    0  0.32519503860E+02 -0.28476063502E+01  0.10826528839E+03  0.16862534734E+03  0.12509000000E+03 0.  0.
         25    1    3    3    0    0  0.14695486057E+02  0.81403835435E+02  0.16352376482E+03  0.22187850616E+03  0.12509000000E+03 0.  0.
<mgrwt>
<rscale>  2 0.45235570E+03</rscale>
<asrwt>0</asrwt>
<pdfrwt beam="1">  1       21 0.96751580E-01 0.45235570E+03</pdfrwt>
<pdfrwt beam="2">  1       21 0.11434686E-01 0.45235570E+03</pdfrwt>
<totfact> 0.52083337E+04</totfact>
</mgrwt>
</event>
<event>
 6    0  0.1539652E-007  0.4506419E+03  0.7546771E-02  0.1027531E+00
         21   -1    0    0  502  501  0.00000000000E+00  0.00000000000E+00  0.89324387921E+02  0.89324387921E+02  0.00000000000E+00 0. -1.
         21   -1    0    0  501  502 -0.00000000000E+00 -0.00000000000E+00 -0.56837263907E+03  0.56837263907E+03  0.00000000000E+00 0. -1.
      99926    2    1    2    0    0  0.00000000000E+00  0.00000000000E+00 -0.47904825115E+03  0.65769702699E+03  0.45064193367E+03 0.  0.
         25    1    3    3    0    0 -0.16236457374E+02 -0.53284315853E+02 -0.20460381520E+03  0.24619721801E+03  0.12509000000E+03 0.  0.
         25    1    3    3    0    0 -0.16364262010E+02  0.10806098719E+03 -0.15420155518E+03  0.22665081898E+03  0.12509000000E+03 0.  0.
         25    1    3    3    0    0  0.32600719383E+02 -0.54776671338E+02 -0.12024288077E+03  0.18484899000E+03  0.12509000000E+03 0.  0.
<mgrwt>
<rscale>  2 0.45064193E+03</rscale>
<asrwt>0</asrwt>
<pdfrwt beam="1">  1       21 0.13135939E-01 0.45064193E+03</pdfrwt>
<pdfrwt beam="2">  1       21 0.83584211E-01 0.45064193E+03</pdfrwt>
<totfact> 0.57200677E+04</totfact>
</mgrwt>
</event>
<event>
 6    0  0.1539652E-007  0.4599010E+03  0.7546771E-02  0.1024810E+00
         21   -1    0    0  502  501  0.00000000000E+00  0.00000000000E+00  0.10792485351E+04  0.10792485351E+04  0.00000000000E+00 0.  1.
         21   -1    0    0  501  502 -0.00000000000E+00 -0.00000000000E+00 -0.48994499685E+02  0.48994499685E+02  0.00000000000E+00 0.  1.
      99926    2    1    2    0    0  0.10658141036E-13  0.00000000000E+00  0.10302540354E+04  0.11282430348E+04  0.45990104158E+03 0.  0.
         25    1    3    3    0    0 -0.13727253082E+02  0.30439728355E+02  0.41076888715E+03  0.43068968097E+03  0.12509000000E+03 0.  0.
         25    1    3    3    0    0  0.84423420803E+02  0.26185433109E+02  0.40703298619E+03  0.43489809247E+03  0.12509000000E+03 0.  0.
         25    1    3    3    0    0 -0.70696167721E+02 -0.56625161464E+02  0.21245216204E+03  0.26265526132E+03  0.12509000000E+03 0.  0.
<mgrwt>
<rscale>  2 0.45990104E+03</rscale>
<asrwt>0</asrwt>
<pdfrwt beam="1">  1       21 0.15871300E+00 0.45990104E+03</pdfrwt>
<pdfrwt beam="2">  1       21 0.72050742E-02 0.45990104E+03</pdfrwt>
<totfact> 0.33229322E+04</totfact>
</mgrwt>
</event>
<event>
 6    0  0.1539652E-007  0.4562475E+03  0.7546771E-02  0.1025875E+00
         21   -1    0    0  502  501  0.00000000000E+00  0.00000000000E+00  0.38402458816E+03  0.38402458816E+03  0.00000000000E+00 0.  1.
         21   -1    0    0  501  502 -0.00000000000E+00 -0.00000000000E+00 -0.13551330786E+03  0.13551330786E+03  0.00000000000E+00 0.  1.
      99926    2    1    2    0    0 -0.14210854715E-13  0.00000000000E+00  0.24851128030E+03  0.51953789602E+03  0.45624748653E+03 0.  0.
         25    1    3    3    0    0 -0.11284902611E+01 -0.43323222436E+01  0.71382113015E+02  0.14409356913E+03  0.12509000000E+03 0.  0.
         25    1    3    3    0    0  0.93716643696E+02 -0.30994465641E+02  0.38208875884E+02  0.16386241943E+03  0.12509000000E+03 0.  0.
         25    1    3    3    0    0 -0.92588153435E+02  0.35326787884E+02  0.13892029140E+03  0.21158190746E+03  0.12509000000E+03 0.  0.
<mgrwt>
<rscale>  2 0.45624749E+03</rscale>
<asrwt>0</asrwt>
<pdfrwt beam="1">  1       21 0.56474204E-01 0.45624749E+03</pdfrwt>
<pdfrwt beam="2">  1       21 0.19928428E-01 0.45624749E+03</pdfrwt>
<totfact> 0.63290018E+04</totfact>
</mgrwt>
</event>
<event>
 6    0  0.1539652E-007  0.4528943E+03  0.7546771E-02  0.1026862E+00
         21   -1    0    0  502  501  0.00000000000E+00  0.00000000000E+00  0.40628139644E+02  0.40628139644E+02  0.00000000000E+00 0. -1.
         21   -1    0    0  501  502 -0.00000000000E+00 -0.00000000000E+00 -0.12621380285E+04  0.12621380285E+04  0.00000000000E+00 0. -1.
      99926    2    1    2    0    0  0.00000000000E+00  0.71054273576E-14 -0.12215098888E+04  0.13027661681E+04  0.45289433677E+03 0.  0.
         25    1    3    3    0    0  0.33242573677E+02 -0.32633850685E+02 -0.42926790255E+03  0.44954251987E+03  0.12509000000E+03 0.  0.
         25    1    3    3    0    0  0.40460535104E+02  0.46379917457E+02 -0.20340320940E+03  0.24659384692E+03  0.12509000000E+03 0.  0.
         25    1    3    3    0    0 -0.73703108781E+02 -0.13746066773E+02 -0.58883877688E+03  0.60662980132E+03  0.12509000000E+03 0.  0.
<mgrwt>
<rscale>  2 0.45289434E+03</rscale>
<asrwt>0</asrwt>
<pdfrwt beam="1">  1       21 0.59747274E-02 0.45289434E+03</pdfrwt>
<pdfrwt beam="2">  1       21 0.18560850E+00 0.45289434E+03</pdfrwt>
<totfact> 0.29514829E+04</totfact>
</mgrwt>
</event>
<event>
 6    0  0.1539652E-007  0.4527662E+03  0.7546771E-02  0.1026900E+00
         21   -1    0    0  502  501  0.00000000000E+00  0.00000000000E+00  0.17784782717E+04  0.17784782717E+04  0.00000000000E+00 0.  1.
         21   -1    0    0  501  502 -0.00000000000E+00 -0.00000000000E+00 -0.28816383610E+02  0.28816383610E+02  0.00000000000E+00 0.  1.
      99926    2    1    2    0    0  0.00000000000E+00  0.14210854715E-13  0.17496618880E+04  0.18072946553E+04  0.45276621834E+03 0.  0.
         25    1    3    3    0    0 -0.31613877639E+02  0.70142849877E+02  0.58917404641E+03  0.60720097309E+03  0.12509000000E+03 0.  0.
         25    1    3    3    0    0 -0.25703171213E+02 -0.10319408341E+03  0.63600860757E+03  0.65685929153E+03  0.12509000000E+03 0.  0.
         25    1    3    3    0    0  0.57317048852E+02  0.33051233533E+02  0.52447923406E+03  0.54323439065E+03  0.12509000000E+03 0.  0.
<mgrwt>
<rscale>  2 0.45276622E+03</rscale>
<asrwt>0</asrwt>
<pdfrwt beam="1">  1       21 0.26154085E+00 0.45276622E+03</pdfrwt>
<pdfrwt beam="2">  1       21 0.42377047E-02 0.45276622E+03</pdfrwt>
<totfact> 0.17419870E+04</totfact>
</mgrwt>
</event>
<event>
 6    0  0.1539652E-007  0.4546847E+03  0.7546771E-02  0.1026334E+00
         21   -1    0    0  502  501  0.00000000000E+00  0.00000000000E+00  0.78335619847E+03  0.78335619847E+03  0.00000000000E+00 0. -1.
         21   -1    0    0  501  502 -0.00000000000E+00 -0.00000000000E+00 -0.65978341647E+02  0.65978341647E+02  0.00000000000E+00 0. -1.
      99926    2    1    2    0    0  0.00000000000E+00  0.00000000000E+00  0.71737785682E+03  0.84933454012E+03  0.45468469468E+03 0.  0.
         25    1    3    3    0    0 -0.50098107108E+01  0.13793485328E+01  0.11944722879E+03  0.17303799979E+03  0.12509000000E+03 0.  0.
         25    1    3    3    0    0 -0.66350526448E+02 -0.44352493149E+02  0.40770348765E+03  0.43386539151E+03  0.12509000000E+03 0.  0.
         25    1    3    3    0    0  0.71360337159E+02  0.42973144617E+02  0.19022714038E+03  0.24243114881E+03  0.12509000000E+03 0.  0.
<mgrwt>
<rscale>  2 0.45468469E+03</rscale>
<asrwt>0</asrwt>
<pdfrwt beam="1">  1       21 0.11519944E+00 0.45468469E+03</pdfrwt>
<pdfrwt beam="2">  1       21 0.97026978E-02 0.45468469E+03</pdfrwt>
<totfact> 0.45581801E+04</totfact>
</mgrwt>
</event>
<event>
 6    0  0.1539652E-007  0.4575074E+03  0.7546771E-02  0.1025507E+00
         21   -1    0    0  502  501  0.00000000000E+00  0.00000000000E+00  0.15578178945E+03  0.15578178945E+03  0.00000000000E+00 0. -1.
         21   -1    0    0  501  502 -0.00000000000E+00 -0.00000000000E+00 -0.33590733915E+03  0.33590733915E+03  0.00000000000E+00 0. -1.
      99926    2    1    2    0    0 -0.35527136788E-14  0.35527136788E-14 -0.18012554970E+03  0.49168912860E+03  0.45750736118E+03 0.  0.
         25    1    3    3    0    0 -0.22206986496E+02 -0.14537701452E+02  0.37743658531E+02  0.13332886736E+03  0.12509000000E+03 0.  0.
         25    1    3    3    0    0  0.48244875964E+02 -0.45908867408E+02 -0.90916878069E+02  0.16837036254E+03  0.12509000000E+03 0.  0.
         25    1    3    3    0    0 -0.26037889468E+02  0.60446568860E+02 -0.12695233017E+03  0.18998989870E+03  0.12509000000E+03 0.  0.
<mgrwt>
<rscale>  2 0.45750736E+03</rscale>
<asrwt>0</asrwt>
<pdfrwt beam="1">  1       21 0.22909087E-01 0.45750736E+03</pdfrwt>
<pdfrwt beam="2">  1       21 0.49398138E-01 0.45750736E+03</pdfrwt>
<totfact> 0.64563804E+04</totfact>
</mgrwt>
</event>
<event>
 6    0  0.1539652E-007  0.4586771E+03  0.7546771E-02  0.1025166E+00
         21   -1    0    0  502  501  0.00000000000E+00  0.00000000000E+00  0.22563360013E+03  0.22563360013E+03  0.00000000000E+00 0. -1.
         21   -1    0    0  501  502 -0.00000000000E+00 -0.00000000000E+00 -0.23310431203E+03  0.23310431203E+03  0.00000000000E+00 0. -1.
      99926    2    1    2    0    0  0.00000000000E+00  0.00000000000E+00 -0.74707119008E+01  0.45873791216E+03  0.45867707652E+03 0.  0.
         25    1    3    3    0    0 -0.21324626356E+02 -0.95081356675E+02  0.55906518023E+02  0.16813164763E+03  0.12509000000E+03 0.  0.
         25    1    3    3    0    0 -0.19938226581E+02  0.79555166462E+02 -0.47965778445E+02  0.15708208488E+03  0.12509000000E+03 0.  0.
         25    1    3    3    0    0  0.41262852937E+02  0.15526190213E+02 -0.15411451480E+02  0.13352417965E+03  0.12509000000E+03 0.  0.
<mgrwt>
<rscale>  2 0.45867708E+03</rscale>
<asrwt>0</asrwt>
<pdfrwt beam="1">  1       21 0.33181412E-01 0.45867708E+03</pdfrwt>
<pdfrwt beam="2">  1       21 0.34280046E-01 0.45867708E+03</pdfrwt>
<totfact> 0.66305996E+04</totfact>
</mgrwt>
</event>
<event>
 6    0  0.1539652E-007  0.4476854E+03  0.7546771E-02  0.1028415E+00
         21   -1    0    0  502  501  0.00000000000E+00  0.00000000000E+00  0.66091597859E+03  0.66091597859E+03  0.00000000000E+00 0.  1.
         21   -1    0    0  501  502 -0.00000000000E+00 -0.00000000000E+00 -0.75812305035E+02  0.75812305035E+02  0.00000000000E+00 0.  1.
      99926    2    1    2    0    0 -0.71054273576E-14  0.00000000000E+00  0.58510367356E+03  0.73672828363E+03  0.44768544212E+03 0.  0.
         25    1    3    3    0    0  0.42150222373E+02  0.49392737928E+02  0.12188314273E+03  0.18633113639E+03  0.12509000000E+03 0.  0.
         25    1    3    3    0    0  0.33768494029E+02 -0.17327909039E+02  0.30844795221E+03  0.33500479838E+03  0.12509000000E+03 0.  0.
         25    1    3    3    0    0 -0.75918716402E+02 -0.32064828889E+02  0.15477257862E+03  0.21539234885E+03  0.12509000000E+03 0.  0.
<mgrwt>
<rscale>  2 0.44768544E+03</rscale>
<asrwt>0</asrwt>
<pdfrwt beam="1">  1       21 0.97193523E-01 0.44768544E+03</pdfrwt>
<pdfrwt beam="2">  1       21 0.11148869E-01 0.44768544E+03</pdfrwt>
<totfact> 0.53992443E+04</totfact>
</mgrwt>
</event>
<event>
 6    0  0.1539652E-007  0.4395542E+03  0.7546771E-02  0.1030884E+00
         21   -1    0    0  502  501  0.00000000000E+00  0.00000000000E+00  0.10996833127E+03  0.10996833127E+03  0.00000000000E+00 0.  1.
         21   -1    0    0  501  502 -0.00000000000E+00 -0.00000000000E+00 -0.43923528836E+03  0.43923528836E+03  0.00000000000E+00 0.  1.
      99926    2    1    2    0    0  0.00000000000E+00 -0.71054273576E-14 -0.32926695709E+03  0.54920361963E+03  0.43955419096E+03 0.  0.
         25    1    3    3    0    0  0.18853628772E+01  0.62811095373E+01 -0.20836003822E+03  0.24311400733E+03  0.12509000000E+03 0.  0.
         25    1    3    3    0    0 -0.43149530183E+02  0.34096303566E+02 -0.26806309902E+02  0.13924986974E+03  0.12509000000E+03 0.  0.
         25    1    3    3    0    0  0.41264167306E+02 -0.40377413103E+02 -0.94100608964E+02  0.16683974257E+03  0.12509000000E+03 0.  0.
<mgrwt>
<rscale>  2 0.43955419E+03</rscale>
<asrwt>0</asrwt>
<pdfrwt beam="1">  1       21 0.16171813E-01 0.43955419E+03</pdfrwt>
<pdfrwt beam="2">  1       21 0.64593425E-01 0.43955419E+03</pdfrwt>
<totfact> 0.70101155E+04</totfact>
</mgrwt>
</event>
<event>
 6    0  0.1539652E-007  0.4443985E+03  0.7546771E-02  0.1029406E+00
         21   -1    0    0  502  501  0.00000000000E+00  0.00000000000E+00  0.37600744793E+03  0.37600744793E+03  0.00000000000E+00 0.  1.
         21   -1    0    0  501  502 -0.00000000000E+00 -0.00000000000E+00 -0.13130723483E+03  0.13130723483E+03  0.00000000000E+00 0.  1.
      99926    2    1    2    0    0  0.00000000000E+00  0.00000000000E+00  0.24470021310E+03  0.50731468277E+03  0.44439846204E+03 0.  0.
         25    1    3    3    0    0  0.82785903692E+02  0.29557355192E+02  0.94145442572E+02  0.17954947940E+03  0.12509000000E+03 0.  0.
         25    1    3    3    0    0 -0.24240090822E+02  0.43670233202E+02  0.74451908795E+02  0.15390018224E+03  0.12509000000E+03 0.  0.
         25    1    3    3    0    0 -0.58545812870E+02 -0.73227588395E+02  0.76102861733E+02  0.17386502112E+03  0.12509000000E+03 0.  0.
<mgrwt>
<rscale>  2 0.44439846E+03</rscale>
<asrwt>0</asrwt>
<pdfrwt beam="1">  1       21 0.55295213E-01 0.44439846E+03</pdfrwt>
<pdfrwt beam="2">  1       21 0.19309888E-01 0.44439846E+03</pdfrwt>
<totfact> 0.70507301E+04</totfact>
</mgrwt>
</event>
<event>
 6    0  0.1539652E-007  0.4553602E+03  0.7546771E-02  0.1026136E+00
         21   -1    0    0  502  501  0.00000000000E+00  0.00000000000E+00  0.85870739447E+03  0.85870739447E+03  0.00000000000E+00 0.  1.
         21   -1    0    0  501  502 -0.00000000000E+00 -0.00000000000E+00 -0.60367752324E+02  0.60367752324E+02  0.00000000000E+00 0.  1.
      99926    2    1    2    0    0  0.71054273576E-14  0.00000000000E+00  0.79833964214E+03  0.91907514679E+03  0.45536023238E+03 0.  0.
         25    1    3    3    0    0 -0.39032535510E+02  0.26687693019E+02  0.13158705321E+03  0.18761245284E+03  0.12509000000E+03 0.  0.
         25    1    3    3    0    0 -0.36756659614E+02  0.17169868040E+02  0.43070843960E+03  0.45033667899E+03  0.12509000000E+03 0.  0.
         25    1    3    3    0    0  0.75789195124E+02 -0.43857561059E+02  0.23604414933E+03  0.28112601497E+03  0.12509000000E+03 0.  0.
<mgrwt>
<rscale>  2 0.45536023E+03</rscale>
<asrwt>0</asrwt>
<pdfrwt beam="1">  1       21 0.12628049E+00 0.45536023E+03</pdfrwt>
<pdfrwt beam="2">  1       21 0.88776112E-02 0.45536023E+03</pdfrwt>
<totfact> 0.42299845E+04</totfact>
</mgrwt>
</event>
<event>
 6    0  0.1539652E-007  0.4504425E+03  0.7546771E-02  0.1027590E+00
         21   -1    0    0  502  501  0.00000000000E+00  0.00000000000E+00  0.11523385373E+03  0.11523385373E+03  0.00000000000E+00 0.  1.
         21   -1    0    0  501  502 -0.00000000000E+00 -0.00000000000E+00 -0.44018843822E+03  0.44018843822E+03  0.00000000000E+00 0.  1.
      99926    2    1    2    0    0  0.00000000000E+00 -0.35527136788E-14 -0.32495458449E+03  0.55542229195E+03  0.45044249401E+03 0.  0.
         25    1    3    3    0    0 -0.12502026080E+02  0.72223610623E+02 -0.19126023604E+03  0.24000111786E+03  0.12509000000E+03 0.  0.
         25    1    3    3    0    0 -0.70779463412E+01 -0.84423579029E+02 -0.36735384190E+02  0.15548129975E+03  0.12509000000E+03 0.  0.
         25    1    3    3    0    0  0.19579972422E+02  0.12199968406E+02 -0.96958964268E+02  0.15993987433E+03  0.12509000000E+03 0.  0.
<mgrwt>
<rscale>  2 0.45044249E+03</rscale>
<asrwt>0</asrwt>
<pdfrwt beam="1">  1       21 0.16946155E-01 0.45044249E+03</pdfrwt>
<pdfrwt beam="2">  1       21 0.64733594E-01 0.45044249E+03</pdfrwt>
<totfact> 0.63778112E+04</totfact>
</mgrwt>
</event>
<event>
 6    0  0.1539652E-007  0.4355881E+03  0.7546771E-02  0.1032109E+00
         21   -1    0    0  502  501  0.00000000000E+00  0.00000000000E+00  0.47058126139E+03  0.47058126139E+03  0.00000000000E+00 0. -1.
         21   -1    0    0  501  502 -0.00000000000E+00 -0.00000000000E+00 -0.10079928146E+03  0.10079928146E+03  0.00000000000E+00 0. -1.
      99926    2    1    2    0    0  0.35527136788E-14  0.00000000000E+00  0.36978197993E+03  0.57138054285E+03  0.43558812205E+03 0.  0.
         25    1    3    3    0    0  0.20002761636E+02  0.62672420184E+02  0.19225892110E+03  0.23861882484E+03  0.12509000000E+03 0.  0.
         25    1    3    3    0    0  0.34430756337E+02 -0.61780646198E+01  0.55658760611E+02  0.14131189333E+03  0.12509000000E+03 0.  0.
         25    1    3    3    0    0 -0.54433517973E+02 -0.56494355564E+02  0.12186429822E+03  0.19144982468E+03  0.12509000000E+03 0.  0.
<mgrwt>
<rscale>  2 0.43558812E+03</rscale>
<asrwt>0</asrwt>
<pdfrwt beam="1">  1       21 0.69203126E-01 0.43558812E+03</pdfrwt>
<pdfrwt beam="2">  1       21 0.14823424E-01 0.43558812E+03</pdfrwt>
<totfact> 0.70721430E+04</totfact>
</mgrwt>
</event>
<event>
 6    0  0.1539652E-007  0.4539270E+03  0.7546771E-02  0.1026557E+00
         21   -1    0    0  502  501  0.00000000000E+00  0.00000000000E+00  0.20056991614E+02  0.20056991614E+02  0.00000000000E+00 0. -1.
         21   -1    0    0  501  502 -0.00000000000E+00 -0.00000000000E+00 -0.25683026703E+04  0.25683026703E+04  0.00000000000E+00 0. -1.
      99926    2    1    2    0    0 -0.35527136788E-14  0.00000000000E+00 -0.25482456786E+04  0.25883596619E+04  0.45392697704E+03 0.  0.
         25    1    3    3    0    0 -0.31182394020E+02 -0.10941896830E+02 -0.11037933951E+04  0.11113502751E+04  0.12509000000E+03 0.  0.
         25    1    3    3    0    0 -0.47407119969E+02  0.13044596031E+02 -0.39575414179E+03  0.41795507576E+03  0.12509000000E+03 0.  0.
         25    1    3    3    0    0  0.78589513990E+02 -0.21026992012E+01 -0.10486981417E+04  0.10590543110E+04  0.12509000000E+03 0.  0.
<mgrwt>
<rscale>  2 0.45392698E+03</rscale>
<asrwt>0</asrwt>
<pdfrwt beam="1">  1       21 0.29495572E-02 0.45392698E+03</pdfrwt>
<pdfrwt beam="2">  1       21 0.37769161E+00 0.45392698E+03</pdfrwt>
<totfact> 0.63220067E+03</totfact>
</mgrwt>
</event>
<event>
 6    0  0.1539652E-007  0.4559233E+03  0.7546771E-02  0.1025970E+00
         21   -1    0    0  502  501  0.00000000000E+00  0.00000000000E+00  0.34042497620E+02  0.34042497620E+02  0.00000000000E+00 0. -1.
         21   -1    0    0  501  502 -0.00000000000E+00 -0.00000000000E+00 -0.15265189315E+04  0.15265189315E+04  0.00000000000E+00 0. -1.
      99926    2    1    2    0    0  0.44408920985E-15 -0.14210854715E-13 -0.14924764339E+04  0.15605614291E+04  0.45592331413E+03 0.  0.
         25    1    3    3    0    0 -0.61202883331E+02  0.87266586162E+02 -0.44537275527E+03  0.47472692069E+03  0.12509000000E+03 0.  0.
         25    1    3    3    0    0  0.27709017017E+01 -0.80204952366E+02 -0.57611597736E+03  0.59497700775E+03  0.12509000000E+03 0.  0.
         25    1    3    3    0    0  0.58431981629E+02 -0.70616337957E+01 -0.47098770123E+03  0.49085750067E+03  0.12509000000E+03 0.  0.
<mgrwt>
<rscale>  2 0.45592331E+03</rscale>
<asrwt>0</asrwt>
<pdfrwt beam="1">  1       21 0.50062486E-02 0.45592331E+03</pdfrwt>
<pdfrwt beam="2">  1       21 0.22448813E+00 0.45592331E+03</pdfrwt>
<totfact> 0.22173720E+04</totfact>
</mgrwt>
</event>
<event>
 6    0  0.1539652E-007  0.4689677E+03  0.7546771E-02  0.1022212E+00
         21   -1    0    0  502  501  0.00000000000E+00  0.00000000000E+00  0.24410551224E+03  0.24410551224E+03  0.00000000000E+00 0.  1.
         21   -1    0    0  501  502 -0.00000000000E+00 -0.00000000000E+00 -0.22524144462E+03  0.22524144462E+03  0.00000000000E+00 0.  1.
      99926    2    1    2    0    0  0.71054273576E-14  0.00000000000E+00  0.18864067618E+02  0.46934695686E+03  0.46896770984E+03 0.  0.
         25    1    3    3    0    0  0.55331887980E+02 -0.49576327606E+02 -0.41532218064E+02  0.15130057278E+03  0.12509000000E+03 0.  0.
         25    1    3    3    0    0 -0.68993454028E+02 -0.48963504928E+02  0.14206542007E+02  0.15168010894E+03  0.12509000000E+03 0.  0.
         25    1    3    3    0    0  0.13661566048E+02  0.98539832535E+02  0.46189743674E+02  0.16636627514E+03  0.12509000000E+03 0.  0.
<mgrwt>
<rscale>  2 0.46896771E+03</rscale>
<asrwt>0</asrwt>
<pdfrwt beam="1">  1       21 0.35897870E-01 0.46896771E+03</pdfrwt>
<pdfrwt beam="2">  1       21 0.33123742E-01 0.46896771E+03</pdfrwt>
<totfact> 0.60480608E+04</totfact>
</mgrwt>
</event>
<event>
 6    0  0.1539652E-007  0.4521636E+03  0.7546771E-02  0.1027079E+00
         21   -1    0    0  502  501  0.00000000000E+00  0.00000000000E+00  0.45078696528E+03  0.45078696528E+03  0.00000000000E+00 0. -1.
         21   -1    0    0  501  502 -0.00000000000E+00 -0.00000000000E+00 -0.11338612905E+03  0.11338612905E+03  0.00000000000E+00 0. -1.
      99926    2    1    2    0    0  0.00000000000E+00  0.71054273576E-14  0.33740083623E+03  0.56417309434E+03  0.45216363861E+03 0.  0.
         25    1    3    3    0    0  0.32206858480E+02 -0.43215802405E+02  0.11574097913E+03  0.17874106876E+03  0.12509000000E+03 0.  0.
         25    1    3    3    0    0 -0.20137346234E+01  0.92474074521E+02  0.18718782927E+03  0.24339741394E+03  0.12509000000E+03 0.  0.
         25    1    3    3    0    0 -0.30193123857E+02 -0.49258272116E+02  0.34472027823E+02  0.14203461164E+03  0.12509000000E+03 0.  0.
<mgrwt>
<rscale>  2 0.45216364E+03</rscale>
<asrwt>0</asrwt>
<pdfrwt beam="1">  1       21 0.66292200E-01 0.45216364E+03</pdfrwt>
<pdfrwt beam="2">  1       21 0.16674431E-01 0.45216364E+03</pdfrwt>
<totfact> 0.62325963E+04</totfact>
</mgrwt>
</event>
<event>
 6    0  0.1539652E-007  0.4508534E+03  0.7546771E-02  0.1027468E+00
         21   -1    0    0  502  501  0.00000000000E+00  0.00000000000E+00  0.22865198824E+03  0.22865198824E+03  0.00000000000E+00 0. -1.
         21   -1    0    0  501  502 -0.00000000000E+00 -0.00000000000E+00 -0.22224691265E+03  0.22224691265E+03  0.00000000000E+00 0. -1.
      99926    2    1    2    0    0 -0.71054273576E-14 -0.17763568394E-14  0.64050755865E+01  0.45089890089E+03  0.45085340614E+03 0.  0.
         25    1    3    3    0    0 -0.63786339042E+02  0.33064244014E+02  0.81320302592E+02  0.16559722520E+03  0.12509000000E+03 0.  0.
         25    1    3    3    0    0  0.23618009409E+02 -0.48338226837E+02 -0.69609366615E+02  0.15292928615E+03  0.12509000000E+03 0.  0.
         25    1    3    3    0    0  0.40168329633E+02  0.15273982822E+02 -0.53058603901E+01  0.13237238954E+03  0.12509000000E+03 0.  0.
<mgrwt>
<rscale>  2 0.45085341E+03</rscale>
<asrwt>0</asrwt>
<pdfrwt beam="1">  1       21 0.33625292E-01 0.45085341E+03</pdfrwt>
<pdfrwt beam="2">  1       21 0.32683369E-01 0.45085341E+03</pdfrwt>
<totfact> 0.71173094E+04</totfact>
</mgrwt>
</event>
<event>
 6    0  0.1539652E-007  0.4614592E+03  0.7546771E-02  0.1024359E+00
         21   -1    0    0  502  501  0.00000000000E+00  0.00000000000E+00  0.29920598045E+03  0.29920598045E+03  0.00000000000E+00 0.  1.
         21   -1    0    0  501  502 -0.00000000000E+00 -0.00000000000E+00 -0.17792474683E+03  0.17792474683E+03  0.00000000000E+00 0.  1.
      99926    2    1    2    0    0  0.00000000000E+00 -0.14210854715E-13  0.12128123362E+03  0.47713072729E+03  0.46145920003E+03 0.  0.
         25    1    3    3    0    0 -0.29903692979E+02 -0.11632895818E+03  0.27056793497E+02  0.17551705199E+03  0.12509000000E+03 0.  0.
         25    1    3    3    0    0  0.44021288851E+02  0.44310896143E+02  0.29995417865E+02  0.14299847056E+03  0.12509000000E+03 0.  0.
         25    1    3    3    0    0 -0.14117595872E+02  0.72018062041E+02  0.64229022259E+02  0.15861520474E+03  0.12509000000E+03 0.  0.
<mgrwt>
<rscale>  2 0.46145920E+03</rscale>
<asrwt>0</asrwt>
<pdfrwt beam="1">  1       21 0.44000879E-01 0.46145920E+03</pdfrwt>
<pdfrwt beam="2">  1       21 0.26165404E-01 0.46145920E+03</pdfrwt>
<totfact> 0.63587453E+04</totfact>
</mgrwt>
</event>
<event>
 6    0  0.1539652E-007  0.4592962E+03  0.7546771E-02  0.1024986E+00
         21   -1    0    0  502  501  0.00000000000E+00  0.00000000000E+00  0.29580944886E+03  0.29580944886E+03  0.00000000000E+00 0.  1.
         21   -1    0    0  501  502 -0.00000000000E+00 -0.00000000000E+00 -0.17828456102E+03  0.17828456102E+03  0.00000000000E+00 0.  1.
      99926    2    1    2    0    0  0.00000000000E+00  0.71054273576E-14  0.11752488784E+03  0.47409400988E+03  0.45929623441E+03 0.  0.
         25    1    3    3    0    0 -0.17007552194E+02  0.17786095887E+02  0.85146151573E+02  0.15330680763E+03  0.12509000000E+03 0.  0.
         25    1    3    3    0    0  0.15370811284E+02 -0.10263686239E+03  0.46254999742E+02  0.16899000107E+03  0.12509000000E+03 0.  0.
         25    1    3    3    0    0  0.16367409094E+01  0.84850766504E+02 -0.13876263472E+02  0.15179720118E+03  0.12509000000E+03 0.  0.
<mgrwt>
<rscale>  2 0.45929623E+03</rscale>
<asrwt>0</asrwt>
<pdfrwt beam="1">  1       21 0.43501389E-01 0.45929623E+03</pdfrwt>
<pdfrwt beam="2">  1       21 0.26218318E-01 0.45929623E+03</pdfrwt>
<totfact> 0.64892318E+04</totfact>
</mgrwt>
</event>
<event>
 6    0  0.1539652E-007  0.4639520E+03  0.7546771E-02  0.1023641E+00
         21   -1    0    0  502  501  0.00000000000E+00  0.00000000000E+00  0.20319120693E+03  0.20319120693E+03  0.00000000000E+00 0.  1.
         21   -1    0    0  501  502 -0.00000000000E+00 -0.00000000000E+00 -0.26483857266E+03  0.26483857266E+03  0.00000000000E+00 0.  1.
      99926    2    1    2    0    0  0.00000000000E+00 -0.17763568394E-14 -0.61647365727E+02  0.46802977959E+03  0.46395202002E+03 0.  0.
         25    1    3    3    0    0  0.38994446865E+02  0.14250651615E+02 -0.13204118743E+03  0.18656374577E+03  0.12509000000E+03 0.  0.
         25    1    3    3    0    0  0.28353392358E+02  0.73514511121E+01  0.26144626331E+02  0.13110685824E+03  0.12509000000E+03 0.  0.
         25    1    3    3    0    0 -0.67347839222E+02 -0.21602102728E+02  0.44249195370E+02  0.15035917558E+03  0.12509000000E+03 0.  0.
<mgrwt>
<rscale>  2 0.46395202E+03</rscale>
<asrwt>0</asrwt>
<pdfrwt beam="1">  1       21 0.29881060E-01 0.46395202E+03</pdfrwt>
<pdfrwt beam="2">  1       21 0.38946849E-01 0.46395202E+03</pdfrwt>
<totfact> 0.62981452E+04</totfact>
</mgrwt>
</event>
<event>
 6    0  0.1539652E-007  0.4559037E+03  0.7546771E-02  0.1025976E+00
         21   -1    0    0  502  501  0.00000000000E+00  0.00000000000E+00  0.65944158006E+03  0.65944158006E+03  0.00000000000E+00 0. -1.
         21   -1    0    0  501  502 -0.00000000000E+00 -0.00000000000E+00 -0.78797047978E+02  0.78797047978E+02  0.00000000000E+00 0. -1.
      99926    2    1    2    0    0  0.99920072216E-15  0.00000000000E+00  0.58064453209E+03  0.73823862804E+03  0.45590371713E+03 0.  0.
         25    1    3    3    0    0 -0.56411779497E+00  0.97274358312E+02  0.20860396037E+03  0.26196514920E+03  0.12509000000E+03 0.  0.
         25    1    3    3    0    0  0.54550040136E+02 -0.71673311911E+02  0.23719247458E+03  0.28287903531E+03  0.12509000000E+03 0.  0.
         25    1    3    3    0    0 -0.53985922341E+02 -0.25601046401E+02  0.13484809713E+03  0.19339444353E+03  0.12509000000E+03 0.  0.
<mgrwt>
<rscale>  2 0.45590372E+03</rscale>
<asrwt>0</asrwt>
<pdfrwt beam="1">  1       21 0.96976700E-01 0.45590372E+03</pdfrwt>
<pdfrwt beam="2">  1       21 0.11587802E-01 0.45590372E+03</pdfrwt>
<totfact> 0.50515676E+04</totfact>
</mgrwt>
</event>
<event>
 6    0  0.1539652E-007  0.4527567E+03  0.7546771E-02  0.1026903E+00
         21   -1    0    0  502  501  0.00000000000E+00  0.00000000000E+00  0.15305452262E+03  0.15305452262E+03  0.00000000000E+00 0.  1.
         21   -1    0    0  501  502 -0.00000000000E+00 -0.00000000000E+00 -0.33482939204E+03  0.33482939204E+03  0.00000000000E+00 0.  1.
      99926    2    1    2    0    0  0.59952043330E-14  0.00000000000E+00 -0.18177486942E+03  0.48788391466E+03  0.45275667972E+03 0.  0.
         25    1    3    3    0    0  0.54699245694E+02 -0.37771624667E+02  0.27613820331E+02  0.14432163484E+03  0.12509000000E+03 0.  0.
         25    1    3    3    0    0 -0.52853454824E+02 -0.13695434846E+02 -0.93594491158E+02  0.16549468118E+03  0.12509000000E+03 0.  0.
         25    1    3    3    0    0 -0.18457908692E+01  0.51467059513E+02 -0.11579419859E+03  0.17806759864E+03  0.12509000000E+03 0.  0.
<mgrwt>
<rscale>  2 0.45275668E+03</rscale>
<asrwt>0</asrwt>
<pdfrwt beam="1">  1       21 0.22508018E-01 0.45275668E+03</pdfrwt>
<pdfrwt beam="2">  1       21 0.49239616E-01 0.45275668E+03</pdfrwt>
<totfact> 0.67321494E+04</totfact>
</mgrwt>
</event>
<event>
 6    0  0.1539652E-007  0.4570492E+03  0.7546771E-02  0.1025641E+00
         21   -1    0    0  502  501  0.00000000000E+00  0.00000000000E+00  0.31007269648E+03  0.31007269648E+03  0.00000000000E+00 0. -1.
         21   -1    0    0  501  502 -0.00000000000E+00 -0.00000000000E+00 -0.16842335583E+03  0.16842335583E+03  0.00000000000E+00 0. -1.
      99926    2    1    2    0    0  0.53290705182E-14  0.35527136788E-14  0.14164934065E+03  0.47849605230E+03  0.45704916187E+03 0.  0.
         25    1    3    3    0    0  0.18471358598E+01  0.97365278295E+01  0.91610051322E+02  0.15536447949E+03  0.12509000000E+03 0.  0.
         25    1    3    3    0    0  0.64911319344E+02 -0.70768991480E+02  0.59315600896E+02  0.16848613635E+03  0.12509000000E+03 0.  0.
         25    1    3    3    0    0 -0.66758455204E+02  0.61032463650E+02 -0.92763115718E+01  0.15464543646E+03  0.12509000000E+03 0.  0.
<mgrwt>
<rscale>  2 0.45704916E+03</rscale>
<asrwt>0</asrwt>
<pdfrwt beam="1">  1       21 0.45598926E-01 0.45704916E+03</pdfrwt>
<pdfrwt beam="2">  1       21 0.24768140E-01 0.45704916E+03</pdfrwt>
<totfact> 0.65734145E+04</totfact>
</mgrwt>
</event>
<event>
 6    0  0.1539652E-007  0.4410013E+03  0.7546771E-02  0.1030440E+00
         21   -1    0    0  502  501  0.00000000000E+00  0.00000000000E+00  0.70197827639E+02  0.70197827639E+02  0.00000000000E+00 0. -1.
         21   -1    0    0  501  502 -0.00000000000E+00 -0.00000000000E+00 -0.69262175175E+03  0.69262175175E+03  0.00000000000E+00 0. -1.
      99926    2    1    2    0    0  0.35527136788E-14 -0.53290705182E-14 -0.62242392411E+03  0.76281957939E+03  0.44100132584E+03 0.  0.
         25    1    3    3    0    0  0.35766439438E+02  0.54105648710E+02 -0.97004121250E+02  0.17106714194E+03  0.12509000000E+03 0.  0.
         25    1    3    3    0    0  0.12131107550E+02 -0.69912063173E+01 -0.19475194710E+03  0.23188762307E+03  0.12509000000E+03 0.  0.
         25    1    3    3    0    0 -0.47897546988E+02 -0.47114442392E+02 -0.33066785577E+03  0.35986481438E+03  0.12509000000E+03 0.  0.
<mgrwt>
<rscale>  2 0.44100133E+03</rscale>
<asrwt>0</asrwt>
<pdfrwt beam="1">  1       21 0.10323210E-01 0.44100133E+03</pdfrwt>
<pdfrwt beam="2">  1       21 0.10185614E+00 0.44100133E+03</pdfrwt>
<totfact> 0.55464725E+04</totfact>
</mgrwt>
</event>
<event>
 6    0  0.1539652E-007  0.4554270E+03  0.7546771E-02  0.1026116E+00
         21   -1    0    0  502  501  0.00000000000E+00  0.00000000000E+00  0.45282801939E+03  0.45282801939E+03  0.00000000000E+00 0.  1.
         21   -1    0    0  501  502 -0.00000000000E+00 -0.00000000000E+00 -0.11451023386E+03  0.11451023386E+03  0.00000000000E+00 0.  1.
      99926    2    1    2    0    0  0.00000000000E+00 -0.17763568394E-14  0.33831778552E+03  0.56733825325E+03  0.45542701896E+03 0.  0.
         25    1    3    3    0    0  0.10192364239E+03 -0.32939343918E+02  0.11574186633E+03  0.20128864095E+03  0.12509000000E+03 0.  0.
         25    1    3    3    0    0 -0.88309724078E+02  0.82024650803E+01  0.16570120132E+03  0.22576599394E+03  0.12509000000E+03 0.  0.
         25    1    3    3    0    0 -0.13613918310E+02  0.24736878838E+02  0.56874717875E+02  0.14028361836E+03  0.12509000000E+03 0.  0.
<mgrwt>
<rscale>  2 0.45542702E+03</rscale>
<asrwt>0</asrwt>
<pdfrwt beam="1">  1       21 0.66592355E-01 0.45542702E+03</pdfrwt>
<pdfrwt beam="2">  1       21 0.16839740E-01 0.45542702E+03</pdfrwt>
<totfact> 0.60530445E+04</totfact>
</mgrwt>
</event>
<event>
 6    0  0.1539652E-007  0.4600644E+03  0.7546771E-02  0.1024763E+00
         21   -1    0    0  502  501  0.00000000000E+00  0.00000000000E+00  0.70129266406E+02  0.70129266406E+02  0.00000000000E+00 0. -1.
         21   -1    0    0  501  502 -0.00000000000E+00 -0.00000000000E+00 -0.75453242254E+03  0.75453242254E+03  0.00000000000E+00 0. -1.
      99926    2    1    2    0    0  0.00000000000E+00  0.13322676296E-13 -0.68440315613E+03  0.82466168894E+03  0.46006436624E+03 0.  0.
         25    1    3    3    0    0 -0.43019401230E+02  0.74867856975E+01 -0.34467003503E+03  0.36925825921E+03  0.12509000000E+03 0.  0.
         25    1    3    3    0    0  0.42084340724E+02 -0.81974348860E+02 -0.20336662820E+03  0.25592260387E+03  0.12509000000E+03 0.  0.
         25    1    3    3    0    0  0.93506050634E+00  0.74487563162E+02 -0.13636649290E+03  0.19948082587E+03  0.12509000000E+03 0.  0.
<mgrwt>
<rscale>  2 0.46006437E+03</rscale>
<asrwt>0</asrwt>
<pdfrwt beam="1">  1       21 0.10313128E-01 0.46006437E+03</pdfrwt>
<pdfrwt beam="2">  1       21 0.11096065E+00 0.46006437E+03</pdfrwt>
<totfact> 0.44788513E+04</totfact>
</mgrwt>
</event>
<event>
 6    0  0.1539652E-007  0.4500231E+03  0.7546771E-02  0.1027715E+00
         21   -1    0    0  502  501  0.00000000000E+00  0.00000000000E+00  0.11690677406E+04  0.11690677406E+04  0.00000000000E+00 0.  1.
         21   -1    0    0  501  502 -0.00000000000E+00 -0.00000000000E+00 -0.43308183125E+02  0.43308183125E+02  0.00000000000E+00 0.  1.
      99926    2    1    2    0    0  0.71054273576E-14  0.00000000000E+00  0.11257595575E+04  0.12123759238E+04  0.45002310961E+03 0.  0.
         25    1    3    3    0    0 -0.46034407045E+02 -0.51275928695E+02  0.35071858616E+03  0.37868116176E+03  0.12509000000E+03 0.  0.
         25    1    3    3    0    0  0.70156328419E+02  0.19739582535E+02  0.22008853257E+03  0.26343506184E+03  0.12509000000E+03 0.  0.
         25    1    3    3    0    0 -0.24121921374E+02  0.31536346160E+02  0.55495243877E+03  0.57025970015E+03  0.12509000000E+03 0.  0.
<mgrwt>
<rscale>  2 0.45002311E+03</rscale>
<asrwt>0</asrwt>
<pdfrwt beam="1">  1       21 0.17192171E+00 0.45002311E+03</pdfrwt>
<pdfrwt beam="2">  1       21 0.63688512E-02 0.45002311E+03</pdfrwt>
<totfact> 0.33028019E+04</totfact>
</mgrwt>
</event>
<event>
 6    0  0.1539652E-007  0.4544701E+03  0.7546771E-02  0.1026397E+00
         21   -1    0    0  502  501  0.00000000000E+00  0.00000000000E+00  0.85474858073E+02  0.85474858073E+02  0.00000000000E+00 0. -1.
         21   -1    0    0  501  502 -0.00000000000E+00 -0.00000000000E+00 -0.60410468384E+03  0.60410468384E+03  0.00000000000E+00 0. -1.
      99926    2    1    2    0    0  0.00000000000E+00  0.00000000000E+00 -0.51862982576E+03  0.68957954191E+03  0.45447007431E+03 0.  0.
         25    1    3    3    0    0 -0.44513929452E+02 -0.74177007385E+02 -0.15381508217E+03  0.21631066997E+03  0.12509000000E+03 0.  0.
         25    1    3    3    0    0  0.44311349598E+02  0.46644661208E+01 -0.81342859466E+02  0.15572225863E+03  0.12509000000E+03 0.  0.
         25    1    3    3    0    0  0.20257985479E+00  0.69512541265E+02 -0.28347188413E+03  0.31754661331E+03  0.12509000000E+03 0.  0.
<mgrwt>
<rscale>  2 0.45447007E+03</rscale>
<asrwt>0</asrwt>
<pdfrwt beam="1">  1       21 0.12569832E-01 0.45447007E+03</pdfrwt>
<pdfrwt beam="2">  1       21 0.88838927E-01 0.45447007E+03</pdfrwt>
<totfact> 0.53696140E+04</totfact>
</mgrwt>
</event>
<event>
 6    0  0.1539652E-007  0.4565787E+03  0.7546771E-02  0.1025778E+00
         21   -1    0    0  502  501  0.00000000000E+00  0.00000000000E+00  0.57119272334E+02  0.57119272334E+02  0.00000000000E+00 0. -1.
         21   -1    0    0  501  502 -0.00000000000E+00 -0.00000000000E+00 -0.91240709581E+03  0.91240709581E+03  0.00000000000E+00 0. -1.
      99926    2    1    2    0    0  0.00000000000E+00  0.14210854715E-13 -0.85528782347E+03  0.96952636814E+03  0.45657870903E+03 0.  0.
         25    1    3    3    0    0 -0.36719470283E+02 -0.36531306898E+02 -0.12236540650E+03  0.18249289490E+03  0.12509000000E+03 0.  0.
         25    1    3    3    0    0 -0.20523596655E+02  0.67501538447E+02 -0.41800452358E+03  0.44198751741E+03  0.12509000000E+03 0.  0.
         25    1    3    3    0    0  0.57243066939E+02 -0.30970231550E+02 -0.31491789340E+03  0.34504595583E+03  0.12509000000E+03 0.  0.
<mgrwt>
<rscale>  2 0.45657871E+03</rscale>
<asrwt>0</asrwt>
<pdfrwt beam="1">  1       21 0.83998942E-02 0.45657871E+03</pdfrwt>
<pdfrwt beam="2">  1       21 0.13417749E+00 0.45657871E+03</pdfrwt>
<totfact> 0.39865782E+04</totfact>
</mgrwt>
</event>
<event>
 6    0  0.1539652E-007  0.4757912E+03  0.7546771E-02  0.1020298E+00
         21   -1    0    0  502  501  0.00000000000E+00  0.00000000000E+00  0.29324637425E+02  0.29324637425E+02  0.00000000000E+00 0.  1.
         21   -1    0    0  501  502 -0.00000000000E+00 -0.00000000000E+00 -0.19299239233E+04  0.19299239233E+04  0.00000000000E+00 0.  1.
      99926    2    1    2    0    0  0.00000000000E+00 -0.35527136788E-14 -0.19005992859E+04  0.19592485607E+04  0.47579121180E+03 0.  0.
         25    1    3    3    0    0 -0.53388010033E+01  0.26278118992E+02 -0.33606432450E+03  0.35959112981E+03  0.12509000000E+03 0.  0.
         25    1    3    3    0    0  0.10229401432E+03 -0.45967799348E+02 -0.65237496941E+03  0.67365993852E+03  0.12509000000E+03 0.  0.
         25    1    3    3    0    0 -0.96955213314E+02  0.19689680356E+02 -0.91215999195E+03  0.92599749239E+03  0.12509000000E+03 0.  0.
<mgrwt>
<rscale>  2 0.47579121E+03</rscale>
<asrwt>0</asrwt>
<pdfrwt beam="1">  1       21 0.43124485E-02 0.47579121E+03</pdfrwt>
<pdfrwt beam="2">  1       21 0.28381222E+00 0.47579121E+03</pdfrwt>
<totfact> 0.12282071E+04</totfact>
</mgrwt>
</event>
<event>
 6    0  0.1539652E-007  0.4545970E+03  0.7546771E-02  0.1026360E+00
         21   -1    0    0  502  501  0.00000000000E+00  0.00000000000E+00  0.27799107136E+03  0.27799107136E+03  0.00000000000E+00 0. -1.
         21   -1    0    0  501  502 -0.00000000000E+00 -0.00000000000E+00 -0.18584984753E+03  0.18584984753E+03  0.00000000000E+00 0. -1.
      99926    2    1    2    0    0 -0.71054273576E-14  0.00000000000E+00  0.92141223834E+02  0.46384091889E+03  0.45459695655E+03 0.  0.
         25    1    3    3    0    0 -0.74383565156E+02 -0.12446291385E+02  0.11021297007E+02  0.14648140504E+03  0.12509000000E+03 0.  0.
         25    1    3    3    0    0  0.11213210833E+03 -0.80390734606E+01  0.13251882618E+02  0.16870494039E+03  0.12509000000E+03 0.  0.
         25    1    3    3    0    0 -0.37748543171E+02  0.20485364846E+02  0.67868044209E+02  0.14865457346E+03  0.12509000000E+03 0.  0.
<mgrwt>
<rscale>  2 0.45459696E+03</rscale>
<asrwt>0</asrwt>
<pdfrwt beam="1">  1       21 0.40881040E-01 0.45459696E+03</pdfrwt>
<pdfrwt beam="2">  1       21 0.27330860E-01 0.45459696E+03</pdfrwt>
<totfact> 0.68114349E+04</totfact>
</mgrwt>
</event>
<event>
 6    0  0.1539652E-007  0.4512499E+03  0.7546771E-02  0.1027350E+00
         21   -1    0    0  502  501  0.00000000000E+00  0.00000000000E+00  0.10294616562E+03  0.10294616562E+03  0.00000000000E+00 0. -1.
         21   -1    0    0  501  502 -0.00000000000E+00 -0.00000000000E+00 -0.49449742348E+03  0.49449742348E+03  0.00000000000E+00 0. -1.
      99926    2    1    2    0    0  0.00000000000E+00 -0.71054273576E-14 -0.39155125787E+03  0.59744358910E+03  0.45124988046E+03 0.  0.
         25    1    3    3    0    0  0.49365673318E+02 -0.43729087420E+02 -0.20160318634E+03  0.24625303172E+03  0.12509000000E+03 0.  0.
         25    1    3    3    0    0  0.72983635436E+01  0.11152191919E+01 -0.16184456618E+03  0.20468434607E+03  0.12509000000E+03 0.  0.
         25    1    3    3    0    0 -0.56664036862E+02  0.42613868228E+02 -0.28103505346E+02  0.14650621131E+03  0.12509000000E+03 0.  0.
<mgrwt>
<rscale>  2 0.45124988E+03</rscale>
<asrwt>0</asrwt>
<pdfrwt beam="1">  1       21 0.15139142E-01 0.45124988E+03</pdfrwt>
<pdfrwt beam="2">  1       21 0.72720211E-01 0.45124988E+03</pdfrwt>
<totfact> 0.60612106E+04</totfact>
</mgrwt>
</event>
<event>
 6    0  0.1539652E-007  0.4573417E+03  0.7546771E-02  0.1025555E+00
         21   -1    0    0  502  501  0.00000000000E+00  0.00000000000E+00  0.27976809503E+03  0.27976809503E+03  0.00000000000E+00 0. -1.
         21   -1    0    0  501  502 -0.00000000000E+00 -0.00000000000E+00 -0.18690605504E+03  0.18690605504E+03  0.00000000000E+00 0. -1.
      99926    2    1    2    0    0  0.00000000000E+00  0.00000000000E+00  0.92862039986E+02  0.46667415007E+03  0.45734167082E+03 0.  0.
         25    1    3    3    0    0 -0.57644944514E+02  0.41269441524E+02  0.96744669322E+02  0.17330073737E+03  0.12509000000E+03 0.  0.
         25    1    3    3    0    0  0.93792124582E+01  0.38641752911E+02  0.27638387392E+02  0.13413628611E+03  0.12509000000E+03 0.  0.
         25    1    3    3    0    0  0.48265732055E+02 -0.79911194435E+02 -0.31521016728E+02  0.15923712658E+03  0.12509000000E+03 0.  0.
<mgrwt>
<rscale>  2 0.45734167E+03</rscale>
<asrwt>0</asrwt>
<pdfrwt beam="1">  1       21 0.41142367E-01 0.45734167E+03</pdfrwt>
<pdfrwt beam="2">  1       21 0.27486185E-01 0.45734167E+03</pdfrwt>
<totfact> 0.66440773E+04</totfact>
</mgrwt>
</event>
<event>
 6    0  0.1539652E-007  0.4565089E+03  0.7546771E-02  0.1025799E+00
         21   -1    0    0  502  501  0.00000000000E+00  0.00000000000E+00  0.55989448292E+02  0.55989448292E+02  0.00000000000E+00 0. -1.
         21   -1    0    0  501  502 -0.00000000000E+00 -0.00000000000E+00 -0.93053428711E+03  0.93053428711E+03  0.00000000000E+00 0. -1.
      99926    2    1    2    0    0  0.17763568394E-14 -0.35527136788E-14 -0.87454483881E+03  0.98652373540E+03  0.45650893245E+03 0.  0.
         25    1    3    3    0    0  0.10373211575E+02  0.61778514499E+00 -0.16622598069E+03  0.20829443087E+03  0.12509000000E+03 0.  0.
         25    1    3    3    0    0  0.12577640648E+02  0.98743729246E+02 -0.32006283410E+03  0.35776563136E+03  0.12509000000E+03 0.  0.
         25    1    3    3    0    0 -0.22950852223E+02 -0.99361514391E+02 -0.38825602403E+03  0.42046367317E+03  0.12509000000E+03 0.  0.
<mgrwt>
<rscale>  2 0.45650893E+03</rscale>
<asrwt>0</asrwt>
<pdfrwt beam="1">  1       21 0.82337430E-02 0.45650893E+03</pdfrwt>
<pdfrwt beam="2">  1       21 0.13684327E+00 0.45650893E+03</pdfrwt>
<totfact> 0.39230525E+04</totfact>
</mgrwt>
</event>
<event>
 6    0  0.1539652E-007  0.4530484E+03  0.7546771E-02  0.1026817E+00
         21   -1    0    0  502  501  0.00000000000E+00  0.00000000000E+00  0.15862344506E+04  0.15862344506E+04  0.00000000000E+00 0. -1.
         21   -1    0    0  501  502 -0.00000000000E+00 -0.00000000000E+00 -0.32349066545E+02  0.32349066545E+02  0.00000000000E+00 0. -1.
      99926    2    1    2    0    0  0.35527136788E-14  0.71054273576E-14  0.15538853840E+04  0.16185835171E+04  0.45304835856E+03 0.  0.
         25    1    3    3    0    0 -0.93642729938E+02  0.17697108598E+02  0.42941794763E+03  0.45730671367E+03  0.12509000000E+03 0.  0.
         25    1    3    3    0    0  0.10269597089E+02  0.34579780577E+02  0.54682874506E+03  0.56211245350E+03  0.12509000000E+03 0.  0.
         25    1    3    3    0    0  0.83373132849E+02 -0.52276889175E+02  0.57763869136E+03  0.59916434997E+03  0.12509000000E+03 0.  0.
<mgrwt>
<rscale>  2 0.45304836E+03</rscale>
<asrwt>0</asrwt>
<pdfrwt beam="1">  1       21 0.23326972E+00 0.45304836E+03</pdfrwt>
<pdfrwt beam="2">  1       21 0.47572167E-02 0.45304836E+03</pdfrwt>
<totfact> 0.21334562E+04</totfact>
</mgrwt>
</event>
<event>
 6    0  0.1539652E-007  0.4533471E+03  0.7546771E-02  0.1026729E+00
         21   -1    0    0  502  501  0.00000000000E+00  0.00000000000E+00  0.26241653515E+03  0.26241653515E+03  0.00000000000E+00 0.  1.
         21   -1    0    0  501  502 -0.00000000000E+00 -0.00000000000E+00 -0.19579903668E+03  0.19579903668E+03  0.00000000000E+00 0.  1.
      99926    2    1    2    0    0 -0.44408920985E-15 -0.14210854715E-13  0.66617498470E+02  0.45821557182E+03  0.45334712876E+03 0.  0.
         25    1    3    3    0    0 -0.61220052883E+01  0.33202219188E+02  0.85244838430E+02  0.15509370357E+03  0.12509000000E+03 0.  0.
         25    1    3    3    0    0  0.52510139586E+01  0.45835231990E+02 -0.64630334455E+02  0.14816554887E+03  0.12509000000E+03 0.  0.
         25    1    3    3    0    0  0.87099132978E+00 -0.79037451178E+02  0.46002994495E+02  0.15495631938E+03  0.12509000000E+03 0.  0.
<mgrwt>
<rscale>  2 0.45334713E+03</rscale>
<asrwt>0</asrwt>
<pdfrwt beam="1">  1       21 0.38590667E-01 0.45334713E+03</pdfrwt>
<pdfrwt beam="2">  1       21 0.28793976E-01 0.45334713E+03</pdfrwt>
<totfact> 0.69218704E+04</totfact>
</mgrwt>
</event>
<event>
 6    0  0.1539652E-007  0.4504614E+03  0.7546771E-02  0.1027585E+00
         21   -1    0    0  502  501  0.00000000000E+00  0.00000000000E+00  0.55214925975E+02  0.55214925975E+02  0.00000000000E+00 0.  1.
         21   -1    0    0  501  502 -0.00000000000E+00 -0.00000000000E+00 -0.91875265339E+03  0.91875265339E+03  0.00000000000E+00 0.  1.
      99926    2    1    2    0    0  0.71054273576E-14  0.00000000000E+00 -0.86353772741E+03  0.97396757936E+03  0.45046136237E+03 0.  0.
         25    1    3    3    0    0 -0.83767771732E+02  0.73040498070E+02 -0.31659215933E+03  0.35809224703E+03  0.12509000000E+03 0.  0.
         25    1    3    3    0    0  0.35172834397E+02 -0.67617653183E+02 -0.32447990055E+03  0.35601122070E+03  0.12509000000E+03 0.  0.
         25    1    3    3    0    0  0.48594937335E+02 -0.54228448871E+01 -0.22246566753E+03  0.25986411163E+03  0.12509000000E+03 0.  0.
<mgrwt>
<rscale>  2 0.45046136E+03</rscale>
<asrwt>0</asrwt>
<pdfrwt beam="1">  1       21 0.81198425E-02 0.45046136E+03</pdfrwt>
<pdfrwt beam="2">  1       21 0.13511068E+00 0.45046136E+03</pdfrwt>
<totfact> 0.41643221E+04</totfact>
</mgrwt>
</event>
<event>
 6    0  0.1539652E-007  0.4569467E+03  0.7546771E-02  0.1025671E+00
         21   -1    0    0  502  501  0.00000000000E+00  0.00000000000E+00  0.24075527941E+03  0.24075527941E+03  0.00000000000E+00 0.  1.
         21   -1    0    0  501  502 -0.00000000000E+00 -0.00000000000E+00 -0.21681794388E+03  0.21681794388E+03  0.00000000000E+00 0.  1.
      99926    2    1    2    0    0  0.35527136788E-14  0.35527136788E-14  0.23937335530E+02  0.45757322330E+03  0.45694666937E+03 0.  0.
         25    1    3    3    0    0  0.53601860406E+02 -0.67817807649E+02 -0.24783547792E+02  0.15405890696E+03  0.12509000000E+03 0.  0.
         25    1    3    3    0    0 -0.84178871132E+02  0.50386734031E+02  0.66567059201E+02  0.17234728539E+03  0.12509000000E+03 0.  0.
         25    1    3    3    0    0  0.30577010726E+02  0.17431073618E+02 -0.17846175879E+02  0.13116703094E+03  0.12509000000E+03 0.  0.
<mgrwt>
<rscale>  2 0.45694667E+03</rscale>
<asrwt>0</asrwt>
<pdfrwt beam="1">  1       21 0.35405188E-01 0.45694667E+03</pdfrwt>
<pdfrwt beam="2">  1       21 0.31884992E-01 0.45694667E+03</pdfrwt>
<totfact> 0.67306216E+04</totfact>
</mgrwt>
</event>
<event>
 6    0  0.1539652E-007  0.4553322E+03  0.7546771E-02  0.1026144E+00
         21   -1    0    0  502  501  0.00000000000E+00  0.00000000000E+00  0.11356817713E+03  0.11356817713E+03  0.00000000000E+00 0. -1.
         21   -1    0    0  501  502 -0.00000000000E+00 -0.00000000000E+00 -0.45639407635E+03  0.45639407635E+03  0.00000000000E+00 0. -1.
      99926    2    1    2    0    0  0.00000000000E+00  0.71054273576E-14 -0.34282589922E+03  0.56996225348E+03  0.45533215703E+03 0.  0.
         25    1    3    3    0    0 -0.13785595032E+02  0.52314524003E+02 -0.13463644547E+02  0.13695119524E+03  0.12509000000E+03 0.  0.
         25    1    3    3    0    0 -0.15383752173E+02 -0.71467679305E+02 -0.21898062379E+03  0.26257248659E+03  0.12509000000E+03 0.  0.
         25    1    3    3    0    0  0.29169347205E+02  0.19153155302E+02 -0.11038163088E+03  0.17043857166E+03  0.12509000000E+03 0.  0.
<mgrwt>
<rscale>  2 0.45533216E+03</rscale>
<asrwt>0</asrwt>
<pdfrwt beam="1">  1       21 0.16701202E-01 0.45533216E+03</pdfrwt>
<pdfrwt beam="2">  1       21 0.67116777E-01 0.45533216E+03</pdfrwt>
<totfact> 0.60407519E+04</totfact>
</mgrwt>
</event>
<event>
 6    0  0.1539652E-007  0.4549770E+03  0.7546771E-02  0.1026248E+00
         21   -1    0    0  502  501  0.00000000000E+00  0.00000000000E+00  0.31418435243E+03  0.31418435243E+03  0.00000000000E+00 0.  1.
         21   -1    0    0  501  502 -0.00000000000E+00 -0.00000000000E+00 -0.16471547603E+03  0.16471547603E+03  0.00000000000E+00 0.  1.
      99926    2    1    2    0    0 -0.71054273576E-14  0.00000000000E+00  0.14946887641E+03  0.47889982846E+03  0.45497703314E+03 0.  0.
         25    1    3    3    0    0 -0.19833730718E+02  0.86245020190E+02  0.25814686576E+02  0.15538818013E+03  0.12509000000E+03 0.  0.
         25    1    3    3    0    0 -0.50996332758E+02 -0.35015849919E+02  0.93435371104E+02  0.16794169337E+03  0.12509000000E+03 0.  0.
         25    1    3    3    0    0  0.70830063476E+02 -0.51229170272E+02  0.30218818726E+02  0.15556995495E+03  0.12509000000E+03 0.  0.
<mgrwt>
<rscale>  2 0.45497703E+03</rscale>
<asrwt>0</asrwt>
<pdfrwt beam="1">  1       21 0.46203581E-01 0.45497703E+03</pdfrwt>
<pdfrwt beam="2">  1       21 0.24222864E-01 0.45497703E+03</pdfrwt>
<totfact> 0.66792442E+04</totfact>
</mgrwt>
</event>
<event>
 6    0  0.1539652E-007  0.4393476E+03  0.7546771E-02  0.1030947E+00
         21   -1    0    0  502  501  0.00000000000E+00  0.00000000000E+00  0.10076543979E+04  0.10076543979E+04  0.00000000000E+00 0.  1.
         21   -1    0    0  501  502 -0.00000000000E+00 -0.00000000000E+00 -0.47890016640E+02  0.47890016640E+02  0.00000000000E+00 0.  1.
      99926    2    1    2    0    0  0.17763568394E-14  0.71054273576E-14  0.95976438130E+03  0.10555444146E+04  0.43934763404E+03 0.  0.
         25    1    3    3    0    0  0.14092553405E+02  0.62854748891E+02  0.17099445906E+03  0.22144058492E+03  0.12509000000E+03 0.  0.
         25    1    3    3    0    0 -0.11211911388E+02 -0.61779366005E+02  0.50363026589E+03  0.52271727524E+03  0.12509000000E+03 0.  0.
         25    1    3    3    0    0 -0.28806420164E+01 -0.10753828865E+01  0.28513965636E+03  0.31138655442E+03  0.12509000000E+03 0.  0.
<mgrwt>
<rscale>  2 0.43934763E+03</rscale>
<asrwt>0</asrwt>
<pdfrwt beam="1">  1       21 0.14818446E+00 0.43934763E+03</pdfrwt>
<pdfrwt beam="2">  1       21 0.70426502E-02 0.43934763E+03</pdfrwt>
<totfact> 0.41972354E+04</totfact>
</mgrwt>
</event>
<event>
 6    0  0.1539652E-007  0.4559522E+03  0.7546771E-02  0.1025962E+00
         21   -1    0    0  502  501  0.00000000000E+00  0.00000000000E+00  0.54253010877E+03  0.54253010877E+03  0.00000000000E+00 0.  1.
         21   -1    0    0  501  502 -0.00000000000E+00 -0.00000000000E+00 -0.95797652526E+02  0.95797652526E+02  0.00000000000E+00 0.  1.
      99926    2    1    2    0    0  0.00000000000E+00  0.00000000000E+00  0.44673245625E+03  0.63832776130E+03  0.45595223805E+03 0.  0.
         25    1    3    3    0    0 -0.61210025770E+02 -0.29501637512E+02  0.12935163917E+03  0.19234440082E+03  0.12509000000E+03 0.  0.
         25    1    3    3    0    0  0.68969967365E+02 -0.11945888443E+01  0.27548259365E+03  0.31031669460E+03  0.12509000000E+03 0.  0.
         25    1    3    3    0    0 -0.77599415948E+01  0.30696226356E+02  0.41898223429E+02  0.13566666589E+03  0.12509000000E+03 0.  0.
<mgrwt>
<rscale>  2 0.45595224E+03</rscale>
<asrwt>0</asrwt>
<pdfrwt beam="1">  1       21 0.79783838E-01 0.45595224E+03</pdfrwt>
<pdfrwt beam="2">  1       21 0.14087890E-01 0.45595224E+03</pdfrwt>
<totfact> 0.55957274E+04</totfact>
</mgrwt>
</event>
<event>
 6    0  0.1539652E-007  0.4511495E+03  0.7546771E-02  0.1027380E+00
         21   -1    0    0  502  501  0.00000000000E+00  0.00000000000E+00  0.30138105064E+02  0.30138105064E+02  0.00000000000E+00 0.  1.
         21   -1    0    0  501  502 -0.00000000000E+00 -0.00000000000E+00 -0.16883600719E+04  0.16883600719E+04  0.00000000000E+00 0.  1.
      99926    2    1    2    0    0  0.00000000000E+00  0.00000000000E+00 -0.16582219668E+04  0.17184981769E+04  0.45114952392E+03 0.  0.
         25    1    3    3    0    0  0.55909839915E+02 -0.37487928177E+01 -0.81537573555E+03  0.82681622013E+03  0.12509000000E+03 0.  0.
         25    1    3    3    0    0  0.34965342617E+02  0.55183075496E+01 -0.47932981645E+03  0.49664636105E+03  0.12509000000E+03 0.  0.
         25    1    3    3    0    0 -0.90875182532E+02 -0.17695147319E+01 -0.36351641481E+03  0.39503559576E+03  0.12509000000E+03 0.  0.
<mgrwt>
<rscale>  2 0.45114952E+03</rscale>
<asrwt>0</asrwt>
<pdfrwt beam="1">  1       21 0.44320726E-02 0.45114952E+03</pdfrwt>
<pdfrwt beam="2">  1       21 0.24828834E+00 0.45114952E+03</pdfrwt>
<totfact> 0.19454419E+04</totfact>
</mgrwt>
</event>
<event>
 6    0  0.1539652E-007  0.4601009E+03  0.7546771E-02  0.1024752E+00
         21   -1    0    0  502  501  0.00000000000E+00  0.00000000000E+00  0.82672960167E+02  0.82672960167E+02  0.00000000000E+00 0. -1.
         21   -1    0    0  501  502 -0.00000000000E+00 -0.00000000000E+00 -0.64015142343E+03  0.64015142343E+03  0.00000000000E+00 0. -1.
      99926    2    1    2    0    0  0.00000000000E+00 -0.22204460493E-15 -0.55747846326E+03  0.72282438360E+03  0.46010091558E+03 0.  0.
         25    1    3    3    0    0 -0.16090358923E+02 -0.84931398326E+00 -0.28682339791E+03  0.31332856664E+03  0.12509000000E+03 0.  0.
         25    1    3    3    0    0 -0.62700794012E+02 -0.11478890888E+01 -0.60275073404E+02  0.15235911457E+03  0.12509000000E+03 0.  0.
         25    1    3    3    0    0  0.78791152935E+02  0.19972030721E+01 -0.21037999195E+03  0.25713670239E+03  0.12509000000E+03 0.  0.
<mgrwt>
<rscale>  2 0.46010092E+03</rscale>
<asrwt>0</asrwt>
<pdfrwt beam="1">  1       21 0.12157788E-01 0.46010092E+03</pdfrwt>
<pdfrwt beam="2">  1       21 0.94139915E-01 0.46010092E+03</pdfrwt>
<totfact> 0.49658784E+04</totfact>
</mgrwt>
</event>
<event>
 6    0  0.1539652E-007  0.4425346E+03  0.7546771E-02  0.1029972E+00
         21   -1    0    0  502  501  0.00000000000E+00  0.00000000000E+00  0.11166385114E+03  0.11166385114E+03  0.00000000000E+00 0. -1.
         21   -1    0    0  501  502 -0.00000000000E+00 -0.00000000000E+00 -0.43845174643E+03  0.43845174643E+03  0.00000000000E+00 0. -1.
      99926    2    1    2    0    0  0.00000000000E+00  0.00000000000E+00 -0.32678789529E+03  0.55011559756E+03  0.44253456608E+03 0.  0.
         25    1    3    3    0    0 -0.90934117016E+02 -0.51500507593E+02 -0.10345093686E+03  0.19305678014E+03  0.12509000000E+03 0.  0.
         25    1    3    3    0    0  0.56481223861E+02  0.49524847686E+02 -0.14378298787E+03  0.20485090893E+03  0.12509000000E+03 0.  0.
         25    1    3    3    0    0  0.34452893155E+02  0.19756599070E+01 -0.79553970556E+02  0.15220790850E+03  0.12509000000E+03 0.  0.
<mgrwt>
<rscale>  2 0.44253457E+03</rscale>
<asrwt>0</asrwt>
<pdfrwt beam="1">  1       21 0.16421155E-01 0.44253457E+03</pdfrwt>
<pdfrwt beam="2">  1       21 0.64478197E-01 0.44253457E+03</pdfrwt>
<totfact> 0.68354925E+04</totfact>
</mgrwt>
</event>
<event>
 6    0  0.1539652E-007  0.4473656E+03  0.7546771E-02  0.1028511E+00
         21   -1    0    0  502  501  0.00000000000E+00  0.00000000000E+00  0.59396000805E+03  0.59396000805E+03  0.00000000000E+00 0. -1.
         21   -1    0    0  501  502 -0.00000000000E+00 -0.00000000000E+00 -0.84237969021E+02  0.84237969021E+02  0.00000000000E+00 0. -1.
      99926    2    1    2    0    0 -0.35527136788E-14  0.71054273576E-14  0.50972203903E+03  0.67819797707E+03  0.44736555414E+03 0.  0.
         25    1    3    3    0    0  0.24422176294E+02  0.53240785836E+02  0.21261030070E+03  0.25353830487E+03  0.12509000000E+03 0.  0.
         25    1    3    3    0    0 -0.43576306895E+02  0.42296400080E+02  0.18042352527E+03  0.22778945663E+03  0.12509000000E+03 0.  0.
         25    1    3    3    0    0  0.19154130601E+02 -0.95537185916E+02  0.11668821306E+03  0.19687021557E+03  0.12509000000E+03 0.  0.
<mgrwt>
<rscale>  2 0.44736555E+03</rscale>
<asrwt>0</asrwt>
<pdfrwt beam="1">  1       21 0.87347058E-01 0.44736555E+03</pdfrwt>
<pdfrwt beam="2">  1       21 0.12387937E-01 0.44736555E+03</pdfrwt>
<totfact> 0.57481678E+04</totfact>
</mgrwt>
</event>
<event>
 6    0  0.1539652E-007  0.4412891E+03  0.7546771E-02  0.1030352E+00
         21   -1    0    0  502  501  0.00000000000E+00  0.00000000000E+00  0.77914010004E+03  0.77914010004E+03  0.00000000000E+00 0.  1.
         21   -1    0    0  501  502 -0.00000000000E+00 -0.00000000000E+00 -0.62484282469E+02  0.62484282469E+02  0.00000000000E+00 0.  1.
      99926    2    1    2    0    0 -0.71054273576E-14  0.71054273576E-14  0.71665581757E+03  0.84162438251E+03  0.44128906669E+03 0.  0.
         25    1    3    3    0    0 -0.65049813240E+02  0.48099599990E+02  0.30293440265E+03  0.33758230127E+03  0.12509000000E+03 0.  0.
         25    1    3    3    0    0  0.48616361932E+02  0.24776096988E+02  0.25040443737E+03  0.28517941017E+03  0.12509000000E+03 0.  0.
         25    1    3    3    0    0  0.16433451308E+02 -0.72875696977E+02  0.16331697755E+03  0.21886267107E+03  0.12509000000E+03 0.  0.
<mgrwt>
<rscale>  2 0.44128907E+03</rscale>
<asrwt>0</asrwt>
<pdfrwt beam="1">  1       21 0.11457942E+00 0.44128907E+03</pdfrwt>
<pdfrwt beam="2">  1       21 0.91888655E-02 0.44128907E+03</pdfrwt>
<totfact> 0.51094543E+04</totfact>
</mgrwt>
</event>
<event>
 6    0  0.1539652E-007  0.4521887E+03  0.7546771E-02  0.1027071E+00
         21   -1    0    0  502  501  0.00000000000E+00  0.00000000000E+00  0.13112621027E+04  0.13112621027E+04  0.00000000000E+00 0. -1.
         21   -1    0    0  501  502 -0.00000000000E+00 -0.00000000000E+00 -0.38984308734E+02  0.38984308734E+02  0.00000000000E+00 0. -1.
      99926    2    1    2    0    0 -0.71054273576E-14  0.88817841970E-15  0.12722777940E+04  0.13502464114E+04  0.45218866258E+03 0.  0.
         25    1    3    3    0    0  0.43862477010E+02 -0.51354783985E+01  0.21318096540E+03  0.25108548770E+03  0.12509000000E+03 0.  0.
         25    1    3    3    0    0 -0.80587015656E+02 -0.62541519173E+01  0.39177485238E+03  0.41912817200E+03  0.12509000000E+03 0.  0.
         25    1    3    3    0    0  0.36724538646E+02  0.11389630316E+02  0.66732197618E+03  0.68003275172E+03  0.12509000000E+03 0.  0.
<mgrwt>
<rscale>  2 0.45218866E+03</rscale>
<asrwt>0</asrwt>
<pdfrwt beam="1">  1       21 0.19283263E+00 0.45218866E+03</pdfrwt>
<pdfrwt beam="2">  1       21 0.57329875E-02 0.45218866E+03</pdfrwt>
<totfact> 0.28301985E+04</totfact>
</mgrwt>
</event>
<event>
 6    0  0.1539652E-007  0.4519262E+03  0.7546771E-02  0.1027149E+00
         21   -1    0    0  502  501  0.00000000000E+00  0.00000000000E+00  0.42838963375E+03  0.42838963375E+03  0.00000000000E+00 0.  1.
         21   -1    0    0  501  502 -0.00000000000E+00 -0.00000000000E+00 -0.11918896671E+03  0.11918896671E+03  0.00000000000E+00 0.  1.
      99926    2    1    2    0    0  0.71054273576E-14  0.00000000000E+00  0.30920066704E+03  0.54757860046E+03  0.45192617890E+03 0.  0.
         25    1    3    3    0    0  0.16211369526E+02  0.52475428790E+02  0.13123906083E+03  0.18944043474E+03  0.12509000000E+03 0.  0.
         25    1    3    3    0    0 -0.52783794673E+02  0.36394197274E+02  0.34088947666E+02  0.14463827650E+03  0.12509000000E+03 0.  0.
         25    1    3    3    0    0  0.36572425147E+02 -0.88869626064E+02  0.14387265855E+03  0.21349988922E+03  0.12509000000E+03 0.  0.
<mgrwt>
<rscale>  2 0.45192618E+03</rscale>
<asrwt>0</asrwt>
<pdfrwt beam="1">  1       21 0.62998475E-01 0.45192618E+03</pdfrwt>
<pdfrwt beam="2">  1       21 0.17527789E-01 0.45192618E+03</pdfrwt>
<totfact> 0.63558573E+04</totfact>
</mgrwt>
</event>
<event>
 6    0  0.1539652E-007  0.4489411E+03  0.7546771E-02  0.1028038E+00
         21   -1    0    0  502  501  0.00000000000E+00  0.00000000000E+00  0.12902046659E+03  0.12902046659E+03  0.00000000000E+00 0.  1.
         21   -1    0    0  501  502 -0.00000000000E+00 -0.00000000000E+00 -0.39053518619E+03  0.39053518619E+03  0.00000000000E+00 0.  1.
      99926    2    1    2    0    0 -0.71054273576E-14  0.35527136788E-14 -0.26151471960E+03  0.51955565279E+03  0.44894111838E+03 0.  0.
         25    1    3    3    0    0 -0.53389374713E+02  0.31839821518E+02  0.69356643985E+00  0.13968603617E+03  0.12509000000E+03 0.  0.
         25    1    3    3    0    0 -0.20989175590E+02 -0.18368732930E+02 -0.11063041536E+03  0.16930609187E+03  0.12509000000E+03 0.  0.
         25    1    3    3    0    0  0.74378550303E+02 -0.13471088588E+02 -0.15157787068E+03  0.21056352474E+03  0.12509000000E+03 0.  0.
<mgrwt>
<rscale>  2 0.44894112E+03</rscale>
<asrwt>0</asrwt>
<pdfrwt beam="1">  1       21 0.18973598E-01 0.44894112E+03</pdfrwt>
<pdfrwt beam="2">  1       21 0.57431645E-01 0.44894112E+03</pdfrwt>
<totfact> 0.67083841E+04</totfact>
</mgrwt>
</event>
<event>
 6    0  0.1539652E-007  0.4598614E+03  0.7546771E-02  0.1024821E+00
         21   -1    0    0  502  501  0.00000000000E+00  0.00000000000E+00  0.49416076980E+03  0.49416076980E+03  0.00000000000E+00 0. -1.
         21   -1    0    0  501  502 -0.00000000000E+00 -0.00000000000E+00 -0.10698565865E+03  0.10698565865E+03  0.00000000000E+00 0. -1.
      99926    2    1    2    0    0 -0.88817841970E-15  0.71054273576E-14  0.38717511115E+03  0.60114642845E+03  0.45986135057E+03 0.  0.
         25    1    3    3    0    0  0.79233587628E+01  0.35977483275E+02  0.13239388704E+03  0.18583005231E+03  0.12509000000E+03 0.  0.
         25    1    3    3    0    0 -0.50766223006E+01 -0.90246118273E+02  0.37568941519E+02  0.15883660606E+03  0.12509000000E+03 0.  0.
         25    1    3    3    0    0 -0.28467364622E+01  0.54268634998E+02  0.21721228259E+03  0.25647977008E+03  0.12509000000E+03 0.  0.
<mgrwt>
<rscale>  2 0.45986135E+03</rscale>
<asrwt>0</asrwt>
<pdfrwt beam="1">  1       21 0.72670701E-01 0.45986135E+03</pdfrwt>
<pdfrwt beam="2">  1       21 0.15733185E-01 0.45986135E+03</pdfrwt>
<totfact> 0.56409615E+04</totfact>
</mgrwt>
</event>
<event>
 6    0  0.1539652E-007  0.4593290E+03  0.7546771E-02  0.1024976E+00
         21   -1    0    0  502  501  0.00000000000E+00  0.00000000000E+00  0.64635760500E+02  0.64635760500E+02  0.00000000000E+00 0.  1.
         21   -1    0    0  501  502 -0.00000000000E+00 -0.00000000000E+00 -0.81604633968E+03  0.81604633968E+03  0.00000000000E+00 0.  1.
      99926    2    1    2    0    0  0.00000000000E+00 -0.16098233857E-14 -0.75141057918E+03  0.88068210018E+03  0.45932897043E+03 0.  0.
         25    1    3    3    0    0  0.38858825076E+02  0.56847312848E+02 -0.35862900715E+03  0.38601023061E+03  0.12509000000E+03 0.  0.
         25    1    3    3    0    0 -0.83223948139E+02  0.37020891780E+00 -0.15119837822E+03  0.21315445169E+03  0.12509000000E+03 0.  0.
         25    1    3    3    0    0  0.44365123063E+02 -0.57217521766E+02 -0.24158319381E+03  0.28151741789E+03  0.12509000000E+03 0.  0.
<mgrwt>
<rscale>  2 0.45932897E+03</rscale>
<asrwt>0</asrwt>
<pdfrwt beam="1">  1       21 0.95052590E-02 0.45932897E+03</pdfrwt>
<pdfrwt beam="2">  1       21 0.12000681E+00 0.45932897E+03</pdfrwt>
<totfact> 0.42616168E+04</totfact>
</mgrwt>
</event>
<event>
 6    0  0.1539652E-007  0.4563186E+03  0.7546771E-02  0.1025854E+00
         21   -1    0    0  502  501  0.00000000000E+00  0.00000000000E+00  0.14856646525E+04  0.14856646525E+04  0.00000000000E+00 0.  1.
         21   -1    0    0  501  502 -0.00000000000E+00 -0.00000000000E+00 -0.35039306308E+02  0.35039306308E+02  0.00000000000E+00 0.  1.
      99926    2    1    2    0    0  0.35527136788E-14  0.00000000000E+00  0.14506253462E+04  0.15207039588E+04  0.45631856780E+03 0.  0.
         25    1    3    3    0    0 -0.46976443681E+02  0.20322859051E+02  0.74548647488E+03  0.75763935826E+03  0.12509000000E+03 0.  0.
         25    1    3    3    0    0  0.59999780315E+02  0.49997694503E+02  0.36487331580E+03  0.39354769441E+03  0.12509000000E+03 0.  0.
         25    1    3    3    0    0 -0.13023336633E+02 -0.70320553555E+02  0.34026555549E+03  0.36951690612E+03  0.12509000000E+03 0.  0.
<mgrwt>
<rscale>  2 0.45631857E+03</rscale>
<asrwt>0</asrwt>
<pdfrwt beam="1">  1       21 0.21848005E+00 0.45631857E+03</pdfrwt>
<pdfrwt beam="2">  1       21 0.51528402E-02 0.45631857E+03</pdfrwt>
<totfact> 0.23039381E+04</totfact>
</mgrwt>
</event>
<event>
 6    0  0.1539652E-007  0.4557608E+03  0.7546771E-02  0.1026018E+00
         21   -1    0    0  502  501  0.00000000000E+00  0.00000000000E+00  0.56729753995E+03  0.56729753995E+03  0.00000000000E+00 0.  1.
         21   -1    0    0  501  502 -0.00000000000E+00 -0.00000000000E+00 -0.91538334991E+02  0.91538334991E+02  0.00000000000E+00 0.  1.
      99926    2    1    2    0    0  0.12878587086E-13  0.00000000000E+00  0.47575920496E+03  0.65883587494E+03  0.45576078046E+03 0.  0.
         25    1    3    3    0    0 -0.92199921715E+02 -0.50146545504E+02  0.13358010311E+03  0.21096600114E+03  0.12509000000E+03 0.  0.
         25    1    3    3    0    0  0.39350055678E+01  0.51781737021E+02  0.17269050203E+03  0.21946833518E+03  0.12509000000E+03 0.  0.
         25    1    3    3    0    0  0.88264916147E+02 -0.16351915170E+01  0.16948859982E+03  0.22840153862E+03  0.12509000000E+03 0.  0.
<mgrwt>
<rscale>  2 0.45576078E+03</rscale>
<asrwt>0</asrwt>
<pdfrwt beam="1">  1       21 0.83426107E-01 0.45576078E+03</pdfrwt>
<pdfrwt beam="2">  1       21 0.13461520E-01 0.45576078E+03</pdfrwt>
<totfact> 0.54865114E+04</totfact>
</mgrwt>
</event>
<event>
 6    0  0.1539652E-007  0.4517403E+03  0.7546771E-02  0.1027204E+00
         21   -1    0    0  502  501  0.00000000000E+00  0.00000000000E+00  0.12159959908E+03  0.12159959908E+03  0.00000000000E+00 0.  1.
         21   -1    0    0  501  502 -0.00000000000E+00 -0.00000000000E+00 -0.41955180399E+03  0.41955180399E+03  0.00000000000E+00 0.  1.
      99926    2    1    2    0    0 -0.71054273576E-14  0.00000000000E+00 -0.29795220491E+03  0.54115140306E+03  0.45174032876E+03 0.  0.
         25    1    3    3    0    0 -0.88107930547E+02  0.14846774105E+02 -0.42141272157E+02  0.15939519769E+03  0.12509000000E+03 0.  0.
         25    1    3    3    0    0  0.43264535728E+02  0.41663141017E+02 -0.13262979405E+03  0.19195261848E+03  0.12509000000E+03 0.  0.
         25    1    3    3    0    0  0.44843394819E+02 -0.56509915122E+02 -0.12318113871E+03  0.18980358690E+03  0.12509000000E+03 0.  0.
<mgrwt>
<rscale>  2 0.45174033E+03</rscale>
<asrwt>0</asrwt>
<pdfrwt beam="1">  1       21 0.17882294E-01 0.45174033E+03</pdfrwt>
<pdfrwt beam="2">  1       21 0.61698795E-01 0.45174033E+03</pdfrwt>
<totfact> 0.64092436E+04</totfact>
</mgrwt>
</event>
