<event>
 7    0  0.4788920E-002  0.4528445E+03  0.7546771E-02  0.1026877E+00
         21   -1    0    0  502  501  0.00000000000E+00  0.00000000000E+00  0.10155642372E+03  0.10155642372E+03  0.00000000000E+00 0.  1.
         21   -1    0    0  501  502 -0.00000000000E+00 -0.00000000000E+00 -0.50481339411E+03  0.50481339411E+03  0.00000000000E+00 0.  1.
      99926    2    1    2    0    0  0.00000000000E+00  0.00000000000E+00 -0.40325697038E+03  0.60636981783E+03  0.45284453382E+03 0.  0.
      99925    2    3    3    0    0 -0.45693986971E+02 -0.99446104088E+02 -0.22667825384E+03  0.36387235537E+03  0.26275957104E+03 0.  0.
         25    1    3    3    0    0  0.45693986971E+02  0.99446104088E+02 -0.17657871654E+03  0.24249746246E+03  0.12509000000E+03 0.  0.
         25    1    4    4    0    0 -0.11225983810E+02 -0.72951024774E+02 -0.78346018469E+02  0.16502569933E+03  0.12509000000E+03 0.  0.
         25    1    4    4    0    0 -0.34468003161E+02 -0.26495079315E+02 -0.14833223537E+03  0.19884665604E+03  0.12509000000E+03 0.  0.
<mgrwt>
<rscale>  2 0.45284453E+03</rscale>
<asrwt>0</asrwt>
<pdfrwt beam="1">  1       21 0.14934768E-01 0.45284453E+03</pdfrwt>
<pdfrwt beam="2">  1       21 0.74237264E-01 0.45284453E+03</pdfrwt>
<totfact> 0.59291041E+04</totfact>
</mgrwt>
</event>
<event>
 7    0  0.4788920E-002  0.4519739E+03  0.7546771E-02  0.1027135E+00
         21   -1    0    0  502  501  0.00000000000E+00  0.00000000000E+00  0.83624032765E+03  0.83624032765E+03  0.00000000000E+00 0.  1.
         21   -1    0    0  501  502 -0.00000000000E+00 -0.00000000000E+00 -0.61071093398E+02  0.61071093398E+02  0.00000000000E+00 0.  1.
      99926    2    1    2    0    0  0.00000000000E+00  0.00000000000E+00  0.77516923425E+03  0.89731142105E+03  0.45197394240E+03 0.  0.
      99925    2    3    3    0    0  0.10909117455E+03  0.15338382511E+02  0.50423979631E+03  0.57921329344E+03  0.26285759790E+03 0.  0.
         25    1    3    3    0    0 -0.10909117455E+03 -0.15338382511E+02  0.27092943795E+03  0.31809812761E+03  0.12509000000E+03 0.  0.
         25    1    4    4    0    0  0.43099620310E+02  0.21790740614E+01  0.16548562493E+03  0.21188517124E+03  0.12509000000E+03 0.  0.
         25    1    4    4    0    0  0.65991554242E+02  0.13159308449E+02  0.33875417137E+03  0.36732812219E+03  0.12509000000E+03 0.  0.
<mgrwt>
<rscale>  2 0.45197394E+03</rscale>
<asrwt>0</asrwt>
<pdfrwt beam="1">  1       21 0.12297651E+00 0.45197394E+03</pdfrwt>
<pdfrwt beam="2">  1       21 0.89810436E-02 0.45197394E+03</pdfrwt>
<totfact> 0.44392631E+04</totfact>
</mgrwt>
</event>
<event>
 7    0  0.4788920E-002  0.4684447E+03  0.7546771E-02  0.1022360E+00
         21   -1    0    0  502  501  0.00000000000E+00  0.00000000000E+00  0.83494953947E+02  0.83494953947E+02  0.00000000000E+00 0. -1.
         21   -1    0    0  501  502 -0.00000000000E+00 -0.00000000000E+00 -0.65704707682E+03  0.65704707682E+03  0.00000000000E+00 0. -1.
      99926    2    1    2    0    0  0.00000000000E+00  0.00000000000E+00 -0.57355212287E+03  0.74054203076E+03  0.46844472639E+03 0.  0.
      99925    2    3    3    0    0  0.10987853182E+03 -0.40687284069E+02 -0.42711049751E+03  0.51510599864E+03  0.26302483897E+03 0.  0.
         25    1    3    3    0    0 -0.10987853182E+03  0.40687284069E+02 -0.14644162536E+03  0.22543603212E+03  0.12509000000E+03 0.  0.
         25    1    4    4    0    0  0.14715555834E+02 -0.18834204754E+02 -0.21986469198E+03  0.25408515449E+03  0.12509000000E+03 0.  0.
         25    1    4    4    0    0  0.95162975985E+02 -0.21853079315E+02 -0.20724580553E+03  0.26102084416E+03  0.12509000000E+03 0.  0.
<mgrwt>
<rscale>  2 0.46844473E+03</rscale>
<asrwt>0</asrwt>
<pdfrwt beam="1">  1       21 0.12278670E-01 0.46844473E+03</pdfrwt>
<pdfrwt beam="2">  1       21 0.96624569E-01 0.46844473E+03</pdfrwt>
<totfact> 0.45728013E+04</totfact>
</mgrwt>
</event>
<event>
 7    0  0.4788920E-002  0.4391913E+03  0.7546771E-02  0.1030995E+00
         21   -1    0    0  502  501  0.00000000000E+00  0.00000000000E+00  0.77277595958E+03  0.77277595958E+03  0.00000000000E+00 0.  1.
         21   -1    0    0  501  502 -0.00000000000E+00 -0.00000000000E+00 -0.62401343122E+02  0.62401343122E+02  0.00000000000E+00 0.  1.
      99926    2    1    2    0    0 -0.35527136788E-14  0.00000000000E+00  0.71037461645E+03  0.83517730270E+03  0.43919133785E+03 0.  0.
      99925    2    3    3    0    0 -0.31873393040E+02 -0.82043305192E+02  0.37271963738E+03  0.46449494528E+03  0.26284712094E+03 0.  0.
         25    1    3    3    0    0  0.31873393040E+02  0.82043305192E+02  0.33765497907E+03  0.37068235742E+03  0.12509000000E+03 0.  0.
         25    1    4    4    0    0 -0.11576672392E+02 -0.33366348852E+02  0.24871161196E+03  0.28062841374E+03  0.12509000000E+03 0.  0.
         25    1    4    4    0    0 -0.20296720648E+02 -0.48676956339E+02  0.12400802543E+03  0.18386653153E+03  0.12509000000E+03 0.  0.
<mgrwt>
<rscale>  2 0.43919134E+03</rscale>
<asrwt>0</asrwt>
<pdfrwt beam="1">  1       21 0.11364352E+00 0.43919134E+03</pdfrwt>
<pdfrwt beam="2">  1       21 0.91766686E-02 0.43919134E+03</pdfrwt>
<totfact> 0.52301192E+04</totfact>
</mgrwt>
</event>
<event>
 7    0  0.4788920E-002  0.4521045E+03  0.7546771E-02  0.1027096E+00
         21   -1    0    0  502  501  0.00000000000E+00  0.00000000000E+00  0.29955029349E+02  0.29955029349E+02  0.00000000000E+00 0. -1.
         21   -1    0    0  501  502 -0.00000000000E+00 -0.00000000000E+00 -0.17058778500E+04  0.17058778500E+04  0.00000000000E+00 0. -1.
      99926    2    1    2    0    0  0.00000000000E+00 -0.35527136788E-14 -0.16759228206E+04  0.17358328793E+04  0.45210450589E+03 0.  0.
      99925    2    3    3    0    0  0.17565144225E+02 -0.28292652678E+02 -0.14616644245E+04  0.14855067383E+04  0.26297979220E+03 0.  0.
         25    1    3    3    0    0 -0.17565144225E+02  0.28292652678E+02 -0.21425839615E+03  0.25032614108E+03  0.12509000000E+03 0.  0.
         25    1    4    4    0    0 -0.10240673907E+02  0.20160189127E+02 -0.64041520556E+03  0.65290921899E+03  0.12509000000E+03 0.  0.
         25    1    4    4    0    0  0.27805818132E+02 -0.48452841805E+02 -0.82124921893E+03  0.83259751927E+03  0.12509000000E+03 0.  0.
<mgrwt>
<rscale>  2 0.45210451E+03</rscale>
<asrwt>0</asrwt>
<pdfrwt beam="1">  1       21 0.44051501E-02 0.45210451E+03</pdfrwt>
<pdfrwt beam="2">  1       21 0.25086446E+00 0.45210451E+03</pdfrwt>
<totfact> 0.18948006E+04</totfact>
</mgrwt>
</event>
<event>
 7    0  0.4788920E-002  0.4555160E+03  0.7546771E-02  0.1026090E+00
         21   -1    0    0  502  501  0.00000000000E+00  0.00000000000E+00  0.93168154541E+03  0.93168154541E+03  0.00000000000E+00 0. -1.
         21   -1    0    0  501  502 -0.00000000000E+00 -0.00000000000E+00 -0.55677497393E+02  0.55677497393E+02  0.00000000000E+00 0. -1.
      99926    2    1    2    0    0  0.00000000000E+00 -0.71054273576E-14  0.87600404801E+03  0.98735904280E+03  0.45551595720E+03 0.  0.
      99925    2    3    3    0    0 -0.32328051658E+02  0.36442643139E+02  0.77355127453E+03  0.81848853603E+03  0.26299950593E+03 0.  0.
         25    1    4    4    0    0 -0.24695552505E+02  0.37829678356E+02  0.29143095924E+03  0.32034429445E+03  0.12509000000E+03 0.  0.
         25    1    3    3    0    0  0.32328051658E+02 -0.36442643139E+02  0.10245277348E+03  0.16887050677E+03  0.12509000000E+03 0.  0.
         25    1    4    4    0    0 -0.76324991527E+01 -0.13870352167E+01  0.48212031529E+03  0.49814424158E+03  0.12509000000E+03 0.  0.
<mgrwt>
<rscale>  2 0.45551596E+03</rscale>
<asrwt>0</asrwt>
<pdfrwt beam="1">  1       21 0.13701198E+00 0.45551596E+03</pdfrwt>
<pdfrwt beam="2">  1       21 0.81878679E-02 0.45551596E+03</pdfrwt>
<totfact> 0.39502553E+04</totfact>
</mgrwt>
</event>
<event>
 7    0  0.4788920E-002  0.4548303E+03  0.7546771E-02  0.1026291E+00
         21   -1    0    0  502  501  0.00000000000E+00  0.00000000000E+00  0.91610367495E+03  0.91610367495E+03  0.00000000000E+00 0. -1.
         21   -1    0    0  501  502 -0.00000000000E+00 -0.00000000000E+00 -0.56453923131E+02  0.56453923131E+02  0.00000000000E+00 0. -1.
      99926    2    1    2    0    0  0.00000000000E+00 -0.71054273576E-14  0.85964975182E+03  0.97255759808E+03  0.45483028240E+03 0.  0.
      99925    2    3    3    0    0 -0.98237995991E+02  0.44289735102E+02  0.46877655728E+03  0.54824445099E+03  0.26307457666E+03 0.  0.
         25    1    3    3    0    0  0.98237995991E+02 -0.44289735102E+02  0.39087319453E+03  0.42431314709E+03  0.12509000000E+03 0.  0.
         25    1    4    4    0    0 -0.58363234415E+02  0.23741460147E+02  0.31668225649E+03  0.34627313458E+03  0.12509000000E+03 0.  0.
         25    1    4    4    0    0 -0.39874761576E+02  0.20548274955E+02  0.15209430080E+03  0.20197131640E+03  0.12509000000E+03 0.  0.
<mgrwt>
<rscale>  2 0.45483028E+03</rscale>
<asrwt>0</asrwt>
<pdfrwt beam="1">  1       21 0.13472112E+00 0.45483028E+03</pdfrwt>
<pdfrwt beam="2">  1       21 0.83020481E-02 0.45483028E+03</pdfrwt>
<totfact> 0.40294062E+04</totfact>
</mgrwt>
</event>
<event>
 7    0  0.4788920E-002  0.4606264E+03  0.7546771E-02  0.1024600E+00
         21   -1    0    0  502  501  0.00000000000E+00  0.00000000000E+00  0.15201811448E+04  0.15201811448E+04  0.00000000000E+00 0.  1.
         21   -1    0    0  501  502 -0.00000000000E+00 -0.00000000000E+00 -0.34893324943E+02  0.34893324943E+02  0.00000000000E+00 0.  1.
      99926    2    1    2    0    0  0.00000000000E+00  0.35527136788E-14  0.14852878198E+04  0.15550744697E+04  0.46062641981E+03 0.  0.
      99925    2    3    3    0    0  0.10952459338E+03 -0.27420477469E+02  0.81065517380E+03  0.85971540108E+03  0.26306128736E+03 0.  0.
         25    1    4    4    0    0  0.82449246574E+02  0.11123550989E+02  0.37345806829E+03  0.40254198354E+03  0.12509000000E+03 0.  0.
         25    1    3    3    0    0 -0.10952459338E+03  0.27420477469E+02  0.67463264601E+03  0.69535906861E+03  0.12509000000E+03 0.  0.
         25    1    4    4    0    0  0.27075346809E+02 -0.38544028458E+02  0.43719710551E+03  0.45717341754E+03  0.12509000000E+03 0.  0.
<mgrwt>
<rscale>  2 0.46062642E+03</rscale>
<asrwt>0</asrwt>
<pdfrwt beam="1">  1       21 0.22355601E+00 0.46062642E+03</pdfrwt>
<pdfrwt beam="2">  1       21 0.51313723E-02 0.46062642E+03</pdfrwt>
<totfact> 0.21505897E+04</totfact>
</mgrwt>
</event>
<event>
 7    0  0.4788920E-002  0.4617854E+03  0.7546771E-02  0.1024265E+00
         21   -1    0    0  502  501  0.00000000000E+00  0.00000000000E+00  0.16606103814E+03  0.16606103814E+03  0.00000000000E+00 0.  1.
         21   -1    0    0  501  502 -0.00000000000E+00 -0.00000000000E+00 -0.32103517181E+03  0.32103517181E+03  0.00000000000E+00 0.  1.
      99926    2    1    2    0    0  0.00000000000E+00  0.00000000000E+00 -0.15497413367E+03  0.48709620995E+03  0.46178537833E+03 0.  0.
      99925    2    3    3    0    0 -0.11418540072E+03 -0.34572887868E+02 -0.91817475778E+02  0.30305854573E+03  0.26302175380E+03 0.  0.
         25    1    4    4    0    0 -0.62177469891E+02  0.72716815802E+01 -0.12108786223E+02  0.14040315495E+03  0.12509000000E+03 0.  0.
         25    1    4    4    0    0 -0.52007930829E+02 -0.41844569448E+02 -0.79708689555E+02  0.16265539079E+03  0.12509000000E+03 0.  0.
         25    1    3    3    0    0  0.11418540072E+03  0.34572887868E+02 -0.63156657894E+02  0.18403766421E+03  0.12509000000E+03 0.  0.
<mgrwt>
<rscale>  2 0.46178538E+03</rscale>
<asrwt>0</asrwt>
<pdfrwt beam="1">  1       21 0.24420741E-01 0.46178538E+03</pdfrwt>
<pdfrwt beam="2">  1       21 0.47211055E-01 0.46178538E+03</pdfrwt>
<totfact> 0.62739055E+04</totfact>
</mgrwt>
</event>
<event>
 7    0  0.4788920E-002  0.4529484E+03  0.7546771E-02  0.1026846E+00
         21   -1    0    0  502  501  0.00000000000E+00  0.00000000000E+00  0.55538698907E+03  0.55538698907E+03  0.00000000000E+00 0. -1.
         21   -1    0    0  501  502 -0.00000000000E+00 -0.00000000000E+00 -0.92351026342E+02  0.92351026342E+02  0.00000000000E+00 0. -1.
      99926    2    1    2    0    0  0.35527136788E-14  0.00000000000E+00  0.46303596273E+03  0.64773801542E+03  0.45294837877E+03 0.  0.
      99925    2    3    3    0    0 -0.29713015915E+02  0.69372452377E+02  0.17485415632E+03  0.32464102981E+03  0.26291143335E+03 0.  0.
         25    1    4    4    0    0  0.24132866662E+01  0.46657461779E+02  0.12916084842E+03  0.18577614367E+03  0.12509000000E+03 0.  0.
         25    1    4    4    0    0 -0.32126302581E+02  0.22714990598E+02  0.45693307904E+02  0.13886488614E+03  0.12509000000E+03 0.  0.
         25    1    3    3    0    0  0.29713015915E+02 -0.69372452377E+02  0.28818180641E+03  0.32309698561E+03  0.12509000000E+03 0.  0.
<mgrwt>
<rscale>  2 0.45294838E+03</rscale>
<asrwt>0</asrwt>
<pdfrwt beam="1">  1       21 0.81674556E-01 0.45294838E+03</pdfrwt>
<pdfrwt beam="2">  1       21 0.13581034E-01 0.45294838E+03</pdfrwt>
<totfact> 0.56744905E+04</totfact>
</mgrwt>
</event>
<event>
 7    0  0.4788920E-002  0.4508086E+03  0.7546771E-02  0.1027481E+00
         21   -1    0    0  502  501  0.00000000000E+00  0.00000000000E+00  0.23994286165E+03  0.23994286165E+03  0.00000000000E+00 0. -1.
         21   -1    0    0  501  502 -0.00000000000E+00 -0.00000000000E+00 -0.21174667224E+03  0.21174667224E+03  0.00000000000E+00 0. -1.
      99926    2    1    2    0    0  0.00000000000E+00  0.00000000000E+00  0.28196189408E+02  0.45168953389E+03  0.45080861785E+03 0.  0.
      99925    2    3    3    0    0  0.85954948836E+02  0.62417971031E+02 -0.73530103822E+01  0.28377434683E+03  0.26303907851E+03 0.  0.
         25    1    4    4    0    0  0.43635424815E+02  0.63856227750E+02  0.21401468983E+02  0.14861762714E+03  0.12509000000E+03 0.  0.
         25    1    3    3    0    0 -0.85954948836E+02 -0.62417971031E+02  0.35549199790E+02  0.16791518705E+03  0.12509000000E+03 0.  0.
         25    1    4    4    0    0  0.42319524021E+02 -0.14382567184E+01 -0.28754479365E+02  0.13515671970E+03  0.12509000000E+03 0.  0.
<mgrwt>
<rscale>  2 0.45080862E+03</rscale>
<asrwt>0</asrwt>
<pdfrwt beam="1">  1       21 0.35285715E-01 0.45080862E+03</pdfrwt>
<pdfrwt beam="2">  1       21 0.31139217E-01 0.45080862E+03</pdfrwt>
<totfact> 0.71138459E+04</totfact>
</mgrwt>
</event>
<event>
 7    0  0.4788920E-002  0.4618350E+03  0.7546771E-02  0.1024250E+00
         21   -1    0    0  502  501  0.00000000000E+00  0.00000000000E+00  0.31063729234E+02  0.31063729234E+02  0.00000000000E+00 0.  1.
         21   -1    0    0  501  502 -0.00000000000E+00 -0.00000000000E+00 -0.17165646825E+04  0.17165646825E+04  0.00000000000E+00 0.  1.
      99926    2    1    2    0    0 -0.14210854715E-13  0.00000000000E+00 -0.16855009533E+04  0.17476284117E+04  0.46183503769E+03 0.  0.
      99925    2    3    3    0    0 -0.11554496432E+03  0.99510479686E+01 -0.95874766584E+03  0.10011248880E+04  0.26382625417E+03 0.  0.
         25    1    3    3    0    0  0.11554496432E+03 -0.99510479686E+01 -0.72675328742E+03  0.74650352378E+03  0.12509000000E+03 0.  0.
         25    1    4    4    0    0 -0.75182256734E+02 -0.16663438347E+02 -0.38910623538E+03  0.41591010136E+03  0.12509000000E+03 0.  0.
         25    1    4    4    0    0 -0.40362707582E+02  0.26614486316E+02 -0.56964143046E+03  0.58521478659E+03  0.12509000000E+03 0.  0.
<mgrwt>
<rscale>  2 0.46183504E+03</rscale>
<asrwt>0</asrwt>
<pdfrwt beam="1">  1       21 0.45681945E-02 0.46183504E+03</pdfrwt>
<pdfrwt beam="2">  1       21 0.25243604E+00 0.46183504E+03</pdfrwt>
<totfact> 0.17348816E+04</totfact>
</mgrwt>
</event>
<event>
 7    0  0.4788920E-002  0.4442781E+03  0.7546771E-02  0.1029442E+00
         21   -1    0    0  502  501  0.00000000000E+00  0.00000000000E+00  0.47939610092E+03  0.47939610092E+03  0.00000000000E+00 0. -1.
         21   -1    0    0  501  502 -0.00000000000E+00 -0.00000000000E+00 -0.10293315781E+03  0.10293315781E+03  0.00000000000E+00 0. -1.
      99926    2    1    2    0    0  0.00000000000E+00  0.00000000000E+00  0.37646294311E+03  0.58232925873E+03  0.44427808638E+03 0.  0.
      99925    2    3    3    0    0  0.74274713601E+02  0.67776855505E+02  0.21149838138E+03  0.35217441966E+03  0.26303007682E+03 0.  0.
         25    1    4    4    0    0  0.15201915140E+02  0.49420060491E+02  0.14236105911E+03  0.19643731787E+03  0.12509000000E+03 0.  0.
         25    1    3    3    0    0 -0.74274713601E+02 -0.67776855505E+02  0.16496456173E+03  0.23015483907E+03  0.12509000000E+03 0.  0.
         25    1    4    4    0    0  0.59072798461E+02  0.18356795014E+02  0.69137322266E+02  0.15573710178E+03  0.12509000000E+03 0.  0.
<mgrwt>
<rscale>  2 0.44427809E+03</rscale>
<asrwt>0</asrwt>
<pdfrwt beam="1">  1       21 0.70499426E-01 0.44427809E+03</pdfrwt>
<pdfrwt beam="2">  1       21 0.15137229E-01 0.44427809E+03</pdfrwt>
<totfact> 0.65126125E+04</totfact>
</mgrwt>
</event>
<event>
 7    0  0.4788920E-002  0.4507374E+03  0.7546771E-02  0.1027502E+00
         21   -1    0    0  502  501  0.00000000000E+00  0.00000000000E+00  0.19228982031E+04  0.19228982031E+04  0.00000000000E+00 0. -1.
         21   -1    0    0  501  502 -0.00000000000E+00 -0.00000000000E+00 -0.26413804757E+02  0.26413804757E+02  0.00000000000E+00 0. -1.
      99926    2    1    2    0    0  0.00000000000E+00  0.00000000000E+00  0.18964843983E+04  0.19493120078E+04  0.45073743001E+03 0.  0.
      99925    2    3    3    0    0  0.50786737994E+02  0.21948692849E+02  0.78974991493E+03  0.83415741645E+03  0.26277866999E+03 0.  0.
         25    1    4    4    0    0  0.20298421274E+02 -0.22125081022E+02  0.45406787597E+03  0.47193928551E+03  0.12509000000E+03 0.  0.
         25    1    3    3    0    0 -0.50786737994E+02 -0.21948692849E+02  0.11067344834E+04  0.11151545914E+04  0.12509000000E+03 0.  0.
         25    1    4    4    0    0  0.30488316720E+02  0.44073773870E+02  0.33568203896E+03  0.36221813094E+03  0.12509000000E+03 0.  0.
<mgrwt>
<rscale>  2 0.45073743E+03</rscale>
<asrwt>0</asrwt>
<pdfrwt beam="1">  1       21 0.28277905E+00 0.45073743E+03</pdfrwt>
<pdfrwt beam="2">  1       21 0.38843844E-02 0.45073743E+03</pdfrwt>
<totfact> 0.15046974E+04</totfact>
</mgrwt>
</event>
<event>
 7    0  0.4788920E-002  0.4546715E+03  0.7546771E-02  0.1026338E+00
         21   -1    0    0  502  501  0.00000000000E+00  0.00000000000E+00  0.55666400425E+03  0.55666400425E+03  0.00000000000E+00 0. -1.
         21   -1    0    0  501  502 -0.00000000000E+00 -0.00000000000E+00 -0.92841555378E+02  0.92841555378E+02  0.00000000000E+00 0. -1.
      99926    2    1    2    0    0  0.00000000000E+00  0.00000000000E+00  0.46382244887E+03  0.64950555963E+03  0.45467153849E+03 0.  0.
      99925    2    3    3    0    0  0.72406761325E+02 -0.37657897548E+02  0.40329099404E+03  0.48834594478E+03  0.26301574017E+03 0.  0.
         25    1    4    4    0    0  0.65476575743E+02 -0.36468724032E+02  0.17370872952E+03  0.22680251457E+03  0.12509000000E+03 0.  0.
         25    1    4    4    0    0  0.69301855820E+01 -0.11891735160E+01  0.22958226452E+03  0.26154343021E+03  0.12509000000E+03 0.  0.
         25    1    3    3    0    0 -0.72406761325E+02  0.37657897548E+02  0.60531454833E+02  0.16115961485E+03  0.12509000000E+03 0.  0.
<mgrwt>
<rscale>  2 0.45467154E+03</rscale>
<asrwt>0</asrwt>
<pdfrwt beam="1">  1       21 0.81862352E-01 0.45467154E+03</pdfrwt>
<pdfrwt beam="2">  1       21 0.13653170E-01 0.45467154E+03</pdfrwt>
<totfact> 0.55874629E+04</totfact>
</mgrwt>
</event>
<event>
 7    0  0.4788920E-002  0.4573023E+03  0.7546771E-02  0.1025567E+00
         21   -1    0    0  502  501  0.00000000000E+00  0.00000000000E+00  0.11031585327E+04  0.11031585327E+04  0.00000000000E+00 0. -1.
         21   -1    0    0  501  502 -0.00000000000E+00 -0.00000000000E+00 -0.47392425925E+02  0.47392425925E+02  0.00000000000E+00 0. -1.
      99926    2    1    2    0    0 -0.14210854715E-13 -0.71054273576E-14  0.10557661068E+04  0.11505509587E+04  0.45730234658E+03 0.  0.
      99925    2    3    3    0    0 -0.10439208915E+03 -0.37010496412E+02  0.58292459243E+03  0.64905909338E+03  0.26307630284E+03 0.  0.
         25    1    3    3    0    0  0.10439208915E+03  0.37010496412E+02  0.47284151439E+03  0.50149186529E+03  0.12509000000E+03 0.  0.
         25    1    4    4    0    0 -0.79073849601E+02 -0.69233046821E+01  0.37544617206E+03  0.40361856009E+03  0.12509000000E+03 0.  0.
         25    1    4    4    0    0 -0.25318239547E+02 -0.30087191730E+02  0.20747842037E+03  0.24544053329E+03  0.12509000000E+03 0.  0.
<mgrwt>
<rscale>  2 0.45730235E+03</rscale>
<asrwt>0</asrwt>
<pdfrwt beam="1">  1       21 0.16222918E+00 0.45730235E+03</pdfrwt>
<pdfrwt beam="2">  1       21 0.69694751E-02 0.45730235E+03</pdfrwt>
<totfact> 0.33164871E+04</totfact>
</mgrwt>
</event>
<event>
 7    0  0.4788920E-002  0.4519720E+03  0.7546771E-02  0.1027136E+00
         21   -1    0    0  502  501  0.00000000000E+00  0.00000000000E+00  0.93536710972E+03  0.93536710972E+03  0.00000000000E+00 0.  1.
         21   -1    0    0  501  502 -0.00000000000E+00 -0.00000000000E+00 -0.54598529636E+02  0.54598529636E+02  0.00000000000E+00 0.  1.
      99926    2    1    2    0    0  0.00000000000E+00 -0.17763568394E-14  0.88076858008E+03  0.98996563935E+03  0.45197198524E+03 0.  0.
      99925    2    3    3    0    0  0.71065581129E+02  0.15417445630E+02  0.73720925920E+03  0.78614022101E+03  0.26315573486E+03 0.  0.
         25    1    4    4    0    0  0.39602975294E+02 -0.29768189258E+02  0.41084500799E+03  0.43231431786E+03  0.12509000000E+03 0.  0.
         25    1    4    4    0    0  0.31462605835E+02  0.45185634889E+02  0.32636425121E+03  0.35382590314E+03  0.12509000000E+03 0.  0.
         25    1    3    3    0    0 -0.71065581129E+02 -0.15417445630E+02  0.14355932088E+03  0.20382541835E+03  0.12509000000E+03 0.  0.
<mgrwt>
<rscale>  2 0.45197199E+03</rscale>
<asrwt>0</asrwt>
<pdfrwt beam="1">  1       21 0.13755398E+00 0.45197199E+03</pdfrwt>
<pdfrwt beam="2">  1       21 0.80291961E-02 0.45197199E+03</pdfrwt>
<totfact> 0.40508954E+04</totfact>
</mgrwt>
</event>
<event>
 7    0  0.4788920E-002  0.4541918E+03  0.7546771E-02  0.1026479E+00
         21   -1    0    0  502  501  0.00000000000E+00  0.00000000000E+00  0.32534392164E+03  0.32534392164E+03  0.00000000000E+00 0.  1.
         21   -1    0    0  501  502 -0.00000000000E+00 -0.00000000000E+00 -0.15851702902E+03  0.15851702902E+03  0.00000000000E+00 0.  1.
      99926    2    1    2    0    0  0.14210854715E-13  0.00000000000E+00  0.16682689261E+03  0.48386095066E+03  0.45419181793E+03 0.  0.
      99925    2    3    3    0    0  0.78931040922E+02 -0.55148211933E+02  0.16678641597E+03  0.32600359657E+03  0.26303840390E+03 0.  0.
         25    1    4    4    0    0 -0.25085535392E+00 -0.39803235212E+02  0.78065568496E+02  0.15272884975E+03  0.12509000000E+03 0.  0.
         25    1    3    3    0    0 -0.78931040922E+02  0.55148211933E+02  0.40476638931E-01  0.15785735409E+03  0.12509000000E+03 0.  0.
         25    1    4    4    0    0  0.79181896276E+02 -0.15344976721E+02  0.88720847478E+02  0.17327474682E+03  0.12509000000E+03 0.  0.
<mgrwt>
<rscale>  2 0.45419182E+03</rscale>
<asrwt>0</asrwt>
<pdfrwt beam="1">  1       21 0.47844694E-01 0.45419182E+03</pdfrwt>
<pdfrwt beam="2">  1       21 0.23311328E-01 0.45419182E+03</pdfrwt>
<totfact> 0.66847951E+04</totfact>
</mgrwt>
</event>
<event>
 7    0  0.4788920E-002  0.4549174E+03  0.7546771E-02  0.1026266E+00
         21   -1    0    0  502  501  0.00000000000E+00  0.00000000000E+00  0.60196234228E+03  0.60196234228E+03  0.00000000000E+00 0.  1.
         21   -1    0    0  501  502 -0.00000000000E+00 -0.00000000000E+00 -0.85948013330E+02  0.85948013330E+02  0.00000000000E+00 0.  1.
      99926    2    1    2    0    0  0.00000000000E+00 -0.14210854715E-13  0.51601432895E+03  0.68791035561E+03  0.45491743171E+03 0.  0.
      99925    2    3    3    0    0 -0.69589459584E+02  0.77874916467E+02  0.39045420874E+03  0.48219198650E+03  0.26295898392E+03 0.  0.
         25    1    3    3    0    0  0.69589459584E+02 -0.77874916467E+02  0.12556012021E+03  0.20571836910E+03  0.12509000000E+03 0.  0.
         25    1    4    4    0    0 -0.39028260937E+02 -0.15305252163E+01  0.16551502169E+03  0.21111200384E+03  0.12509000000E+03 0.  0.
         25    1    4    4    0    0 -0.30561198647E+02  0.79405441683E+02  0.22493918705E+03  0.27107998267E+03  0.12509000000E+03 0.  0.
<mgrwt>
<rscale>  2 0.45491743E+03</rscale>
<asrwt>0</asrwt>
<pdfrwt beam="1">  1       21 0.88523872E-01 0.45491743E+03</pdfrwt>
<pdfrwt beam="2">  1       21 0.12639414E-01 0.45491743E+03</pdfrwt>
<totfact> 0.53599257E+04</totfact>
</mgrwt>
</event>
<event>
 7    0  0.4788920E-002  0.4581169E+03  0.7546771E-02  0.1025329E+00
         21   -1    0    0  502  501  0.00000000000E+00  0.00000000000E+00  0.25370813238E+03  0.25370813238E+03  0.00000000000E+00 0.  1.
         21   -1    0    0  501  502 -0.00000000000E+00 -0.00000000000E+00 -0.20680362748E+03  0.20680362748E+03  0.00000000000E+00 0.  1.
      99926    2    1    2    0    0  0.35527136788E-14  0.00000000000E+00  0.46904504895E+02  0.46051175986E+03  0.45811685015E+03 0.  0.
      99925    2    3    3    0    0  0.30244461375E+02  0.11103763681E+03  0.44027437634E+02  0.29051214266E+03  0.26308706836E+03 0.  0.
         25    1    4    4    0    0 -0.15624689534E+01  0.48562654768E+02  0.58492600696E+02  0.14638874678E+03  0.12509000000E+03 0.  0.
         25    1    4    4    0    0  0.31806930328E+02  0.62474982044E+02 -0.14465163062E+02  0.14412339588E+03  0.12509000000E+03 0.  0.
         25    1    3    3    0    0 -0.30244461375E+02 -0.11103763681E+03  0.28770672615E+01  0.16999961720E+03  0.12509000000E+03 0.  0.
<mgrwt>
<rscale>  2 0.45811685E+03</rscale>
<asrwt>0</asrwt>
<pdfrwt beam="1">  1       21 0.37310020E-01 0.45811685E+03</pdfrwt>
<pdfrwt beam="2">  1       21 0.30412298E-01 0.45811685E+03</pdfrwt>
<totfact> 0.66475311E+04</totfact>
</mgrwt>
</event>
<event>
 6    0  0.4788920E-002  0.4310142E+03  0.7546771E-02  0.1033540E+00
         21   -1    0    0  502  501  0.00000000000E+00  0.00000000000E+00  0.66840403058E+02  0.66840403058E+02  0.00000000000E+00 0.  1.
         21   -1    0    0  501  502 -0.00000000000E+00 -0.00000000000E+00 -0.69483897918E+03  0.69483897918E+03  0.00000000000E+00 0.  1.
      99926    2    1    2    0    0 -0.13877787808E-14  0.00000000000E+00 -0.62799857612E+03  0.76167938224E+03  0.43101423377E+03 0.  0.
         25    1    3    3    0    0 -0.33812363516E+00 -0.73615375821E+02 -0.31908718133E+03  0.35054739376E+03  0.12509000000E+03 0.  0.
         25    1    3    3    0    0 -0.31468927946E+02  0.27676051154E+02 -0.12446133966E+03  0.18136810746E+03  0.12509000000E+03 0.  0.
         25    1    3    3    0    0  0.31807051581E+02  0.45939324666E+02 -0.18445005513E+03  0.22976388102E+03  0.12509000000E+03 0.  0.
<mgrwt>
<rscale>  2 0.43101423E+03</rscale>
<asrwt>0</asrwt>
<pdfrwt beam="1">  1       21 0.98294712E-02 0.43101423E+03</pdfrwt>
<pdfrwt beam="2">  1       21 0.10218220E+00 0.43101423E+03</pdfrwt>
<totfact> 0.60242822E+04</totfact>
</mgrwt>
</event>
<event>
 7    0  0.4788920E-002  0.4789144E+03  0.7546771E-02  0.1019434E+00
         21   -1    0    0  502  501  0.00000000000E+00  0.00000000000E+00  0.13637369485E+04  0.13637369485E+04  0.00000000000E+00 0.  1.
         21   -1    0    0  501  502 -0.00000000000E+00 -0.00000000000E+00 -0.42046050650E+02  0.42046050650E+02  0.00000000000E+00 0.  1.
      99926    2    1    2    0    0  0.14210854715E-13 -0.14210854715E-13  0.13216908979E+04  0.14057829992E+04  0.47891440910E+03 0.  0.
      99925    2    3    3    0    0 -0.10390573865E+03  0.71725809399E+02  0.94986733482E+03  0.99366497676E+03  0.26302307506E+03 0.  0.
         25    1    4    4    0    0 -0.52998005875E+02  0.26183202936E+02  0.33400850128E+03  0.36152943970E+03  0.12509000000E+03 0.  0.
         25    1    4    4    0    0 -0.50907732773E+02  0.45542606463E+02  0.61585883354E+03  0.63213553706E+03  0.12509000000E+03 0.  0.
         25    1    3    3    0    0  0.10390573865E+03 -0.71725809399E+02  0.37182356304E+03  0.41211802241E+03  0.12509000000E+03 0.  0.
<mgrwt>
<rscale>  2 0.47891441E+03</rscale>
<asrwt>0</asrwt>
<pdfrwt beam="1">  1       21 0.20054952E+00 0.47891441E+03</pdfrwt>
<pdfrwt beam="2">  1       21 0.61832436E-02 0.47891441E+03</pdfrwt>
<totfact> 0.21830490E+04</totfact>
</mgrwt>
</event>
<event>
 7    0  0.4788920E-002  0.4546550E+03  0.7546771E-02  0.1026343E+00
         21   -1    0    0  502  501  0.00000000000E+00  0.00000000000E+00  0.95665506847E+02  0.95665506847E+02  0.00000000000E+00 0.  1.
         21   -1    0    0  501  502 -0.00000000000E+00 -0.00000000000E+00 -0.54019263696E+03  0.54019263696E+03  0.00000000000E+00 0.  1.
      99926    2    1    2    0    0  0.00000000000E+00  0.00000000000E+00 -0.44452713011E+03  0.63585814380E+03  0.45465504466E+03 0.  0.
      99925    2    3    3    0    0  0.10387445027E+03  0.21624202867E+02 -0.33347883134E+03  0.43777548346E+03  0.26302421067E+03 0.  0.
         25    1    3    3    0    0 -0.10387445027E+03 -0.21624202867E+02 -0.11104829877E+03  0.19808266034E+03  0.12509000000E+03 0.  0.
         25    1    4    4    0    0  0.49728726143E+02 -0.22650269391E+02 -0.19847761591E+03  0.24088763568E+03  0.12509000000E+03 0.  0.
         25    1    4    4    0    0  0.54145724130E+02  0.44274472258E+02 -0.13500121543E+03  0.19688784778E+03  0.12509000000E+03 0.  0.
<mgrwt>
<rscale>  2 0.45465504E+03</rscale>
<asrwt>0</asrwt>
<pdfrwt beam="1">  1       21 0.14068457E-01 0.45465504E+03</pdfrwt>
<pdfrwt beam="2">  1       21 0.79440093E-01 0.45465504E+03</pdfrwt>
<totfact> 0.56677798E+04</totfact>
</mgrwt>
</event>
<event>
 7    0  0.4788920E-002  0.4562713E+03  0.7546771E-02  0.1025868E+00
         21   -1    0    0  502  501  0.00000000000E+00  0.00000000000E+00  0.35894590798E+03  0.35894590798E+03  0.00000000000E+00 0. -1.
         21   -1    0    0  501  502 -0.00000000000E+00 -0.00000000000E+00 -0.14499643867E+03  0.14499643867E+03  0.00000000000E+00 0. -1.
      99926    2    1    2    0    0  0.00000000000E+00  0.00000000000E+00  0.21394946931E+03  0.50394234664E+03  0.45627131547E+03 0.  0.
      99925    2    3    3    0    0 -0.82010149631E+02 -0.66206190685E+02  0.85446501985E+02  0.29592925802E+03  0.26299067801E+03 0.  0.
         25    1    4    4    0    0 -0.38683380770E+02 -0.58229486607E+02  0.77874847450E+02  0.16309223471E+03  0.12509000000E+03 0.  0.
         25    1    4    4    0    0 -0.43326768861E+02 -0.79767040782E+01  0.75716545355E+01  0.13283702330E+03  0.12509000000E+03 0.  0.
         25    1    3    3    0    0  0.82010149631E+02  0.66206190685E+02  0.12850296733E+03  0.20801308863E+03  0.12509000000E+03 0.  0.
<mgrwt>
<rscale>  2 0.45627132E+03</rscale>
<asrwt>0</asrwt>
<pdfrwt beam="1">  1       21 0.52786163E-01 0.45627132E+03</pdfrwt>
<pdfrwt beam="2">  1       21 0.21323006E-01 0.45627132E+03</pdfrwt>
<totfact> 0.64342828E+04</totfact>
</mgrwt>
</event>
<event>
 7    0  0.4788920E-002  0.4584192E+03  0.7546771E-02  0.1025241E+00
         21   -1    0    0  502  501  0.00000000000E+00  0.00000000000E+00  0.40297129123E+03  0.40297129123E+03  0.00000000000E+00 0.  1.
         21   -1    0    0  501  502 -0.00000000000E+00 -0.00000000000E+00 -0.13037416220E+03  0.13037416220E+03  0.00000000000E+00 0.  1.
      99926    2    1    2    0    0 -0.71054273576E-14  0.00000000000E+00  0.27259712904E+03  0.53334545343E+03  0.45841921637E+03 0.  0.
      99925    2    3    3    0    0  0.34550832385E+02  0.21643093717E+02  0.29790923227E+03  0.39936637225E+03  0.26283341699E+03 0.  0.
         25    1    4    4    0    0  0.48820367344E+02  0.16491690853E+02  0.19133951457E+03  0.23433677063E+03  0.12509000000E+03 0.  0.
         25    1    3    3    0    0 -0.34550832385E+02 -0.21643093717E+02 -0.25312103232E+02  0.13397908118E+03  0.12509000000E+03 0.  0.
         25    1    4    4    0    0 -0.14269534960E+02  0.51514028647E+01  0.10656971770E+03  0.16502960162E+03  0.12509000000E+03 0.  0.
<mgrwt>
<rscale>  2 0.45841922E+03</rscale>
<asrwt>0</asrwt>
<pdfrwt beam="1">  1       21 0.59260484E-01 0.45841922E+03</pdfrwt>
<pdfrwt beam="2">  1       21 0.19172671E-01 0.45841922E+03</pdfrwt>
<totfact> 0.61302415E+04</totfact>
</mgrwt>
</event>
<event>
 7    0  0.4788920E-002  0.4522875E+03  0.7546771E-02  0.1027042E+00
         21   -1    0    0  502  501  0.00000000000E+00  0.00000000000E+00  0.65675410973E+03  0.65675410973E+03  0.00000000000E+00 0.  1.
         21   -1    0    0  501  502 -0.00000000000E+00 -0.00000000000E+00 -0.77869317134E+02  0.77869317134E+02  0.00000000000E+00 0.  1.
      99926    2    1    2    0    0  0.14210854715E-13  0.00000000000E+00  0.57888479259E+03  0.73462342686E+03  0.45228749286E+03 0.  0.
      99925    2    3    3    0    0  0.65080403799E+02 -0.79621512041E+02  0.43132646066E+03  0.51554350181E+03  0.26299722898E+03 0.  0.
         25    1    4    4    0    0  0.10928670144E+02 -0.36203704278E+02  0.14325194034E+03  0.19390402406E+03  0.12509000000E+03 0.  0.
         25    1    3    3    0    0 -0.65080403799E+02  0.79621512041E+02  0.14755833193E+03  0.21907992505E+03  0.12509000000E+03 0.  0.
         25    1    4    4    0    0  0.54151733655E+02 -0.43417807763E+02  0.28807452032E+03  0.32163947775E+03  0.12509000000E+03 0.  0.
<mgrwt>
<rscale>  2 0.45228749E+03</rscale>
<asrwt>0</asrwt>
<pdfrwt beam="1">  1       21 0.96581484E-01 0.45228749E+03</pdfrwt>
<pdfrwt beam="2">  1       21 0.11451371E-01 0.45228749E+03</pdfrwt>
<totfact> 0.52166842E+04</totfact>
</mgrwt>
</event>
<event>
 7    0  0.4788920E-002  0.4627202E+03  0.7546771E-02  0.1023995E+00
         21   -1    0    0  502  501  0.00000000000E+00  0.00000000000E+00  0.26636649858E+03  0.26636649858E+03  0.00000000000E+00 0. -1.
         21   -1    0    0  501  502 -0.00000000000E+00 -0.00000000000E+00 -0.20095429733E+03  0.20095429733E+03  0.00000000000E+00 0. -1.
      99926    2    1    2    0    0  0.00000000000E+00  0.00000000000E+00  0.65412201252E+02  0.46732079592E+03  0.46272018567E+03 0.  0.
      99925    2    3    3    0    0  0.10894670925E+03  0.98795300835E+01 -0.82739587588E+01  0.28554029958E+03  0.26362437998E+03 0.  0.
         25    1    4    4    0    0  0.59259551849E+02 -0.18818170049E+02 -0.37953166206E+02  0.14475416724E+03  0.12509000000E+03 0.  0.
         25    1    3    3    0    0 -0.10894670925E+03 -0.98795300835E+01  0.73686160010E+02  0.18178049634E+03  0.12509000000E+03 0.  0.
         25    1    4    4    0    0  0.49687157404E+02  0.28697700133E+02  0.29679207447E+02  0.14078613234E+03  0.12509000000E+03 0.  0.
<mgrwt>
<rscale>  2 0.46272019E+03</rscale>
<asrwt>0</asrwt>
<pdfrwt beam="1">  1       21 0.39171544E-01 0.46272019E+03</pdfrwt>
<pdfrwt beam="2">  1       21 0.29552102E-01 0.46272019E+03</pdfrwt>
<totfact> 0.63640970E+04</totfact>
</mgrwt>
</event>
<event>
 7    0  0.4788920E-002  0.4720946E+03  0.7546771E-02  0.1021331E+00
         21   -1    0    0  502  501  0.00000000000E+00  0.00000000000E+00  0.11839158857E+03  0.11839158857E+03  0.00000000000E+00 0.  1.
         21   -1    0    0  501  502 -0.00000000000E+00 -0.00000000000E+00 -0.47062739912E+03  0.47062739912E+03  0.00000000000E+00 0.  1.
      99926    2    1    2    0    0  0.00000000000E+00  0.00000000000E+00 -0.35223581055E+03  0.58901898768E+03  0.47209458969E+03 0.  0.
      99925    2    3    3    0    0 -0.11861502868E+03  0.24280371634E+02 -0.15957472852E+03  0.32935600976E+03  0.26144258586E+03 0.  0.
         25    1    3    3    0    0  0.11861502868E+03 -0.24280371634E+02 -0.19266108203E+03  0.25966297792E+03  0.12509000000E+03 0.  0.
         25    1    4    4    0    0 -0.86650551587E+02  0.12039031973E+02 -0.53294487975E+02  0.16168199321E+03  0.12509000000E+03 0.  0.
         25    1    4    4    0    0 -0.31964477096E+02  0.12241339661E+02 -0.10628024055E+03  0.16767401654E+03  0.12509000000E+03 0.  0.
<mgrwt>
<rscale>  2 0.47209459E+03</rscale>
<asrwt>0</asrwt>
<pdfrwt beam="1">  1       21 0.17410528E-01 0.47209459E+03</pdfrwt>
<pdfrwt beam="2">  1       21 0.69209912E-01 0.47209459E+03</pdfrwt>
<totfact> 0.51972581E+04</totfact>
</mgrwt>
</event>
<event>
 7    0  0.4788920E-002  0.4677061E+03  0.7546771E-02  0.1022570E+00
         21   -1    0    0  502  501  0.00000000000E+00  0.00000000000E+00  0.20716933303E+03  0.20716933303E+03  0.00000000000E+00 0. -1.
         21   -1    0    0  501  502 -0.00000000000E+00 -0.00000000000E+00 -0.26397365504E+03  0.26397365504E+03  0.00000000000E+00 0. -1.
      99926    2    1    2    0    0  0.00000000000E+00  0.00000000000E+00 -0.56804322001E+02  0.47114298807E+03  0.46770608742E+03 0.  0.
      99925    2    3    3    0    0  0.53968303882E+02  0.39249153122E+02 -0.14144708825E+03  0.30602188154E+03  0.26303809489E+03 0.  0.
         25    1    4    4    0    0  0.14882061956E+02  0.41691810861E+02 -0.35171130794E+02  0.13727417602E+03  0.12509000000E+03 0.  0.
         25    1    4    4    0    0  0.39086241926E+02 -0.24426577386E+01 -0.10627595745E+03  0.16874770552E+03  0.12509000000E+03 0.  0.
         25    1    3    3    0    0 -0.53968303882E+02 -0.39249153122E+02  0.84642766244E+02  0.16512110653E+03  0.12509000000E+03 0.  0.
<mgrwt>
<rscale>  2 0.46770609E+03</rscale>
<asrwt>0</asrwt>
<pdfrwt beam="1">  1       21 0.30466078E-01 0.46770609E+03</pdfrwt>
<pdfrwt beam="2">  1       21 0.38819655E-01 0.46770609E+03</pdfrwt>
<totfact> 0.60960628E+04</totfact>
</mgrwt>
</event>
<event>
 7    0  0.4788920E-002  0.4610790E+03  0.7546771E-02  0.1024469E+00
         21   -1    0    0  502  501  0.00000000000E+00  0.00000000000E+00  0.88318012881E+02  0.88318012881E+02  0.00000000000E+00 0.  1.
         21   -1    0    0  501  502 -0.00000000000E+00 -0.00000000000E+00 -0.60178510970E+03  0.60178510970E+03  0.00000000000E+00 0.  1.
      99926    2    1    2    0    0  0.00000000000E+00  0.00000000000E+00 -0.51346709682E+03  0.69010312258E+03  0.46107901739E+03 0.  0.
      99925    2    3    3    0    0 -0.35190285853E+02 -0.10166781684E+03 -0.24604364033E+03  0.37587786201E+03  0.26300569006E+03 0.  0.
         25    1    4    4    0    0 -0.20176769652E+02 -0.11916778970E+02 -0.87976792843E+02  0.15471436854E+03  0.12509000000E+03 0.  0.
         25    1    4    4    0    0 -0.15013516201E+02 -0.89751037874E+02 -0.15806684748E+03  0.22116349346E+03  0.12509000000E+03 0.  0.
         25    1    3    3    0    0  0.35190285853E+02  0.10166781684E+03 -0.26742345649E+03  0.31422526057E+03  0.12509000000E+03 0.  0.
<mgrwt>
<rscale>  2 0.46107902E+03</rscale>
<asrwt>0</asrwt>
<pdfrwt beam="1">  1       21 0.12987943E-01 0.46107902E+03</pdfrwt>
<pdfrwt beam="2">  1       21 0.88497808E-01 0.46107902E+03</pdfrwt>
<totfact> 0.50960479E+04</totfact>
</mgrwt>
</event>
<event>
 7    0  0.4788920E-002  0.4452714E+03  0.7546771E-02  0.1029142E+00
         21   -1    0    0  502  501  0.00000000000E+00  0.00000000000E+00  0.64435439450E+02  0.64435439450E+02  0.00000000000E+00 0. -1.
         21   -1    0    0  501  502 -0.00000000000E+00 -0.00000000000E+00 -0.76924518987E+03  0.76924518987E+03  0.00000000000E+00 0. -1.
      99926    2    1    2    0    0  0.00000000000E+00  0.00000000000E+00 -0.70480975042E+03  0.83368062932E+03  0.44527138625E+03 0.  0.
      99925    2    3    3    0    0 -0.69331091118E+01  0.10315703354E+03 -0.46422322890E+03  0.54347583265E+03  0.26300823724E+03 0.  0.
         25    1    4    4    0    0 -0.10576382334E+02  0.46075840925E+02 -0.30525929660E+03  0.33326504353E+03  0.12509000000E+03 0.  0.
         25    1    3    3    0    0  0.69331091118E+01 -0.10315703354E+03 -0.24058652152E+03  0.29020479666E+03  0.12509000000E+03 0.  0.
         25    1    4    4    0    0  0.36432732225E+01  0.57081192617E+02 -0.15896393230E+03  0.21021078912E+03  0.12509000000E+03 0.  0.
<mgrwt>
<rscale>  2 0.44527139E+03</rscale>
<asrwt>0</asrwt>
<pdfrwt beam="1">  1       21 0.94758008E-02 0.44527139E+03</pdfrwt>
<pdfrwt beam="2">  1       21 0.11312428E+00 0.44527139E+03</pdfrwt>
<totfact> 0.49877953E+04</totfact>
</mgrwt>
</event>
<event>
 7    0  0.4788920E-002  0.4775183E+03  0.7546771E-02  0.1019819E+00
         21   -1    0    0  502  501  0.00000000000E+00  0.00000000000E+00  0.55042901517E+02  0.55042901517E+02  0.00000000000E+00 0. -1.
         21   -1    0    0  501  502 -0.00000000000E+00 -0.00000000000E+00 -0.10356637184E+04  0.10356637184E+04  0.00000000000E+00 0. -1.
      99926    2    1    2    0    0  0.00000000000E+00 -0.17763568394E-14 -0.98062081688E+03  0.10907066199E+04  0.47751831821E+03 0.  0.
      99925    2    3    3    0    0  0.43757462043E+02  0.45001953530E+01 -0.31831807204E+03  0.41526054423E+03  0.26302083066E+03 0.  0.
         25    1    4    4    0    0  0.25952571399E+02 -0.13594862536E+02 -0.10179126732E+03  0.16391255733E+03  0.12509000000E+03 0.  0.
         25    1    3    3    0    0 -0.43757462043E+02 -0.45001953530E+01 -0.66230274484E+03  0.67544607569E+03  0.12509000000E+03 0.  0.
         25    1    4    4    0    0  0.17804890644E+02  0.18095057889E+02 -0.21652680472E+03  0.25134798689E+03  0.12509000000E+03 0.  0.
<mgrwt>
<rscale>  2 0.47751832E+03</rscale>
<asrwt>0</asrwt>
<pdfrwt beam="1">  1       21 0.80945442E-02 0.47751832E+03</pdfrwt>
<pdfrwt beam="2">  1       21 0.15230349E+00 0.47751832E+03</pdfrwt>
<totfact> 0.30160417E+04</totfact>
</mgrwt>
</event>
<event>
 7    0  0.4788920E-002  0.4503329E+03  0.7546771E-02  0.1027623E+00
         21   -1    0    0  502  501  0.00000000000E+00  0.00000000000E+00  0.45905466550E+03  0.45905466550E+03  0.00000000000E+00 0. -1.
         21   -1    0    0  501  502 -0.00000000000E+00 -0.00000000000E+00 -0.11044418669E+03  0.11044418669E+03  0.00000000000E+00 0. -1.
      99926    2    1    2    0    0 -0.17763568394E-14  0.00000000000E+00  0.34861047881E+03  0.56949885220E+03  0.45033285103E+03 0.  0.
      99925    2    3    3    0    0 -0.42710532033E+01  0.90640129468E+02  0.14478479396E+03  0.31371321369E+03  0.26309593101E+03 0.  0.
         25    1    4    4    0    0 -0.21577127955E+02  0.83208331751E+02  0.76833335944E+02  0.17011780781E+03  0.12509000000E+03 0.  0.
         25    1    3    3    0    0  0.42710532033E+01 -0.90640129468E+02  0.20382568484E+03  0.25578563851E+03  0.12509000000E+03 0.  0.
         25    1    4    4    0    0  0.17306074751E+02  0.74317977170E+01  0.67951458020E+02  0.14359540587E+03  0.12509000000E+03 0.  0.
<mgrwt>
<rscale>  2 0.45033285E+03</rscale>
<asrwt>0</asrwt>
<pdfrwt beam="1">  1       21 0.67508038E-01 0.45033285E+03</pdfrwt>
<pdfrwt beam="2">  1       21 0.16241792E-01 0.45033285E+03</pdfrwt>
<totfact> 0.62885068E+04</totfact>
</mgrwt>
</event>
<event>
 7    0  0.4788920E-002  0.4556008E+03  0.7546771E-02  0.1026065E+00
         21   -1    0    0  502  501  0.00000000000E+00  0.00000000000E+00  0.20563808739E+03  0.20563808739E+03  0.00000000000E+00 0. -1.
         21   -1    0    0  501  502 -0.00000000000E+00 -0.00000000000E+00 -0.25235119514E+03  0.25235119514E+03  0.00000000000E+00 0. -1.
      99926    2    1    2    0    0  0.14210854715E-13  0.00000000000E+00 -0.46713107743E+02  0.45798928253E+03  0.45560077752E+03 0.  0.
      99925    2    3    3    0    0 -0.92093216508E+02 -0.61704499155E+02 -0.51570937935E+02  0.29077770292E+03  0.26382476216E+03 0.  0.
         25    1    4    4    0    0 -0.70850409159E+02 -0.37558958126E+02  0.74502593696E+01  0.14877321761E+03  0.12509000000E+03 0.  0.
         25    1    4    4    0    0 -0.21242807349E+02 -0.24145541028E+02 -0.59021197305E+02  0.14200448531E+03  0.12509000000E+03 0.  0.
         25    1    3    3    0    0  0.92093216508E+02  0.61704499155E+02  0.48578301919E+01  0.16721157961E+03  0.12509000000E+03 0.  0.
<mgrwt>
<rscale>  2 0.45560078E+03</rscale>
<asrwt>0</asrwt>
<pdfrwt beam="1">  1       21 0.30240895E-01 0.45560078E+03</pdfrwt>
<pdfrwt beam="2">  1       21 0.37110470E-01 0.45560078E+03</pdfrwt>
<totfact> 0.68000799E+04</totfact>
</mgrwt>
</event>
<event>
 7    0  0.4788920E-002  0.4534341E+03  0.7546771E-02  0.1026703E+00
         21   -1    0    0  502  501  0.00000000000E+00  0.00000000000E+00  0.49447235852E+02  0.49447235852E+02  0.00000000000E+00 0. -1.
         21   -1    0    0  501  502 -0.00000000000E+00 -0.00000000000E+00 -0.10395043326E+04  0.10395043326E+04  0.00000000000E+00 0. -1.
      99926    2    1    2    0    0  0.00000000000E+00  0.00000000000E+00 -0.99005709680E+03  0.10889515685E+04  0.45343407858E+03 0.  0.
      99925    2    3    3    0    0 -0.73073417398E+01  0.38335841188E+02 -0.87523549492E+03  0.91472601836E+03  0.26298951147E+03 0.  0.
         25    1    4    4    0    0 -0.43645261617E+02  0.19767404933E+02 -0.46462126244E+03  0.48354532856E+03  0.12509000000E+03 0.  0.
         25    1    3    3    0    0  0.73073417398E+01 -0.38335841188E+02 -0.11482160188E+03  0.17422555014E+03  0.12509000000E+03 0.  0.
         25    1    4    4    0    0  0.36337919877E+02  0.18568436255E+02 -0.41061423248E+03  0.43118068981E+03  0.12509000000E+03 0.  0.
<mgrwt>
<rscale>  2 0.45343408E+03</rscale>
<asrwt>0</asrwt>
<pdfrwt beam="1">  1       21 0.72716523E-02 0.45343408E+03</pdfrwt>
<pdfrwt beam="2">  1       21 0.15286828E+00 0.45343408E+03</pdfrwt>
<totfact> 0.36321448E+04</totfact>
</mgrwt>
</event>
<event>
 7    0  0.4788920E-002  0.4740621E+03  0.7546771E-02  0.1020780E+00
         21   -1    0    0  502  501  0.00000000000E+00  0.00000000000E+00  0.60454655862E+03  0.60454655862E+03  0.00000000000E+00 0. -1.
         21   -1    0    0  501  502 -0.00000000000E+00 -0.00000000000E+00 -0.92935307580E+02  0.92935307580E+02  0.00000000000E+00 0. -1.
      99926    2    1    2    0    0  0.00000000000E+00  0.00000000000E+00  0.51161125104E+03  0.69748186620E+03  0.47406210720E+03 0.  0.
      99925    2    3    3    0    0  0.42635436918E+02 -0.12198249354E+03  0.34035532130E+03  0.44914014441E+03  0.26303538805E+03 0.  0.
         25    1    4    4    0    0  0.50469930007E+02 -0.34284087831E+02  0.14448230314E+03  0.20061220435E+03  0.12509000000E+03 0.  0.
         25    1    4    4    0    0 -0.78344930885E+01 -0.87698405709E+02  0.19587301816E+03  0.24852794006E+03  0.12509000000E+03 0.  0.
         25    1    3    3    0    0 -0.42635436918E+02  0.12198249354E+03  0.17125592974E+03  0.24834172179E+03  0.12509000000E+03 0.  0.
<mgrwt>
<rscale>  2 0.47406211E+03</rscale>
<asrwt>0</asrwt>
<pdfrwt beam="1">  1       21 0.88903904E-01 0.47406211E+03</pdfrwt>
<pdfrwt beam="2">  1       21 0.13666957E-01 0.47406211E+03</pdfrwt>
<totfact> 0.45772013E+04</totfact>
</mgrwt>
</event>
<event>
 7    0  0.4788920E-002  0.4587951E+03  0.7546771E-02  0.1025131E+00
         21   -1    0    0  502  501  0.00000000000E+00  0.00000000000E+00  0.10561274579E+04  0.10561274579E+04  0.00000000000E+00 0. -1.
         21   -1    0    0  501  502 -0.00000000000E+00 -0.00000000000E+00 -0.49826591831E+02  0.49826591831E+02  0.00000000000E+00 0. -1.
      99926    2    1    2    0    0  0.00000000000E+00  0.00000000000E+00  0.10063008661E+04  0.11059540498E+04  0.45879508179E+03 0.  0.
      99925    2    3    3    0    0  0.88431004109E+02  0.36681575895E+02  0.47102143427E+03  0.54797810159E+03  0.26316008015E+03 0.  0.
         25    1    4    4    0    0  0.70720087929E+02  0.51878682194E+02  0.25465632929E+03  0.29696815090E+03  0.12509000000E+03 0.  0.
         25    1    3    3    0    0 -0.88431004109E+02 -0.36681575895E+02  0.53527943182E+03  0.55797594816E+03  0.12509000000E+03 0.  0.
         25    1    4    4    0    0  0.17710916180E+02 -0.15197106299E+02  0.21636510498E+03  0.25100995069E+03  0.12509000000E+03 0.  0.
<mgrwt>
<rscale>  2 0.45879508E+03</rscale>
<asrwt>0</asrwt>
<pdfrwt beam="1">  1       21 0.15531285E+00 0.45879508E+03</pdfrwt>
<pdfrwt beam="2">  1       21 0.73274406E-02 0.45879508E+03</pdfrwt>
<totfact> 0.34262139E+04</totfact>
</mgrwt>
</event>
<event>
 7    0  0.4788920E-002  0.4519167E+03  0.7546771E-02  0.1027152E+00
         21   -1    0    0  502  501  0.00000000000E+00  0.00000000000E+00  0.17270279508E+03  0.17270279508E+03  0.00000000000E+00 0.  1.
         21   -1    0    0  501  502 -0.00000000000E+00 -0.00000000000E+00 -0.29563613391E+03  0.29563613391E+03  0.00000000000E+00 0.  1.
      99926    2    1    2    0    0  0.00000000000E+00  0.17763568394E-14 -0.12293333883E+03  0.46833892899E+03  0.45191674743E+03 0.  0.
      99925    2    3    3    0    0 -0.10010180591E+03 -0.11677970154E+02 -0.31299893643E+02  0.28340395958E+03  0.26302352448E+03 0.  0.
         25    1    4    4    0    0 -0.46285617923E+02  0.33218245763E+02 -0.44409954377E+01  0.13752469167E+03  0.12509000000E+03 0.  0.
         25    1    3    3    0    0  0.10010180591E+03  0.11677970154E+02 -0.91633445184E+02  0.18493496941E+03  0.12509000000E+03 0.  0.
         25    1    4    4    0    0 -0.53816187987E+02 -0.44896215917E+02 -0.26858898205E+02  0.14587926791E+03  0.12509000000E+03 0.  0.
<mgrwt>
<rscale>  2 0.45191675E+03</rscale>
<asrwt>0</asrwt>
<pdfrwt beam="1">  1       21 0.25397470E-01 0.45191675E+03</pdfrwt>
<pdfrwt beam="2">  1       21 0.43475902E-01 0.45191675E+03</pdfrwt>
<totfact> 0.69237577E+04</totfact>
</mgrwt>
</event>
<event>
 7    0  0.4788920E-002  0.4546245E+03  0.7546771E-02  0.1026352E+00
         21   -1    0    0  502  501  0.00000000000E+00  0.00000000000E+00  0.31952210122E+03  0.31952210122E+03  0.00000000000E+00 0.  1.
         21   -1    0    0  501  502 -0.00000000000E+00 -0.00000000000E+00 -0.16171292445E+03  0.16171292445E+03  0.00000000000E+00 0.  1.
      99926    2    1    2    0    0  0.35527136788E-14  0.35527136788E-14  0.15780917678E+03  0.48123502567E+03  0.45462447542E+03 0.  0.
      99925    2    3    3    0    0  0.22075180187E+02 -0.18518871398E+02 -0.16092763178E+02  0.26508772636E+03  0.26302521450E+03 0.  0.
         25    1    4    4    0    0  0.41332818651E+02 -0.22968688955E+02 -0.31849205315E+02  0.13746942405E+03  0.12509000000E+03 0.  0.
         25    1    3    3    0    0 -0.22075180187E+02  0.18518871398E+02  0.17390193995E+03  0.21614729931E+03  0.12509000000E+03 0.  0.
         25    1    4    4    0    0 -0.19257638463E+02  0.44498175566E+01  0.15756442137E+02  0.12761830231E+03  0.12509000000E+03 0.  0.
<mgrwt>
<rscale>  2 0.45462448E+03</rscale>
<asrwt>0</asrwt>
<pdfrwt beam="1">  1       21 0.46988544E-01 0.45462448E+03</pdfrwt>
<pdfrwt beam="2">  1       21 0.23781312E-01 0.45462448E+03</pdfrwt>
<totfact> 0.66809234E+04</totfact>
</mgrwt>
</event>
<event>
 7    0  0.4788920E-002  0.4581031E+03  0.7546771E-02  0.1025333E+00
         21   -1    0    0  502  501  0.00000000000E+00  0.00000000000E+00  0.77508148005E+03  0.77508148005E+03  0.00000000000E+00 0. -1.
         21   -1    0    0  501  502 -0.00000000000E+00 -0.00000000000E+00 -0.67689162873E+02  0.67689162873E+02  0.00000000000E+00 0. -1.
      99926    2    1    2    0    0 -0.17763568394E-14  0.14210854715E-13  0.70739231718E+03  0.84277064293E+03  0.45810311740E+03 0.  0.
      99925    2    3    3    0    0  0.38429698831E+01  0.10531342074E+03  0.53306314581E+03  0.60372283789E+03  0.26309553884E+03 0.  0.
         25    1    4    4    0    0 -0.16606451209E+02  0.25117519811E+02  0.30176600382E+03  0.32805013822E+03  0.12509000000E+03 0.  0.
         25    1    4    4    0    0  0.20449421092E+02  0.80195900925E+02  0.23129714199E+03  0.27567269967E+03  0.12509000000E+03 0.  0.
         25    1    3    3    0    0 -0.38429698831E+01 -0.10531342074E+03  0.17432917137E+03  0.23904780504E+03  0.12509000000E+03 0.  0.
<mgrwt>
<rscale>  2 0.45810312E+03</rscale>
<asrwt>0</asrwt>
<pdfrwt beam="1">  1       21 0.11398257E+00 0.45810312E+03</pdfrwt>
<pdfrwt beam="2">  1       21 0.99542891E-02 0.45810312E+03</pdfrwt>
<totfact> 0.44667152E+04</totfact>
</mgrwt>
</event>
<event>
 7    0  0.4788920E-002  0.4517608E+03  0.7546771E-02  0.1027198E+00
         21   -1    0    0  502  501  0.00000000000E+00  0.00000000000E+00  0.10625259753E+03  0.10625259753E+03  0.00000000000E+00 0. -1.
         21   -1    0    0  501  502 -0.00000000000E+00 -0.00000000000E+00 -0.48019498941E+03  0.48019498941E+03  0.00000000000E+00 0. -1.
      99926    2    1    2    0    0  0.00000000000E+00  0.00000000000E+00 -0.37394239188E+03  0.58644758694E+03  0.45176084357E+03 0.  0.
      99925    2    3    3    0    0 -0.10856819914E+03  0.17778256312E+02 -0.24060409217E+03  0.37307061880E+03  0.26303657004E+03 0.  0.
         25    1    4    4    0    0 -0.71212822731E+02 -0.22250842918E+02 -0.15071296258E+03  0.20959072337E+03  0.12509000000E+03 0.  0.
         25    1    4    4    0    0 -0.37355376412E+02  0.40029099229E+02 -0.89891129590E+02  0.16347989543E+03  0.12509000000E+03 0.  0.
         25    1    3    3    0    0  0.10856819914E+03 -0.17778256312E+02 -0.13333829971E+03  0.21337696814E+03  0.12509000000E+03 0.  0.
<mgrwt>
<rscale>  2 0.45176084E+03</rscale>
<asrwt>0</asrwt>
<pdfrwt beam="1">  1       21 0.15625382E-01 0.45176084E+03</pdfrwt>
<pdfrwt beam="2">  1       21 0.70616912E-01 0.45176084E+03</pdfrwt>
<totfact> 0.61068893E+04</totfact>
</mgrwt>
</event>
<event>
 7    0  0.4788920E-002  0.4569843E+03  0.7546771E-02  0.1025660E+00
         21   -1    0    0  502  501  0.00000000000E+00  0.00000000000E+00  0.22245019110E+03  0.22245019110E+03  0.00000000000E+00 0.  1.
         21   -1    0    0  501  502 -0.00000000000E+00 -0.00000000000E+00 -0.23469816306E+03  0.23469816306E+03  0.00000000000E+00 0.  1.
      99926    2    1    2    0    0 -0.17763568394E-14  0.00000000000E+00 -0.12247971960E+02  0.45714835417E+03  0.45698425017E+03 0.  0.
      99925    2    3    3    0    0  0.80911833349E+01  0.86486635535E+02  0.67715751519E+02  0.28513931212E+03  0.26300874308E+03 0.  0.
         25    1    4    4    0    0 -0.12127730913E+02  0.22119382500E+02 -0.22926444275E+00  0.12760842293E+03  0.12509000000E+03 0.  0.
         25    1    4    4    0    0  0.20218914248E+02  0.64367253035E+02  0.67945015961E+02  0.15753088920E+03  0.12509000000E+03 0.  0.
         25    1    3    3    0    0 -0.80911833349E+01 -0.86486635535E+02 -0.79963723478E+02  0.17200904205E+03  0.12509000000E+03 0.  0.
<mgrwt>
<rscale>  2 0.45698425E+03</rscale>
<asrwt>0</asrwt>
<pdfrwt beam="1">  1       21 0.32713264E-01 0.45698425E+03</pdfrwt>
<pdfrwt beam="2">  1       21 0.34514436E-01 0.45698425E+03</pdfrwt>
<totfact> 0.67316600E+04</totfact>
</mgrwt>
</event>
<event>
 7    0  0.4788920E-002  0.4608940E+03  0.7546771E-02  0.1024522E+00
         21   -1    0    0  502  501  0.00000000000E+00  0.00000000000E+00  0.22363554740E+02  0.22363554740E+02  0.00000000000E+00 0.  1.
         21   -1    0    0  501  502 -0.00000000000E+00 -0.00000000000E+00 -0.23746590409E+04  0.23746590409E+04  0.00000000000E+00 0.  1.
      99926    2    1    2    0    0  0.00000000000E+00  0.00000000000E+00 -0.23522954862E+04  0.23970225956E+04  0.46089398976E+03 0.  0.
      99925    2    3    3    0    0 -0.92326934385E+02 -0.68101094098E+02 -0.16286628817E+04  0.16537503197E+04  0.26303101695E+03 0.  0.
         25    1    3    3    0    0  0.92326934385E+02  0.68101094098E+02 -0.72363260447E+03  0.74327227594E+03  0.12509000000E+03 0.  0.
         25    1    4    4    0    0 -0.53810806152E+02 -0.74498309795E+02 -0.82521842317E+03  0.83968955874E+03  0.12509000000E+03 0.  0.
         25    1    4    4    0    0 -0.38516128234E+02  0.63972156961E+01 -0.80344445852E+03  0.81406076095E+03  0.12509000000E+03 0.  0.
<mgrwt>
<rscale>  2 0.46089399E+03</rscale>
<asrwt>0</asrwt>
<pdfrwt beam="1">  1       21 0.32887567E-02 0.46089399E+03</pdfrwt>
<pdfrwt beam="2">  1       21 0.34921470E+00 0.46089399E+03</pdfrwt>
<totfact> 0.78765036E+03</totfact>
</mgrwt>
</event>
<event>
 7    0  0.4788920E-002  0.4551444E+03  0.7546771E-02  0.1026199E+00
         21   -1    0    0  502  501  0.00000000000E+00  0.00000000000E+00  0.11983066128E+04  0.11983066128E+04  0.00000000000E+00 0.  1.
         21   -1    0    0  501  502 -0.00000000000E+00 -0.00000000000E+00 -0.43218579951E+02  0.43218579951E+02  0.00000000000E+00 0.  1.
      99926    2    1    2    0    0  0.00000000000E+00  0.14210854715E-13  0.11550880328E+04  0.12415251927E+04  0.45514441730E+03 0.  0.
      99925    2    3    3    0    0 -0.71187721176E+02 -0.86351784141E+02  0.67916058374E+03  0.73686811395E+03  0.26304219542E+03 0.  0.
         25    1    4    4    0    0 -0.31615525058E+02 -0.24955547826E+02  0.22962533847E+03  0.26457064266E+03  0.12509000000E+03 0.  0.
         25    1    3    3    0    0  0.71187721176E+02  0.86351784141E+02  0.47592744908E+03  0.50465707878E+03  0.12509000000E+03 0.  0.
         25    1    4    4    0    0 -0.39572196118E+02 -0.61396236315E+02  0.44953524528E+03  0.47229747129E+03  0.12509000000E+03 0.  0.
<mgrwt>
<rscale>  2 0.45514442E+03</rscale>
<asrwt>0</asrwt>
<pdfrwt beam="1">  1       21 0.17622154E+00 0.45514442E+03</pdfrwt>
<pdfrwt beam="2">  1       21 0.63556743E-02 0.45514442E+03</pdfrwt>
<totfact> 0.30826660E+04</totfact>
</mgrwt>
</event>
<event>
 7    0  0.4788920E-002  0.4475140E+03  0.7546771E-02  0.1028466E+00
         21   -1    0    0  502  501  0.00000000000E+00  0.00000000000E+00  0.15319585014E+03  0.15319585014E+03  0.00000000000E+00 0. -1.
         21   -1    0    0  501  502 -0.00000000000E+00 -0.00000000000E+00 -0.32681827293E+03  0.32681827293E+03  0.00000000000E+00 0. -1.
      99926    2    1    2    0    0  0.00000000000E+00  0.00000000000E+00 -0.17362242279E+03  0.48001412307E+03  0.44751403626E+03 0.  0.
      99925    2    3    3    0    0  0.61216959729E+02  0.77688099897E+02 -0.69025127284E+02  0.28930214297E+03  0.26296065240E+03 0.  0.
         25    1    4    4    0    0  0.70884656006E+02  0.39047736299E+02 -0.46738503575E+02  0.15614530407E+03  0.12509000000E+03 0.  0.
         25    1    3    3    0    0 -0.61216959729E+02 -0.77688099897E+02 -0.10459729550E+03  0.19071198009E+03  0.12509000000E+03 0.  0.
         25    1    4    4    0    0 -0.96676962770E+01  0.38640363598E+02 -0.22286623709E+02  0.13315683890E+03  0.12509000000E+03 0.  0.
<mgrwt>
<rscale>  2 0.44751404E+03</rscale>
<asrwt>0</asrwt>
<pdfrwt beam="1">  1       21 0.22528802E-01 0.44751404E+03</pdfrwt>
<pdfrwt beam="2">  1       21 0.48061510E-01 0.44751404E+03</pdfrwt>
<totfact> 0.70814618E+04</totfact>
</mgrwt>
</event>
<event>
 7    0  0.4788920E-002  0.4804659E+03  0.7546771E-02  0.1019007E+00
         21   -1    0    0  502  501  0.00000000000E+00  0.00000000000E+00  0.16611877129E+03  0.16611877129E+03  0.00000000000E+00 0.  1.
         21   -1    0    0  501  502 -0.00000000000E+00 -0.00000000000E+00 -0.34741323725E+03  0.34741323725E+03  0.00000000000E+00 0.  1.
      99926    2    1    2    0    0  0.00000000000E+00  0.00000000000E+00 -0.18129446597E+03  0.51353200854E+03  0.48046585769E+03 0.  0.
      99925    2    3    3    0    0 -0.90633346811E+02  0.97423605764E+02 -0.83090490941E+02  0.30617412631E+03  0.26293117621E+03 0.  0.
         25    1    4    4    0    0 -0.13023152654E+02  0.63040047124E+02 -0.61233826914E+02  0.15342991789E+03  0.12509000000E+03 0.  0.
         25    1    3    3    0    0  0.90633346811E+02 -0.97423605764E+02 -0.98203975025E+02  0.20735788223E+03  0.12509000000E+03 0.  0.
         25    1    4    4    0    0 -0.77610194156E+02  0.34383558640E+02 -0.21856664027E+02  0.15274420841E+03  0.12509000000E+03 0.  0.
<mgrwt>
<rscale>  2 0.48046586E+03</rscale>
<asrwt>0</asrwt>
<pdfrwt beam="1">  1       21 0.24429231E-01 0.48046586E+03</pdfrwt>
<pdfrwt beam="2">  1       21 0.51090182E-01 0.48046586E+03</pdfrwt>
<totfact> 0.52818078E+04</totfact>
</mgrwt>
</event>
<event>
 7    0  0.4788920E-002  0.4503571E+03  0.7546771E-02  0.1027616E+00
         21   -1    0    0  502  501  0.00000000000E+00  0.00000000000E+00  0.36904670084E+03  0.36904670084E+03  0.00000000000E+00 0. -1.
         21   -1    0    0  501  502 -0.00000000000E+00 -0.00000000000E+00 -0.13739558186E+03  0.13739558186E+03  0.00000000000E+00 0. -1.
      99926    2    1    2    0    0 -0.35527136788E-14  0.35527136788E-14  0.23165111898E+03  0.50644228270E+03  0.45035713027E+03 0.  0.
      99925    2    3    3    0    0  0.30873095635E+02 -0.25997830344E+02  0.32701124676E+02  0.26799387413E+03  0.26291123559E+03 0.  0.
         25    1    3    3    0    0 -0.30873095635E+02  0.25997830344E+02  0.19894999431E+03  0.23844840857E+03  0.12509000000E+03 0.  0.
         25    1    4    4    0    0 -0.15251805358E+02 -0.26238698037E+02 -0.69287888670E+01  0.12890540352E+03  0.12509000000E+03 0.  0.
         25    1    4    4    0    0  0.46124900993E+02  0.24086769272E+00  0.39629913543E+02  0.13908847061E+03  0.12509000000E+03 0.  0.
<mgrwt>
<rscale>  2 0.45035713E+03</rscale>
<asrwt>0</asrwt>
<pdfrwt beam="1">  1       21 0.54271573E-01 0.45035713E+03</pdfrwt>
<pdfrwt beam="2">  1       21 0.20205233E-01 0.45035713E+03</pdfrwt>
<totfact> 0.67265020E+04</totfact>
</mgrwt>
</event>
<event>
 7    0  0.4788920E-002  0.4567287E+03  0.7546771E-02  0.1025734E+00
         21   -1    0    0  502  501  0.00000000000E+00  0.00000000000E+00  0.18633408388E+03  0.18633408388E+03  0.00000000000E+00 0. -1.
         21   -1    0    0  501  502 -0.00000000000E+00 -0.00000000000E+00 -0.27987507152E+03  0.27987507152E+03  0.00000000000E+00 0. -1.
      99926    2    1    2    0    0  0.00000000000E+00 -0.35527136788E-14 -0.93540987635E+02  0.46620915540E+03  0.45672865052E+03 0.  0.
      99925    2    3    3    0    0 -0.31828202384E+02 -0.19399218369E+02 -0.16918555006E+03  0.31534838494E+03  0.26349855672E+03 0.  0.
         25    1    4    4    0    0 -0.23450166388E+02  0.18148841403E+02 -0.48736873820E+02  0.13748484177E+03  0.12509000000E+03 0.  0.
         25    1    4    4    0    0 -0.83780359957E+01 -0.37548059772E+02 -0.12044867624E+03  0.17786354316E+03  0.12509000000E+03 0.  0.
         25    1    3    3    0    0  0.31828202384E+02  0.19399218369E+02  0.75644562421E+02  0.15086077046E+03  0.12509000000E+03 0.  0.
<mgrwt>
<rscale>  2 0.45672865E+03</rscale>
<asrwt>0</asrwt>
<pdfrwt beam="1">  1       21 0.27402071E-01 0.45672865E+03</pdfrwt>
<pdfrwt beam="2">  1       21 0.41158098E-01 0.45672865E+03</pdfrwt>
<totfact> 0.66797984E+04</totfact>
</mgrwt>
</event>
<event>
 7    0  0.4788920E-002  0.4557727E+03  0.7546771E-02  0.1026014E+00
         21   -1    0    0  502  501  0.00000000000E+00  0.00000000000E+00  0.24597093685E+02  0.24597093685E+02  0.00000000000E+00 0. -1.
         21   -1    0    0  501  502 -0.00000000000E+00 -0.00000000000E+00 -0.21113140226E+04  0.21113140226E+04  0.00000000000E+00 0. -1.
      99926    2    1    2    0    0  0.14210854715E-13 -0.17763568394E-14 -0.20867169289E+04  0.21359111163E+04  0.45577270130E+03 0.  0.
      99925    2    3    3    0    0  0.81208558755E+02 -0.14529814938E+02 -0.94319547947E+03  0.98261377432E+03  0.26288052697E+03 0.  0.
         25    1    4    4    0    0  0.16445293090E+02 -0.24373911333E+02 -0.34998567851E+03  0.37282974463E+03  0.12509000000E+03 0.  0.
         25    1    4    4    0    0  0.64763265666E+02  0.98440963957E+01 -0.59320980096E+03  0.60978402969E+03  0.12509000000E+03 0.  0.
         25    1    3    3    0    0 -0.81208558755E+02  0.14529814938E+02 -0.11435214495E+04  0.11532973420E+04  0.12509000000E+03 0.  0.
<mgrwt>
<rscale>  2 0.45577270E+03</rscale>
<asrwt>0</asrwt>
<pdfrwt beam="1">  1       21 0.36172200E-02 0.45577270E+03</pdfrwt>
<pdfrwt beam="2">  1       21 0.31048732E+00 0.45577270E+03</pdfrwt>
<totfact> 0.11545611E+04</totfact>
</mgrwt>
</event>
<event>
 7    0  0.4788920E-002  0.4516176E+03  0.7546771E-02  0.1027241E+00
         21   -1    0    0  502  501  0.00000000000E+00  0.00000000000E+00  0.73345651250E+03  0.73345651250E+03  0.00000000000E+00 0. -1.
         21   -1    0    0  501  502 -0.00000000000E+00 -0.00000000000E+00 -0.69519614454E+02  0.69519614454E+02  0.00000000000E+00 0. -1.
      99926    2    1    2    0    0 -0.71054273576E-14  0.00000000000E+00  0.66393689805E+03  0.80297612696E+03  0.45161759916E+03 0.  0.
      99925    2    3    3    0    0 -0.53801950784E+02 -0.10365208614E+01  0.58967218558E+03  0.64786816487E+03  0.26291471682E+03 0.  0.
         25    1    4    4    0    0 -0.64449298312E+02 -0.88641894646E+01  0.34652710980E+03  0.37411339435E+03  0.12509000000E+03 0.  0.
         25    1    3    3    0    0  0.53801950784E+02  0.10365208614E+01  0.74264712464E+02  0.15510796208E+03  0.12509000000E+03 0.  0.
         25    1    4    4    0    0  0.10647347528E+02  0.78276686033E+01  0.24314507578E+03  0.27375477052E+03  0.12509000000E+03 0.  0.
<mgrwt>
<rscale>  2 0.45161760E+03</rscale>
<asrwt>0</asrwt>
<pdfrwt beam="1">  1       21 0.10786125E+00 0.45161760E+03</pdfrwt>
<pdfrwt beam="2">  1       21 0.10223473E-01 0.45161760E+03</pdfrwt>
<totfact> 0.48906496E+04</totfact>
</mgrwt>
</event>
<event>
 7    0  0.4788920E-002  0.4548547E+03  0.7546771E-02  0.1026284E+00
         21   -1    0    0  502  501  0.00000000000E+00  0.00000000000E+00  0.61702104426E+03  0.61702104426E+03  0.00000000000E+00 0.  1.
         21   -1    0    0  501  502 -0.00000000000E+00 -0.00000000000E+00 -0.83827297818E+02  0.83827297818E+02  0.00000000000E+00 0.  1.
      99926    2    1    2    0    0  0.00000000000E+00  0.71054273576E-14  0.53319374644E+03  0.70084834208E+03  0.45485473214E+03 0.  0.
      99925    2    3    3    0    0  0.39750347972E+02 -0.57316596592E+02  0.47263701305E+03  0.54534944026E+03  0.26297335126E+03 0.  0.
         25    1    4    4    0    0  0.47109860300E+02 -0.23736434576E+02  0.18183457730E+03  0.22692306816E+03  0.12509000000E+03 0.  0.
         25    1    4    4    0    0 -0.73595123281E+01 -0.33580162017E+02  0.29080243576E+03  0.31842637209E+03  0.12509000000E+03 0.  0.
         25    1    3    3    0    0 -0.39750347972E+02  0.57316596592E+02  0.60556733389E+02  0.15549890182E+03  0.12509000000E+03 0.  0.
<mgrwt>
<rscale>  2 0.45485473E+03</rscale>
<asrwt>0</asrwt>
<pdfrwt beam="1">  1       21 0.90738387E-01 0.45485473E+03</pdfrwt>
<pdfrwt beam="2">  1       21 0.12327544E-01 0.45485473E+03</pdfrwt>
<totfact> 0.52917389E+04</totfact>
</mgrwt>
</event>
<event>
 7    0  0.4788920E-002  0.4539129E+03  0.7546771E-02  0.1026562E+00
         21   -1    0    0  502  501  0.00000000000E+00  0.00000000000E+00  0.21781667928E+03  0.21781667928E+03  0.00000000000E+00 0. -1.
         21   -1    0    0  501  502 -0.00000000000E+00 -0.00000000000E+00 -0.23647970843E+03  0.23647970843E+03  0.00000000000E+00 0. -1.
      99926    2    1    2    0    0  0.00000000000E+00  0.00000000000E+00 -0.18663029148E+02  0.45429638770E+03  0.45391287625E+03 0.  0.
      99925    2    3    3    0    0 -0.98235765754E+02 -0.44790106842E+02  0.18679852429E+02  0.28489031270E+03  0.26297744017E+03 0.  0.
         25    1    4    4    0    0 -0.32894696564E+02 -0.56794185636E+02 -0.46780770605E+01  0.14134013262E+03  0.12509000000E+03 0.  0.
         25    1    4    4    0    0 -0.65341069190E+02  0.12004078794E+02  0.23357929489E+02  0.14355018008E+03  0.12509000000E+03 0.  0.
         25    1    3    3    0    0  0.98235765754E+02  0.44790106842E+02 -0.37342881577E+02  0.16940607501E+03  0.12509000000E+03 0.  0.
<mgrwt>
<rscale>  2 0.45391288E+03</rscale>
<asrwt>0</asrwt>
<pdfrwt beam="1">  1       21 0.32031865E-01 0.45391288E+03</pdfrwt>
<pdfrwt beam="2">  1       21 0.34776427E-01 0.45391288E+03</pdfrwt>
<totfact> 0.69195650E+04</totfact>
</mgrwt>
</event>
<event>
 7    0  0.4788920E-002  0.4581355E+03  0.7546771E-02  0.1025323E+00
         21   -1    0    0  502  501  0.00000000000E+00  0.00000000000E+00  0.19683799459E+03  0.19683799459E+03  0.00000000000E+00 0.  1.
         21   -1    0    0  501  502 -0.00000000000E+00 -0.00000000000E+00 -0.26657475672E+03  0.26657475672E+03  0.00000000000E+00 0.  1.
      99926    2    1    2    0    0  0.00000000000E+00  0.00000000000E+00 -0.69736762131E+02  0.46341275131E+03  0.45813552808E+03 0.  0.
      99925    2    3    3    0    0  0.10815179322E+03 -0.40799531047E+02 -0.33022557692E+02  0.28918056996E+03  0.26300855616E+03 0.  0.
         25    1    4    4    0    0  0.83523123890E+02 -0.50351948497E+02 -0.29157131617E+02  0.16127330023E+03  0.12509000000E+03 0.  0.
         25    1    4    4    0    0  0.24628669331E+02  0.95524174503E+01 -0.38654260752E+01  0.12790726973E+03  0.12509000000E+03 0.  0.
         25    1    3    3    0    0 -0.10815179322E+03  0.40799531047E+02 -0.36714204438E+02  0.17423218135E+03  0.12509000000E+03 0.  0.
<mgrwt>
<rscale>  2 0.45813553E+03</rscale>
<asrwt>0</asrwt>
<pdfrwt beam="1">  1       21 0.28946764E-01 0.45813553E+03</pdfrwt>
<pdfrwt beam="2">  1       21 0.39202170E-01 0.45813553E+03</pdfrwt>
<totfact> 0.66260181E+04</totfact>
</mgrwt>
</event>
<event>
 7    0  0.4788920E-002  0.4568375E+03  0.7546771E-02  0.1025702E+00
         21   -1    0    0  502  501  0.00000000000E+00  0.00000000000E+00  0.15129285373E+04  0.15129285373E+04  0.00000000000E+00 0.  1.
         21   -1    0    0  501  502 -0.00000000000E+00 -0.00000000000E+00 -0.34486178252E+02  0.34486178252E+02  0.00000000000E+00 0.  1.
      99926    2    1    2    0    0  0.71054273576E-14 -0.71054273576E-14  0.14784423590E+04  0.15474147155E+04  0.45683749066E+03 0.  0.
      99925    2    3    3    0    0 -0.52201304625E+02  0.32527300027E+02  0.12574549486E+04  0.12861371905E+04  0.26300745883E+03 0.  0.
         25    1    4    4    0    0 -0.20614766131E+02  0.37262897620E+02  0.79891161694E+03  0.80976587474E+03  0.12509000000E+03 0.  0.
         25    1    3    3    0    0  0.52201304625E+02 -0.32527300027E+02  0.22098741038E+03  0.26127752505E+03  0.12509000000E+03 0.  0.
         25    1    4    4    0    0 -0.31586538494E+02 -0.47355975930E+01  0.45854333171E+03  0.47637131573E+03  0.12509000000E+03 0.  0.
<mgrwt>
<rscale>  2 0.45683749E+03</rscale>
<asrwt>0</asrwt>
<pdfrwt beam="1">  1       21 0.22248945E+00 0.45683749E+03</pdfrwt>
<pdfrwt beam="2">  1       21 0.50714978E-02 0.45683749E+03</pdfrwt>
<totfact> 0.22320422E+04</totfact>
</mgrwt>
</event>
<event>
 7    0  0.4788920E-002  0.4671249E+03  0.7546771E-02  0.1022735E+00
         21   -1    0    0  502  501  0.00000000000E+00  0.00000000000E+00  0.11401249371E+04  0.11401249371E+04  0.00000000000E+00 0.  1.
         21   -1    0    0  501  502 -0.00000000000E+00 -0.00000000000E+00 -0.47846884745E+02  0.47846884745E+02  0.00000000000E+00 0.  1.
      99926    2    1    2    0    0  0.00000000000E+00  0.00000000000E+00  0.10922780523E+04  0.11879718218E+04  0.46712493600E+03 0.  0.
      99925    2    3    3    0    0  0.38003381828E+02  0.11747042062E+03  0.64561182345E+03  0.70796996258E+03  0.26298913397E+03 0.  0.
         25    1    4    4    0    0  0.80109893569E+01  0.84796820281E+02  0.26886949934E+03  0.30853361641E+03  0.12509000000E+03 0.  0.
         25    1    3    3    0    0 -0.38003381828E+02 -0.11747042062E+03  0.44666622889E+03  0.48000185925E+03  0.12509000000E+03 0.  0.
         25    1    4    4    0    0  0.29992392471E+02  0.32673600343E+02  0.37674232410E+03  0.39943634616E+03  0.12509000000E+03 0.  0.
<mgrwt>
<rscale>  2 0.46712494E+03</rscale>
<asrwt>0</asrwt>
<pdfrwt beam="1">  1       21 0.16766541E+00 0.46712494E+03</pdfrwt>
<pdfrwt beam="2">  1       21 0.70363073E-02 0.46712494E+03</pdfrwt>
<totfact> 0.29639118E+04</totfact>
</mgrwt>
</event>
<event>
 7    0  0.4788920E-002  0.4574335E+03  0.7546771E-02  0.1025528E+00
         21   -1    0    0  502  501  0.00000000000E+00  0.00000000000E+00  0.41126217743E+03  0.41126217743E+03  0.00000000000E+00 0. -1.
         21   -1    0    0  501  502 -0.00000000000E+00 -0.00000000000E+00 -0.12719709559E+03  0.12719709559E+03  0.00000000000E+00 0. -1.
      99926    2    1    2    0    0  0.00000000000E+00  0.71054273576E-14  0.28406508184E+03  0.53845927302E+03  0.45743351209E+03 0.  0.
      99925    2    3    3    0    0  0.10529482155E+03 -0.44840131892E+02  0.15983813200E+03  0.32827487770E+03  0.26290403194E+03 0.  0.
         25    1    4    4    0    0  0.50442233938E+02  0.44595120642E+01  0.42212561839E+02  0.14139913256E+03  0.12509000000E+03 0.  0.
         25    1    3    3    0    0 -0.10529482155E+03  0.44840131892E+02  0.12422694983E+03  0.21018439533E+03  0.12509000000E+03 0.  0.
         25    1    4    4    0    0  0.54852587615E+02 -0.49299643956E+02  0.11762557017E+03  0.18687574513E+03  0.12509000000E+03 0.  0.
<mgrwt>
<rscale>  2 0.45743351E+03</rscale>
<asrwt>0</asrwt>
<pdfrwt beam="1">  1       21 0.60479732E-01 0.45743351E+03</pdfrwt>
<pdfrwt beam="2">  1       21 0.18705455E-01 0.45743351E+03</pdfrwt>
<totfact> 0.61443680E+04</totfact>
</mgrwt>
</event>
<event>
 7    0  0.4788920E-002  0.4406639E+03  0.7546771E-02  0.1030543E+00
         21   -1    0    0  502  501  0.00000000000E+00  0.00000000000E+00  0.14919283697E+03  0.14919283697E+03  0.00000000000E+00 0. -1.
         21   -1    0    0  501  502 -0.00000000000E+00 -0.00000000000E+00 -0.32539204198E+03  0.32539204198E+03  0.00000000000E+00 0. -1.
      99926    2    1    2    0    0 -0.71054273576E-14  0.00000000000E+00 -0.17619920501E+03  0.47458487895E+03  0.44066387132E+03 0.  0.
      99925    2    3    3    0    0  0.46499144373E+02 -0.72234767911E+02 -0.59184970885E+02  0.28296058193E+03  0.26302813162E+03 0.  0.
         25    1    4    4    0    0  0.39961955422E+02 -0.55891663110E+02  0.17072287807E+01  0.14272791814E+03  0.12509000000E+03 0.  0.
         25    1    3    3    0    0 -0.46499144373E+02  0.72234767911E+02 -0.11701423412E+03  0.19162429702E+03  0.12509000000E+03 0.  0.
         25    1    4    4    0    0  0.65371889514E+01 -0.16343104801E+02 -0.60892199665E+02  0.14023266379E+03  0.12509000000E+03 0.  0.
<mgrwt>
<rscale>  2 0.44066387E+03</rscale>
<asrwt>0</asrwt>
<pdfrwt beam="1">  1       21 0.21940124E-01 0.44066387E+03</pdfrwt>
<pdfrwt beam="2">  1       21 0.47851770E-01 0.44066387E+03</pdfrwt>
<totfact> 0.75308423E+04</totfact>
</mgrwt>
</event>
<event>
 7    0  0.4788920E-002  0.4433110E+03  0.7546771E-02  0.1029736E+00
         21   -1    0    0  502  501  0.00000000000E+00  0.00000000000E+00  0.18897433698E+03  0.18897433698E+03  0.00000000000E+00 0.  1.
         21   -1    0    0  501  502 -0.00000000000E+00 -0.00000000000E+00 -0.25998848273E+03  0.25998848273E+03  0.00000000000E+00 0.  1.
      99926    2    1    2    0    0  0.14210854715E-13  0.00000000000E+00 -0.71014145747E+02  0.44896281971E+03  0.44331095699E+03 0.  0.
      99925    2    3    3    0    0 -0.89172646519E+02 -0.66331479648E+01 -0.94417352346E+02  0.29342832926E+03  0.26303951880E+03 0.  0.
         25    1    4    4    0    0 -0.29030406218E+01  0.33163596083E+01 -0.50202831953E+02  0.13486014356E+03  0.12509000000E+03 0.  0.
         25    1    4    4    0    0 -0.86269605897E+02 -0.99495075730E+01 -0.44214520393E+02  0.15856818570E+03  0.12509000000E+03 0.  0.
         25    1    3    3    0    0  0.89172646519E+02  0.66331479648E+01  0.23403206599E+02  0.15553449045E+03  0.12509000000E+03 0.  0.
<mgrwt>
<rscale>  2 0.44331096E+03</rscale>
<asrwt>0</asrwt>
<pdfrwt beam="1">  1       21 0.27790344E-01 0.44331096E+03</pdfrwt>
<pdfrwt beam="2">  1       21 0.38233600E-01 0.44331096E+03</pdfrwt>
<totfact> 0.75817064E+04</totfact>
</mgrwt>
</event>
<event>
 7    0  0.4788920E-002  0.4551441E+03  0.7546771E-02  0.1026199E+00
         21   -1    0    0  502  501  0.00000000000E+00  0.00000000000E+00  0.10659924637E+03  0.10659924637E+03  0.00000000000E+00 0.  1.
         21   -1    0    0  501  502 -0.00000000000E+00 -0.00000000000E+00 -0.48582934523E+03  0.48582934523E+03  0.00000000000E+00 0.  1.
      99926    2    1    2    0    0  0.00000000000E+00  0.26645352591E-14 -0.37923009887E+03  0.59242859160E+03  0.45514411812E+03 0.  0.
      99925    2    3    3    0    0 -0.55586592712E+02 -0.24542910564E+01 -0.11013340063E+03  0.29050735363E+03  0.26300050142E+03 0.  0.
         25    1    4    4    0    0 -0.41363187336E+02  0.28422871269E+02 -0.82309529779E+02  0.15792764062E+03  0.12509000000E+03 0.  0.
         25    1    4    4    0    0 -0.14223405375E+02 -0.30877162326E+02 -0.27823870847E+02  0.13257971301E+03  0.12509000000E+03 0.  0.
         25    1    3    3    0    0  0.55586592712E+02  0.24542910564E+01 -0.26909669824E+03  0.30192123797E+03  0.12509000000E+03 0.  0.
<mgrwt>
<rscale>  2 0.45514412E+03</rscale>
<asrwt>0</asrwt>
<pdfrwt beam="1">  1       21 0.15676360E-01 0.45514412E+03</pdfrwt>
<pdfrwt beam="2">  1       21 0.71445493E-01 0.45514412E+03</pdfrwt>
<totfact> 0.59079424E+04</totfact>
</mgrwt>
</event>
<event>
 7    0  0.4788920E-002  0.4580249E+03  0.7546771E-02  0.1025356E+00
         21   -1    0    0  502  501  0.00000000000E+00  0.00000000000E+00  0.34523214870E+03  0.34523214870E+03  0.00000000000E+00 0. -1.
         21   -1    0    0  501  502 -0.00000000000E+00 -0.00000000000E+00 -0.15191718131E+03  0.15191718131E+03  0.00000000000E+00 0. -1.
      99926    2    1    2    0    0 -0.66613381478E-15  0.48849813084E-14  0.19331496739E+03  0.49714933001E+03  0.45802486801E+03 0.  0.
      99925    2    3    3    0    0 -0.95549546137E+00 -0.20325560568E+01 -0.45037846833E+01  0.26308777609E+03  0.26303963502E+03 0.  0.
         25    1    3    3    0    0  0.95549546137E+00  0.20325560568E+01  0.19781875207E+03  0.23406155393E+03  0.12509000000E+03 0.  0.
         25    1    4    4    0    0  0.43710566581E+01  0.31152318040E+02  0.22081025461E+02  0.13086119685E+03  0.12509000000E+03 0.  0.
         25    1    4    4    0    0 -0.53265521195E+01 -0.33184874096E+02 -0.26584810144E+02  0.13222657924E+03  0.12509000000E+03 0.  0.
<mgrwt>
<rscale>  2 0.45802487E+03</rscale>
<asrwt>0</asrwt>
<pdfrwt beam="1">  1       21 0.50769434E-01 0.45802487E+03</pdfrwt>
<pdfrwt beam="2">  1       21 0.22340762E-01 0.45802487E+03</pdfrwt>
<totfact> 0.63922581E+04</totfact>
</mgrwt>
</event>
<event>
 7    0  0.4788920E-002  0.4506649E+03  0.7546771E-02  0.1027524E+00
         21   -1    0    0  502  501  0.00000000000E+00  0.00000000000E+00  0.43157877125E+03  0.43157877125E+03  0.00000000000E+00 0.  1.
         21   -1    0    0  501  502 -0.00000000000E+00 -0.00000000000E+00 -0.11764876357E+03  0.11764876357E+03  0.00000000000E+00 0.  1.
      99926    2    1    2    0    0 -0.22204460493E-14  0.00000000000E+00  0.31393000768E+03  0.54922753482E+03  0.45066488136E+03 0.  0.
      99925    2    3    3    0    0  0.14524004625E+01 -0.10892661487E+03  0.19426309052E+03  0.34469197299E+03  0.26307278652E+03 0.  0.
         25    1    4    4    0    0  0.29485984624E+02 -0.26262702421E+02  0.10445636987E+03  0.16768361319E+03  0.12509000000E+03 0.  0.
         25    1    4    4    0    0 -0.28033584161E+02 -0.82663912448E+02  0.89806720655E+02  0.17700835979E+03  0.12509000000E+03 0.  0.
         25    1    3    3    0    0 -0.14524004625E+01  0.10892661487E+03  0.11966691715E+03  0.20453556183E+03  0.12509000000E+03 0.  0.
<mgrwt>
<rscale>  2 0.45066488E+03</rscale>
<asrwt>0</asrwt>
<pdfrwt beam="1">  1       21 0.63467465E-01 0.45066488E+03</pdfrwt>
<pdfrwt beam="2">  1       21 0.17301289E-01 0.45066488E+03</pdfrwt>
<totfact> 0.64087632E+04</totfact>
</mgrwt>
</event>
<event>
 7    0  0.4788920E-002  0.4523264E+03  0.7546771E-02  0.1027031E+00
         21   -1    0    0  502  501  0.00000000000E+00  0.00000000000E+00  0.84100937061E+02  0.84100937061E+02  0.00000000000E+00 0. -1.
         21   -1    0    0  501  502 -0.00000000000E+00 -0.00000000000E+00 -0.60819527059E+03  0.60819527059E+03  0.00000000000E+00 0. -1.
      99926    2    1    2    0    0  0.35527136788E-14  0.00000000000E+00 -0.52409433353E+03  0.69229620765E+03  0.45232639619E+03 0.  0.
      99925    2    3    3    0    0  0.22811679787E+02 -0.39120077698E+02 -0.48498656504E+03  0.55363230150E+03  0.26314635429E+03 0.  0.
         25    1    4    4    0    0  0.52158830475E+02 -0.18722246271E+02 -0.24090099376E+03  0.27704126587E+03  0.12509000000E+03 0.  0.
         25    1    4    4    0    0 -0.29347150688E+02 -0.20397831428E+02 -0.24408557128E+03  0.27659103563E+03  0.12509000000E+03 0.  0.
         25    1    3    3    0    0 -0.22811679787E+02  0.39120077698E+02 -0.39107768489E+02  0.13866390615E+03  0.12509000000E+03 0.  0.
<mgrwt>
<rscale>  2 0.45232640E+03</rscale>
<asrwt>0</asrwt>
<pdfrwt beam="1">  1       21 0.12367785E-01 0.45232640E+03</pdfrwt>
<pdfrwt beam="2">  1       21 0.89440483E-01 0.45232640E+03</pdfrwt>
<totfact> 0.54460387E+04</totfact>
</mgrwt>
</event>
<event>
 7    0  0.4788920E-002  0.4572018E+03  0.7546771E-02  0.1025596E+00
         21   -1    0    0  502  501  0.00000000000E+00  0.00000000000E+00  0.20479603734E+03  0.20479603734E+03  0.00000000000E+00 0.  1.
         21   -1    0    0  501  502 -0.00000000000E+00 -0.00000000000E+00 -0.25517272549E+03  0.25517272549E+03  0.00000000000E+00 0.  1.
      99926    2    1    2    0    0  0.00000000000E+00  0.00000000000E+00 -0.50376688151E+02  0.45996876283E+03  0.45720176298E+03 0.  0.
      99925    2    3    3    0    0 -0.95490388074E+02 -0.60493277666E+01  0.32789082560E+02  0.28187030102E+03  0.26309833539E+03 0.  0.
         25    1    4    4    0    0 -0.86650307862E+02  0.14298425898E+02  0.14676716734E+02  0.15354359300E+03  0.12509000000E+03 0.  0.
         25    1    3    3    0    0  0.95490388074E+02  0.60493277666E+01 -0.83165770711E+02  0.17809846181E+03  0.12509000000E+03 0.  0.
         25    1    4    4    0    0 -0.88400802119E+01 -0.20347753665E+02  0.18112365826E+02  0.12832670803E+03  0.12509000000E+03 0.  0.
<mgrwt>
<rscale>  2 0.45720176E+03</rscale>
<asrwt>0</asrwt>
<pdfrwt beam="1">  1       21 0.30117064E-01 0.45720176E+03</pdfrwt>
<pdfrwt beam="2">  1       21 0.37525401E-01 0.45720176E+03</pdfrwt>
<totfact> 0.66998549E+04</totfact>
</mgrwt>
</event>
<event>
 7    0  0.4788920E-002  0.4552860E+03  0.7546771E-02  0.1026157E+00
         21   -1    0    0  502  501  0.00000000000E+00  0.00000000000E+00  0.36455108079E+03  0.36455108079E+03  0.00000000000E+00 0. -1.
         21   -1    0    0  501  502 -0.00000000000E+00 -0.00000000000E+00 -0.14215110441E+03  0.14215110441E+03  0.00000000000E+00 0. -1.
      99926    2    1    2    0    0 -0.71054273576E-14  0.00000000000E+00  0.22239997638E+03  0.50670218520E+03  0.45528601449E+03 0.  0.
      99925    2    3    3    0    0  0.59839374010E+02 -0.73872594379E+02  0.71693815253E+02  0.28899190528E+03  0.26332187013E+03 0.  0.
         25    1    3    3    0    0 -0.59839374010E+02  0.73872594379E+02  0.15070616113E+03  0.21771027993E+03  0.12509000000E+03 0.  0.
         25    1    4    4    0    0  0.25672255019E+02 -0.13713933828E+02  0.69493909028E+02  0.14602755956E+03  0.12509000000E+03 0.  0.
         25    1    4    4    0    0  0.34167118992E+02 -0.60158660551E+02  0.21999062251E+01  0.14296434572E+03  0.12509000000E+03 0.  0.
<mgrwt>
<rscale>  2 0.45528601E+03</rscale>
<asrwt>0</asrwt>
<pdfrwt beam="1">  1       21 0.53610453E-01 0.45528601E+03</pdfrwt>
<pdfrwt beam="2">  1       21 0.20904574E-01 0.45528601E+03</pdfrwt>
<totfact> 0.64655433E+04</totfact>
</mgrwt>
</event>
<event>
 7    0  0.4788920E-002  0.4676661E+03  0.7546771E-02  0.1022581E+00
         21   -1    0    0  502  501  0.00000000000E+00  0.00000000000E+00  0.55705479337E+03  0.55705479337E+03  0.00000000000E+00 0. -1.
         21   -1    0    0  501  502 -0.00000000000E+00 -0.00000000000E+00 -0.98155339026E+02  0.98155339026E+02  0.00000000000E+00 0. -1.
      99926    2    1    2    0    0  0.00000000000E+00  0.00000000000E+00  0.45889945434E+03  0.65521013239E+03  0.46766612919E+03 0.  0.
      99925    2    3    3    0    0  0.45216147914E+02  0.97804440442E+02  0.37354644968E+03  0.46935305799E+03  0.26295462416E+03 0.  0.
         25    1    3    3    0    0 -0.45216147914E+02 -0.97804440442E+02  0.85353004657E+02  0.18585707440E+03  0.12509000000E+03 0.  0.
         25    1    4    4    0    0 -0.18468294638E+01  0.13540795777E+02  0.17713589326E+03  0.21728183705E+03  0.12509000000E+03 0.  0.
         25    1    4    4    0    0  0.47062977378E+02  0.84263644665E+02  0.19641055642E+03  0.25207122094E+03  0.12509000000E+03 0.  0.
<mgrwt>
<rscale>  2 0.46766613E+03</rscale>
<asrwt>0</asrwt>
<pdfrwt beam="1">  1       21 0.81919821E-01 0.46766613E+03</pdfrwt>
<pdfrwt beam="2">  1       21 0.14434609E-01 0.46766613E+03</pdfrwt>
<totfact> 0.50195763E+04</totfact>
</mgrwt>
</event>
<event>
 7    0  0.4788920E-002  0.4570230E+03  0.7546771E-02  0.1025648E+00
         21   -1    0    0  502  501  0.00000000000E+00  0.00000000000E+00  0.13870623303E+03  0.13870623303E+03  0.00000000000E+00 0. -1.
         21   -1    0    0  501  502 -0.00000000000E+00 -0.00000000000E+00 -0.37646121075E+03  0.37646121075E+03  0.00000000000E+00 0. -1.
      99926    2    1    2    0    0  0.14210854715E-13 -0.17763568394E-14 -0.23775497771E+03  0.51516744378E+03  0.45702304723E+03 0.  0.
      99925    2    3    3    0    0 -0.10132612194E+03  0.14571626307E+02 -0.20862374627E+03  0.35092539062E+03  0.26295521860E+03 0.  0.
         25    1    4    4    0    0 -0.15148077163E+02 -0.16514157372E+02 -0.97168359580E+02  0.15997305973E+03  0.12509000000E+03 0.  0.
         25    1    3    3    0    0  0.10132612194E+03 -0.14571626307E+02 -0.29131231442E+02  0.16424205316E+03  0.12509000000E+03 0.  0.
         25    1    4    4    0    0 -0.86178044782E+02  0.31085783678E+02 -0.11145538669E+03  0.19095233089E+03  0.12509000000E+03 0.  0.
<mgrwt>
<rscale>  2 0.45702305E+03</rscale>
<asrwt>0</asrwt>
<pdfrwt beam="1">  1       21 0.20397976E-01 0.45702305E+03</pdfrwt>
<pdfrwt beam="2">  1       21 0.55361942E-01 0.45702305E+03</pdfrwt>
<totfact> 0.63197061E+04</totfact>
</mgrwt>
</event>
<event>
 7    0  0.4788920E-002  0.4518472E+03  0.7546771E-02  0.1027173E+00
         21   -1    0    0  502  501  0.00000000000E+00  0.00000000000E+00  0.79848662279E+03  0.79848662279E+03  0.00000000000E+00 0. -1.
         21   -1    0    0  501  502 -0.00000000000E+00 -0.00000000000E+00 -0.63922773259E+02  0.63922773259E+02  0.00000000000E+00 0. -1.
      99926    2    1    2    0    0  0.00000000000E+00  0.00000000000E+00  0.73456384953E+03  0.86240939604E+03  0.45184722789E+03 0.  0.
      99925    2    3    3    0    0 -0.37831148779E+02  0.90813762349E+02  0.55849182298E+03  0.62507587148E+03  0.26292279004E+03 0.  0.
         25    1    3    3    0    0  0.37831148779E+02 -0.90813762349E+02  0.17607202655E+03  0.23733352456E+03  0.12509000000E+03 0.  0.
         25    1    4    4    0    0 -0.26306988974E+02  0.71353510323E+02  0.36815923176E+03  0.39619705846E+03  0.12509000000E+03 0.  0.
         25    1    4    4    0    0 -0.11524159805E+02  0.19460252026E+02  0.19033259122E+03  0.22887881302E+03  0.12509000000E+03 0.  0.
<mgrwt>
<rscale>  2 0.45184723E+03</rscale>
<asrwt>0</asrwt>
<pdfrwt beam="1">  1       21 0.11742450E+00 0.45184723E+03</pdfrwt>
<pdfrwt beam="2">  1       21 0.94004083E-02 0.45184723E+03</pdfrwt>
<totfact> 0.46016590E+04</totfact>
</mgrwt>
</event>
<event>
 7    0  0.4788920E-002  0.4731012E+03  0.7546771E-02  0.1021049E+00
         21   -1    0    0  502  501  0.00000000000E+00  0.00000000000E+00  0.91139019761E+02  0.91139019761E+02  0.00000000000E+00 0. -1.
         21   -1    0    0  501  502 -0.00000000000E+00 -0.00000000000E+00 -0.61396511682E+03  0.61396511682E+03  0.00000000000E+00 0. -1.
      99926    2    1    2    0    0  0.00000000000E+00  0.00000000000E+00 -0.52282609706E+03  0.70510413658E+03  0.47310116852E+03 0.  0.
      99925    2    3    3    0    0  0.62029507628E+02 -0.12273269848E+02 -0.15570616429E+03  0.31213741267E+03  0.26303433582E+03 0.  0.
         25    1    4    4    0    0  0.55620762056E+02 -0.76026364622E+01 -0.43321907460E+02  0.14379069865E+03  0.12509000000E+03 0.  0.
         25    1    4    4    0    0  0.64087455715E+01 -0.46706333857E+01 -0.11238425683E+03  0.16834671402E+03  0.12509000000E+03 0.  0.
         25    1    3    3    0    0 -0.62029507628E+02  0.12273269848E+02 -0.36711993277E+03  0.39296672391E+03  0.12509000000E+03 0.  0.
<mgrwt>
<rscale>  2 0.47310117E+03</rscale>
<asrwt>0</asrwt>
<pdfrwt beam="1">  1       21 0.13402798E-01 0.47310117E+03</pdfrwt>
<pdfrwt beam="2">  1       21 0.90288985E-01 0.47310117E+03</pdfrwt>
<totfact> 0.45750628E+04</totfact>
</mgrwt>
</event>
<event>
 7    0  0.4788920E-002  0.4512247E+03  0.7546771E-02  0.1027357E+00
         21   -1    0    0  502  501  0.00000000000E+00  0.00000000000E+00  0.67884767948E+02  0.67884767948E+02  0.00000000000E+00 0. -1.
         21   -1    0    0  501  502 -0.00000000000E+00 -0.00000000000E+00 -0.74981361165E+03  0.74981361165E+03  0.00000000000E+00 0. -1.
      99926    2    1    2    0    0  0.35527136788E-14  0.00000000000E+00 -0.68192884371E+03  0.81769837960E+03  0.45122465815E+03 0.  0.
      99925    2    3    3    0    0  0.27447209624E+02  0.75130887677E+02 -0.29479422775E+03  0.40306755758E+03  0.26298634881E+03 0.  0.
         25    1    4    4    0    0  0.37303490132E+02  0.35532524707E+02 -0.19764939328E+03  0.23951388572E+03  0.12509000000E+03 0.  0.
         25    1    3    3    0    0 -0.27447209624E+02 -0.75130887677E+02 -0.38713461595E+03  0.41463082202E+03  0.12509000000E+03 0.  0.
         25    1    4    4    0    0 -0.98562805076E+01  0.39598362970E+02 -0.97144834472E+02  0.16355367186E+03  0.12509000000E+03 0.  0.
<mgrwt>
<rscale>  2 0.45122466E+03</rscale>
<asrwt>0</asrwt>
<pdfrwt beam="1">  1       21 0.99830540E-02 0.45122466E+03</pdfrwt>
<pdfrwt beam="2">  1       21 0.11026671E+00 0.45122466E+03</pdfrwt>
<totfact> 0.48336765E+04</totfact>
</mgrwt>
</event>
<event>
 7    0  0.4788920E-002  0.4484014E+03  0.7546771E-02  0.1028200E+00
         21   -1    0    0  502  501  0.00000000000E+00  0.00000000000E+00  0.39770786815E+02  0.39770786815E+02  0.00000000000E+00 0.  1.
         21   -1    0    0  501  502 -0.00000000000E+00 -0.00000000000E+00 -0.12638910884E+04  0.12638910884E+04  0.00000000000E+00 0.  1.
      99926    2    1    2    0    0 -0.71054273576E-14  0.00000000000E+00 -0.12241203016E+04  0.13036618752E+04  0.44840135162E+03 0.  0.
      99925    2    3    3    0    0  0.39419299059E+02 -0.94918390475E+02 -0.86250955448E+03  0.90746341168E+03  0.26268561051E+03 0.  0.
         25    1    4    4    0    0  0.48868723661E+02 -0.52947386537E+02 -0.53794055487E+03  0.55697318299E+03  0.12509000000E+03 0.  0.
         25    1    3    3    0    0 -0.39419299059E+02  0.94918390475E+02 -0.36161074707E+03  0.39619846351E+03  0.12509000000E+03 0.  0.
         25    1    4    4    0    0 -0.94494246025E+01 -0.41971003938E+02 -0.32456899961E+03  0.35049022869E+03  0.12509000000E+03 0.  0.
<mgrwt>
<rscale>  2 0.44840135E+03</rscale>
<asrwt>0</asrwt>
<pdfrwt beam="1">  1       21 0.58486453E-02 0.44840135E+03</pdfrwt>
<pdfrwt beam="2">  1       21 0.18586633E+00 0.44840135E+03</pdfrwt>
<totfact> 0.30546235E+04</totfact>
</mgrwt>
</event>
<event>
 7    0  0.4788920E-002  0.4501785E+03  0.7546771E-02  0.1027669E+00
         21   -1    0    0  502  501  0.00000000000E+00  0.00000000000E+00  0.19486446942E+03  0.19486446942E+03  0.00000000000E+00 0.  1.
         21   -1    0    0  501  502 -0.00000000000E+00 -0.00000000000E+00 -0.26000203968E+03  0.26000203968E+03  0.00000000000E+00 0.  1.
      99926    2    1    2    0    0  0.00000000000E+00  0.00000000000E+00 -0.65137570267E+02  0.45486650910E+03  0.45017845133E+03 0.  0.
      99925    2    3    3    0    0  0.11046068978E+02 -0.75719360965E+02 -0.11886752413E+03  0.29869399773E+03  0.26312198449E+03 0.  0.
         25    1    4    4    0    0 -0.30997235866E+02 -0.37276423625E+02 -0.38942312775E+02  0.13969385174E+03  0.12509000000E+03 0.  0.
         25    1    4    4    0    0  0.42043304844E+02 -0.38442937340E+02 -0.79925211359E+02  0.15900014599E+03  0.12509000000E+03 0.  0.
         25    1    3    3    0    0 -0.11046068978E+02  0.75719360965E+02  0.53729953867E+02  0.15617251137E+03  0.12509000000E+03 0.  0.
<mgrwt>
<rscale>  2 0.45017845E+03</rscale>
<asrwt>0</asrwt>
<pdfrwt beam="1">  1       21 0.28656540E-01 0.45017845E+03</pdfrwt>
<pdfrwt beam="2">  1       21 0.38235594E-01 0.45017845E+03</pdfrwt>
<totfact> 0.71257016E+04</totfact>
</mgrwt>
</event>
<event>
 7    0  0.4788920E-002  0.4531452E+03  0.7546771E-02  0.1026788E+00
         21   -1    0    0  502  501  0.00000000000E+00  0.00000000000E+00  0.35566017642E+03  0.35566017642E+03  0.00000000000E+00 0. -1.
         21   -1    0    0  501  502 -0.00000000000E+00 -0.00000000000E+00 -0.14433763675E+03  0.14433763675E+03  0.00000000000E+00 0. -1.
      99926    2    1    2    0    0  0.00000000000E+00 -0.22204460493E-14  0.21132253967E+03  0.49999781317E+03  0.45314522772E+03 0.  0.
      99925    2    3    3    0    0  0.73813759009E+02 -0.32514415704E+01  0.22424988791E+03  0.35414286014E+03  0.26395096186E+03 0.  0.
         25    1    3    3    0    0 -0.73813759009E+02  0.32514415704E+01 -0.12927348239E+02  0.14585495303E+03  0.12509000000E+03 0.  0.
         25    1    4    4    0    0  0.22931629127E+02  0.35138463542E+02  0.12873616000E+03  0.18433957314E+03  0.12509000000E+03 0.  0.
         25    1    4    4    0    0  0.50882129882E+02 -0.38389905113E+02  0.95513727906E+02  0.16980328700E+03  0.12509000000E+03 0.  0.
<mgrwt>
<rscale>  2 0.45314523E+03</rscale>
<asrwt>0</asrwt>
<pdfrwt beam="1">  1       21 0.52302967E-01 0.45314523E+03</pdfrwt>
<pdfrwt beam="2">  1       21 0.21226123E-01 0.45314523E+03</pdfrwt>
<totfact> 0.66240719E+04</totfact>
</mgrwt>
</event>
<event>
 7    0  0.4788920E-002  0.4470646E+03  0.7546771E-02  0.1028601E+00
         21   -1    0    0  502  501  0.00000000000E+00  0.00000000000E+00  0.67824053120E+03  0.67824053120E+03  0.00000000000E+00 0.  1.
         21   -1    0    0  501  502 -0.00000000000E+00 -0.00000000000E+00 -0.73671045386E+02  0.73671045386E+02  0.00000000000E+00 0.  1.
      99926    2    1    2    0    0  0.14210854715E-13  0.14210854715E-13  0.60456948581E+03  0.75191157659E+03  0.44706459917E+03 0.  0.
      99925    2    3    3    0    0 -0.79809835889E+02 -0.69329427165E+02  0.39595708534E+03  0.48668936577E+03  0.26250399226E+03 0.  0.
         25    1    3    3    0    0  0.79809835889E+02  0.69329427165E+02  0.20861240048E+03  0.26522221081E+03  0.12509000000E+03 0.  0.
         25    1    4    4    0    0 -0.44670028878E+02 -0.73827001048E+02  0.23383650846E+03  0.27887785561E+03  0.12509000000E+03 0.  0.
         25    1    4    4    0    0 -0.35139807011E+02  0.44975738823E+01  0.16212057688E+03  0.20781151016E+03  0.12509000000E+03 0.  0.
<mgrwt>
<rscale>  2 0.44706460E+03</rscale>
<asrwt>0</asrwt>
<pdfrwt beam="1">  1       21 0.99741251E-01 0.44706460E+03</pdfrwt>
<pdfrwt beam="2">  1       21 0.10833978E-01 0.44706460E+03</pdfrwt>
<totfact> 0.53428358E+04</totfact>
</mgrwt>
</event>
<event>
 7    0  0.4788920E-002  0.4697416E+03  0.7546771E-02  0.1021993E+00
         21   -1    0    0  502  501  0.00000000000E+00  0.00000000000E+00  0.20357998984E+03  0.20357998984E+03  0.00000000000E+00 0. -1.
         21   -1    0    0  501  502 -0.00000000000E+00 -0.00000000000E+00 -0.27097109939E+03  0.27097109939E+03  0.00000000000E+00 0. -1.
      99926    2    1    2    0    0  0.35527136788E-14  0.00000000000E+00 -0.67391109558E+02  0.47455108923E+03  0.46974160412E+03 0.  0.
      99925    2    3    3    0    0 -0.24922594915E+02  0.79519563192E+02 -0.13802703178E+03  0.30847448559E+03  0.26298393504E+03 0.  0.
         25    1    4    4    0    0  0.73309985976E+01  0.12102072159E+02 -0.37172635955E+02  0.13126125344E+03  0.12509000000E+03 0.  0.
         25    1    3    3    0    0  0.24922594915E+02 -0.79519563192E+02  0.70635922224E+02  0.16607660364E+03  0.12509000000E+03 0.  0.
         25    1    4    4    0    0 -0.32253593513E+02  0.67417491034E+02 -0.10085439583E+03  0.17721323215E+03  0.12509000000E+03 0.  0.
<mgrwt>
<rscale>  2 0.46974160E+03</rscale>
<asrwt>0</asrwt>
<pdfrwt beam="1">  1       21 0.29938234E-01 0.46974160E+03</pdfrwt>
<pdfrwt beam="2">  1       21 0.39848691E-01 0.46974160E+03</pdfrwt>
<totfact> 0.59787504E+04</totfact>
</mgrwt>
</event>
<event>
 7    0  0.4788920E-002  0.4659150E+03  0.7546771E-02  0.1023080E+00
         21   -1    0    0  502  501  0.00000000000E+00  0.00000000000E+00  0.95599919535E+03  0.95599919535E+03  0.00000000000E+00 0.  1.
         21   -1    0    0  501  502 -0.00000000000E+00 -0.00000000000E+00 -0.56766979779E+02  0.56766979779E+02  0.00000000000E+00 0.  1.
      99926    2    1    2    0    0  0.00000000000E+00  0.00000000000E+00  0.89923221557E+03  0.10127661751E+04  0.46591495787E+03 0.  0.
      99925    2    3    3    0    0  0.75611742135E+02  0.65373435947E+01  0.77115898986E+03  0.81831790012E+03  0.26305536605E+03 0.  0.
         25    1    4    4    0    0  0.32624322328E+02  0.50325770755E+01  0.26121796107E+03  0.29149957895E+03  0.12509000000E+03 0.  0.
         25    1    4    4    0    0  0.42987419808E+02  0.15047665192E+01  0.50994102878E+03  0.52681832117E+03  0.12509000000E+03 0.  0.
         25    1    3    3    0    0 -0.75611742135E+02 -0.65373435947E+01  0.12807322571E+03  0.19444827501E+03  0.12509000000E+03 0.  0.
<mgrwt>
<rscale>  2 0.46591496E+03</rscale>
<asrwt>0</asrwt>
<pdfrwt beam="1">  1       21 0.14058811E+00 0.46591496E+03</pdfrwt>
<pdfrwt beam="2">  1       21 0.83480859E-02 0.46591496E+03</pdfrwt>
<totfact> 0.35546203E+04</totfact>
</mgrwt>
</event>
<event>
 7    0  0.4788920E-002  0.4539657E+03  0.7546771E-02  0.1026546E+00
         21   -1    0    0  502  501  0.00000000000E+00  0.00000000000E+00  0.42367892114E+02  0.42367892114E+02  0.00000000000E+00 0. -1.
         21   -1    0    0  501  502 -0.00000000000E+00 -0.00000000000E+00 -0.12160438898E+04  0.12160438898E+04  0.00000000000E+00 0. -1.
      99926    2    1    2    0    0 -0.14210854715E-13 -0.14210854715E-13 -0.11736759977E+04  0.12584117819E+04  0.45396570940E+03 0.  0.
      99925    2    3    3    0    0  0.74106436977E+02  0.81164953675E+02 -0.80331902859E+03  0.85234367634E+03  0.26284742189E+03 0.  0.
         25    1    4    4    0    0  0.42931580152E+02  0.85175554771E+00 -0.40506571353E+03  0.42610982908E+03  0.12509000000E+03 0.  0.
         25    1    3    3    0    0 -0.74106436977E+02 -0.81164953675E+02 -0.37035696908E+03  0.40606810556E+03  0.12509000000E+03 0.  0.
         25    1    4    4    0    0  0.31174856825E+02  0.80313198127E+02 -0.39825331506E+03  0.42623384726E+03  0.12509000000E+03 0.  0.
<mgrwt>
<rscale>  2 0.45396571E+03</rscale>
<asrwt>0</asrwt>
<pdfrwt beam="1">  1       21 0.62305727E-02 0.45396571E+03</pdfrwt>
<pdfrwt beam="2">  1       21 0.17882998E+00 0.45396571E+03</pdfrwt>
<totfact> 0.30592360E+04</totfact>
</mgrwt>
</event>
<event>
 7    0  0.4788920E-002  0.4503998E+03  0.7546771E-02  0.1027603E+00
         21   -1    0    0  502  501  0.00000000000E+00  0.00000000000E+00  0.39055766945E+03  0.39055766945E+03  0.00000000000E+00 0.  1.
         21   -1    0    0  501  502 -0.00000000000E+00 -0.00000000000E+00 -0.12985275388E+03  0.12985275388E+03  0.00000000000E+00 0.  1.
      99926    2    1    2    0    0  0.00000000000E+00  0.00000000000E+00  0.26070491557E+03  0.52041042334E+03  0.45039977322E+03 0.  0.
      99925    2    3    3    0    0  0.63131418753E+02  0.24363784157E+02  0.26317562181E+03  0.37816843762E+03  0.26300340166E+03 0.  0.
         25    1    4    4    0    0  0.50783001020E+01 -0.19577895166E+02  0.12843733416E+03  0.18042377897E+03  0.12509000000E+03 0.  0.
         25    1    3    3    0    0 -0.63131418753E+02 -0.24363784157E+02 -0.24707062375E+01  0.14224198572E+03  0.12509000000E+03 0.  0.
         25    1    4    4    0    0  0.58053118651E+02  0.43941679323E+02  0.13473828764E+03  0.19774465865E+03  0.12509000000E+03 0.  0.
<mgrwt>
<rscale>  2 0.45039977E+03</rscale>
<asrwt>0</asrwt>
<pdfrwt beam="1">  1       21 0.57434951E-01 0.45039977E+03</pdfrwt>
<pdfrwt beam="2">  1       21 0.19095993E-01 0.45039977E+03</pdfrwt>
<totfact> 0.66243393E+04</totfact>
</mgrwt>
</event>
<event>
 7    0  0.4788920E-002  0.4565279E+03  0.7546771E-02  0.1025793E+00
         21   -1    0    0  502  501  0.00000000000E+00  0.00000000000E+00  0.11820304224E+04  0.11820304224E+04  0.00000000000E+00 0. -1.
         21   -1    0    0  501  502 -0.00000000000E+00 -0.00000000000E+00 -0.44080439704E+02  0.44080439704E+02  0.00000000000E+00 0. -1.
      99926    2    1    2    0    0 -0.17763568394E-14  0.00000000000E+00  0.11379499827E+04  0.12261108622E+04  0.45652785573E+03 0.  0.
      99925    2    3    3    0    0  0.11833416015E+02 -0.23378325212E+02  0.10148149757E+04  0.10486388534E+04  0.26288292869E+03 0.  0.
         25    1    4    4    0    0  0.40549326271E+02  0.36959625494E+01  0.56331824569E+03  0.57847459929E+03  0.12509000000E+03 0.  0.
         25    1    3    3    0    0 -0.11833416015E+02  0.23378325212E+02  0.12313500709E+03  0.17747200877E+03  0.12509000000E+03 0.  0.
         25    1    4    4    0    0 -0.28715910256E+02 -0.27074287761E+02  0.45149672996E+03  0.47016425409E+03  0.12509000000E+03 0.  0.
<mgrwt>
<rscale>  2 0.45652786E+03</rscale>
<asrwt>0</asrwt>
<pdfrwt beam="1">  1       21 0.17382798E+00 0.45652786E+03</pdfrwt>
<pdfrwt beam="2">  1       21 0.64824184E-02 0.45652786E+03</pdfrwt>
<totfact> 0.30968293E+04</totfact>
</mgrwt>
</event>
<event>
 7    0  0.4788920E-002  0.4508032E+03  0.7546771E-02  0.1027483E+00
         21   -1    0    0  502  501  0.00000000000E+00  0.00000000000E+00  0.49217175203E+03  0.49217175203E+03  0.00000000000E+00 0.  1.
         21   -1    0    0  501  502 -0.00000000000E+00 -0.00000000000E+00 -0.10322794486E+03  0.10322794486E+03  0.00000000000E+00 0.  1.
      99926    2    1    2    0    0  0.00000000000E+00  0.00000000000E+00  0.38894380718E+03  0.59539969689E+03  0.45080318756E+03 0.  0.
      99925    2    3    3    0    0 -0.10532344330E+03 -0.28464614664E+02  0.24758193499E+03  0.37737687927E+03  0.26308407871E+03 0.  0.
         25    1    3    3    0    0  0.10532344330E+03  0.28464614664E+02  0.14136187218E+03  0.21802281762E+03  0.12509000000E+03 0.  0.
         25    1    4    4    0    0 -0.43248737858E+02 -0.42524717996E+02  0.15992288107E+03  0.21190007305E+03  0.12509000000E+03 0.  0.
         25    1    4    4    0    0 -0.62074705446E+02  0.14060103332E+02  0.87659053920E+02  0.16547680622E+03  0.12509000000E+03 0.  0.
<mgrwt>
<rscale>  2 0.45080319E+03</rscale>
<asrwt>0</asrwt>
<pdfrwt beam="1">  1       21 0.72378198E-01 0.45080319E+03</pdfrwt>
<pdfrwt beam="2">  1       21 0.15180580E-01 0.45080319E+03</pdfrwt>
<totfact> 0.60958945E+04</totfact>
</mgrwt>
</event>
<event>
 7    0  0.4788920E-002  0.4459856E+03  0.7546771E-02  0.1028926E+00
         21   -1    0    0  502  501  0.00000000000E+00  0.00000000000E+00  0.11101282363E+03  0.11101282363E+03  0.00000000000E+00 0.  1.
         21   -1    0    0  501  502 -0.00000000000E+00 -0.00000000000E+00 -0.44792833742E+03  0.44792833742E+03  0.00000000000E+00 0.  1.
      99926    2    1    2    0    0  0.00000000000E+00  0.00000000000E+00 -0.33691551379E+03  0.55894116105E+03  0.44598560300E+03 0.  0.
      99925    2    3    3    0    0  0.83721109869E+02  0.41770857188E+02 -0.15540513116E+03  0.31946766388E+03  0.26297301140E+03 0.  0.
         25    1    3    3    0    0 -0.83721109869E+02 -0.41770857188E+02 -0.18151038263E+03  0.23947349718E+03  0.12509000000E+03 0.  0.
         25    1    4    4    0    0  0.74691947200E+02 -0.30010559663E+01 -0.87677638740E+02  0.17006695666E+03  0.12509000000E+03 0.  0.
         25    1    4    4    0    0  0.90291626689E+01  0.44771913155E+02 -0.67727492423E+02  0.14940070721E+03  0.12509000000E+03 0.  0.
<mgrwt>
<rscale>  2 0.44598560E+03</rscale>
<asrwt>0</asrwt>
<pdfrwt beam="1">  1       21 0.16325415E-01 0.44598560E+03</pdfrwt>
<pdfrwt beam="2">  1       21 0.65871814E-01 0.44598560E+03</pdfrwt>
<totfact> 0.65850796E+04</totfact>
</mgrwt>
</event>
<event>
 7    0  0.4788920E-002  0.4541839E+03  0.7546771E-02  0.1026482E+00
         21   -1    0    0  502  501  0.00000000000E+00  0.00000000000E+00  0.30349331045E+03  0.30349331045E+03  0.00000000000E+00 0. -1.
         21   -1    0    0  501  502 -0.00000000000E+00 -0.00000000000E+00 -0.16992389255E+03  0.16992389255E+03  0.00000000000E+00 0. -1.
      99926    2    1    2    0    0  0.00000000000E+00  0.00000000000E+00  0.13356941790E+03  0.47341720300E+03  0.45418394809E+03 0.  0.
      99925    2    3    3    0    0 -0.38375523559E+02  0.20496871668E+02 -0.23891446980E+02  0.26766435460E+03  0.26302205788E+03 0.  0.
         25    1    4    4    0    0 -0.32391406103E+02  0.35425542211E+02  0.17053225022E+02  0.13506477266E+03  0.12509000000E+03 0.  0.
         25    1    4    4    0    0 -0.59841174558E+01 -0.14928670542E+02 -0.40944672001E+02  0.13259958194E+03  0.12509000000E+03 0.  0.
         25    1    3    3    0    0  0.38375523559E+02 -0.20496871668E+02  0.15746086488E+03  0.20575284840E+03  0.12509000000E+03 0.  0.
<mgrwt>
<rscale>  2 0.45418395E+03</rscale>
<asrwt>0</asrwt>
<pdfrwt beam="1">  1       21 0.44631369E-01 0.45418395E+03</pdfrwt>
<pdfrwt beam="2">  1       21 0.24988808E-01 0.45418395E+03</pdfrwt>
<totfact> 0.67619332E+04</totfact>
</mgrwt>
</event>
<event>
 7    0  0.4788920E-002  0.4488028E+03  0.7546771E-02  0.1028080E+00
         21   -1    0    0  502  501  0.00000000000E+00  0.00000000000E+00  0.60943840336E+02  0.60943840336E+02  0.00000000000E+00 0.  1.
         21   -1    0    0  501  502 -0.00000000000E+00 -0.00000000000E+00 -0.82626879420E+03  0.82626879420E+03  0.00000000000E+00 0.  1.
      99926    2    1    2    0    0  0.00000000000E+00  0.00000000000E+00 -0.76532495386E+03  0.88721263453E+03  0.44880282293E+03 0.  0.
      99925    2    3    3    0    0  0.65071435946E+02  0.76162362909E+02 -0.40874818280E+03  0.49627849806E+03  0.26302523338E+03 0.  0.
         25    1    3    3    0    0 -0.65071435946E+02 -0.76162362909E+02 -0.35657677106E+03  0.39093413647E+03  0.12509000000E+03 0.  0.
         25    1    4    4    0    0  0.15479083394E+02  0.45026307746E+02 -0.13748049595E+03  0.19187330528E+03  0.12509000000E+03 0.  0.
         25    1    4    4    0    0  0.49592352551E+02  0.31136055164E+02 -0.27126768685E+03  0.30440519278E+03  0.12509000000E+03 0.  0.
<mgrwt>
<rscale>  2 0.44880282E+03</rscale>
<asrwt>0</asrwt>
<pdfrwt beam="1">  1       21 0.89623303E-02 0.44880282E+03</pdfrwt>
<pdfrwt beam="2">  1       21 0.12151011E+00 0.44880282E+03</pdfrwt>
<totfact> 0.45982427E+04</totfact>
</mgrwt>
</event>
<event>
 7    0  0.4788920E-002  0.4507106E+03  0.7546771E-02  0.1027510E+00
         21   -1    0    0  502  501  0.00000000000E+00  0.00000000000E+00  0.14048103025E+03  0.14048103025E+03  0.00000000000E+00 0. -1.
         21   -1    0    0  501  502 -0.00000000000E+00 -0.00000000000E+00 -0.36150800534E+03  0.36150800534E+03  0.00000000000E+00 0. -1.
      99926    2    1    2    0    0  0.00000000000E+00 -0.35527136788E-14 -0.22102697509E+03  0.50198903559E+03  0.45071062571E+03 0.  0.
      99925    2    3    3    0    0 -0.64186341148E+02  0.20890040380E+02 -0.43990678450E+02  0.27495238963E+03  0.26288278110E+03 0.  0.
         25    1    4    4    0    0 -0.56839806266E+02 -0.20536856286E+02 -0.30977525499E+02  0.14233636650E+03  0.12509000000E+03 0.  0.
         25    1    3    3    0    0  0.64186341148E+02 -0.20890040380E+02 -0.17703629664E+03  0.22703664595E+03  0.12509000000E+03 0.  0.
         25    1    4    4    0    0 -0.73465348825E+01  0.41426896667E+02 -0.13013152951E+02  0.13261602313E+03  0.12509000000E+03 0.  0.
<mgrwt>
<rscale>  2 0.45071063E+03</rscale>
<asrwt>0</asrwt>
<pdfrwt beam="1">  1       21 0.20658975E-01 0.45071063E+03</pdfrwt>
<pdfrwt beam="2">  1       21 0.53162941E-01 0.45071063E+03</pdfrwt>
<totfact> 0.67396702E+04</totfact>
</mgrwt>
</event>
<event>
 7    0  0.4788920E-002  0.3911992E+03  0.7546771E-02  0.1046870E+00
         21   -1    0    0  502  501  0.00000000000E+00  0.00000000000E+00  0.57704460264E+02  0.57704460264E+02  0.00000000000E+00 0.  1.
         21   -1    0    0  501  502 -0.00000000000E+00 -0.00000000000E+00 -0.66301974156E+03  0.66301974156E+03  0.00000000000E+00 0.  1.
      99926    2    1    2    0    0 -0.17763568394E-14  0.00000000000E+00 -0.60531528130E+03  0.72072420183E+03  0.39119916325E+03 0.  0.
      99925    2    3    3    0    0 -0.13343854850E+02  0.84198186721E+01 -0.43926482675E+03  0.51223148405E+03  0.26301816178E+03 0.  0.
         25    1    3    3    0    0  0.13343854850E+02 -0.84198186721E+01 -0.16605045455E+03  0.20849271778E+03  0.12509000000E+03 0.  0.
         25    1    4    4    0    0 -0.40337154234E+02  0.16282192712E+02 -0.18560202898E+03  0.22800837062E+03  0.12509000000E+03 0.  0.
         25    1    4    4    0    0  0.26993299384E+02 -0.78623740399E+01 -0.25366279777E+03  0.28422311343E+03  0.12509000000E+03 0.  0.
<mgrwt>
<rscale>  2 0.39119916E+03</rscale>
<asrwt>0</asrwt>
<pdfrwt beam="1">  1       21 0.84859504E-02 0.39119916E+03</pdfrwt>
<pdfrwt beam="2">  1       21 0.97502899E-01 0.39119916E+03</pdfrwt>
<totfact> 0.88545577E+04</totfact>
</mgrwt>
</event>
<event>
 7    0  0.4788920E-002  0.4548560E+03  0.7546771E-02  0.1026284E+00
         21   -1    0    0  502  501  0.00000000000E+00  0.00000000000E+00  0.14477724949E+04  0.14477724949E+04  0.00000000000E+00 0.  1.
         21   -1    0    0  501  502 -0.00000000000E+00 -0.00000000000E+00 -0.35726257829E+02  0.35726257829E+02  0.00000000000E+00 0.  1.
      99926    2    1    2    0    0  0.00000000000E+00 -0.17763568394E-14  0.14120462371E+04  0.14834987528E+04  0.45485599230E+03 0.  0.
      99925    2    3    3    0    0 -0.56109990616E+02  0.11057522088E+02  0.57083250099E+03  0.63111465051E+03  0.26303109714E+03 0.  0.
         25    1    4    4    0    0 -0.34406812013E+02 -0.20248428795E+02  0.35801931347E+03  0.38133864805E+03  0.12509000000E+03 0.  0.
         25    1    3    3    0    0  0.56109990616E+02 -0.11057522088E+02  0.84121373611E+03  0.85238410224E+03  0.12509000000E+03 0.  0.
         25    1    4    4    0    0 -0.21703178603E+02  0.31305950884E+02  0.21281318752E+03  0.24977600246E+03  0.12509000000E+03 0.  0.
<mgrwt>
<rscale>  2 0.45485599E+03</rscale>
<asrwt>0</asrwt>
<pdfrwt beam="1">  1       21 0.21290768E+00 0.45485599E+03</pdfrwt>
<pdfrwt beam="2">  1       21 0.52538624E-02 0.45485599E+03</pdfrwt>
<totfact> 0.24213537E+04</totfact>
</mgrwt>
</event>
<event>
 7    0  0.4788920E-002  0.4561015E+03  0.7546771E-02  0.1025918E+00
         21   -1    0    0  502  501  0.00000000000E+00  0.00000000000E+00  0.22919651809E+03  0.22919651809E+03  0.00000000000E+00 0. -1.
         21   -1    0    0  501  502 -0.00000000000E+00 -0.00000000000E+00 -0.22691067815E+03  0.22691067815E+03  0.00000000000E+00 0. -1.
      99926    2    1    2    0    0  0.00000000000E+00  0.00000000000E+00  0.22858399414E+01  0.45610719625E+03  0.45610146832E+03 0.  0.
      99925    2    3    3    0    0 -0.11166770976E+03 -0.21156839567E+02  0.13444884241E+02  0.28672797192E+03  0.26289708197E+03 0.  0.
         25    1    4    4    0    0 -0.91008801046E+02 -0.15067373473E+02  0.31305089251E+02  0.15854697829E+03  0.12509000000E+03 0.  0.
         25    1    3    3    0    0  0.11166770976E+03  0.21156839567E+02 -0.11159044300E+02  0.16937922432E+03  0.12509000000E+03 0.  0.
         25    1    4    4    0    0 -0.20658908710E+02 -0.60894660933E+01 -0.17860205010E+02  0.12818099364E+03  0.12509000000E+03 0.  0.
<mgrwt>
<rscale>  2 0.45610147E+03</rscale>
<asrwt>0</asrwt>
<pdfrwt beam="1">  1       21 0.33705370E-01 0.45610147E+03</pdfrwt>
<pdfrwt beam="2">  1       21 0.33369217E-01 0.45610147E+03</pdfrwt>
<totfact> 0.67866341E+04</totfact>
</mgrwt>
</event>
<event>
 7    0  0.4788920E-002  0.4526822E+03  0.7546771E-02  0.1026925E+00
         21   -1    0    0  502  501  0.00000000000E+00  0.00000000000E+00  0.32918808421E+03  0.32918808421E+03  0.00000000000E+00 0. -1.
         21   -1    0    0  501  502 -0.00000000000E+00 -0.00000000000E+00 -0.15562621043E+03  0.15562621043E+03  0.00000000000E+00 0. -1.
      99926    2    1    2    0    0 -0.14210854715E-13  0.71054273576E-14  0.17356187378E+03  0.48481429464E+03  0.45268220228E+03 0.  0.
      99925    2    3    3    0    0 -0.68781425752E+02  0.50748579124E+02  0.33366328994E+02  0.27839578363E+03  0.26283949023E+03 0.  0.
         25    1    3    3    0    0  0.68781425752E+02 -0.50748579124E+02  0.14019554478E+03  0.20641851101E+03  0.12509000000E+03 0.  0.
         25    1    4    4    0    0 -0.72927386750E+02  0.37033648464E+02  0.61710557441E+01  0.14958437380E+03  0.12509000000E+03 0.  0.
         25    1    4    4    0    0  0.41459609984E+01  0.13714930660E+02  0.27195273250E+02  0.12881140983E+03  0.12509000000E+03 0.  0.
<mgrwt>
<rscale>  2 0.45268220E+03</rscale>
<asrwt>0</asrwt>
<pdfrwt beam="1">  1       21 0.48410013E-01 0.45268220E+03</pdfrwt>
<pdfrwt beam="2">  1       21 0.22886207E-01 0.45268220E+03</pdfrwt>
<totfact> 0.67586333E+04</totfact>
</mgrwt>
</event>
<event>
 7    0  0.4788920E-002  0.4568476E+03  0.7546771E-02  0.1025699E+00
         21   -1    0    0  502  501  0.00000000000E+00  0.00000000000E+00  0.35503449843E+02  0.35503449843E+02  0.00000000000E+00 0. -1.
         21   -1    0    0  501  502 -0.00000000000E+00 -0.00000000000E+00 -0.14696443232E+04  0.14696443232E+04  0.00000000000E+00 0. -1.
      99926    2    1    2    0    0  0.00000000000E+00  0.00000000000E+00 -0.14341408733E+04  0.15051477730E+04  0.45684764863E+03 0.  0.
      99925    2    3    3    0    0 -0.68992776023E+02  0.53580738313E+02 -0.65015955181E+03  0.70645814666E+03  0.26219224151E+03 0.  0.
         25    1    4    4    0    0 -0.63570065545E+02  0.56032323806E+02 -0.36145273501E+03  0.39176059308E+03  0.12509000000E+03 0.  0.
         25    1    3    3    0    0  0.68992776023E+02 -0.53580738313E+02 -0.78398132152E+03  0.79868962636E+03  0.12509000000E+03 0.  0.
         25    1    4    4    0    0 -0.54227104779E+01 -0.24515854926E+01 -0.28870681680E+03  0.31469755358E+03  0.12509000000E+03 0.  0.
<mgrwt>
<rscale>  2 0.45684765E+03</rscale>
<asrwt>0</asrwt>
<pdfrwt beam="1">  1       21 0.52210954E-02 0.45684765E+03</pdfrwt>
<pdfrwt beam="2">  1       21 0.21612417E+00 0.45684765E+03</pdfrwt>
<totfact> 0.23316815E+04</totfact>
</mgrwt>
</event>
<event>
 6    0  0.4788920E-002  0.4650922E+03  0.7546771E-02  0.1023315E+00
         21   -1    0    0  502  501  0.00000000000E+00  0.00000000000E+00  0.17289481711E+03  0.17289481711E+03  0.00000000000E+00 0.  1.
         21   -1    0    0  501  502 -0.00000000000E+00 -0.00000000000E+00 -0.31277794668E+03  0.31277794668E+03  0.00000000000E+00 0.  1.
      99926    2    1    2    0    0  0.00000000000E+00  0.00000000000E+00 -0.13988312957E+03  0.48567276379E+03  0.46509218823E+03 0.  0.
         25    1    3    3    0    0 -0.54746439908E+02 -0.25521714199E+02 -0.59782334877E+02  0.15122819262E+03  0.12509000000E+03 0.  0.
         25    1    3    3    0    0 -0.20830748354E+02  0.97039449238E+02 -0.59634960572E+02  0.17045354619E+03  0.12509000000E+03 0.  0.
         25    1    3    3    0    0  0.75577188262E+02 -0.71517735039E+02 -0.20465834120E+02  0.16399102499E+03  0.12509000000E+03 0.  0.
<mgrwt>
<rscale>  2 0.46509219E+03</rscale>
<asrwt>0</asrwt>
<pdfrwt beam="1">  1       21 0.25425709E-01 0.46509219E+03</pdfrwt>
<pdfrwt beam="2">  1       21 0.45996756E-01 0.46509219E+03</pdfrwt>
<totfact> 0.61235202E+04</totfact>
</mgrwt>
</event>
<event>
 7    0  0.4788920E-002  0.4565949E+03  0.7546771E-02  0.1025773E+00
         21   -1    0    0  502  501  0.00000000000E+00  0.00000000000E+00  0.89863946204E+02  0.89863946204E+02  0.00000000000E+00 0.  1.
         21   -1    0    0  501  502 -0.00000000000E+00 -0.00000000000E+00 -0.57998481389E+03  0.57998481389E+03  0.00000000000E+00 0.  1.
      99926    2    1    2    0    0  0.00000000000E+00  0.00000000000E+00 -0.49012086768E+03  0.66984876009E+03  0.45659489316E+03 0.  0.
      99925    2    3    3    0    0 -0.51846725932E+02  0.36496182950E+02 -0.44814489259E+03  0.52346042400E+03  0.26297702632E+03 0.  0.
         25    1    3    3    0    0  0.51846725932E+02 -0.36496182950E+02 -0.41975975091E+02  0.14638833609E+03  0.12509000000E+03 0.  0.
         25    1    4    4    0    0 -0.89555259678E+01  0.51911301026E+02 -0.25505794499E+03  0.28892394851E+03  0.12509000000E+03 0.  0.
         25    1    4    4    0    0 -0.42891199964E+02 -0.15415118076E+02 -0.19308694760E+03  0.23453647549E+03  0.12509000000E+03 0.  0.
<mgrwt>
<rscale>  2 0.45659489E+03</rscale>
<asrwt>0</asrwt>
<pdfrwt beam="1">  1       21 0.13215287E-01 0.45659489E+03</pdfrwt>
<pdfrwt beam="2">  1       21 0.85291882E-01 0.45659489E+03</pdfrwt>
<totfact> 0.53890059E+04</totfact>
</mgrwt>
</event>
<event>
 7    0  0.4788920E-002  0.4561530E+03  0.7546771E-02  0.1025903E+00
         21   -1    0    0  502  501  0.00000000000E+00  0.00000000000E+00  0.51405436498E+02  0.51405436498E+02  0.00000000000E+00 0. -1.
         21   -1    0    0  501  502 -0.00000000000E+00 -0.00000000000E+00 -0.10119337164E+04  0.10119337164E+04  0.00000000000E+00 0. -1.
      99926    2    1    2    0    0  0.00000000000E+00  0.00000000000E+00 -0.96052827991E+03  0.10633391529E+04  0.45615301994E+03 0.  0.
      99925    2    3    3    0    0 -0.20285716081E+02 -0.10913463282E+03 -0.66942661910E+03  0.72761670298E+03  0.26262556947E+03 0.  0.
         25    1    4    4    0    0 -0.16765269881E+02 -0.18966787876E+02 -0.24925032184E+03  0.28002507808E+03  0.12509000000E+03 0.  0.
         25    1    4    4    0    0 -0.35204462002E+01 -0.90167844941E+02 -0.42017629726E+03  0.44759162490E+03  0.12509000000E+03 0.  0.
         25    1    3    3    0    0  0.20285716081E+02  0.10913463282E+03 -0.29110166081E+03  0.33572244992E+03  0.12509000000E+03 0.  0.
<mgrwt>
<rscale>  2 0.45615302E+03</rscale>
<asrwt>0</asrwt>
<pdfrwt beam="1">  1       21 0.75596235E-02 0.45615302E+03</pdfrwt>
<pdfrwt beam="2">  1       21 0.14881377E+00 0.45615302E+03</pdfrwt>
<totfact> 0.36462507E+04</totfact>
</mgrwt>
</event>
<event>
 7    0  0.4788920E-002  0.4535743E+03  0.7546771E-02  0.1026661E+00
         21   -1    0    0  502  501  0.00000000000E+00  0.00000000000E+00  0.98014318536E+03  0.98014318536E+03  0.00000000000E+00 0.  1.
         21   -1    0    0  501  502 -0.00000000000E+00 -0.00000000000E+00 -0.52474394379E+02  0.52474394379E+02  0.00000000000E+00 0.  1.
      99926    2    1    2    0    0 -0.71054273576E-14 -0.14210854715E-13  0.92766879098E+03  0.10326175797E+04  0.45357433815E+03 0.  0.
      99925    2    3    3    0    0 -0.39068582328E+02 -0.10478339462E+03  0.58874183510E+03  0.65443124546E+03  0.26297793201E+03 0.  0.
         25    1    4    4    0    0 -0.41420025688E+02 -0.35093698406E+02  0.21973188191E+03  0.25860547988E+03  0.12509000000E+03 0.  0.
         25    1    3    3    0    0  0.39068582328E+02  0.10478339462E+03  0.33892695589E+03  0.37818633428E+03  0.12509000000E+03 0.  0.
         25    1    4    4    0    0  0.23514433606E+01 -0.69689696216E+02  0.36900995318E+03  0.39582576558E+03  0.12509000000E+03 0.  0.
<mgrwt>
<rscale>  2 0.45357434E+03</rscale>
<asrwt>0</asrwt>
<pdfrwt beam="1">  1       21 0.14413869E+00 0.45357434E+03</pdfrwt>
<pdfrwt beam="2">  1       21 0.77168233E-02 0.45357434E+03</pdfrwt>
<totfact> 0.38346762E+04</totfact>
</mgrwt>
</event>
<event>
 7    0  0.4788920E-002  0.4631735E+03  0.7546771E-02  0.1023865E+00
         21   -1    0    0  502  501  0.00000000000E+00  0.00000000000E+00  0.27720477918E+03  0.27720477918E+03  0.00000000000E+00 0.  1.
         21   -1    0    0  501  502 -0.00000000000E+00 -0.00000000000E+00 -0.19347585905E+03  0.19347585905E+03  0.00000000000E+00 0.  1.
      99926    2    1    2    0    0  0.00000000000E+00  0.71054273576E-14  0.83728920136E+02  0.47068063823E+03  0.46317354322E+03 0.  0.
      99925    2    3    3    0    0  0.81005900508E+02  0.49497697576E+02 -0.23488806524E+02  0.28053562254E+03  0.26293826937E+03 0.  0.
         25    1    4    4    0    0  0.56406308414E+02 -0.59409773053E+01  0.94353692422E+01  0.13767171508E+03  0.12509000000E+03 0.  0.
         25    1    3    3    0    0 -0.81005900508E+02 -0.49497697576E+02  0.10721772666E+03  0.19014501569E+03  0.12509000000E+03 0.  0.
         25    1    4    4    0    0  0.24599592094E+02  0.55438674881E+02 -0.32924175766E+02  0.14286390746E+03  0.12509000000E+03 0.  0.
<mgrwt>
<rscale>  2 0.46317354E+03</rscale>
<asrwt>0</asrwt>
<pdfrwt beam="1">  1       21 0.40765409E-01 0.46317354E+03</pdfrwt>
<pdfrwt beam="2">  1       21 0.28452332E-01 0.46317354E+03</pdfrwt>
<totfact> 0.63184318E+04</totfact>
</mgrwt>
</event>
<event>
 7    0  0.4788920E-002  0.4530481E+03  0.7546771E-02  0.1026817E+00
         21   -1    0    0  502  501  0.00000000000E+00  0.00000000000E+00  0.22037844071E+03  0.22037844071E+03  0.00000000000E+00 0.  1.
         21   -1    0    0  501  502 -0.00000000000E+00 -0.00000000000E+00 -0.23284103754E+03  0.23284103754E+03  0.00000000000E+00 0.  1.
      99926    2    1    2    0    0  0.00000000000E+00  0.00000000000E+00 -0.12462596826E+02  0.45321947825E+03  0.45304809805E+03 0.  0.
      99925    2    3    3    0    0  0.54816558942E+02 -0.27339161506E+02  0.85116607688E+02  0.28315627194E+03  0.26302158191E+03 0.  0.
         25    1    3    3    0    0 -0.54816558942E+02  0.27339161506E+02 -0.97579204514E+02  0.17006320631E+03  0.12509000000E+03 0.  0.
         25    1    4    4    0    0  0.52623372338E+02 -0.43198009701E+00  0.13165795984E+02  0.13634607514E+03  0.12509000000E+03 0.  0.
         25    1    4    4    0    0  0.21931866046E+01 -0.26907181409E+02  0.71950811704E+02  0.14681019680E+03  0.12509000000E+03 0.  0.
<mgrwt>
<rscale>  2 0.45304810E+03</rscale>
<asrwt>0</asrwt>
<pdfrwt beam="1">  1       21 0.32408594E-01 0.45304810E+03</pdfrwt>
<pdfrwt beam="2">  1       21 0.34241329E-01 0.45304810E+03</pdfrwt>
<totfact> 0.69756518E+04</totfact>
</mgrwt>
</event>
<event>
 7    0  0.4788920E-002  0.4545894E+03  0.7546771E-02  0.1026362E+00
         21   -1    0    0  502  501  0.00000000000E+00  0.00000000000E+00  0.74186051185E+02  0.74186051185E+02  0.00000000000E+00 0.  1.
         21   -1    0    0  501  502 -0.00000000000E+00 -0.00000000000E+00 -0.69639609427E+03  0.69639609427E+03  0.00000000000E+00 0.  1.
      99926    2    1    2    0    0  0.71054273576E-14  0.00000000000E+00 -0.62221004308E+03  0.77058214545E+03  0.45458938085E+03 0.  0.
      99925    2    3    3    0    0  0.63412732668E+02 -0.93246164860E+02 -0.38516801701E+03  0.47980310193E+03  0.26294598946E+03 0.  0.
         25    1    3    3    0    0 -0.63412732668E+02  0.93246164860E+02 -0.23704202607E+03  0.29077904352E+03  0.12509000000E+03 0.  0.
         25    1    4    4    0    0  0.39579089968E+02 -0.76620623025E+02 -0.25578080758E+03  0.29750387201E+03  0.12509000000E+03 0.  0.
         25    1    4    4    0    0  0.23833642700E+02 -0.16625541835E+02 -0.12938720942E+03  0.18229922992E+03  0.12509000000E+03 0.  0.
<mgrwt>
<rscale>  2 0.45458938E+03</rscale>
<asrwt>0</asrwt>
<pdfrwt beam="1">  1       21 0.10909713E-01 0.45458938E+03</pdfrwt>
<pdfrwt beam="2">  1       21 0.10241119E+00 0.45458938E+03</pdfrwt>
<totfact> 0.49379565E+04</totfact>
</mgrwt>
</event>
<event>
 7    0  0.4788920E-002  0.4672317E+03  0.7546771E-02  0.1022704E+00
         21   -1    0    0  502  501  0.00000000000E+00  0.00000000000E+00  0.19929734617E+03  0.19929734617E+03  0.00000000000E+00 0. -1.
         21   -1    0    0  501  502 -0.00000000000E+00 -0.00000000000E+00 -0.27384391281E+03  0.27384391281E+03  0.00000000000E+00 0. -1.
      99926    2    1    2    0    0  0.14210854715E-13  0.35527136788E-14 -0.74546566641E+02  0.47314125898E+03  0.46723169879E+03 0.  0.
      99925    2    3    3    0    0 -0.11795471972E+03 -0.16527735846E+02 -0.81850496321E+02  0.30026171292E+03  0.26319405492E+03 0.  0.
         25    1    4    4    0    0 -0.88155260111E+02 -0.31230371715E+02 -0.67119838243E+02  0.16999784348E+03  0.12509000000E+03 0.  0.
         25    1    3    3    0    0  0.11795471972E+03  0.16527735846E+02  0.73039296804E+01  0.17287954606E+03  0.12509000000E+03 0.  0.
         25    1    4    4    0    0 -0.29799459609E+02  0.14702635869E+02 -0.14730658078E+02  0.13026386944E+03  0.12509000000E+03 0.  0.
<mgrwt>
<rscale>  2 0.46723170E+03</rscale>
<asrwt>0</asrwt>
<pdfrwt beam="1">  1       21 0.29308433E-01 0.46723170E+03</pdfrwt>
<pdfrwt beam="2">  1       21 0.40271164E-01 0.46723170E+03</pdfrwt>
<totfact> 0.61054005E+04</totfact>
</mgrwt>
</event>
<event>
 7    0  0.4788920E-002  0.4517291E+03  0.7546771E-02  0.1027208E+00
         21   -1    0    0  502  501  0.00000000000E+00  0.00000000000E+00  0.80943462301E+02  0.80943462301E+02  0.00000000000E+00 0.  1.
         21   -1    0    0  501  502 -0.00000000000E+00 -0.00000000000E+00 -0.63025229304E+03  0.63025229304E+03  0.00000000000E+00 0.  1.
      99926    2    1    2    0    0  0.00000000000E+00  0.35527136788E-14 -0.54930883074E+03  0.71119575534E+03  0.45172913442E+03 0.  0.
      99925    2    3    3    0    0 -0.88964152503E+02  0.30764568837E+02 -0.25633178989E+03  0.37901488038E+03  0.26284066259E+03 0.  0.
         25    1    3    3    0    0  0.88964152503E+02 -0.30764568837E+02 -0.29297704085E+03  0.33218087497E+03  0.12509000000E+03 0.  0.
         25    1    4    4    0    0 -0.30795181463E+02 -0.67028824076E+01 -0.16474696305E+03  0.20924230396E+03  0.12509000000E+03 0.  0.
         25    1    4    4    0    0 -0.58168971040E+02  0.37467451245E+02 -0.91584826839E+02  0.16977257641E+03  0.12509000000E+03 0.  0.
<mgrwt>
<rscale>  2 0.45172913E+03</rscale>
<asrwt>0</asrwt>
<pdfrwt beam="1">  1       21 0.11903450E-01 0.45172913E+03</pdfrwt>
<pdfrwt beam="2">  1       21 0.92684164E-01 0.45172913E+03</pdfrwt>
<totfact> 0.53667069E+04</totfact>
</mgrwt>
</event>
<event>
 7    0  0.4788920E-002  0.4559048E+03  0.7546771E-02  0.1025976E+00
         21   -1    0    0  502  501  0.00000000000E+00  0.00000000000E+00  0.28918181884E+03  0.28918181884E+03  0.00000000000E+00 0. -1.
         21   -1    0    0  501  502 -0.00000000000E+00 -0.00000000000E+00 -0.17968730942E+03  0.17968730942E+03  0.00000000000E+00 0. -1.
      99926    2    1    2    0    0  0.14210854715E-13  0.00000000000E+00  0.10949450943E+03  0.46886912826E+03  0.45590482761E+03 0.  0.
      99925    2    3    3    0    0 -0.10833268189E+03 -0.29163166598E+02  0.89867839811E+02  0.29969710187E+03  0.26297464514E+03 0.  0.
         25    1    4    4    0    0 -0.81201688736E+02 -0.47685979961E+02  0.48851234533E+02  0.16401712762E+03  0.12509000000E+03 0.  0.
         25    1    4    4    0    0 -0.27130993151E+02  0.18522813363E+02  0.41016605277E+02  0.13567997425E+03  0.12509000000E+03 0.  0.
         25    1    3    3    0    0  0.10833268189E+03  0.29163166598E+02  0.19626669618E+02  0.16917202638E+03  0.12509000000E+03 0.  0.
<mgrwt>
<rscale>  2 0.45590483E+03</rscale>
<asrwt>0</asrwt>
<pdfrwt beam="1">  1       21 0.42526738E-01 0.45590483E+03</pdfrwt>
<pdfrwt beam="2">  1       21 0.26424604E-01 0.45590483E+03</pdfrwt>
<totfact> 0.67037570E+04</totfact>
</mgrwt>
</event>
<event>
 7    0  0.4788920E-002  0.4609489E+03  0.7546771E-02  0.1024506E+00
         21   -1    0    0  502  501  0.00000000000E+00  0.00000000000E+00  0.11479619728E+03  0.11479619728E+03  0.00000000000E+00 0.  1.
         21   -1    0    0  501  502 -0.00000000000E+00 -0.00000000000E+00 -0.46271986397E+03  0.46271986397E+03  0.00000000000E+00 0.  1.
      99926    2    1    2    0    0  0.00000000000E+00  0.00000000000E+00 -0.34792366668E+03  0.57751606125E+03  0.46094893769E+03 0.  0.
      99925    2    3    3    0    0  0.71179057117E+01  0.11852233237E+03 -0.21599047588E+03  0.36037075785E+03  0.26290110230E+03 0.  0.
         25    1    3    3    0    0 -0.71179057117E+01 -0.11852233237E+03 -0.13193319080E+03  0.21714530340E+03  0.12509000000E+03 0.  0.
         25    1    4    4    0    0  0.65166151608E+01  0.89611125542E+02 -0.80768642957E+02  0.17390716454E+03  0.12509000000E+03 0.  0.
         25    1    4    4    0    0  0.60129055091E+00  0.28911206825E+02 -0.13522183293E+03  0.18646359331E+03  0.12509000000E+03 0.  0.
<mgrwt>
<rscale>  2 0.46094894E+03</rscale>
<asrwt>0</asrwt>
<pdfrwt beam="1">  1       21 0.16881794E-01 0.46094894E+03</pdfrwt>
<pdfrwt beam="2">  1       21 0.68047038E-01 0.46094894E+03</pdfrwt>
<totfact> 0.57339113E+04</totfact>
</mgrwt>
</event>
<event>
 7    0  0.4788920E-002  0.4587340E+03  0.7546771E-02  0.1025149E+00
         21   -1    0    0  502  501  0.00000000000E+00  0.00000000000E+00  0.36473580609E+03  0.36473580609E+03  0.00000000000E+00 0.  1.
         21   -1    0    0  501  502 -0.00000000000E+00 -0.00000000000E+00 -0.14423922301E+03  0.14423922301E+03  0.00000000000E+00 0.  1.
      99926    2    1    2    0    0  0.00000000000E+00  0.00000000000E+00  0.22049658307E+03  0.50897502910E+03  0.45873395024E+03 0.  0.
      99925    2    3    3    0    0 -0.10554911921E+03  0.47299223324E+02  0.12102599206E+03  0.31169416417E+03  0.26292228534E+03 0.  0.
         25    1    3    3    0    0  0.10554911921E+03 -0.47299223324E+02  0.99470591010E+02  0.19728086494E+03  0.12509000000E+03 0.  0.
         25    1    4    4    0    0 -0.55042907377E+02  0.57961154851E+02  0.87366511933E+02  0.17224875219E+03  0.12509000000E+03 0.  0.
         25    1    4    4    0    0 -0.50506211837E+02 -0.10661931527E+02  0.33659480130E+02  0.13944541197E+03  0.12509000000E+03 0.  0.
<mgrwt>
<rscale>  2 0.45873395E+03</rscale>
<asrwt>0</asrwt>
<pdfrwt beam="1">  1       21 0.53637619E-01 0.45873395E+03</pdfrwt>
<pdfrwt beam="2">  1       21 0.21211650E-01 0.45873395E+03</pdfrwt>
<totfact> 0.62763821E+04</totfact>
</mgrwt>
</event>
<event>
 7    0  0.4788920E-002  0.4548316E+03  0.7546771E-02  0.1026291E+00
         21   -1    0    0  502  501  0.00000000000E+00  0.00000000000E+00  0.73533286440E+03  0.73533286440E+03  0.00000000000E+00 0. -1.
         21   -1    0    0  501  502 -0.00000000000E+00 -0.00000000000E+00 -0.70332697378E+02  0.70332697378E+02  0.00000000000E+00 0. -1.
      99926    2    1    2    0    0 -0.88817841970E-15  0.00000000000E+00  0.66500016702E+03  0.80566556178E+03  0.45483159004E+03 0.  0.
      99925    2    3    3    0    0 -0.55876556217E+01  0.63973569178E+02  0.25399239301E+03  0.37127088197E+03  0.26307050888E+03 0.  0.
         25    1    4    4    0    0 -0.32441561842E+01  0.70575537170E+02  0.15714665799E+03  0.21291785086E+03  0.12509000000E+03 0.  0.
         25    1    3    3    0    0  0.55876556217E+01 -0.63973569178E+02  0.41100777401E+03  0.43439467980E+03  0.12509000000E+03 0.  0.
         25    1    4    4    0    0 -0.23434994375E+01 -0.66019679915E+01  0.96845735024E+02  0.15835303111E+03  0.12509000000E+03 0.  0.
<mgrwt>
<rscale>  2 0.45483159E+03</rscale>
<asrwt>0</asrwt>
<pdfrwt beam="1">  1       21 0.10813718E+00 0.45483159E+03</pdfrwt>
<pdfrwt beam="2">  1       21 0.10343044E-01 0.45483159E+03</pdfrwt>
<totfact> 0.47554809E+04</totfact>
</mgrwt>
</event>
<event>
 7    0  0.4788920E-002  0.4761684E+03  0.7546771E-02  0.1020194E+00
         21   -1    0    0  502  501  0.00000000000E+00  0.00000000000E+00  0.16295358264E+03  0.16295358264E+03  0.00000000000E+00 0. -1.
         21   -1    0    0  501  502 -0.00000000000E+00 -0.00000000000E+00 -0.34785425852E+03  0.34785425852E+03  0.00000000000E+00 0. -1.
      99926    2    1    2    0    0  0.00000000000E+00  0.00000000000E+00 -0.18490067588E+03  0.51080784116E+03  0.47616844776E+03 0.  0.
      99925    2    3    3    0    0  0.15473199839E+02 -0.12857759984E+03 -0.85851826789E+02  0.30530893192E+03  0.26281436158E+03 0.  0.
         25    1    4    4    0    0  0.66232445883E+01 -0.62123497885E+02 -0.74790050254E+00  0.13982583386E+03  0.12509000000E+03 0.  0.
         25    1    3    3    0    0 -0.15473199839E+02  0.12857759984E+03 -0.99048849088E+02  0.20549890924E+03  0.12509000000E+03 0.  0.
         25    1    4    4    0    0  0.88499552510E+01 -0.66454101952E+02 -0.85103926287E+02  0.16548309806E+03  0.12509000000E+03 0.  0.
<mgrwt>
<rscale>  2 0.47616845E+03</rscale>
<asrwt>0</asrwt>
<pdfrwt beam="1">  1       21 0.23963763E-01 0.47616845E+03</pdfrwt>
<pdfrwt beam="2">  1       21 0.51155037E-01 0.47616845E+03</pdfrwt>
<totfact> 0.54727235E+04</totfact>
</mgrwt>
</event>
<event>
 7    0  0.4788920E-002  0.4439755E+03  0.7546771E-02  0.1029534E+00
         21   -1    0    0  502  501  0.00000000000E+00  0.00000000000E+00  0.21527200643E+03  0.21527200643E+03  0.00000000000E+00 0.  1.
         21   -1    0    0  501  502 -0.00000000000E+00 -0.00000000000E+00 -0.22891295037E+03  0.22891295037E+03  0.00000000000E+00 0.  1.
      99926    2    1    2    0    0 -0.71054273576E-14  0.00000000000E+00 -0.13640943946E+02  0.44418495680E+03  0.44397545033E+03 0.  0.
      99925    2    3    3    0    0  0.50479835884E+02  0.74660741116E+02 -0.57495479720E+02  0.28389406965E+03  0.26299747622E+03 0.  0.
         25    1    4    4    0    0  0.61364269995E+02  0.20430304157E+02 -0.21394596205E+02  0.14243667999E+03  0.12509000000E+03 0.  0.
         25    1    3    3    0    0 -0.50479835884E+02 -0.74660741116E+02  0.43854535774E+02  0.16029088715E+03  0.12509000000E+03 0.  0.
         25    1    4    4    0    0 -0.10884434111E+02  0.54230436959E+02 -0.36100883515E+02  0.14145738966E+03  0.12509000000E+03 0.  0.
<mgrwt>
<rscale>  2 0.44397545E+03</rscale>
<asrwt>0</asrwt>
<pdfrwt beam="1">  1       21 0.31657648E-01 0.44397545E+03</pdfrwt>
<pdfrwt beam="2">  1       21 0.33663669E-01 0.44397545E+03</pdfrwt>
<totfact> 0.75796634E+04</totfact>
</mgrwt>
</event>
<event>
 7    0  0.4788920E-002  0.4610227E+03  0.7546771E-02  0.1024485E+00
         21   -1    0    0  502  501  0.00000000000E+00  0.00000000000E+00  0.36893967260E+02  0.36893967260E+02  0.00000000000E+00 0.  1.
         21   -1    0    0  501  502 -0.00000000000E+00 -0.00000000000E+00 -0.14402212133E+04  0.14402212133E+04  0.00000000000E+00 0.  1.
      99926    2    1    2    0    0  0.00000000000E+00 -0.13322676296E-14 -0.14033272460E+04  0.14771151805E+04  0.46102266448E+03 0.  0.
      99925    2    3    3    0    0 -0.11583605415E+03 -0.14070103559E+01 -0.96054682883E+03  0.10026449738E+04  0.26310979083E+03 0.  0.
         25    1    4    4    0    0 -0.30580701889E+02  0.31481910081E+02 -0.44602104121E+03  0.46530481117E+03  0.12509000000E+03 0.  0.
         25    1    4    4    0    0 -0.85255352260E+02 -0.32888920436E+02 -0.51452578762E+03  0.53734016266E+03  0.12509000000E+03 0.  0.
         25    1    3    3    0    0  0.11583605415E+03  0.14070103559E+01 -0.44278041718E+03  0.47447020672E+03  0.12509000000E+03 0.  0.
<mgrwt>
<rscale>  2 0.46102266E+03</rscale>
<asrwt>0</asrwt>
<pdfrwt beam="1">  1       21 0.54255848E-02 0.46102266E+03</pdfrwt>
<pdfrwt beam="2">  1       21 0.21179718E+00 0.46102266E+03</pdfrwt>
<totfact> 0.23239249E+04</totfact>
</mgrwt>
</event>
<event>
 7    0  0.4788920E-002  0.4589481E+03  0.7546771E-02  0.1025087E+00
         21   -1    0    0  502  501  0.00000000000E+00  0.00000000000E+00  0.61367365294E+02  0.61367365294E+02  0.00000000000E+00 0. -1.
         21   -1    0    0  501  502 -0.00000000000E+00 -0.00000000000E+00 -0.85808371139E+03  0.85808371139E+03  0.00000000000E+00 0. -1.
      99926    2    1    2    0    0  0.14210854715E-13  0.00000000000E+00 -0.79671634610E+03  0.91945107669E+03  0.45894808669E+03 0.  0.
      99925    2    3    3    0    0  0.11393326177E+03  0.14342844057E+02 -0.54336408640E+03  0.61445700969E+03  0.26291896289E+03 0.  0.
         25    1    4    4    0    0  0.16578785444E+02  0.11365221188E+02 -0.27459635634E+03  0.30241476715E+03  0.12509000000E+03 0.  0.
         25    1    3    3    0    0 -0.11393326177E+03 -0.14342844057E+02 -0.25335225970E+03  0.30499406700E+03  0.12509000000E+03 0.  0.
         25    1    4    4    0    0  0.97354476326E+02  0.29776228694E+01 -0.26876773007E+03  0.31204224253E+03  0.12509000000E+03 0.  0.
<mgrwt>
<rscale>  2 0.45894809E+03</rscale>
<asrwt>0</asrwt>
<pdfrwt beam="1">  1       21 0.90246121E-02 0.45894809E+03</pdfrwt>
<pdfrwt beam="2">  1       21 0.12618879E+00 0.45894809E+03</pdfrwt>
<totfact> 0.41118027E+04</totfact>
</mgrwt>
</event>
<event>
 7    0  0.4788920E-002  0.4654688E+03  0.7546771E-02  0.1023207E+00
         21   -1    0    0  502  501  0.00000000000E+00  0.00000000000E+00  0.71094348790E+03  0.71094348790E+03  0.00000000000E+00 0.  1.
         21   -1    0    0  501  502 -0.00000000000E+00 -0.00000000000E+00 -0.76187907874E+02  0.76187907874E+02  0.00000000000E+00 0.  1.
      99926    2    1    2    0    0  0.00000000000E+00  0.00000000000E+00  0.63475558003E+03  0.78713139578E+03  0.46546878288E+03 0.  0.
      99925    2    3    3    0    0  0.33795070392E+02  0.10704381549E+03  0.47953095878E+03  0.55834617694E+03  0.26305898133E+03 0.  0.
         25    1    4    4    0    0  0.54812713218E+02  0.59228623224E+02  0.22150069701E+03  0.26687549572E+03  0.12509000000E+03 0.  0.
         25    1    4    4    0    0 -0.21017642826E+02  0.47815192266E+02  0.25803026177E+03  0.29147068122E+03  0.12509000000E+03 0.  0.
         25    1    3    3    0    0 -0.33795070392E+02 -0.10704381549E+03  0.15522462125E+03  0.22878521884E+03  0.12509000000E+03 0.  0.
<mgrwt>
<rscale>  2 0.46546878E+03</rscale>
<asrwt>0</asrwt>
<pdfrwt beam="1">  1       21 0.10455051E+00 0.46546878E+03</pdfrwt>
<pdfrwt beam="2">  1       21 0.11204104E-01 0.46546878E+03</pdfrwt>
<totfact> 0.44613416E+04</totfact>
</mgrwt>
</event>
<event>
 7    0  0.4788920E-002  0.4392899E+03  0.7546771E-02  0.1030965E+00
         21   -1    0    0  502  501  0.00000000000E+00  0.00000000000E+00  0.25550835073E+03  0.25550835073E+03  0.00000000000E+00 0. -1.
         21   -1    0    0  501  502 -0.00000000000E+00 -0.00000000000E+00 -0.18881539980E+03  0.18881539980E+03  0.00000000000E+00 0. -1.
      99926    2    1    2    0    0  0.00000000000E+00 -0.35527136788E-14  0.66692950924E+02  0.44432375053E+03  0.43928993339E+03 0.  0.
      99925    2    3    3    0    0  0.94007790802E+02  0.55030927333E+01  0.68804121576E+02  0.28773603101E+03  0.26304042966E+03 0.  0.
         25    1    4    4    0    0  0.69942314341E+02  0.24949879482E+02  0.92085868185E+01  0.14576258091E+03  0.12509000000E+03 0.  0.
         25    1    4    4    0    0  0.24065476461E+02 -0.19446786749E+02  0.59595534758E+02  0.14197345011E+03  0.12509000000E+03 0.  0.
         25    1    3    3    0    0 -0.94007790802E+02 -0.55030927333E+01 -0.21111706522E+01  0.15658771951E+03  0.12509000000E+03 0.  0.
<mgrwt>
<rscale>  2 0.43928993E+03</rscale>
<asrwt>0</asrwt>
<pdfrwt beam="1">  1       21 0.37574758E-01 0.43928993E+03</pdfrwt>
<pdfrwt beam="2">  1       21 0.27766970E-01 0.43928993E+03</pdfrwt>
<totfact> 0.78751692E+04</totfact>
</mgrwt>
</event>
<event>
 7    0  0.4788920E-002  0.4550500E+03  0.7546771E-02  0.1026227E+00
         21   -1    0    0  502  501  0.00000000000E+00  0.00000000000E+00  0.95558664948E+02  0.95558664948E+02  0.00000000000E+00 0. -1.
         21   -1    0    0  501  502 -0.00000000000E+00 -0.00000000000E+00 -0.54173670945E+03  0.54173670945E+03  0.00000000000E+00 0. -1.
      99926    2    1    2    0    0  0.00000000000E+00  0.00000000000E+00 -0.44617804450E+03  0.63729537440E+03  0.45505004871E+03 0.  0.
      99925    2    3    3    0    0  0.99968649143E+02 -0.33070270574E+02 -0.33913577625E+03  0.44186526182E+03  0.26295334428E+03 0.  0.
         25    1    3    3    0    0 -0.99968649143E+02  0.33070270574E+02 -0.10704226826E+03  0.19543011257E+03  0.12509000000E+03 0.  0.
         25    1    4    4    0    0  0.26159675629E+02  0.18320332708E+02 -0.14927220965E+03  0.19735669204E+03  0.12509000000E+03 0.  0.
         25    1    4    4    0    0  0.73808973514E+02 -0.51390603282E+02 -0.18986356660E+03  0.24450856979E+03  0.12509000000E+03 0.  0.
<mgrwt>
<rscale>  2 0.45505005E+03</rscale>
<asrwt>0</asrwt>
<pdfrwt beam="1">  1       21 0.14052745E-01 0.45505005E+03</pdfrwt>
<pdfrwt beam="2">  1       21 0.79667165E-01 0.45505005E+03</pdfrwt>
<totfact> 0.56417113E+04</totfact>
</mgrwt>
</event>
<event>
 7    0  0.4788920E-002  0.4566647E+03  0.7546771E-02  0.1025753E+00
         21   -1    0    0  502  501  0.00000000000E+00  0.00000000000E+00  0.26611525748E+02  0.26611525748E+02  0.00000000000E+00 0. -1.
         21   -1    0    0  501  502 -0.00000000000E+00 -0.00000000000E+00 -0.19591380463E+04  0.19591380463E+04  0.00000000000E+00 0. -1.
      99926    2    1    2    0    0  0.00000000000E+00  0.00000000000E+00 -0.19325265206E+04  0.19857495721E+04  0.45666465843E+03 0.  0.
      99925    2    3    3    0    0 -0.41928947488E+02 -0.99981162404E+02 -0.13782552330E+04  0.14072874404E+04  0.26289956844E+03 0.  0.
         25    1    4    4    0    0 -0.19547383841E+02 -0.56972127162E+02 -0.89707928241E+03  0.90775914786E+03  0.12509000000E+03 0.  0.
         25    1    4    4    0    0 -0.22381563647E+02 -0.43009035242E+02 -0.48117595058E+03  0.49952829251E+03  0.12509000000E+03 0.  0.
         25    1    3    3    0    0  0.41928947488E+02  0.99981162404E+02 -0.55427128759E+03  0.57846213171E+03  0.12509000000E+03 0.  0.
<mgrwt>
<rscale>  2 0.45666466E+03</rscale>
<asrwt>0</asrwt>
<pdfrwt beam="1">  1       21 0.39134599E-02 0.45666466E+03</pdfrwt>
<pdfrwt beam="2">  1       21 0.28810852E+00 0.45666466E+03</pdfrwt>
<totfact> 0.13765083E+04</totfact>
</mgrwt>
</event>
<event>
 6    0  0.4788920E-002  0.4597585E+03  0.7546771E-02  0.1024851E+00
         21   -1    0    0  502  501  0.00000000000E+00  0.00000000000E+00  0.41610147414E+03  0.41610147414E+03  0.00000000000E+00 0. -1.
         21   -1    0    0  501  502 -0.00000000000E+00 -0.00000000000E+00 -0.12699900467E+03  0.12699900467E+03  0.00000000000E+00 0. -1.
      99926    2    1    2    0    0 -0.14210854715E-13  0.00000000000E+00  0.28910246946E+03  0.54310047881E+03  0.45975851513E+03 0.  0.
         25    1    3    3    0    0  0.15434629864E+02 -0.22569854065E+02  0.93439318078E+02  0.15851195657E+03  0.12509000000E+03 0.  0.
         25    1    3    3    0    0  0.55442145948E+02  0.97075914169E+02  0.11719697511E+03  0.20464653365E+03  0.12509000000E+03 0.  0.
         25    1    3    3    0    0 -0.70876775812E+02 -0.74506060105E+02  0.78466176277E+02  0.17994198860E+03  0.12509000000E+03 0.  0.
<mgrwt>
<rscale>  2 0.45975852E+03</rscale>
<asrwt>0</asrwt>
<pdfrwt beam="1">  1       21 0.61191393E-01 0.45975852E+03</pdfrwt>
<pdfrwt beam="2">  1       21 0.18676324E-01 0.45975852E+03</pdfrwt>
<totfact> 0.60032045E+04</totfact>
</mgrwt>
</event>
<event>
 7    0  0.4788920E-002  0.4575779E+03  0.7546771E-02  0.1025486E+00
         21   -1    0    0  502  501  0.00000000000E+00  0.00000000000E+00  0.11947439305E+03  0.11947439305E+03  0.00000000000E+00 0.  1.
         21   -1    0    0  501  502 -0.00000000000E+00 -0.00000000000E+00 -0.43812228673E+03  0.43812228673E+03  0.00000000000E+00 0.  1.
      99926    2    1    2    0    0 -0.71054273576E-14 -0.14210854715E-13 -0.31864789368E+03  0.55759667978E+03  0.45757794653E+03 0.  0.
      99925    2    3    3    0    0 -0.54624281085E+02 -0.93637163147E+02 -0.15129795353E+03  0.32221350074E+03  0.26301851438E+03 0.  0.
         25    1    3    3    0    0  0.54624281085E+02  0.93637163147E+02 -0.16734994016E+03  0.23538317904E+03  0.12509000000E+03 0.  0.
         25    1    4    4    0    0 -0.44824505686E+02 -0.84120528463E+02 -0.99729946784E+02  0.18622317258E+03  0.12509000000E+03 0.  0.
         25    1    4    4    0    0 -0.97997753998E+01 -0.95166346840E+01 -0.51568006741E+02  0.13599032816E+03  0.12509000000E+03 0.  0.
<mgrwt>
<rscale>  2 0.45757795E+03</rscale>
<asrwt>0</asrwt>
<pdfrwt beam="1">  1       21 0.17569764E-01 0.45757795E+03</pdfrwt>
<pdfrwt beam="2">  1       21 0.64429747E-01 0.45757795E+03</pdfrwt>
<totfact> 0.60131635E+04</totfact>
</mgrwt>
</event>
<event>
 7    0  0.4788920E-002  0.4413259E+03  0.7546771E-02  0.1030341E+00
         21   -1    0    0  502  501  0.00000000000E+00  0.00000000000E+00  0.84829153443E+03  0.84829153443E+03  0.00000000000E+00 0.  1.
         21   -1    0    0  501  502 -0.00000000000E+00 -0.00000000000E+00 -0.57400235405E+02  0.57400235405E+02  0.00000000000E+00 0.  1.
      99926    2    1    2    0    0  0.00000000000E+00 -0.17763568394E-14  0.79089129902E+03  0.90569176983E+03  0.44132588308E+03 0.  0.
      99925    2    3    3    0    0 -0.51919748919E+02 -0.11946681699E+02  0.67736131168E+03  0.72856201610E+03  0.26295604426E+03 0.  0.
         25    1    3    3    0    0  0.51919748919E+02  0.11946681699E+02  0.11352998734E+03  0.17712975373E+03  0.12509000000E+03 0.  0.
         25    1    4    4    0    0 -0.49815430110E+02 -0.19324376308E+02  0.26952625990E+03  0.30190548433E+03  0.12509000000E+03 0.  0.
         25    1    4    4    0    0 -0.21043188093E+01  0.73776946088E+01  0.40783505178E+03  0.42665653177E+03  0.12509000000E+03 0.  0.
<mgrwt>
<rscale>  2 0.44132588E+03</rscale>
<asrwt>0</asrwt>
<pdfrwt beam="1">  1       21 0.12474875E+00 0.44132588E+03</pdfrwt>
<pdfrwt beam="2">  1       21 0.84412116E-02 0.44132588E+03</pdfrwt>
<totfact> 0.47913144E+04</totfact>
</mgrwt>
</event>
<event>
 7    0  0.4788920E-002  0.4560748E+03  0.7546771E-02  0.1025926E+00
         21   -1    0    0  502  501  0.00000000000E+00  0.00000000000E+00  0.11290863188E+04  0.11290863188E+04  0.00000000000E+00 0.  1.
         21   -1    0    0  501  502 -0.00000000000E+00 -0.00000000000E+00 -0.46055870782E+02  0.46055870782E+02  0.00000000000E+00 0.  1.
      99926    2    1    2    0    0  0.14210854715E-13  0.00000000000E+00  0.10830304480E+04  0.11751421896E+04  0.45607479036E+03 0.  0.
      99925    2    3    3    0    0 -0.69958649315E+02  0.66953073492E+02  0.83649561825E+03  0.88221923546E+03  0.26307590805E+03 0.  0.
         25    1    4    4    0    0 -0.49832060067E+01  0.60957976006E+02  0.41310123987E+03  0.43593674962E+03  0.12509000000E+03 0.  0.
         25    1    4    4    0    0 -0.64975443308E+02  0.59950974863E+01  0.42339437838E+03  0.44628248584E+03  0.12509000000E+03 0.  0.
         25    1    3    3    0    0  0.69958649315E+02 -0.66953073492E+02  0.24653482975E+03  0.29292295411E+03  0.12509000000E+03 0.  0.
<mgrwt>
<rscale>  2 0.45607479E+03</rscale>
<asrwt>0</asrwt>
<pdfrwt beam="1">  1       21 0.16604209E+00 0.45607479E+03</pdfrwt>
<pdfrwt beam="2">  1       21 0.67729229E-02 0.45607479E+03</pdfrwt>
<totfact> 0.32679392E+04</totfact>
</mgrwt>
</event>
<event>
 7    0  0.4788920E-002  0.4568137E+03  0.7546771E-02  0.1025709E+00
         21   -1    0    0  502  501  0.00000000000E+00  0.00000000000E+00  0.61907613081E+03  0.61907613081E+03  0.00000000000E+00 0. -1.
         21   -1    0    0  501  502 -0.00000000000E+00 -0.00000000000E+00 -0.84270244187E+02  0.84270244187E+02  0.00000000000E+00 0. -1.
      99926    2    1    2    0    0  0.00000000000E+00  0.44408920985E-15  0.53480588663E+03  0.70334637500E+03  0.45681373322E+03 0.  0.
      99925    2    3    3    0    0  0.82781810704E+02  0.21884718070E+01  0.21340748035E+03  0.34866051223E+03  0.26299008066E+03 0.  0.
         25    1    4    4    0    0  0.67880448879E+02 -0.49555389952E+01  0.15215836429E+03  0.20840342759E+03  0.12509000000E+03 0.  0.
         25    1    4    4    0    0  0.14901361825E+02  0.71440108022E+01  0.61249116063E+02  0.14025708464E+03  0.12509000000E+03 0.  0.
         25    1    3    3    0    0 -0.82781810704E+02 -0.21884718070E+01  0.32139840627E+03  0.35468586277E+03  0.12509000000E+03 0.  0.
<mgrwt>
<rscale>  2 0.45681373E+03</rscale>
<asrwt>0</asrwt>
<pdfrwt beam="1">  1       21 0.91040605E-01 0.45681373E+03</pdfrwt>
<pdfrwt beam="2">  1       21 0.12392683E-01 0.45681373E+03</pdfrwt>
<totfact> 0.51975837E+04</totfact>
</mgrwt>
</event>
<event>
 7    0  0.4788920E-002  0.4509610E+03  0.7546771E-02  0.1027436E+00
         21   -1    0    0  502  501  0.00000000000E+00  0.00000000000E+00  0.68683154340E+02  0.68683154340E+02  0.00000000000E+00 0. -1.
         21   -1    0    0  501  502 -0.00000000000E+00 -0.00000000000E+00 -0.74023177099E+03  0.74023177099E+03  0.00000000000E+00 0. -1.
      99926    2    1    2    0    0  0.00000000000E+00  0.00000000000E+00 -0.67154861665E+03  0.80891492533E+03  0.45096098711E+03 0.  0.
      99925    2    3    3    0    0 -0.30366202431E+02  0.91217791146E+02 -0.33079560935E+03  0.43341138106E+03  0.26301501554E+03 0.  0.
         25    1    4    4    0    0 -0.41094897380E+02  0.32891614997E+02 -0.20801697676E+03  0.24837314599E+03  0.12509000000E+03 0.  0.
         25    1    4    4    0    0  0.10728694948E+02  0.58326176149E+02 -0.12277863259E+03  0.18503823508E+03  0.12509000000E+03 0.  0.
         25    1    3    3    0    0  0.30366202431E+02 -0.91217791146E+02 -0.34075300730E+03  0.37550354426E+03  0.12509000000E+03 0.  0.
<mgrwt>
<rscale>  2 0.45096099E+03</rscale>
<asrwt>0</asrwt>
<pdfrwt beam="1">  1       21 0.10100463E-01 0.45096099E+03</pdfrwt>
<pdfrwt beam="2">  1       21 0.10885762E+00 0.45096099E+03</pdfrwt>
<totfact> 0.48867173E+04</totfact>
</mgrwt>
</event>
<event>
 7    0  0.4788920E-002  0.4087712E+03  0.7546771E-02  0.1040784E+00
         21   -1    0    0  502  501  0.00000000000E+00  0.00000000000E+00  0.11253794456E+03  0.11253794456E+03  0.00000000000E+00 0.  1.
         21   -1    0    0  501  502 -0.00000000000E+00 -0.00000000000E+00 -0.37119462593E+03  0.37119462593E+03  0.00000000000E+00 0.  1.
      99926    2    1    2    0    0  0.00000000000E+00  0.00000000000E+00 -0.25865668137E+03  0.48373257049E+03  0.40877123302E+03 0.  0.
      99925    2    3    3    0    0  0.49376587781E+02 -0.30415321395E+02 -0.18746161670E+03  0.32855723570E+03  0.26352392718E+03 0.  0.
         25    1    4    4    0    0  0.35322164612E+02  0.17057181669E+02 -0.12143419993E+03  0.17869632277E+03  0.12509000000E+03 0.  0.
         25    1    3    3    0    0 -0.49376587781E+02  0.30415321395E+02 -0.71195064665E+02  0.15517533480E+03  0.12509000000E+03 0.  0.
         25    1    4    4    0    0  0.14054423168E+02 -0.47472503064E+02 -0.66027416771E+02  0.14986091293E+03  0.12509000000E+03 0.  0.
<mgrwt>
<rscale>  2 0.40877123E+03</rscale>
<asrwt>0</asrwt>
<pdfrwt beam="1">  1       21 0.16549698E-01 0.40877123E+03</pdfrwt>
<pdfrwt beam="2">  1       21 0.54587445E-01 0.40877123E+03</pdfrwt>
<totfact> 0.97604072E+04</totfact>
</mgrwt>
</event>
<event>
 6    0  0.4788920E-002  0.4565330E+03  0.7546771E-02  0.1025792E+00
         21   -1    0    0  502  501  0.00000000000E+00  0.00000000000E+00  0.58891837053E+02  0.58891837053E+02  0.00000000000E+00 0. -1.
         21   -1    0    0  501  502 -0.00000000000E+00 -0.00000000000E+00 -0.88476770621E+03  0.88476770621E+03  0.00000000000E+00 0. -1.
      99926    2    1    2    0    0  0.14210854715E-13 -0.14210854715E-13 -0.82587586916E+03  0.94365954327E+03  0.45653300246E+03 0.  0.
         25    1    3    3    0    0 -0.19696229922E+02  0.58706438172E+01 -0.17505266403E+03  0.21613271204E+03  0.12509000000E+03 0.  0.
         25    1    3    3    0    0  0.69673235520E+02 -0.77246743339E+02 -0.42489027666E+03  0.45497326779E+03  0.12509000000E+03 0.  0.
         25    1    3    3    0    0 -0.49977005598E+02  0.71376099521E+02 -0.22593292847E+03  0.27255356343E+03  0.12509000000E+03 0.  0.
<mgrwt>
<rscale>  2 0.45653300E+03</rscale>
<asrwt>0</asrwt>
<pdfrwt beam="1">  1       21 0.86605640E-02 0.45653300E+03</pdfrwt>
<pdfrwt beam="2">  1       21 0.13011290E+00 0.45653300E+03</pdfrwt>
<totfact> 0.40905999E+04</totfact>
</mgrwt>
</event>
<event>
 7    0  0.4788920E-002  0.4536315E+03  0.7546771E-02  0.1026645E+00
         21   -1    0    0  502  501  0.00000000000E+00  0.00000000000E+00  0.98152534306E+02  0.98152534306E+02  0.00000000000E+00 0.  1.
         21   -1    0    0  501  502 -0.00000000000E+00 -0.00000000000E+00 -0.52413708510E+03  0.52413708510E+03  0.00000000000E+00 0.  1.
      99926    2    1    2    0    0 -0.14210854715E-13  0.00000000000E+00 -0.42598455080E+03  0.62228961941E+03  0.45363149461E+03 0.  0.
      99925    2    3    3    0    0 -0.96663033177E+02  0.53427546798E+02 -0.24424664125E+03  0.37556219773E+03  0.26304428879E+03 0.  0.
         25    1    4    4    0    0 -0.87640377643E+01  0.11181138285E+02 -0.94354456575E+02  0.15732799429E+03  0.12509000000E+03 0.  0.
         25    1    4    4    0    0 -0.87898995412E+02  0.42246408513E+02 -0.14989218468E+03  0.21823420345E+03  0.12509000000E+03 0.  0.
         25    1    3    3    0    0  0.96663033177E+02 -0.53427546798E+02 -0.18173790954E+03  0.24672742167E+03  0.12509000000E+03 0.  0.
<mgrwt>
<rscale>  2 0.45363149E+03</rscale>
<asrwt>0</asrwt>
<pdfrwt beam="1">  1       21 0.14434196E-01 0.45363149E+03</pdfrwt>
<pdfrwt beam="2">  1       21 0.77078983E-01 0.45363149E+03</pdfrwt>
<totfact> 0.57950494E+04</totfact>
</mgrwt>
</event>
<event>
 6    0  0.4788920E-002  0.4757908E+03  0.7546771E-02  0.1020298E+00
         21   -1    0    0  502  501  0.00000000000E+00  0.00000000000E+00  0.42515155199E+03  0.42515155199E+03  0.00000000000E+00 0.  1.
         21   -1    0    0  501  502 -0.00000000000E+00 -0.00000000000E+00 -0.13311541658E+03  0.13311541658E+03  0.00000000000E+00 0.  1.
      99926    2    1    2    0    0  0.00000000000E+00  0.31086244690E-14  0.29203613541E+03  0.55826696857E+03  0.47579081939E+03 0.  0.
         25    1    3    3    0    0  0.45138328838E+02 -0.25646800421E+01  0.25966638960E+03  0.29175021560E+03  0.12509000000E+03 0.  0.
         25    1    3    3    0    0 -0.18670102827E+02  0.35881906026E+02  0.48762246077E+01  0.13155747636E+03  0.12509000000E+03 0.  0.
         25    1    3    3    0    0 -0.26468226010E+02 -0.33317225984E+02  0.27493521198E+02  0.13495927661E+03  0.12509000000E+03 0.  0.
<mgrwt>
<rscale>  2 0.47579082E+03</rscale>
<asrwt>0</asrwt>
<pdfrwt beam="1">  1       21 0.62522287E-01 0.47579082E+03</pdfrwt>
<pdfrwt beam="2">  1       21 0.19575797E-01 0.47579082E+03</pdfrwt>
<totfact> 0.52190865E+04</totfact>
</mgrwt>
</event>
<event>
 7    0  0.4788920E-002  0.4513148E+03  0.7546771E-02  0.1027331E+00
         21   -1    0    0  502  501  0.00000000000E+00  0.00000000000E+00  0.19635297540E+03  0.19635297540E+03  0.00000000000E+00 0.  1.
         21   -1    0    0  501  502 -0.00000000000E+00 -0.00000000000E+00 -0.25933532844E+03  0.25933532844E+03  0.00000000000E+00 0.  1.
      99926    2    1    2    0    0  0.35527136788E-14  0.00000000000E+00 -0.62982353040E+02  0.45568830385E+03  0.45131480529E+03 0.  0.
      99925    2    3    3    0    0 -0.25909593398E+02 -0.78049481351E+02  0.33539443200E+02  0.27756757564E+03  0.26297497262E+03 0.  0.
         25    1    3    3    0    0  0.25909593398E+02  0.78049481351E+02 -0.96521796240E+02  0.17812072821E+03  0.12509000000E+03 0.  0.
         25    1    4    4    0    0  0.26570133775E+02 -0.48002877692E+02  0.16658095449E+02  0.13760540876E+03  0.12509000000E+03 0.  0.
         25    1    4    4    0    0 -0.52479727173E+02 -0.30046603658E+02  0.16881347752E+02  0.13996216688E+03  0.12509000000E+03 0.  0.
<mgrwt>
<rscale>  2 0.45131481E+03</rscale>
<asrwt>0</asrwt>
<pdfrwt beam="1">  1       21 0.28875438E-01 0.45131481E+03</pdfrwt>
<pdfrwt beam="2">  1       21 0.38137548E-01 0.45131481E+03</pdfrwt>
<totfact> 0.70546519E+04</totfact>
</mgrwt>
</event>
<event>
 7    0  0.4788920E-002  0.4295347E+03  0.7546771E-02  0.1034007E+00
         21   -1    0    0  502  501  0.00000000000E+00  0.00000000000E+00  0.14193439847E+03  0.14193439847E+03  0.00000000000E+00 0. -1.
         21   -1    0    0  501  502 -0.00000000000E+00 -0.00000000000E+00 -0.32497420207E+03  0.32497420207E+03  0.00000000000E+00 0. -1.
      99926    2    1    2    0    0  0.14210854715E-13  0.00000000000E+00 -0.18303980359E+03  0.46690860054E+03  0.42953471520E+03 0.  0.
      99925    2    3    3    0    0 -0.69950035381E+02  0.23360724864E+02 -0.16851029044E+03  0.32097249888E+03  0.26303782264E+03 0.  0.
         25    1    4    4    0    0 -0.50373552436E+01  0.20354403679E+02 -0.48322495154E+02  0.13572858334E+03  0.12509000000E+03 0.  0.
         25    1    3    3    0    0  0.69950035381E+02 -0.23360724864E+02 -0.14529513152E+02  0.14593610166E+03  0.12509000000E+03 0.  0.
         25    1    4    4    0    0 -0.64912680137E+02  0.30063211850E+01 -0.12018779529E+03  0.18524391554E+03  0.12509000000E+03 0.  0.
<mgrwt>
<rscale>  2 0.42953472E+03</rscale>
<asrwt>0</asrwt>
<pdfrwt beam="1">  1       21 0.20872706E-01 0.42953472E+03</pdfrwt>
<pdfrwt beam="2">  1       21 0.47790323E-01 0.42953472E+03</pdfrwt>
<totfact> 0.83265868E+04</totfact>
</mgrwt>
</event>
<event>
 7    0  0.4788920E-002  0.4578964E+03  0.7546771E-02  0.1025393E+00
         21   -1    0    0  502  501  0.00000000000E+00  0.00000000000E+00  0.38235119366E+03  0.38235119366E+03  0.00000000000E+00 0. -1.
         21   -1    0    0  501  502 -0.00000000000E+00 -0.00000000000E+00 -0.13709198653E+03  0.13709198653E+03  0.00000000000E+00 0. -1.
      99926    2    1    2    0    0  0.14210854715E-13  0.35527136788E-14  0.24525920714E+03  0.51944318019E+03  0.45789642798E+03 0.  0.
      99925    2    3    3    0    0  0.78371282700E+02  0.24274125986E+02  0.24660970326E+03  0.36984163246E+03  0.26312581821E+03 0.  0.
         25    1    4    4    0    0  0.74419794042E+01 -0.51354377496E+00  0.81461559403E+02  0.14946284001E+03  0.12509000000E+03 0.  0.
         25    1    4    4    0    0  0.70929303296E+02  0.24787669761E+02  0.16514814386E+03  0.22037879244E+03  0.12509000000E+03 0.  0.
         25    1    3    3    0    0 -0.78371282700E+02 -0.24274125986E+02 -0.13504961262E+01  0.14960154773E+03  0.12509000000E+03 0.  0.
<mgrwt>
<rscale>  2 0.45789643E+03</rscale>
<asrwt>0</asrwt>
<pdfrwt beam="1">  1       21 0.56228117E-01 0.45789643E+03</pdfrwt>
<pdfrwt beam="2">  1       21 0.20160586E-01 0.45789643E+03</pdfrwt>
<totfact> 0.62477025E+04</totfact>
</mgrwt>
</event>
<event>
 6    0  0.4788920E-002  0.4577144E+03  0.7546771E-02  0.1025446E+00
         21   -1    0    0  502  501  0.00000000000E+00  0.00000000000E+00  0.14093131268E+03  0.14093131268E+03  0.00000000000E+00 0.  1.
         21   -1    0    0  501  502 -0.00000000000E+00 -0.00000000000E+00 -0.37163930610E+03  0.37163930610E+03  0.00000000000E+00 0.  1.
      99926    2    1    2    0    0  0.14210854715E-13  0.71054273576E-14 -0.23070799342E+03  0.51257061878E+03  0.45771438803E+03 0.  0.
         25    1    3    3    0    0  0.20342377258E+02 -0.16062026704E+02 -0.91890226805E+02  0.15736302900E+03  0.12509000000E+03 0.  0.
         25    1    3    3    0    0  0.68971540213E+02 -0.45010514111E+02 -0.18984513701E+02  0.15096668374E+03  0.12509000000E+03 0.  0.
         25    1    3    3    0    0 -0.89313917472E+02  0.61072540815E+02 -0.11983325291E+03  0.20424090604E+03  0.12509000000E+03 0.  0.
<mgrwt>
<rscale>  2 0.45771439E+03</rscale>
<asrwt>0</asrwt>
<pdfrwt beam="1">  1       21 0.20725194E-01 0.45771439E+03</pdfrwt>
<pdfrwt beam="2">  1       21 0.54652838E-01 0.45771439E+03</pdfrwt>
<totfact> 0.63027562E+04</totfact>
</mgrwt>
</event>
<event>
 7    0  0.4788920E-002  0.4517809E+03  0.7546771E-02  0.1027192E+00
         21   -1    0    0  502  501  0.00000000000E+00  0.00000000000E+00  0.41147632401E+02  0.41147632401E+02  0.00000000000E+00 0.  1.
         21   -1    0    0  501  502 -0.00000000000E+00 -0.00000000000E+00 -0.12400835825E+04  0.12400835825E+04  0.00000000000E+00 0.  1.
      99926    2    1    2    0    0  0.00000000000E+00  0.00000000000E+00 -0.11989359501E+04  0.12812312149E+04  0.45178093540E+03 0.  0.
      99925    2    3    3    0    0 -0.26758408172E+02  0.89090609947E+02 -0.92385552604E+03  0.96505104950E+03  0.26298544820E+03 0.  0.
         25    1    3    3    0    0  0.26758408172E+02 -0.89090609947E+02 -0.27508042403E+03  0.31618016537E+03  0.12509000000E+03 0.  0.
         25    1    4    4    0    0  0.25233462785E+02  0.42544520336E+02 -0.40287105903E+03  0.42473446076E+03  0.12509000000E+03 0.  0.
         25    1    4    4    0    0 -0.51991870957E+02  0.46546089611E+02 -0.52098446701E+03  0.54031658874E+03  0.12509000000E+03 0.  0.
<mgrwt>
<rscale>  2 0.45178094E+03</rscale>
<asrwt>0</asrwt>
<pdfrwt beam="1">  1       21 0.60511232E-02 0.45178094E+03</pdfrwt>
<pdfrwt beam="2">  1       21 0.18236521E+00 0.45178094E+03</pdfrwt>
<totfact> 0.30419364E+04</totfact>
</mgrwt>
</event>
<event>
 7    0  0.4788920E-002  0.4566824E+03  0.7546771E-02  0.1025748E+00
         21   -1    0    0  502  501  0.00000000000E+00  0.00000000000E+00  0.34757288554E+02  0.34757288554E+02  0.00000000000E+00 0. -1.
         21   -1    0    0  501  502 -0.00000000000E+00 -0.00000000000E+00 -0.15001084109E+04  0.15001084109E+04  0.00000000000E+00 0. -1.
      99926    2    1    2    0    0  0.00000000000E+00  0.00000000000E+00 -0.14653511223E+04  0.15348656994E+04  0.45668238810E+03 0.  0.
      99925    2    3    3    0    0 -0.69446550458E+01 -0.34160241636E+02 -0.12876300494E+04  0.13147579117E+04  0.26340476840E+03 0.  0.
         25    1    3    3    0    0  0.69446550458E+01  0.34160241636E+02 -0.17772107292E+03  0.22010778769E+03  0.12509000000E+03 0.  0.
         25    1    4    4    0    0  0.12096031581E+02 -0.92021163451E+01 -0.82178946175E+03  0.83139426296E+03  0.12509000000E+03 0.  0.
         25    1    4    4    0    0 -0.19040686627E+02 -0.24958125291E+02 -0.46584058765E+03  0.48336364878E+03  0.12509000000E+03 0.  0.
<mgrwt>
<rscale>  2 0.45668239E+03</rscale>
<asrwt>0</asrwt>
<pdfrwt beam="1">  1       21 0.51113657E-02 0.45668239E+03</pdfrwt>
<pdfrwt beam="2">  1       21 0.22060419E+00 0.45668239E+03</pdfrwt>
<totfact> 0.22640143E+04</totfact>
</mgrwt>
</event>
<event>
 7    0  0.4788920E-002  0.4552158E+03  0.7546771E-02  0.1026178E+00
         21   -1    0    0  502  501  0.00000000000E+00  0.00000000000E+00  0.91173614047E+03  0.91173614047E+03  0.00000000000E+00 0. -1.
         21   -1    0    0  501  502 -0.00000000000E+00 -0.00000000000E+00 -0.56820569740E+02  0.56820569740E+02  0.00000000000E+00 0. -1.
      99926    2    1    2    0    0 -0.35527136788E-14 -0.14210854715E-13  0.85491557073E+03  0.96855671021E+03  0.45521584750E+03 0.  0.
      99925    2    3    3    0    0 -0.31346063257E+02 -0.89879267273E+02  0.66905298349E+03  0.72513676895E+03  0.26292694917E+03 0.  0.
         25    1    4    4    0    0  0.68841719916E+01 -0.90141245669E+01  0.28577059772E+03  0.31215539222E+03  0.12509000000E+03 0.  0.
         25    1    4    4    0    0 -0.38230235248E+02 -0.80865142706E+02  0.38328238576E+03  0.41298137673E+03  0.12509000000E+03 0.  0.
         25    1    3    3    0    0  0.31346063257E+02  0.89879267273E+02  0.18586258724E+03  0.24341994126E+03  0.12509000000E+03 0.  0.
<mgrwt>
<rscale>  2 0.45521585E+03</rscale>
<asrwt>0</asrwt>
<pdfrwt beam="1">  1       21 0.13407883E+00 0.45521585E+03</pdfrwt>
<pdfrwt beam="2">  1       21 0.83559668E-02 0.45521585E+03</pdfrwt>
<totfact> 0.40330309E+04</totfact>
</mgrwt>
</event>
<event>
 7    0  0.4788920E-002  0.4532158E+03  0.7546771E-02  0.1026767E+00
         21   -1    0    0  502  501  0.00000000000E+00  0.00000000000E+00  0.65118992999E+02  0.65118992999E+02  0.00000000000E+00 0.  1.
         21   -1    0    0  501  502 -0.00000000000E+00 -0.00000000000E+00 -0.78857408753E+03  0.78857408753E+03  0.00000000000E+00 0.  1.
      99926    2    1    2    0    0 -0.17763568394E-14  0.88817841970E-15 -0.72345509453E+03  0.85369308053E+03  0.45321584476E+03 0.  0.
      99925    2    3    3    0    0 -0.12348334191E+02 -0.59356104647E+01 -0.24748757608E+03  0.36137174283E+03  0.26296715266E+03 0.  0.
         25    1    4    4    0    0 -0.38693516248E+02 -0.18435782813E+02 -0.99934596389E+02  0.16574528030E+03  0.12509000000E+03 0.  0.
         25    1    4    4    0    0  0.26345182057E+02  0.12500172349E+02 -0.14755297969E+03  0.19562646253E+03  0.12509000000E+03 0.  0.
         25    1    3    3    0    0  0.12348334191E+02  0.59356104647E+01 -0.47596751845E+03  0.49232133769E+03  0.12509000000E+03 0.  0.
<mgrwt>
<rscale>  2 0.45321584E+03</rscale>
<asrwt>0</asrwt>
<pdfrwt beam="1">  1       21 0.95763234E-02 0.45321584E+03</pdfrwt>
<pdfrwt beam="2">  1       21 0.11596677E+00 0.45321584E+03</pdfrwt>
<totfact> 0.45913828E+04</totfact>
</mgrwt>
</event>
<event>
 7    0  0.4788920E-002  0.4526576E+03  0.7546771E-02  0.1026932E+00
         21   -1    0    0  502  501  0.00000000000E+00  0.00000000000E+00  0.66653659553E+03  0.66653659553E+03  0.00000000000E+00 0.  1.
         21   -1    0    0  501  502 -0.00000000000E+00 -0.00000000000E+00 -0.76852068240E+02  0.76852068240E+02  0.00000000000E+00 0.  1.
      99926    2    1    2    0    0  0.14210854715E-13  0.00000000000E+00  0.58968452729E+03  0.74338866377E+03  0.45265755677E+03 0.  0.
      99925    2    3    3    0    0 -0.92348479044E+02  0.54146699062E+02  0.32412596839E+03  0.43093232617E+03  0.26303026395E+03 0.  0.
         25    1    4    4    0    0 -0.76833124570E+02  0.38346729239E-01  0.16600395233E+03  0.22160358930E+03  0.12509000000E+03 0.  0.
         25    1    3    3    0    0  0.92348479044E+02 -0.54146699062E+02  0.26555855890E+03  0.31245633760E+03  0.12509000000E+03 0.  0.
         25    1    4    4    0    0 -0.15515354474E+02  0.54108352333E+02  0.15812201605E+03  0.20932873687E+03  0.12509000000E+03 0.  0.
<mgrwt>
<rscale>  2 0.45265756E+03</rscale>
<asrwt>0</asrwt>
<pdfrwt beam="1">  1       21 0.98020084E-01 0.45265756E+03</pdfrwt>
<pdfrwt beam="2">  1       21 0.11301775E-01 0.45265756E+03</pdfrwt>
<totfact> 0.51552449E+04</totfact>
</mgrwt>
</event>
<event>
 7    0  0.4788920E-002  0.4548806E+03  0.7546771E-02  0.1026277E+00
         21   -1    0    0  502  501  0.00000000000E+00  0.00000000000E+00  0.36817268706E+03  0.36817268706E+03  0.00000000000E+00 0. -1.
         21   -1    0    0  501  502 -0.00000000000E+00 -0.00000000000E+00 -0.14050225465E+03  0.14050225465E+03  0.00000000000E+00 0. -1.
      99926    2    1    2    0    0 -0.53290705182E-14  0.00000000000E+00  0.22767043241E+03  0.50867494171E+03  0.45488061130E+03 0.  0.
      99925    2    3    3    0    0  0.12614916408E+02 -0.10394935866E+03  0.95627960259E+02  0.29880038910E+03  0.26300638864E+03 0.  0.
         25    1    3    3    0    0 -0.12614916408E+02  0.10394935866E+03  0.13204247215E+03  0.20987455261E+03  0.12509000000E+03 0.  0.
         25    1    4    4    0    0  0.37834460359E+02 -0.79916238003E+02  0.54542077316E+02  0.16260503616E+03  0.12509000000E+03 0.  0.
         25    1    4    4    0    0 -0.25219543952E+02 -0.24033120657E+02  0.41085882943E+02  0.13619535294E+03  0.12509000000E+03 0.  0.
<mgrwt>
<rscale>  2 0.45488061E+03</rscale>
<asrwt>0</asrwt>
<pdfrwt beam="1">  1       21 0.54143042E-01 0.45488061E+03</pdfrwt>
<pdfrwt beam="2">  1       21 0.20662096E-01 0.45488061E+03</pdfrwt>
<totfact> 0.64726726E+04</totfact>
</mgrwt>
</event>
<event>
 7    0  0.4788920E-002  0.4082887E+03  0.7546771E-02  0.1040947E+00
         21   -1    0    0  502  501  0.00000000000E+00  0.00000000000E+00  0.24831004687E+04  0.24831004687E+04  0.00000000000E+00 0.  1.
         21   -1    0    0  501  502 -0.00000000000E+00 -0.00000000000E+00 -0.16783419367E+02  0.16783419367E+02  0.00000000000E+00 0.  1.
      99926    2    1    2    0    0  0.00000000000E+00  0.00000000000E+00  0.24663170494E+04  0.24998838881E+04  0.40828870422E+03 0.  0.
      99925    2    3    3    0    0  0.38789102954E+02 -0.16827421255E+02  0.13739560998E+04  0.13995713376E+04  0.26316688272E+03 0.  0.
         25    1    4    4    0    0  0.28140972013E+02  0.23520253036E+02  0.55767814113E+03  0.57271068944E+03  0.12509000000E+03 0.  0.
         25    1    4    4    0    0  0.10648130941E+02 -0.40347674291E+02  0.81627795869E+03  0.82686064815E+03  0.12509000000E+03 0.  0.
         25    1    3    3    0    0 -0.38789102954E+02  0.16827421255E+02  0.10923609496E+04  0.11003125505E+04  0.12509000000E+03 0.  0.
<mgrwt>
<rscale>  2 0.40828870E+03</rscale>
<asrwt>0</asrwt>
<pdfrwt beam="1">  1       21 0.36516158E+00 0.40828870E+03</pdfrwt>
<pdfrwt beam="2">  1       21 0.24681516E-02 0.40828870E+03</pdfrwt>
<totfact> 0.10440247E+04</totfact>
</mgrwt>
</event>
<event>
 7    0  0.4788920E-002  0.4499591E+03  0.7546771E-02  0.1027734E+00
         21   -1    0    0  502  501  0.00000000000E+00  0.00000000000E+00  0.16178985854E+03  0.16178985854E+03  0.00000000000E+00 0.  1.
         21   -1    0    0  501  502 -0.00000000000E+00 -0.00000000000E+00 -0.31284897743E+03  0.31284897743E+03  0.00000000000E+00 0.  1.
      99926    2    1    2    0    0 -0.71054273576E-14 -0.17763568394E-14 -0.15105911888E+03  0.47463883597E+03  0.44995907282E+03 0.  0.
      99925    2    3    3    0    0  0.58852485901E+02  0.14689892549E+02 -0.19015375949E+03  0.33022516950E+03  0.26307946001E+03 0.  0.
         25    1    4    4    0    0 -0.97202238107E+01 -0.54978968550E+01 -0.96598977653E+02  0.15844109380E+03  0.12509000000E+03 0.  0.
         25    1    4    4    0    0  0.68572709712E+02  0.20187789404E+02 -0.93554781836E+02  0.17178407570E+03  0.12509000000E+03 0.  0.
         25    1    3    3    0    0 -0.58852485901E+02 -0.14689892549E+02  0.39094640607E+02  0.14441366647E+03  0.12509000000E+03 0.  0.
<mgrwt>
<rscale>  2 0.44995907E+03</rscale>
<asrwt>0</asrwt>
<pdfrwt beam="1">  1       21 0.23792627E-01 0.44995907E+03</pdfrwt>
<pdfrwt beam="2">  1       21 0.46007202E-01 0.44995907E+03</pdfrwt>
<totfact> 0.69845323E+04</totfact>
</mgrwt>
</event>
<event>
 7    0  0.4788920E-002  0.4425017E+03  0.7546771E-02  0.1029982E+00
         21   -1    0    0  502  501  0.00000000000E+00  0.00000000000E+00  0.15144903618E+03  0.15144903618E+03  0.00000000000E+00 0. -1.
         21   -1    0    0  501  502 -0.00000000000E+00 -0.00000000000E+00 -0.32322388906E+03  0.32322388906E+03  0.00000000000E+00 0. -1.
      99926    2    1    2    0    0  0.00000000000E+00  0.00000000000E+00 -0.17177485288E+03  0.47467292523E+03  0.44250173544E+03 0.  0.
      99925    2    3    3    0    0  0.69667917610E+02 -0.69410850349E+02 -0.13417892343E+03  0.31117232309E+03  0.26296909756E+03 0.  0.
         25    1    4    4    0    0  0.64998806222E+02 -0.54843184312E+02 -0.97343187681E+02  0.17987724693E+03  0.12509000000E+03 0.  0.
         25    1    3    3    0    0 -0.69667917610E+02  0.69410850349E+02 -0.37595929452E+02  0.16350060214E+03  0.12509000000E+03 0.  0.
         25    1    4    4    0    0  0.46691113883E+01 -0.14567666038E+02 -0.36835735747E+02  0.13129507616E+03  0.12509000000E+03 0.  0.
<mgrwt>
<rscale>  2 0.44250174E+03</rscale>
<asrwt>0</asrwt>
<pdfrwt beam="1">  1       21 0.22271917E-01 0.44250174E+03</pdfrwt>
<pdfrwt beam="2">  1       21 0.47532924E-01 0.44250174E+03</pdfrwt>
<totfact> 0.74180600E+04</totfact>
</mgrwt>
</event>
<event>
 7    0  0.4788920E-002  0.4497721E+03  0.7546771E-02  0.1027790E+00
         21   -1    0    0  502  501  0.00000000000E+00  0.00000000000E+00  0.52183973831E+02  0.52183973831E+02  0.00000000000E+00 0. -1.
         21   -1    0    0  501  502 -0.00000000000E+00 -0.00000000000E+00 -0.96914311628E+03  0.96914311628E+03  0.00000000000E+00 0. -1.
      99926    2    1    2    0    0  0.00000000000E+00  0.00000000000E+00 -0.91695914245E+03  0.10213270901E+04  0.44977211571E+03 0.  0.
      99925    2    3    3    0    0  0.94156856426E+02  0.49858232514E+02 -0.61893683921E+03  0.68100935873E+03  0.26332409459E+03 0.  0.
         25    1    3    3    0    0 -0.94156856426E+02 -0.49858232514E+02 -0.29802230324E+03  0.34031773137E+03  0.12509000000E+03 0.  0.
         25    1    4    4    0    0  0.76607645140E+02  0.87707134174E+01 -0.38346909533E+03  0.41066009287E+03  0.12509000000E+03 0.  0.
         25    1    4    4    0    0  0.17549211286E+02  0.41087519097E+02 -0.23546774388E+03  0.27034926586E+03  0.12509000000E+03 0.  0.
<mgrwt>
<rscale>  2 0.44977212E+03</rscale>
<asrwt>0</asrwt>
<pdfrwt beam="1">  1       21 0.76741138E-02 0.44977212E+03</pdfrwt>
<pdfrwt beam="2">  1       21 0.14252105E+00 0.44977212E+03</pdfrwt>
<totfact> 0.39953433E+04</totfact>
</mgrwt>
</event>
<event>
 7    0  0.4788920E-002  0.4578700E+03  0.7546771E-02  0.1025401E+00
         21   -1    0    0  502  501  0.00000000000E+00  0.00000000000E+00  0.16170934575E+03  0.16170934575E+03  0.00000000000E+00 0. -1.
         21   -1    0    0  501  502 -0.00000000000E+00 -0.00000000000E+00 -0.32410757468E+03  0.32410757468E+03  0.00000000000E+00 0. -1.
      99926    2    1    2    0    0 -0.44408920985E-15  0.00000000000E+00 -0.16239822892E+03  0.48581692043E+03  0.45786995470E+03 0.  0.
      99925    2    3    3    0    0  0.37083332531E+01  0.11571230363E+03 -0.10709420965E+03  0.30662670977E+03  0.26295946543E+03 0.  0.
         25    1    4    4    0    0 -0.11724202819E+02  0.99424030215E+02 -0.61058755381E+02  0.17145925004E+03  0.12509000000E+03 0.  0.
         25    1    4    4    0    0  0.15432536072E+02  0.16288273419E+02 -0.46035454265E+02  0.13516745973E+03  0.12509000000E+03 0.  0.
         25    1    3    3    0    0 -0.37083332531E+01 -0.11571230363E+03 -0.55304019279E+02  0.17919021066E+03  0.12509000000E+03 0.  0.
<mgrwt>
<rscale>  2 0.45786995E+03</rscale>
<asrwt>0</asrwt>
<pdfrwt beam="1">  1       21 0.23780786E-01 0.45786995E+03</pdfrwt>
<pdfrwt beam="2">  1       21 0.47662878E-01 0.45786995E+03</pdfrwt>
<totfact> 0.64790342E+04</totfact>
</mgrwt>
</event>
<event>
 7    0  0.4788920E-002  0.4186362E+03  0.7546771E-02  0.1037511E+00
         21   -1    0    0  502  501  0.00000000000E+00  0.00000000000E+00  0.19640308347E+04  0.19640308347E+04  0.00000000000E+00 0.  1.
         21   -1    0    0  501  502 -0.00000000000E+00 -0.00000000000E+00 -0.22308238479E+02  0.22308238479E+02  0.00000000000E+00 0.  1.
      99926    2    1    2    0    0  0.00000000000E+00  0.00000000000E+00  0.19417225962E+04  0.19863390731E+04  0.41863620598E+03 0.  0.
      99925    2    3    3    0    0 -0.58845378413E+02  0.28358594188E+02  0.14342393821E+04  0.14596003247E+04  0.26291351106E+03 0.  0.
         25    1    3    3    0    0  0.58845378413E+02 -0.28358594188E+02  0.50748321411E+03  0.52673874845E+03  0.12509000000E+03 0.  0.
         25    1    4    4    0    0 -0.12407358911E+02  0.78054512370E+01  0.88993705112E+03  0.89880494585E+03  0.12509000000E+03 0.  0.
         25    1    4    4    0    0 -0.46438019502E+02  0.20553142951E+02  0.54430233095E+03  0.56079537883E+03  0.12509000000E+03 0.  0.
<mgrwt>
<rscale>  2 0.41863621E+03</rscale>
<asrwt>0</asrwt>
<pdfrwt beam="1">  1       21 0.28882795E+00 0.41863621E+03</pdfrwt>
<pdfrwt beam="2">  1       21 0.32806247E-02 0.41863621E+03</pdfrwt>
<totfact> 0.18675740E+04</totfact>
</mgrwt>
</event>
<event>
 7    0  0.4788920E-002  0.4550696E+03  0.7546771E-02  0.1026221E+00
         21   -1    0    0  502  501  0.00000000000E+00  0.00000000000E+00  0.57045667527E+02  0.57045667527E+02  0.00000000000E+00 0.  1.
         21   -1    0    0  501  502 -0.00000000000E+00 -0.00000000000E+00 -0.90755510126E+03  0.90755510126E+03  0.00000000000E+00 0.  1.
      99926    2    1    2    0    0  0.71054273576E-14  0.00000000000E+00 -0.85050943374E+03  0.96460076879E+03  0.45506960597E+03 0.  0.
      99925    2    3    3    0    0  0.63638830055E+02 -0.31225275603E+02 -0.72235268638E+03  0.77199604787E+03  0.26298208281E+03 0.  0.
         25    1    4    4    0    0  0.59257715949E+02  0.11469363899E+02 -0.33331405999E+03  0.36109388516E+03  0.12509000000E+03 0.  0.
         25    1    4    4    0    0  0.43811141055E+01 -0.42694639502E+02 -0.38903862639E+03  0.41090216272E+03  0.12509000000E+03 0.  0.
         25    1    3    3    0    0 -0.63638830055E+02  0.31225275603E+02 -0.12815674735E+03  0.19260472092E+03  0.12509000000E+03 0.  0.
<mgrwt>
<rscale>  2 0.45506961E+03</rscale>
<asrwt>0</asrwt>
<pdfrwt beam="1">  1       21 0.83890684E-02 0.45506961E+03</pdfrwt>
<pdfrwt beam="2">  1       21 0.13346399E+00 0.45506961E+03</pdfrwt>
<totfact> 0.40533132E+04</totfact>
</mgrwt>
</event>
<event>
 7    0  0.4788920E-002  0.4531597E+03  0.7546771E-02  0.1026784E+00
         21   -1    0    0  502  501  0.00000000000E+00  0.00000000000E+00  0.11388608805E+03  0.11388608805E+03  0.00000000000E+00 0. -1.
         21   -1    0    0  501  502 -0.00000000000E+00 -0.00000000000E+00 -0.45078753360E+03  0.45078753360E+03  0.00000000000E+00 0. -1.
      99926    2    1    2    0    0  0.00000000000E+00  0.00000000000E+00 -0.33690144555E+03  0.56467362165E+03  0.45315970140E+03 0.  0.
      99925    2    3    3    0    0 -0.22671926638E+02  0.28180074827E+02 -0.34376226092E+03  0.43427917482E+03  0.26290259941E+03 0.  0.
         25    1    4    4    0    0 -0.45523459125E+02  0.11902167105E+02 -0.14005294590E+03  0.19358817802E+03  0.12509000000E+03 0.  0.
         25    1    3    3    0    0  0.22671926638E+02 -0.28180074827E+02  0.68608153728E+01  0.13039444682E+03  0.12509000000E+03 0.  0.
         25    1    4    4    0    0  0.22851532487E+02  0.16277907722E+02 -0.20370931502E+03  0.24069099681E+03  0.12509000000E+03 0.  0.
<mgrwt>
<rscale>  2 0.45315970E+03</rscale>
<asrwt>0</asrwt>
<pdfrwt beam="1">  1       21 0.16747954E-01 0.45315970E+03</pdfrwt>
<pdfrwt beam="2">  1       21 0.66292284E-01 0.45315970E+03</pdfrwt>
<totfact> 0.61801763E+04</totfact>
</mgrwt>
</event>
<event>
 7    0  0.4788920E-002  0.4014829E+03  0.7546771E-02  0.1043267E+00
         21   -1    0    0  502  501  0.00000000000E+00  0.00000000000E+00  0.51356796353E+03  0.51356796353E+03  0.00000000000E+00 0. -1.
         21   -1    0    0  501  502 -0.00000000000E+00 -0.00000000000E+00 -0.78465051146E+02  0.78465051146E+02  0.00000000000E+00 0. -1.
      99926    2    1    2    0    0  0.26645352591E-14  0.71054273576E-14  0.43510291239E+03  0.59203301468E+03  0.40148293376E+03 0.  0.
      99925    2    3    3    0    0  0.40023416604E+01 -0.47839074933E+02  0.28047201471E+03  0.38742896183E+03  0.26292975030E+03 0.  0.
         25    1    4    4    0    0  0.37753742564E+02 -0.16399162042E+02  0.16454900412E+03  0.21075616350E+03  0.12509000000E+03 0.  0.
         25    1    3    3    0    0 -0.40023416604E+01  0.47839074933E+02  0.15463089768E+03  0.20460405286E+03  0.12509000000E+03 0.  0.
         25    1    4    4    0    0 -0.33751400904E+02 -0.31439912891E+02  0.11592301059E+03  0.17667279833E+03  0.12509000000E+03 0.  0.
<mgrwt>
<rscale>  2 0.40148293E+03</rscale>
<asrwt>0</asrwt>
<pdfrwt beam="1">  1       21 0.75524699E-01 0.40148293E+03</pdfrwt>
<pdfrwt beam="2">  1       21 0.11538978E-01 0.40148293E+03</pdfrwt>
<totfact> 0.92502919E+04</totfact>
</mgrwt>
</event>
<event>
 7    0  0.4788920E-002  0.4497571E+03  0.7546771E-02  0.1027795E+00
         21   -1    0    0  502  501  0.00000000000E+00  0.00000000000E+00  0.11053263554E+04  0.11053263554E+04  0.00000000000E+00 0. -1.
         21   -1    0    0  501  502 -0.00000000000E+00 -0.00000000000E+00 -0.45751513200E+02  0.45751513200E+02  0.00000000000E+00 0. -1.
      99926    2    1    2    0    0  0.00000000000E+00  0.00000000000E+00  0.10595748422E+04  0.11510778686E+04  0.44975706038E+03 0.  0.
      99925    2    3    3    0    0 -0.47072943256E+02  0.87597077386E+02  0.56110379557E+03  0.62761822128E+03  0.26301720916E+03 0.  0.
         25    1    4    4    0    0  0.16439279294E+01  0.43026752524E+02  0.19995015334E+03  0.23975315608E+03  0.12509000000E+03 0.  0.
         25    1    3    3    0    0  0.47072943256E+02 -0.87597077386E+02  0.49847104665E+03  0.52345964735E+03  0.12509000000E+03 0.  0.
         25    1    4    4    0    0 -0.48716871185E+02  0.44570324862E+02  0.36115364224E+03  0.38786506519E+03  0.12509000000E+03 0.  0.
<mgrwt>
<rscale>  2 0.44975706E+03</rscale>
<asrwt>0</asrwt>
<pdfrwt beam="1">  1       21 0.16254798E+00 0.44975706E+03</pdfrwt>
<pdfrwt beam="2">  1       21 0.67281644E-02 0.44975706E+03</pdfrwt>
<totfact> 0.35161314E+04</totfact>
</mgrwt>
</event>
<event>
 7    0  0.4788920E-002  0.4490334E+03  0.7546771E-02  0.1028011E+00
         21   -1    0    0  502  501  0.00000000000E+00  0.00000000000E+00  0.33774637301E+03  0.33774637301E+03  0.00000000000E+00 0. -1.
         21   -1    0    0  501  502 -0.00000000000E+00 -0.00000000000E+00 -0.14924737335E+03  0.14924737335E+03  0.00000000000E+00 0. -1.
      99926    2    1    2    0    0 -0.17763568394E-14  0.00000000000E+00  0.18849899967E+03  0.48699374636E+03  0.44903344655E+03 0.  0.
      99925    2    3    3    0    0 -0.88168732820E+01 -0.86599652747E+02  0.50941476601E+02  0.28169684584E+03  0.26302251198E+03 0.  0.
         25    1    4    4    0    0  0.22438755900E+02 -0.74863435932E+02  0.23623432300E+02  0.14937739608E+03  0.12509000000E+03 0.  0.
         25    1    3    3    0    0  0.88168732820E+01  0.86599652747E+02  0.13755752307E+03  0.20529690052E+03  0.12509000000E+03 0.  0.
         25    1    4    4    0    0 -0.31255629182E+02 -0.11736216815E+02  0.27318044301E+02  0.13231944976E+03  0.12509000000E+03 0.  0.
<mgrwt>
<rscale>  2 0.44903345E+03</rscale>
<asrwt>0</asrwt>
<pdfrwt beam="1">  1       21 0.49668584E-01 0.44903345E+03</pdfrwt>
<pdfrwt beam="2">  1       21 0.21948143E-01 0.44903345E+03</pdfrwt>
<totfact> 0.69425029E+04</totfact>
</mgrwt>
</event>
<event>
 7    0  0.4788920E-002  0.4567248E+03  0.7546771E-02  0.1025735E+00
         21   -1    0    0  502  501  0.00000000000E+00  0.00000000000E+00  0.38205475853E+03  0.38205475853E+03  0.00000000000E+00 0. -1.
         21   -1    0    0  501  502 -0.00000000000E+00 -0.00000000000E+00 -0.13649716216E+03  0.13649716216E+03  0.00000000000E+00 0. -1.
      99926    2    1    2    0    0  0.00000000000E+00  0.88817841970E-15  0.24555759637E+03  0.51855192070E+03  0.45672482013E+03 0.  0.
      99925    2    3    3    0    0 -0.21542285371E+02 -0.60623872267E+01  0.28202843241E+03  0.38634582182E+03  0.26310118730E+03 0.  0.
         25    1    4    4    0    0 -0.46734271631E+02 -0.20390273529E+02  0.13194709660E+03  0.18883167054E+03  0.12509000000E+03 0.  0.
         25    1    3    3    0    0  0.21542285371E+02  0.60623872267E+01 -0.36470836040E+02  0.13220609887E+03  0.12509000000E+03 0.  0.
         25    1    4    4    0    0  0.25191986261E+02  0.14327886303E+02  0.15008133581E+03  0.19751415128E+03  0.12509000000E+03 0.  0.
<mgrwt>
<rscale>  2 0.45672482E+03</rscale>
<asrwt>0</asrwt>
<pdfrwt beam="1">  1       21 0.56184523E-01 0.45672482E+03</pdfrwt>
<pdfrwt beam="2">  1       21 0.20073112E-01 0.45672482E+03</pdfrwt>
<totfact> 0.63117810E+04</totfact>
</mgrwt>
</event>
<event>
 7    0  0.4788920E-002  0.4513882E+03  0.7546771E-02  0.1027309E+00
         21   -1    0    0  502  501  0.00000000000E+00  0.00000000000E+00  0.29814681642E+03  0.29814681642E+03  0.00000000000E+00 0. -1.
         21   -1    0    0  501  502 -0.00000000000E+00 -0.00000000000E+00 -0.17084811759E+03  0.17084811759E+03  0.00000000000E+00 0. -1.
      99926    2    1    2    0    0  0.44408920985E-15  0.00000000000E+00  0.12729869883E+03  0.46899493401E+03  0.45138818040E+03 0.  0.
      99925    2    3    3    0    0 -0.20749445279E+01 -0.74888917307E+02  0.16365304617E+03  0.31872250806E+03  0.26303813848E+03 0.  0.
         25    1    4    4    0    0  0.47172719269E+01 -0.47788473822E+02  0.12889037342E+03  0.18591994876E+03  0.12509000000E+03 0.  0.
         25    1    3    3    0    0  0.20749445279E+01  0.74888917307E+02 -0.36354347344E+02  0.15027242595E+03  0.12509000000E+03 0.  0.
         25    1    4    4    0    0 -0.67922164548E+01 -0.27100443486E+02  0.34762672748E+02  0.13280255931E+03  0.12509000000E+03 0.  0.
<mgrwt>
<rscale>  2 0.45138818E+03</rscale>
<asrwt>0</asrwt>
<pdfrwt beam="1">  1       21 0.43845120E-01 0.45138818E+03</pdfrwt>
<pdfrwt beam="2">  1       21 0.25124723E-01 0.45138818E+03</pdfrwt>
<totfact> 0.69480240E+04</totfact>
</mgrwt>
</event>
<event>
 7    0  0.4788920E-002  0.4557461E+03  0.7546771E-02  0.1026022E+00
         21   -1    0    0  502  501  0.00000000000E+00  0.00000000000E+00  0.46292500451E+03  0.46292500451E+03  0.00000000000E+00 0. -1.
         21   -1    0    0  501  502 -0.00000000000E+00 -0.00000000000E+00 -0.11216964424E+03  0.11216964424E+03  0.00000000000E+00 0. -1.
      99926    2    1    2    0    0 -0.71054273576E-14  0.35527136788E-14  0.35075536027E+03  0.57509464875E+03  0.45574612699E+03 0.  0.
      99925    2    3    3    0    0 -0.33445505255E+02  0.28650501662E+02  0.88073682764E+02  0.28083519714E+03  0.26300566779E+03 0.  0.
         25    1    4    4    0    0 -0.31867236944E+02  0.98124738066E+01  0.83877115264E+02  0.15425525598E+03  0.12509000000E+03 0.  0.
         25    1    3    3    0    0  0.33445505255E+02 -0.28650501662E+02  0.26268167751E+03  0.29425945162E+03  0.12509000000E+03 0.  0.
         25    1    4    4    0    0 -0.15782683107E+01  0.18838027855E+02  0.41965675002E+01  0.12657994116E+03  0.12509000000E+03 0.  0.
<mgrwt>
<rscale>  2 0.45574613E+03</rscale>
<asrwt>0</asrwt>
<pdfrwt beam="1">  1       21 0.68077206E-01 0.45574613E+03</pdfrwt>
<pdfrwt beam="2">  1       21 0.16495536E-01 0.45574613E+03</pdfrwt>
<totfact> 0.59883992E+04</totfact>
</mgrwt>
</event>
<event>
 7    0  0.4788920E-002  0.4820909E+03  0.7546771E-02  0.1018562E+00
         21   -1    0    0  502  501  0.00000000000E+00  0.00000000000E+00  0.51448551682E+03  0.51448551682E+03  0.00000000000E+00 0. -1.
         21   -1    0    0  501  502 -0.00000000000E+00 -0.00000000000E+00 -0.11293398135E+03  0.11293398135E+03  0.00000000000E+00 0. -1.
      99926    2    1    2    0    0 -0.17763568394E-14  0.00000000000E+00  0.40155153547E+03  0.62741949817E+03  0.48209085352E+03 0.  0.
      99925    2    3    3    0    0 -0.88051719159E+01  0.10591004025E+03  0.13441651098E+03  0.31388625099E+03  0.26298728573E+03 0.  0.
         25    1    4    4    0    0  0.18826069225E+02  0.65915386046E+02  0.10331211284E+03  0.17612540918E+03  0.12509000000E+03 0.  0.
         25    1    4    4    0    0 -0.27631241141E+02  0.39994654205E+02  0.31104398140E+02  0.13776084181E+03  0.12509000000E+03 0.  0.
         25    1    3    3    0    0  0.88051719159E+01 -0.10591004025E+03  0.26713502449E+03  0.31353324718E+03  0.12509000000E+03 0.  0.
<mgrwt>
<rscale>  2 0.48209085E+03</rscale>
<asrwt>0</asrwt>
<pdfrwt beam="1">  1       21 0.75659634E-01 0.48209085E+03</pdfrwt>
<pdfrwt beam="2">  1       21 0.16607939E-01 0.48209085E+03</pdfrwt>
<totfact> 0.46294665E+04</totfact>
</mgrwt>
</event>
<event>
 7    0  0.4788920E-002  0.4660884E+03  0.7546771E-02  0.1023030E+00
         21   -1    0    0  502  501  0.00000000000E+00  0.00000000000E+00  0.12391707222E+04  0.12391707222E+04  0.00000000000E+00 0.  1.
         21   -1    0    0  501  502 -0.00000000000E+00 -0.00000000000E+00 -0.43827368689E+02  0.43827368689E+02  0.00000000000E+00 0.  1.
      99926    2    1    2    0    0  0.00000000000E+00  0.00000000000E+00  0.11953433535E+04  0.12829980909E+04  0.46608836977E+03 0.  0.
      99925    2    3    3    0    0  0.36803859520E+02  0.22520522838E+02  0.42689545471E+03  0.50324083424E+03  0.26296370466E+03 0.  0.
         25    1    4    4    0    0  0.30245254511E+02 -0.16264139176E+01  0.28329638462E+03  0.31116196793E+03  0.12509000000E+03 0.  0.
         25    1    3    3    0    0 -0.36803859520E+02 -0.22520522838E+02  0.76844789879E+03  0.77975725664E+03  0.12509000000E+03 0.  0.
         25    1    4    4    0    0  0.65586050095E+01  0.24146936755E+02  0.14359907008E+03  0.19207886631E+03  0.12509000000E+03 0.  0.
<mgrwt>
<rscale>  2 0.46608837E+03</rscale>
<asrwt>0</asrwt>
<pdfrwt beam="1">  1       21 0.18223097E+00 0.46608837E+03</pdfrwt>
<pdfrwt beam="2">  1       21 0.64452021E-02 0.46608837E+03</pdfrwt>
<totfact> 0.27189502E+04</totfact>
</mgrwt>
</event>
<event>
 7    0  0.4788920E-002  0.5096590E+03  0.7546771E-02  0.1011288E+00
         21   -1    0    0  502  501  0.00000000000E+00  0.00000000000E+00  0.14940539516E+03  0.14940539516E+03  0.00000000000E+00 0.  1.
         21   -1    0    0  501  502 -0.00000000000E+00 -0.00000000000E+00 -0.43464343286E+03  0.43464343286E+03  0.00000000000E+00 0.  1.
      99926    2    1    2    0    0  0.00000000000E+00  0.00000000000E+00 -0.28523803770E+03  0.58404882802E+03  0.50965899910E+03 0.  0.
      99925    2    3    3    0    0  0.11139249288E+02  0.15539120929E+03 -0.13414429483E+03  0.33355464040E+03  0.26266612933E+03 0.  0.
         25    1    3    3    0    0 -0.11139249288E+02 -0.15539120929E+03 -0.15109374286E+03  0.25049418762E+03  0.12509000000E+03 0.  0.
         25    1    4    4    0    0  0.72932065720E+01  0.91449200794E+02 -0.11188726616E+03  0.19126530165E+03  0.12509000000E+03 0.  0.
         25    1    4    4    0    0  0.38460427158E+01  0.63942008495E+02 -0.22257028677E+02  0.14228933875E+03  0.12509000000E+03 0.  0.
<mgrwt>
<rscale>  2 0.50965900E+03</rscale>
<asrwt>0</asrwt>
<pdfrwt beam="1">  1       21 0.21971382E-01 0.50965900E+03</pdfrwt>
<pdfrwt beam="2">  1       21 0.63918152E-01 0.50965900E+03</pdfrwt>
<totfact> 0.39573658E+04</totfact>
</mgrwt>
</event>
<event>
 7    0  0.4788920E-002  0.4561510E+03  0.7546771E-02  0.1025903E+00
         21   -1    0    0  502  501  0.00000000000E+00  0.00000000000E+00  0.47337449020E+02  0.47337449020E+02  0.00000000000E+00 0.  1.
         21   -1    0    0  501  502 -0.00000000000E+00 -0.00000000000E+00 -0.10988855907E+04  0.10988855907E+04  0.00000000000E+00 0.  1.
      99926    2    1    2    0    0  0.00000000000E+00  0.71054273576E-14 -0.10515481417E+04  0.11462230397E+04  0.45615103038E+03 0.  0.
      99925    2    3    3    0    0  0.99970139721E+02 -0.51909737987E+02 -0.70929099851E+03  0.76480973387E+03  0.26296683957E+03 0.  0.
         25    1    4    4    0    0  0.51278459256E+02 -0.64620820019E+02 -0.33540784655E+03  0.36735713195E+03  0.12509000000E+03 0.  0.
         25    1    3    3    0    0 -0.99970139721E+02  0.51909737987E+02 -0.34225714318E+03  0.38141330586E+03  0.12509000000E+03 0.  0.
         25    1    4    4    0    0  0.48691680465E+02  0.12711082032E+02 -0.37388315196E+03  0.39745260192E+03  0.12509000000E+03 0.  0.
<mgrwt>
<rscale>  2 0.45615103E+03</rscale>
<asrwt>0</asrwt>
<pdfrwt beam="1">  1       21 0.69613896E-02 0.45615103E+03</pdfrwt>
<pdfrwt beam="2">  1       21 0.16160082E+00 0.45615103E+03</pdfrwt>
<totfact> 0.33606222E+04</totfact>
</mgrwt>
</event>
<event>
 7    0  0.4788920E-002  0.4618732E+03  0.7546771E-02  0.1024239E+00
         21   -1    0    0  502  501  0.00000000000E+00  0.00000000000E+00  0.47083799204E+02  0.47083799204E+02  0.00000000000E+00 0.  1.
         21   -1    0    0  501  502 -0.00000000000E+00 -0.00000000000E+00 -0.11326977272E+04  0.11326977272E+04  0.00000000000E+00 0.  1.
      99926    2    1    2    0    0  0.35527136788E-14  0.00000000000E+00 -0.10856139280E+04  0.11797815264E+04  0.46187319621E+03 0.  0.
      99925    2    3    3    0    0 -0.28729056849E+02 -0.11103054954E+03 -0.59471666154E+03  0.66037727540E+03  0.26316743096E+03 0.  0.
         25    1    4    4    0    0  0.74844961808E+01 -0.33336285442E+02 -0.20945162546E+03  0.24634288526E+03  0.12509000000E+03 0.  0.
         25    1    3    3    0    0  0.28729056849E+02  0.11103054954E+03 -0.49089726642E+03  0.51940425096E+03  0.12509000000E+03 0.  0.
         25    1    4    4    0    0 -0.36213553029E+02 -0.77694264100E+02 -0.38526503608E+03  0.41403439014E+03  0.12509000000E+03 0.  0.
<mgrwt>
<rscale>  2 0.46187320E+03</rscale>
<asrwt>0</asrwt>
<pdfrwt beam="1">  1       21 0.69240871E-02 0.46187320E+03</pdfrwt>
<pdfrwt beam="2">  1       21 0.16657322E+00 0.46187320E+03</pdfrwt>
<totfact> 0.31104045E+04</totfact>
</mgrwt>
</event>
<event>
 7    0  0.4788920E-002  0.4578994E+03  0.7546771E-02  0.1025392E+00
         21   -1    0    0  502  501  0.00000000000E+00  0.00000000000E+00  0.14844096464E+03  0.14844096464E+03  0.00000000000E+00 0.  1.
         21   -1    0    0  501  502 -0.00000000000E+00 -0.00000000000E+00 -0.35312333214E+03  0.35312333214E+03  0.00000000000E+00 0.  1.
      99926    2    1    2    0    0 -0.17763568394E-14 -0.14210854715E-13 -0.20468236750E+03  0.50156429678E+03  0.45789941279E+03 0.  0.
      99925    2    3    3    0    0  0.15317828710E+02  0.95136305202E+02 -0.19909124619E+03  0.34356328038E+03  0.26289323094E+03 0.  0.
         25    1    4    4    0    0  0.31976071562E+02  0.41380196845E+02 -0.13783116209E+03  0.19333837485E+03  0.12509000000E+03 0.  0.
         25    1    3    3    0    0 -0.15317828710E+02 -0.95136305202E+02 -0.55911213140E+01  0.15800101639E+03  0.12509000000E+03 0.  0.
         25    1    4    4    0    0 -0.16658242852E+02  0.53756108357E+02 -0.61260084091E+02  0.15022490554E+03  0.12509000000E+03 0.  0.
<mgrwt>
<rscale>  2 0.45789941E+03</rscale>
<asrwt>0</asrwt>
<pdfrwt beam="1">  1       21 0.21829554E-01 0.45789941E+03</pdfrwt>
<pdfrwt beam="2">  1       21 0.51929901E-01 0.45789941E+03</pdfrwt>
<totfact> 0.63682536E+04</totfact>
</mgrwt>
</event>
<event>
 7    0  0.4788920E-002  0.4606985E+03  0.7546771E-02  0.1024579E+00
         21   -1    0    0  502  501  0.00000000000E+00  0.00000000000E+00  0.13653740871E+04  0.13653740871E+04  0.00000000000E+00 0.  1.
         21   -1    0    0  501  502 -0.00000000000E+00 -0.00000000000E+00 -0.38861709945E+02  0.38861709945E+02  0.00000000000E+00 0.  1.
      99926    2    1    2    0    0  0.00000000000E+00  0.14210854715E-13  0.13265123772E+04  0.14042357970E+04  0.46069847727E+03 0.  0.
      99925    2    3    3    0    0  0.63999842125E+02 -0.93775230921E+02  0.93318344417E+03  0.97616462148E+03  0.26301379057E+03 0.  0.
         25    1    4    4    0    0  0.39952243579E+02 -0.34495457405E+02  0.58824505591E+03  0.60371008957E+03  0.12509000000E+03 0.  0.
         25    1    3    3    0    0 -0.63999842125E+02  0.93775230921E+02  0.39332893299E+03  0.42807117557E+03  0.12509000000E+03 0.  0.
         25    1    4    4    0    0  0.24047598547E+02 -0.59279773516E+02  0.34493838825E+03  0.37245453190E+03  0.12509000000E+03 0.  0.
<mgrwt>
<rscale>  2 0.46069848E+03</rscale>
<asrwt>0</asrwt>
<pdfrwt beam="1">  1       21 0.20079027E+00 0.46069848E+03</pdfrwt>
<pdfrwt beam="2">  1       21 0.57149583E-02 0.46069848E+03</pdfrwt>
<totfact> 0.25089773E+04</totfact>
</mgrwt>
</event>
<event>
 7    0  0.4788920E-002  0.4537285E+03  0.7546771E-02  0.1026616E+00
         21   -1    0    0  502  501  0.00000000000E+00  0.00000000000E+00  0.20400972278E+03  0.20400972278E+03  0.00000000000E+00 0. -1.
         21   -1    0    0  501  502 -0.00000000000E+00 -0.00000000000E+00 -0.25227912397E+03  0.25227912397E+03  0.00000000000E+00 0. -1.
      99926    2    1    2    0    0  0.00000000000E+00  0.17763568394E-14 -0.48269401188E+02  0.45628884675E+03  0.45372852740E+03 0.  0.
      99925    2    3    3    0    0  0.32814867577E+02 -0.12342053449E+02  0.76528186045E+02  0.27614699238E+03  0.26300466978E+03 0.  0.
         25    1    3    3    0    0 -0.32814867577E+02  0.12342053449E+02 -0.12479758723E+03  0.18014185437E+03  0.12509000000E+03 0.  0.
         25    1    4    4    0    0  0.57411390395E+01  0.31337719256E+02  0.25329637605E+02  0.13154509480E+03  0.12509000000E+03 0.  0.
         25    1    4    4    0    0  0.27073728537E+02 -0.43679772705E+02  0.51198548440E+02  0.14460189758E+03  0.12509000000E+03 0.  0.
<mgrwt>
<rscale>  2 0.45372853E+03</rscale>
<asrwt>0</asrwt>
<pdfrwt beam="1">  1       21 0.30001430E-01 0.45372853E+03</pdfrwt>
<pdfrwt beam="2">  1       21 0.37099871E-01 0.45372853E+03</pdfrwt>
<totfact> 0.69150274E+04</totfact>
</mgrwt>
</event>
<event>
 7    0  0.4788920E-002  0.4559829E+03  0.7546771E-02  0.1025953E+00
         21   -1    0    0  502  501  0.00000000000E+00  0.00000000000E+00  0.26995817170E+02  0.26995817170E+02  0.00000000000E+00 0.  1.
         21   -1    0    0  501  502 -0.00000000000E+00 -0.00000000000E+00 -0.19254870913E+04  0.19254870913E+04  0.00000000000E+00 0.  1.
      99926    2    1    2    0    0  0.00000000000E+00  0.00000000000E+00 -0.18984912741E+04  0.19524829085E+04  0.45598288336E+03 0.  0.
      99925    2    3    3    0    0  0.10886561985E+03  0.29523276105E+02 -0.12591264849E+04  0.12913035162E+04  0.26332853783E+03 0.  0.
         25    1    4    4    0    0  0.25281267937E+02  0.41536224940E+02 -0.53078619801E+03  0.54749054475E+03  0.12509000000E+03 0.  0.
         25    1    3    3    0    0 -0.10886561985E+03 -0.29523276105E+02 -0.63936478920E+03  0.66117939229E+03  0.12509000000E+03 0.  0.
         25    1    4    4    0    0  0.83584351910E+02 -0.12012948835E+02 -0.72834028693E+03  0.74381297145E+03  0.12509000000E+03 0.  0.
<mgrwt>
<rscale>  2 0.45598288E+03</rscale>
<asrwt>0</asrwt>
<pdfrwt beam="1">  1       21 0.39699718E-02 0.45598288E+03</pdfrwt>
<pdfrwt beam="2">  1       21 0.28315996E+00 0.45598288E+03</pdfrwt>
<totfact> 0.14391293E+04</totfact>
</mgrwt>
</event>
<event>
 7    0  0.4788920E-002  0.4509290E+03  0.7546771E-02  0.1027445E+00
         21   -1    0    0  502  501  0.00000000000E+00  0.00000000000E+00  0.86275892438E+02  0.86275892438E+02  0.00000000000E+00 0.  1.
         21   -1    0    0  501  502 -0.00000000000E+00 -0.00000000000E+00 -0.58920553723E+03  0.58920553723E+03  0.00000000000E+00 0.  1.
      99926    2    1    2    0    0  0.77715611724E-15  0.00000000000E+00 -0.50292964479E+03  0.67548142967E+03  0.45092896804E+03 0.  0.
      99925    2    3    3    0    0 -0.91312595993E+00 -0.10616983999E+03 -0.35646091458E+03  0.45554174304E+03  0.26302286462E+03 0.  0.
         25    1    3    3    0    0  0.91312595993E+00  0.10616983999E+03 -0.14646873022E+03  0.21993968663E+03  0.12509000000E+03 0.  0.
         25    1    4    4    0    0 -0.26435958810E+02 -0.77292354950E+02 -0.15488827423E+03  0.21519956702E+03  0.12509000000E+03 0.  0.
         25    1    4    4    0    0  0.25522832850E+02 -0.28877485037E+02 -0.20157264035E+03  0.24034217602E+03  0.12509000000E+03 0.  0.
<mgrwt>
<rscale>  2 0.45092897E+03</rscale>
<asrwt>0</asrwt>
<pdfrwt beam="1">  1       21 0.12687632E-01 0.45092897E+03</pdfrwt>
<pdfrwt beam="2">  1       21 0.86647870E-01 0.45092897E+03</pdfrwt>
<totfact> 0.56029956E+04</totfact>
</mgrwt>
</event>
<event>
 7    0  0.4788920E-002  0.4550888E+03  0.7546771E-02  0.1026215E+00
         21   -1    0    0  502  501  0.00000000000E+00  0.00000000000E+00  0.46735923339E+03  0.46735923339E+03  0.00000000000E+00 0.  1.
         21   -1    0    0  501  502 -0.00000000000E+00 -0.00000000000E+00 -0.11078514426E+03  0.11078514426E+03  0.00000000000E+00 0.  1.
      99926    2    1    2    0    0  0.00000000000E+00  0.71054273576E-14  0.35657408913E+03  0.57814437765E+03  0.45508882689E+03 0.  0.
      99925    2    3    3    0    0  0.85521263771E+02 -0.41308839174E+02  0.14587188421E+03  0.31534553059E+03  0.26295225862E+03 0.  0.
         25    1    3    3    0    0 -0.85521263771E+02  0.41308839174E+02  0.21070220493E+03  0.26279884705E+03  0.12509000000E+03 0.  0.
         25    1    4    4    0    0  0.72583799438E+02 -0.22405976141E+02  0.11040416957E+03  0.18332218760E+03  0.12509000000E+03 0.  0.
         25    1    4    4    0    0  0.12937464333E+02 -0.18902863033E+02  0.35467714637E+02  0.13202334300E+03  0.12509000000E+03 0.  0.
<mgrwt>
<rscale>  2 0.45508883E+03</rscale>
<asrwt>0</asrwt>
<pdfrwt beam="1">  1       21 0.68729298E-01 0.45508883E+03</pdfrwt>
<pdfrwt beam="2">  1       21 0.16291933E-01 0.45508883E+03</pdfrwt>
<totfact> 0.60001968E+04</totfact>
</mgrwt>
</event>
<event>
 7    0  0.4788920E-002  0.4540370E+03  0.7546771E-02  0.1026525E+00
         21   -1    0    0  502  501  0.00000000000E+00  0.00000000000E+00  0.60573999904E+03  0.60573999904E+03  0.00000000000E+00 0. -1.
         21   -1    0    0  501  502 -0.00000000000E+00 -0.00000000000E+00 -0.85081715612E+02  0.85081715612E+02  0.00000000000E+00 0. -1.
      99926    2    1    2    0    0 -0.71054273576E-14  0.00000000000E+00  0.52065828343E+03  0.69082171465E+03  0.45403699555E+03 0.  0.
      99925    2    3    3    0    0  0.52062955286E+02 -0.57137004345E+02  0.45182757356E+03  0.52846296589E+03  0.26296342238E+03 0.  0.
         25    1    4    4    0    0  0.41325178631E+02 -0.66544858202E+02  0.26109895051E+03  0.29992692210E+03  0.12509000000E+03 0.  0.
         25    1    4    4    0    0  0.10737776655E+02  0.94078538570E+01  0.19072862304E+03  0.22853604379E+03  0.12509000000E+03 0.  0.
         25    1    3    3    0    0 -0.52062955286E+02  0.57137004345E+02  0.68830709872E+02  0.16235874876E+03  0.12509000000E+03 0.  0.
<mgrwt>
<rscale>  2 0.45403700E+03</rscale>
<asrwt>0</asrwt>
<pdfrwt beam="1">  1       21 0.89079409E-01 0.45403700E+03</pdfrwt>
<pdfrwt beam="2">  1       21 0.12512017E-01 0.45403700E+03</pdfrwt>
<totfact> 0.53810964E+04</totfact>
</mgrwt>
</event>
<event>
 7    0  0.4788920E-002  0.4505894E+03  0.7546771E-02  0.1027546E+00
         21   -1    0    0  502  501  0.00000000000E+00  0.00000000000E+00  0.19114671718E+03  0.19114671718E+03  0.00000000000E+00 0. -1.
         21   -1    0    0  501  502 -0.00000000000E+00 -0.00000000000E+00 -0.26554311364E+03  0.26554311364E+03  0.00000000000E+00 0. -1.
      99926    2    1    2    0    0  0.00000000000E+00  0.00000000000E+00 -0.74396396452E+02  0.45668983082E+03  0.45058936713E+03 0.  0.
      99925    2    3    3    0    0 -0.88882218683E+01  0.10857037482E+03 -0.43464466816E+02  0.28795684902E+03  0.26298946793E+03 0.  0.
         25    1    4    4    0    0  0.10731235256E+02  0.21017584099E+02  0.24306391149E+01  0.12731973279E+03  0.12509000000E+03 0.  0.
         25    1    4    4    0    0 -0.19619457124E+02  0.87552790721E+02 -0.45895105931E+02  0.16063711623E+03  0.12509000000E+03 0.  0.
         25    1    3    3    0    0  0.88882218683E+01 -0.10857037482E+03 -0.30931929635E+02  0.16873298180E+03  0.12509000000E+03 0.  0.
<mgrwt>
<rscale>  2 0.45058937E+03</rscale>
<asrwt>0</asrwt>
<pdfrwt beam="1">  1       21 0.28109812E-01 0.45058937E+03</pdfrwt>
<pdfrwt beam="2">  1       21 0.39050458E-01 0.45058937E+03</pdfrwt>
<totfact> 0.70882922E+04</totfact>
</mgrwt>
</event>
<event>
 7    0  0.4788920E-002  0.4620004E+03  0.7546771E-02  0.1024203E+00
         21   -1    0    0  502  501  0.00000000000E+00  0.00000000000E+00  0.13001444970E+03  0.13001444970E+03  0.00000000000E+00 0. -1.
         21   -1    0    0  501  502 -0.00000000000E+00 -0.00000000000E+00 -0.41042427809E+03  0.41042427809E+03  0.00000000000E+00 0. -1.
      99926    2    1    2    0    0  0.00000000000E+00  0.14210854715E-13 -0.28040982838E+03  0.54043872779E+03  0.46200037515E+03 0.  0.
      99925    2    3    3    0    0  0.20320384515E+02  0.87430769851E+02 -0.82454176081E+02  0.28965793522E+03  0.26276599997E+03 0.  0.
         25    1    4    4    0    0 -0.11285804455E+02  0.75693616443E+02 -0.28863114083E+02  0.14945728623E+03  0.12509000000E+03 0.  0.
         25    1    4    4    0    0  0.31606188971E+02  0.11737153408E+02 -0.53591061998E+02  0.14020064899E+03  0.12509000000E+03 0.  0.
         25    1    3    3    0    0 -0.20320384515E+02 -0.87430769851E+02 -0.19795565230E+03  0.25078079257E+03  0.12509000000E+03 0.  0.
<mgrwt>
<rscale>  2 0.46200038E+03</rscale>
<asrwt>0</asrwt>
<pdfrwt beam="1">  1       21 0.19119772E-01 0.46200038E+03</pdfrwt>
<pdfrwt beam="2">  1       21 0.60356511E-01 0.46200038E+03</pdfrwt>
<totfact> 0.59154867E+04</totfact>
</mgrwt>
</event>
<event>
 7    0  0.4788920E-002  0.4494378E+03  0.7546771E-02  0.1027890E+00
         21   -1    0    0  502  501  0.00000000000E+00  0.00000000000E+00  0.32696111336E+03  0.32696111336E+03  0.00000000000E+00 0.  1.
         21   -1    0    0  501  502 -0.00000000000E+00 -0.00000000000E+00 -0.15444829140E+03  0.15444829140E+03  0.00000000000E+00 0.  1.
      99926    2    1    2    0    0  0.44408920985E-15  0.00000000000E+00  0.17251282196E+03  0.48140940476E+03  0.44943780577E+03 0.  0.
      99925    2    3    3    0    0  0.17419634881E+01  0.10782576018E+03  0.10782513576E+03  0.30403569239E+03  0.26302473905E+03 0.  0.
         25    1    4    4    0    0 -0.16389625785E+02  0.34108498081E+02  0.85111834015E+02  0.15596006497E+03  0.12509000000E+03 0.  0.
         25    1    4    4    0    0  0.18131589273E+02  0.73717262095E+02  0.22713301741E+02  0.14807562742E+03  0.12509000000E+03 0.  0.
         25    1    3    3    0    0 -0.17419634881E+01 -0.10782576018E+03  0.64687686208E+02  0.17737371237E+03  0.12509000000E+03 0.  0.
<mgrwt>
<rscale>  2 0.44943781E+03</rscale>
<asrwt>0</asrwt>
<pdfrwt beam="1">  1       21 0.48082517E-01 0.44943781E+03</pdfrwt>
<pdfrwt beam="2">  1       21 0.22712984E-01 0.44943781E+03</pdfrwt>
<totfact> 0.69621323E+04</totfact>
</mgrwt>
</event>
<event>
 7    0  0.4788920E-002  0.4568939E+03  0.7546771E-02  0.1025686E+00
         21   -1    0    0  502  501  0.00000000000E+00  0.00000000000E+00  0.16716397279E+03  0.16716397279E+03  0.00000000000E+00 0. -1.
         21   -1    0    0  501  502 -0.00000000000E+00 -0.00000000000E+00 -0.31219650526E+03  0.31219650526E+03  0.00000000000E+00 0. -1.
      99926    2    1    2    0    0  0.00000000000E+00  0.00000000000E+00 -0.14503253247E+03  0.47936047805E+03  0.45689389626E+03 0.  0.
      99925    2    3    3    0    0 -0.51173374321E+02 -0.36619608748E+02  0.99531734739E+01  0.27048782035E+03  0.26287808070E+03 0.  0.
         25    1    4    4    0    0 -0.33526812804E+02 -0.99442634052E+01 -0.33711864531E+02  0.13418991565E+03  0.12509000000E+03 0.  0.
         25    1    3    3    0    0  0.51173374321E+02  0.36619608748E+02 -0.15498570595E+03  0.20887265770E+03  0.12509000000E+03 0.  0.
         25    1    4    4    0    0 -0.17646561517E+02 -0.26675345343E+02  0.43665038004E+02  0.13629790470E+03  0.12509000000E+03 0.  0.
<mgrwt>
<rscale>  2 0.45689390E+03</rscale>
<asrwt>0</asrwt>
<pdfrwt beam="1">  1       21 0.24582937E-01 0.45689390E+03</pdfrwt>
<pdfrwt beam="2">  1       21 0.45911251E-01 0.45689390E+03</pdfrwt>
<totfact> 0.65752723E+04</totfact>
</mgrwt>
</event>
<event>
 7    0  0.4788920E-002  0.4399391E+03  0.7546771E-02  0.1030765E+00
         21   -1    0    0  502  501  0.00000000000E+00  0.00000000000E+00  0.31040090238E+03  0.31040090238E+03  0.00000000000E+00 0.  1.
         21   -1    0    0  501  502 -0.00000000000E+00 -0.00000000000E+00 -0.15588424274E+03  0.15588424274E+03  0.00000000000E+00 0.  1.
      99926    2    1    2    0    0  0.00000000000E+00  0.00000000000E+00  0.15451665964E+03  0.46628514512E+03  0.43993913040E+03 0.  0.
      99925    2    3    3    0    0  0.55543485214E+02 -0.80102754302E+02  0.85091327043E+02  0.29316982257E+03  0.26307124687E+03 0.  0.
         25    1    3    3    0    0 -0.55543485214E+02  0.80102754302E+02  0.69425332596E+02  0.17311532255E+03  0.12509000000E+03 0.  0.
         25    1    4    4    0    0  0.29685259448E+02 -0.51384370933E+02  0.84584577216E+02  0.16224557623E+03  0.12509000000E+03 0.  0.
         25    1    4    4    0    0  0.25858225765E+02 -0.28718383369E+02  0.50674982649E+00  0.13092424634E+03  0.12509000000E+03 0.  0.
<mgrwt>
<rscale>  2 0.43993913E+03</rscale>
<asrwt>0</asrwt>
<pdfrwt beam="1">  1       21 0.45647192E-01 0.43993913E+03</pdfrwt>
<pdfrwt beam="2">  1       21 0.22924153E-01 0.43993913E+03</pdfrwt>
<totfact> 0.76449475E+04</totfact>
</mgrwt>
</event>
<event>
 7    0  0.4788920E-002  0.4662766E+03  0.7546771E-02  0.1022976E+00
         21   -1    0    0  502  501  0.00000000000E+00  0.00000000000E+00  0.14205647865E+04  0.14205647865E+04  0.00000000000E+00 0.  1.
         21   -1    0    0  501  502 -0.00000000000E+00 -0.00000000000E+00 -0.38261876674E+02  0.38261876674E+02  0.00000000000E+00 0.  1.
      99926    2    1    2    0    0  0.00000000000E+00  0.00000000000E+00  0.13823029098E+04  0.14588266632E+04  0.46627663321E+03 0.  0.
      99925    2    3    3    0    0  0.85425578011E+02  0.41156197667E+02  0.61416657411E+03  0.67481626762E+03  0.26303051593E+03 0.  0.
         25    1    4    4    0    0  0.39084790978E+02  0.39048603260E+02  0.22370007089E+03  0.26218627752E+03  0.12509000000E+03 0.  0.
         25    1    4    4    0    0  0.46340787033E+02  0.21075944071E+01  0.39046650322E+03  0.41262999011E+03  0.12509000000E+03 0.  0.
         25    1    3    3    0    0 -0.85425578011E+02 -0.41156197667E+02  0.76813633572E+03  0.78401039556E+03  0.12509000000E+03 0.  0.
<mgrwt>
<rscale>  2 0.46627663E+03</rscale>
<asrwt>0</asrwt>
<pdfrwt beam="1">  1       21 0.20890655E+00 0.46627663E+03</pdfrwt>
<pdfrwt beam="2">  1       21 0.56267475E-02 0.46627663E+03</pdfrwt>
<totfact> 0.22746527E+04</totfact>
</mgrwt>
</event>
<event>
 7    0  0.4788920E-002  0.4691050E+03  0.7546771E-02  0.1022173E+00
         21   -1    0    0  502  501  0.00000000000E+00  0.00000000000E+00  0.12744021899E+04  0.12744021899E+04  0.00000000000E+00 0. -1.
         21   -1    0    0  501  502 -0.00000000000E+00 -0.00000000000E+00 -0.43169155574E+02  0.43169155574E+02  0.00000000000E+00 0. -1.
      99926    2    1    2    0    0  0.00000000000E+00  0.00000000000E+00  0.12312330343E+04  0.13175713454E+04  0.46910496224E+03 0.  0.
      99925    2    3    3    0    0  0.27509831129E+02  0.31825133581E+01  0.42030539619E+03  0.49658531539E+03  0.26300842229E+03 0.  0.
         25    1    4    4    0    0  0.39203829232E+02  0.21119994394E+02  0.16778531269E+03  0.21396825382E+03  0.12509000000E+03 0.  0.
         25    1    3    3    0    0 -0.27509831129E+02 -0.31825133581E+01  0.81092763811E+03  0.82098603006E+03  0.12509000000E+03 0.  0.
         25    1    4    4    0    0 -0.11693998104E+02 -0.17937481036E+02  0.25252008350E+03  0.28261706157E+03  0.12509000000E+03 0.  0.
<mgrwt>
<rscale>  2 0.46910496E+03</rscale>
<asrwt>0</asrwt>
<pdfrwt beam="1">  1       21 0.18741206E+00 0.46910496E+03</pdfrwt>
<pdfrwt beam="2">  1       21 0.63484061E-02 0.46910496E+03</pdfrwt>
<totfact> 0.25674076E+04</totfact>
</mgrwt>
</event>
<event>
 7    0  0.4788920E-002  0.4450821E+03  0.7546771E-02  0.1029199E+00
         21   -1    0    0  502  501  0.00000000000E+00  0.00000000000E+00  0.18554430564E+03  0.18554430564E+03  0.00000000000E+00 0.  1.
         21   -1    0    0  501  502 -0.00000000000E+00 -0.00000000000E+00 -0.26691483648E+03  0.26691483648E+03  0.00000000000E+00 0.  1.
      99926    2    1    2    0    0  0.00000000000E+00  0.00000000000E+00 -0.81370530845E+02  0.45245914212E+03  0.44508214073E+03 0.  0.
      99925    2    3    3    0    0 -0.55880484107E+02  0.70944430092E+02 -0.10402955858E+03  0.29652107652E+03  0.26257733926E+03 0.  0.
         25    1    3    3    0    0  0.55880484107E+02 -0.70944430092E+02  0.22659027740E+02  0.15593806560E+03  0.12509000000E+03 0.  0.
         25    1    4    4    0    0 -0.16619143850E+01  0.64751529146E+01 -0.31453278398E+02  0.12915690607E+03  0.12509000000E+03 0.  0.
         25    1    4    4    0    0 -0.54218569722E+02  0.64469277177E+02 -0.72576280187E+02  0.16736417044E+03  0.12509000000E+03 0.  0.
<mgrwt>
<rscale>  2 0.44508214E+03</rscale>
<asrwt>0</asrwt>
<pdfrwt beam="1">  1       21 0.27285927E-01 0.44508214E+03</pdfrwt>
<pdfrwt beam="2">  1       21 0.39252182E-01 0.44508214E+03</pdfrwt>
<totfact> 0.74449457E+04</totfact>
</mgrwt>
</event>
<event>
 7    0  0.4788920E-002  0.4465865E+03  0.7546771E-02  0.1028745E+00
         21   -1    0    0  502  501  0.00000000000E+00  0.00000000000E+00  0.74120640164E+03  0.74120640164E+03  0.00000000000E+00 0.  1.
         21   -1    0    0  501  502 -0.00000000000E+00 -0.00000000000E+00 -0.67268555240E+02  0.67268555240E+02  0.00000000000E+00 0.  1.
      99926    2    1    2    0    0 -0.35527136788E-14  0.00000000000E+00  0.67393784640E+03  0.80847495688E+03  0.44658653707E+03 0.  0.
      99925    2    3    3    0    0  0.29065608689E+02 -0.70444841547E+02  0.29662379041E+03  0.40372726973E+03  0.26306415562E+03 0.  0.
         25    1    4    4    0    0 -0.14891247142E+02 -0.37369421180E+02  0.18694491895E+03  0.22850412185E+03  0.12509000000E+03 0.  0.
         25    1    3    3    0    0 -0.29065608689E+02  0.70444841547E+02  0.37731405599E+03  0.40474768716E+03  0.12509000000E+03 0.  0.
         25    1    4    4    0    0  0.43956855830E+02 -0.33075420367E+02  0.10967887145E+03  0.17522314787E+03  0.12509000000E+03 0.  0.
<mgrwt>
<rscale>  2 0.44658654E+03</rscale>
<asrwt>0</asrwt>
<pdfrwt beam="1">  1       21 0.10900094E+00 0.44658654E+03</pdfrwt>
<pdfrwt beam="2">  1       21 0.98924350E-02 0.44658654E+03</pdfrwt>
<totfact> 0.50617737E+04</totfact>
</mgrwt>
</event>
<event>
 7    0  0.4788920E-002  0.4603241E+03  0.7546771E-02  0.1024687E+00
         21   -1    0    0  502  501  0.00000000000E+00  0.00000000000E+00  0.54674968092E+02  0.54674968092E+02  0.00000000000E+00 0. -1.
         21   -1    0    0  501  502 -0.00000000000E+00 -0.00000000000E+00 -0.96889983848E+03  0.96889983848E+03  0.00000000000E+00 0. -1.
      99926    2    1    2    0    0 -0.17763568394E-14  0.17763568394E-14 -0.91422487039E+03  0.10235748066E+04  0.46032409345E+03 0.  0.
      99925    2    3    3    0    0  0.46553436895E+01  0.13630409995E+02 -0.83327233010E+03  0.87388084484E+03  0.26290206268E+03 0.  0.
         25    1    4    4    0    0 -0.20532790711E+02  0.39797298925E+02 -0.43672795203E+03  0.45649121862E+03  0.12509000000E+03 0.  0.
         25    1    3    3    0    0 -0.46553436895E+01 -0.13630409995E+02 -0.80952540289E+02  0.14969396174E+03  0.12509000000E+03 0.  0.
         25    1    4    4    0    0  0.25188134400E+02 -0.26166888930E+02 -0.39654437807E+03  0.41738962621E+03  0.12509000000E+03 0.  0.
<mgrwt>
<rscale>  2 0.46032409E+03</rscale>
<asrwt>0</asrwt>
<pdfrwt beam="1">  1       21 0.80404364E-02 0.46032409E+03</pdfrwt>
<pdfrwt beam="2">  1       21 0.14248527E+00 0.46032409E+03</pdfrwt>
<totfact> 0.36712226E+04</totfact>
</mgrwt>
</event>
<event>
 7    0  0.4788920E-002  0.4490619E+03  0.7546771E-02  0.1028002E+00
         21   -1    0    0  502  501  0.00000000000E+00  0.00000000000E+00  0.15630999369E+03  0.15630999369E+03  0.00000000000E+00 0. -1.
         21   -1    0    0  501  502 -0.00000000000E+00 -0.00000000000E+00 -0.32252672672E+03  0.32252672672E+03  0.00000000000E+00 0. -1.
      99926    2    1    2    0    0  0.71054273576E-14  0.00000000000E+00 -0.16621673303E+03  0.47883672042E+03  0.44906191386E+03 0.  0.
      99925    2    3    3    0    0 -0.56695105038E+02  0.46426904558E+02 -0.21241070851E+02  0.27381173871E+03  0.26296747472E+03 0.  0.
         25    1    3    3    0    0  0.56695105038E+02 -0.46426904558E+02 -0.14497566218E+03  0.20502498171E+03  0.12509000000E+03 0.  0.
         25    1    4    4    0    0 -0.59374323065E+02  0.50718365600E+02 -0.47594257121E+01  0.14753922557E+03  0.12509000000E+03 0.  0.
         25    1    4    4    0    0  0.26792180268E+01 -0.42914610413E+01 -0.16481645139E+02  0.12627251314E+03  0.12509000000E+03 0.  0.
<mgrwt>
<rscale>  2 0.44906191E+03</rscale>
<asrwt>0</asrwt>
<pdfrwt beam="1">  1       21 0.22986764E-01 0.44906191E+03</pdfrwt>
<pdfrwt beam="2">  1       21 0.47430400E-01 0.44906191E+03</pdfrwt>
<totfact> 0.70027959E+04</totfact>
</mgrwt>
</event>
<event>
 7    0  0.4788920E-002  0.4559036E+03  0.7546771E-02  0.1025976E+00
         21   -1    0    0  502  501  0.00000000000E+00  0.00000000000E+00  0.22938817710E+03  0.22938817710E+03  0.00000000000E+00 0.  1.
         21   -1    0    0  501  502 -0.00000000000E+00 -0.00000000000E+00 -0.22652443206E+03  0.22652443206E+03  0.00000000000E+00 0.  1.
      99926    2    1    2    0    0  0.00000000000E+00  0.17763568394E-14  0.28637450400E+01  0.45591260916E+03  0.45590361499E+03 0.  0.
      99925    2    3    3    0    0  0.11226999483E+03  0.14974044802E+02  0.14021369933E+02  0.28679497421E+03  0.26310831355E+03 0.  0.
         25    1    4    4    0    0  0.77512821183E+02  0.39993908874E+02  0.23234065467E+02  0.15425653987E+03  0.12509000000E+03 0.  0.
         25    1    3    3    0    0 -0.11226999483E+03 -0.14974044802E+02 -0.11157624893E+02  0.16911763495E+03  0.12509000000E+03 0.  0.
         25    1    4    4    0    0  0.34757173651E+02 -0.25019864073E+02 -0.92126955335E+01  0.13253843434E+03  0.12509000000E+03 0.  0.
<mgrwt>
<rscale>  2 0.45590361E+03</rscale>
<asrwt>0</asrwt>
<pdfrwt beam="1">  1       21 0.33733555E-01 0.45590361E+03</pdfrwt>
<pdfrwt beam="2">  1       21 0.33312416E-01 0.45590361E+03</pdfrwt>
<totfact> 0.67987477E+04</totfact>
</mgrwt>
</event>
<event>
 7    0  0.4788920E-002  0.4545931E+03  0.7546771E-02  0.1026361E+00
         21   -1    0    0  502  501  0.00000000000E+00  0.00000000000E+00  0.43872711410E+02  0.43872711410E+02  0.00000000000E+00 0. -1.
         21   -1    0    0  501  502 -0.00000000000E+00 -0.00000000000E+00 -0.11775824002E+04  0.11775824002E+04  0.00000000000E+00 0. -1.
      99926    2    1    2    0    0  0.00000000000E+00  0.00000000000E+00 -0.11337096888E+04  0.12214551117E+04  0.45459314912E+03 0.  0.
      99925    2    3    3    0    0  0.10158465710E+03  0.39702021303E+02 -0.78988674253E+03  0.83967321114E+03  0.26312419582E+03 0.  0.
         25    1    4    4    0    0  0.77336719791E+02  0.30269844626E+02 -0.51690223302E+03  0.53826820297E+03  0.12509000000E+03 0.  0.
         25    1    3    3    0    0 -0.10158465710E+03 -0.39702021303E+02 -0.34382294630E+03  0.38178190051E+03  0.12509000000E+03 0.  0.
         25    1    4    4    0    0  0.24247937313E+02  0.94321766770E+01 -0.27298450951E+03  0.30140500818E+03  0.12509000000E+03 0.  0.
<mgrwt>
<rscale>  2 0.45459315E+03</rscale>
<asrwt>0</asrwt>
<pdfrwt beam="1">  1       21 0.64518687E-02 0.45459315E+03</pdfrwt>
<pdfrwt beam="2">  1       21 0.17317390E+00 0.45459315E+03</pdfrwt>
<totfact> 0.31583168E+04</totfact>
</mgrwt>
</event>
<event>
 7    0  0.4788920E-002  0.4543889E+03  0.7546771E-02  0.1026421E+00
         21   -1    0    0  502  501  0.00000000000E+00  0.00000000000E+00  0.29193326005E+03  0.29193326005E+03  0.00000000000E+00 0.  1.
         21   -1    0    0  501  502 -0.00000000000E+00 -0.00000000000E+00 -0.17681207784E+03  0.17681207784E+03  0.00000000000E+00 0.  1.
      99926    2    1    2    0    0  0.00000000000E+00  0.00000000000E+00  0.11512118221E+03  0.46874533788E+03  0.45438893604E+03 0.  0.
      99925    2    3    3    0    0  0.35725432594E+02 -0.74289954270E+02 -0.66697902920E+01  0.27567578326E+03  0.26297784609E+03 0.  0.
         25    1    4    4    0    0 -0.84855832182E+01 -0.32936965189E+02 -0.34065444885E+02  0.13403287445E+03  0.12509000000E+03 0.  0.
         25    1    3    3    0    0 -0.35725432594E+02  0.74289954270E+02  0.12179097250E+03  0.19306955462E+03  0.12509000000E+03 0.  0.
         25    1    4    4    0    0  0.44211015813E+02 -0.41352989081E+02  0.27395654593E+02  0.14164290881E+03  0.12509000000E+03 0.  0.
<mgrwt>
<rscale>  2 0.45438894E+03</rscale>
<asrwt>0</asrwt>
<pdfrwt beam="1">  1       21 0.42931362E-01 0.45438894E+03</pdfrwt>
<pdfrwt beam="2">  1       21 0.26001776E-01 0.45438894E+03</pdfrwt>
<totfact> 0.67857508E+04</totfact>
</mgrwt>
</event>
<event>
 7    0  0.4788920E-002  0.4543144E+03  0.7546771E-02  0.1026443E+00
         21   -1    0    0  502  501  0.00000000000E+00  0.00000000000E+00  0.15587394233E+04  0.15587394233E+04  0.00000000000E+00 0.  1.
         21   -1    0    0  501  502 -0.00000000000E+00 -0.00000000000E+00 -0.33103931114E+02  0.33103931114E+02  0.00000000000E+00 0.  1.
      99926    2    1    2    0    0  0.00000000000E+00  0.00000000000E+00  0.15256354922E+04  0.15918433545E+04  0.45431443954E+03 0.  0.
      99925    2    3    3    0    0 -0.21800770235E+02 -0.83390565013E+02  0.70607233971E+03  0.75832039198E+03  0.26283532500E+03 0.  0.
         25    1    4    4    0    0 -0.47181583873E+02 -0.42702702453E+02  0.31239513119E+03  0.34247313580E+03  0.12509000000E+03 0.  0.
         25    1    3    3    0    0  0.21800770235E+02  0.83390565013E+02  0.81956315251E+03  0.83352296248E+03  0.12509000000E+03 0.  0.
         25    1    4    4    0    0  0.25380813638E+02 -0.40687862559E+02  0.39367720852E+03  0.41584725618E+03  0.12509000000E+03 0.  0.
<mgrwt>
<rscale>  2 0.45431444E+03</rscale>
<asrwt>0</asrwt>
<pdfrwt beam="1">  1       21 0.22922634E+00 0.45431444E+03</pdfrwt>
<pdfrwt beam="2">  1       21 0.48682262E-02 0.45431444E+03</pdfrwt>
<totfact> 0.21730176E+04</totfact>
</mgrwt>
</event>
<event>
 7    0  0.4788920E-002  0.4497405E+03  0.7546771E-02  0.1027799E+00
         21   -1    0    0  502  501  0.00000000000E+00  0.00000000000E+00  0.10901336368E+03  0.10901336368E+03  0.00000000000E+00 0.  1.
         21   -1    0    0  501  502 -0.00000000000E+00 -0.00000000000E+00 -0.46385706573E+03  0.46385706573E+03  0.00000000000E+00 0.  1.
      99926    2    1    2    0    0  0.00000000000E+00 -0.17763568394E-14 -0.35484370206E+03  0.57287042941E+03  0.44974045404E+03 0.  0.
      99925    2    3    3    0    0 -0.74778161704E+02 -0.85105065080E+01 -0.32346463935E+03  0.42355078614E+03  0.26287200943E+03 0.  0.
         25    1    4    4    0    0 -0.28770780775E+02  0.98380395953E+01 -0.10124114061E+03  0.16377368990E+03  0.12509000000E+03 0.  0.
         25    1    4    4    0    0 -0.46007380929E+02 -0.18348546103E+02 -0.22222349873E+03  0.25977709625E+03  0.12509000000E+03 0.  0.
         25    1    3    3    0    0  0.74778161704E+02  0.85105065080E+01 -0.31379062708E+02  0.14931964327E+03  0.12509000000E+03 0.  0.
<mgrwt>
<rscale>  2 0.44974045E+03</rscale>
<asrwt>0</asrwt>
<pdfrwt beam="1">  1       21 0.16031377E-01 0.44974045E+03</pdfrwt>
<pdfrwt beam="2">  1       21 0.68214273E-01 0.44974045E+03</pdfrwt>
<totfact> 0.62957738E+04</totfact>
</mgrwt>
</event>
<event>
 7    0  0.4788920E-002  0.4522780E+03  0.7546771E-02  0.1027045E+00
         21   -1    0    0  502  501  0.00000000000E+00  0.00000000000E+00  0.95901991452E+03  0.95901991452E+03  0.00000000000E+00 0. -1.
         21   -1    0    0  501  502 -0.00000000000E+00 -0.00000000000E+00 -0.53324061307E+02  0.53324061307E+02  0.00000000000E+00 0. -1.
      99926    2    1    2    0    0  0.35527136788E-14  0.00000000000E+00  0.90569585321E+03  0.10123439758E+04  0.45227795311E+03 0.  0.
      99925    2    3    3    0    0 -0.14705073825E+02 -0.46688159111E+02  0.79339247596E+03  0.83725662608E+03  0.26292777262E+03 0.  0.
         25    1    3    3    0    0  0.14705073825E+02  0.46688159111E+02  0.11230337725E+03  0.17508734974E+03  0.12509000000E+03 0.  0.
         25    1    4    4    0    0 -0.27009545881E+02 -0.77572736190E+01  0.49125207929E+03  0.50770641553E+03  0.12509000000E+03 0.  0.
         25    1    4    4    0    0  0.12304472056E+02 -0.38930885492E+02  0.30214039667E+03  0.32955021056E+03  0.12509000000E+03 0.  0.
<mgrwt>
<rscale>  2 0.45227795E+03</rscale>
<asrwt>0</asrwt>
<pdfrwt beam="1">  1       21 0.14103233E+00 0.45227795E+03</pdfrwt>
<pdfrwt beam="2">  1       21 0.78417743E-02 0.45227795E+03</pdfrwt>
<totfact> 0.39523480E+04</totfact>
</mgrwt>
</event>
<event>
 7    0  0.4788920E-002  0.4563694E+03  0.7546771E-02  0.1025839E+00
         21   -1    0    0  502  501  0.00000000000E+00  0.00000000000E+00  0.20933227745E+02  0.20933227745E+02  0.00000000000E+00 0.  1.
         21   -1    0    0  501  502 -0.00000000000E+00 -0.00000000000E+00 -0.24873495565E+04  0.24873495565E+04  0.00000000000E+00 0.  1.
      99926    2    1    2    0    0  0.00000000000E+00  0.00000000000E+00 -0.24664163287E+04  0.25082827842E+04  0.45636938875E+03 0.  0.
      99925    2    3    3    0    0 -0.84304423899E+01 -0.83272666173E+02 -0.19796421355E+04  0.19987712214E+04  0.26286498779E+03 0.  0.
         25    1    4    4    0    0 -0.19809333580E+02 -0.34440524455E+02 -0.71293345145E+03  0.72491390780E+03  0.12509000000E+03 0.  0.
         25    1    3    3    0    0  0.84304423899E+01  0.83272666173E+02 -0.48677419327E+03  0.50951156279E+03  0.12509000000E+03 0.  0.
         25    1    4    4    0    0  0.11378891190E+02 -0.48832141719E+02 -0.12667086840E+04  0.12738573136E+04  0.12509000000E+03 0.  0.
<mgrwt>
<rscale>  2 0.45636939E+03</rscale>
<asrwt>0</asrwt>
<pdfrwt beam="1">  1       21 0.30784169E-02 0.45636939E+03</pdfrwt>
<pdfrwt beam="2">  1       21 0.36578657E+00 0.45636939E+03</pdfrwt>
<totfact> 0.69728754E+03</totfact>
</mgrwt>
</event>
<event>
 7    0  0.4788920E-002  0.4526352E+03  0.7546771E-02  0.1026939E+00
         21   -1    0    0  502  501  0.00000000000E+00  0.00000000000E+00  0.14388548676E+03  0.14388548676E+03  0.00000000000E+00 0.  1.
         21   -1    0    0  501  502 -0.00000000000E+00 -0.00000000000E+00 -0.35597506687E+03  0.35597506687E+03  0.00000000000E+00 0.  1.
      99926    2    1    2    0    0  0.00000000000E+00  0.22204460493E-15 -0.21208958011E+03  0.49986055363E+03  0.45263515449E+03 0.  0.
      99925    2    3    3    0    0  0.99470393541E+02  0.16196389224E+01 -0.76384100633E+02  0.29019303664E+03  0.26168776292E+03 0.  0.
         25    1    3    3    0    0 -0.99470393541E+02 -0.16196389224E+01 -0.13570547948E+03  0.20966751699E+03  0.12509000000E+03 0.  0.
         25    1    4    4    0    0  0.22378410432E+02  0.11641046203E+01 -0.65196382665E+02  0.14282935555E+03  0.12509000000E+03 0.  0.
         25    1    4    4    0    0  0.77091983109E+02  0.45553430203E+00 -0.11187717969E+02  0.14736368109E+03  0.12509000000E+03 0.  0.
<mgrwt>
<rscale>  2 0.45263515E+03</rscale>
<asrwt>0</asrwt>
<pdfrwt beam="1">  1       21 0.21159631E-01 0.45263515E+03</pdfrwt>
<pdfrwt beam="2">  1       21 0.52349273E-01 0.45263515E+03</pdfrwt>
<totfact> 0.66520430E+04</totfact>
</mgrwt>
</event>
<event>
 7    0  0.4788920E-002  0.4512630E+03  0.7546771E-02  0.1027346E+00
         21   -1    0    0  502  501  0.00000000000E+00  0.00000000000E+00  0.15728075113E+03  0.15728075113E+03  0.00000000000E+00 0.  1.
         21   -1    0    0  501  502 -0.00000000000E+00 -0.00000000000E+00 -0.32368594319E+03  0.32368594319E+03  0.00000000000E+00 0.  1.
      99926    2    1    2    0    0  0.00000000000E+00  0.00000000000E+00 -0.16640519206E+03  0.48096669432E+03  0.45126297555E+03 0.  0.
      99925    2    3    3    0    0 -0.93422639267E+01 -0.11074377730E+02  0.10675183637E+02  0.26367682504E+03  0.26306194856E+03 0.  0.
         25    1    4    4    0    0 -0.89145554882E+01  0.26066584928E+02 -0.19979055095E+02  0.12963644122E+03  0.12509000000E+03 0.  0.
         25    1    3    3    0    0  0.93422639267E+01  0.11074377730E+02 -0.17708037570E+03  0.21728986929E+03  0.12509000000E+03 0.  0.
         25    1    4    4    0    0 -0.42770843853E+00 -0.37140962657E+02  0.30654238731E+02  0.13404038382E+03  0.12509000000E+03 0.  0.
<mgrwt>
<rscale>  2 0.45126298E+03</rscale>
<asrwt>0</asrwt>
<pdfrwt beam="1">  1       21 0.23129522E-01 0.45126298E+03</pdfrwt>
<pdfrwt beam="2">  1       21 0.47600874E-01 0.45126298E+03</pdfrwt>
<totfact> 0.68643611E+04</totfact>
</mgrwt>
</event>
<event>
 7    0  0.4788920E-002  0.4527270E+03  0.7546771E-02  0.1026912E+00
         21   -1    0    0  502  501  0.00000000000E+00  0.00000000000E+00  0.67418115565E+03  0.67418115565E+03  0.00000000000E+00 0.  1.
         21   -1    0    0  501  502 -0.00000000000E+00 -0.00000000000E+00 -0.76003940240E+02  0.76003940240E+02  0.00000000000E+00 0.  1.
      99926    2    1    2    0    0  0.00000000000E+00 -0.71054273576E-14  0.59817721541E+03  0.75018509589E+03  0.45272695641E+03 0.  0.
      99925    2    3    3    0    0 -0.83304468467E+02  0.57065392599E+02  0.30069022925E+03  0.41203999607E+03  0.26299477351E+03 0.  0.
         25    1    4    4    0    0 -0.42665646381E+02  0.20872023610E+02  0.20725535380E+03  0.24669472740E+03  0.12509000000E+03 0.  0.
         25    1    4    4    0    0 -0.40638822086E+02  0.36193368989E+02  0.93434875452E+02  0.16534526867E+03  0.12509000000E+03 0.  0.
         25    1    3    3    0    0  0.83304468467E+02 -0.57065392599E+02  0.29748698616E+03  0.33814509982E+03  0.12509000000E+03 0.  0.
<mgrwt>
<rscale>  2 0.45272696E+03</rscale>
<asrwt>0</asrwt>
<pdfrwt beam="1">  1       21 0.99144284E-01 0.45272696E+03</pdfrwt>
<pdfrwt beam="2">  1       21 0.11177050E-01 0.45272696E+03</pdfrwt>
<totfact> 0.51169506E+04</totfact>
</mgrwt>
</event>
<event>
 7    0  0.4788920E-002  0.4549687E+03  0.7546771E-02  0.1026251E+00
         21   -1    0    0  502  501  0.00000000000E+00  0.00000000000E+00  0.19365582359E+03  0.19365582359E+03  0.00000000000E+00 0. -1.
         21   -1    0    0  501  502 -0.00000000000E+00 -0.00000000000E+00 -0.26722216496E+03  0.26722216496E+03  0.00000000000E+00 0. -1.
      99926    2    1    2    0    0  0.00000000000E+00  0.00000000000E+00 -0.73566341370E+02  0.46087798855E+03  0.45496869535E+03 0.  0.
      99925    2    3    3    0    0  0.71586697188E+02  0.47944592805E+02 -0.12052180277E+03  0.30189477356E+03  0.26304298159E+03 0.  0.
         25    1    4    4    0    0  0.13268227394E+01  0.13009240123E+02 -0.32180897405E+02  0.12982341486E+03  0.12509000000E+03 0.  0.
         25    1    4    4    0    0  0.70259874449E+02  0.34935352682E+02 -0.88340905366E+02  0.17207135870E+03  0.12509000000E+03 0.  0.
         25    1    3    3    0    0 -0.71586697188E+02 -0.47944592805E+02  0.46955461400E+02  0.15898321499E+03  0.12509000000E+03 0.  0.
<mgrwt>
<rscale>  2 0.45496870E+03</rscale>
<asrwt>0</asrwt>
<pdfrwt beam="1">  1       21 0.28478798E-01 0.45496870E+03</pdfrwt>
<pdfrwt beam="2">  1       21 0.39297377E-01 0.45496870E+03</pdfrwt>
<totfact> 0.68133590E+04</totfact>
</mgrwt>
</event>
<event>
 7    0  0.4788920E-002  0.4276067E+03  0.7546771E-02  0.1034619E+00
         21   -1    0    0  502  501  0.00000000000E+00  0.00000000000E+00  0.50321199908E+03  0.50321199908E+03  0.00000000000E+00 0.  1.
         21   -1    0    0  501  502 -0.00000000000E+00 -0.00000000000E+00 -0.90840193596E+02  0.90840193596E+02  0.00000000000E+00 0.  1.
      99926    2    1    2    0    0  0.35527136788E-14  0.00000000000E+00  0.41237180549E+03  0.59405219268E+03  0.42760671378E+03 0.  0.
      99925    2    3    3    0    0 -0.55785583530E+01 -0.84000567949E+02  0.28295294132E+03  0.39534646495E+03  0.26296243956E+03 0.  0.
         25    1    4    4    0    0  0.35939256074E+02 -0.40714685021E+02  0.15719311353E+03  0.20810213537E+03  0.12509000000E+03 0.  0.
         25    1    3    3    0    0  0.55785583530E+01  0.84000567949E+02  0.12941886417E+03  0.19870572773E+03  0.12509000000E+03 0.  0.
         25    1    4    4    0    0 -0.41517814427E+02 -0.43285882928E+02  0.12575982778E+03  0.18724432958E+03  0.12509000000E+03 0.  0.
<mgrwt>
<rscale>  2 0.42760671E+03</rscale>
<asrwt>0</asrwt>
<pdfrwt beam="1">  1       21 0.74001763E-01 0.42760671E+03</pdfrwt>
<pdfrwt beam="2">  1       21 0.13358852E-01 0.42760671E+03</pdfrwt>
<totfact> 0.73761558E+04</totfact>
</mgrwt>
</event>
<event>
 7    0  0.4788920E-002  0.4537610E+03  0.7546771E-02  0.1026606E+00
         21   -1    0    0  502  501  0.00000000000E+00  0.00000000000E+00  0.19528299496E+03  0.19528299496E+03  0.00000000000E+00 0.  1.
         21   -1    0    0  501  502 -0.00000000000E+00 -0.00000000000E+00 -0.26359055018E+03  0.26359055018E+03  0.00000000000E+00 0.  1.
      99926    2    1    2    0    0  0.00000000000E+00  0.00000000000E+00 -0.68307555220E+02  0.45887354514E+03  0.45376095945E+03 0.  0.
      99925    2    3    3    0    0 -0.22720918196E+02 -0.62495872416E+02  0.48067355319E+02  0.27553614553E+03  0.26303559199E+03 0.  0.
         25    1    4    4    0    0  0.51008583973E+01  0.70813072324E+01  0.18492137595E+02  0.12675026991E+03  0.12509000000E+03 0.  0.
         25    1    3    3    0    0  0.22720918196E+02  0.62495872416E+02 -0.11637491054E+03  0.18333739961E+03  0.12509000000E+03 0.  0.
         25    1    4    4    0    0 -0.27821776593E+02 -0.69577179648E+02  0.29575217724E+02  0.14878587562E+03  0.12509000000E+03 0.  0.
<mgrwt>
<rscale>  2 0.45376096E+03</rscale>
<asrwt>0</asrwt>
<pdfrwt beam="1">  1       21 0.28718088E-01 0.45376096E+03</pdfrwt>
<pdfrwt beam="2">  1       21 0.38763316E-01 0.45376096E+03</pdfrwt>
<totfact> 0.68941428E+04</totfact>
</mgrwt>
</event>
<event>
 7    0  0.4788920E-002  0.4499706E+03  0.7546771E-02  0.1027731E+00
         21   -1    0    0  502  501  0.00000000000E+00  0.00000000000E+00  0.24973483783E+03  0.24973483783E+03  0.00000000000E+00 0. -1.
         21   -1    0    0  501  502 -0.00000000000E+00 -0.00000000000E+00 -0.20268854163E+03  0.20268854163E+03  0.00000000000E+00 0. -1.
      99926    2    1    2    0    0  0.22204460493E-15  0.14210854715E-13  0.47046296199E+02  0.45242337947E+03  0.44997062160E+03 0.  0.
      99925    2    3    3    0    0  0.18843356249E+01  0.66339710779E+02  0.11596224283E+03  0.29493870165E+03  0.26293932384E+03 0.  0.
         25    1    4    4    0    0 -0.24048645374E+02  0.44954882577E+02  0.91415189880E+02  0.16310586701E+03  0.12509000000E+03 0.  0.
         25    1    3    3    0    0 -0.18843356249E+01 -0.66339710779E+02 -0.68915946636E+02  0.15748467782E+03  0.12509000000E+03 0.  0.
         25    1    4    4    0    0  0.25932980999E+02  0.21384828202E+02  0.24547052955E+02  0.13183283464E+03  0.12509000000E+03 0.  0.
<mgrwt>
<rscale>  2 0.44997062E+03</rscale>
<asrwt>0</asrwt>
<pdfrwt beam="1">  1       21 0.36725711E-01 0.44997062E+03</pdfrwt>
<pdfrwt beam="2">  1       21 0.29807139E-01 0.44997062E+03</pdfrwt>
<totfact> 0.71563753E+04</totfact>
</mgrwt>
</event>
<event>
 7    0  0.4788920E-002  0.4546774E+03  0.7546771E-02  0.1026336E+00
         21   -1    0    0  502  501  0.00000000000E+00  0.00000000000E+00  0.11052919432E+03  0.11052919432E+03  0.00000000000E+00 0.  1.
         21   -1    0    0  501  502 -0.00000000000E+00 -0.00000000000E+00 -0.46759482717E+03  0.46759482717E+03  0.00000000000E+00 0.  1.
      99926    2    1    2    0    0  0.00000000000E+00 -0.71054273576E-14 -0.35706563286E+03  0.57812402149E+03  0.45467737799E+03 0.  0.
      99925    2    3    3    0    0  0.11477635471E+02 -0.47002606013E+02 -0.95315992978E+02  0.28401288065E+03  0.26312961972E+03 0.  0.
         25    1    4    4    0    0 -0.90057593685E+01  0.57088033541E+01 -0.19078231477E+02  0.12698496428E+03  0.12509000000E+03 0.  0.
         25    1    4    4    0    0  0.20483394839E+02 -0.52711409367E+02 -0.76237761500E+02  0.15702791637E+03  0.12509000000E+03 0.  0.
         25    1    3    3    0    0 -0.11477635471E+02  0.47002606013E+02 -0.26174963988E+03  0.29411114084E+03  0.12509000000E+03 0.  0.
<mgrwt>
<rscale>  2 0.45467738E+03</rscale>
<asrwt>0</asrwt>
<pdfrwt beam="1">  1       21 0.16254294E-01 0.45467738E+03</pdfrwt>
<pdfrwt beam="2">  1       21 0.68763944E-01 0.45467738E+03</pdfrwt>
<totfact> 0.60198810E+04</totfact>
</mgrwt>
</event>
<event>
 7    0  0.4788920E-002  0.4580127E+03  0.7546771E-02  0.1025359E+00
         21   -1    0    0  502  501  0.00000000000E+00  0.00000000000E+00  0.84965305073E+02  0.84965305073E+02  0.00000000000E+00 0. -1.
         21   -1    0    0  501  502 -0.00000000000E+00 -0.00000000000E+00 -0.61723905192E+03  0.61723905192E+03  0.00000000000E+00 0. -1.
      99926    2    1    2    0    0 -0.71054273576E-14  0.00000000000E+00 -0.53227374685E+03  0.70220435700E+03  0.45801268257E+03 0.  0.
      99925    2    3    3    0    0 -0.54080029616E+02  0.96311553380E+02 -0.38829876721E+03  0.48180275133E+03  0.26297793378E+03 0.  0.
         25    1    4    4    0    0  0.11486951083E+02  0.59928567882E+02 -0.18036490592E+03  0.22782096190E+03  0.12509000000E+03 0.  0.
         25    1    3    3    0    0  0.54080029616E+02 -0.96311553380E+02 -0.14397497964E+03  0.22040160567E+03  0.12509000000E+03 0.  0.
         25    1    4    4    0    0 -0.65566980699E+02  0.36382985499E+02 -0.20793386128E+03  0.25398178943E+03  0.12509000000E+03 0.  0.
<mgrwt>
<rscale>  2 0.45801268E+03</rscale>
<asrwt>0</asrwt>
<pdfrwt beam="1">  1       21 0.12494898E-01 0.45801268E+03</pdfrwt>
<pdfrwt beam="2">  1       21 0.90770447E-01 0.45801268E+03</pdfrwt>
<totfact> 0.51550364E+04</totfact>
</mgrwt>
</event>
<event>
 7    0  0.4788920E-002  0.4339683E+03  0.7546771E-02  0.1032614E+00
         21   -1    0    0  502  501  0.00000000000E+00  0.00000000000E+00  0.93578378194E+03  0.93578378194E+03  0.00000000000E+00 0. -1.
         21   -1    0    0  501  502 -0.00000000000E+00 -0.00000000000E+00 -0.50313035424E+02  0.50313035424E+02  0.00000000000E+00 0. -1.
      99926    2    1    2    0    0 -0.33306690739E-14  0.00000000000E+00  0.88547074651E+03  0.98609681736E+03  0.43396830561E+03 0.  0.
      99925    2    3    3    0    0  0.14221540450E+01 -0.91517566188E+02  0.58960244463E+03  0.65208626722E+03  0.26307407654E+03 0.  0.
         25    1    3    3    0    0 -0.14221540450E+01  0.91517566188E+02  0.29586830188E+03  0.33401055013E+03  0.12509000000E+03 0.  0.
         25    1    4    4    0    0 -0.39161796377E+02 -0.53608290656E+02  0.29293766707E+03  0.32537283232E+03  0.12509000000E+03 0.  0.
         25    1    4    4    0    0  0.40583950422E+02 -0.37909275532E+02  0.29666477756E+03  0.32671343491E+03  0.12509000000E+03 0.  0.
<mgrwt>
<rscale>  2 0.43396831E+03</rscale>
<asrwt>0</asrwt>
<pdfrwt beam="1">  1       21 0.13761525E+00 0.43396831E+03</pdfrwt>
<pdfrwt beam="2">  1       21 0.73989764E-02 0.43396831E+03</pdfrwt>
<totfact> 0.46966010E+04</totfact>
</mgrwt>
</event>
<event>
 7    0  0.4788920E-002  0.4512290E+03  0.7546771E-02  0.1027356E+00
         21   -1    0    0  502  501  0.00000000000E+00  0.00000000000E+00  0.48443115309E+03  0.48443115309E+03  0.00000000000E+00 0. -1.
         21   -1    0    0  501  502 -0.00000000000E+00 -0.00000000000E+00 -0.10507561965E+03  0.10507561965E+03  0.00000000000E+00 0. -1.
      99926    2    1    2    0    0  0.35527136788E-14  0.00000000000E+00  0.37935553344E+03  0.58950677274E+03  0.45122900433E+03 0.  0.
      99925    2    3    3    0    0  0.27490973274E+02 -0.10218031180E+03  0.27710497218E+03  0.39637662204E+03  0.26292715942E+03 0.  0.
         25    1    4    4    0    0 -0.17681096251E+02 -0.31712188134E+02  0.10174127183E+03  0.16527879033E+03  0.12509000000E+03 0.  0.
         25    1    4    4    0    0  0.45172069525E+02 -0.70468123666E+02  0.17536370035E+03  0.23109783171E+03  0.12509000000E+03 0.  0.
         25    1    3    3    0    0 -0.27490973274E+02  0.10218031180E+03  0.10225056126E+03  0.19313015070E+03  0.12509000000E+03 0.  0.
<mgrwt>
<rscale>  2 0.45122900E+03</rscale>
<asrwt>0</asrwt>
<pdfrwt beam="1">  1       21 0.71239874E-01 0.45122900E+03</pdfrwt>
<pdfrwt beam="2">  1       21 0.15452297E-01 0.45122900E+03</pdfrwt>
<totfact> 0.61130513E+04</totfact>
</mgrwt>
</event>
<event>
 7    0  0.4788920E-002  0.4396115E+03  0.7546771E-02  0.1030866E+00
         21   -1    0    0  502  501  0.00000000000E+00  0.00000000000E+00  0.14062752257E+03  0.14062752257E+03  0.00000000000E+00 0.  1.
         21   -1    0    0  501  502 -0.00000000000E+00 -0.00000000000E+00 -0.34356414107E+03  0.34356414107E+03  0.00000000000E+00 0.  1.
      99926    2    1    2    0    0  0.00000000000E+00  0.00000000000E+00 -0.20293661850E+03  0.48419166364E+03  0.43961152852E+03 0.  0.
      99925    2    3    3    0    0 -0.61199868605E+02 -0.75522173993E+02 -0.14308976092E+03  0.31484534055E+03  0.26306631503E+03 0.  0.
         25    1    4    4    0    0 -0.40800568380E+02 -0.34065278108E+01 -0.90927415123E+02  0.15997372826E+03  0.12509000000E+03 0.  0.
         25    1    4    4    0    0 -0.20399300225E+02 -0.72115646182E+02 -0.52162345797E+02  0.15487161229E+03  0.12509000000E+03 0.  0.
         25    1    3    3    0    0  0.61199868605E+02  0.75522173993E+02 -0.59846857582E+02  0.16934632309E+03  0.12509000000E+03 0.  0.
<mgrwt>
<rscale>  2 0.43961153E+03</rscale>
<asrwt>0</asrwt>
<pdfrwt beam="1">  1       21 0.20680518E-01 0.43961153E+03</pdfrwt>
<pdfrwt beam="2">  1       21 0.50524137E-01 0.43961153E+03</pdfrwt>
<totfact> 0.75167635E+04</totfact>
</mgrwt>
</event>
<event>
 7    0  0.4788920E-002  0.4768203E+03  0.7546771E-02  0.1020013E+00
         21   -1    0    0  502  501  0.00000000000E+00  0.00000000000E+00  0.33084600044E+03  0.33084600044E+03  0.00000000000E+00 0.  1.
         21   -1    0    0  501  502 -0.00000000000E+00 -0.00000000000E+00 -0.17180018791E+03  0.17180018791E+03  0.00000000000E+00 0.  1.
      99926    2    1    2    0    0  0.00000000000E+00  0.14210854715E-13  0.15904581253E+03  0.50264618836E+03  0.47682032275E+03 0.  0.
      99925    2    3    3    0    0  0.30437691938E+02 -0.12710950390E+03  0.74836648300E+02  0.30309175841E+03  0.26302245344E+03 0.  0.
         25    1    4    4    0    0  0.90931564120E+01 -0.10221575894E+03  0.61492802173E+02  0.17308847359E+03  0.12509000000E+03 0.  0.
         25    1    4    4    0    0  0.21344535526E+02 -0.24893744961E+02  0.13343846127E+02  0.13000328482E+03  0.12509000000E+03 0.  0.
         25    1    3    3    0    0 -0.30437691938E+02  0.12710950390E+03  0.84209164228E+02  0.19955442995E+03  0.12509000000E+03 0.  0.
<mgrwt>
<rscale>  2 0.47682032E+03</rscale>
<asrwt>0</asrwt>
<pdfrwt beam="1">  1       21 0.48653824E-01 0.47682032E+03</pdfrwt>
<pdfrwt beam="2">  1       21 0.25264733E-01 0.47682032E+03</pdfrwt>
<totfact> 0.54934794E+04</totfact>
</mgrwt>
</event>
<event>
 7    0  0.4788920E-002  0.4559811E+03  0.7546771E-02  0.1025953E+00
         21   -1    0    0  502  501  0.00000000000E+00  0.00000000000E+00  0.51348788244E+03  0.51348788244E+03  0.00000000000E+00 0. -1.
         21   -1    0    0  501  502 -0.00000000000E+00 -0.00000000000E+00 -0.10122867870E+03  0.10122867870E+03  0.00000000000E+00 0. -1.
      99926    2    1    2    0    0 -0.14210854715E-13  0.00000000000E+00  0.41225920374E+03  0.61471656115E+03  0.45598113939E+03 0.  0.
      99925    2    3    3    0    0 -0.91150053855E+02 -0.63904862411E+02  0.29324317717E+03  0.40927925577E+03  0.26291782841E+03 0.  0.
         25    1    3    3    0    0  0.91150053855E+02  0.63904862411E+02  0.11901602657E+03  0.20543730537E+03  0.12509000000E+03 0.  0.
         25    1    4    4    0    0 -0.11133141313E+02 -0.38985639030E+02  0.16857911384E+03  0.21379956176E+03  0.12509000000E+03 0.  0.
         25    1    4    4    0    0 -0.80016912542E+02 -0.24919223381E+02  0.12466406333E+03  0.19547969402E+03  0.12509000000E+03 0.  0.
<mgrwt>
<rscale>  2 0.45598114E+03</rscale>
<asrwt>0</asrwt>
<pdfrwt beam="1">  1       21 0.75512923E-01 0.45598114E+03</pdfrwt>
<pdfrwt beam="2">  1       21 0.14886571E-01 0.45598114E+03</pdfrwt>
<totfact> 0.57335867E+04</totfact>
</mgrwt>
</event>
<event>
 7    0  0.4788920E-002  0.4421638E+03  0.7546771E-02  0.1030085E+00
         21   -1    0    0  502  501  0.00000000000E+00  0.00000000000E+00  0.64753799238E+03  0.64753799238E+03  0.00000000000E+00 0.  1.
         21   -1    0    0  501  502 -0.00000000000E+00 -0.00000000000E+00 -0.75481620553E+02  0.75481620553E+02  0.00000000000E+00 0.  1.
      99926    2    1    2    0    0  0.00000000000E+00  0.71054273576E-14  0.57205637183E+03  0.72301961293E+03  0.44216384761E+03 0.  0.
      99925    2    3    3    0    0  0.22496117915E+02 -0.44918268137E+02  0.22182136539E+03  0.34773865955E+03  0.26304701305E+03 0.  0.
         25    1    3    3    0    0 -0.22496117915E+02  0.44918268137E+02  0.35023500644E+03  0.37528095338E+03  0.12509000000E+03 0.  0.
         25    1    4    4    0    0 -0.73334226357E+01 -0.55181464574E+02  0.93619446330E+02  0.16586404659E+03  0.12509000000E+03 0.  0.
         25    1    4    4    0    0  0.29829540550E+02  0.10263196438E+02  0.12820191906E+03  0.18187461296E+03  0.12509000000E+03 0.  0.
<mgrwt>
<rscale>  2 0.44216385E+03</rscale>
<asrwt>0</asrwt>
<pdfrwt beam="1">  1       21 0.95226172E-01 0.44216385E+03</pdfrwt>
<pdfrwt beam="2">  1       21 0.11100239E-01 0.44216385E+03</pdfrwt>
<totfact> 0.57233769E+04</totfact>
</mgrwt>
</event>
<event>
 7    0  0.4788920E-002  0.4528978E+03  0.7546771E-02  0.1026861E+00
         21   -1    0    0  502  501  0.00000000000E+00  0.00000000000E+00  0.14991935429E+03  0.14991935429E+03  0.00000000000E+00 0.  1.
         21   -1    0    0  501  502 -0.00000000000E+00 -0.00000000000E+00 -0.34204458918E+03  0.34204458918E+03  0.00000000000E+00 0.  1.
      99926    2    1    2    0    0  0.00000000000E+00 -0.88817841970E-15 -0.19212523489E+03  0.49196394347E+03  0.45289779840E+03 0.  0.
      99925    2    3    3    0    0  0.15896914569E+02  0.20069263706E+01 -0.24077738301E+03  0.35679264747E+03  0.26281268134E+03 0.  0.
         25    1    4    4    0    0  0.42255528464E+00  0.10005287485E+02 -0.17221245455E+03  0.21308430710E+03  0.12509000000E+03 0.  0.
         25    1    4    4    0    0  0.15474359284E+02 -0.79983611146E+01 -0.68564928459E+02  0.14370834036E+03  0.12509000000E+03 0.  0.
         25    1    3    3    0    0 -0.15896914569E+02 -0.20069263706E+01  0.48652148120E+02  0.13517129600E+03  0.12509000000E+03 0.  0.
<mgrwt>
<rscale>  2 0.45289780E+03</rscale>
<asrwt>0</asrwt>
<pdfrwt beam="1">  1       21 0.22046964E-01 0.45289780E+03</pdfrwt>
<pdfrwt beam="2">  1       21 0.50300673E-01 0.45289780E+03</pdfrwt>
<totfact> 0.66949317E+04</totfact>
</mgrwt>
</event>
<event>
 7    0  0.4788920E-002  0.4516740E+03  0.7546771E-02  0.1027224E+00
         21   -1    0    0  502  501  0.00000000000E+00  0.00000000000E+00  0.19054226233E+03  0.19054226233E+03  0.00000000000E+00 0. -1.
         21   -1    0    0  501  502 -0.00000000000E+00 -0.00000000000E+00 -0.26766943834E+03  0.26766943834E+03  0.00000000000E+00 0. -1.
      99926    2    1    2    0    0  0.00000000000E+00  0.00000000000E+00 -0.77127176016E+02  0.45821170067E+03  0.45167395470E+03 0.  0.
      99925    2    3    3    0    0  0.22520213043E+02  0.10556159637E+03 -0.66902326954E+02  0.29267479765E+03  0.26368960010E+03 0.  0.
         25    1    3    3    0    0 -0.22520213043E+02 -0.10556159637E+03 -0.10224849063E+02  0.16553690302E+03  0.12509000000E+03 0.  0.
         25    1    4    4    0    0  0.11746474063E+02  0.67985230175E+02 -0.75044513959E+02  0.16136653417E+03  0.12509000000E+03 0.  0.
         25    1    4    4    0    0  0.10773738980E+02  0.37576366198E+02  0.81421870056E+01  0.13130826348E+03  0.12509000000E+03 0.  0.
<mgrwt>
<rscale>  2 0.45167395E+03</rscale>
<asrwt>0</asrwt>
<pdfrwt beam="1">  1       21 0.28020921E-01 0.45167395E+03</pdfrwt>
<pdfrwt beam="2">  1       21 0.39363153E-01 0.45167395E+03</pdfrwt>
<totfact> 0.70153283E+04</totfact>
</mgrwt>
</event>
<event>
 7    0  0.4788920E-002  0.4678341E+03  0.7546771E-02  0.1022533E+00
         21   -1    0    0  502  501  0.00000000000E+00  0.00000000000E+00  0.51584103006E+02  0.51584103006E+02  0.00000000000E+00 0.  1.
         21   -1    0    0  501  502 -0.00000000000E+00 -0.00000000000E+00 -0.10607374672E+04  0.10607374672E+04  0.00000000000E+00 0.  1.
      99926    2    1    2    0    0  0.71054273576E-14  0.14210854715E-13 -0.10091533642E+04  0.11123215702E+04  0.46783411919E+03 0.  0.
      99925    2    3    3    0    0  0.44101717572E+02  0.11673055371E+03 -0.60493605237E+03  0.67117519207E+03  0.26259765294E+03 0.  0.
         25    1    3    3    0    0 -0.44101717572E+02 -0.11673055371E+03 -0.40421731180E+03  0.44114637811E+03  0.12509000000E+03 0.  0.
         25    1    4    4    0    0  0.44290513888E+02  0.32317743178E+02 -0.33772100941E+03  0.36429256709E+03  0.12509000000E+03 0.  0.
         25    1    4    4    0    0 -0.18879631587E+00  0.84412810535E+02 -0.26721504296E+03  0.30688262498E+03  0.12509000000E+03 0.  0.
<mgrwt>
<rscale>  2 0.46783412E+03</rscale>
<asrwt>0</asrwt>
<pdfrwt beam="1">  1       21 0.75858979E-02 0.46783412E+03</pdfrwt>
<pdfrwt beam="2">  1       21 0.15599080E+00 0.46783412E+03</pdfrwt>
<totfact> 0.31765738E+04</totfact>
</mgrwt>
</event>
<event>
 7    0  0.4788920E-002  0.4881645E+03  0.7546771E-02  0.1016915E+00
         21   -1    0    0  502  501  0.00000000000E+00  0.00000000000E+00  0.12081029642E+04  0.12081029642E+04  0.00000000000E+00 0. -1.
         21   -1    0    0  501  502 -0.00000000000E+00 -0.00000000000E+00 -0.49313792502E+02  0.49313792502E+02  0.00000000000E+00 0. -1.
      99926    2    1    2    0    0  0.35527136788E-14 -0.14210854715E-13  0.11587891717E+04  0.12574167567E+04  0.48816447595E+03 0.  0.
      99925    2    3    3    0    0 -0.26062644710E+02 -0.11392208989E+03  0.91754788416E+03  0.96160875997E+03  0.26294444946E+03 0.  0.
         25    1    4    4    0    0 -0.89306579466E+01 -0.96821735462E+02  0.56274511533E+03  0.58462276558E+03  0.12509000000E+03 0.  0.
         25    1    3    3    0    0  0.26062644710E+02  0.11392208989E+03  0.24124128749E+03  0.29580799669E+03  0.12509000000E+03 0.  0.
         25    1    4    4    0    0 -0.17131986763E+02 -0.17100354430E+02  0.35480276883E+03  0.37698599439E+03  0.12509000000E+03 0.  0.
<mgrwt>
<rscale>  2 0.48816448E+03</rscale>
<asrwt>0</asrwt>
<pdfrwt beam="1">  1       21 0.17766218E+00 0.48816448E+03</pdfrwt>
<pdfrwt beam="2">  1       21 0.72520290E-02 0.48816448E+03</pdfrwt>
<totfact> 0.23654464E+04</totfact>
</mgrwt>
</event>
<event>
 7    0  0.4788920E-002  0.4480429E+03  0.7546771E-02  0.1028307E+00
         21   -1    0    0  502  501  0.00000000000E+00  0.00000000000E+00  0.72353231343E+03  0.72353231343E+03  0.00000000000E+00 0.  1.
         21   -1    0    0  501  502 -0.00000000000E+00 -0.00000000000E+00 -0.69361936509E+02  0.69361936509E+02  0.00000000000E+00 0.  1.
      99926    2    1    2    0    0  0.00000000000E+00  0.00000000000E+00  0.65417037692E+03  0.79289424994E+03  0.44804286574E+03 0.  0.
      99925    2    3    3    0    0  0.25594142164E+02  0.65573672217E+02  0.55526774182E+03  0.61858359068E+03  0.26337886580E+03 0.  0.
         25    1    4    4    0    0  0.12822594792E+02  0.42513137489E+02  0.19148808716E+03  0.23299566824E+03  0.12509000000E+03 0.  0.
         25    1    3    3    0    0 -0.25594142164E+02 -0.65573672217E+02  0.98902635103E+02  0.17431065926E+03  0.12509000000E+03 0.  0.
         25    1    4    4    0    0  0.12771547372E+02  0.23060534728E+02  0.36377965466E+03  0.38558792243E+03  0.12509000000E+03 0.  0.
<mgrwt>
<rscale>  2 0.44804287E+03</rscale>
<asrwt>0</asrwt>
<pdfrwt beam="1">  1       21 0.10640181E+00 0.44804287E+03</pdfrwt>
<pdfrwt beam="2">  1       21 0.10200285E-01 0.44804287E+03</pdfrwt>
<totfact> 0.50829512E+04</totfact>
</mgrwt>
</event>
<event>
 7    0  0.4788920E-002  0.4502800E+03  0.7546771E-02  0.1027639E+00
         21   -1    0    0  502  501  0.00000000000E+00  0.00000000000E+00  0.65015156348E+02  0.65015156348E+02  0.00000000000E+00 0. -1.
         21   -1    0    0  501  502 -0.00000000000E+00 -0.00000000000E+00 -0.77963394770E+03  0.77963394770E+03  0.00000000000E+00 0. -1.
      99926    2    1    2    0    0  0.00000000000E+00  0.00000000000E+00 -0.71461879135E+03  0.84464910405E+03  0.45028001512E+03 0.  0.
      99925    2    3    3    0    0 -0.98919001954E+02 -0.42282694989E+02 -0.47724402112E+03  0.55556938340E+03  0.26329202198E+03 0.  0.
         25    1    3    3    0    0  0.98919001954E+02  0.42282694989E+02 -0.23737477023E+03  0.28907972064E+03  0.12509000000E+03 0.  0.
         25    1    4    4    0    0 -0.88165536364E+02 -0.15627762288E+02 -0.22519790890E+03  0.27272512724E+03  0.12509000000E+03 0.  0.
         25    1    4    4    0    0 -0.10753465590E+02 -0.26654932701E+02 -0.25204611222E+03  0.28284425616E+03  0.12509000000E+03 0.  0.
<mgrwt>
<rscale>  2 0.45028002E+03</rscale>
<asrwt>0</asrwt>
<pdfrwt beam="1">  1       21 0.95610523E-02 0.45028002E+03</pdfrwt>
<pdfrwt beam="2">  1       21 0.11465205E+00 0.45028002E+03</pdfrwt>
<totfact> 0.47411000E+04</totfact>
</mgrwt>
</event>
<event>
 7    0  0.4788920E-002  0.4581249E+03  0.7546771E-02  0.1025326E+00
         21   -1    0    0  502  501  0.00000000000E+00  0.00000000000E+00  0.74330778332E+02  0.74330778332E+02  0.00000000000E+00 0. -1.
         21   -1    0    0  501  502 -0.00000000000E+00 -0.00000000000E+00 -0.70589329184E+03  0.70589329184E+03  0.00000000000E+00 0. -1.
      99926    2    1    2    0    0  0.00000000000E+00  0.00000000000E+00 -0.63156251351E+03  0.78022407017E+03  0.45812486421E+03 0.  0.
      99925    2    3    3    0    0  0.21054146476E+02  0.77238542973E+02 -0.53956674051E+03  0.60552490030E+03  0.26290505476E+03 0.  0.
         25    1    3    3    0    0 -0.21054146476E+02 -0.77238542973E+02 -0.91995773004E+02  0.17469916987E+03  0.12509000000E+03 0.  0.
         25    1    4    4    0    0  0.87191410227E+01  0.37203360204E+02 -0.17984938151E+03  0.22238125272E+03  0.12509000000E+03 0.  0.
         25    1    4    4    0    0  0.12335005454E+02  0.40035182770E+02 -0.35971735900E+03  0.38314364758E+03  0.12509000000E+03 0.  0.
<mgrwt>
<rscale>  2 0.45812486E+03</rscale>
<asrwt>0</asrwt>
<pdfrwt beam="1">  1       21 0.10930997E-01 0.45812486E+03</pdfrwt>
<pdfrwt beam="2">  1       21 0.10380783E+00 0.45812486E+03</pdfrwt>
<totfact> 0.47558987E+04</totfact>
</mgrwt>
</event>
<event>
 7    0  0.4788920E-002  0.4587005E+03  0.7546771E-02  0.1025159E+00
         21   -1    0    0  502  501  0.00000000000E+00  0.00000000000E+00  0.62803643553E+03  0.62803643553E+03  0.00000000000E+00 0. -1.
         21   -1    0    0  501  502 -0.00000000000E+00 -0.00000000000E+00 -0.83755561448E+02  0.83755561448E+02  0.00000000000E+00 0. -1.
      99926    2    1    2    0    0 -0.28421709430E-13 -0.35527136788E-14  0.54428087409E+03  0.71179199698E+03  0.45870053093E+03 0.  0.
      99925    2    3    3    0    0 -0.11105784693E+03 -0.31552669903E+02  0.31593883776E+03  0.42698151614E+03  0.26299515125E+03 0.  0.
         25    1    3    3    0    0  0.11105784693E+03  0.31552669903E+02  0.22834203633E+03  0.28481048084E+03  0.12509000000E+03 0.  0.
         25    1    4    4    0    0 -0.94539599618E+02 -0.44537026650E+01  0.19344709856E+03  0.24905192110E+03  0.12509000000E+03 0.  0.
         25    1    4    4    0    0 -0.16518247308E+02 -0.27098967238E+02  0.12249173920E+03  0.17792959504E+03  0.12509000000E+03 0.  0.
<mgrwt>
<rscale>  2 0.45870053E+03</rscale>
<asrwt>0</asrwt>
<pdfrwt beam="1">  1       21 0.92358297E-01 0.45870053E+03</pdfrwt>
<pdfrwt beam="2">  1       21 0.12316995E-01 0.45870053E+03</pdfrwt>
<totfact> 0.50773015E+04</totfact>
</mgrwt>
</event>
<event>
 7    0  0.4788920E-002  0.4533781E+03  0.7546771E-02  0.1026719E+00
         21   -1    0    0  502  501  0.00000000000E+00  0.00000000000E+00  0.60667008227E+03  0.60667008227E+03  0.00000000000E+00 0. -1.
         21   -1    0    0  501  502 -0.00000000000E+00 -0.00000000000E+00 -0.84704894565E+02  0.84704894565E+02  0.00000000000E+00 0. -1.
      99926    2    1    2    0    0  0.00000000000E+00 -0.71054273576E-14  0.52196518770E+03  0.69137497684E+03  0.45337809984E+03 0.  0.
      99925    2    3    3    0    0  0.82496881521E+02 -0.51416565892E+02  0.41260031646E+03  0.49887151746E+03  0.26302922097E+03 0.  0.
         25    1    4    4    0    0  0.79525041661E+02 -0.45240834833E+02  0.21974586408E+03  0.26889908566E+03  0.12509000000E+03 0.  0.
         25    1    3    3    0    0 -0.82496881521E+02  0.51416565892E+02  0.10936487124E+03  0.19250345937E+03  0.12509000000E+03 0.  0.
         25    1    4    4    0    0  0.29718398603E+01 -0.61757310593E+01  0.19285445238E+03  0.22997243180E+03  0.12509000000E+03 0.  0.
<mgrwt>
<rscale>  2 0.45337810E+03</rscale>
<asrwt>0</asrwt>
<pdfrwt beam="1">  1       21 0.89216187E-01 0.45337810E+03</pdfrwt>
<pdfrwt beam="2">  1       21 0.12456602E-01 0.45337810E+03</pdfrwt>
<totfact> 0.54060719E+04</totfact>
</mgrwt>
</event>
<event>
 6    0  0.4788920E-002  0.4535587E+03  0.7546771E-02  0.1026666E+00
         21   -1    0    0  502  501  0.00000000000E+00  0.00000000000E+00  0.58015662211E+03  0.58015662211E+03  0.00000000000E+00 0. -1.
         21   -1    0    0  501  502 -0.00000000000E+00 -0.00000000000E+00 -0.88646544387E+02  0.88646544387E+02  0.00000000000E+00 0. -1.
      99926    2    1    2    0    0  0.00000000000E+00  0.14210854715E-13  0.49151007773E+03  0.66880316650E+03  0.45355872720E+03 0.  0.
         25    1    3    3    0    0 -0.42911636199E+02  0.11225259140E+02  0.13559758360E+03  0.18974094904E+03  0.12509000000E+03 0.  0.
         25    1    3    3    0    0 -0.49785530086E+01  0.80762866309E+02  0.22758006297E+03  0.27200665383E+03  0.12509000000E+03 0.  0.
         25    1    3    3    0    0  0.47890189208E+02 -0.91988125450E+02  0.12833243115E+03  0.20705556363E+03  0.12509000000E+03 0.  0.
<mgrwt>
<rscale>  2 0.45355873E+03</rscale>
<asrwt>0</asrwt>
<pdfrwt beam="1">  1       21 0.85317148E-01 0.45355873E+03</pdfrwt>
<pdfrwt beam="2">  1       21 0.13036257E-01 0.45355873E+03</pdfrwt>
<totfact> 0.55254824E+04</totfact>
</mgrwt>
</event>
<event>
 7    0  0.4788920E-002  0.4683942E+03  0.7546771E-02  0.1022374E+00
         21   -1    0    0  502  501  0.00000000000E+00  0.00000000000E+00  0.36004606510E+03  0.36004606510E+03  0.00000000000E+00 0.  1.
         21   -1    0    0  501  502 -0.00000000000E+00 -0.00000000000E+00 -0.15233686065E+03  0.15233686065E+03  0.00000000000E+00 0.  1.
      99926    2    1    2    0    0  0.00000000000E+00  0.00000000000E+00  0.20770920445E+03  0.51238292576E+03  0.46839422391E+03 0.  0.
      99925    2    3    3    0    0  0.11833263795E+03 -0.37301545256E+02  0.14583439452E+03  0.32564776922E+03  0.26340990963E+03 0.  0.
         25    1    4    4    0    0  0.56156514455E+02  0.14205120193E+02  0.98482145841E+02  0.16941540870E+03  0.12509000000E+03 0.  0.
         25    1    3    3    0    0 -0.11833263795E+03  0.37301545256E+02  0.61874809935E+02  0.18673515654E+03  0.12509000000E+03 0.  0.
         25    1    4    4    0    0  0.62176123495E+02 -0.51506665449E+02  0.47352248675E+02  0.15623236052E+03  0.12509000000E+03 0.  0.
<mgrwt>
<rscale>  2 0.46839422E+03</rscale>
<asrwt>0</asrwt>
<pdfrwt beam="1">  1       21 0.52947951E-01 0.46839422E+03</pdfrwt>
<pdfrwt beam="2">  1       21 0.22402479E-01 0.46839422E+03</pdfrwt>
<totfact> 0.57994012E+04</totfact>
</mgrwt>
</event>
<event>
 7    0  0.4788920E-002  0.4553117E+03  0.7546771E-02  0.1026150E+00
         21   -1    0    0  502  501  0.00000000000E+00  0.00000000000E+00  0.49614660602E+03  0.49614660602E+03  0.00000000000E+00 0. -1.
         21   -1    0    0  501  502 -0.00000000000E+00 -0.00000000000E+00 -0.10445939730E+03  0.10445939730E+03  0.00000000000E+00 0. -1.
      99926    2    1    2    0    0 -0.17763568394E-14  0.00000000000E+00  0.39168720872E+03  0.60060600332E+03  0.45531165342E+03 0.  0.
      99925    2    3    3    0    0 -0.55707186298E+01 -0.10424969724E+03  0.30513602769E+03  0.41611305679E+03  0.26295065764E+03 0.  0.
         25    1    4    4    0    0 -0.27440768250E+02 -0.21290284765E+02  0.12014702959E+03  0.17688722059E+03  0.12509000000E+03 0.  0.
         25    1    3    3    0    0  0.55707186298E+01  0.10424969724E+03  0.86551181035E+02  0.18449294653E+03  0.12509000000E+03 0.  0.
         25    1    4    4    0    0  0.21870049621E+02 -0.82959412474E+02  0.18498899810E+03  0.23922583620E+03  0.12509000000E+03 0.  0.
<mgrwt>
<rscale>  2 0.45531165E+03</rscale>
<asrwt>0</asrwt>
<pdfrwt beam="1">  1       21 0.72962735E-01 0.45531165E+03</pdfrwt>
<pdfrwt beam="2">  1       21 0.15361676E-01 0.45531165E+03</pdfrwt>
<totfact> 0.58496806E+04</totfact>
</mgrwt>
</event>
<event>
 7    0  0.4788920E-002  0.4149657E+03  0.7546771E-02  0.1038717E+00
         21   -1    0    0  502  501  0.00000000000E+00  0.00000000000E+00  0.57589831618E+02  0.57589831618E+02  0.00000000000E+00 0. -1.
         21   -1    0    0  501  502 -0.00000000000E+00 -0.00000000000E+00 -0.74751277285E+03  0.74751277285E+03  0.00000000000E+00 0. -1.
      99926    2    1    2    0    0 -0.71054273576E-14  0.00000000000E+00 -0.68992294123E+03  0.80510260446E+03  0.41496570808E+03 0.  0.
      99925    2    3    3    0    0 -0.39678313648E+02 -0.55438167706E+02 -0.47437536045E+03  0.54673072772E+03  0.26312496465E+03 0.  0.
         25    1    4    4    0    0 -0.24378338040E+02 -0.68216108111E+02 -0.23474898894E+03  0.27568521302E+03  0.12509000000E+03 0.  0.
         25    1    4    4    0    0 -0.15299975608E+02  0.12777940405E+02 -0.23962637151E+03  0.27104551470E+03  0.12509000000E+03 0.  0.
         25    1    3    3    0    0  0.39678313648E+02  0.55438167706E+02 -0.21554758078E+03  0.25837187674E+03  0.12509000000E+03 0.  0.
<mgrwt>
<rscale>  2 0.41496571E+03</rscale>
<asrwt>0</asrwt>
<pdfrwt beam="1">  1       21 0.84690928E-02 0.41496571E+03</pdfrwt>
<pdfrwt beam="2">  1       21 0.10992835E+00 0.41496571E+03</pdfrwt>
<totfact> 0.65910751E+04</totfact>
</mgrwt>
</event>
<event>
 7    0  0.4788920E-002  0.4497260E+03  0.7546771E-02  0.1027804E+00
         21   -1    0    0  502  501  0.00000000000E+00  0.00000000000E+00  0.32893225451E+03  0.32893225451E+03  0.00000000000E+00 0. -1.
         21   -1    0    0  501  502 -0.00000000000E+00 -0.00000000000E+00 -0.15371968898E+03  0.15371968898E+03  0.00000000000E+00 0. -1.
      99926    2    1    2    0    0  0.00000000000E+00  0.00000000000E+00  0.17521256553E+03  0.48265194349E+03  0.44972597816E+03 0.  0.
      99925    2    3    3    0    0 -0.52176537567E+02  0.24590908512E+02  0.12393907247E+02  0.26938092474E+03  0.26284095918E+03 0.  0.
         25    1    3    3    0    0  0.52176537567E+02 -0.24590908512E+02  0.16281865829E+03  0.21327101875E+03  0.12509000000E+03 0.  0.
         25    1    4    4    0    0 -0.14871702043E+02  0.47783416770E+02  0.21747025415E+02  0.13647294111E+03  0.12509000000E+03 0.  0.
         25    1    4    4    0    0 -0.37304835524E+02 -0.23192508258E+02 -0.93531181675E+01  0.13290798363E+03  0.12509000000E+03 0.  0.
<mgrwt>
<rscale>  2 0.44972598E+03</rscale>
<asrwt>0</asrwt>
<pdfrwt beam="1">  1       21 0.48372390E-01 0.44972598E+03</pdfrwt>
<pdfrwt beam="2">  1       21 0.22605837E-01 0.44972598E+03</pdfrwt>
<totfact> 0.69366587E+04</totfact>
</mgrwt>
</event>
<event>
 7    0  0.4788920E-002  0.4497661E+03  0.7546771E-02  0.1027792E+00
         21   -1    0    0  502  501  0.00000000000E+00  0.00000000000E+00  0.20427378774E+03  0.20427378774E+03  0.00000000000E+00 0.  1.
         21   -1    0    0  501  502 -0.00000000000E+00 -0.00000000000E+00 -0.24757163465E+03  0.24757163465E+03  0.00000000000E+00 0.  1.
      99926    2    1    2    0    0  0.35527136788E-14  0.00000000000E+00 -0.43297846913E+02  0.45184542239E+03  0.44976614166E+03 0.  0.
      99925    2    3    3    0    0 -0.15099375441E+02  0.36336651494E+02  0.73844159747E+02  0.27600998454E+03  0.26302130761E+03 0.  0.
         25    1    4    4    0    0 -0.31688119658E+02  0.45417233990E+02  0.57705803761E+02  0.14847333080E+03  0.12509000000E+03 0.  0.
         25    1    4    4    0    0  0.16588744217E+02 -0.90805824957E+01  0.16138355986E+02  0.12753665374E+03  0.12509000000E+03 0.  0.
         25    1    3    3    0    0  0.15099375441E+02 -0.36336651494E+02 -0.11714200666E+03  0.17583543785E+03  0.12509000000E+03 0.  0.
<mgrwt>
<rscale>  2 0.44976614E+03</rscale>
<asrwt>0</asrwt>
<pdfrwt beam="1">  1       21 0.30040263E-01 0.44976614E+03</pdfrwt>
<pdfrwt beam="2">  1       21 0.36407593E-01 0.44976614E+03</pdfrwt>
<totfact> 0.71726247E+04</totfact>
</mgrwt>
</event>
<event>
 7    0  0.4788920E-002  0.4551512E+03  0.7546771E-02  0.1026197E+00
         21   -1    0    0  502  501  0.00000000000E+00  0.00000000000E+00  0.52467016912E+03  0.52467016912E+03  0.00000000000E+00 0. -1.
         21   -1    0    0  501  502 -0.00000000000E+00 -0.00000000000E+00 -0.98710894533E+02  0.98710894533E+02  0.00000000000E+00 0. -1.
      99926    2    1    2    0    0 -0.71054273576E-14  0.00000000000E+00  0.42595927459E+03  0.62338106365E+03  0.45515123521E+03 0.  0.
      99925    2    3    3    0    0 -0.34341927341E+02 -0.70284066607E+02  0.15691928753E+03  0.31654358105E+03  0.26354687992E+03 0.  0.
         25    1    4    4    0    0 -0.42666298937E+02 -0.38675482830E+02  0.11847445356E+03  0.18165877431E+03  0.12509000000E+03 0.  0.
         25    1    3    3    0    0  0.34341927341E+02  0.70284066607E+02  0.26903998706E+03  0.30683748260E+03  0.12509000000E+03 0.  0.
         25    1    4    4    0    0  0.83243715959E+01 -0.31608583777E+02  0.38444833964E+02  0.13488480674E+03  0.12509000000E+03 0.  0.
<mgrwt>
<rscale>  2 0.45515124E+03</rscale>
<asrwt>0</asrwt>
<pdfrwt beam="1">  1       21 0.77157377E-01 0.45515124E+03</pdfrwt>
<pdfrwt beam="2">  1       21 0.14516308E-01 0.45515124E+03</pdfrwt>
<totfact> 0.57193372E+04</totfact>
</mgrwt>
</event>
<event>
 7    0  0.4788920E-002  0.4539993E+03  0.7546771E-02  0.1026536E+00
         21   -1    0    0  502  501  0.00000000000E+00  0.00000000000E+00  0.18994804315E+03  0.18994804315E+03  0.00000000000E+00 0. -1.
         21   -1    0    0  501  502 -0.00000000000E+00 -0.00000000000E+00 -0.27127855639E+03  0.27127855639E+03  0.00000000000E+00 0. -1.
      99926    2    1    2    0    0  0.00000000000E+00  0.00000000000E+00 -0.81330513236E+02  0.46122659954E+03  0.45399925522E+03 0.  0.
      99925    2    3    3    0    0  0.91961826188E+02 -0.51111595620E+02 -0.90867168493E+02  0.29749563553E+03  0.26301604165E+03 0.  0.
         25    1    4    4    0    0  0.76676498471E+02 -0.53689711179E+02 -0.62655231794E+02  0.16833020132E+03  0.12509000000E+03 0.  0.
         25    1    3    3    0    0 -0.91961826188E+02  0.51111595620E+02  0.95366552565E+01  0.16373096401E+03  0.12509000000E+03 0.  0.
         25    1    4    4    0    0  0.15285327717E+02  0.25781155586E+01 -0.28211936699E+02  0.12916543421E+03  0.12509000000E+03 0.  0.
<mgrwt>
<rscale>  2 0.45399926E+03</rscale>
<asrwt>0</asrwt>
<pdfrwt beam="1">  1       21 0.27933536E-01 0.45399926E+03</pdfrwt>
<pdfrwt beam="2">  1       21 0.39893905E-01 0.45399926E+03</pdfrwt>
<totfact> 0.68635533E+04</totfact>
</mgrwt>
</event>
<event>
 7    0  0.4788920E-002  0.4550033E+03  0.7546771E-02  0.1026240E+00
         21   -1    0    0  502  501  0.00000000000E+00  0.00000000000E+00  0.43874450667E+03  0.43874450667E+03  0.00000000000E+00 0.  1.
         21   -1    0    0  501  502 -0.00000000000E+00 -0.00000000000E+00 -0.11796615122E+03  0.11796615122E+03  0.00000000000E+00 0.  1.
      99926    2    1    2    0    0  0.71054273576E-14  0.00000000000E+00  0.32077835546E+03  0.55671065789E+03  0.45500330029E+03 0.  0.
      99925    2    3    3    0    0  0.61600706768E+02 -0.74774916817E+02  0.27346755184E+03  0.39156903534E+03  0.26297504115E+03 0.  0.
         25    1    3    3    0    0 -0.61600706768E+02  0.74774916817E+02  0.47310803617E+02  0.16514162255E+03  0.12509000000E+03 0.  0.
         25    1    4    4    0    0  0.43114945109E+02 -0.66119575534E+02  0.18567327896E+03  0.23738738673E+03  0.12509000000E+03 0.  0.
         25    1    4    4    0    0  0.18485761659E+02 -0.86553412829E+01  0.87794272885E+02  0.15418164861E+03  0.12509000000E+03 0.  0.
<mgrwt>
<rscale>  2 0.45500330E+03</rscale>
<asrwt>0</asrwt>
<pdfrwt beam="1">  1       21 0.64521250E-01 0.45500330E+03</pdfrwt>
<pdfrwt beam="2">  1       21 0.17347964E-01 0.45500330E+03</pdfrwt>
<totfact> 0.61423629E+04</totfact>
</mgrwt>
</event>
<event>
 7    0  0.4788920E-002  0.4397981E+03  0.7546771E-02  0.1030809E+00
         21   -1    0    0  502  501  0.00000000000E+00  0.00000000000E+00  0.66385679170E+03  0.66385679170E+03  0.00000000000E+00 0.  1.
         21   -1    0    0  501  502 -0.00000000000E+00 -0.00000000000E+00 -0.72840410621E+02  0.72840410621E+02  0.00000000000E+00 0.  1.
      99926    2    1    2    0    0 -0.17763568394E-14  0.00000000000E+00  0.59101638108E+03  0.73669720232E+03  0.43979814143E+03 0.  0.
      99925    2    3    3    0    0 -0.10729915328E+02  0.53017588438E+02  0.23943778943E+03  0.35962822989E+03  0.26282315910E+03 0.  0.
         25    1    3    3    0    0  0.10729915328E+02 -0.53017588438E+02  0.35157859165E+03  0.37706897244E+03  0.12509000000E+03 0.  0.
         25    1    4    4    0    0 -0.44471807086E+02  0.36087969947E+02  0.12751041771E+03  0.18758064379E+03  0.12509000000E+03 0.  0.
         25    1    4    4    0    0  0.33741891758E+02  0.16929618490E+02  0.11192737172E+03  0.17204758610E+03  0.12509000000E+03 0.  0.
<mgrwt>
<rscale>  2 0.43979814E+03</rscale>
<asrwt>0</asrwt>
<pdfrwt beam="1">  1       21 0.97625996E-01 0.43979814E+03</pdfrwt>
<pdfrwt beam="2">  1       21 0.10711825E-01 0.43979814E+03</pdfrwt>
<totfact> 0.57528994E+04</totfact>
</mgrwt>
</event>
<event>
 7    0  0.4788920E-002  0.4539435E+03  0.7546771E-02  0.1026553E+00
         21   -1    0    0  502  501  0.00000000000E+00  0.00000000000E+00  0.21749543541E+03  0.21749543541E+03  0.00000000000E+00 0.  1.
         21   -1    0    0  501  502 -0.00000000000E+00 -0.00000000000E+00 -0.23686093086E+03  0.23686093086E+03  0.00000000000E+00 0.  1.
      99926    2    1    2    0    0  0.00000000000E+00  0.35527136788E-14 -0.19365495454E+02  0.45435636627E+03  0.45394348233E+03 0.  0.
      99925    2    3    3    0    0 -0.10271644385E+03  0.22930451055E+02  0.25393969940E+02  0.28486479932E+03  0.26348932950E+03 0.  0.
         25    1    4    4    0    0 -0.24612996190E+02  0.41921773838E+02  0.22974534085E+02  0.13615642482E+03  0.12509000000E+03 0.  0.
         25    1    4    4    0    0 -0.78103447660E+02 -0.18991322784E+02  0.24194358547E+01  0.14870837450E+03  0.12509000000E+03 0.  0.
         25    1    3    3    0    0  0.10271644385E+03 -0.22930451055E+02 -0.44759465394E+02  0.16949156694E+03  0.12509000000E+03 0.  0.
<mgrwt>
<rscale>  2 0.45394348E+03</rscale>
<asrwt>0</asrwt>
<pdfrwt beam="1">  1       21 0.31984623E-01 0.45394348E+03</pdfrwt>
<pdfrwt beam="2">  1       21 0.34832490E-01 0.45394348E+03</pdfrwt>
<totfact> 0.69174283E+04</totfact>
</mgrwt>
</event>
<event>
 7    0  0.4788920E-002  0.4643267E+03  0.7546771E-02  0.1023534E+00
         21   -1    0    0  502  501  0.00000000000E+00  0.00000000000E+00  0.39909463642E+02  0.39909463642E+02  0.00000000000E+00 0. -1.
         21   -1    0    0  501  502 -0.00000000000E+00 -0.00000000000E+00 -0.13505524115E+04  0.13505524115E+04  0.00000000000E+00 0. -1.
      99926    2    1    2    0    0  0.00000000000E+00  0.00000000000E+00 -0.13106429479E+04  0.13904618752E+04  0.46432670552E+03 0.  0.
      99925    2    3    3    0    0  0.57504509751E+02 -0.24055735002E+02 -0.50506282440E+03  0.57284809686E+03  0.26302288580E+03 0.  0.
         25    1    4    4    0    0  0.62327613016E+02 -0.10394238526E+02 -0.21515439888E+03  0.25677167873E+03  0.12509000000E+03 0.  0.
         25    1    3    3    0    0 -0.57504509751E+02  0.24055735002E+02 -0.80558012349E+03  0.81761377831E+03  0.12509000000E+03 0.  0.
         25    1    4    4    0    0 -0.48231032657E+01 -0.13661496476E+02 -0.28990842552E+03  0.31607641813E+03  0.12509000000E+03 0.  0.
<mgrwt>
<rscale>  2 0.46432671E+03</rscale>
<asrwt>0</asrwt>
<pdfrwt beam="1">  1       21 0.58690393E-02 0.46432671E+03</pdfrwt>
<pdfrwt beam="2">  1       21 0.19861063E+00 0.46432671E+03</pdfrwt>
<totfact> 0.24744554E+04</totfact>
</mgrwt>
</event>
<event>
 7    0  0.4788920E-002  0.4548644E+03  0.7546771E-02  0.1026281E+00
         21   -1    0    0  502  501  0.00000000000E+00  0.00000000000E+00  0.53477330243E+03  0.53477330243E+03  0.00000000000E+00 0. -1.
         21   -1    0    0  501  502 -0.00000000000E+00 -0.00000000000E+00 -0.96724001361E+02  0.96724001361E+02  0.00000000000E+00 0. -1.
      99926    2    1    2    0    0  0.00000000000E+00  0.00000000000E+00  0.43804930107E+03  0.63149730379E+03  0.45486443533E+03 0.  0.
      99925    2    3    3    0    0  0.55715728742E+02  0.32312329180E+02  0.14670365635E+03  0.30795731887E+03  0.26299699316E+03 0.  0.
         25    1    4    4    0    0 -0.21715597630E+01  0.14827176179E+02  0.10170228371E+03  0.16191177671E+03  0.12509000000E+03 0.  0.
         25    1    3    3    0    0 -0.55715728742E+02 -0.32312329180E+02  0.29134564472E+03  0.32353998492E+03  0.12509000000E+03 0.  0.
         25    1    4    4    0    0  0.57887288505E+02  0.17485153002E+02  0.45001372645E+02  0.14604554216E+03  0.12509000000E+03 0.  0.
<mgrwt>
<rscale>  2 0.45486444E+03</rscale>
<asrwt>0</asrwt>
<pdfrwt beam="1">  1       21 0.78643131E-01 0.45486444E+03</pdfrwt>
<pdfrwt beam="2">  1       21 0.14224118E-01 0.45486444E+03</pdfrwt>
<totfact> 0.56841028E+04</totfact>
</mgrwt>
</event>
<event>
 7    0  0.4788920E-002  0.4544218E+03  0.7546771E-02  0.1026412E+00
         21   -1    0    0  502  501  0.00000000000E+00  0.00000000000E+00  0.76458575745E+03  0.76458575745E+03  0.00000000000E+00 0.  1.
         21   -1    0    0  501  502 -0.00000000000E+00 -0.00000000000E+00 -0.67519964125E+02  0.67519964125E+02  0.00000000000E+00 0.  1.
      99926    2    1    2    0    0  0.00000000000E+00  0.00000000000E+00  0.69706579333E+03  0.83210572158E+03  0.45442184328E+03 0.  0.
      99925    2    3    3    0    0 -0.96939008842E+02  0.48351802860E+02  0.49626699919E+03  0.57190823484E+03  0.26279845190E+03 0.  0.
         25    1    4    4    0    0 -0.18915774926E+02  0.51934238969E+02  0.23529682914E+03  0.27215267337E+03  0.12509000000E+03 0.  0.
         25    1    3    3    0    0  0.96939008842E+02 -0.48351802860E+02  0.20079879414E+03  0.26019748674E+03  0.12509000000E+03 0.  0.
         25    1    4    4    0    0 -0.78023233916E+02 -0.35824361093E+01  0.26097017004E+03  0.29975556147E+03  0.12509000000E+03 0.  0.
<mgrwt>
<rscale>  2 0.45442184E+03</rscale>
<asrwt>0</asrwt>
<pdfrwt beam="1">  1       21 0.11243908E+00 0.45442184E+03</pdfrwt>
<pdfrwt beam="2">  1       21 0.99294070E-02 0.45442184E+03</pdfrwt>
<totfact> 0.46461167E+04</totfact>
</mgrwt>
</event>
<event>
 7    0  0.4788920E-002  0.4490569E+03  0.7546771E-02  0.1028004E+00
         21   -1    0    0  502  501  0.00000000000E+00  0.00000000000E+00  0.39303585055E+03  0.39303585055E+03  0.00000000000E+00 0.  1.
         21   -1    0    0  501  502 -0.00000000000E+00 -0.00000000000E+00 -0.12826573284E+03  0.12826573284E+03  0.00000000000E+00 0.  1.
      99926    2    1    2    0    0 -0.71054273576E-14  0.28449465006E-15  0.26477011771E+03  0.52130158339E+03  0.44905692915E+03 0.  0.
      99925    2    3    3    0    0 -0.46636307345E+02 -0.44632403842E-01  0.27980840770E+03  0.38695648515E+03  0.26318744124E+03 0.  0.
         25    1    4    4    0    0  0.16021419055E+02  0.25675352196E+01  0.11427988600E+03  0.17020775114E+03  0.12509000000E+03 0.  0.
         25    1    3    3    0    0  0.46636307345E+02  0.44632403842E-01 -0.15038289995E+02  0.13434509824E+03  0.12509000000E+03 0.  0.
         25    1    4    4    0    0 -0.62657726400E+02 -0.26121676234E+01  0.16552852170E+03  0.21674873401E+03  0.12509000000E+03 0.  0.
<mgrwt>
<rscale>  2 0.44905693E+03</rscale>
<asrwt>0</asrwt>
<pdfrwt beam="1">  1       21 0.57799390E-01 0.44905693E+03</pdfrwt>
<pdfrwt beam="2">  1       21 0.18862608E-01 0.44905693E+03</pdfrwt>
<totfact> 0.66895686E+04</totfact>
</mgrwt>
</event>
<event>
 7    0  0.4788920E-002  0.4521721E+03  0.7546771E-02  0.1027076E+00
         21   -1    0    0  502  501  0.00000000000E+00  0.00000000000E+00  0.36121720823E+03  0.36121720823E+03  0.00000000000E+00 0.  1.
         21   -1    0    0  501  502 -0.00000000000E+00 -0.00000000000E+00 -0.14150736503E+03  0.14150736503E+03  0.00000000000E+00 0.  1.
      99926    2    1    2    0    0  0.00000000000E+00  0.00000000000E+00  0.21970984320E+03  0.50272457326E+03  0.45217207052E+03 0.  0.
      99925    2    3    3    0    0  0.35458212366E+02 -0.10278876426E+03  0.16701987070E+03  0.32880920250E+03  0.26152827679E+03 0.  0.
         25    1    4    4    0    0 -0.13630354494E+02 -0.61802592120E+02  0.61394494874E+02  0.15304293207E+03  0.12509000000E+03 0.  0.
         25    1    4    4    0    0  0.49088566860E+02 -0.40986172139E+02  0.10562537582E+03  0.17576627043E+03  0.12509000000E+03 0.  0.
         25    1    3    3    0    0 -0.35458212366E+02  0.10278876426E+03  0.52689972504E+02  0.17391537075E+03  0.12509000000E+03 0.  0.
<mgrwt>
<rscale>  2 0.45217207E+03</rscale>
<asrwt>0</asrwt>
<pdfrwt beam="1">  1       21 0.53120177E-01 0.45217207E+03</pdfrwt>
<pdfrwt beam="2">  1       21 0.20809907E-01 0.45217207E+03</pdfrwt>
<totfact> 0.66561234E+04</totfact>
</mgrwt>
</event>
<event>
 7    0  0.4788920E-002  0.4354701E+03  0.7546771E-02  0.1032146E+00
         21   -1    0    0  502  501  0.00000000000E+00  0.00000000000E+00  0.80787144046E+03  0.80787144046E+03  0.00000000000E+00 0. -1.
         21   -1    0    0  501  502 -0.00000000000E+00 -0.00000000000E+00 -0.58683297206E+02  0.58683297206E+02  0.00000000000E+00 0. -1.
      99926    2    1    2    0    0  0.00000000000E+00  0.35527136788E-14  0.74918814326E+03  0.86655473767E+03  0.43547013604E+03 0.  0.
      99925    2    3    3    0    0  0.28278835635E+02  0.29975868658E+02  0.64778534823E+03  0.70033716884E+03  0.26296016321E+03 0.  0.
         25    1    4    4    0    0  0.12114004618E+02  0.55444583211E+02  0.32344886125E+03  0.35140791803E+03  0.12509000000E+03 0.  0.
         25    1    4    4    0    0  0.16164831017E+02 -0.25468714553E+02  0.32433648698E+03  0.34892925081E+03  0.12509000000E+03 0.  0.
         25    1    3    3    0    0 -0.28278835635E+02 -0.29975868658E+02  0.10140279503E+03  0.16621756883E+03  0.12509000000E+03 0.  0.
<mgrwt>
<rscale>  2 0.43547014E+03</rscale>
<asrwt>0</asrwt>
<pdfrwt beam="1">  1       21 0.11880462E+00 0.43547014E+03</pdfrwt>
<pdfrwt beam="2">  1       21 0.86298971E-02 0.43547014E+03</pdfrwt>
<totfact> 0.52257805E+04</totfact>
</mgrwt>
</event>
<event>
 6    0  0.4788920E-002  0.4568544E+03  0.7546771E-02  0.1025697E+00
         21   -1    0    0  502  501  0.00000000000E+00  0.00000000000E+00  0.10190173452E+04  0.10190173452E+04  0.00000000000E+00 0.  1.
         21   -1    0    0  501  502 -0.00000000000E+00 -0.00000000000E+00 -0.51205203130E+02  0.51205203130E+02  0.00000000000E+00 0.  1.
      99926    2    1    2    0    0  0.00000000000E+00  0.00000000000E+00  0.96781214205E+03  0.10702225483E+04  0.45685441950E+03 0.  0.
         25    1    3    3    0    0  0.37623545650E+02  0.29300393932E+02  0.21219856161E+03  0.25089795121E+03  0.12509000000E+03 0.  0.
         25    1    3    3    0    0 -0.96009539329E+02 -0.57568088786E+02  0.31805264438E+03  0.35963441046E+03  0.12509000000E+03 0.  0.
         25    1    3    3    0    0  0.58385993680E+02  0.28267694854E+02  0.43756093606E+03  0.45969018665E+03  0.12509000000E+03 0.  0.
<mgrwt>
<rscale>  2 0.45685442E+03</rscale>
<asrwt>0</asrwt>
<pdfrwt beam="1">  1       21 0.14985548E+00 0.45685442E+03</pdfrwt>
<pdfrwt beam="2">  1       21 0.75301776E-02 0.45685442E+03</pdfrwt>
<totfact> 0.36019931E+04</totfact>
</mgrwt>
</event>
<event>
 7    0  0.4788920E-002  0.4546879E+03  0.7546771E-02  0.1026333E+00
         21   -1    0    0  502  501  0.00000000000E+00  0.00000000000E+00  0.45895781693E+02  0.45895781693E+02  0.00000000000E+00 0.  1.
         21   -1    0    0  501  502 -0.00000000000E+00 -0.00000000000E+00 -0.11261444078E+04  0.11261444078E+04  0.00000000000E+00 0.  1.
      99926    2    1    2    0    0  0.00000000000E+00 -0.35527136788E-14 -0.10802486261E+04  0.11720401895E+04  0.45468792768E+03 0.  0.
      99925    2    3    3    0    0  0.83705510179E+02  0.28200324565E+02 -0.49881674040E+03  0.57078116332E+03  0.26300404019E+03 0.  0.
         25    1    4    4    0    0  0.17435054917E+02 -0.17816154141E+02 -0.20572905675E+03  0.24206063162E+03  0.12509000000E+03 0.  0.
         25    1    3    3    0    0 -0.83705510179E+02 -0.28200324565E+02 -0.58143188569E+03  0.60125902616E+03  0.12509000000E+03 0.  0.
         25    1    4    4    0    0  0.66270455262E+02  0.46016478705E+02 -0.29308768366E+03  0.32872053170E+03  0.12509000000E+03 0.  0.
<mgrwt>
<rscale>  2 0.45468793E+03</rscale>
<asrwt>0</asrwt>
<pdfrwt beam="1">  1       21 0.67493792E-02 0.45468793E+03</pdfrwt>
<pdfrwt beam="2">  1       21 0.16560948E+00 0.45468793E+03</pdfrwt>
<totfact> 0.33135453E+04</totfact>
</mgrwt>
</event>
<event>
 6    0  0.4788920E-002  0.4002350E+03  0.7546771E-02  0.1043698E+00
         21   -1    0    0  502  501  0.00000000000E+00  0.00000000000E+00  0.54697400717E+02  0.54697400717E+02  0.00000000000E+00 0.  1.
         21   -1    0    0  501  502 -0.00000000000E+00 -0.00000000000E+00 -0.73215553607E+03  0.73215553607E+03  0.00000000000E+00 0.  1.
      99926    2    1    2    0    0 -0.17763568394E-14 -0.71054273576E-14 -0.67745813536E+03  0.78685293679E+03  0.40023495471E+03 0.  0.
         25    1    3    3    0    0 -0.36919888491E+01 -0.24002591962E+02 -0.17916705292E+03  0.21985926443E+03  0.12509000000E+03 0.  0.
         25    1    3    3    0    0 -0.10884184333E+02 -0.32967255969E+02 -0.20311001471E+03  0.24105288135E+03  0.12509000000E+03 0.  0.
         25    1    3    3    0    0  0.14576173182E+02  0.56969847931E+02 -0.29518106773E+03  0.32594079101E+03  0.12509000000E+03 0.  0.
<mgrwt>
<rscale>  2 0.40023495E+03</rscale>
<asrwt>0</asrwt>
<pdfrwt beam="1">  1       21 0.80437361E-02 0.40023495E+03</pdfrwt>
<pdfrwt beam="2">  1       21 0.10766992E+00 0.40023495E+03</pdfrwt>
<totfact> 0.76281382E+04</totfact>
</mgrwt>
</event>
<event>
 7    0  0.4788920E-002  0.4561675E+03  0.7546771E-02  0.1025899E+00
         21   -1    0    0  502  501  0.00000000000E+00  0.00000000000E+00  0.48439870605E+03  0.48439870605E+03  0.00000000000E+00 0.  1.
         21   -1    0    0  501  502 -0.00000000000E+00 -0.00000000000E+00 -0.10739541607E+03  0.10739541607E+03  0.00000000000E+00 0.  1.
      99926    2    1    2    0    0  0.00000000000E+00  0.00000000000E+00  0.37700328998E+03  0.59179412212E+03  0.45616751563E+03 0.  0.
      99925    2    3    3    0    0  0.14476751970E+02  0.11261558486E+03  0.22048177321E+03  0.36149358019E+03  0.26300864986E+03 0.  0.
         25    1    3    3    0    0 -0.14476751970E+02 -0.11261558486E+03  0.15652151677E+03  0.23030054193E+03  0.12509000000E+03 0.  0.
         25    1    4    4    0    0 -0.25353025352E+02  0.76483955502E+02  0.13362784017E+03  0.19999119759E+03  0.12509000000E+03 0.  0.
         25    1    4    4    0    0  0.39829777323E+02  0.36131629359E+02  0.86853933037E+02  0.16150238260E+03  0.12509000000E+03 0.  0.
<mgrwt>
<rscale>  2 0.45616752E+03</rscale>
<asrwt>0</asrwt>
<pdfrwt beam="1">  1       21 0.71235103E-01 0.45616752E+03</pdfrwt>
<pdfrwt beam="2">  1       21 0.15793444E-01 0.45616752E+03</pdfrwt>
<totfact> 0.58643242E+04</totfact>
</mgrwt>
</event>
<event>
 7    0  0.4788920E-002  0.4545574E+03  0.7546771E-02  0.1026372E+00
         21   -1    0    0  502  501  0.00000000000E+00  0.00000000000E+00  0.24354959435E+02  0.24354959435E+02  0.00000000000E+00 0. -1.
         21   -1    0    0  501  502 -0.00000000000E+00 -0.00000000000E+00 -0.21209478262E+04  0.21209478262E+04  0.00000000000E+00 0. -1.
      99926    2    1    2    0    0 -0.88817841970E-15  0.00000000000E+00 -0.20965928668E+04  0.21453027857E+04  0.45455735951E+03 0.  0.
      99925    2    3    3    0    0 -0.45758996585E+01 -0.10152376178E+03 -0.15498324275E+04  0.15752830500E+04  0.26307436393E+03 0.  0.
         25    1    4    4    0    0 -0.13595921239E+02 -0.47987459046E+02 -0.98817867920E+03  0.99731251643E+03  0.12509000000E+03 0.  0.
         25    1    4    4    0    0  0.90200215800E+01 -0.53536302735E+02 -0.56165374835E+03  0.57797053353E+03  0.12509000000E+03 0.  0.
         25    1    3    3    0    0  0.45758996585E+01  0.10152376178E+03 -0.54676043925E+03  0.57001973571E+03  0.12509000000E+03 0.  0.
<mgrwt>
<rscale>  2 0.45455736E+03</rscale>
<asrwt>0</asrwt>
<pdfrwt beam="1">  1       21 0.35816115E-02 0.45455736E+03</pdfrwt>
<pdfrwt beam="2">  1       21 0.31190411E+00 0.45455736E+03</pdfrwt>
<totfact> 0.11518780E+04</totfact>
</mgrwt>
</event>
<event>
 7    0  0.4788920E-002  0.4487050E+03  0.7546771E-02  0.1028109E+00
         21   -1    0    0  502  501  0.00000000000E+00  0.00000000000E+00  0.60800440160E+02  0.60800440160E+02  0.00000000000E+00 0.  1.
         21   -1    0    0  501  502 -0.00000000000E+00 -0.00000000000E+00 -0.82785674603E+03  0.82785674603E+03  0.00000000000E+00 0.  1.
      99926    2    1    2    0    0  0.17763568394E-14 -0.35527136788E-14 -0.76705630586E+03  0.88865718619E+03  0.44870504587E+03 0.  0.
      99925    2    3    3    0    0 -0.15475182230E+02 -0.27817620259E+02 -0.28350413946E+03  0.38817391274E+03  0.26323200448E+03 0.  0.
         25    1    3    3    0    0  0.15475182230E+02  0.27817620259E+02 -0.48355216640E+03  0.50048327344E+03  0.12509000000E+03 0.  0.
         25    1    4    4    0    0  0.25622492594E+02 -0.34515411453E+02 -0.15916615360E+03  0.20695216429E+03  0.12509000000E+03 0.  0.
         25    1    4    4    0    0 -0.41097674824E+02  0.66977911938E+01 -0.12433798586E+03  0.18122174845E+03  0.12509000000E+03 0.  0.
<mgrwt>
<rscale>  2 0.44870505E+03</rscale>
<asrwt>0</asrwt>
<pdfrwt beam="1">  1       21 0.89412410E-02 0.44870505E+03</pdfrwt>
<pdfrwt beam="2">  1       21 0.12174364E+00 0.44870505E+03</pdfrwt>
<totfact> 0.45951355E+04</totfact>
</mgrwt>
</event>
<event>
 7    0  0.4788920E-002  0.4587961E+03  0.7546771E-02  0.1025131E+00
         21   -1    0    0  502  501  0.00000000000E+00  0.00000000000E+00  0.13143002746E+03  0.13143002746E+03  0.00000000000E+00 0.  1.
         21   -1    0    0  501  502 -0.00000000000E+00 -0.00000000000E+00 -0.40039155094E+03  0.40039155094E+03  0.00000000000E+00 0.  1.
      99926    2    1    2    0    0  0.00000000000E+00  0.00000000000E+00 -0.26896152348E+03  0.53182157839E+03  0.45879613134E+03 0.  0.
      99925    2    3    3    0    0 -0.10116946863E+03  0.48005881124E+02 -0.13076502918E+03  0.31436904302E+03  0.26303721475E+03 0.  0.
         25    1    4    4    0    0 -0.30119277804E+02  0.34219349745E+02 -0.10025818873E+03  0.16666537523E+03  0.12509000000E+03 0.  0.
         25    1    3    3    0    0  0.10116946863E+03 -0.48005881124E+02 -0.13819649430E+03  0.21745253538E+03  0.12509000000E+03 0.  0.
         25    1    4    4    0    0 -0.71050190824E+02  0.13786531379E+02 -0.30506840450E+02  0.14770366779E+03  0.12509000000E+03 0.  0.
<mgrwt>
<rscale>  2 0.45879613E+03</rscale>
<asrwt>0</asrwt>
<pdfrwt beam="1">  1       21 0.19327945E-01 0.45879613E+03</pdfrwt>
<pdfrwt beam="2">  1       21 0.58881110E-01 0.45879613E+03</pdfrwt>
<totfact> 0.61220511E+04</totfact>
</mgrwt>
</event>
<event>
 7    0  0.4788920E-002  0.4555357E+03  0.7546771E-02  0.1026084E+00
         21   -1    0    0  502  501  0.00000000000E+00  0.00000000000E+00  0.50017851704E+03  0.50017851704E+03  0.00000000000E+00 0. -1.
         21   -1    0    0  501  502 -0.00000000000E+00 -0.00000000000E+00 -0.10371935954E+03  0.10371935954E+03  0.00000000000E+00 0. -1.
      99926    2    1    2    0    0  0.00000000000E+00  0.00000000000E+00  0.39645915749E+03  0.60389787658E+03  0.45553570856E+03 0.  0.
      99925    2    3    3    0    0 -0.10975853523E+03 -0.78748100023E+01  0.28665734423E+03  0.40436618740E+03  0.26311714468E+03 0.  0.
         25    1    4    4    0    0 -0.64520265496E+02  0.12086848994E+02  0.19814701699E+03  0.24334893675E+03  0.12509000000E+03 0.  0.
         25    1    3    3    0    0  0.10975853523E+03  0.78748100023E+01  0.10980181327E+03  0.19953168918E+03  0.12509000000E+03 0.  0.
         25    1    4    4    0    0 -0.45238269736E+02 -0.19961658997E+02  0.88510327243E+02  0.16101725065E+03  0.12509000000E+03 0.  0.
<mgrwt>
<rscale>  2 0.45553571E+03</rscale>
<asrwt>0</asrwt>
<pdfrwt beam="1">  1       21 0.73555663E-01 0.45553571E+03</pdfrwt>
<pdfrwt beam="2">  1       21 0.15252847E-01 0.45553571E+03</pdfrwt>
<totfact> 0.58192305E+04</totfact>
</mgrwt>
</event>
<event>
 7    0  0.4788920E-002  0.4530369E+03  0.7546771E-02  0.1026820E+00
         21   -1    0    0  502  501  0.00000000000E+00  0.00000000000E+00  0.20773200982E+03  0.20773200982E+03  0.00000000000E+00 0. -1.
         21   -1    0    0  501  502 -0.00000000000E+00 -0.00000000000E+00 -0.24700380819E+03  0.24700380819E+03  0.00000000000E+00 0. -1.
      99926    2    1    2    0    0  0.00000000000E+00 -0.88817841970E-15 -0.39271798372E+02  0.45473581801E+03  0.45303685285E+03 0.  0.
      99925    2    3    3    0    0 -0.11082753694E+03 -0.28488101919E+01 -0.34649847811E+02  0.28752418807E+03  0.26301841781E+03 0.  0.
         25    1    4    4    0    0 -0.83848738127E+02  0.13541330332E+02  0.86306115405E+01  0.15144627453E+03  0.12509000000E+03 0.  0.
         25    1    4    4    0    0 -0.26978798809E+02 -0.16390140523E+02 -0.43280459351E+02  0.13607791354E+03  0.12509000000E+03 0.  0.
         25    1    3    3    0    0  0.11082753694E+03  0.28488101919E+01 -0.46219505614E+01  0.16721162995E+03  0.12509000000E+03 0.  0.
<mgrwt>
<rscale>  2 0.45303685E+03</rscale>
<asrwt>0</asrwt>
<pdfrwt beam="1">  1       21 0.30548825E-01 0.45303685E+03</pdfrwt>
<pdfrwt beam="2">  1       21 0.36324089E-01 0.45303685E+03</pdfrwt>
<totfact> 0.69649741E+04</totfact>
</mgrwt>
</event>
<event>
 7    0  0.4788920E-002  0.4623035E+03  0.7546771E-02  0.1024115E+00
         21   -1    0    0  502  501  0.00000000000E+00  0.00000000000E+00  0.41668571281E+03  0.41668571281E+03  0.00000000000E+00 0. -1.
         21   -1    0    0  501  502 -0.00000000000E+00 -0.00000000000E+00 -0.12822886738E+03  0.12822886738E+03  0.00000000000E+00 0. -1.
      99926    2    1    2    0    0  0.00000000000E+00  0.71054273576E-14  0.28845684543E+03  0.54491458019E+03  0.46230352371E+03 0.  0.
      99925    2    3    3    0    0 -0.71548989507E+02 -0.37231680491E+02  0.28481379140E+03  0.39603128404E+03  0.26309014849E+03 0.  0.
         25    1    4    4    0    0 -0.47095866228E+02 -0.54742934794E+02  0.17479197415E+03  0.22674777144E+03  0.12509000000E+03 0.  0.
         25    1    3    3    0    0  0.71548989507E+02  0.37231680491E+02  0.36430540242E+01  0.14888329616E+03  0.12509000000E+03 0.  0.
         25    1    4    4    0    0 -0.24453123279E+02  0.17511254303E+02  0.11002181725E+03  0.16928351259E+03  0.12509000000E+03 0.  0.
<mgrwt>
<rscale>  2 0.46230352E+03</rscale>
<asrwt>0</asrwt>
<pdfrwt beam="1">  1       21 0.61277310E-01 0.46230352E+03</pdfrwt>
<pdfrwt beam="2">  1       21 0.18857187E-01 0.46230352E+03</pdfrwt>
<totfact> 0.58734434E+04</totfact>
</mgrwt>
</event>
<event>
 7    0  0.4788920E-002  0.4522955E+03  0.7546771E-02  0.1027040E+00
         21   -1    0    0  502  501  0.00000000000E+00  0.00000000000E+00  0.64149722543E+03  0.64149722543E+03  0.00000000000E+00 0. -1.
         21   -1    0    0  501  502 -0.00000000000E+00 -0.00000000000E+00 -0.79724116058E+02  0.79724116058E+02  0.00000000000E+00 0. -1.
      99926    2    1    2    0    0  0.00000000000E+00  0.00000000000E+00  0.56177310937E+03  0.72122134149E+03  0.45229547533E+03 0.  0.
      99925    2    3    3    0    0 -0.49007624985E+02  0.37229884417E+02  0.20646961544E+03  0.33954622768E+03  0.26243880626E+03 0.  0.
         25    1    4    4    0    0 -0.14173933636E+02  0.55878403206E+02  0.94027463143E+02  0.16676920658E+03  0.12509000000E+03 0.  0.
         25    1    4    4    0    0 -0.34833691349E+02 -0.18648518789E+02  0.11244215230E+03  0.17277702110E+03  0.12509000000E+03 0.  0.
         25    1    3    3    0    0  0.49007624985E+02 -0.37229884417E+02  0.35530349393E+03  0.38167511381E+03  0.12509000000E+03 0.  0.
<mgrwt>
<rscale>  2 0.45229548E+03</rscale>
<asrwt>0</asrwt>
<pdfrwt beam="1">  1       21 0.94337824E-01 0.45229548E+03</pdfrwt>
<pdfrwt beam="2">  1       21 0.11724135E-01 0.45229548E+03</pdfrwt>
<totfact> 0.52881868E+04</totfact>
</mgrwt>
</event>
<event>
 7    0  0.4788920E-002  0.4469951E+03  0.7546771E-02  0.1028622E+00
         21   -1    0    0  502  501  0.00000000000E+00  0.00000000000E+00  0.24849576911E+03  0.24849576911E+03  0.00000000000E+00 0. -1.
         21   -1    0    0  501  502 -0.00000000000E+00 -0.00000000000E+00 -0.20101407687E+03  0.20101407687E+03  0.00000000000E+00 0. -1.
      99926    2    1    2    0    0  0.00000000000E+00  0.00000000000E+00  0.47481692236E+02  0.44950984598E+03  0.44699506769E+03 0.  0.
      99925    2    3    3    0    0  0.61152610926E+02  0.68113898822E+02 -0.22513315892E+02  0.27943352694E+03  0.26305341957E+03 0.  0.
         25    1    4    4    0    0  0.47945898987E+02  0.73044806548E+02 -0.94651278628E+01  0.15287723748E+03  0.12509000000E+03 0.  0.
         25    1    4    4    0    0  0.13206711938E+02 -0.49309077261E+01 -0.13048188029E+02  0.12655628946E+03  0.12509000000E+03 0.  0.
         25    1    3    3    0    0 -0.61152610926E+02 -0.68113898822E+02  0.69995008128E+02  0.17007631904E+03  0.12509000000E+03 0.  0.
<mgrwt>
<rscale>  2 0.44699507E+03</rscale>
<asrwt>0</asrwt>
<pdfrwt beam="1">  1       21 0.36543496E-01 0.44699507E+03</pdfrwt>
<pdfrwt beam="2">  1       21 0.29560893E-01 0.44699507E+03</pdfrwt>
<totfact> 0.73535320E+04</totfact>
</mgrwt>
</event>
<event>
 7    0  0.4788920E-002  0.4484645E+03  0.7546771E-02  0.1028181E+00
         21   -1    0    0  502  501  0.00000000000E+00  0.00000000000E+00  0.44151534351E+02  0.44151534351E+02  0.00000000000E+00 0. -1.
         21   -1    0    0  501  502 -0.00000000000E+00 -0.00000000000E+00 -0.11388077963E+04  0.11388077963E+04  0.00000000000E+00 0. -1.
      99926    2    1    2    0    0  0.26645352591E-14  0.00000000000E+00 -0.10946562620E+04  0.11829593307E+04  0.44846454280E+03 0.  0.
      99925    2    3    3    0    0  0.68811315417E+01  0.10168139429E+03 -0.77935314614E+03  0.82877008907E+03  0.26283469752E+03 0.  0.
         25    1    4    4    0    0  0.29062540781E+02  0.52370075092E+02 -0.48428500406E+03  0.50375264694E+03  0.12509000000E+03 0.  0.
         25    1    4    4    0    0 -0.22181409239E+02  0.49311319196E+02 -0.29506814208E+03  0.32501744213E+03  0.12509000000E+03 0.  0.
         25    1    3    3    0    0 -0.68811315417E+01 -0.10168139429E+03 -0.31530311582E+03  0.35418924159E+03  0.12509000000E+03 0.  0.
<mgrwt>
<rscale>  2 0.44846454E+03</rscale>
<asrwt>0</asrwt>
<pdfrwt beam="1">  1       21 0.64928719E-02 0.44846454E+03</pdfrwt>
<pdfrwt beam="2">  1       21 0.16747175E+00 0.44846454E+03</pdfrwt>
<totfact> 0.34420283E+04</totfact>
</mgrwt>
</event>
<event>
 7    0  0.4788920E-002  0.4564262E+03  0.7546771E-02  0.1025823E+00
         21   -1    0    0  502  501  0.00000000000E+00  0.00000000000E+00  0.90451453796E+03  0.90451453796E+03  0.00000000000E+00 0.  1.
         21   -1    0    0  501  502 -0.00000000000E+00 -0.00000000000E+00 -0.57579201603E+02  0.57579201603E+02  0.00000000000E+00 0.  1.
      99926    2    1    2    0    0  0.71054273576E-14  0.00000000000E+00  0.84693533636E+03  0.96209373956E+03  0.45642622595E+03 0.  0.
      99925    2    3    3    0    0 -0.59057096922E+02  0.93192504776E+02  0.46928188384E+03  0.54924725242E+03  0.26320044482E+03 0.  0.
         25    1    4    4    0    0 -0.52233962543E+02  0.24424153611E+02  0.28029350969E+03  0.31230895888E+03  0.12509000000E+03 0.  0.
         25    1    4    4    0    0 -0.68231343799E+01  0.68768351164E+02  0.18898837415E+03  0.23693829355E+03  0.12509000000E+03 0.  0.
         25    1    3    3    0    0  0.59057096922E+02 -0.93192504776E+02  0.37765345252E+03  0.41284648714E+03  0.12509000000E+03 0.  0.
<mgrwt>
<rscale>  2 0.45642623E+03</rscale>
<asrwt>0</asrwt>
<pdfrwt beam="1">  1       21 0.13301684E+00 0.45642623E+03</pdfrwt>
<pdfrwt beam="2">  1       21 0.84675302E-02 0.45642623E+03</pdfrwt>
<totfact> 0.40204759E+04</totfact>
</mgrwt>
</event>
<event>
 7    0  0.4788920E-002  0.4446653E+03  0.7546771E-02  0.1029325E+00
         21   -1    0    0  502  501  0.00000000000E+00  0.00000000000E+00  0.47892448385E+02  0.47892448385E+02  0.00000000000E+00 0. -1.
         21   -1    0    0  501  502 -0.00000000000E+00 -0.00000000000E+00 -0.10321420292E+04  0.10321420292E+04  0.00000000000E+00 0. -1.
      99926    2    1    2    0    0  0.14210854715E-13  0.00000000000E+00 -0.98424958078E+03  0.10800344776E+04  0.44466530721E+03 0.  0.
      99925    2    3    3    0    0 -0.86882577599E+02 -0.55003186657E+02 -0.64665752779E+03  0.70561514689E+03  0.26296928421E+03 0.  0.
         25    1    4    4    0    0 -0.98104318195E+01 -0.11482015661E+02 -0.34457031982E+03  0.36688457948E+03  0.12509000000E+03 0.  0.
         25    1    4    4    0    0 -0.77072145780E+02 -0.43521170996E+02 -0.30208720797E+03  0.33873056741E+03  0.12509000000E+03 0.  0.
         25    1    3    3    0    0  0.86882577599E+02  0.55003186657E+02 -0.33759205299E+03  0.37441933066E+03  0.12509000000E+03 0.  0.
<mgrwt>
<rscale>  2 0.44466531E+03</rscale>
<asrwt>0</asrwt>
<pdfrwt beam="1">  1       21 0.70430073E-02 0.44466531E+03</pdfrwt>
<pdfrwt beam="2">  1       21 0.15178559E+00 0.44466531E+03</pdfrwt>
<totfact> 0.39266349E+04</totfact>
</mgrwt>
</event>
<event>
 7    0  0.4788920E-002  0.4609217E+03  0.7546771E-02  0.1024514E+00
         21   -1    0    0  502  501  0.00000000000E+00  0.00000000000E+00  0.18069551547E+03  0.18069551547E+03  0.00000000000E+00 0. -1.
         21   -1    0    0  501  502 -0.00000000000E+00 -0.00000000000E+00 -0.29393208267E+03  0.29393208267E+03  0.00000000000E+00 0. -1.
      99926    2    1    2    0    0  0.00000000000E+00  0.71054273576E-14 -0.11323656720E+03  0.47462759814E+03  0.46092172520E+03 0.  0.
      99925    2    3    3    0    0  0.95568877390E+02 -0.60418654324E+02 -0.10796283856E+03  0.30592921513E+03  0.26296936332E+03 0.  0.
         25    1    4    4    0    0  0.69719498108E+01 -0.40510461838E+02 -0.49352606340E+02  0.14061612089E+03  0.12509000000E+03 0.  0.
         25    1    3    3    0    0 -0.95568877390E+02  0.60418654324E+02 -0.52737286329E+01  0.16869838301E+03  0.12509000000E+03 0.  0.
         25    1    4    4    0    0  0.88596927579E+02 -0.19908192486E+02 -0.58610232224E+02  0.16531309424E+03  0.12509000000E+03 0.  0.
<mgrwt>
<rscale>  2 0.46092173E+03</rscale>
<asrwt>0</asrwt>
<pdfrwt beam="1">  1       21 0.26572870E-01 0.46092173E+03</pdfrwt>
<pdfrwt beam="2">  1       21 0.43225306E-01 0.46092173E+03</pdfrwt>
<totfact> 0.64031745E+04</totfact>
</mgrwt>
</event>
<event>
 6    0  0.4788920E-002  0.4555066E+03  0.7546771E-02  0.1026093E+00
         21   -1    0    0  502  501  0.00000000000E+00  0.00000000000E+00  0.21553783560E+03  0.21553783560E+03  0.00000000000E+00 0. -1.
         21   -1    0    0  501  502 -0.00000000000E+00 -0.00000000000E+00 -0.24066104822E+03  0.24066104822E+03  0.00000000000E+00 0. -1.
      99926    2    1    2    0    0  0.14210854715E-13  0.00000000000E+00 -0.25123212627E+02  0.45619888382E+03  0.45550658150E+03 0.  0.
         25    1    3    3    0    0  0.76547550258E+02  0.39860545881E+01 -0.39012971957E+02  0.15180558673E+03  0.12509000000E+03 0.  0.
         25    1    3    3    0    0 -0.10001686749E+03  0.40049128650E+02  0.33037902900E+02  0.16836364696E+03  0.12509000000E+03 0.  0.
         25    1    3    3    0    0  0.23469317231E+02 -0.44035183239E+02 -0.19148143570E+02  0.13602965014E+03  0.12509000000E+03 0.  0.
<mgrwt>
<rscale>  2 0.45550658E+03</rscale>
<asrwt>0</asrwt>
<pdfrwt beam="1">  1       21 0.31696741E-01 0.45550658E+03</pdfrwt>
<pdfrwt beam="2">  1       21 0.35391331E-01 0.45550658E+03</pdfrwt>
<totfact> 0.68182079E+04</totfact>
</mgrwt>
</event>
<event>
 7    0  0.4788920E-002  0.4426591E+03  0.7546771E-02  0.1029934E+00
         21   -1    0    0  502  501  0.00000000000E+00  0.00000000000E+00  0.13820475492E+03  0.13820475492E+03  0.00000000000E+00 0.  1.
         21   -1    0    0  501  502 -0.00000000000E+00 -0.00000000000E+00 -0.35445061312E+03  0.35445061312E+03  0.00000000000E+00 0.  1.
      99926    2    1    2    0    0  0.00000000000E+00  0.00000000000E+00 -0.21624585820E+03  0.49265536803E+03  0.44265905668E+03 0.  0.
      99925    2    3    3    0    0  0.66443709780E+02  0.63088251954E+02 -0.90926247259E+02  0.29328785039E+03  0.26335391898E+03 0.  0.
         25    1    3    3    0    0 -0.66443709780E+02 -0.63088251954E+02 -0.12531961094E+03  0.19936751764E+03  0.12509000000E+03 0.  0.
         25    1    4    4    0    0  0.35798401733E+02  0.71294221843E+02 -0.33836347732E+02  0.15217357906E+03  0.12509000000E+03 0.  0.
         25    1    4    4    0    0  0.30645308047E+02 -0.82059698886E+01 -0.57089899526E+02  0.14111427134E+03  0.12509000000E+03 0.  0.
<mgrwt>
<rscale>  2 0.44265906E+03</rscale>
<asrwt>0</asrwt>
<pdfrwt beam="1">  1       21 0.20324229E-01 0.44265906E+03</pdfrwt>
<pdfrwt beam="2">  1       21 0.52125090E-01 0.44265906E+03</pdfrwt>
<totfact> 0.72650179E+04</totfact>
</mgrwt>
</event>
<event>
 7    0  0.4788920E-002  0.4560296E+03  0.7546771E-02  0.1025939E+00
         21   -1    0    0  502  501  0.00000000000E+00  0.00000000000E+00  0.51076140728E+03  0.51076140728E+03  0.00000000000E+00 0.  1.
         21   -1    0    0  501  502 -0.00000000000E+00 -0.00000000000E+00 -0.10179068278E+03  0.10179068278E+03  0.00000000000E+00 0.  1.
      99926    2    1    2    0    0  0.00000000000E+00 -0.17763568394E-14  0.40897072450E+03  0.61255209006E+03  0.45602961476E+03 0.  0.
      99925    2    3    3    0    0 -0.55722107631E+02  0.23324296669E+01  0.39088227185E+03  0.47440327998E+03  0.26298123146E+03 0.  0.
         25    1    4    4    0    0 -0.81159894987E+01 -0.34495868406E+02  0.18899524225E+03  0.22939604163E+03  0.12509000000E+03 0.  0.
         25    1    4    4    0    0 -0.47606118132E+02  0.36828298073E+02  0.20188702960E+03  0.24500723835E+03  0.12509000000E+03 0.  0.
         25    1    3    3    0    0  0.55722107631E+02 -0.23324296669E+01  0.18088452651E+02  0.13814881008E+03  0.12509000000E+03 0.  0.
<mgrwt>
<rscale>  2 0.45602961E+03</rscale>
<asrwt>0</asrwt>
<pdfrwt beam="1">  1       21 0.75111970E-01 0.45602961E+03</pdfrwt>
<pdfrwt beam="2">  1       21 0.14969218E-01 0.45602961E+03</pdfrwt>
<totfact> 0.57443658E+04</totfact>
</mgrwt>
</event>
<event>
 7    0  0.4788920E-002  0.4554203E+03  0.7546771E-02  0.1026118E+00
         21   -1    0    0  502  501  0.00000000000E+00  0.00000000000E+00  0.39812209146E+03  0.39812209146E+03  0.00000000000E+00 0.  1.
         21   -1    0    0  501  502 -0.00000000000E+00 -0.00000000000E+00 -0.13024121273E+03  0.13024121273E+03  0.00000000000E+00 0.  1.
      99926    2    1    2    0    0  0.00000000000E+00  0.00000000000E+00  0.26788087873E+03  0.52836330419E+03  0.45542026309E+03 0.  0.
      99925    2    3    3    0    0  0.22612028584E+02 -0.86550015595E+02  0.87220860531E+02  0.29111288942E+03  0.26293920749E+03 0.  0.
         25    1    4    4    0    0  0.43949589765E+02 -0.42371204115E+02  0.69511645307E+02  0.15558361839E+03  0.12509000000E+03 0.  0.
         25    1    4    4    0    0 -0.21337561181E+02 -0.44178811480E+02  0.17709215223E+02  0.13552927103E+03  0.12509000000E+03 0.  0.
         25    1    3    3    0    0 -0.22612028584E+02  0.86550015595E+02  0.18066001820E+03  0.23725041477E+03  0.12509000000E+03 0.  0.
<mgrwt>
<rscale>  2 0.45542026E+03</rscale>
<asrwt>0</asrwt>
<pdfrwt beam="1">  1       21 0.58547366E-01 0.45542026E+03</pdfrwt>
<pdfrwt beam="2">  1       21 0.19153120E-01 0.45542026E+03</pdfrwt>
<totfact> 0.63106986E+04</totfact>
</mgrwt>
</event>
<event>
 7    0  0.4788920E-002  0.4558025E+03  0.7546771E-02  0.1026006E+00
         21   -1    0    0  502  501  0.00000000000E+00  0.00000000000E+00  0.28283720365E+03  0.28283720365E+03  0.00000000000E+00 0. -1.
         21   -1    0    0  501  502 -0.00000000000E+00 -0.00000000000E+00 -0.18363559870E+03  0.18363559870E+03  0.00000000000E+00 0. -1.
      99926    2    1    2    0    0  0.71054273576E-14 -0.88817841970E-15  0.99201604944E+02  0.46647280235E+03  0.45580249770E+03 0.  0.
      99925    2    3    3    0    0 -0.51727459306E+02  0.46182579044E+01  0.16625326720E+03  0.31534209116E+03  0.26287530742E+03 0.  0.
         25    1    3    3    0    0  0.51727459306E+02 -0.46182579044E+01 -0.67051662260E+02  0.15113071119E+03  0.12509000000E+03 0.  0.
         25    1    4    4    0    0 -0.14975995592E+02  0.39468365040E+02  0.68743527256E+02  0.14884627279E+03  0.12509000000E+03 0.  0.
         25    1    4    4    0    0 -0.36751463714E+02 -0.34850107135E+02  0.97509739948E+02  0.16649581838E+03  0.12509000000E+03 0.  0.
<mgrwt>
<rscale>  2 0.45580250E+03</rscale>
<asrwt>0</asrwt>
<pdfrwt beam="1">  1       21 0.41593706E-01 0.45580250E+03</pdfrwt>
<pdfrwt beam="2">  1       21 0.27005235E-01 0.45580250E+03</pdfrwt>
<totfact> 0.67270237E+04</totfact>
</mgrwt>
</event>
<event>
 7    0  0.4788920E-002  0.4665378E+03  0.7546771E-02  0.1022902E+00
         21   -1    0    0  502  501  0.00000000000E+00  0.00000000000E+00  0.15183272644E+03  0.15183272644E+03  0.00000000000E+00 0. -1.
         21   -1    0    0  501  502 -0.00000000000E+00 -0.00000000000E+00 -0.35838380489E+03  0.35838380489E+03  0.00000000000E+00 0. -1.
      99926    2    1    2    0    0  0.00000000000E+00  0.00000000000E+00 -0.20655107845E+03  0.51021653132E+03  0.46653784501E+03 0.  0.
      99925    2    3    3    0    0 -0.10428635343E+03  0.43181265459E+02 -0.18400738969E+03  0.34022832231E+03  0.26297590506E+03 0.  0.
         25    1    3    3    0    0  0.10428635343E+03 -0.43181265459E+02 -0.22543688759E+02  0.16998820901E+03  0.12509000000E+03 0.  0.
         25    1    4    4    0    0 -0.25182675406E+02  0.51544010805E+02 -0.96624698818E+02  0.16815110084E+03  0.12509000000E+03 0.  0.
         25    1    4    4    0    0 -0.79103678028E+02 -0.83627453458E+01 -0.87382690873E+02  0.17207722148E+03  0.12509000000E+03 0.  0.
<mgrwt>
<rscale>  2 0.46653785E+03</rscale>
<asrwt>0</asrwt>
<pdfrwt beam="1">  1       21 0.22328343E-01 0.46653785E+03</pdfrwt>
<pdfrwt beam="2">  1       21 0.52703500E-01 0.46653785E+03</pdfrwt>
<totfact> 0.58970250E+04</totfact>
</mgrwt>
</event>
<event>
 7    0  0.4788920E-002  0.4555922E+03  0.7546771E-02  0.1026067E+00
         21   -1    0    0  502  501  0.00000000000E+00  0.00000000000E+00  0.80211584676E+02  0.80211584676E+02  0.00000000000E+00 0. -1.
         21   -1    0    0  501  502 -0.00000000000E+00 -0.00000000000E+00 -0.64692734074E+03  0.64692734074E+03  0.00000000000E+00 0. -1.
      99926    2    1    2    0    0  0.00000000000E+00  0.00000000000E+00 -0.56671575607E+03  0.72713892542E+03  0.45559221754E+03 0.  0.
      99925    2    3    3    0    0  0.10685139248E+03  0.22510578546E+02 -0.30662712021E+03  0.41856550980E+03  0.26315955032E+03 0.  0.
         25    1    4    4    0    0  0.35004286619E+02  0.20597115619E+02 -0.94171070570E+02  0.16175673057E+03  0.12509000000E+03 0.  0.
         25    1    3    3    0    0 -0.10685139248E+03 -0.22510578546E+02 -0.26008863586E+03  0.30857341562E+03  0.12509000000E+03 0.  0.
         25    1    4    4    0    0  0.71847105865E+02  0.19134629270E+01 -0.21245604964E+03  0.25680877923E+03  0.12509000000E+03 0.  0.
<mgrwt>
<rscale>  2 0.45559222E+03</rscale>
<asrwt>0</asrwt>
<pdfrwt beam="1">  1       21 0.11795822E-01 0.45559222E+03</pdfrwt>
<pdfrwt beam="2">  1       21 0.95136368E-01 0.45559222E+03</pdfrwt>
<totfact> 0.51215238E+04</totfact>
</mgrwt>
</event>
<event>
 7    0  0.4788920E-002  0.4546975E+03  0.7546771E-02  0.1026330E+00
         21   -1    0    0  502  501  0.00000000000E+00  0.00000000000E+00  0.63575352974E+03  0.63575352974E+03  0.00000000000E+00 0.  1.
         21   -1    0    0  501  502 -0.00000000000E+00 -0.00000000000E+00 -0.81301070920E+02  0.81301070920E+02  0.00000000000E+00 0.  1.
      99926    2    1    2    0    0  0.00000000000E+00  0.00000000000E+00  0.55445245882E+03  0.71705460066E+03  0.45469745022E+03 0.  0.
      99925    2    3    3    0    0 -0.10743238904E+03  0.22316481642E+02  0.30727467201E+03  0.41908797508E+03  0.26301570909E+03 0.  0.
         25    1    4    4    0    0 -0.71101488041E+02  0.42925652095E+02  0.13335130101E+03  0.20081860170E+03  0.12509000000E+03 0.  0.
         25    1    3    3    0    0  0.10743238904E+03 -0.22316481642E+02  0.24717778681E+03  0.29796662558E+03  0.12509000000E+03 0.  0.
         25    1    4    4    0    0 -0.36330900997E+02 -0.20609170453E+02  0.17392337100E+03  0.21826937338E+03  0.12509000000E+03 0.  0.
<mgrwt>
<rscale>  2 0.45469745E+03</rscale>
<asrwt>0</asrwt>
<pdfrwt beam="1">  1       21 0.93493164E-01 0.45469745E+03</pdfrwt>
<pdfrwt beam="2">  1       21 0.11956040E-01 0.45469745E+03</pdfrwt>
<totfact> 0.52110708E+04</totfact>
</mgrwt>
</event>
<event>
 7    0  0.4788920E-002  0.4559798E+03  0.7546771E-02  0.1025954E+00
         21   -1    0    0  502  501  0.00000000000E+00  0.00000000000E+00  0.43218018867E+02  0.43218018867E+02  0.00000000000E+00 0. -1.
         21   -1    0    0  501  502 -0.00000000000E+00 -0.00000000000E+00 -0.12027248876E+04  0.12027248876E+04  0.00000000000E+00 0. -1.
      99926    2    1    2    0    0  0.00000000000E+00 -0.71054273576E-14 -0.11595068687E+04  0.12459429064E+04  0.45597976658E+03 0.  0.
      99925    2    3    3    0    0  0.90862230847E+02  0.54465920059E+02 -0.84433829778E+03  0.89069479928E+03  0.26307334133E+03 0.  0.
         25    1    4    4    0    0  0.21551174926E+02  0.19129939514E+02 -0.49907530573E+03  0.51531939282E+03  0.12509000000E+03 0.  0.
         25    1    3    3    0    0 -0.90862230847E+02 -0.54465920059E+02 -0.31516857091E+03  0.35524810715E+03  0.12509000000E+03 0.  0.
         25    1    4    4    0    0  0.69311055921E+02  0.35335980545E+02 -0.34526299205E+03  0.37537540646E+03  0.12509000000E+03 0.  0.
<mgrwt>
<rscale>  2 0.45597977E+03</rscale>
<asrwt>0</asrwt>
<pdfrwt beam="1">  1       21 0.63555908E-02 0.45597977E+03</pdfrwt>
<pdfrwt beam="2">  1       21 0.17687131E+00 0.45597977E+03</pdfrwt>
<totfact> 0.30492675E+04</totfact>
</mgrwt>
</event>
<event>
 7    0  0.4788920E-002  0.4704102E+03  0.7546771E-02  0.1021805E+00
         21   -1    0    0  502  501  0.00000000000E+00  0.00000000000E+00  0.38245040163E+03  0.38245040163E+03  0.00000000000E+00 0. -1.
         21   -1    0    0  501  502 -0.00000000000E+00 -0.00000000000E+00 -0.14464994289E+03  0.14464994289E+03  0.00000000000E+00 0. -1.
      99926    2    1    2    0    0  0.00000000000E+00  0.00000000000E+00  0.23780045874E+03  0.52710034452E+03  0.47041015615E+03 0.  0.
      99925    2    3    3    0    0  0.63828413733E+02  0.10336887267E+03  0.18959689079E+03  0.34618521994E+03  0.26294112511E+03 0.  0.
         25    1    3    3    0    0 -0.63828413733E+02 -0.10336887267E+03  0.48203567955E+02  0.18091512458E+03  0.12509000000E+03 0.  0.
         25    1    4    4    0    0  0.30037503502E+02  0.94116049433E+02  0.95989667793E+02  0.18606882275E+03  0.12509000000E+03 0.  0.
         25    1    4    4    0    0  0.33790910231E+02  0.92528232355E+01  0.93607222994E+02  0.16011639719E+03  0.12509000000E+03 0.  0.
<mgrwt>
<rscale>  2 0.47041016E+03</rscale>
<asrwt>0</asrwt>
<pdfrwt beam="1">  1       21 0.56242706E-01 0.47041016E+03</pdfrwt>
<pdfrwt beam="2">  1       21 0.21272050E-01 0.47041016E+03</pdfrwt>
<totfact> 0.56212128E+04</totfact>
</mgrwt>
</event>
<event>
 7    0  0.4788920E-002  0.4557142E+03  0.7546771E-02  0.1026032E+00
         21   -1    0    0  502  501  0.00000000000E+00  0.00000000000E+00  0.52549031360E+02  0.52549031360E+02  0.00000000000E+00 0.  1.
         21   -1    0    0  501  502 -0.00000000000E+00 -0.00000000000E+00 -0.98800798156E+03  0.98800798156E+03  0.00000000000E+00 0.  1.
      99926    2    1    2    0    0  0.71054273576E-14  0.35527136788E-14 -0.93545895020E+03  0.10405570129E+04  0.45571421925E+03 0.  0.
      99925    2    3    3    0    0 -0.57038305084E+02 -0.16470181310E+02 -0.36662689948E+03  0.45511526078E+03  0.26303988681E+03 0.  0.
         25    1    4    4    0    0 -0.62572627031E+02 -0.82255309438E+01 -0.15380532987E+03  0.20805427323E+03  0.12509000000E+03 0.  0.
         25    1    4    4    0    0  0.55343219465E+01 -0.82446503659E+01 -0.21282156961E+03  0.24706098755E+03  0.12509000000E+03 0.  0.
         25    1    3    3    0    0  0.57038305084E+02  0.16470181310E+02 -0.56883205072E+03  0.58544175214E+03  0.12509000000E+03 0.  0.
<mgrwt>
<rscale>  2 0.45571422E+03</rscale>
<asrwt>0</asrwt>
<pdfrwt beam="1">  1       21 0.77277989E-02 0.45571422E+03</pdfrwt>
<pdfrwt beam="2">  1       21 0.14529529E+00 0.45571422E+03</pdfrwt>
<totfact> 0.37416761E+04</totfact>
</mgrwt>
</event>
<event>
 7    0  0.4788920E-002  0.4514304E+03  0.7546771E-02  0.1027296E+00
         21   -1    0    0  502  501  0.00000000000E+00  0.00000000000E+00  0.56439745990E+03  0.56439745990E+03  0.00000000000E+00 0.  1.
         21   -1    0    0  501  502 -0.00000000000E+00 -0.00000000000E+00 -0.90268573346E+02  0.90268573346E+02  0.00000000000E+00 0.  1.
      99926    2    1    2    0    0  0.00000000000E+00  0.71054273576E-14  0.47412888655E+03  0.65466603324E+03  0.45143040883E+03 0.  0.
      99925    2    3    3    0    0 -0.92560129771E+02  0.45665809324E+02  0.24466671306E+03  0.37368001771E+03  0.26291103322E+03 0.  0.
         25    1    4    4    0    0 -0.47957930489E+02 -0.16525093233E+02  0.13148365012E+03  0.18843699253E+03  0.12509000000E+03 0.  0.
         25    1    3    3    0    0  0.92560129771E+02 -0.45665809324E+02  0.22946217349E+03  0.28098601553E+03  0.12509000000E+03 0.  0.
         25    1    4    4    0    0 -0.44602199282E+02  0.62190902557E+02  0.11318306294E+03  0.18524302518E+03  0.12509000000E+03 0.  0.
<mgrwt>
<rscale>  2 0.45143041E+03</rscale>
<asrwt>0</asrwt>
<pdfrwt beam="1">  1       21 0.82999625E-01 0.45143041E+03</pdfrwt>
<pdfrwt beam="2">  1       21 0.13274790E-01 0.45143041E+03</pdfrwt>
<totfact> 0.57022065E+04</totfact>
</mgrwt>
</event>
<event>
 7    0  0.4788920E-002  0.4428998E+03  0.7546771E-02  0.1029861E+00
         21   -1    0    0  502  501  0.00000000000E+00  0.00000000000E+00  0.67601633950E+02  0.67601633950E+02  0.00000000000E+00 0.  1.
         21   -1    0    0  501  502 -0.00000000000E+00 -0.00000000000E+00 -0.72542707194E+03  0.72542707194E+03  0.00000000000E+00 0.  1.
      99926    2    1    2    0    0  0.00000000000E+00  0.00000000000E+00 -0.65782543799E+03  0.79302870589E+03  0.44289978720E+03 0.  0.
      99925    2    3    3    0    0 -0.78681884536E+02 -0.63172580410E+02 -0.40101169412E+03  0.49007256878E+03  0.26301925782E+03 0.  0.
         25    1    4    4    0    0 -0.70830110130E+02 -0.61204081283E+02 -0.21535301792E+03  0.26605878015E+03  0.12509000000E+03 0.  0.
         25    1    3    3    0    0  0.78681884536E+02  0.63172580410E+02 -0.25681374387E+03  0.30295613711E+03  0.12509000000E+03 0.  0.
         25    1    4    4    0    0 -0.78517744052E+01 -0.19684991266E+01 -0.18565867620E+03  0.22401378863E+03  0.12509000000E+03 0.  0.
<mgrwt>
<rscale>  2 0.44289979E+03</rscale>
<asrwt>0</asrwt>
<pdfrwt beam="1">  1       21 0.99414171E-02 0.44289979E+03</pdfrwt>
<pdfrwt beam="2">  1       21 0.10668045E+00 0.44289979E+03</pdfrwt>
<totfact> 0.52956735E+04</totfact>
</mgrwt>
</event>
<event>
 7    0  0.4788920E-002  0.4340680E+03  0.7546771E-02  0.1032583E+00
         21   -1    0    0  502  501  0.00000000000E+00  0.00000000000E+00  0.41072785549E+03  0.41072785549E+03  0.00000000000E+00 0.  1.
         21   -1    0    0  501  502 -0.00000000000E+00 -0.00000000000E+00 -0.11468359504E+03  0.11468359504E+03  0.00000000000E+00 0.  1.
      99926    2    1    2    0    0  0.00000000000E+00  0.00000000000E+00  0.29604426044E+03  0.52541145053E+03  0.43406795344E+03 0.  0.
      99925    2    3    3    0    0 -0.11330244333E+02 -0.39270500575E+02  0.90155344390E+02  0.28105863081E+03  0.26305022558E+03 0.  0.
         25    1    4    4    0    0  0.15306796251E+02  0.10767238156E+02  0.24484385813E+02  0.12883021648E+03  0.12509000000E+03 0.  0.
         25    1    3    3    0    0  0.11330244333E+02  0.39270500575E+02  0.20588891605E+03  0.24435281972E+03  0.12509000000E+03 0.  0.
         25    1    4    4    0    0 -0.26637040583E+02 -0.50037738731E+02  0.65670958577E+02  0.15222841433E+03  0.12509000000E+03 0.  0.
<mgrwt>
<rscale>  2 0.43406795E+03</rscale>
<asrwt>0</asrwt>
<pdfrwt beam="1">  1       21 0.60401155E-01 0.43406795E+03</pdfrwt>
<pdfrwt beam="2">  1       21 0.16865235E-01 0.43406795E+03</pdfrwt>
<totfact> 0.75234782E+04</totfact>
</mgrwt>
</event>
<event>
 7    0  0.4788920E-002  0.4358824E+03  0.7546771E-02  0.1032018E+00
         21   -1    0    0  502  501  0.00000000000E+00  0.00000000000E+00  0.11727481477E+03  0.11727481477E+03  0.00000000000E+00 0.  1.
         21   -1    0    0  501  502 -0.00000000000E+00 -0.00000000000E+00 -0.40501763387E+03  0.40501763387E+03  0.00000000000E+00 0.  1.
      99926    2    1    2    0    0 -0.53290705182E-14  0.14210854715E-13 -0.28774281911E+03  0.52229244864E+03  0.43588240612E+03 0.  0.
      99925    2    3    3    0    0  0.86314751791E+01 -0.91151275399E+02 -0.21077580822E+03  0.34921880468E+03  0.26295298979E+03 0.  0.
         25    1    3    3    0    0 -0.86314751791E+01  0.91151275399E+02 -0.76967010883E+02  0.17307364396E+03  0.12509000000E+03 0.  0.
         25    1    4    4    0    0 -0.25035170402E+02 -0.17018348289E+02 -0.87371013284E+02  0.15555573277E+03  0.12509000000E+03 0.  0.
         25    1    4    4    0    0  0.33666645581E+02 -0.74132927110E+02 -0.12340479494E+03  0.19366307191E+03  0.12509000000E+03 0.  0.
<mgrwt>
<rscale>  2 0.43588241E+03</rscale>
<asrwt>0</asrwt>
<pdfrwt beam="1">  1       21 0.17246296E-01 0.43588241E+03</pdfrwt>
<pdfrwt beam="2">  1       21 0.59561417E-01 0.43588241E+03</pdfrwt>
<totfact> 0.74368780E+04</totfact>
</mgrwt>
</event>
<event>
 7    0  0.4788920E-002  0.4640369E+03  0.7546771E-02  0.1023617E+00
         21   -1    0    0  502  501  0.00000000000E+00  0.00000000000E+00  0.23488365966E+03  0.23488365966E+03  0.00000000000E+00 0. -1.
         21   -1    0    0  501  502 -0.00000000000E+00 -0.00000000000E+00 -0.22918819179E+03  0.22918819179E+03  0.00000000000E+00 0. -1.
      99926    2    1    2    0    0  0.00000000000E+00 -0.14210854715E-13  0.56954678738E+01  0.46407185145E+03  0.46403690043E+03 0.  0.
      99925    2    3    3    0    0 -0.75886030554E+02  0.89157918611E+02  0.36003658843E+02  0.29007783252E+03  0.26294687940E+03 0.  0.
         25    1    4    4    0    0 -0.66855739425E+02  0.65146740166E+02  0.43909817404E+02  0.16213996365E+03  0.12509000000E+03 0.  0.
         25    1    3    3    0    0  0.75886030554E+02 -0.89157918611E+02 -0.30308190969E+02  0.17399401893E+03  0.12509000000E+03 0.  0.
         25    1    4    4    0    0 -0.90302911288E+01  0.24011178445E+02 -0.79061585612E+01  0.12793786887E+03  0.12509000000E+03 0.  0.
<mgrwt>
<rscale>  2 0.46403690E+03</rscale>
<asrwt>0</asrwt>
<pdfrwt beam="1">  1       21 0.34541715E-01 0.46403690E+03</pdfrwt>
<pdfrwt beam="2">  1       21 0.33704146E-01 0.46403690E+03</pdfrwt>
<totfact> 0.63204456E+04</totfact>
</mgrwt>
</event>
<event>
 7    0  0.4788920E-002  0.4572342E+03  0.7546771E-02  0.1025586E+00
         21   -1    0    0  502  501  0.00000000000E+00  0.00000000000E+00  0.48630091396E+03  0.48630091396E+03  0.00000000000E+00 0. -1.
         21   -1    0    0  501  502 -0.00000000000E+00 -0.00000000000E+00 -0.10747621651E+03  0.10747621651E+03  0.00000000000E+00 0. -1.
      99926    2    1    2    0    0  0.35527136788E-14  0.00000000000E+00  0.37882469745E+03  0.59377713047E+03  0.45723421708E+03 0.  0.
      99925    2    3    3    0    0  0.22751662084E+02 -0.74554719301E+02  0.34815956514E+03  0.44323177937E+03  0.26298913124E+03 0.  0.
         25    1    4    4    0    0  0.18364370292E+02  0.26263513531E+01  0.17780774501E+03  0.21819085706E+03  0.12509000000E+03 0.  0.
         25    1    4    4    0    0  0.43872917921E+01 -0.77181070654E+02  0.17035182012E+03  0.22504092231E+03  0.12509000000E+03 0.  0.
         25    1    3    3    0    0 -0.22751662084E+02  0.74554719301E+02  0.30665132319E+02  0.15054535110E+03  0.12509000000E+03 0.  0.
<mgrwt>
<rscale>  2 0.45723422E+03</rscale>
<asrwt>0</asrwt>
<pdfrwt beam="1">  1       21 0.71514839E-01 0.45723422E+03</pdfrwt>
<pdfrwt beam="2">  1       21 0.15805326E-01 0.45723422E+03</pdfrwt>
<totfact> 0.58031505E+04</totfact>
</mgrwt>
</event>
<event>
 7    0  0.4788920E-002  0.4589485E+03  0.7546771E-02  0.1025087E+00
         21   -1    0    0  502  501  0.00000000000E+00  0.00000000000E+00  0.36846745327E+03  0.36846745327E+03  0.00000000000E+00 0.  1.
         21   -1    0    0  501  502 -0.00000000000E+00 -0.00000000000E+00 -0.14291201088E+03  0.14291201088E+03  0.00000000000E+00 0.  1.
      99926    2    1    2    0    0  0.00000000000E+00  0.00000000000E+00  0.22555544239E+03  0.51137946415E+03  0.45894847071E+03 0.  0.
      99925    2    3    3    0    0 -0.68147574631E+02  0.86551914014E+02  0.18467340180E+03  0.33975727710E+03  0.26305021623E+03 0.  0.
         25    1    4    4    0    0  0.77571161213E+01  0.42998043669E+02  0.83726947127E+02  0.15673772483E+03  0.12509000000E+03 0.  0.
         25    1    4    4    0    0 -0.75904690752E+02  0.43553870345E+02  0.10094645468E+03  0.18301955227E+03  0.12509000000E+03 0.  0.
         25    1    3    3    0    0  0.68147574631E+02 -0.86551914014E+02  0.40882040582E+02  0.17162218706E+03  0.12509000000E+03 0.  0.
<mgrwt>
<rscale>  2 0.45894847E+03</rscale>
<asrwt>0</asrwt>
<pdfrwt beam="1">  1       21 0.54186390E-01 0.45894847E+03</pdfrwt>
<pdfrwt beam="2">  1       21 0.21016472E-01 0.45894847E+03</pdfrwt>
<totfact> 0.62496843E+04</totfact>
</mgrwt>
</event>
<event>
 7    0  0.4788920E-002  0.4535259E+03  0.7546771E-02  0.1026676E+00
         21   -1    0    0  502  501  0.00000000000E+00  0.00000000000E+00  0.12777988085E+03  0.12777988085E+03  0.00000000000E+00 0.  1.
         21   -1    0    0  501  502 -0.00000000000E+00 -0.00000000000E+00 -0.40242199529E+03  0.40242199529E+03  0.00000000000E+00 0.  1.
      99926    2    1    2    0    0 -0.17763568394E-14  0.00000000000E+00 -0.27464211444E+03  0.53020187615E+03  0.45352589611E+03 0.  0.
      99925    2    3    3    0    0  0.92631322326E+01 -0.10062131273E+03 -0.11738741602E+03  0.30528633095E+03  0.26307695497E+03 0.  0.
         25    1    4    4    0    0 -0.17744799796E+02 -0.15408234605E+02 -0.64565878661E+02  0.14271843749E+03  0.12509000000E+03 0.  0.
         25    1    4    4    0    0  0.27007932028E+02 -0.85213078122E+02 -0.52821537355E+02  0.16256789346E+03  0.12509000000E+03 0.  0.
         25    1    3    3    0    0 -0.92631322326E+01  0.10062131273E+03 -0.15725469842E+03  0.22491554519E+03  0.12509000000E+03 0.  0.
<mgrwt>
<rscale>  2 0.45352590E+03</rscale>
<asrwt>0</asrwt>
<pdfrwt beam="1">  1       21 0.18791159E-01 0.45352590E+03</pdfrwt>
<pdfrwt beam="2">  1       21 0.59179707E-01 0.45352590E+03</pdfrwt>
<totfact> 0.63936585E+04</totfact>
</mgrwt>
</event>
<event>
 7    0  0.4788920E-002  0.4547760E+03  0.7546771E-02  0.1026307E+00
         21   -1    0    0  502  501  0.00000000000E+00  0.00000000000E+00  0.38887590504E+03  0.38887590504E+03  0.00000000000E+00 0.  1.
         21   -1    0    0  501  502 -0.00000000000E+00 -0.00000000000E+00 -0.13296091912E+03  0.13296091912E+03  0.00000000000E+00 0.  1.
      99926    2    1    2    0    0  0.17763568394E-14  0.00000000000E+00  0.25591498592E+03  0.52183682416E+03  0.45477597895E+03 0.  0.
      99925    2    3    3    0    0  0.11682638007E+02  0.95736416335E+02  0.93602698639E+02  0.29535342047E+03  0.26300234286E+03 0.  0.
         25    1    3    3    0    0 -0.11682638007E+02 -0.95736416335E+02  0.16231228728E+03  0.22648340368E+03  0.12509000000E+03 0.  0.
         25    1    4    4    0    0  0.89135110506E+01  0.30658402342E+02  0.83940123993E+02  0.15398974261E+03  0.12509000000E+03 0.  0.
         25    1    4    4    0    0  0.27691269568E+01  0.65078013992E+02  0.96625746461E+01  0.14136367786E+03  0.12509000000E+03 0.  0.
<mgrwt>
<rscale>  2 0.45477598E+03</rscale>
<asrwt>0</asrwt>
<pdfrwt beam="1">  1       21 0.57187633E-01 0.45477598E+03</pdfrwt>
<pdfrwt beam="2">  1       21 0.19553076E-01 0.45477598E+03</pdfrwt>
<totfact> 0.63875718E+04</totfact>
</mgrwt>
</event>
<event>
 6    0  0.4788920E-002  0.4574172E+03  0.7546771E-02  0.1025533E+00
         21   -1    0    0  502  501  0.00000000000E+00  0.00000000000E+00  0.18036445303E+03  0.18036445303E+03  0.00000000000E+00 0. -1.
         21   -1    0    0  501  502 -0.00000000000E+00 -0.00000000000E+00 -0.29001069498E+03  0.29001069498E+03  0.00000000000E+00 0. -1.
      99926    2    1    2    0    0  0.00000000000E+00  0.00000000000E+00 -0.10964624195E+03  0.47037514801E+03  0.45741718539E+03 0.  0.
         25    1    3    3    0    0  0.49042699089E+02 -0.10975228877E+02 -0.40043922410E+02  0.14062953390E+03  0.12509000000E+03 0.  0.
         25    1    3    3    0    0 -0.65447334040E+02  0.82725655861E+02 -0.83938457209E+02  0.18390231203E+03  0.12509000000E+03 0.  0.
         25    1    3    3    0    0  0.16404634951E+02 -0.71750426984E+02  0.14336137665E+02  0.14584330209E+03  0.12509000000E+03 0.  0.
<mgrwt>
<rscale>  2 0.45741719E+03</rscale>
<asrwt>0</asrwt>
<pdfrwt beam="1">  1       21 0.26524185E-01 0.45741719E+03</pdfrwt>
<pdfrwt beam="2">  1       21 0.42648631E-01 0.45741719E+03</pdfrwt>
<totfact> 0.66130761E+04</totfact>
</mgrwt>
</event>
<event>
 7    0  0.4788920E-002  0.4528106E+03  0.7546771E-02  0.1026887E+00
         21   -1    0    0  502  501  0.00000000000E+00  0.00000000000E+00  0.53707665111E+02  0.53707665111E+02  0.00000000000E+00 0. -1.
         21   -1    0    0  501  502 -0.00000000000E+00 -0.00000000000E+00 -0.95441411627E+03  0.95441411627E+03  0.00000000000E+00 0. -1.
      99926    2    1    2    0    0  0.14210854715E-13  0.00000000000E+00 -0.90070645116E+03  0.10081217814E+04  0.45281057291E+03 0.  0.
      99925    2    3    3    0    0  0.68706239185E+02 -0.33438684242E+02 -0.74805938192E+03  0.79649161162E+03  0.26261636582E+03 0.  0.
         25    1    3    3    0    0 -0.68706239185E+02  0.33438684242E+02 -0.15264706925E+03  0.21163016977E+03  0.12509000000E+03 0.  0.
         25    1    4    4    0    0  0.74397393651E+02 -0.27234850864E+02 -0.41375552148E+03  0.43945175952E+03  0.12509000000E+03 0.  0.
         25    1    4    4    0    0 -0.56911544656E+01 -0.62038333784E+01 -0.33430386043E+03  0.35703985210E+03  0.12509000000E+03 0.  0.
<mgrwt>
<rscale>  2 0.45281057E+03</rscale>
<asrwt>0</asrwt>
<pdfrwt beam="1">  1       21 0.78981863E-02 0.45281057E+03</pdfrwt>
<pdfrwt beam="2">  1       21 0.14035501E+00 0.45281057E+03</pdfrwt>
<totfact> 0.39523794E+04</totfact>
</mgrwt>
</event>
<event>
 7    0  0.4788920E-002  0.4535814E+03  0.7546771E-02  0.1026659E+00
         21   -1    0    0  502  501  0.00000000000E+00  0.00000000000E+00  0.36500599376E+03  0.36500599376E+03  0.00000000000E+00 0. -1.
         21   -1    0    0  501  502 -0.00000000000E+00 -0.00000000000E+00 -0.14091281712E+03  0.14091281712E+03  0.00000000000E+00 0. -1.
      99926    2    1    2    0    0 -0.35527136788E-14  0.14210854715E-13  0.22409317665E+03  0.50591881088E+03  0.45358140546E+03 0.  0.
      99925    2    3    3    0    0  0.28137029067E+02 -0.10542482810E+03  0.10796156219E+03  0.30333513246E+03  0.26163030575E+03 0.  0.
         25    1    4    4    0    0  0.36353144848E+02 -0.21578286993E+02  0.60388433720E+02  0.14519450622E+03  0.12509000000E+03 0.  0.
         25    1    4    4    0    0 -0.82161157806E+01 -0.83846541109E+02  0.47573128473E+02  0.15814062624E+03  0.12509000000E+03 0.  0.
         25    1    3    3    0    0 -0.28137029067E+02  0.10542482810E+03  0.11613161445E+03  0.20258367842E+03  0.12509000000E+03 0.  0.
<mgrwt>
<rscale>  2 0.45358141E+03</rscale>
<asrwt>0</asrwt>
<pdfrwt beam="1">  1       21 0.53677352E-01 0.45358141E+03</pdfrwt>
<pdfrwt beam="2">  1       21 0.20722473E-01 0.45358141E+03</pdfrwt>
<totfact> 0.65592236E+04</totfact>
</mgrwt>
</event>
<event>
 7    0  0.4788920E-002  0.4536339E+03  0.7546771E-02  0.1026644E+00
         21   -1    0    0  502  501  0.00000000000E+00  0.00000000000E+00  0.57757338708E+02  0.57757338708E+02  0.00000000000E+00 0.  1.
         21   -1    0    0  501  502 -0.00000000000E+00 -0.00000000000E+00 -0.89072538121E+03  0.89072538121E+03  0.00000000000E+00 0.  1.
      99926    2    1    2    0    0 -0.71054273576E-14  0.00000000000E+00 -0.83296804250E+03  0.94848271992E+03  0.45363389441E+03 0.  0.
      99925    2    3    3    0    0  0.54005036673E+02 -0.96212287079E+02 -0.48665353410E+03  0.56409412097E+03  0.26305354377E+03 0.  0.
         25    1    4    4    0    0  0.17710083416E+02 -0.65067820950E+02 -0.32120511667E+03  0.35123738903E+03  0.12509000000E+03 0.  0.
         25    1    4    4    0    0  0.36294953257E+02 -0.31144466129E+02 -0.16544841743E+03  0.21285673194E+03  0.12509000000E+03 0.  0.
         25    1    3    3    0    0 -0.54005036673E+02  0.96212287079E+02 -0.34631450841E+03  0.38438859895E+03  0.12509000000E+03 0.  0.
<mgrwt>
<rscale>  2 0.45363389E+03</rscale>
<asrwt>0</asrwt>
<pdfrwt beam="1">  1       21 0.84937264E-02 0.45363389E+03</pdfrwt>
<pdfrwt beam="2">  1       21 0.13098903E+00 0.45363389E+03</pdfrwt>
<totfact> 0.41645417E+04</totfact>
</mgrwt>
</event>
<event>
 7    0  0.4788920E-002  0.4561857E+03  0.7546771E-02  0.1025893E+00
         21   -1    0    0  502  501  0.00000000000E+00  0.00000000000E+00  0.35830699236E+02  0.35830699236E+02  0.00000000000E+00 0.  1.
         21   -1    0    0  501  502 -0.00000000000E+00 -0.00000000000E+00 -0.14520045160E+04  0.14520045160E+04  0.00000000000E+00 0.  1.
      99926    2    1    2    0    0 -0.14210854715E-13 -0.17763568394E-14 -0.14161738168E+04  0.14878352153E+04  0.45618565126E+03 0.  0.
      99925    2    3    3    0    0  0.11130621489E+03  0.15787745384E+02 -0.95670822221E+03  0.99855567647E+03  0.26302944739E+03 0.  0.
         25    1    3    3    0    0 -0.11130621489E+03 -0.15787745384E+02 -0.45946559459E+03  0.48927953880E+03  0.12509000000E+03 0.  0.
         25    1    4    4    0    0  0.68299841244E+02  0.75512490274E+01 -0.63051723055E+03  0.64646838731E+03  0.12509000000E+03 0.  0.
         25    1    4    4    0    0  0.43006373643E+02  0.82364963566E+01 -0.32619099166E+03  0.35208728916E+03  0.12509000000E+03 0.  0.
<mgrwt>
<rscale>  2 0.45618565E+03</rscale>
<asrwt>0</asrwt>
<pdfrwt beam="1">  1       21 0.52692221E-02 0.45618565E+03</pdfrwt>
<pdfrwt beam="2">  1       21 0.21353001E+00 0.45618565E+03</pdfrwt>
<totfact> 0.23858370E+04</totfact>
</mgrwt>
</event>
<event>
 7    0  0.4788920E-002  0.4598873E+03  0.7546771E-02  0.1024814E+00
         21   -1    0    0  502  501  0.00000000000E+00  0.00000000000E+00  0.44896789880E+03  0.44896789880E+03  0.00000000000E+00 0.  1.
         21   -1    0    0  501  502 -0.00000000000E+00 -0.00000000000E+00 -0.11776808343E+03  0.11776808343E+03  0.00000000000E+00 0.  1.
      99926    2    1    2    0    0  0.00000000000E+00  0.00000000000E+00  0.33119981537E+03  0.56673598223E+03  0.45988732952E+03 0.  0.
      99925    2    3    3    0    0 -0.84442307183E+02 -0.70962139341E+02  0.15664832856E+03  0.32531962382E+03  0.26292209937E+03 0.  0.
         25    1    4    4    0    0 -0.68607157757E+02 -0.59278118144E+01  0.87782047840E+02  0.16761645824E+03  0.12509000000E+03 0.  0.
         25    1    4    4    0    0 -0.15835149426E+02 -0.65034327527E+02  0.68866280725E+02  0.15770316558E+03  0.12509000000E+03 0.  0.
         25    1    3    3    0    0  0.84442307183E+02  0.70962139341E+02  0.17455148681E+03  0.24141635841E+03  0.12509000000E+03 0.  0.
<mgrwt>
<rscale>  2 0.45988733E+03</rscale>
<asrwt>0</asrwt>
<pdfrwt beam="1">  1       21 0.66024690E-01 0.45988733E+03</pdfrwt>
<pdfrwt beam="2">  1       21 0.17318836E-01 0.45988733E+03</pdfrwt>
<totfact> 0.58480565E+04</totfact>
</mgrwt>
</event>
<event>
 7    0  0.4788920E-002  0.4535656E+03  0.7546771E-02  0.1026664E+00
         21   -1    0    0  502  501  0.00000000000E+00  0.00000000000E+00  0.58358466455E+03  0.58358466455E+03  0.00000000000E+00 0.  1.
         21   -1    0    0  501  502 -0.00000000000E+00 -0.00000000000E+00 -0.88128509535E+02  0.88128509535E+02  0.00000000000E+00 0.  1.
      99926    2    1    2    0    0 -0.14210854715E-13 -0.14210854715E-13  0.49545615501E+03  0.67171317408E+03  0.45356563659E+03 0.  0.
      99925    2    3    3    0    0  0.70323180131E+02  0.77980293013E+02  0.36773549118E+03  0.46438167181E+03  0.26342868083E+03 0.  0.
         25    1    4    4    0    0  0.73799067166E+01  0.69463605741E+02  0.18860175318E+03  0.23684970962E+03  0.12509000000E+03 0.  0.
         25    1    4    4    0    0  0.62943273414E+02  0.85166872713E+01  0.17913373799E+03  0.22753196219E+03  0.12509000000E+03 0.  0.
         25    1    3    3    0    0 -0.70323180131E+02 -0.77980293013E+02  0.12772066383E+03  0.20733150227E+03  0.12509000000E+03 0.  0.
<mgrwt>
<rscale>  2 0.45356564E+03</rscale>
<asrwt>0</asrwt>
<pdfrwt beam="1">  1       21 0.85821272E-01 0.45356564E+03</pdfrwt>
<pdfrwt beam="2">  1       21 0.12960075E-01 0.45356564E+03</pdfrwt>
<totfact> 0.55086186E+04</totfact>
</mgrwt>
</event>
<event>
 7    0  0.4788920E-002  0.4646436E+03  0.7546771E-02  0.1023443E+00
         21   -1    0    0  502  501  0.00000000000E+00  0.00000000000E+00  0.25928815646E+03  0.25928815646E+03  0.00000000000E+00 0.  1.
         21   -1    0    0  501  502 -0.00000000000E+00 -0.00000000000E+00 -0.20816001314E+03  0.20816001314E+03  0.00000000000E+00 0.  1.
      99926    2    1    2    0    0  0.14210854715E-13  0.00000000000E+00  0.51128143317E+02  0.46744816961E+03  0.46464363143E+03 0.  0.
      99925    2    3    3    0    0 -0.10490056865E+03  0.26069762680E+02 -0.24797401262E+02  0.28552522369E+03  0.26310830550E+03 0.  0.
         25    1    3    3    0    0  0.10490056865E+03 -0.26069762680E+02  0.75925544579E+02  0.18192294591E+03  0.12509000000E+03 0.  0.
         25    1    4    4    0    0 -0.89518785161E+02 -0.75504040650E+01 -0.13555814407E+02  0.15460235995E+03  0.12509000000E+03 0.  0.
         25    1    4    4    0    0 -0.15381783493E+02  0.33620166745E+02 -0.11241586856E+02  0.13092286374E+03  0.12509000000E+03 0.  0.
<mgrwt>
<rscale>  2 0.46464363E+03</rscale>
<asrwt>0</asrwt>
<pdfrwt beam="1">  1       21 0.38130611E-01 0.46464363E+03</pdfrwt>
<pdfrwt beam="2">  1       21 0.30611767E-01 0.46464363E+03</pdfrwt>
<totfact> 0.62679928E+04</totfact>
</mgrwt>
</event>
<event>
 7    0  0.4788920E-002  0.4606160E+03  0.7546771E-02  0.1024603E+00
         21   -1    0    0  502  501  0.00000000000E+00  0.00000000000E+00  0.10618885947E+03  0.10618885947E+03  0.00000000000E+00 0. -1.
         21   -1    0    0  501  502 -0.00000000000E+00 -0.00000000000E+00 -0.49950412699E+03  0.49950412699E+03  0.00000000000E+00 0. -1.
      99926    2    1    2    0    0  0.00000000000E+00  0.00000000000E+00 -0.39331526753E+03  0.60569298646E+03  0.46061599427E+03 0.  0.
      99925    2    3    3    0    0  0.87672794088E+02  0.79528614572E+02 -0.24696585360E+03  0.37969082183E+03  0.26298606043E+03 0.  0.
         25    1    3    3    0    0 -0.87672794088E+02 -0.79528614572E+02 -0.14634941393E+03  0.22600216463E+03  0.12509000000E+03 0.  0.
         25    1    4    4    0    0  0.19598634485E+02  0.28118576287E+02 -0.15671192370E+03  0.20342294840E+03  0.12509000000E+03 0.  0.
         25    1    4    4    0    0  0.68074159604E+02  0.51410038285E+02 -0.90253929905E+02  0.17626787344E+03  0.12509000000E+03 0.  0.
<mgrwt>
<rscale>  2 0.46061599E+03</rscale>
<asrwt>0</asrwt>
<pdfrwt beam="1">  1       21 0.15616009E-01 0.46061599E+03</pdfrwt>
<pdfrwt beam="2">  1       21 0.73456489E-01 0.46061599E+03</pdfrwt>
<totfact> 0.55811480E+04</totfact>
</mgrwt>
</event>
<event>
 7    0  0.4788920E-002  0.4499085E+03  0.7546771E-02  0.1027749E+00
         21   -1    0    0  502  501  0.00000000000E+00  0.00000000000E+00  0.26429100313E+03  0.26429100313E+03  0.00000000000E+00 0. -1.
         21   -1    0    0  501  502 -0.00000000000E+00 -0.00000000000E+00 -0.19147235825E+03  0.19147235825E+03  0.00000000000E+00 0. -1.
      99926    2    1    2    0    0 -0.17763568394E-14  0.00000000000E+00  0.72818644886E+02  0.45576336138E+03  0.44990853130E+03 0.  0.
      99925    2    3    3    0    0  0.15573223974E+02 -0.65055837570E+02 -0.40658129955E+02  0.27410633885E+03  0.26269071959E+03 0.  0.
         25    1    4    4    0    0 -0.19287959695E+01 -0.58617352179E+02  0.84964310878E+01  0.13841752661E+03  0.12509000000E+03 0.  0.
         25    1    4    4    0    0  0.17502019944E+02 -0.64384853915E+01 -0.49154561043E+02  0.13568881224E+03  0.12509000000E+03 0.  0.
         25    1    3    3    0    0 -0.15573223974E+02  0.65055837570E+02  0.11347677484E+03  0.18165702253E+03  0.12509000000E+03 0.  0.
<mgrwt>
<rscale>  2 0.44990853E+03</rscale>
<asrwt>0</asrwt>
<pdfrwt beam="1">  1       21 0.38866324E-01 0.44990853E+03</pdfrwt>
<pdfrwt beam="2">  1       21 0.28157700E-01 0.44990853E+03</pdfrwt>
<totfact> 0.71343358E+04</totfact>
</mgrwt>
</event>
<event>
 7    0  0.4788920E-002  0.4440163E+03  0.7546771E-02  0.1029522E+00
         21   -1    0    0  502  501  0.00000000000E+00  0.00000000000E+00  0.19299205994E+04  0.19299205994E+04  0.00000000000E+00 0.  1.
         21   -1    0    0  501  502 -0.00000000000E+00 -0.00000000000E+00 -0.25538680909E+02  0.25538680909E+02  0.00000000000E+00 0.  1.
      99926    2    1    2    0    0  0.00000000000E+00  0.00000000000E+00  0.19043819185E+04  0.19554592803E+04  0.44401633469E+03 0.  0.
      99925    2    3    3    0    0  0.81389520819E+02  0.42311628529E+02  0.14008000431E+04  0.14285278414E+04  0.26464410979E+03 0.  0.
         25    1    4    4    0    0  0.79984937068E+02  0.32397084497E+02  0.66874719652E+03  0.68579696864E+03  0.12509000000E+03 0.  0.
         25    1    4    4    0    0  0.14045837506E+01  0.99145440315E+01  0.73205284657E+03  0.74273087274E+03  0.12509000000E+03 0.  0.
         25    1    3    3    0    0 -0.81389520819E+02 -0.42311628529E+02  0.50358187542E+03  0.52693143896E+03  0.12509000000E+03 0.  0.
<mgrwt>
<rscale>  2 0.44401633E+03</rscale>
<asrwt>0</asrwt>
<pdfrwt beam="1">  1       21 0.28381175E+00 0.44401633E+03</pdfrwt>
<pdfrwt beam="2">  1       21 0.37556897E-02 0.44401633E+03</pdfrwt>
<totfact> 0.15751633E+04</totfact>
</mgrwt>
</event>
<event>
 7    0  0.4788920E-002  0.4510595E+03  0.7546771E-02  0.1027407E+00
         21   -1    0    0  502  501  0.00000000000E+00  0.00000000000E+00  0.28925752868E+02  0.28925752868E+02  0.00000000000E+00 0.  1.
         21   -1    0    0  501  502 -0.00000000000E+00 -0.00000000000E+00 -0.17584214396E+04  0.17584214396E+04  0.00000000000E+00 0.  1.
      99926    2    1    2    0    0  0.35527136788E-14 -0.17763568394E-14 -0.17294956867E+04  0.17873471925E+04  0.45105948167E+03 0.  0.
      99925    2    3    3    0    0 -0.17421055804E+02  0.12800516495E+02 -0.66719269050E+03  0.71748621537E+03  0.26300767401E+03 0.  0.
         25    1    4    4    0    0 -0.35534314097E+02 -0.20907909527E+02 -0.37127208375E+03  0.39394199628E+03  0.12509000000E+03 0.  0.
         25    1    4    4    0    0  0.18113258293E+02  0.33708426022E+02 -0.29592060675E+03  0.32354421910E+03  0.12509000000E+03 0.  0.
         25    1    3    3    0    0  0.17421055804E+02 -0.12800516495E+02 -0.10623029962E+04  0.10698609771E+04  0.12509000000E+03 0.  0.
<mgrwt>
<rscale>  2 0.45105948E+03</rscale>
<asrwt>0</asrwt>
<pdfrwt beam="1">  1       21 0.42537856E-02 0.45105948E+03</pdfrwt>
<pdfrwt beam="2">  1       21 0.25859148E+00 0.45105948E+03</pdfrwt>
<totfact> 0.18049722E+04</totfact>
</mgrwt>
</event>
<event>
 7    0  0.4788920E-002  0.4495190E+03  0.7546771E-02  0.1027866E+00
         21   -1    0    0  502  501  0.00000000000E+00  0.00000000000E+00  0.91913484407E+03  0.91913484407E+03  0.00000000000E+00 0. -1.
         21   -1    0    0  501  502 -0.00000000000E+00 -0.00000000000E+00 -0.54961295425E+02  0.54961295425E+02  0.00000000000E+00 0. -1.
      99926    2    1    2    0    0  0.00000000000E+00 -0.35527136788E-14  0.86417354864E+03  0.97409613949E+03  0.44951903942E+03 0.  0.
      99925    2    3    3    0    0 -0.54271952094E+02 -0.25945273699E+02  0.74072278714E+03  0.78833769250E+03  0.26303510798E+03 0.  0.
         25    1    4    4    0    0 -0.53939723465E+02  0.17137467824E+02  0.39335643606E+03  0.41662930821E+03  0.12509000000E+03 0.  0.
         25    1    3    3    0    0  0.54271952094E+02  0.25945273699E+02  0.12345076151E+03  0.18575844699E+03  0.12509000000E+03 0.  0.
         25    1    4    4    0    0 -0.33222862909E+00 -0.43082741523E+02  0.34736635108E+03  0.37170838429E+03  0.12509000000E+03 0.  0.
<mgrwt>
<rscale>  2 0.44951904E+03</rscale>
<asrwt>0</asrwt>
<pdfrwt beam="1">  1       21 0.13516688E+00 0.44951904E+03</pdfrwt>
<pdfrwt beam="2">  1       21 0.80825440E-02 0.44951904E+03</pdfrwt>
<totfact> 0.41948916E+04</totfact>
</mgrwt>
</event>
<event>
 7    0  0.4788920E-002  0.4593436E+03  0.7546771E-02  0.1024972E+00
         21   -1    0    0  502  501  0.00000000000E+00  0.00000000000E+00  0.82611974981E+02  0.82611974981E+02  0.00000000000E+00 0.  1.
         21   -1    0    0  501  502 -0.00000000000E+00 -0.00000000000E+00 -0.63851678622E+03  0.63851678622E+03  0.00000000000E+00 0.  1.
      99926    2    1    2    0    0  0.22204460493E-14  0.00000000000E+00 -0.55590481124E+03  0.72112876120E+03  0.45934358717E+03 0.  0.
      99925    2    3    3    0    0 -0.12808499616E+01  0.11681872645E+03 -0.36321715359E+03  0.46339964578E+03  0.26299101813E+03 0.  0.
         25    1    3    3    0    0  0.12808499616E+01 -0.11681872645E+03 -0.19268765765E+03  0.25772911542E+03  0.12509000000E+03 0.  0.
         25    1    4    4    0    0 -0.39618983915E+02  0.56019963666E+02 -0.16302531424E+03  0.21663947331E+03  0.12509000000E+03 0.  0.
         25    1    4    4    0    0  0.38338133953E+02  0.60798762783E+02 -0.20019183935E+03  0.24676017246E+03  0.12509000000E+03 0.  0.
<mgrwt>
<rscale>  2 0.45934359E+03</rscale>
<asrwt>0</asrwt>
<pdfrwt beam="1">  1       21 0.12148820E-01 0.45934359E+03</pdfrwt>
<pdfrwt beam="2">  1       21 0.93899524E-01 0.45934359E+03</pdfrwt>
<totfact> 0.50039226E+04</totfact>
</mgrwt>
</event>
<event>
 7    0  0.4788920E-002  0.4613910E+03  0.7546771E-02  0.1024379E+00
         21   -1    0    0  502  501  0.00000000000E+00  0.00000000000E+00  0.10186165595E+03  0.10186165595E+03  0.00000000000E+00 0. -1.
         21   -1    0    0  501  502 -0.00000000000E+00 -0.00000000000E+00 -0.52247748361E+03  0.52247748361E+03  0.00000000000E+00 0. -1.
      99926    2    1    2    0    0 -0.14210854715E-13  0.71054273576E-14 -0.42061582766E+03  0.62433913956E+03  0.46139103450E+03 0.  0.
      99925    2    3    3    0    0  0.10407412491E+03  0.52682305330E+02 -0.29579342265E+03  0.41259639550E+03  0.26293571064E+03 0.  0.
         25    1    4    4    0    0  0.18321929906E+02  0.72616786817E+01 -0.10373173809E+03  0.16369546933E+03  0.12509000000E+03 0.  0.
         25    1    3    3    0    0 -0.10407412491E+03 -0.52682305330E+02 -0.12482240501E+03  0.21174274406E+03  0.12509000000E+03 0.  0.
         25    1    4    4    0    0  0.85752195001E+02  0.45420626649E+02 -0.19206168456E+03  0.24890092617E+03  0.12509000000E+03 0.  0.
<mgrwt>
<rscale>  2 0.46139103E+03</rscale>
<asrwt>0</asrwt>
<pdfrwt beam="1">  1       21 0.14979655E-01 0.46139103E+03</pdfrwt>
<pdfrwt beam="2">  1       21 0.76834923E-01 0.46139103E+03</pdfrwt>
<totfact> 0.54406684E+04</totfact>
</mgrwt>
</event>
<event>
 7    0  0.4788920E-002  0.4076307E+03  0.7546771E-02  0.1041169E+00
         21   -1    0    0  502  501  0.00000000000E+00  0.00000000000E+00  0.21410125999E+03  0.21410125999E+03  0.00000000000E+00 0.  1.
         21   -1    0    0  501  502 -0.00000000000E+00 -0.00000000000E+00 -0.19402362785E+03  0.19402362785E+03  0.00000000000E+00 0.  1.
      99926    2    1    2    0    0  0.00000000000E+00  0.00000000000E+00  0.20077632145E+02  0.40812488784E+03  0.40763073088E+03 0.  0.
      99925    2    3    3    0    0  0.51960614637E+02  0.17811164923E+02  0.33488878283E+02  0.27084957071E+03  0.26309854031E+03 0.  0.
         25    1    4    4    0    0  0.20743974738E+02  0.47977567235E+02  0.65583473163E+01  0.13573017154E+03  0.12509000000E+03 0.  0.
         25    1    3    3    0    0 -0.51960614637E+02 -0.17811164923E+02 -0.13411246138E+02  0.13727531713E+03  0.12509000000E+03 0.  0.
         25    1    4    4    0    0  0.31216639899E+02 -0.30166402312E+02  0.26930530967E+02  0.13511939917E+03  0.12509000000E+03 0.  0.
<mgrwt>
<rscale>  2 0.40763073E+03</rscale>
<asrwt>0</asrwt>
<pdfrwt beam="1">  1       21 0.31485480E-01 0.40763073E+03</pdfrwt>
<pdfrwt beam="2">  1       21 0.28532886E-01 0.40763073E+03</pdfrwt>
<totfact> 0.10729808E+05</totfact>
</mgrwt>
</event>
<event>
 7    0  0.4788920E-002  0.4554073E+03  0.7546771E-02  0.1026122E+00
         21   -1    0    0  502  501  0.00000000000E+00  0.00000000000E+00  0.19702739491E+03  0.19702739491E+03  0.00000000000E+00 0. -1.
         21   -1    0    0  501  502 -0.00000000000E+00 -0.00000000000E+00 -0.26315610739E+03  0.26315610739E+03  0.00000000000E+00 0. -1.
      99926    2    1    2    0    0  0.00000000000E+00 -0.35527136788E-14 -0.66128712483E+02  0.46018350229E+03  0.45540734422E+03 0.  0.
      99925    2    3    3    0    0  0.62980279858E+02  0.17140802178E+02 -0.13554032338E+03  0.30293909833E+03  0.26294599310E+03 0.  0.
         25    1    4    4    0    0  0.15619601753E+02  0.45270373923E+02 -0.74223807885E+02  0.15313412576E+03  0.12509000000E+03 0.  0.
         25    1    4    4    0    0  0.47360678105E+02 -0.28129571745E+02 -0.61316515490E+02  0.14980497258E+03  0.12509000000E+03 0.  0.
         25    1    3    3    0    0 -0.62980279858E+02 -0.17140802178E+02  0.69411610892E+02  0.15724440396E+03  0.12509000000E+03 0.  0.
<mgrwt>
<rscale>  2 0.45540734E+03</rscale>
<asrwt>0</asrwt>
<pdfrwt beam="1">  1       21 0.28974617E-01 0.45540734E+03</pdfrwt>
<pdfrwt beam="2">  1       21 0.38699427E-01 0.45540734E+03</pdfrwt>
<totfact> 0.67946216E+04</totfact>
</mgrwt>
</event>
<event>
 7    0  0.4788920E-002  0.4553436E+03  0.7546771E-02  0.1026140E+00
         21   -1    0    0  502  501  0.00000000000E+00  0.00000000000E+00  0.20288278498E+02  0.20288278498E+02  0.00000000000E+00 0. -1.
         21   -1    0    0  501  502 -0.00000000000E+00 -0.00000000000E+00 -0.25548965841E+04  0.25548965841E+04  0.00000000000E+00 0. -1.
      99926    2    1    2    0    0  0.00000000000E+00  0.71054273576E-14 -0.25346083056E+04  0.25751848626E+04  0.45534362159E+03 0.  0.
      99925    2    3    3    0    0  0.65286760042E+02 -0.62207298223E+02 -0.12218819953E+04  0.12534322447E+04  0.26450836035E+03 0.  0.
         25    1    4    4    0    0  0.54198795073E+02 -0.64105744494E+02 -0.75950365307E+03  0.77429991799E+03  0.12509000000E+03 0.  0.
         25    1    4    4    0    0  0.11087964969E+02  0.18984462707E+01 -0.46237834220E+03  0.47913232671E+03  0.12509000000E+03 0.  0.
         25    1    3    3    0    0 -0.65286760042E+02  0.62207298223E+02 -0.13127263103E+04  0.13217526179E+04  0.12509000000E+03 0.  0.
<mgrwt>
<rscale>  2 0.45534362E+03</rscale>
<asrwt>0</asrwt>
<pdfrwt beam="1">  1       21 0.29835707E-02 0.45534362E+03</pdfrwt>
<pdfrwt beam="2">  1       21 0.37572005E+00 0.45534362E+03</pdfrwt>
<totfact> 0.63757993E+03</totfact>
</mgrwt>
</event>
<event>
 7    0  0.4788920E-002  0.4458754E+03  0.7546771E-02  0.1028959E+00
         21   -1    0    0  502  501  0.00000000000E+00  0.00000000000E+00  0.54911891106E+02  0.54911891106E+02  0.00000000000E+00 0. -1.
         21   -1    0    0  501  502 -0.00000000000E+00 -0.00000000000E+00 -0.90510843164E+03  0.90510843164E+03  0.00000000000E+00 0. -1.
      99926    2    1    2    0    0 -0.71054273576E-14  0.00000000000E+00 -0.85019654053E+03  0.96002032274E+03  0.44587538904E+03 0.  0.
      99925    2    3    3    0    0  0.49002451276E+02  0.92301944933E+02 -0.53969548358E+03  0.60933627159E+03  0.26286610204E+03 0.  0.
         25    1    4    4    0    0 -0.14905250331E+00  0.64892050728E+02 -0.21754137431E+03  0.25919636977E+03  0.12509000000E+03 0.  0.
         25    1    3    3    0    0 -0.49002451276E+02 -0.92301944933E+02 -0.31050105695E+03  0.35068405116E+03  0.12509000000E+03 0.  0.
         25    1    4    4    0    0  0.49151503780E+02  0.27409894205E+02 -0.32215410927E+03  0.35013990182E+03  0.12509000000E+03 0.  0.
<mgrwt>
<rscale>  2 0.44587539E+03</rscale>
<asrwt>0</asrwt>
<pdfrwt beam="1">  1       21 0.80752783E-02 0.44587539E+03</pdfrwt>
<pdfrwt beam="2">  1       21 0.13310418E+00 0.44587539E+03</pdfrwt>
<totfact> 0.43778574E+04</totfact>
</mgrwt>
</event>
<event>
 7    0  0.4788920E-002  0.4556734E+03  0.7546771E-02  0.1026044E+00
         21   -1    0    0  502  501  0.00000000000E+00  0.00000000000E+00  0.36633848229E+03  0.36633848229E+03  0.00000000000E+00 0.  1.
         21   -1    0    0  501  502 -0.00000000000E+00 -0.00000000000E+00 -0.14169837321E+03  0.14169837321E+03  0.00000000000E+00 0.  1.
      99926    2    1    2    0    0  0.00000000000E+00  0.00000000000E+00  0.22464010908E+03  0.50803685549E+03  0.45567342245E+03 0.  0.
      99925    2    3    3    0    0  0.94602066322E+02  0.87877238791E+01  0.71920902690E+02  0.28895367690E+03  0.26323912343E+03 0.  0.
         25    1    4    4    0    0  0.86982495718E+02 -0.90153561461E+01  0.29472624190E+02  0.15544572971E+03  0.12509000000E+03 0.  0.
         25    1    3    3    0    0 -0.94602066322E+02 -0.87877238791E+01  0.15271920639E+03  0.21908317860E+03  0.12509000000E+03 0.  0.
         25    1    4    4    0    0  0.76195706033E+01  0.17803080025E+02  0.42448278499E+02  0.13350794719E+03  0.12509000000E+03 0.  0.
<mgrwt>
<rscale>  2 0.45567342E+03</rscale>
<asrwt>0</asrwt>
<pdfrwt beam="1">  1       21 0.53873306E-01 0.45567342E+03</pdfrwt>
<pdfrwt beam="2">  1       21 0.20837996E-01 0.45567342E+03</pdfrwt>
<totfact> 0.64364949E+04</totfact>
</mgrwt>
</event>
<event>
 7    0  0.4788920E-002  0.4514921E+03  0.7546771E-02  0.1027278E+00
         21   -1    0    0  502  501  0.00000000000E+00  0.00000000000E+00  0.10050699226E+04  0.10050699226E+04  0.00000000000E+00 0. -1.
         21   -1    0    0  501  502 -0.00000000000E+00 -0.00000000000E+00 -0.50704215729E+02  0.50704215729E+02  0.00000000000E+00 0. -1.
      99926    2    1    2    0    0  0.00000000000E+00  0.00000000000E+00  0.95436570690E+03  0.10557741384E+04  0.45149211368E+03 0.  0.
      99925    2    3    3    0    0  0.42905735343E+02  0.43654697617E+01  0.83869291632E+03  0.88002527767E+03  0.26301848225E+03 0.  0.
         25    1    3    3    0    0 -0.42905735343E+02 -0.43654697617E+01  0.11567279058E+03  0.17574886069E+03  0.12509000000E+03 0.  0.
         25    1    4    4    0    0  0.41746682192E+02 -0.27903460138E+01  0.54473149735E+03  0.56047344612E+03  0.12509000000E+03 0.  0.
         25    1    4    4    0    0  0.11590531511E+01  0.71558157755E+01  0.29396141897E+03  0.31955183155E+03  0.12509000000E+03 0.  0.
<mgrwt>
<rscale>  2 0.45149211E+03</rscale>
<asrwt>0</asrwt>
<pdfrwt beam="1">  1       21 0.14780439E+00 0.45149211E+03</pdfrwt>
<pdfrwt beam="2">  1       21 0.74565030E-02 0.45149211E+03</pdfrwt>
<totfact> 0.38098660E+04</totfact>
</mgrwt>
</event>
<event>
 7    0  0.4788920E-002  0.4550199E+03  0.7546771E-02  0.1026236E+00
         21   -1    0    0  502  501  0.00000000000E+00  0.00000000000E+00  0.59727736438E+02  0.59727736438E+02  0.00000000000E+00 0. -1.
         21   -1    0    0  501  502 -0.00000000000E+00 -0.00000000000E+00 -0.86661217072E+03  0.86661217072E+03  0.00000000000E+00 0. -1.
      99926    2    1    2    0    0 -0.14210854715E-13  0.35527136788E-14 -0.80688443428E+03  0.92633990716E+03  0.45501992627E+03 0.  0.
      99925    2    3    3    0    0 -0.10874942941E+03  0.23829586578E+02 -0.54979913316E+03  0.61952620514E+03  0.26294361456E+03 0.  0.
         25    1    3    3    0    0  0.10874942941E+03 -0.23829586578E+02 -0.25708530112E+03  0.30681370202E+03  0.12509000000E+03 0.  0.
         25    1    4    4    0    0 -0.60884752909E+02  0.17565709003E+01 -0.36191526555E+03  0.38773729021E+03  0.12509000000E+03 0.  0.
         25    1    4    4    0    0 -0.47864676501E+02  0.22073015677E+02 -0.18788386761E+03  0.23178891493E+03  0.12509000000E+03 0.  0.
<mgrwt>
<rscale>  2 0.45501993E+03</rscale>
<asrwt>0</asrwt>
<pdfrwt beam="1">  1       21 0.87834913E-02 0.45501993E+03</pdfrwt>
<pdfrwt beam="2">  1       21 0.12744296E+00 0.45501993E+03</pdfrwt>
<totfact> 0.42107505E+04</totfact>
</mgrwt>
</event>
<event>
 7    0  0.4788920E-002  0.4498916E+03  0.7546771E-02  0.1027754E+00
         21   -1    0    0  502  501  0.00000000000E+00  0.00000000000E+00  0.32178053485E+03  0.32178053485E+03  0.00000000000E+00 0. -1.
         21   -1    0    0  501  502 -0.00000000000E+00 -0.00000000000E+00 -0.15725196497E+03  0.15725196497E+03  0.00000000000E+00 0. -1.
      99926    2    1    2    0    0  0.00000000000E+00  0.00000000000E+00  0.16452856988E+03  0.47903249982E+03  0.44989163759E+03 0.  0.
      99925    2    3    3    0    0  0.45905103140E+02 -0.34195113658E+02  0.62665736139E+01  0.26933998241E+03  0.26311247003E+03 0.  0.
         25    1    4    4    0    0 -0.35374984177E+00 -0.19659801947E+02  0.36570049024E+02  0.13180102252E+03  0.12509000000E+03 0.  0.
         25    1    3    3    0    0 -0.45905103140E+02  0.34195113658E+02  0.15826199627E+03  0.20969251741E+03  0.12509000000E+03 0.  0.
         25    1    4    4    0    0  0.46258852982E+02 -0.14535311710E+02 -0.30303475410E+02  0.13753895989E+03  0.12509000000E+03 0.  0.
<mgrwt>
<rscale>  2 0.44989164E+03</rscale>
<asrwt>0</asrwt>
<pdfrwt beam="1">  1       21 0.47320667E-01 0.44989164E+03</pdfrwt>
<pdfrwt beam="2">  1       21 0.23125289E-01 0.44989164E+03</pdfrwt>
<totfact> 0.69548243E+04</totfact>
</mgrwt>
</event>
<event>
 7    0  0.4788920E-002  0.4557351E+03  0.7546771E-02  0.1026025E+00
         21   -1    0    0  502  501  0.00000000000E+00  0.00000000000E+00  0.75375688432E+02  0.75375688432E+02  0.00000000000E+00 0. -1.
         21   -1    0    0  501  502 -0.00000000000E+00 -0.00000000000E+00 -0.68886444188E+03  0.68886444188E+03  0.00000000000E+00 0. -1.
      99926    2    1    2    0    0  0.00000000000E+00  0.00000000000E+00 -0.61348875345E+03  0.76424013032E+03  0.45573514915E+03 0.  0.
      99925    2    3    3    0    0 -0.10507578721E+03 -0.40993686563E+02 -0.41331194658E+03  0.50263037227E+03  0.26284809785E+03 0.  0.
         25    1    3    3    0    0  0.10507578721E+03  0.40993686563E+02 -0.20017680687E+03  0.26160975804E+03  0.12509000000E+03 0.  0.
         25    1    4    4    0    0 -0.61147426138E+02 -0.57578961361E+02 -0.19126390435E+03  0.24348251215E+03  0.12509000000E+03 0.  0.
         25    1    4    4    0    0 -0.43928361074E+02  0.16585274798E+02 -0.22204804223E+03  0.25914786012E+03  0.12509000000E+03 0.  0.
<mgrwt>
<rscale>  2 0.45573515E+03</rscale>
<asrwt>0</asrwt>
<pdfrwt beam="1">  1       21 0.11084659E-01 0.45573515E+03</pdfrwt>
<pdfrwt beam="2">  1       21 0.10130360E+00 0.45573515E+03</pdfrwt>
<totfact> 0.49257967E+04</totfact>
</mgrwt>
</event>
<event>
 7    0  0.4788920E-002  0.4557218E+03  0.7546771E-02  0.1026029E+00
         21   -1    0    0  502  501  0.00000000000E+00  0.00000000000E+00  0.18744220334E+03  0.18744220334E+03  0.00000000000E+00 0.  1.
         21   -1    0    0  501  502 -0.00000000000E+00 -0.00000000000E+00 -0.27699523240E+03  0.27699523240E+03  0.00000000000E+00 0.  1.
      99926    2    1    2    0    0  0.00000000000E+00  0.00000000000E+00 -0.89553029057E+02  0.46443743574E+03  0.45572183040E+03 0.  0.
      99925    2    3    3    0    0 -0.36627521326E+01  0.77104419867E+02  0.29026121588E+02  0.27558026647E+03  0.26295144080E+03 0.  0.
         25    1    3    3    0    0  0.36627521326E+01 -0.77104419867E+02 -0.11857915065E+03  0.18885716927E+03  0.12509000000E+03 0.  0.
         25    1    4    4    0    0 -0.65279080042E+01  0.12498399399E+02  0.45388618451E+02  0.13381501543E+03  0.12509000000E+03 0.  0.
         25    1    4    4    0    0  0.28651558716E+01  0.64606020468E+02 -0.16362496862E+02  0.14176525104E+03  0.12509000000E+03 0.  0.
<mgrwt>
<rscale>  2 0.45572183E+03</rscale>
<asrwt>0</asrwt>
<pdfrwt beam="1">  1       21 0.27565030E-01 0.45572183E+03</pdfrwt>
<pdfrwt beam="2">  1       21 0.40734592E-01 0.45572183E+03</pdfrwt>
<totfact> 0.67464053E+04</totfact>
</mgrwt>
</event>
<event>
 7    0  0.4788920E-002  0.4565920E+03  0.7546771E-02  0.1025774E+00
         21   -1    0    0  502  501  0.00000000000E+00  0.00000000000E+00  0.19145790677E+04  0.19145790677E+04  0.00000000000E+00 0.  1.
         21   -1    0    0  501  502 -0.00000000000E+00 -0.00000000000E+00 -0.27222209560E+02  0.27222209560E+02  0.00000000000E+00 0.  1.
      99926    2    1    2    0    0 -0.35527136788E-14  0.00000000000E+00  0.18873568582E+04  0.19418012773E+04  0.45659203936E+03 0.  0.
      99925    2    3    3    0    0  0.29772588430E+02  0.21980304994E+02  0.72418934322E+03  0.77134165954E+03  0.26296047249E+03 0.  0.
         25    1    3    3    0    0 -0.29772588430E+02 -0.21980304994E+02  0.11631675149E+04  0.11704596177E+04  0.12509000000E+03 0.  0.
         25    1    4    4    0    0  0.20355447320E+02 -0.26936249316E+02  0.39391562666E+03  0.41467690409E+03  0.12509000000E+03 0.  0.
         25    1    4    4    0    0  0.94171411100E+01  0.48916554310E+02  0.33027371656E+03  0.35666475545E+03  0.12509000000E+03 0.  0.
<mgrwt>
<rscale>  2 0.45659204E+03</rscale>
<asrwt>0</asrwt>
<pdfrwt beam="1">  1       21 0.28155565E+00 0.45659204E+03</pdfrwt>
<pdfrwt beam="2">  1       21 0.40032674E-02 0.45659204E+03</pdfrwt>
<totfact> 0.14503435E+04</totfact>
</mgrwt>
</event>
<event>
 7    0  0.4788920E-002  0.4563113E+03  0.7546771E-02  0.1025856E+00
         21   -1    0    0  502  501  0.00000000000E+00  0.00000000000E+00  0.76985566435E+03  0.76985566435E+03  0.00000000000E+00 0. -1.
         21   -1    0    0  501  502 -0.00000000000E+00 -0.00000000000E+00 -0.67616582495E+02  0.67616582495E+02  0.00000000000E+00 0. -1.
      99926    2    1    2    0    0 -0.71054273576E-14  0.14210854715E-13  0.70223908186E+03  0.83747224685E+03  0.45631133687E+03 0.  0.
      99925    2    3    3    0    0 -0.55497126644E+02  0.85056771756E+02  0.34489548406E+03  0.44548176167E+03  0.26303330505E+03 0.  0.
         25    1    4    4    0    0  0.45491511173E+01  0.56092367004E+02  0.20232980831E+03  0.24444203371E+03  0.12509000000E+03 0.  0.
         25    1    4    4    0    0 -0.60046277761E+02  0.28964404753E+02  0.14256567575E+03  0.20103972796E+03  0.12509000000E+03 0.  0.
         25    1    3    3    0    0  0.55497126644E+02 -0.85056771756E+02  0.35734359780E+03  0.39199048518E+03  0.12509000000E+03 0.  0.
<mgrwt>
<rscale>  2 0.45631134E+03</rscale>
<asrwt>0</asrwt>
<pdfrwt beam="1">  1       21 0.11321406E+00 0.45631134E+03</pdfrwt>
<pdfrwt beam="2">  1       21 0.99436155E-02 0.45631134E+03</pdfrwt>
<totfact> 0.45534813E+04</totfact>
</mgrwt>
</event>
<event>
 7    0  0.4788920E-002  0.4540730E+03  0.7546771E-02  0.1026514E+00
         21   -1    0    0  502  501  0.00000000000E+00  0.00000000000E+00  0.21266859140E+03  0.21266859140E+03  0.00000000000E+00 0.  1.
         21   -1    0    0  501  502 -0.00000000000E+00 -0.00000000000E+00 -0.24237510751E+03  0.24237510751E+03  0.00000000000E+00 0.  1.
      99926    2    1    2    0    0  0.71054273576E-14  0.00000000000E+00 -0.29706516108E+02  0.45504369891E+03  0.45407300164E+03 0.  0.
      99925    2    3    3    0    0  0.59431797208E+02 -0.93571461155E+02 -0.34086798088E+01  0.28584901473E+03  0.26345831409E+03 0.  0.
         25    1    4    4    0    0  0.51287648222E+02 -0.54358856517E+02  0.33298932599E+02  0.14947118503E+03  0.12509000000E+03 0.  0.
         25    1    3    3    0    0 -0.59431797208E+02  0.93571461155E+02 -0.26297836299E+02  0.16919468418E+03  0.12509000000E+03 0.  0.
         25    1    4    4    0    0  0.81441489863E+01 -0.39212604638E+02 -0.36707612408E+02  0.13637782970E+03  0.12509000000E+03 0.  0.
<mgrwt>
<rscale>  2 0.45407300E+03</rscale>
<asrwt>0</asrwt>
<pdfrwt beam="1">  1       21 0.31274793E-01 0.45407300E+03</pdfrwt>
<pdfrwt beam="2">  1       21 0.35643398E-01 0.45407300E+03</pdfrwt>
<totfact> 0.69051946E+04</totfact>
</mgrwt>
</event>
<event>
 7    0  0.4788920E-002  0.4565483E+03  0.7546771E-02  0.1025787E+00
         21   -1    0    0  502  501  0.00000000000E+00  0.00000000000E+00  0.61419723836E+02  0.61419723836E+02  0.00000000000E+00 0.  1.
         21   -1    0    0  501  502 -0.00000000000E+00 -0.00000000000E+00 -0.84840984083E+03  0.84840984083E+03  0.00000000000E+00 0.  1.
      99926    2    1    2    0    0  0.00000000000E+00  0.00000000000E+00 -0.78699011699E+03  0.90982956466E+03  0.45654834628E+03 0.  0.
      99925    2    3    3    0    0 -0.85261126816E+02  0.71303141147E+02 -0.43815751202E+03  0.52293772956E+03  0.26292254747E+03 0.  0.
         25    1    4    4    0    0 -0.79422798775E+02  0.39007596851E+02 -0.27430712551E+03  0.31419974663E+03  0.12509000000E+03 0.  0.
         25    1    3    3    0    0  0.85261126816E+02 -0.71303141147E+02 -0.34883260497E+03  0.38689183511E+03  0.12509000000E+03 0.  0.
         25    1    4    4    0    0 -0.58383280410E+01  0.32295544296E+02 -0.16385038651E+03  0.20873798292E+03  0.12509000000E+03 0.  0.
<mgrwt>
<rscale>  2 0.45654835E+03</rscale>
<asrwt>0</asrwt>
<pdfrwt beam="1">  1       21 0.90323124E-02 0.45654835E+03</pdfrwt>
<pdfrwt beam="2">  1       21 0.12476615E+00 0.45654835E+03</pdfrwt>
<totfact> 0.42296456E+04</totfact>
</mgrwt>
</event>
<event>
 7    0  0.4788920E-002  0.4587679E+03  0.7546771E-02  0.1025139E+00
         21   -1    0    0  502  501  0.00000000000E+00  0.00000000000E+00  0.19332273734E+03  0.19332273734E+03  0.00000000000E+00 0.  1.
         21   -1    0    0  501  502 -0.00000000000E+00 -0.00000000000E+00 -0.27217177002E+03  0.27217177002E+03  0.00000000000E+00 0.  1.
      99926    2    1    2    0    0  0.00000000000E+00 -0.35527136788E-14 -0.78849032677E+02  0.46549450737E+03  0.45876787860E+03 0.  0.
      99925    2    3    3    0    0  0.29861492954E+02  0.21382320074E+02  0.62929176813E+02  0.27288744322E+03  0.26298015704E+03 0.  0.
         25    1    4    4    0    0  0.39582110607E+02 -0.21471120123E+02  0.31248047734E+02  0.13657123074E+03  0.12509000000E+03 0.  0.
         25    1    3    3    0    0 -0.29861492954E+02 -0.21382320074E+02 -0.14177820949E+03  0.19260706415E+03  0.12509000000E+03 0.  0.
         25    1    4    4    0    0 -0.97206176529E+01  0.42853440197E+02  0.31681129080E+02  0.13631621248E+03  0.12509000000E+03 0.  0.
<mgrwt>
<rscale>  2 0.45876788E+03</rscale>
<asrwt>0</asrwt>
<pdfrwt beam="1">  1       21 0.28429814E-01 0.45876788E+03</pdfrwt>
<pdfrwt beam="2">  1       21 0.40025260E-01 0.45876788E+03</pdfrwt>
<totfact> 0.65780939E+04</totfact>
</mgrwt>
</event>
<event>
 7    0  0.4788920E-002  0.4630028E+03  0.7546771E-02  0.1023914E+00
         21   -1    0    0  502  501  0.00000000000E+00  0.00000000000E+00  0.58080093596E+03  0.58080093596E+03  0.00000000000E+00 0. -1.
         21   -1    0    0  501  502 -0.00000000000E+00 -0.00000000000E+00 -0.92274132790E+02  0.92274132790E+02  0.00000000000E+00 0. -1.
      99926    2    1    2    0    0  0.00000000000E+00  0.14210854715E-13  0.48852680317E+03  0.67307506875E+03  0.46300281938E+03 0.  0.
      99925    2    3    3    0    0 -0.43582586384E+02 -0.82648594361E+02  0.41602017921E+03  0.50092702024E+03  0.26291606668E+03 0.  0.
         25    1    4    4    0    0  0.15607502443E+02 -0.49114595320E+02  0.22728027130E+03  0.26449889873E+03  0.12509000000E+03 0.  0.
         25    1    3    3    0    0  0.43582586384E+02  0.82648594361E+02  0.72506623963E+02  0.17214804851E+03  0.12509000000E+03 0.  0.
         25    1    4    4    0    0 -0.59190088827E+02 -0.33533999041E+02  0.18873990791E+03  0.23642812152E+03  0.12509000000E+03 0.  0.
<mgrwt>
<rscale>  2 0.46300282E+03</rscale>
<asrwt>0</asrwt>
<pdfrwt beam="1">  1       21 0.85411900E-01 0.46300282E+03</pdfrwt>
<pdfrwt beam="2">  1       21 0.13569726E-01 0.46300282E+03</pdfrwt>
<totfact> 0.51089535E+04</totfact>
</mgrwt>
</event>
<event>
 7    0  0.4788920E-002  0.4544056E+03  0.7546771E-02  0.1026416E+00
         21   -1    0    0  502  501  0.00000000000E+00  0.00000000000E+00  0.19394496706E+03  0.19394496706E+03  0.00000000000E+00 0.  1.
         21   -1    0    0  501  502 -0.00000000000E+00 -0.00000000000E+00 -0.26616373207E+03  0.26616373207E+03  0.00000000000E+00 0.  1.
      99926    2    1    2    0    0  0.00000000000E+00  0.71054273576E-14 -0.72218765009E+02  0.46010869912E+03  0.45440561725E+03 0.  0.
      99925    2    3    3    0    0 -0.49603047506E+02 -0.48983150589E+02 -0.13509339539E+03  0.30371004629E+03  0.26292537986E+03 0.  0.
         25    1    4    4    0    0  0.14834235864E+02 -0.12319293921E+02 -0.65238505360E+02  0.14239167896E+03  0.12509000000E+03 0.  0.
         25    1    3    3    0    0  0.49603047506E+02  0.48983150589E+02  0.62874630385E+02  0.15639865284E+03  0.12509000000E+03 0.  0.
         25    1    4    4    0    0 -0.64437283370E+02 -0.36663856668E+02 -0.69854890033E+02  0.16131836732E+03  0.12509000000E+03 0.  0.
<mgrwt>
<rscale>  2 0.45440562E+03</rscale>
<asrwt>0</asrwt>
<pdfrwt beam="1">  1       21 0.28521319E-01 0.45440562E+03</pdfrwt>
<pdfrwt beam="2">  1       21 0.39141725E-01 0.45440562E+03</pdfrwt>
<totfact> 0.68496710E+04</totfact>
</mgrwt>
</event>
<event>
 7    0  0.4788920E-002  0.4670086E+03  0.7546771E-02  0.1022768E+00
         21   -1    0    0  502  501  0.00000000000E+00  0.00000000000E+00  0.12420913647E+03  0.12420913647E+03  0.00000000000E+00 0.  1.
         21   -1    0    0  501  502 -0.00000000000E+00 -0.00000000000E+00 -0.43897139655E+03  0.43897139655E+03  0.00000000000E+00 0.  1.
      99926    2    1    2    0    0  0.00000000000E+00 -0.88817841970E-15 -0.31476226008E+03  0.56318053301E+03  0.46700859991E+03 0.  0.
      99925    2    3    3    0    0  0.12289472970E+03  0.35998463157E+01 -0.21232179248E+03  0.36006078758E+03  0.26352827876E+03 0.  0.
         25    1    4    4    0    0  0.28282441335E+02  0.27598135849E+02 -0.11062219325E+03  0.17159933371E+03  0.12509000000E+03 0.  0.
         25    1    3    3    0    0 -0.12289472970E+03 -0.35998463157E+01 -0.10244046760E+03  0.20311974543E+03  0.12509000000E+03 0.  0.
         25    1    4    4    0    0  0.94612288370E+02 -0.23998289534E+02 -0.10169959923E+03  0.18846145387E+03  0.12509000000E+03 0.  0.
<mgrwt>
<rscale>  2 0.46700860E+03</rscale>
<asrwt>0</asrwt>
<pdfrwt beam="1">  1       21 0.18266050E-01 0.46700860E+03</pdfrwt>
<pdfrwt beam="2">  1       21 0.64554616E-01 0.46700860E+03</pdfrwt>
<totfact> 0.55537748E+04</totfact>
</mgrwt>
</event>
<event>
 7    0  0.4788920E-002  0.4489160E+03  0.7546771E-02  0.1028046E+00
         21   -1    0    0  502  501  0.00000000000E+00  0.00000000000E+00  0.58341833554E+03  0.58341833554E+03  0.00000000000E+00 0. -1.
         21   -1    0    0  501  502 -0.00000000000E+00 -0.00000000000E+00 -0.86355531642E+02  0.86355531642E+02  0.00000000000E+00 0. -1.
      99926    2    1    2    0    0  0.00000000000E+00  0.00000000000E+00  0.49706280389E+03  0.66977386718E+03  0.44891603016E+03 0.  0.
      99925    2    3    3    0    0  0.24639419000E+02 -0.10052302875E+03  0.27098158934E+03  0.39143557669E+03  0.26282847764E+03 0.  0.
         25    1    4    4    0    0  0.43929914225E+02 -0.24777372909E+02  0.12436596680E+03  0.18346159645E+03  0.12509000000E+03 0.  0.
         25    1    3    3    0    0 -0.24639419000E+02  0.10052302875E+03  0.22608121456E+03  0.27833829049E+03  0.12509000000E+03 0.  0.
         25    1    4    4    0    0 -0.19290495225E+02 -0.75745655844E+02  0.14661562253E+03  0.20797398024E+03  0.12509000000E+03 0.  0.
<mgrwt>
<rscale>  2 0.44891603E+03</rscale>
<asrwt>0</asrwt>
<pdfrwt beam="1">  1       21 0.85796812E-01 0.44891603E+03</pdfrwt>
<pdfrwt beam="2">  1       21 0.12699343E-01 0.44891603E+03</pdfrwt>
<totfact> 0.57271495E+04</totfact>
</mgrwt>
</event>
<event>
 7    0  0.4788920E-002  0.4583487E+03  0.7546771E-02  0.1025261E+00
         21   -1    0    0  502  501  0.00000000000E+00  0.00000000000E+00  0.82839211937E+02  0.82839211937E+02  0.00000000000E+00 0. -1.
         21   -1    0    0  501  502 -0.00000000000E+00 -0.00000000000E+00 -0.63400999470E+03  0.63400999470E+03  0.00000000000E+00 0. -1.
      99926    2    1    2    0    0 -0.14210854715E-13  0.71054273576E-14 -0.55117078276E+03  0.71684920664E+03  0.45834872454E+03 0.  0.
      99925    2    3    3    0    0 -0.10581109340E+03  0.37653416594E+02 -0.29866167738E+03  0.41349772128E+03  0.26299771995E+03 0.  0.
         25    1    4    4    0    0 -0.30528622484E+02  0.28058588977E+02 -0.19009183939E+03  0.23130433785E+03  0.12509000000E+03 0.  0.
         25    1    3    3    0    0  0.10581109340E+03 -0.37653416594E+02 -0.25250910538E+03  0.30335148535E+03  0.12509000000E+03 0.  0.
         25    1    4    4    0    0 -0.75282470914E+02  0.95948276174E+01 -0.10856983799E+03  0.18219338343E+03  0.12509000000E+03 0.  0.
<mgrwt>
<rscale>  2 0.45834872E+03</rscale>
<asrwt>0</asrwt>
<pdfrwt beam="1">  1       21 0.12182237E-01 0.45834872E+03</pdfrwt>
<pdfrwt beam="2">  1       21 0.93236766E-01 0.45834872E+03</pdfrwt>
<totfact> 0.50650240E+04</totfact>
</mgrwt>
</event>
<event>
 7    0  0.4788920E-002  0.4857040E+03  0.7546771E-02  0.1017579E+00
         21   -1    0    0  502  501  0.00000000000E+00  0.00000000000E+00  0.42302391877E+03  0.42302391877E+03  0.00000000000E+00 0.  1.
         21   -1    0    0  501  502 -0.00000000000E+00 -0.00000000000E+00 -0.13941787942E+03  0.13941787942E+03  0.00000000000E+00 0.  1.
      99926    2    1    2    0    0  0.35527136788E-14 -0.14210854715E-13  0.28360603935E+03  0.56244179819E+03  0.48570401563E+03 0.  0.
      99925    2    3    3    0    0 -0.26845859101E+02  0.11991315744E+03  0.25163498990E+03  0.38420173092E+03  0.26304170092E+03 0.  0.
         25    1    3    3    0    0  0.26845859101E+02 -0.11991315744E+03  0.31971049457E+02  0.17824006727E+03  0.12509000000E+03 0.  0.
         25    1    4    4    0    0  0.66374287621E+01  0.58076275014E+02  0.17034597947E+03  0.21927646933E+03  0.12509000000E+03 0.  0.
         25    1    4    4    0    0 -0.33483287863E+02  0.61836882424E+02  0.81289010420E+02  0.16492526159E+03  0.12509000000E+03 0.  0.
<mgrwt>
<rscale>  2 0.48570402E+03</rscale>
<asrwt>0</asrwt>
<pdfrwt beam="1">  1       21 0.62209399E-01 0.48570402E+03</pdfrwt>
<pdfrwt beam="2">  1       21 0.20502629E-01 0.48570402E+03</pdfrwt>
<totfact> 0.48219820E+04</totfact>
</mgrwt>
</event>
<event>
 7    0  0.4788920E-002  0.4556797E+03  0.7546771E-02  0.1026042E+00
         21   -1    0    0  502  501  0.00000000000E+00  0.00000000000E+00  0.27246164511E+03  0.27246164511E+03  0.00000000000E+00 0.  1.
         21   -1    0    0  501  502 -0.00000000000E+00 -0.00000000000E+00 -0.19052586199E+03  0.19052586199E+03  0.00000000000E+00 0.  1.
      99926    2    1    2    0    0  0.00000000000E+00  0.00000000000E+00  0.81935783121E+02  0.46298750710E+03  0.45567966729E+03 0.  0.
      99925    2    3    3    0    0 -0.73691617822E+02  0.65629771253E+02  0.10913630071E+03  0.30135490622E+03  0.26299491622E+03 0.  0.
         25    1    4    4    0    0 -0.13129617272E+02  0.54144082499E+02  0.27197521692E+02  0.13961082267E+03  0.12509000000E+03 0.  0.
         25    1    3    3    0    0  0.73691617822E+02 -0.65629771253E+02 -0.27200517588E+02  0.16163260089E+03  0.12509000000E+03 0.  0.
         25    1    4    4    0    0 -0.60562000550E+02  0.11485688754E+02  0.81938779017E+02  0.16174408355E+03  0.12509000000E+03 0.  0.
<mgrwt>
<rscale>  2 0.45567967E+03</rscale>
<asrwt>0</asrwt>
<pdfrwt beam="1">  1       21 0.40067889E-01 0.45567967E+03</pdfrwt>
<pdfrwt beam="2">  1       21 0.28018509E-01 0.45567967E+03</pdfrwt>
<totfact> 0.67593832E+04</totfact>
</mgrwt>
</event>
<event>
 6    0  0.4788920E-002  0.4038801E+03  0.7546771E-02  0.1042444E+00
         21   -1    0    0  502  501  0.00000000000E+00  0.00000000000E+00  0.11976356818E+03  0.11976356818E+03  0.00000000000E+00 0. -1.
         21   -1    0    0  501  502 -0.00000000000E+00 -0.00000000000E+00 -0.34050247974E+03  0.34050247974E+03  0.00000000000E+00 0. -1.
      99926    2    1    2    0    0  0.35527136788E-14  0.00000000000E+00 -0.22073891156E+03  0.46026604793E+03  0.40388014038E+03 0.  0.
         25    1    3    3    0    0 -0.26828371738E+01  0.36132262099E+02 -0.69559197998E+02  0.14764392336E+03  0.12509000000E+03 0.  0.
         25    1    3    3    0    0  0.20551491803E+02 -0.49292419182E+01 -0.12837587027E+03  0.18048416387E+03  0.12509000000E+03 0.  0.
         25    1    3    3    0    0 -0.17868654629E+02 -0.31203020181E+02 -0.22803843291E+02  0.13213796069E+03  0.12509000000E+03 0.  0.
<mgrwt>
<rscale>  2 0.40388014E+03</rscale>
<asrwt>0</asrwt>
<pdfrwt beam="1">  1       21 0.17612289E-01 0.40388014E+03</pdfrwt>
<pdfrwt beam="2">  1       21 0.50073895E-01 0.40388014E+03</pdfrwt>
<totfact> 0.10457477E+05</totfact>
</mgrwt>
</event>
<event>
 7    0  0.4788920E-002  0.4130850E+03  0.7546771E-02  0.1039341E+00
         21   -1    0    0  502  501  0.00000000000E+00  0.00000000000E+00  0.67923331128E+02  0.67923331128E+02  0.00000000000E+00 0.  1.
         21   -1    0    0  501  502 -0.00000000000E+00 -0.00000000000E+00 -0.62805830919E+03  0.62805830919E+03  0.00000000000E+00 0.  1.
      99926    2    1    2    0    0  0.35527136788E-14  0.71054273576E-14 -0.56013497806E+03  0.69598164032E+03  0.41308503969E+03 0.  0.
      99925    2    3    3    0    0  0.31826791683E+02  0.57392603885E+02 -0.34482301712E+03  0.43846736057E+03  0.26276197880E+03 0.  0.
         25    1    3    3    0    0 -0.31826791683E+02 -0.57392603885E+02 -0.21531196094E+03  0.25751427975E+03  0.12509000000E+03 0.  0.
         25    1    4    4    0    0  0.30720798885E+02  0.52521551636E+02 -0.13323025388E+03  0.19261383522E+03  0.12509000000E+03 0.  0.
         25    1    4    4    0    0  0.11059927983E+01  0.48710522495E+01 -0.21159276324E+03  0.24585352535E+03  0.12509000000E+03 0.  0.
<mgrwt>
<rscale>  2 0.41308504E+03</rscale>
<asrwt>0</asrwt>
<pdfrwt beam="1">  1       21 0.99887247E-02 0.41308504E+03</pdfrwt>
<pdfrwt beam="2">  1       21 0.92361520E-01 0.41308504E+03</pdfrwt>
<totfact> 0.74954224E+04</totfact>
</mgrwt>
</event>
<event>
 7    0  0.4788920E-002  0.4607106E+03  0.7546771E-02  0.1024575E+00
         21   -1    0    0  502  501  0.00000000000E+00  0.00000000000E+00  0.20983137230E+03  0.20983137230E+03  0.00000000000E+00 0. -1.
         21   -1    0    0  501  502 -0.00000000000E+00 -0.00000000000E+00 -0.25288669470E+03  0.25288669470E+03  0.00000000000E+00 0. -1.
      99926    2    1    2    0    0 -0.71054273576E-14  0.00000000000E+00 -0.43055322406E+02  0.46271806700E+03  0.46071059109E+03 0.  0.
      99925    2    3    3    0    0  0.63075283290E+02  0.93934709497E+02 -0.62331537845E+02  0.29294969070E+03  0.26292979987E+03 0.  0.
         25    1    4    4    0    0  0.13600940619E+02  0.75424484055E+02 -0.55966244982E+02  0.15701454410E+03  0.12509000000E+03 0.  0.
         25    1    4    4    0    0  0.49474342671E+02  0.18510225442E+02 -0.63652928637E+01  0.13593514660E+03  0.12509000000E+03 0.  0.
         25    1    3    3    0    0 -0.63075283290E+02 -0.93934709497E+02  0.19276215439E+02  0.16976837630E+03  0.12509000000E+03 0.  0.
<mgrwt>
<rscale>  2 0.46071059E+03</rscale>
<asrwt>0</asrwt>
<pdfrwt beam="1">  1       21 0.30857555E-01 0.46071059E+03</pdfrwt>
<pdfrwt beam="2">  1       21 0.37189219E-01 0.46071059E+03</pdfrwt>
<totfact> 0.64972860E+04</totfact>
</mgrwt>
</event>
<event>
 7    0  0.4788920E-002  0.4803839E+03  0.7546771E-02  0.1019030E+00
         21   -1    0    0  502  501  0.00000000000E+00  0.00000000000E+00  0.90800108586E+02  0.90800108586E+02  0.00000000000E+00 0. -1.
         21   -1    0    0  501  502 -0.00000000000E+00 -0.00000000000E+00 -0.63537571437E+03  0.63537571437E+03  0.00000000000E+00 0. -1.
      99926    2    1    2    0    0  0.00000000000E+00  0.00000000000E+00 -0.54457560578E+03  0.72617582295E+03  0.48038394585E+03 0.  0.
      99925    2    3    3    0    0  0.84214281348E+02  0.49482450150E+02 -0.19333114157E+03  0.34074004388E+03  0.26303286704E+03 0.  0.
         25    1    3    3    0    0 -0.84214281348E+02 -0.49482450150E+02 -0.35124446421E+03  0.38543577908E+03  0.12509000000E+03 0.  0.
         25    1    4    4    0    0  0.28395605145E+02  0.13268240785E+02 -0.47533981417E+02  0.13743851023E+03  0.12509000000E+03 0.  0.
         25    1    4    4    0    0  0.55818676203E+02  0.36214209365E+02 -0.14579716016E+03  0.20330153364E+03  0.12509000000E+03 0.  0.
<mgrwt>
<rscale>  2 0.48038395E+03</rscale>
<asrwt>0</asrwt>
<pdfrwt beam="1">  1       21 0.13352957E-01 0.48038395E+03</pdfrwt>
<pdfrwt beam="2">  1       21 0.93437606E-01 0.48038395E+03</pdfrwt>
<totfact> 0.42385122E+04</totfact>
</mgrwt>
</event>
<event>
 7    0  0.4788920E-002  0.4561431E+03  0.7546771E-02  0.1025906E+00
         21   -1    0    0  502  501  0.00000000000E+00  0.00000000000E+00  0.33297720340E+03  0.33297720340E+03  0.00000000000E+00 0. -1.
         21   -1    0    0  501  502 -0.00000000000E+00 -0.00000000000E+00 -0.15621677255E+03  0.15621677255E+03  0.00000000000E+00 0. -1.
      99926    2    1    2    0    0  0.71054273576E-14  0.00000000000E+00  0.17676043085E+03  0.48919397595E+03  0.45614306549E+03 0.  0.
      99925    2    3    3    0    0  0.62821650656E+02  0.53922091892E+02  0.19582859853E+03  0.33798136106E+03  0.26273258008E+03 0.  0.
         25    1    3    3    0    0 -0.62821650656E+02 -0.53922091892E+02 -0.19068167676E+02  0.15121261490E+03  0.12509000000E+03 0.  0.
         25    1    4    4    0    0  0.61426173297E+02  0.19295574508E+01  0.87926889871E+02  0.16478939292E+03  0.12509000000E+03 0.  0.
         25    1    4    4    0    0  0.13954773591E+01  0.51992534442E+02  0.10790170866E+03  0.17319196813E+03  0.12509000000E+03 0.  0.
<mgrwt>
<rscale>  2 0.45614307E+03</rscale>
<asrwt>0</asrwt>
<pdfrwt beam="1">  1       21 0.48967236E-01 0.45614307E+03</pdfrwt>
<pdfrwt beam="2">  1       21 0.22973055E-01 0.45614307E+03</pdfrwt>
<totfact> 0.65440837E+04</totfact>
</mgrwt>
</event>
<event>
 7    0  0.4788920E-002  0.4594196E+03  0.7546771E-02  0.1024950E+00
         21   -1    0    0  502  501  0.00000000000E+00  0.00000000000E+00  0.20102696615E+03  0.20102696615E+03  0.00000000000E+00 0.  1.
         21   -1    0    0  501  502 -0.00000000000E+00 -0.00000000000E+00 -0.26248519702E+03  0.26248519702E+03  0.00000000000E+00 0.  1.
      99926    2    1    2    0    0 -0.71054273576E-14  0.00000000000E+00 -0.61458230875E+02  0.46351216317E+03  0.45941964614E+03 0.  0.
      99925    2    3    3    0    0 -0.55767121190E+02 -0.92318048405E+02 -0.85536821414E+02  0.29659937010E+03  0.26272046867E+03 0.  0.
         25    1    4    4    0    0 -0.64735254685E+02 -0.36203803462E+02 -0.57463511323E+02  0.15636793731E+03  0.12509000000E+03 0.  0.
         25    1    4    4    0    0  0.89681334953E+01 -0.56114244944E+02 -0.28073310091E+02  0.14023143279E+03  0.12509000000E+03 0.  0.
         25    1    3    3    0    0  0.55767121190E+02  0.92318048405E+02  0.24078590539E+02  0.16691279307E+03  0.12509000000E+03 0.  0.
<mgrwt>
<rscale>  2 0.45941965E+03</rscale>
<asrwt>0</asrwt>
<pdfrwt beam="1">  1       21 0.29562789E-01 0.45941965E+03</pdfrwt>
<pdfrwt beam="2">  1       21 0.38600764E-01 0.45941965E+03</pdfrwt>
<totfact> 0.65583163E+04</totfact>
</mgrwt>
</event>
<event>
 7    0  0.4788920E-002  0.4517293E+03  0.7546771E-02  0.1027208E+00
         21   -1    0    0  502  501  0.00000000000E+00  0.00000000000E+00  0.58168433709E+02  0.58168433709E+02  0.00000000000E+00 0.  1.
         21   -1    0    0  501  502 -0.00000000000E+00 -0.00000000000E+00 -0.87701941482E+03  0.87701941482E+03  0.00000000000E+00 0.  1.
      99926    2    1    2    0    0  0.00000000000E+00  0.00000000000E+00 -0.81885098111E+03  0.93518784853E+03  0.45172932467E+03 0.  0.
      99925    2    3    3    0    0  0.47341214906E+02  0.98530378371E+02 -0.49898464213E+03  0.57475559553E+03  0.26345568018E+03 0.  0.
         25    1    4    4    0    0  0.10611902762E+02  0.79905431400E+02 -0.31622665344E+03  0.34949148043E+03  0.12509000000E+03 0.  0.
         25    1    4    4    0    0  0.36729312144E+02  0.18624946972E+02 -0.18275798869E+03  0.22526411510E+03  0.12509000000E+03 0.  0.
         25    1    3    3    0    0 -0.47341214906E+02 -0.98530378371E+02 -0.31986633898E+03  0.36043225300E+03  0.12509000000E+03 0.  0.
<mgrwt>
<rscale>  2 0.45172932E+03</rscale>
<asrwt>0</asrwt>
<pdfrwt beam="1">  1       21 0.85541828E-02 0.45172932E+03</pdfrwt>
<pdfrwt beam="2">  1       21 0.12897342E+00 0.45172932E+03</pdfrwt>
<totfact> 0.42831677E+04</totfact>
</mgrwt>
</event>
<event>
 7    0  0.4788920E-002  0.4538879E+03  0.7546771E-02  0.1026569E+00
         21   -1    0    0  502  501  0.00000000000E+00  0.00000000000E+00  0.10005321362E+03  0.10005321362E+03  0.00000000000E+00 0. -1.
         21   -1    0    0  501  502 -0.00000000000E+00 -0.00000000000E+00 -0.51476162615E+03  0.51476162615E+03  0.00000000000E+00 0. -1.
      99926    2    1    2    0    0  0.14210854715E-13  0.00000000000E+00 -0.41470841252E+03  0.61481483977E+03  0.45388789341E+03 0.  0.
      99925    2    3    3    0    0 -0.85793379756E+02  0.38075340935E+02 -0.17756527113E+03  0.33074686690E+03  0.26278095224E+03 0.  0.
         25    1    4    4    0    0 -0.84494742165E+01 -0.44628683272E+01 -0.89736483075E+02  0.15424479020E+03  0.12509000000E+03 0.  0.
         25    1    3    3    0    0  0.85793379756E+02 -0.38075340935E+02 -0.23714314140E+03  0.28406797287E+03  0.12509000000E+03 0.  0.
         25    1    4    4    0    0 -0.77343905540E+02  0.42538209262E+02 -0.87828788050E+02  0.17650207671E+03  0.12509000000E+03 0.  0.
<mgrwt>
<rscale>  2 0.45388789E+03</rscale>
<asrwt>0</asrwt>
<pdfrwt beam="1">  1       21 0.14713708E-01 0.45388789E+03</pdfrwt>
<pdfrwt beam="2">  1       21 0.75700239E-01 0.45388789E+03</pdfrwt>
<totfact> 0.58285766E+04</totfact>
</mgrwt>
</event>
<event>
 7    0  0.4788920E-002  0.4544305E+03  0.7546771E-02  0.1026409E+00
         21   -1    0    0  502  501  0.00000000000E+00  0.00000000000E+00  0.69772053335E+03  0.69772053335E+03  0.00000000000E+00 0. -1.
         21   -1    0    0  501  502 -0.00000000000E+00 -0.00000000000E+00 -0.73993494487E+02  0.73993494487E+02  0.00000000000E+00 0. -1.
      99926    2    1    2    0    0 -0.71054273576E-14  0.00000000000E+00  0.62372703886E+03  0.77171402784E+03  0.45443054668E+03 0.  0.
      99925    2    3    3    0    0 -0.56653808429E+02  0.94197584864E+02  0.35172082960E+03  0.45278186424E+03  0.26309890840E+03 0.  0.
         25    1    3    3    0    0  0.56653808429E+02 -0.94197584864E+02  0.27200620926E+03  0.31893216360E+03  0.12509000000E+03 0.  0.
         25    1    4    4    0    0  0.10951447897E+02  0.49901360016E+02  0.14764337982E+03  0.20014033988E+03  0.12509000000E+03 0.  0.
         25    1    4    4    0    0 -0.67605256326E+02  0.44296224848E+02  0.20407744978E+03  0.25264152436E+03  0.12509000000E+03 0.  0.
<mgrwt>
<rscale>  2 0.45443055E+03</rscale>
<asrwt>0</asrwt>
<pdfrwt beam="1">  1       21 0.10260596E+00 0.45443055E+03</pdfrwt>
<pdfrwt beam="2">  1       21 0.10881397E-01 0.45443055E+03</pdfrwt>
<totfact> 0.49383762E+04</totfact>
</mgrwt>
</event>
<event>
 7    0  0.4788920E-002  0.4576078E+03  0.7546771E-02  0.1025477E+00
         21   -1    0    0  502  501  0.00000000000E+00  0.00000000000E+00  0.31340967996E+03  0.31340967996E+03  0.00000000000E+00 0.  1.
         21   -1    0    0  501  502 -0.00000000000E+00 -0.00000000000E+00 -0.16703768066E+03  0.16703768066E+03  0.00000000000E+00 0.  1.
      99926    2    1    2    0    0  0.00000000000E+00  0.14210854715E-13  0.14637199930E+03  0.48044736062E+03  0.45760780604E+03 0.  0.
      99925    2    3    3    0    0  0.40287189886E+02 -0.10840693019E+03  0.90382668506E+02  0.30112242246E+03  0.26292692209E+03 0.  0.
         25    1    3    3    0    0 -0.40287189886E+02  0.10840693019E+03  0.55989330798E+02  0.17932493816E+03  0.12509000000E+03 0.  0.
         25    1    4    4    0    0  0.49919115613E+02 -0.26121354869E+02  0.44315358618E+02  0.14417212766E+03  0.12509000000E+03 0.  0.
         25    1    4    4    0    0 -0.96319257274E+01 -0.82285575323E+02  0.46067309888E+02  0.15695029481E+03  0.12509000000E+03 0.  0.
<mgrwt>
<rscale>  2 0.45760781E+03</rscale>
<asrwt>0</asrwt>
<pdfrwt beam="1">  1       21 0.46089659E-01 0.45760781E+03</pdfrwt>
<pdfrwt beam="2">  1       21 0.24564365E-01 0.45760781E+03</pdfrwt>
<totfact> 0.65305315E+04</totfact>
</mgrwt>
</event>
<event>
 7    0  0.4788920E-002  0.4552075E+03  0.7546771E-02  0.1026180E+00
         21   -1    0    0  502  501  0.00000000000E+00  0.00000000000E+00  0.18473374606E+03  0.18473374606E+03  0.00000000000E+00 0. -1.
         21   -1    0    0  501  502 -0.00000000000E+00 -0.00000000000E+00 -0.28042236553E+03  0.28042236553E+03  0.00000000000E+00 0. -1.
      99926    2    1    2    0    0  0.00000000000E+00  0.00000000000E+00 -0.95688619470E+02  0.46515611158E+03  0.45520753097E+03 0.  0.
      99925    2    3    3    0    0 -0.31055633767E+02  0.93088256651E+02 -0.11765853678E+03  0.30465669949E+03  0.26332925655E+03 0.  0.
         25    1    4    4    0    0 -0.36819051743E+02  0.10299768204E+02 -0.58884141020E+02  0.14344538319E+03  0.12509000000E+03 0.  0.
         25    1    3    3    0    0  0.31055633767E+02 -0.93088256651E+02  0.21969917306E+02  0.16049941209E+03  0.12509000000E+03 0.  0.
         25    1    4    4    0    0  0.57634179761E+01  0.82788488447E+02 -0.58774395756E+02  0.16121131630E+03  0.12509000000E+03 0.  0.
<mgrwt>
<rscale>  2 0.45520753E+03</rscale>
<asrwt>0</asrwt>
<pdfrwt beam="1">  1       21 0.27166728E-01 0.45520753E+03</pdfrwt>
<pdfrwt beam="2">  1       21 0.41238583E-01 0.45520753E+03</pdfrwt>
<totfact> 0.67686907E+04</totfact>
</mgrwt>
</event>
<event>
 7    0  0.4788920E-002  0.4660694E+03  0.7546771E-02  0.1023035E+00
         21   -1    0    0  502  501  0.00000000000E+00  0.00000000000E+00  0.36315070806E+03  0.36315070806E+03  0.00000000000E+00 0.  1.
         21   -1    0    0  501  502 -0.00000000000E+00 -0.00000000000E+00 -0.14953892046E+03  0.14953892046E+03  0.00000000000E+00 0.  1.
      99926    2    1    2    0    0  0.00000000000E+00  0.00000000000E+00  0.21361178760E+03  0.51268962852E+03  0.46606937186E+03 0.  0.
      99925    2    3    3    0    0  0.16527330944E+02  0.90993532550E+02  0.22262788721E+03  0.35686352741E+03  0.26312625372E+03 0.  0.
         25    1    4    4    0    0  0.60742584374E+01  0.79473823756E+01  0.75845638568E+02  0.14662921432E+03  0.12509000000E+03 0.  0.
         25    1    3    3    0    0 -0.16527330944E+02 -0.90993532550E+02 -0.90160996117E+01  0.15582610111E+03  0.12509000000E+03 0.  0.
         25    1    4    4    0    0  0.10453072506E+02  0.83046150175E+02  0.14678224865E+03  0.21023431309E+03  0.12509000000E+03 0.  0.
<mgrwt>
<rscale>  2 0.46606937E+03</rscale>
<asrwt>0</asrwt>
<pdfrwt beam="1">  1       21 0.53404516E-01 0.46606937E+03</pdfrwt>
<pdfrwt beam="2">  1       21 0.21991018E-01 0.46606937E+03</pdfrwt>
<totfact> 0.59028929E+04</totfact>
</mgrwt>
</event>
<event>
 7    0  0.4788920E-002  0.4581505E+03  0.7546771E-02  0.1025319E+00
         21   -1    0    0  502  501  0.00000000000E+00  0.00000000000E+00  0.27653811396E+03  0.27653811396E+03  0.00000000000E+00 0.  1.
         21   -1    0    0  501  502 -0.00000000000E+00 -0.00000000000E+00 -0.18975854886E+03  0.18975854886E+03  0.00000000000E+00 0.  1.
      99926    2    1    2    0    0 -0.35527136788E-14  0.14210854715E-13  0.86779565091E+02  0.46629666282E+03  0.45815050457E+03 0.  0.
      99925    2    3    3    0    0  0.19589407891E+02  0.10630156556E+03  0.11433802304E+02  0.28461490861E+03  0.26304210049E+03 0.  0.
         25    1    4    4    0    0 -0.14102605878E+02  0.17093750006E+02  0.23093974975E+01  0.12705873130E+03  0.12509000000E+03 0.  0.
         25    1    3    3    0    0 -0.19589407891E+02 -0.10630156556E+03  0.75345762787E+02  0.18168175421E+03  0.12509000000E+03 0.  0.
         25    1    4    4    0    0  0.33692013769E+02  0.89207815553E+02  0.91244048060E+01  0.15755617732E+03  0.12509000000E+03 0.  0.
<mgrwt>
<rscale>  2 0.45815050E+03</rscale>
<asrwt>0</asrwt>
<pdfrwt beam="1">  1       21 0.40667370E-01 0.45815050E+03</pdfrwt>
<pdfrwt beam="2">  1       21 0.27905669E-01 0.45815050E+03</pdfrwt>
<totfact> 0.66044436E+04</totfact>
</mgrwt>
</event>
<event>
 7    0  0.4788920E-002  0.4571988E+03  0.7546771E-02  0.1025597E+00
         21   -1    0    0  502  501  0.00000000000E+00  0.00000000000E+00  0.33303476920E+03  0.33303476920E+03  0.00000000000E+00 0.  1.
         21   -1    0    0  501  502 -0.00000000000E+00 -0.00000000000E+00 -0.15691360958E+03  0.15691360958E+03  0.00000000000E+00 0.  1.
      99926    2    1    2    0    0  0.35527136788E-14 -0.35527136788E-14  0.17612115962E+03  0.48994837878E+03  0.45719880906E+03 0.  0.
      99925    2    3    3    0    0  0.98556205855E+01  0.28357246816E+02  0.22981812706E+03  0.35054917105E+03  0.26299635567E+03 0.  0.
         25    1    3    3    0    0 -0.98556205855E+01 -0.28357246816E+02 -0.53696967441E+02  0.13939920773E+03  0.12509000000E+03 0.  0.
         25    1    4    4    0    0 -0.84301237913E+01 -0.67493908803E+01  0.69918783794E+02  0.14371070138E+03  0.12509000000E+03 0.  0.
         25    1    4    4    0    0  0.18285744377E+02  0.35106637696E+02  0.15989934327E+03  0.20683846967E+03  0.12509000000E+03 0.  0.
<mgrwt>
<rscale>  2 0.45719881E+03</rscale>
<asrwt>0</asrwt>
<pdfrwt beam="1">  1       21 0.48975701E-01 0.45719881E+03</pdfrwt>
<pdfrwt beam="2">  1       21 0.23075531E-01 0.45719881E+03</pdfrwt>
<totfact> 0.64843459E+04</totfact>
</mgrwt>
</event>
<event>
 7    0  0.4788920E-002  0.4573440E+03  0.7546771E-02  0.1025554E+00
         21   -1    0    0  502  501  0.00000000000E+00  0.00000000000E+00  0.65640442103E+03  0.65640442103E+03  0.00000000000E+00 0. -1.
         21   -1    0    0  501  502 -0.00000000000E+00 -0.00000000000E+00 -0.79662601386E+02  0.79662601386E+02  0.00000000000E+00 0. -1.
      99926    2    1    2    0    0  0.35527136788E-14  0.00000000000E+00  0.57674181964E+03  0.73606702242E+03  0.45734400068E+03 0.  0.
      99925    2    3    3    0    0  0.27944678783E+02  0.59794794477E+02  0.51445511235E+03  0.58152426288E+03  0.26296403401E+03 0.  0.
         25    1    4    4    0    0  0.24029109282E+02  0.31447898179E+02  0.17571625893E+03  0.21929450550E+03  0.12509000000E+03 0.  0.
         25    1    3    3    0    0 -0.27944678783E+02 -0.59794794477E+02  0.62286707299E+02  0.15454275954E+03  0.12509000000E+03 0.  0.
         25    1    4    4    0    0  0.39155695009E+01  0.28346896298E+02  0.33873885342E+03  0.36222975738E+03  0.12509000000E+03 0.  0.
<mgrwt>
<rscale>  2 0.45734400E+03</rscale>
<asrwt>0</asrwt>
<pdfrwt beam="1">  1       21 0.96530059E-01 0.45734400E+03</pdfrwt>
<pdfrwt beam="2">  1       21 0.11715089E-01 0.45734400E+03</pdfrwt>
<totfact> 0.50059177E+04</totfact>
</mgrwt>
</event>
<event>
 7    0  0.4788920E-002  0.4418447E+03  0.7546771E-02  0.1030182E+00
         21   -1    0    0  502  501  0.00000000000E+00  0.00000000000E+00  0.17295871622E+03  0.17295871622E+03  0.00000000000E+00 0. -1.
         21   -1    0    0  501  502 -0.00000000000E+00 -0.00000000000E+00 -0.28218685917E+03  0.28218685917E+03  0.00000000000E+00 0. -1.
      99926    2    1    2    0    0  0.35527136788E-14 -0.99920072216E-15 -0.10922814295E+03  0.45514557539E+03  0.44184466455E+03 0.  0.
      99925    2    3    3    0    0 -0.78839581639E+01  0.82534003645E+00 -0.17257614240E+03  0.31470585481E+03  0.26304830763E+03 0.  0.
         25    1    4    4    0    0 -0.36944750139E+02  0.17947751071E+02 -0.10608802461E+03  0.16908345099E+03  0.12509000000E+03 0.  0.
         25    1    4    4    0    0  0.29060791975E+02 -0.17122411034E+02 -0.66488117785E+02  0.14562240383E+03  0.12509000000E+03 0.  0.
         25    1    3    3    0    0  0.78839581639E+01 -0.82534003645E+00  0.63347999447E+02  0.14043972058E+03  0.12509000000E+03 0.  0.
<mgrwt>
<rscale>  2 0.44184466E+03</rscale>
<asrwt>0</asrwt>
<pdfrwt beam="1">  1       21 0.25435106E-01 0.44184466E+03</pdfrwt>
<pdfrwt beam="2">  1       21 0.41498067E-01 0.44184466E+03</pdfrwt>
<totfact> 0.76203352E+04</totfact>
</mgrwt>
</event>
<event>
 7    0  0.4788920E-002  0.4500864E+03  0.7546771E-02  0.1027696E+00
         21   -1    0    0  502  501  0.00000000000E+00  0.00000000000E+00  0.92227619260E+02  0.92227619260E+02  0.00000000000E+00 0.  1.
         21   -1    0    0  501  502 -0.00000000000E+00 -0.00000000000E+00 -0.54912452964E+03  0.54912452964E+03  0.00000000000E+00 0.  1.
      99926    2    1    2    0    0 -0.14210854715E-13  0.71054273576E-14 -0.45689691038E+03  0.64135214890E+03  0.45008642746E+03 0.  0.
      99925    2    3    3    0    0 -0.93268920422E+02  0.38455315050E+02 -0.34576495202E+03  0.44596606178E+03  0.26297228645E+03 0.  0.
         25    1    4    4    0    0 -0.67960965492E+02  0.21177684800E+02 -0.12620916109E+03  0.19142478316E+03  0.12509000000E+03 0.  0.
         25    1    4    4    0    0 -0.25307954930E+02  0.17277630250E+02 -0.21955579093E+03  0.25454127862E+03  0.12509000000E+03 0.  0.
         25    1    3    3    0    0  0.93268920422E+02 -0.38455315050E+02 -0.11113195836E+03  0.19538608712E+03  0.12509000000E+03 0.  0.
<mgrwt>
<rscale>  2 0.45008643E+03</rscale>
<asrwt>0</asrwt>
<pdfrwt beam="1">  1       21 0.13562885E-01 0.45008643E+03</pdfrwt>
<pdfrwt beam="2">  1       21 0.80753609E-01 0.45008643E+03</pdfrwt>
<totfact> 0.58435394E+04</totfact>
</mgrwt>
</event>
<event>
 7    0  0.4788920E-002  0.4488979E+03  0.7546771E-02  0.1028051E+00
         21   -1    0    0  502  501  0.00000000000E+00  0.00000000000E+00  0.69909152177E+03  0.69909152177E+03  0.00000000000E+00 0.  1.
         21   -1    0    0  501  502 -0.00000000000E+00 -0.00000000000E+00 -0.72061128495E+02  0.72061128495E+02  0.00000000000E+00 0.  1.
      99926    2    1    2    0    0  0.00000000000E+00  0.35527136788E-14  0.62703039327E+03  0.77115265026E+03  0.44889786803E+03 0.  0.
      99925    2    3    3    0    0 -0.37434583853E+02 -0.11299937005E+02  0.22482760694E+03  0.34813536211E+03  0.26291013838E+03 0.  0.
         25    1    3    3    0    0  0.37434583853E+02  0.11299937005E+02  0.40220278633E+03  0.42301728815E+03  0.12509000000E+03 0.  0.
         25    1    4    4    0    0  0.30230693627E+01  0.25436004436E+02  0.12782855220E+03  0.18067588696E+03  0.12509000000E+03 0.  0.
         25    1    4    4    0    0 -0.40457653216E+02 -0.36735941441E+02  0.96999054742E+02  0.16745947515E+03  0.12509000000E+03 0.  0.
<mgrwt>
<rscale>  2 0.44889787E+03</rscale>
<asrwt>0</asrwt>
<pdfrwt beam="1">  1       21 0.10280757E+00 0.44889787E+03</pdfrwt>
<pdfrwt beam="2">  1       21 0.10597225E-01 0.44889787E+03</pdfrwt>
<totfact> 0.51620417E+04</totfact>
</mgrwt>
</event>
<event>
 7    0  0.4788920E-002  0.4476102E+03  0.7546771E-02  0.1028437E+00
         21   -1    0    0  502  501  0.00000000000E+00  0.00000000000E+00  0.60908653901E+02  0.60908653901E+02  0.00000000000E+00 0.  1.
         21   -1    0    0  501  502 -0.00000000000E+00 -0.00000000000E+00 -0.82235824820E+03  0.82235824820E+03  0.00000000000E+00 0.  1.
      99926    2    1    2    0    0  0.00000000000E+00  0.35527136788E-14 -0.76144959430E+03  0.88326690210E+03  0.44761024976E+03 0.  0.
      99925    2    3    3    0    0  0.78666226209E+02 -0.21710465335E+02 -0.34825493635E+03  0.44390708042E+03  0.26289213739E+03 0.  0.
         25    1    3    3    0    0 -0.78666226209E+02  0.21710465335E+02 -0.41319465795E+03  0.43935982168E+03  0.12509000000E+03 0.  0.
         25    1    4    4    0    0  0.56049969733E+02 -0.82026396554E+01 -0.12032771965E+03  0.18257916261E+03  0.12509000000E+03 0.  0.
         25    1    4    4    0    0  0.22616256475E+02 -0.13507825680E+02 -0.22792721670E+03  0.26132791780E+03  0.12509000000E+03 0.  0.
<mgrwt>
<rscale>  2 0.44761025E+03</rscale>
<asrwt>0</asrwt>
<pdfrwt beam="1">  1       21 0.89571554E-02 0.44761025E+03</pdfrwt>
<pdfrwt beam="2">  1       21 0.12093503E+00 0.44761025E+03</pdfrwt>
<totfact> 0.46604218E+04</totfact>
</mgrwt>
</event>
<event>
 7    0  0.4788920E-002  0.4599840E+03  0.7546771E-02  0.1024786E+00
         21   -1    0    0  502  501  0.00000000000E+00  0.00000000000E+00  0.26325256725E+03  0.26325256725E+03  0.00000000000E+00 0. -1.
         21   -1    0    0  501  502 -0.00000000000E+00 -0.00000000000E+00 -0.20093375902E+03  0.20093375902E+03  0.00000000000E+00 0. -1.
      99926    2    1    2    0    0  0.00000000000E+00  0.00000000000E+00  0.62318808230E+02  0.46418632627E+03  0.45998403411E+03 0.  0.
      99925    2    3    3    0    0  0.10362026367E+03  0.53377257192E+02  0.18010514945E+02  0.28755953447E+03  0.26225906389E+03 0.  0.
         25    1    4    4    0    0  0.80235865896E+02  0.12118374059E+02 -0.14738173325E+02  0.14983114169E+03  0.12509000000E+03 0.  0.
         25    1    3    3    0    0 -0.10362026367E+03 -0.53377257192E+02  0.44308293285E+02  0.17662679180E+03  0.12509000000E+03 0.  0.
         25    1    4    4    0    0  0.23384397769E+02  0.41258883133E+02  0.32748688270E+02  0.13772839279E+03  0.12509000000E+03 0.  0.
<mgrwt>
<rscale>  2 0.45998403E+03</rscale>
<asrwt>0</asrwt>
<pdfrwt beam="1">  1       21 0.38713613E-01 0.45998403E+03</pdfrwt>
<pdfrwt beam="2">  1       21 0.29549082E-01 0.45998403E+03</pdfrwt>
<totfact> 0.65244477E+04</totfact>
</mgrwt>
</event>
<event>
 7    0  0.4788920E-002  0.4523330E+03  0.7546771E-02  0.1027029E+00
         21   -1    0    0  502  501  0.00000000000E+00  0.00000000000E+00  0.69814351377E+03  0.69814351377E+03  0.00000000000E+00 0.  1.
         21   -1    0    0  501  502 -0.00000000000E+00 -0.00000000000E+00 -0.73267588729E+02  0.73267588729E+02  0.00000000000E+00 0.  1.
      99926    2    1    2    0    0  0.00000000000E+00  0.71054273576E-14  0.62487592504E+03  0.77141110250E+03  0.45233302705E+03 0.  0.
      99925    2    3    3    0    0 -0.55294510530E+02 -0.54614639937E+02  0.52841327934E+03  0.59536340468E+03  0.26305274768E+03 0.  0.
         25    1    3    3    0    0  0.55294510530E+02  0.54614639937E+02  0.96462645698E+02  0.17604769781E+03  0.12509000000E+03 0.  0.
         25    1    4    4    0    0  0.66635016446E+01 -0.49064090212E+02  0.25317540994E+03  0.28670016307E+03  0.12509000000E+03 0.  0.
         25    1    4    4    0    0 -0.61958012175E+02 -0.55505497250E+01  0.27523786940E+03  0.30866324162E+03  0.12509000000E+03 0.  0.
<mgrwt>
<rscale>  2 0.45233303E+03</rscale>
<asrwt>0</asrwt>
<pdfrwt beam="1">  1       21 0.10266816E+00 0.45233303E+03</pdfrwt>
<pdfrwt beam="2">  1       21 0.10774646E-01 0.45233303E+03</pdfrwt>
<totfact> 0.50221889E+04</totfact>
</mgrwt>
</event>
<event>
 7    0  0.4788920E-002  0.4524183E+03  0.7546771E-02  0.1027003E+00
         21   -1    0    0  502  501  0.00000000000E+00  0.00000000000E+00  0.18766956623E+04  0.18766956623E+04  0.00000000000E+00 0.  1.
         21   -1    0    0  501  502 -0.00000000000E+00 -0.00000000000E+00 -0.27266317917E+02  0.27266317917E+02  0.00000000000E+00 0.  1.
      99926    2    1    2    0    0  0.00000000000E+00  0.00000000000E+00  0.18494293444E+04  0.19039619802E+04  0.45241830450E+03 0.  0.
      99925    2    3    3    0    0  0.10335718309E+03  0.86638389232E+01  0.13297660799E+04  0.13594849963E+04  0.26299022542E+03 0.  0.
         25    1    3    3    0    0 -0.10335718309E+03 -0.86638389232E+01  0.51966326455E+03  0.54447698393E+03  0.12509000000E+03 0.  0.
         25    1    4    4    0    0  0.81345504946E+02 -0.15022952842E+02  0.81997671400E+03  0.83357789071E+03  0.12509000000E+03 0.  0.
         25    1    4    4    0    0  0.22011678148E+02  0.23686791765E+02  0.50978936586E+03  0.52590710560E+03  0.12509000000E+03 0.  0.
<mgrwt>
<rscale>  2 0.45241830E+03</rscale>
<asrwt>0</asrwt>
<pdfrwt beam="1">  1       21 0.27598457E+00 0.45241830E+03</pdfrwt>
<pdfrwt beam="2">  1       21 0.40097539E-02 0.45241830E+03</pdfrwt>
<totfact> 0.15653017E+04</totfact>
</mgrwt>
</event>
<event>
 7    0  0.4788920E-002  0.4550195E+03  0.7546771E-02  0.1026236E+00
         21   -1    0    0  502  501  0.00000000000E+00  0.00000000000E+00  0.13360268655E+03  0.13360268655E+03  0.00000000000E+00 0. -1.
         21   -1    0    0  501  502 -0.00000000000E+00 -0.00000000000E+00 -0.38742257646E+03  0.38742257646E+03  0.00000000000E+00 0. -1.
      99926    2    1    2    0    0  0.35527136788E-14  0.00000000000E+00 -0.25381988991E+03  0.52102526301E+03  0.45501954704E+03 0.  0.
      99925    2    3    3    0    0 -0.22109516052E+02 -0.59579059651E+02 -0.26702406792E+03  0.38009849669E+03  0.26293443914E+03 0.  0.
         25    1    3    3    0    0  0.22109516052E+02  0.59579059651E+02  0.13204178017E+02  0.14092676632E+03  0.12509000000E+03 0.  0.
         25    1    4    4    0    0  0.70423348414E+01 -0.50342867211E+01 -0.88346605505E+02  0.15338699204E+03  0.12509000000E+03 0.  0.
         25    1    4    4    0    0 -0.29151850894E+02 -0.54544772930E+02 -0.17867746242E+03  0.22671150465E+03  0.12509000000E+03 0.  0.
<mgrwt>
<rscale>  2 0.45501955E+03</rscale>
<asrwt>0</asrwt>
<pdfrwt beam="1">  1       21 0.19647454E-01 0.45501955E+03</pdfrwt>
<pdfrwt beam="2">  1       21 0.56973908E-01 0.45501955E+03</pdfrwt>
<totfact> 0.63807563E+04</totfact>
</mgrwt>
</event>
<event>
 7    0  0.4788920E-002  0.4560024E+03  0.7546771E-02  0.1025947E+00
         21   -1    0    0  502  501  0.00000000000E+00  0.00000000000E+00  0.10944250458E+04  0.10944250458E+04  0.00000000000E+00 0. -1.
         21   -1    0    0  501  502 -0.00000000000E+00 -0.00000000000E+00 -0.47499412124E+02  0.47499412124E+02  0.00000000000E+00 0. -1.
      99926    2    1    2    0    0  0.00000000000E+00  0.44408920985E-15  0.10469256337E+04  0.11419244579E+04  0.45600239599E+03 0.  0.
      99925    2    3    3    0    0  0.11358780830E+03  0.32882938842E+01  0.63247441641E+03  0.69434170282E+03  0.26300857360E+03 0.  0.
         25    1    4    4    0    0  0.24513009774E+02  0.27935880026E+02  0.30874040654E+03  0.33518569148E+03  0.12509000000E+03 0.  0.
         25    1    4    4    0    0  0.89074798531E+02 -0.24647586142E+02  0.32373400986E+03  0.35915601133E+03  0.12509000000E+03 0.  0.
         25    1    3    3    0    0 -0.11358780830E+03 -0.32882938842E+01  0.41445121725E+03  0.44758275509E+03  0.12509000000E+03 0.  0.
<mgrwt>
<rscale>  2 0.45600240E+03</rscale>
<asrwt>0</asrwt>
<pdfrwt beam="1">  1       21 0.16094484E+00 0.45600240E+03</pdfrwt>
<pdfrwt beam="2">  1       21 0.69852084E-02 0.45600240E+03</pdfrwt>
<totfact> 0.33788381E+04</totfact>
</mgrwt>
</event>
<event>
 7    0  0.4788920E-002  0.4595958E+03  0.7546771E-02  0.1024899E+00
         21   -1    0    0  502  501  0.00000000000E+00  0.00000000000E+00  0.31549933364E+03  0.31549933364E+03  0.00000000000E+00 0.  1.
         21   -1    0    0  501  502 -0.00000000000E+00 -0.00000000000E+00 -0.16737617820E+03  0.16737617820E+03  0.00000000000E+00 0.  1.
      99926    2    1    2    0    0 -0.35527136788E-14  0.00000000000E+00  0.14812315544E+03  0.48287551184E+03  0.45959579062E+03 0.  0.
      99925    2    3    3    0    0 -0.21021876738E+02 -0.10147209109E+03  0.15069344912E+03  0.32041745854E+03  0.26309756282E+03 0.  0.
         25    1    4    4    0    0 -0.48591515946E+02 -0.67626383112E+02  0.81342023989E+02  0.17087567434E+03  0.12509000000E+03 0.  0.
         25    1    4    4    0    0  0.27569639207E+02 -0.33845707980E+02  0.69351425126E+02  0.14954178420E+03  0.12509000000E+03 0.  0.
         25    1    3    3    0    0  0.21021876738E+02  0.10147209109E+03 -0.25702936722E+01  0.16245805330E+03  0.12509000000E+03 0.  0.
<mgrwt>
<rscale>  2 0.45959579E+03</rscale>
<asrwt>0</asrwt>
<pdfrwt beam="1">  1       21 0.46396961E-01 0.45959579E+03</pdfrwt>
<pdfrwt beam="2">  1       21 0.24614144E-01 0.45959579E+03</pdfrwt>
<totfact> 0.64120212E+04</totfact>
</mgrwt>
</event>
<event>
 7    0  0.4788920E-002  0.4315971E+03  0.7546771E-02  0.1033357E+00
         21   -1    0    0  502  501  0.00000000000E+00  0.00000000000E+00  0.46823863639E+02  0.46823863639E+02  0.00000000000E+00 0.  1.
         21   -1    0    0  501  502 -0.00000000000E+00 -0.00000000000E+00 -0.99455745111E+03  0.99455745111E+03  0.00000000000E+00 0.  1.
      99926    2    1    2    0    0  0.71054273576E-14  0.00000000000E+00 -0.94773358747E+03  0.10413813147E+04  0.43159713842E+03 0.  0.
      99925    2    3    3    0    0 -0.58922193137E+02  0.65224082397E+02 -0.65038085838E+03  0.70702796967E+03  0.26299673606E+03 0.  0.
         25    1    4    4    0    0 -0.70130918851E+02  0.27973126424E+02 -0.35584409140E+03  0.38467306517E+03  0.12509000000E+03 0.  0.
         25    1    3    3    0    0  0.58922193137E+02 -0.65224082397E+02 -0.29735272908E+03  0.33435334507E+03  0.12509000000E+03 0.  0.
         25    1    4    4    0    0  0.11208725715E+02  0.37250955973E+02 -0.29453676698E+03  0.32235490451E+03  0.12509000000E+03 0.  0.
<mgrwt>
<rscale>  2 0.43159714E+03</rscale>
<asrwt>0</asrwt>
<pdfrwt beam="1">  1       21 0.68858624E-02 0.43159714E+03</pdfrwt>
<pdfrwt beam="2">  1       21 0.14625845E+00 0.43159714E+03</pdfrwt>
<totfact> 0.45326445E+04</totfact>
</mgrwt>
</event>
<event>
 7    0  0.4788920E-002  0.4528172E+03  0.7546771E-02  0.1026885E+00
         21   -1    0    0  502  501  0.00000000000E+00  0.00000000000E+00  0.16131163848E+03  0.16131163848E+03  0.00000000000E+00 0. -1.
         21   -1    0    0  501  502 -0.00000000000E+00 -0.00000000000E+00 -0.31777526532E+03  0.31777526532E+03  0.00000000000E+00 0. -1.
      99926    2    1    2    0    0  0.00000000000E+00 -0.14210854715E-13 -0.15646362684E+03  0.47908690380E+03  0.45281717599E+03 0.  0.
      99925    2    3    3    0    0  0.80213592938E+02 -0.76683871386E+02 -0.10308075501E+03  0.30355378520E+03  0.26306771339E+03 0.  0.
         25    1    3    3    0    0 -0.80213592938E+02  0.76683871386E+02 -0.53382871827E+02  0.17553311861E+03  0.12509000000E+03 0.  0.
         25    1    4    4    0    0  0.76636469985E+01 -0.52930747431E+02 -0.71329609316E+02  0.15360929911E+03  0.12509000000E+03 0.  0.
         25    1    4    4    0    0  0.72549945940E+02 -0.23753123954E+02 -0.31751145694E+02  0.14994448608E+03  0.12509000000E+03 0.  0.
<mgrwt>
<rscale>  2 0.45281718E+03</rscale>
<asrwt>0</asrwt>
<pdfrwt beam="1">  1       21 0.23722300E-01 0.45281718E+03</pdfrwt>
<pdfrwt beam="2">  1       21 0.46731656E-01 0.45281718E+03</pdfrwt>
<totfact> 0.67936092E+04</totfact>
</mgrwt>
</event>
<event>
 7    0  0.4788920E-002  0.4541939E+03  0.7546771E-02  0.1026479E+00
         21   -1    0    0  502  501  0.00000000000E+00  0.00000000000E+00  0.59224016773E+02  0.59224016773E+02  0.00000000000E+00 0.  1.
         21   -1    0    0  501  502 -0.00000000000E+00 -0.00000000000E+00 -0.87081252071E+03  0.87081252071E+03  0.00000000000E+00 0.  1.
      99926    2    1    2    0    0 -0.17763568394E-14  0.00000000000E+00 -0.81158850393E+03  0.93003653748E+03  0.45419385876E+03 0.  0.
      99925    2    3    3    0    0 -0.12675437479E+02  0.98479011135E+02 -0.40275619512E+03  0.49111724287E+03  0.26291597743E+03 0.  0.
         25    1    4    4    0    0  0.16865930551E+02  0.15729645640E+02 -0.20342429099E+03  0.23991838535E+03  0.12509000000E+03 0.  0.
         25    1    4    4    0    0 -0.29541368030E+02  0.82749365496E+02 -0.19933190413E+03  0.25119885752E+03  0.12509000000E+03 0.  0.
         25    1    3    3    0    0  0.12675437479E+02 -0.98479011135E+02 -0.40883230882E+03  0.43891929461E+03  0.12509000000E+03 0.  0.
<mgrwt>
<rscale>  2 0.45419386E+03</rscale>
<asrwt>0</asrwt>
<pdfrwt beam="1">  1       21 0.87094145E-02 0.45419386E+03</pdfrwt>
<pdfrwt beam="2">  1       21 0.12806066E+00 0.45419386E+03</pdfrwt>
<totfact> 0.42225576E+04</totfact>
</mgrwt>
</event>
<event>
 7    0  0.4788920E-002  0.4577401E+03  0.7546771E-02  0.1025439E+00
         21   -1    0    0  502  501  0.00000000000E+00  0.00000000000E+00  0.11268813775E+04  0.11268813775E+04  0.00000000000E+00 0. -1.
         21   -1    0    0  501  502 -0.00000000000E+00 -0.00000000000E+00 -0.46483592864E+02  0.46483592864E+02  0.00000000000E+00 0. -1.
      99926    2    1    2    0    0  0.00000000000E+00  0.00000000000E+00  0.10803977846E+04  0.11733649703E+04  0.45774007977E+03 0.  0.
      99925    2    3    3    0    0  0.83106986290E+02 -0.65728069405E+02  0.55644562902E+03  0.62436558990E+03  0.26262844765E+03 0.  0.
         25    1    4    4    0    0  0.21787475989E+02 -0.17120870971E+02  0.33097637038E+03  0.35490940278E+03  0.12509000000E+03 0.  0.
         25    1    4    4    0    0  0.61319510301E+02 -0.48607198433E+02  0.22546925865E+03  0.26945618712E+03  0.12509000000E+03 0.  0.
         25    1    3    3    0    0 -0.83106986290E+02  0.65728069405E+02  0.52395215558E+03  0.54899938043E+03  0.12509000000E+03 0.  0.
<mgrwt>
<rscale>  2 0.45774008E+03</rscale>
<asrwt>0</asrwt>
<pdfrwt beam="1">  1       21 0.16571783E+00 0.45774008E+03</pdfrwt>
<pdfrwt beam="2">  1       21 0.68358232E-02 0.45774008E+03</pdfrwt>
<totfact> 0.32316269E+04</totfact>
</mgrwt>
</event>
<event>
 7    0  0.4788920E-002  0.4478350E+03  0.7546771E-02  0.1028370E+00
         21   -1    0    0  502  501  0.00000000000E+00  0.00000000000E+00  0.14329975964E+03  0.14329975964E+03  0.00000000000E+00 0. -1.
         21   -1    0    0  501  502 -0.00000000000E+00 -0.00000000000E+00 -0.34988931321E+03  0.34988931321E+03  0.00000000000E+00 0. -1.
      99926    2    1    2    0    0  0.00000000000E+00  0.00000000000E+00 -0.20658955357E+03  0.49318907286E+03  0.44783503429E+03 0.  0.
      99925    2    3    3    0    0  0.13213781825E+02 -0.16533747512E+02 -0.24474377078E+03  0.36070805071E+03  0.26412651453E+03 0.  0.
         25    1    4    4    0    0  0.31813044800E+02 -0.76204723029E+01 -0.16983804377E+03  0.21345400120E+03  0.12509000000E+03 0.  0.
         25    1    4    4    0    0 -0.18599262975E+02 -0.89132752096E+01 -0.74905727012E+02  0.14725404951E+03  0.12509000000E+03 0.  0.
         25    1    3    3    0    0 -0.13213781825E+02  0.16533747512E+02  0.38154217214E+02  0.13248102214E+03  0.12509000000E+03 0.  0.
<mgrwt>
<rscale>  2 0.44783503E+03</rscale>
<asrwt>0</asrwt>
<pdfrwt beam="1">  1       21 0.21073494E-01 0.44783503E+03</pdfrwt>
<pdfrwt beam="2">  1       21 0.51454310E-01 0.44783503E+03</pdfrwt>
<totfact> 0.69628699E+04</totfact>
</mgrwt>
</event>
<event>
 7    0  0.4788920E-002  0.4560134E+03  0.7546771E-02  0.1025944E+00
         21   -1    0    0  502  501  0.00000000000E+00  0.00000000000E+00  0.54713172025E+02  0.54713172025E+02  0.00000000000E+00 0.  1.
         21   -1    0    0  501  502 -0.00000000000E+00 -0.00000000000E+00 -0.95017420482E+03  0.95017420482E+03  0.00000000000E+00 0.  1.
      99926    2    1    2    0    0  0.00000000000E+00  0.00000000000E+00 -0.89546103280E+03  0.10048873768E+04  0.45601335385E+03 0.  0.
      99925    2    3    3    0    0 -0.38970072258E+02 -0.10273303207E+03 -0.49507927232E+03  0.57126795312E+03  0.26300350943E+03 0.  0.
         25    1    4    4    0    0 -0.44010230293E+02 -0.86414350814E+02 -0.29218023887E+03  0.33229676568E+03  0.12509000000E+03 0.  0.
         25    1    4    4    0    0  0.50401580350E+01 -0.16318681254E+02 -0.20289903345E+03  0.23897118744E+03  0.12509000000E+03 0.  0.
         25    1    3    3    0    0  0.38970072258E+02  0.10273303207E+03 -0.40038176048E+03  0.43361942373E+03  0.12509000000E+03 0.  0.
<mgrwt>
<rscale>  2 0.45601335E+03</rscale>
<asrwt>0</asrwt>
<pdfrwt beam="1">  1       21 0.80460549E-02 0.45601335E+03</pdfrwt>
<pdfrwt beam="2">  1       21 0.13973150E+00 0.45601335E+03</pdfrwt>
<totfact> 0.38670306E+04</totfact>
</mgrwt>
</event>
<event>
 7    0  0.4788920E-002  0.4509083E+03  0.7546771E-02  0.1027452E+00
         21   -1    0    0  502  501  0.00000000000E+00  0.00000000000E+00  0.15546572911E+03  0.15546572911E+03  0.00000000000E+00 0.  1.
         21   -1    0    0  501  502 -0.00000000000E+00 -0.00000000000E+00 -0.32695029197E+03  0.32695029197E+03  0.00000000000E+00 0.  1.
      99926    2    1    2    0    0 -0.88817841970E-15  0.00000000000E+00 -0.17148456287E+03  0.48241602108E+03  0.45090826350E+03 0.  0.
      99925    2    3    3    0    0 -0.73858940090E+01 -0.10435466212E+03 -0.14299567310E+03  0.31687577861E+03  0.26271286532E+03 0.  0.
         25    1    4    4    0    0 -0.16911041255E+02 -0.80548803632E+02 -0.10753906507E+03  0.18435360506E+03  0.12509000000E+03 0.  0.
         25    1    3    3    0    0  0.73858940090E+01  0.10435466212E+03 -0.28488889764E+02  0.16554024247E+03  0.12509000000E+03 0.  0.
         25    1    4    4    0    0  0.95251472459E+01 -0.23805858489E+02 -0.35456608029E+02  0.13252217355E+03  0.12509000000E+03 0.  0.
<mgrwt>
<rscale>  2 0.45090826E+03</rscale>
<asrwt>0</asrwt>
<pdfrwt beam="1">  1       21 0.22862608E-01 0.45090826E+03</pdfrwt>
<pdfrwt beam="2">  1       21 0.48080925E-01 0.45090826E+03</pdfrwt>
<totfact> 0.68730127E+04</totfact>
</mgrwt>
</event>
<event>
 7    0  0.4788920E-002  0.4498505E+03  0.7546771E-02  0.1027767E+00
         21   -1    0    0  502  501  0.00000000000E+00  0.00000000000E+00  0.60794626841E+03  0.60794626841E+03  0.00000000000E+00 0.  1.
         21   -1    0    0  501  502 -0.00000000000E+00 -0.00000000000E+00 -0.83216828204E+02  0.83216828204E+02  0.00000000000E+00 0.  1.
      99926    2    1    2    0    0  0.00000000000E+00  0.14210854715E-13  0.52472944021E+03  0.69116309661E+03  0.44985046483E+03 0.  0.
      99925    2    3    3    0    0  0.19247423023E+02  0.96994871057E+02  0.39954710504E+03  0.48844014912E+03  0.26297798733E+03 0.  0.
         25    1    3    3    0    0 -0.19247423023E+02 -0.96994871057E+02  0.12518233516E+03  0.20272294750E+03  0.12509000000E+03 0.  0.
         25    1    4    4    0    0  0.29542304719E+02  0.80502027364E+02  0.18376555495E+03  0.23826584200E+03  0.12509000000E+03 0.  0.
         25    1    4    4    0    0 -0.10294881696E+02  0.16492843692E+02  0.21578155009E+03  0.25017430712E+03  0.12509000000E+03 0.  0.
<mgrwt>
<rscale>  2 0.44985046E+03</rscale>
<asrwt>0</asrwt>
<pdfrwt beam="1">  1       21 0.89403860E-01 0.44985046E+03</pdfrwt>
<pdfrwt beam="2">  1       21 0.12237769E-01 0.44985046E+03</pdfrwt>
<totfact> 0.55605377E+04</totfact>
</mgrwt>
</event>
<event>
 7    0  0.4788920E-002  0.4518541E+03  0.7546771E-02  0.1027171E+00
         21   -1    0    0  502  501  0.00000000000E+00  0.00000000000E+00  0.37825041011E+02  0.37825041011E+02  0.00000000000E+00 0.  1.
         21   -1    0    0  501  502 -0.00000000000E+00 -0.00000000000E+00 -0.13494509068E+04  0.13494509068E+04  0.00000000000E+00 0.  1.
      99926    2    1    2    0    0  0.00000000000E+00  0.00000000000E+00 -0.13116258658E+04  0.13872759478E+04  0.45185411757E+03 0.  0.
      99925    2    3    3    0    0 -0.75464518090E+02  0.76679207805E+02 -0.89893094269E+03  0.94282212337E+03  0.26317697887E+03 0.  0.
         25    1    4    4    0    0 -0.39139048095E+02  0.48023761753E+02 -0.59076426758E+03  0.60703218590E+03  0.12509000000E+03 0.  0.
         25    1    3    3    0    0  0.75464518090E+02 -0.76679207805E+02 -0.41269492309E+03  0.44445382443E+03  0.12509000000E+03 0.  0.
         25    1    4    4    0    0 -0.36325469995E+02  0.28655446052E+02 -0.30816667511E+03  0.33578993747E+03  0.12509000000E+03 0.  0.
<mgrwt>
<rscale>  2 0.45185412E+03</rscale>
<asrwt>0</asrwt>
<pdfrwt beam="1">  1       21 0.55625063E-02 0.45185412E+03</pdfrwt>
<pdfrwt beam="2">  1       21 0.19844865E+00 0.45185412E+03</pdfrwt>
<totfact> 0.27335290E+04</totfact>
</mgrwt>
</event>
<event>
 7    0  0.4788920E-002  0.4556210E+03  0.7546771E-02  0.1026059E+00
         21   -1    0    0  502  501  0.00000000000E+00  0.00000000000E+00  0.10493953223E+04  0.10493953223E+04  0.00000000000E+00 0.  1.
         21   -1    0    0  501  502 -0.00000000000E+00 -0.00000000000E+00 -0.49454781251E+02  0.49454781251E+02  0.00000000000E+00 0.  1.
      99926    2    1    2    0    0 -0.14210854715E-13 -0.71054273576E-14  0.99994054102E+03  0.10988501035E+04  0.45562096575E+03 0.  0.
      99925    2    3    3    0    0 -0.10447643480E+03 -0.39513964507E+02  0.57801736441E+03  0.64481997910E+03  0.26308183721E+03 0.  0.
         25    1    3    3    0    0  0.10447643480E+03  0.39513964507E+02  0.42192317662E+03  0.45403012443E+03  0.12509000000E+03 0.  0.
         25    1    4    4    0    0 -0.52050421934E+02 -0.57165783416E+02  0.26143658060E+03  0.29995627513E+03  0.12509000000E+03 0.  0.
         25    1    4    4    0    0 -0.52426012866E+02  0.17651818910E+02  0.31658078381E+03  0.34486370397E+03  0.12509000000E+03 0.  0.
<mgrwt>
<rscale>  2 0.45562097E+03</rscale>
<asrwt>0</asrwt>
<pdfrwt beam="1">  1       21 0.15432283E+00 0.45562097E+03</pdfrwt>
<pdfrwt beam="2">  1       21 0.72727626E-02 0.45562097E+03</pdfrwt>
<totfact> 0.35362530E+04</totfact>
</mgrwt>
</event>
<event>
 7    0  0.4788920E-002  0.4543845E+03  0.7546771E-02  0.1026423E+00
         21   -1    0    0  502  501  0.00000000000E+00  0.00000000000E+00  0.23146303206E+03  0.23146303206E+03  0.00000000000E+00 0. -1.
         21   -1    0    0  501  502 -0.00000000000E+00 -0.00000000000E+00 -0.22300025794E+03  0.22300025794E+03  0.00000000000E+00 0. -1.
      99926    2    1    2    0    0 -0.17763568394E-14  0.00000000000E+00  0.84627741128E+01  0.45446329000E+03  0.45438448852E+03 0.  0.
      99925    2    3    3    0    0  0.14012611998E+02  0.53188490876E+02 -0.93095430605E+02  0.28420775881E+03  0.26283440054E+03 0.  0.
         25    1    3    3    0    0 -0.14012611998E+02 -0.53188490876E+02  0.10155820472E+03  0.17025553119E+03  0.12509000000E+03 0.  0.
         25    1    4    4    0    0 -0.17475606172E+02 -0.55930004935E+01 -0.36703823566E+02  0.13164861272E+03  0.12509000000E+03 0.  0.
         25    1    4    4    0    0  0.31488218170E+02  0.58781491369E+02 -0.56391607039E+02  0.15255914609E+03  0.12509000000E+03 0.  0.
<mgrwt>
<rscale>  2 0.45438449E+03</rscale>
<asrwt>0</asrwt>
<pdfrwt beam="1">  1       21 0.34038681E-01 0.45438449E+03</pdfrwt>
<pdfrwt beam="2">  1       21 0.32794155E-01 0.45438449E+03</pdfrwt>
<totfact> 0.68923000E+04</totfact>
</mgrwt>
</event>
<event>
 7    0  0.4788920E-002  0.4543234E+03  0.7546771E-02  0.1026441E+00
         21   -1    0    0  502  501  0.00000000000E+00  0.00000000000E+00  0.37239330710E+03  0.37239330710E+03  0.00000000000E+00 0. -1.
         21   -1    0    0  501  502 -0.00000000000E+00 -0.00000000000E+00 -0.13856970441E+03  0.13856970441E+03  0.00000000000E+00 0. -1.
      99926    2    1    2    0    0  0.00000000000E+00  0.00000000000E+00  0.23382360269E+03  0.51096301151E+03  0.45432336717E+03 0.  0.
      99925    2    3    3    0    0  0.81194794789E+02 -0.39702490007E+02  0.22265059737E+03  0.35623348439E+03  0.26298312584E+03 0.  0.
         25    1    4    4    0    0  0.44941629286E+02 -0.42030154046E+01  0.15813580870E+03  0.20662008003E+03  0.12509000000E+03 0.  0.
         25    1    3    3    0    0 -0.81194794789E+02  0.39702490007E+02  0.11173005313E+02  0.15472952712E+03  0.12509000000E+03 0.  0.
         25    1    4    4    0    0  0.36253165502E+02 -0.35499474602E+02  0.64514788678E+02  0.14961340436E+03  0.12509000000E+03 0.  0.
<mgrwt>
<rscale>  2 0.45432337E+03</rscale>
<asrwt>0</asrwt>
<pdfrwt beam="1">  1       21 0.54763721E-01 0.45432337E+03</pdfrwt>
<pdfrwt beam="2">  1       21 0.20377898E-01 0.45432337E+03</pdfrwt>
<totfact> 0.64854690E+04</totfact>
</mgrwt>
</event>
<event>
 7    0  0.4788920E-002  0.4458700E+03  0.7546771E-02  0.1028961E+00
         21   -1    0    0  502  501  0.00000000000E+00  0.00000000000E+00  0.65191137256E+03  0.65191137256E+03  0.00000000000E+00 0. -1.
         21   -1    0    0  501  502 -0.00000000000E+00 -0.00000000000E+00 -0.76237384601E+02  0.76237384601E+02  0.00000000000E+00 0. -1.
      99926    2    1    2    0    0  0.14210854715E-13  0.00000000000E+00  0.57567398796E+03  0.72814875716E+03  0.44587001709E+03 0.  0.
      99925    2    3    3    0    0  0.91525920328E+02 -0.71797256580E+01  0.44650898168E+03  0.52625856548E+03  0.26296247729E+03 0.  0.
         25    1    4    4    0    0  0.86070530660E+01 -0.15723504303E+01  0.16554916816E+03  0.20767905245E+03  0.12509000000E+03 0.  0.
         25    1    4    4    0    0  0.82918867262E+02 -0.56073752277E+01  0.28095981353E+03  0.31857951303E+03  0.12509000000E+03 0.  0.
         25    1    3    3    0    0 -0.91525920328E+02  0.71797256580E+01  0.12916500628E+03  0.20189019169E+03  0.12509000000E+03 0.  0.
<mgrwt>
<rscale>  2 0.44587002E+03</rscale>
<asrwt>0</asrwt>
<pdfrwt beam="1">  1       21 0.95869317E-01 0.44587002E+03</pdfrwt>
<pdfrwt beam="2">  1       21 0.11211380E-01 0.44587002E+03</pdfrwt>
<totfact> 0.55263320E+04</totfact>
</mgrwt>
</event>
<event>
 7    0  0.4788920E-002  0.4527669E+03  0.7546771E-02  0.1026900E+00
         21   -1    0    0  502  501  0.00000000000E+00  0.00000000000E+00  0.39653582908E+03  0.39653582908E+03  0.00000000000E+00 0.  1.
         21   -1    0    0  501  502 -0.00000000000E+00 -0.00000000000E+00 -0.12924295434E+03  0.12924295434E+03  0.00000000000E+00 0.  1.
      99926    2    1    2    0    0  0.00000000000E+00  0.00000000000E+00  0.26729287474E+03  0.52577878342E+03  0.45276688065E+03 0.  0.
      99925    2    3    3    0    0 -0.39174635564E+02  0.90559364361E+02  0.10962364440E+03  0.30162984891E+03  0.26311132967E+03 0.  0.
         25    1    3    3    0    0  0.39174635564E+02 -0.90559364361E+02  0.15766923034E+03  0.22414893451E+03  0.12509000000E+03 0.  0.
         25    1    4    4    0    0 -0.19990758164E+02  0.23367695969E+02  0.89696414813E+02  0.15696698556E+03  0.12509000000E+03 0.  0.
         25    1    4    4    0    0 -0.19183877400E+02  0.67191668393E+02  0.19927229586E+02  0.14466286335E+03  0.12509000000E+03 0.  0.
<mgrwt>
<rscale>  2 0.45276688E+03</rscale>
<asrwt>0</asrwt>
<pdfrwt beam="1">  1       21 0.58314092E-01 0.45276688E+03</pdfrwt>
<pdfrwt beam="2">  1       21 0.19006317E-01 0.45276688E+03</pdfrwt>
<totfact> 0.64629666E+04</totfact>
</mgrwt>
</event>
<event>
 7    0  0.4788920E-002  0.4684155E+03  0.7546771E-02  0.1022368E+00
         21   -1    0    0  502  501  0.00000000000E+00  0.00000000000E+00  0.22518708498E+04  0.22518708498E+04  0.00000000000E+00 0. -1.
         21   -1    0    0  501  502 -0.00000000000E+00 -0.00000000000E+00 -0.24358974022E+02  0.24358974022E+02  0.00000000000E+00 0. -1.
      99926    2    1    2    0    0  0.00000000000E+00  0.26645352591E-14  0.22275118758E+04  0.22762298238E+04  0.46841547170E+03 0.  0.
      99925    2    3    3    0    0  0.11380189978E+03  0.26901239135E+01  0.16403891680E+04  0.16652317131E+04  0.26298655254E+03 0.  0.
         25    1    3    3    0    0 -0.11380189978E+03 -0.26901239135E+01  0.58712270779E+03  0.61099811069E+03  0.12509000000E+03 0.  0.
         25    1    4    4    0    0  0.81335167075E+02 -0.32318071946E+02  0.87931614176E+03  0.89247086924E+03  0.12509000000E+03 0.  0.
         25    1    4    4    0    0  0.32466732707E+02  0.35008195859E+02  0.76107302624E+03  0.77276084391E+03  0.12509000000E+03 0.  0.
<mgrwt>
<rscale>  2 0.46841547E+03</rscale>
<asrwt>0</asrwt>
<pdfrwt beam="1">  1       21 0.33115734E+00 0.46841547E+03</pdfrwt>
<pdfrwt beam="2">  1       21 0.35822036E-02 0.46841547E+03</pdfrwt>
<totfact> 0.87529298E+03</totfact>
</mgrwt>
</event>
<event>
 7    0  0.4788920E-002  0.4510101E+03  0.7546771E-02  0.1027421E+00
         21   -1    0    0  502  501  0.00000000000E+00  0.00000000000E+00  0.10570704499E+03  0.10570704499E+03  0.00000000000E+00 0. -1.
         21   -1    0    0  501  502 -0.00000000000E+00 -0.00000000000E+00 -0.48107029722E+03  0.48107029722E+03  0.00000000000E+00 0. -1.
      99926    2    1    2    0    0  0.00000000000E+00 -0.13322676296E-14 -0.37536325222E+03  0.58677734221E+03  0.45101006443E+03 0.  0.
      99925    2    3    3    0    0  0.98771303049E+02 -0.14663338502E+01 -0.29829176177E+03  0.40973089864E+03  0.26295154253E+03 0.  0.
         25    1    4    4    0    0  0.19845422512E+02 -0.19812979980E+02 -0.10535912026E+03  0.16593506951E+03  0.12509000000E+03 0.  0.
         25    1    4    4    0    0  0.78925880536E+02  0.18346646130E+02 -0.19293264151E+03  0.24379582913E+03  0.12509000000E+03 0.  0.
         25    1    3    3    0    0 -0.98771303049E+02  0.14663338502E+01 -0.77071490457E+02  0.17704644357E+03  0.12509000000E+03 0.  0.
<mgrwt>
<rscale>  2 0.45101006E+03</rscale>
<asrwt>0</asrwt>
<pdfrwt beam="1">  1       21 0.15545154E-01 0.45101006E+03</pdfrwt>
<pdfrwt beam="2">  1       21 0.70745631E-01 0.45101006E+03</pdfrwt>
<totfact> 0.61413627E+04</totfact>
</mgrwt>
</event>
<event>
 7    0  0.4788920E-002  0.4247402E+03  0.7546771E-02  0.1035535E+00
         21   -1    0    0  502  501  0.00000000000E+00  0.00000000000E+00  0.13670302187E+03  0.13670302187E+03  0.00000000000E+00 0. -1.
         21   -1    0    0  501  502 -0.00000000000E+00 -0.00000000000E+00 -0.32991997112E+03  0.32991997112E+03  0.00000000000E+00 0. -1.
      99926    2    1    2    0    0  0.44408920985E-15  0.00000000000E+00 -0.19321694925E+03  0.46662299299E+03  0.42474018896E+03 0.  0.
      99925    2    3    3    0    0  0.23263912144E+01 -0.56942435079E+02 -0.18943972403E+03  0.32911070795E+03  0.26301824278E+03 0.  0.
         25    1    3    3    0    0 -0.23263912144E+01  0.56942435079E+02 -0.37772252145E+01  0.13751228505E+03  0.12509000000E+03 0.  0.
         25    1    4    4    0    0  0.41557472700E+01 -0.59759484302E+01 -0.49834751213E+02  0.13484803567E+03  0.12509000000E+03 0.  0.
         25    1    4    4    0    0 -0.18293560556E+01 -0.50966486649E+02 -0.13960497282E+03  0.19426267228E+03  0.12509000000E+03 0.  0.
<mgrwt>
<rscale>  2 0.42474019E+03</rscale>
<asrwt>0</asrwt>
<pdfrwt beam="1">  1       21 0.20103386E-01 0.42474019E+03</pdfrwt>
<pdfrwt beam="2">  1       21 0.48517643E-01 0.42474019E+03</pdfrwt>
<totfact> 0.86718268E+04</totfact>
</mgrwt>
</event>
<event>
 7    0  0.4788920E-002  0.4553471E+03  0.7546771E-02  0.1026139E+00
         21   -1    0    0  502  501  0.00000000000E+00  0.00000000000E+00  0.19142825696E+03  0.19142825696E+03  0.00000000000E+00 0. -1.
         21   -1    0    0  501  502 -0.00000000000E+00 -0.00000000000E+00 -0.27078156327E+03  0.27078156327E+03  0.00000000000E+00 0. -1.
      99926    2    1    2    0    0  0.00000000000E+00  0.00000000000E+00 -0.79353306316E+02  0.46220982023E+03  0.45534708815E+03 0.  0.
      99925    2    3    3    0    0 -0.38914226708E+02 -0.10455145572E+03 -0.29062985375E+02  0.28721853926E+03  0.26306749751E+03 0.  0.
         25    1    4    4    0    0 -0.24482649415E+02 -0.74009208574E+02  0.19851095165E+02  0.14872234921E+03  0.12509000000E+03 0.  0.
         25    1    3    3    0    0  0.38914226708E+02  0.10455145572E+03 -0.50290320940E+02  0.17499128096E+03  0.12509000000E+03 0.  0.
         25    1    4    4    0    0 -0.14431577293E+02 -0.30542247143E+02 -0.48914080540E+02  0.13849619005E+03  0.12509000000E+03 0.  0.
<mgrwt>
<rscale>  2 0.45534709E+03</rscale>
<asrwt>0</asrwt>
<pdfrwt beam="1">  1       21 0.28151214E-01 0.45534709E+03</pdfrwt>
<pdfrwt beam="2">  1       21 0.39820818E-01 0.45534709E+03</pdfrwt>
<totfact> 0.67830376E+04</totfact>
</mgrwt>
</event>
<event>
 7    0  0.4788920E-002  0.4641709E+03  0.7546771E-02  0.1023578E+00
         21   -1    0    0  502  501  0.00000000000E+00  0.00000000000E+00  0.57808084004E+02  0.57808084004E+02  0.00000000000E+00 0.  1.
         21   -1    0    0  501  502 -0.00000000000E+00 -0.00000000000E+00 -0.93176686665E+03  0.93176686665E+03  0.00000000000E+00 0.  1.
      99926    2    1    2    0    0 -0.14210854715E-13 -0.17763568394E-14 -0.87395878265E+03  0.98957495066E+03  0.46417090516E+03 0.  0.
      99925    2    3    3    0    0  0.10911418272E+03  0.84066451428E+01 -0.65872238690E+03  0.71763600400E+03  0.26288719003E+03 0.  0.
         25    1    4    4    0    0  0.16186488111E+02 -0.14518191047E+02 -0.27816154992E+03  0.30576810858E+03  0.12509000000E+03 0.  0.
         25    1    3    3    0    0 -0.10911418272E+03 -0.84066451428E+01 -0.21523639575E+03  0.27193894666E+03  0.12509000000E+03 0.  0.
         25    1    4    4    0    0  0.92927694608E+02  0.22924836190E+02 -0.38056083698E+03  0.41186789543E+03  0.12509000000E+03 0.  0.
<mgrwt>
<rscale>  2 0.46417091E+03</rscale>
<asrwt>0</asrwt>
<pdfrwt beam="1">  1       21 0.85011889E-02 0.46417091E+03</pdfrwt>
<pdfrwt beam="2">  1       21 0.13702454E+00 0.46417091E+03</pdfrwt>
<totfact> 0.36862399E+04</totfact>
</mgrwt>
</event>
<event>
 7    0  0.4788920E-002  0.4606219E+03  0.7546771E-02  0.1024601E+00
         21   -1    0    0  502  501  0.00000000000E+00  0.00000000000E+00  0.19347286319E+03  0.19347286319E+03  0.00000000000E+00 0.  1.
         21   -1    0    0  501  502 -0.00000000000E+00 -0.00000000000E+00 -0.27416322597E+03  0.27416322597E+03  0.00000000000E+00 0.  1.
      99926    2    1    2    0    0  0.00000000000E+00  0.00000000000E+00 -0.80690362776E+02  0.46763608916E+03  0.46062194612E+03 0.  0.
      99925    2    3    3    0    0 -0.59558028950E+02  0.27303566210E+02  0.49545296091E+02  0.27553851375E+03  0.26300968167E+03 0.  0.
         25    1    4    4    0    0  0.56388265272E+01  0.22830136827E+01  0.43398127378E+01  0.12531301046E+03  0.12509000000E+03 0.  0.
         25    1    4    4    0    0 -0.65196855477E+02  0.25020552527E+02  0.45205483354E+02  0.15022550329E+03  0.12509000000E+03 0.  0.
         25    1    3    3    0    0  0.59558028950E+02 -0.27303566210E+02 -0.13023565887E+03  0.19209757542E+03  0.12509000000E+03 0.  0.
<mgrwt>
<rscale>  2 0.46062195E+03</rscale>
<asrwt>0</asrwt>
<pdfrwt beam="1">  1       21 0.28451892E-01 0.46062195E+03</pdfrwt>
<pdfrwt beam="2">  1       21 0.40318121E-01 0.46062195E+03</pdfrwt>
<totfact> 0.64675790E+04</totfact>
</mgrwt>
</event>
<event>
 7    0  0.4788920E-002  0.4776381E+03  0.7546771E-02  0.1019786E+00
         21   -1    0    0  502  501  0.00000000000E+00  0.00000000000E+00  0.10694093613E+03  0.10694093613E+03  0.00000000000E+00 0.  1.
         21   -1    0    0  501  502 -0.00000000000E+00 -0.00000000000E+00 -0.53332755032E+03  0.53332755032E+03  0.00000000000E+00 0.  1.
      99926    2    1    2    0    0  0.00000000000E+00  0.14210854715E-13 -0.42638661419E+03  0.64026848645E+03  0.47763813706E+03 0.  0.
      99925    2    3    3    0    0  0.36225124828E+02  0.12697175355E+03 -0.28746610355E+03  0.41140061573E+03  0.26302018947E+03 0.  0.
         25    1    3    3    0    0 -0.36225124828E+02 -0.12697175355E+03 -0.13892051064E+03  0.22886787071E+03  0.12509000000E+03 0.  0.
         25    1    4    4    0    0  0.17382555208E+02  0.48689328661E+02 -0.83817131228E+02  0.15920308897E+03  0.12509000000E+03 0.  0.
         25    1    4    4    0    0  0.18842569620E+02  0.78282424889E+02 -0.20364897232E+03  0.25219752676E+03  0.12509000000E+03 0.  0.
<mgrwt>
<rscale>  2 0.47763814E+03</rscale>
<asrwt>0</asrwt>
<pdfrwt beam="1">  1       21 0.15726608E-01 0.47763814E+03</pdfrwt>
<pdfrwt beam="2">  1       21 0.78430522E-01 0.47763814E+03</pdfrwt>
<totfact> 0.47241498E+04</totfact>
</mgrwt>
</event>
<event>
 7    0  0.4788920E-002  0.4499766E+03  0.7546771E-02  0.1027729E+00
         21   -1    0    0  502  501  0.00000000000E+00  0.00000000000E+00  0.44071219106E+03  0.44071219106E+03  0.00000000000E+00 0. -1.
         21   -1    0    0  501  502 -0.00000000000E+00 -0.00000000000E+00 -0.11485893204E+03  0.11485893204E+03  0.00000000000E+00 0. -1.
      99926    2    1    2    0    0  0.00000000000E+00 -0.35527136788E-14  0.32585325902E+03  0.55557112310E+03  0.44997658429E+03 0.  0.
      99925    2    3    3    0    0  0.96383588912E+02 -0.27777650566E+02  0.25665914870E+03  0.38093800171E+03  0.26301796223E+03 0.  0.
         25    1    4    4    0    0  0.33663982297E+02 -0.12970926504E+02  0.17543489614E+03  0.21846377164E+03  0.12509000000E+03 0.  0.
         25    1    3    3    0    0 -0.96383588912E+02  0.27777650566E+02  0.69194110316E+02  0.17463312139E+03  0.12509000000E+03 0.  0.
         25    1    4    4    0    0  0.62719606615E+02 -0.14806724062E+02  0.81224252566E+02  0.16247423007E+03  0.12509000000E+03 0.  0.
<mgrwt>
<rscale>  2 0.44997658E+03</rscale>
<asrwt>0</asrwt>
<pdfrwt beam="1">  1       21 0.64810616E-01 0.44997658E+03</pdfrwt>
<pdfrwt beam="2">  1       21 0.16891020E-01 0.44997658E+03</pdfrwt>
<totfact> 0.64005701E+04</totfact>
</mgrwt>
</event>
<event>
 7    0  0.4788920E-002  0.4462368E+03  0.7546771E-02  0.1028850E+00
         21   -1    0    0  502  501  0.00000000000E+00  0.00000000000E+00  0.11176950633E+04  0.11176950633E+04  0.00000000000E+00 0. -1.
         21   -1    0    0  501  502 -0.00000000000E+00 -0.00000000000E+00 -0.44539707688E+02  0.44539707688E+02  0.00000000000E+00 0. -1.
      99926    2    1    2    0    0 -0.35527136788E-14  0.14210854715E-13  0.10731553556E+04  0.11622347710E+04  0.44623675960E+03 0.  0.
      99925    2    3    3    0    0  0.20394205034E+02 -0.10226480570E+03  0.70784167264E+03  0.76226526071E+03  0.26293436458E+03 0.  0.
         25    1    4    4    0    0  0.14032722447E+01 -0.73711935941E+02  0.28315539439E+03  0.31821361402E+03  0.12509000000E+03 0.  0.
         25    1    3    3    0    0 -0.20394205034E+02  0.10226480570E+03  0.36531368299E+03  0.39996951030E+03  0.12509000000E+03 0.  0.
         25    1    4    4    0    0  0.18990932789E+02 -0.28552869763E+02  0.42468627824E+03  0.44405164669E+03  0.12509000000E+03 0.  0.
<mgrwt>
<rscale>  2 0.44623676E+03</rscale>
<asrwt>0</asrwt>
<pdfrwt beam="1">  1       21 0.16436690E+00 0.44623676E+03</pdfrwt>
<pdfrwt beam="2">  1       21 0.65499577E-02 0.44623676E+03</pdfrwt>
<totfact> 0.35756593E+04</totfact>
</mgrwt>
</event>
<event>
 7    0  0.4788920E-002  0.4578953E+03  0.7546771E-02  0.1025393E+00
         21   -1    0    0  502  501  0.00000000000E+00  0.00000000000E+00  0.32230541991E+03  0.32230541991E+03  0.00000000000E+00 0. -1.
         21   -1    0    0  501  502 -0.00000000000E+00 -0.00000000000E+00 -0.16263151404E+03  0.16263151404E+03  0.00000000000E+00 0. -1.
      99926    2    1    2    0    0  0.00000000000E+00  0.00000000000E+00  0.15967390587E+03  0.48493693395E+03  0.45789526498E+03 0.  0.
      99925    2    3    3    0    0 -0.57100326082E+02 -0.33537074427E+02 -0.50781983288E+00  0.27118269200E+03  0.26297264489E+03 0.  0.
         25    1    3    3    0    0  0.57100326082E+02  0.33537074427E+02  0.16018172571E+03  0.21375424195E+03  0.12509000000E+03 0.  0.
         25    1    4    4    0    0  0.34720877739E+01 -0.26199493122E+01  0.21845020016E+02  0.12705759532E+03  0.12509000000E+03 0.  0.
         25    1    4    4    0    0 -0.60572413855E+02 -0.30917125114E+02 -0.22352839848E+02  0.14412509669E+03  0.12509000000E+03 0.  0.
<mgrwt>
<rscale>  2 0.45789526E+03</rscale>
<asrwt>0</asrwt>
<pdfrwt beam="1">  1       21 0.47397856E-01 0.45789526E+03</pdfrwt>
<pdfrwt beam="2">  1       21 0.23916399E-01 0.45789526E+03</pdfrwt>
<totfact> 0.64839388E+04</totfact>
</mgrwt>
</event>
<event>
 7    0  0.4788920E-002  0.4573174E+03  0.7546771E-02  0.1025562E+00
         21   -1    0    0  502  501  0.00000000000E+00  0.00000000000E+00  0.11163737932E+04  0.11163737932E+04  0.00000000000E+00 0. -1.
         21   -1    0    0  501  502 -0.00000000000E+00 -0.00000000000E+00 -0.46834488058E+02  0.46834488058E+02  0.00000000000E+00 0. -1.
      99926    2    1    2    0    0 -0.14210854715E-13 -0.14210854715E-13  0.10695393051E+04  0.11632082812E+04  0.45731737375E+03 0.  0.
      99925    2    3    3    0    0  0.68291774625E+02  0.92834406662E+02  0.67732382990E+03  0.73570099400E+03  0.26307107114E+03 0.  0.
         25    1    4    4    0    0  0.58708184421E+02  0.15388942894E+02  0.35510336717E+03  0.38135204203E+03  0.12509000000E+03 0.  0.
         25    1    4    4    0    0  0.95835902035E+01  0.77445463768E+02  0.32222046273E+03  0.35434895197E+03  0.12509000000E+03 0.  0.
         25    1    3    3    0    0 -0.68291774625E+02 -0.92834406662E+02  0.39221547520E+03  0.42750728722E+03  0.12509000000E+03 0.  0.
<mgrwt>
<rscale>  2 0.45731737E+03</rscale>
<asrwt>0</asrwt>
<pdfrwt beam="1">  1       21 0.16417260E+00 0.45731737E+03</pdfrwt>
<pdfrwt beam="2">  1       21 0.68874254E-02 0.45731737E+03</pdfrwt>
<totfact> 0.32749014E+04</totfact>
</mgrwt>
</event>
<event>
 7    0  0.4788920E-002  0.4565163E+03  0.7546771E-02  0.1025796E+00
         21   -1    0    0  502  501  0.00000000000E+00  0.00000000000E+00  0.11325037918E+04  0.11325037918E+04  0.00000000000E+00 0.  1.
         21   -1    0    0  501  502 -0.00000000000E+00 -0.00000000000E+00 -0.46005844740E+02  0.46005844740E+02  0.00000000000E+00 0.  1.
      99926    2    1    2    0    0  0.00000000000E+00 -0.14210854715E-13  0.10864979470E+04  0.11785096365E+04  0.45651634631E+03 0.  0.
      99925    2    3    3    0    0  0.90925774287E+02 -0.69701979805E+02  0.67121486074E+03  0.72991916372E+03  0.26291963386E+03 0.  0.
         25    1    4    4    0    0  0.56008330872E+02 -0.74277848302E+02  0.33622569519E+03  0.37060674317E+03  0.12509000000E+03 0.  0.
         25    1    4    4    0    0  0.34917443415E+02  0.45758684969E+01  0.33498916555E+03  0.35931242055E+03  0.12509000000E+03 0.  0.
         25    1    3    3    0    0 -0.90925774287E+02  0.69701979805E+02  0.41528308628E+03  0.44859047278E+03  0.12509000000E+03 0.  0.
<mgrwt>
<rscale>  2 0.45651635E+03</rscale>
<asrwt>0</asrwt>
<pdfrwt beam="1">  1       21 0.16654466E+00 0.45651635E+03</pdfrwt>
<pdfrwt beam="2">  1       21 0.67655661E-02 0.45651635E+03</pdfrwt>
<totfact> 0.32459421E+04</totfact>
</mgrwt>
</event>
<event>
 7    0  0.4788920E-002  0.4581890E+03  0.7546771E-02  0.1025308E+00
         21   -1    0    0  502  501  0.00000000000E+00  0.00000000000E+00  0.32939066531E+02  0.32939066531E+02  0.00000000000E+00 0. -1.
         21   -1    0    0  501  502 -0.00000000000E+00 -0.00000000000E+00 -0.15933753052E+04  0.15933753052E+04  0.00000000000E+00 0. -1.
      99926    2    1    2    0    0  0.00000000000E+00  0.00000000000E+00 -0.15604362387E+04  0.16263143717E+04  0.45818902294E+03 0.  0.
      99925    2    3    3    0    0 -0.81513134839E+02 -0.77576772830E+02 -0.88737624174E+03  0.93254220856E+03  0.26369647228E+03 0.  0.
         25    1    4    4    0    0 -0.53972876661E+01 -0.40163828862E+02 -0.33552576700E+03  0.36037107582E+03  0.12509000000E+03 0.  0.
         25    1    3    3    0    0  0.81513134839E+02  0.77576772830E+02 -0.67305999691E+03  0.69377216316E+03  0.12509000000E+03 0.  0.
         25    1    4    4    0    0 -0.76115847173E+02 -0.37412943967E+02 -0.55185047474E+03  0.57217113274E+03  0.12509000000E+03 0.  0.
<mgrwt>
<rscale>  2 0.45818902E+03</rscale>
<asrwt>0</asrwt>
<pdfrwt beam="1">  1       21 0.48439787E-02 0.45818902E+03</pdfrwt>
<pdfrwt beam="2">  1       21 0.23431998E+00 0.45818902E+03</pdfrwt>
<totfact> 0.20333440E+04</totfact>
</mgrwt>
</event>
<event>
 7    0  0.4788920E-002  0.4475336E+03  0.7546771E-02  0.1028460E+00
         21   -1    0    0  502  501  0.00000000000E+00  0.00000000000E+00  0.18927713603E+03  0.18927713603E+03  0.00000000000E+00 0. -1.
         21   -1    0    0  501  502 -0.00000000000E+00 -0.00000000000E+00 -0.26454107634E+03  0.26454107634E+03  0.00000000000E+00 0. -1.
      99926    2    1    2    0    0 -0.14210854715E-13 -0.71054273576E-14 -0.75263940311E+02  0.45381821236E+03  0.44753358439E+03 0.  0.
      99925    2    3    3    0    0  0.87030744250E+02  0.56444283279E+02 -0.69713638550E+02  0.29121863823E+03  0.26303611214E+03 0.  0.
         25    1    3    3    0    0 -0.87030744250E+02 -0.56444283279E+02 -0.55503017608E+01  0.16259957414E+03  0.12509000000E+03 0.  0.
         25    1    4    4    0    0  0.72401951912E+02  0.24064857926E+01 -0.48910906088E+02  0.15260281337E+03  0.12509000000E+03 0.  0.
         25    1    4    4    0    0  0.14628792338E+02  0.54037797486E+02 -0.20802732463E+02  0.13861582486E+03  0.12509000000E+03 0.  0.
<mgrwt>
<rscale>  2 0.44753358E+03</rscale>
<asrwt>0</asrwt>
<pdfrwt beam="1">  1       21 0.27834873E-01 0.44753358E+03</pdfrwt>
<pdfrwt beam="2">  1       21 0.38903099E-01 0.44753358E+03</pdfrwt>
<totfact> 0.72876759E+04</totfact>
</mgrwt>
</event>
<event>
 7    0  0.4788920E-002  0.4574139E+03  0.7546771E-02  0.1025534E+00
         21   -1    0    0  502  501  0.00000000000E+00  0.00000000000E+00  0.11950167796E+03  0.11950167796E+03  0.00000000000E+00 0. -1.
         21   -1    0    0  501  502 -0.00000000000E+00 -0.00000000000E+00 -0.43770823947E+03  0.43770823947E+03  0.00000000000E+00 0. -1.
      99926    2    1    2    0    0  0.00000000000E+00  0.00000000000E+00 -0.31820656151E+03  0.55720991743E+03  0.45741390042E+03 0.  0.
      99925    2    3    3    0    0 -0.65480641059E+02 -0.74618596476E+02 -0.27131560974E+03  0.39077098343E+03  0.26312383417E+03 0.  0.
         25    1    3    3    0    0  0.65480641059E+02  0.74618596476E+02 -0.46890951766E+02  0.16643893400E+03  0.12509000000E+03 0.  0.
         25    1    4    4    0    0  0.59408438976E+01 -0.50972633792E+02 -0.12677246376E+03  0.18534365026E+03  0.12509000000E+03 0.  0.
         25    1    4    4    0    0 -0.71421484957E+02 -0.23645962684E+02 -0.14454314598E+03  0.20542733317E+03  0.12509000000E+03 0.  0.
<mgrwt>
<rscale>  2 0.45741390E+03</rscale>
<asrwt>0</asrwt>
<pdfrwt beam="1">  1       21 0.17573776E-01 0.45741390E+03</pdfrwt>
<pdfrwt beam="2">  1       21 0.64368859E-01 0.45741390E+03</pdfrwt>
<totfact> 0.60234129E+04</totfact>
</mgrwt>
</event>
<event>
 7    0  0.4788920E-002  0.4372586E+03  0.7546771E-02  0.1031591E+00
         21   -1    0    0  502  501  0.00000000000E+00  0.00000000000E+00  0.31288741230E+03  0.31288741230E+03  0.00000000000E+00 0. -1.
         21   -1    0    0  501  502 -0.00000000000E+00 -0.00000000000E+00 -0.15276670756E+03  0.15276670756E+03  0.00000000000E+00 0. -1.
      99926    2    1    2    0    0 -0.14210854715E-13 -0.71054273576E-14  0.16012070474E+03  0.46565411986E+03  0.43725864115E+03 0.  0.
      99925    2    3    3    0    0 -0.71586254090E+02  0.58498994797E+02  0.76812527951E+02  0.28920445399E+03  0.26304434529E+03 0.  0.
         25    1    4    4    0    0 -0.97324407973E-02  0.48338115326E+02  0.31055827630E+02  0.13765371778E+03  0.12509000000E+03 0.  0.
         25    1    4    4    0    0 -0.71576521649E+02  0.10160879471E+02  0.45756700321E+02  0.15155073621E+03  0.12509000000E+03 0.  0.
         25    1    3    3    0    0  0.71586254090E+02 -0.58498994797E+02  0.83308176788E+02  0.17644966587E+03  0.12509000000E+03 0.  0.
<mgrwt>
<rscale>  2 0.43725864E+03</rscale>
<asrwt>0</asrwt>
<pdfrwt beam="1">  1       21 0.46012855E-01 0.43725864E+03</pdfrwt>
<pdfrwt beam="2">  1       21 0.22465692E-01 0.43725864E+03</pdfrwt>
<totfact> 0.78204443E+04</totfact>
</mgrwt>
</event>
<event>
 7    0  0.4788920E-002  0.4608071E+03  0.7546771E-02  0.1024547E+00
         21   -1    0    0  502  501  0.00000000000E+00  0.00000000000E+00  0.42665992435E+03  0.42665992435E+03  0.00000000000E+00 0. -1.
         21   -1    0    0  501  502 -0.00000000000E+00 -0.00000000000E+00 -0.12442179343E+03  0.12442179343E+03  0.00000000000E+00 0. -1.
      99926    2    1    2    0    0  0.00000000000E+00  0.00000000000E+00  0.30223813092E+03  0.55108171778E+03  0.46080708750E+03 0.  0.
      99925    2    3    3    0    0 -0.11373988851E+03 -0.32488318998E+02  0.19965965166E+03  0.35067686350E+03  0.26290308668E+03 0.  0.
         25    1    4    4    0    0 -0.73884689613E+02 -0.33089459229E+02  0.14673612338E+03  0.20912402462E+03  0.12509000000E+03 0.  0.
         25    1    3    3    0    0  0.11373988851E+03  0.32488318998E+02  0.10257847926E+03  0.20040485428E+03  0.12509000000E+03 0.  0.
         25    1    4    4    0    0 -0.39855198898E+02  0.60114023123E+00  0.52923528283E+02  0.14155283888E+03  0.12509000000E+03 0.  0.
<mgrwt>
<rscale>  2 0.46080709E+03</rscale>
<asrwt>0</asrwt>
<pdfrwt beam="1">  1       21 0.62744106E-01 0.46080709E+03</pdfrwt>
<pdfrwt beam="2">  1       21 0.18297323E-01 0.46080709E+03</pdfrwt>
<totfact> 0.59035608E+04</totfact>
</mgrwt>
</event>
<event>
 7    0  0.4788920E-002  0.4544898E+03  0.7546771E-02  0.1026392E+00
         21   -1    0    0  502  501  0.00000000000E+00  0.00000000000E+00  0.16367195794E+03  0.16367195794E+03  0.00000000000E+00 0. -1.
         21   -1    0    0  501  502 -0.00000000000E+00 -0.00000000000E+00 -0.31551068197E+03  0.31551068197E+03  0.00000000000E+00 0. -1.
      99926    2    1    2    0    0  0.88817841970E-15  0.00000000000E+00 -0.15183872403E+03  0.47918263990E+03  0.45448982857E+03 0.  0.
      99925    2    3    3    0    0 -0.46075941928E+01 -0.44307835261E+02 -0.20454853128E+03  0.33631820742E+03  0.26322123927E+03 0.  0.
         25    1    3    3    0    0  0.46075941928E+01  0.44307835261E+02  0.52709807252E+02  0.14286443249E+03  0.12509000000E+03 0.  0.
         25    1    4    4    0    0  0.18073448641E+02 -0.41833116385E+02 -0.14187523789E+03  0.19455783305E+03  0.12509000000E+03 0.  0.
         25    1    4    4    0    0 -0.22681042833E+02 -0.24747188757E+01 -0.62673293387E+02  0.14176037437E+03  0.12509000000E+03 0.  0.
<mgrwt>
<rscale>  2 0.45448983E+03</rscale>
<asrwt>0</asrwt>
<pdfrwt beam="1">  1       21 0.24069406E-01 0.45448983E+03</pdfrwt>
<pdfrwt beam="2">  1       21 0.46398629E-01 0.45448983E+03</pdfrwt>
<totfact> 0.67030664E+04</totfact>
</mgrwt>
</event>
<event>
 7    0  0.4788920E-002  0.4538051E+03  0.7546771E-02  0.1026593E+00
         21   -1    0    0  502  501  0.00000000000E+00  0.00000000000E+00  0.21885361723E+02  0.21885361723E+02  0.00000000000E+00 0. -1.
         21   -1    0    0  501  502 -0.00000000000E+00 -0.00000000000E+00 -0.23524750350E+04  0.23524750350E+04  0.00000000000E+00 0. -1.
      99926    2    1    2    0    0  0.14210854715E-13  0.00000000000E+00 -0.23305896733E+04  0.23743603968E+04  0.45380509951E+03 0.  0.
      99925    2    3    3    0    0  0.77889015227E+02 -0.42513962443E+02 -0.18262067116E+04  0.18471755944E+04  0.26296879525E+03 0.  0.
         25    1    4    4    0    0  0.67084652853E+02 -0.42716987545E+02 -0.11374945059E+04  0.11471121788E+04  0.12509000000E+03 0.  0.
         25    1    4    4    0    0  0.10804362374E+02  0.20302510149E+00 -0.68871220569E+03  0.70006341557E+03  0.12509000000E+03 0.  0.
         25    1    3    3    0    0 -0.77889015227E+02  0.42513962443E+02 -0.50438296171E+03  0.52718480238E+03  0.12509000000E+03 0.  0.
<mgrwt>
<rscale>  2 0.45380510E+03</rscale>
<asrwt>0</asrwt>
<pdfrwt beam="1">  1       21 0.32184362E-02 0.45380510E+03</pdfrwt>
<pdfrwt beam="2">  1       21 0.34595214E+00 0.45380510E+03</pdfrwt>
<totfact> 0.85835983E+03</totfact>
</mgrwt>
</event>
<event>
 7    0  0.4788920E-002  0.4344650E+03  0.7546771E-02  0.1032459E+00
         21   -1    0    0  502  501  0.00000000000E+00  0.00000000000E+00  0.32354707079E+03  0.32354707079E+03  0.00000000000E+00 0. -1.
         21   -1    0    0  501  502 -0.00000000000E+00 -0.00000000000E+00 -0.14585192111E+03  0.14585192111E+03  0.00000000000E+00 0. -1.
      99926    2    1    2    0    0  0.71054273576E-14 -0.35527136788E-14  0.17769514968E+03  0.46939899190E+03  0.43446501283E+03 0.  0.
      99925    2    3    3    0    0  0.43343188199E+02  0.30778486711E+02  0.32185141289E+02  0.27028440717E+03  0.26304339991E+03 0.  0.
         25    1    4    4    0    0 -0.82724510498E+01  0.26701779132E+02  0.41114867638E+02  0.13460816801E+03  0.12509000000E+03 0.  0.
         25    1    3    3    0    0 -0.43343188199E+02 -0.30778486711E+02  0.14551000839E+03  0.19911458472E+03  0.12509000000E+03 0.  0.
         25    1    4    4    0    0  0.51615639248E+02  0.40767075786E+01 -0.89297263486E+01  0.13567623916E+03  0.12509000000E+03 0.  0.
<mgrwt>
<rscale>  2 0.43446501E+03</rscale>
<asrwt>0</asrwt>
<pdfrwt beam="1">  1       21 0.47580452E-01 0.43446501E+03</pdfrwt>
<pdfrwt beam="2">  1       21 0.21448812E-01 0.43446501E+03</pdfrwt>
<totfact> 0.79700005E+04</totfact>
</mgrwt>
</event>
<event>
 7    0  0.4788920E-002  0.4612853E+03  0.7546771E-02  0.1024409E+00
         21   -1    0    0  502  501  0.00000000000E+00  0.00000000000E+00  0.11347602456E+03  0.11347602456E+03  0.00000000000E+00 0. -1.
         21   -1    0    0  501  502 -0.00000000000E+00 -0.00000000000E+00 -0.46878656532E+03  0.46878656532E+03  0.00000000000E+00 0. -1.
      99926    2    1    2    0    0  0.00000000000E+00  0.00000000000E+00 -0.35531054077E+03  0.58226258988E+03  0.46128531647E+03 0.  0.
      99925    2    3    3    0    0 -0.11096610552E+03  0.24666285064E+02 -0.26710599232E+03  0.39160726564E+03  0.26284736479E+03 0.  0.
         25    1    4    4    0    0 -0.43582697673E+02  0.47791928049E+02 -0.15275605006E+03  0.20776293908E+03  0.12509000000E+03 0.  0.
         25    1    3    3    0    0  0.11096610552E+03 -0.24666285064E+02 -0.88204548448E+02  0.19065532424E+03  0.12509000000E+03 0.  0.
         25    1    4    4    0    0 -0.67383407843E+02 -0.23125642985E+02 -0.11434994225E+03  0.18384432656E+03  0.12509000000E+03 0.  0.
<mgrwt>
<rscale>  2 0.46128532E+03</rscale>
<asrwt>0</asrwt>
<pdfrwt beam="1">  1       21 0.16687650E-01 0.46128532E+03</pdfrwt>
<pdfrwt beam="2">  1       21 0.68939202E-01 0.46128532E+03</pdfrwt>
<totfact> 0.56903012E+04</totfact>
</mgrwt>
</event>
<event>
 7    0  0.4788920E-002  0.4540736E+03  0.7546771E-02  0.1026514E+00
         21   -1    0    0  502  501  0.00000000000E+00  0.00000000000E+00  0.78115081726E+03  0.78115081726E+03  0.00000000000E+00 0.  1.
         21   -1    0    0  501  502 -0.00000000000E+00 -0.00000000000E+00 -0.65986895386E+02  0.65986895386E+02  0.00000000000E+00 0.  1.
      99926    2    1    2    0    0  0.00000000000E+00  0.71054273576E-14  0.71516392188E+03  0.84713771265E+03  0.45407363834E+03 0.  0.
      99925    2    3    3    0    0  0.25132062542E+02  0.36197358326E+02  0.64309731832E+03  0.69619741728E+03  0.26301105239E+03 0.  0.
         25    1    4    4    0    0 -0.18219336304E+02  0.13019145929E+02  0.24453527187E+03  0.27558383418E+03  0.12509000000E+03 0.  0.
         25    1    4    4    0    0  0.43351398846E+02  0.23178212397E+02  0.39856204646E+03  0.42061358310E+03  0.12509000000E+03 0.  0.
         25    1    3    3    0    0 -0.25132062542E+02 -0.36197358326E+02  0.72066603553E+02  0.15094029537E+03  0.12509000000E+03 0.  0.
<mgrwt>
<rscale>  2 0.45407364E+03</rscale>
<asrwt>0</asrwt>
<pdfrwt beam="1">  1       21 0.11487512E+00 0.45407364E+03</pdfrwt>
<pdfrwt beam="2">  1       21 0.97039556E-02 0.45407364E+03</pdfrwt>
<totfact> 0.45900346E+04</totfact>
</mgrwt>
</event>
<event>
 7    0  0.4788920E-002  0.4561014E+03  0.7546771E-02  0.1025918E+00
         21   -1    0    0  502  501  0.00000000000E+00  0.00000000000E+00  0.55407047646E+02  0.55407047646E+02  0.00000000000E+00 0.  1.
         21   -1    0    0  501  502 -0.00000000000E+00 -0.00000000000E+00 -0.93863711910E+03  0.93863711910E+03  0.00000000000E+00 0.  1.
      99926    2    1    2    0    0 -0.14210854715E-13  0.00000000000E+00 -0.88323007145E+03  0.99404416674E+03  0.45610135531E+03 0.  0.
      99925    2    3    3    0    0  0.10548359466E+03  0.42038410426E+02 -0.58112359154E+03  0.64790857193E+03  0.26303397545E+03 0.  0.
         25    1    4    4    0    0  0.62713560548E+02  0.40563124065E+02 -0.38250984516E+03  0.40931607280E+03  0.12509000000E+03 0.  0.
         25    1    4    4    0    0  0.42770034111E+02  0.14752863609E+01 -0.19861374638E+03  0.23859249913E+03  0.12509000000E+03 0.  0.
         25    1    3    3    0    0 -0.10548359466E+03 -0.42038410426E+02 -0.30210647991E+03  0.34613559481E+03  0.12509000000E+03 0.  0.
<mgrwt>
<rscale>  2 0.45610136E+03</rscale>
<asrwt>0</asrwt>
<pdfrwt beam="1">  1       21 0.81480954E-02 0.45610136E+03</pdfrwt>
<pdfrwt beam="2">  1       21 0.13803487E+00 0.45610136E+03</pdfrwt>
<totfact> 0.39062136E+04</totfact>
</mgrwt>
</event>
<event>
 7    0  0.4788920E-002  0.4514789E+03  0.7546771E-02  0.1027282E+00
         21   -1    0    0  502  501  0.00000000000E+00  0.00000000000E+00  0.39601824171E+03  0.39601824171E+03  0.00000000000E+00 0. -1.
         21   -1    0    0  501  502 -0.00000000000E+00 -0.00000000000E+00 -0.12867665165E+03  0.12867665165E+03  0.00000000000E+00 0. -1.
      99926    2    1    2    0    0  0.71054273576E-14  0.14210854715E-13  0.26734159006E+03  0.52469489336E+03  0.45147890907E+03 0.  0.
      99925    2    3    3    0    0  0.35394001060E+02 -0.83640305915E+02  0.24047487716E+03  0.36779440118E+03  0.26305155181E+03 0.  0.
         25    1    4    4    0    0 -0.21606659285E+01 -0.62106709322E+01  0.12573921435E+03  0.17748548965E+03  0.12509000000E+03 0.  0.
         25    1    4    4    0    0  0.37554666988E+02 -0.77429634983E+02  0.11473566281E+03  0.19030891153E+03  0.12509000000E+03 0.  0.
         25    1    3    3    0    0 -0.35394001060E+02  0.83640305915E+02  0.26866712904E+02  0.15690049218E+03  0.12509000000E+03 0.  0.
<mgrwt>
<rscale>  2 0.45147891E+03</rscale>
<asrwt>0</asrwt>
<pdfrwt beam="1">  1       21 0.58237977E-01 0.45147891E+03</pdfrwt>
<pdfrwt beam="2">  1       21 0.18923037E-01 0.45147891E+03</pdfrwt>
<totfact> 0.65372736E+04</totfact>
</mgrwt>
</event>
<event>
 7    0  0.4788920E-002  0.4689909E+03  0.7546771E-02  0.1022205E+00
         21   -1    0    0  502  501  0.00000000000E+00  0.00000000000E+00  0.24588500987E+03  0.24588500987E+03  0.00000000000E+00 0. -1.
         21   -1    0    0  501  502 -0.00000000000E+00 -0.00000000000E+00 -0.22363346445E+03  0.22363346445E+03  0.00000000000E+00 0. -1.
      99926    2    1    2    0    0 -0.14210854715E-13  0.00000000000E+00  0.22251545424E+02  0.46951847432E+03  0.46899090231E+03 0.  0.
      99925    2    3    3    0    0  0.98378095774E+02 -0.75840422858E+02  0.33148649445E+02  0.29289380321E+03  0.26316900945E+03 0.  0.
         25    1    4    4    0    0  0.11139424227E+02 -0.20158467881E+02  0.78426764314E-02  0.12719260498E+03  0.12509000000E+03 0.  0.
         25    1    4    4    0    0  0.87238671547E+02 -0.55681954976E+02  0.33140806768E+02  0.16570119824E+03  0.12509000000E+03 0.  0.
         25    1    3    3    0    0 -0.98378095774E+02  0.75840422858E+02 -0.10897104021E+02  0.17662467111E+03  0.12509000000E+03 0.  0.
<mgrwt>
<rscale>  2 0.46899090E+03</rscale>
<asrwt>0</asrwt>
<pdfrwt beam="1">  1       21 0.36159560E-01 0.46899090E+03</pdfrwt>
<pdfrwt beam="2">  1       21 0.32887274E-01 0.46899090E+03</pdfrwt>
<totfact> 0.60458760E+04</totfact>
</mgrwt>
</event>
<event>
 7    0  0.4788920E-002  0.4542869E+03  0.7546771E-02  0.1026451E+00
         21   -1    0    0  502  501  0.00000000000E+00  0.00000000000E+00  0.27711018575E+02  0.27711018575E+02  0.00000000000E+00 0. -1.
         21   -1    0    0  501  502 -0.00000000000E+00 -0.00000000000E+00 -0.18618636424E+04  0.18618636424E+04  0.00000000000E+00 0. -1.
      99926    2    1    2    0    0  0.35527136788E-14  0.00000000000E+00 -0.18341526239E+04  0.18895746610E+04  0.45428686082E+03 0.  0.
      99925    2    3    3    0    0 -0.17485496142E+02  0.97549574849E+02 -0.13755655266E+04  0.14040117958E+04  0.26314813860E+03 0.  0.
         25    1    3    3    0    0  0.17485496142E+02 -0.97549574849E+02 -0.45858709729E+03  0.48556286517E+03  0.12509000000E+03 0.  0.
         25    1    4    4    0    0  0.13413654479E+02  0.82905377560E+02 -0.79317902309E+03  0.80736218547E+03  0.12509000000E+03 0.  0.
         25    1    4    4    0    0 -0.30899150621E+02  0.14644197289E+02 -0.58238650349E+03  0.59664961038E+03  0.12509000000E+03 0.  0.
<mgrwt>
<rscale>  2 0.45428686E+03</rscale>
<asrwt>0</asrwt>
<pdfrwt beam="1">  1       21 0.40751508E-02 0.45428686E+03</pdfrwt>
<pdfrwt beam="2">  1       21 0.27380341E+00 0.45428686E+03</pdfrwt>
<totfact> 0.15684200E+04</totfact>
</mgrwt>
</event>
<event>
 7    0  0.4788920E-002  0.4313611E+03  0.7546771E-02  0.1033431E+00
         21   -1    0    0  502  501  0.00000000000E+00  0.00000000000E+00  0.10829593288E+04  0.10829593288E+04  0.00000000000E+00 0. -1.
         21   -1    0    0  501  502 -0.00000000000E+00 -0.00000000000E+00 -0.42954615630E+02  0.42954615630E+02  0.00000000000E+00 0. -1.
      99926    2    1    2    0    0  0.00000000000E+00  0.00000000000E+00  0.10400047132E+04  0.11259139445E+04  0.43136110957E+03 0.  0.
      99925    2    3    3    0    0  0.18462620828E+02  0.30210140796E+02  0.45578101256E+03  0.52740048474E+03  0.26298558691E+03 0.  0.
         25    1    4    4    0    0 -0.20977961777E+02  0.32158552905E+00  0.17580584977E+03  0.21678418580E+03  0.12509000000E+03 0.  0.
         25    1    4    4    0    0  0.39440582605E+02  0.29888555267E+02  0.27997516279E+03  0.31061629895E+03  0.12509000000E+03 0.  0.
         25    1    3    3    0    0 -0.18462620828E+02 -0.30210140796E+02  0.58422370064E+03  0.59851345972E+03  0.12509000000E+03 0.  0.
<mgrwt>
<rscale>  2 0.43136111E+03</rscale>
<asrwt>0</asrwt>
<pdfrwt beam="1">  1       21 0.15925871E+00 0.43136111E+03</pdfrwt>
<pdfrwt beam="2">  1       21 0.63168559E-02 0.43136111E+03</pdfrwt>
<totfact> 0.41781494E+04</totfact>
</mgrwt>
</event>
<event>
 7    0  0.4788920E-002  0.4603841E+03  0.7546771E-02  0.1024670E+00
         21   -1    0    0  502  501  0.00000000000E+00  0.00000000000E+00  0.15233441639E+04  0.15233441639E+04  0.00000000000E+00 0. -1.
         21   -1    0    0  501  502 -0.00000000000E+00 -0.00000000000E+00 -0.34784252785E+02  0.34784252785E+02  0.00000000000E+00 0. -1.
      99926    2    1    2    0    0  0.00000000000E+00  0.14210854715E-13  0.14885599111E+04  0.15581284167E+04  0.46038413733E+03 0.  0.
      99925    2    3    3    0    0  0.54283296296E+02  0.94253937651E+02  0.10888009780E+04  0.11253638228E+04  0.26291763530E+03 0.  0.
         25    1    4    4    0    0 -0.22746910114E+01  0.63450741376E+02  0.45498486063E+03  0.47611963024E+03  0.12509000000E+03 0.  0.
         25    1    3    3    0    0 -0.54283296296E+02 -0.94253937651E+02  0.39975893316E+03  0.43276459393E+03  0.12509000000E+03 0.  0.
         25    1    4    4    0    0  0.56557987308E+02  0.30803196275E+02  0.63381611735E+03  0.64924419254E+03  0.12509000000E+03 0.  0.
<mgrwt>
<rscale>  2 0.46038414E+03</rscale>
<asrwt>0</asrwt>
<pdfrwt beam="1">  1       21 0.22402116E+00 0.46038414E+03</pdfrwt>
<pdfrwt beam="2">  1       21 0.51153323E-02 0.46038414E+03</pdfrwt>
<totfact> 0.21477608E+04</totfact>
</mgrwt>
</event>
<event>
 7    0  0.4788920E-002  0.4477864E+03  0.7546771E-02  0.1028384E+00
         21   -1    0    0  502  501  0.00000000000E+00  0.00000000000E+00  0.21499245951E+03  0.21499245951E+03  0.00000000000E+00 0.  1.
         21   -1    0    0  501  502 -0.00000000000E+00 -0.00000000000E+00 -0.23316238560E+03  0.23316238560E+03  0.00000000000E+00 0.  1.
      99926    2    1    2    0    0  0.00000000000E+00  0.00000000000E+00 -0.18169926086E+02  0.44815484512E+03  0.44778635418E+03 0.  0.
      99925    2    3    3    0    0  0.77347597822E+02 -0.29205266042E+02 -0.78311474963E+02  0.28659955286E+03  0.26300383673E+03 0.  0.
         25    1    4    4    0    0  0.49780128397E+01 -0.26696567856E+02 -0.15268378367E+02  0.12891128277E+03  0.12509000000E+03 0.  0.
         25    1    4    4    0    0  0.72369584982E+02 -0.25086981862E+01 -0.63043096596E+02  0.15768827009E+03  0.12509000000E+03 0.  0.
         25    1    3    3    0    0 -0.77347597822E+02  0.29205266042E+02  0.60141548877E+02  0.16155529225E+03  0.12509000000E+03 0.  0.
<mgrwt>
<rscale>  2 0.44778635E+03</rscale>
<asrwt>0</asrwt>
<pdfrwt beam="1">  1       21 0.31616538E-01 0.44778635E+03</pdfrwt>
<pdfrwt beam="2">  1       21 0.34288586E-01 0.44778635E+03</pdfrwt>
<totfact> 0.73171947E+04</totfact>
</mgrwt>
</event>
<event>
 7    0  0.4788920E-002  0.4563281E+03  0.7546771E-02  0.1025852E+00
         21   -1    0    0  502  501  0.00000000000E+00  0.00000000000E+00  0.52926909143E+03  0.52926909143E+03  0.00000000000E+00 0. -1.
         21   -1    0    0  501  502 -0.00000000000E+00 -0.00000000000E+00 -0.98359838969E+02  0.98359838969E+02  0.00000000000E+00 0. -1.
      99926    2    1    2    0    0  0.00000000000E+00  0.00000000000E+00  0.43090925246E+03  0.62762893040E+03  0.45632805132E+03 0.  0.
      99925    2    3    3    0    0 -0.97032995036E+02  0.56917811819E+02  0.29919056183E+03  0.41396479913E+03  0.26305289051E+03 0.  0.
         25    1    4    4    0    0 -0.61118507880E+02 -0.26332799743E+01  0.11429105422E+03  0.18014538391E+03  0.12509000000E+03 0.  0.
         25    1    3    3    0    0  0.97032995036E+02 -0.56917811819E+02  0.13171869063E+03  0.21366413127E+03  0.12509000000E+03 0.  0.
         25    1    4    4    0    0 -0.35914487156E+02  0.59551091793E+02  0.18489950761E+03  0.23381941522E+03  0.12509000000E+03 0.  0.
<mgrwt>
<rscale>  2 0.45632805E+03</rscale>
<asrwt>0</asrwt>
<pdfrwt beam="1">  1       21 0.77833689E-01 0.45632805E+03</pdfrwt>
<pdfrwt beam="2">  1       21 0.14464682E-01 0.45632805E+03</pdfrwt>
<totfact> 0.56415241E+04</totfact>
</mgrwt>
</event>
<event>
 7    0  0.4788920E-002  0.4559784E+03  0.7546771E-02  0.1025954E+00
         21   -1    0    0  502  501  0.00000000000E+00  0.00000000000E+00  0.19547510689E+03  0.19547510689E+03  0.00000000000E+00 0.  1.
         21   -1    0    0  501  502 -0.00000000000E+00 -0.00000000000E+00 -0.26591149900E+03  0.26591149900E+03  0.00000000000E+00 0.  1.
      99926    2    1    2    0    0  0.00000000000E+00  0.00000000000E+00 -0.70436392111E+02  0.46138660589E+03  0.45597841480E+03 0.  0.
      99925    2    3    3    0    0  0.86374436468E+02 -0.65760119792E+02 -0.79730561668E+02  0.29549861260E+03  0.26301621804E+03 0.  0.
         25    1    4    4    0    0  0.46332203800E+02 -0.42756062230E+02  0.11313512946E+00  0.14007953050E+03  0.12509000000E+03 0.  0.
         25    1    3    3    0    0 -0.86374436468E+02  0.65760119792E+02  0.92941695575E+01  0.16588799329E+03  0.12509000000E+03 0.  0.
         25    1    4    4    0    0  0.40042232668E+02 -0.23004057562E+02 -0.79843696798E+02  0.15541908210E+03  0.12509000000E+03 0.  0.
<mgrwt>
<rscale>  2 0.45597841E+03</rscale>
<asrwt>0</asrwt>
<pdfrwt beam="1">  1       21 0.28746340E-01 0.45597841E+03</pdfrwt>
<pdfrwt beam="2">  1       21 0.39104632E-01 0.45597841E+03</pdfrwt>
<totfact> 0.67551016E+04</totfact>
</mgrwt>
</event>
<event>
 7    0  0.4788920E-002  0.4732071E+03  0.7546771E-02  0.1021019E+00
         21   -1    0    0  502  501  0.00000000000E+00  0.00000000000E+00  0.42825199629E+03  0.42825199629E+03  0.00000000000E+00 0.  1.
         21   -1    0    0  501  502 -0.00000000000E+00 -0.00000000000E+00 -0.13072033011E+03  0.13072033011E+03  0.00000000000E+00 0.  1.
      99926    2    1    2    0    0  0.14210854715E-13  0.00000000000E+00  0.29753166618E+03  0.55897232639E+03  0.47320711036E+03 0.  0.
      99925    2    3    3    0    0  0.98656635859E+02  0.69529135806E+02  0.23976950003E+03  0.37580189083E+03  0.26300231080E+03 0.  0.
         25    1    4    4    0    0  0.68627690737E+02  0.37600136124E+02  0.17303515447E+03  0.22740317270E+03  0.12509000000E+03 0.  0.
         25    1    3    3    0    0 -0.98656635859E+02 -0.69529135806E+02  0.57762166154E+02  0.18317043556E+03  0.12509000000E+03 0.  0.
         25    1    4    4    0    0  0.30028945122E+02  0.31928999682E+02  0.66734345557E+02  0.14839871813E+03  0.12509000000E+03 0.  0.
<mgrwt>
<rscale>  2 0.47320711E+03</rscale>
<asrwt>0</asrwt>
<pdfrwt beam="1">  1       21 0.62978234E-01 0.47320711E+03</pdfrwt>
<pdfrwt beam="2">  1       21 0.19223578E-01 0.47320711E+03</pdfrwt>
<totfact> 0.53190072E+04</totfact>
</mgrwt>
</event>
<event>
 7    0  0.4788920E-002  0.4549087E+03  0.7546771E-02  0.1026268E+00
         21   -1    0    0  502  501  0.00000000000E+00  0.00000000000E+00  0.23071233998E+03  0.23071233998E+03  0.00000000000E+00 0. -1.
         21   -1    0    0  501  502 -0.00000000000E+00 -0.00000000000E+00 -0.22424237185E+03  0.22424237185E+03  0.00000000000E+00 0. -1.
      99926    2    1    2    0    0  0.00000000000E+00  0.71054273576E-14  0.64699681238E+01  0.45495471183E+03  0.45490870439E+03 0.  0.
      99925    2    3    3    0    0 -0.95119386604E+02  0.39109553271E+02  0.50749698737E+02  0.28706946081E+03  0.26316551549E+03 0.  0.
         25    1    4    4    0    0 -0.49242867336E+02 -0.22668005605E+00 -0.11323451139E+02  0.13490974766E+03  0.12509000000E+03 0.  0.
         25    1    3    3    0    0  0.95119386604E+02 -0.39109553271E+02 -0.44279730613E+02  0.16788525101E+03  0.12509000000E+03 0.  0.
         25    1    4    4    0    0 -0.45876519268E+02  0.39336233327E+02  0.62073149876E+02  0.15215971316E+03  0.12509000000E+03 0.  0.
<mgrwt>
<rscale>  2 0.45490870E+03</rscale>
<asrwt>0</asrwt>
<pdfrwt beam="1">  1       21 0.33928286E-01 0.45490870E+03</pdfrwt>
<pdfrwt beam="2">  1       21 0.32976819E-01 0.45490870E+03</pdfrwt>
<totfact> 0.68599067E+04</totfact>
</mgrwt>
</event>
<event>
 7    0  0.4788920E-002  0.4608433E+03  0.7546771E-02  0.1024537E+00
         21   -1    0    0  502  501  0.00000000000E+00  0.00000000000E+00  0.21142952951E+03  0.21142952951E+03  0.00000000000E+00 0. -1.
         21   -1    0    0  501  502 -0.00000000000E+00 -0.00000000000E+00 -0.25111978220E+03  0.25111978220E+03  0.00000000000E+00 0. -1.
      99926    2    1    2    0    0  0.71054273576E-14 -0.14210854715E-13 -0.39690252688E+02  0.46254931171E+03  0.46084330266E+03 0.  0.
      99925    2    3    3    0    0  0.48775882527E+02 -0.10380630866E+03  0.51324566720E+01  0.28701749178E+03  0.26305486508E+03 0.  0.
         25    1    4    4    0    0  0.21193435055E+02 -0.10188361696E+02 -0.97984418166E+01  0.12765767492E+03  0.12509000000E+03 0.  0.
         25    1    4    4    0    0  0.27582447472E+02 -0.93617946960E+02  0.14930898489E+02  0.15935981686E+03  0.12509000000E+03 0.  0.
         25    1    3    3    0    0 -0.48775882527E+02  0.10380630866E+03 -0.44822709360E+02  0.17553181993E+03  0.12509000000E+03 0.  0.
<mgrwt>
<rscale>  2 0.46084330E+03</rscale>
<asrwt>0</asrwt>
<pdfrwt beam="1">  1       21 0.31092578E-01 0.46084330E+03</pdfrwt>
<pdfrwt beam="2">  1       21 0.36929379E-01 0.46084330E+03</pdfrwt>
<totfact> 0.64916535E+04</totfact>
</mgrwt>
</event>
<event>
 7    0  0.4788920E-002  0.4520633E+03  0.7546771E-02  0.1027109E+00
         21   -1    0    0  502  501  0.00000000000E+00  0.00000000000E+00  0.66706745874E+02  0.66706745874E+02  0.00000000000E+00 0. -1.
         21   -1    0    0  501  502 -0.00000000000E+00 -0.00000000000E+00 -0.76589400965E+03  0.76589400965E+03  0.00000000000E+00 0. -1.
      99926    2    1    2    0    0  0.00000000000E+00  0.00000000000E+00 -0.69918726378E+03  0.83260075553E+03  0.45206325694E+03 0.  0.
      99925    2    3    3    0    0  0.72192184865E+02 -0.82211290000E+02 -0.46974144464E+03  0.54929297275E+03  0.26285991963E+03 0.  0.
         25    1    4    4    0    0  0.25001928360E+02 -0.56648492710E+02 -0.30623654777E+03  0.33654491444E+03  0.12509000000E+03 0.  0.
         25    1    4    4    0    0  0.47190256505E+02 -0.25562797291E+02 -0.16350489687E+03  0.21274805831E+03  0.12509000000E+03 0.  0.
         25    1    3    3    0    0 -0.72192184865E+02  0.82211290000E+02 -0.22944581914E+03  0.28330778278E+03  0.12509000000E+03 0.  0.
<mgrwt>
<rscale>  2 0.45206326E+03</rscale>
<asrwt>0</asrwt>
<pdfrwt beam="1">  1       21 0.98098148E-02 0.45206326E+03</pdfrwt>
<pdfrwt beam="2">  1       21 0.11263148E+00 0.45206326E+03</pdfrwt>
<totfact> 0.47308687E+04</totfact>
</mgrwt>
</event>
<event>
 7    0  0.4788920E-002  0.4571427E+03  0.7546771E-02  0.1025613E+00
         21   -1    0    0  502  501  0.00000000000E+00  0.00000000000E+00  0.24688409661E+04  0.24688409661E+04  0.00000000000E+00 0.  1.
         21   -1    0    0  501  502 -0.00000000000E+00 -0.00000000000E+00 -0.21161693096E+02  0.21161693096E+02  0.00000000000E+00 0.  1.
      99926    2    1    2    0    0  0.00000000000E+00  0.00000000000E+00  0.24476792730E+04  0.24900026592E+04  0.45714266844E+03 0.  0.
      99925    2    3    3    0    0 -0.11236799853E+03  0.22189753689E+02  0.15973349574E+04  0.16229087107E+04  0.26312499883E+03 0.  0.
         25    1    3    3    0    0  0.11236799853E+03 -0.22189753689E+02  0.85034431566E+03  0.86709394850E+03  0.12509000000E+03 0.  0.
         25    1    4    4    0    0 -0.67660893545E+02  0.75159591474E+01  0.60061354451E+03  0.61726706060E+03  0.12509000000E+03 0.  0.
         25    1    4    4    0    0 -0.44707104989E+02  0.14673794541E+02  0.99672141285E+03  0.10056416501E+04  0.12509000000E+03 0.  0.
<mgrwt>
<rscale>  2 0.45714267E+03</rscale>
<asrwt>0</asrwt>
<pdfrwt beam="1">  1       21 0.36306465E+00 0.45714267E+03</pdfrwt>
<pdfrwt beam="2">  1       21 0.31120154E-02 0.45714267E+03</pdfrwt>
<totfact> 0.71153674E+03</totfact>
</mgrwt>
</event>
<event>
 7    0  0.4788920E-002  0.4012123E+03  0.7546771E-02  0.1043361E+00
         21   -1    0    0  502  501  0.00000000000E+00  0.00000000000E+00  0.10591184964E+03  0.10591184964E+03  0.00000000000E+00 0.  1.
         21   -1    0    0  501  502 -0.00000000000E+00 -0.00000000000E+00 -0.37996525881E+03  0.37996525881E+03  0.00000000000E+00 0.  1.
      99926    2    1    2    0    0  0.35527136788E-14  0.00000000000E+00 -0.27405340917E+03  0.48587710846E+03  0.40121227978E+03 0.  0.
      99925    2    3    3    0    0 -0.13285854781E+02 -0.22944965431E+02 -0.13445134361E+03  0.29656458857E+03  0.26300267303E+03 0.  0.
         25    1    4    4    0    0  0.31516861445E+02  0.25529949272E+01 -0.67233571127E+02  0.14549120772E+03  0.12509000000E+03 0.  0.
         25    1    4    4    0    0 -0.44802716226E+02 -0.25497960358E+02 -0.67217772481E+02  0.15107338085E+03  0.12509000000E+03 0.  0.
         25    1    3    3    0    0  0.13285854781E+02  0.22944965431E+02 -0.13960206556E+03  0.18931251988E+03  0.12509000000E+03 0.  0.
<mgrwt>
<rscale>  2 0.40121228E+03</rscale>
<asrwt>0</asrwt>
<pdfrwt beam="1">  1       21 0.15575272E-01 0.40121228E+03</pdfrwt>
<pdfrwt beam="2">  1       21 0.55877244E-01 0.40121228E+03</pdfrwt>
<totfact> 0.10407506E+05</totfact>
</mgrwt>
</event>
<event>
 7    0  0.4788920E-002  0.4571463E+03  0.7546771E-02  0.1025612E+00
         21   -1    0    0  502  501  0.00000000000E+00  0.00000000000E+00  0.19002988681E+03  0.19002988681E+03  0.00000000000E+00 0. -1.
         21   -1    0    0  501  502 -0.00000000000E+00 -0.00000000000E+00 -0.27493402115E+03  0.27493402115E+03  0.00000000000E+00 0. -1.
      99926    2    1    2    0    0  0.00000000000E+00  0.00000000000E+00 -0.84904134345E+02  0.46496390796E+03  0.45714628258E+03 0.  0.
      99925    2    3    3    0    0  0.69374056027E+02 -0.89711234051E+02 -0.33054107674E+02  0.28833775324E+03  0.26303083611E+03 0.  0.
         25    1    3    3    0    0 -0.69374056027E+02  0.89711234051E+02 -0.51850026671E+02  0.17662615472E+03  0.12509000000E+03 0.  0.
         25    1    4    4    0    0  0.18786251901E+02 -0.69639891476E+02 -0.45396941392E+02  0.15136389310E+03  0.12509000000E+03 0.  0.
         25    1    4    4    0    0  0.50587804126E+02 -0.20071342575E+02  0.12342833719E+02  0.13697386015E+03  0.12509000000E+03 0.  0.
<mgrwt>
<rscale>  2 0.45714628E+03</rscale>
<asrwt>0</asrwt>
<pdfrwt beam="1">  1       21 0.27945572E-01 0.45714628E+03</pdfrwt>
<pdfrwt beam="2">  1       21 0.40431474E-01 0.45714628E+03</pdfrwt>
<totfact> 0.66668098E+04</totfact>
</mgrwt>
</event>
<event>
 7    0  0.4788920E-002  0.4581742E+03  0.7546771E-02  0.1025312E+00
         21   -1    0    0  502  501  0.00000000000E+00  0.00000000000E+00  0.10314881667E+03  0.10314881667E+03  0.00000000000E+00 0.  1.
         21   -1    0    0  501  502 -0.00000000000E+00 -0.00000000000E+00 -0.50878822376E+03  0.50878822376E+03  0.00000000000E+00 0.  1.
      99926    2    1    2    0    0  0.00000000000E+00  0.44408920985E-15 -0.40563940709E+03  0.61193704044E+03  0.45817421673E+03 0.  0.
      99925    2    3    3    0    0 -0.11577914903E+03 -0.13847443986E+01 -0.26557939704E+03  0.39132189276E+03  0.26304691361E+03 0.  0.
         25    1    4    4    0    0 -0.55466647497E+02 -0.44091506671E+01 -0.76896736948E+02  0.15702422058E+03  0.12509000000E+03 0.  0.
         25    1    4    4    0    0 -0.60312501532E+02  0.30244062685E+01 -0.18868266009E+03  0.23429767219E+03  0.12509000000E+03 0.  0.
         25    1    3    3    0    0  0.11577914903E+03  0.13847443986E+01 -0.14006001005E+03  0.22061514767E+03  0.12509000000E+03 0.  0.
<mgrwt>
<rscale>  2 0.45817422E+03</rscale>
<asrwt>0</asrwt>
<pdfrwt beam="1">  1       21 0.15168944E-01 0.45817422E+03</pdfrwt>
<pdfrwt beam="2">  1       21 0.74821797E-01 0.45817422E+03</pdfrwt>
<totfact> 0.56519040E+04</totfact>
</mgrwt>
</event>
<event>
 7    0  0.4788920E-002  0.4509266E+03  0.7546771E-02  0.1027446E+00
         21   -1    0    0  502  501  0.00000000000E+00  0.00000000000E+00  0.73483009521E+02  0.73483009521E+02  0.00000000000E+00 0.  1.
         21   -1    0    0  501  502 -0.00000000000E+00 -0.00000000000E+00 -0.69177493521E+03  0.69177493521E+03  0.00000000000E+00 0.  1.
      99926    2    1    2    0    0  0.00000000000E+00 -0.35527136788E-14 -0.61829192569E+03  0.76525794473E+03  0.45092661998E+03 0.  0.
      99925    2    3    3    0    0  0.10433352209E+03  0.21623675053E+02 -0.42649374237E+03  0.51269682662E+03  0.26383338795E+03 0.  0.
         25    1    4    4    0    0  0.29971469783E+02 -0.53901185179E+01 -0.13979093386E+03  0.19004303636E+03  0.12509000000E+03 0.  0.
         25    1    3    3    0    0 -0.10433352209E+03 -0.21623675053E+02 -0.19179818332E+03  0.25256111810E+03  0.12509000000E+03 0.  0.
         25    1    4    4    0    0  0.74362052308E+02  0.27013793571E+02 -0.28670280851E+03  0.32265379027E+03  0.12509000000E+03 0.  0.
<mgrwt>
<rscale>  2 0.45092662E+03</rscale>
<asrwt>0</asrwt>
<pdfrwt beam="1">  1       21 0.10806325E-01 0.45092662E+03</pdfrwt>
<pdfrwt beam="2">  1       21 0.10173160E+00 0.45092662E+03</pdfrwt>
<totfact> 0.51105774E+04</totfact>
</mgrwt>
</event>
<event>
 7    0  0.4788920E-002  0.4114505E+03  0.7546771E-02  0.1039885E+00
         21   -1    0    0  502  501  0.00000000000E+00  0.00000000000E+00  0.83094055828E+02  0.83094055828E+02  0.00000000000E+00 0.  1.
         21   -1    0    0  501  502 -0.00000000000E+00 -0.00000000000E+00 -0.50933693217E+03  0.50933693217E+03  0.00000000000E+00 0.  1.
      99926    2    1    2    0    0  0.35527136788E-14  0.71054273576E-14 -0.42624287635E+03  0.59243098800E+03  0.41145046592E+03 0.  0.
      99925    2    3    3    0    0  0.27692118849E+02 -0.52978900433E+02 -0.24626296928E+03  0.36524407732E+03  0.26302883614E+03 0.  0.
         25    1    4    4    0    0 -0.62006731755E+01  0.63932324127E+01 -0.13624240213E+03  0.18517241157E+03  0.12509000000E+03 0.  0.
         25    1    3    3    0    0 -0.27692118849E+02  0.52978900433E+02 -0.17997990707E+03  0.22718691069E+03  0.12509000000E+03 0.  0.
         25    1    4    4    0    0  0.33892792025E+02 -0.59372132846E+02 -0.11002056714E+03  0.18007166574E+03  0.12509000000E+03 0.  0.
<mgrwt>
<rscale>  2 0.41145047E+03</rscale>
<asrwt>0</asrwt>
<pdfrwt beam="1">  1       21 0.12219714E-01 0.41145047E+03</pdfrwt>
<pdfrwt beam="2">  1       21 0.74902488E-01 0.41145047E+03</pdfrwt>
<totfact> 0.84754507E+04</totfact>
</mgrwt>
</event>
<event>
 6    0  0.4788920E-002  0.4584723E+03  0.7546771E-02  0.1025225E+00
         21   -1    0    0  502  501  0.00000000000E+00  0.00000000000E+00  0.17476283175E+03  0.17476283175E+03  0.00000000000E+00 0.  1.
         21   -1    0    0  501  502 -0.00000000000E+00 -0.00000000000E+00 -0.30068872748E+03  0.30068872748E+03  0.00000000000E+00 0.  1.
      99926    2    1    2    0    0  0.14210854715E-13 -0.71054273576E-14 -0.12592589573E+03  0.47545155923E+03  0.45847230447E+03 0.  0.
         25    1    3    3    0    0 -0.83663843035E+02  0.41437838564E+02 -0.11340618141E+03  0.19293834035E+03  0.12509000000E+03 0.  0.
         25    1    3    3    0    0  0.16526890657E+02  0.85188079278E+01  0.21335418636E+02  0.12825137969E+03  0.12509000000E+03 0.  0.
         25    1    3    3    0    0  0.67136952378E+02 -0.49956646491E+02 -0.33855132950E+02  0.15426183919E+03  0.12509000000E+03 0.  0.
<mgrwt>
<rscale>  2 0.45847230E+03</rscale>
<asrwt>0</asrwt>
<pdfrwt beam="1">  1       21 0.25700417E-01 0.45847230E+03</pdfrwt>
<pdfrwt beam="2">  1       21 0.44218930E-01 0.45847230E+03</pdfrwt>
<totfact> 0.65217196E+04</totfact>
</mgrwt>
</event>
<event>
 7    0  0.4788920E-002  0.4264169E+03  0.7546771E-02  0.1034998E+00
         21   -1    0    0  502  501  0.00000000000E+00  0.00000000000E+00  0.33951254761E+03  0.33951254761E+03  0.00000000000E+00 0. -1.
         21   -1    0    0  501  502 -0.00000000000E+00 -0.00000000000E+00 -0.13389150762E+03  0.13389150762E+03  0.00000000000E+00 0. -1.
      99926    2    1    2    0    0  0.00000000000E+00  0.00000000000E+00  0.20562103999E+03  0.47340405523E+03  0.42641691737E+03 0.  0.
      99925    2    3    3    0    0  0.29559189647E+02  0.77975132886E+02  0.12843410786E+03  0.30440938776E+03  0.26308912607E+03 0.  0.
         25    1    3    3    0    0 -0.29559189647E+02 -0.77975132886E+02  0.77186932131E+02  0.16899466747E+03  0.12509000000E+03 0.  0.
         25    1    4    4    0    0  0.16813660955E+02 -0.30863312418E+01  0.63503204575E+02  0.14132370547E+03  0.12509000000E+03 0.  0.
         25    1    4    4    0    0  0.12745528692E+02  0.81061464128E+02  0.64930903285E+02  0.16308568229E+03  0.12509000000E+03 0.  0.
<mgrwt>
<rscale>  2 0.42641692E+03</rscale>
<asrwt>0</asrwt>
<pdfrwt beam="1">  1       21 0.49928316E-01 0.42641692E+03</pdfrwt>
<pdfrwt beam="2">  1       21 0.19689928E-01 0.42641692E+03</pdfrwt>
<totfact> 0.84865473E+04</totfact>
</mgrwt>
</event>
<event>
 7    0  0.4788920E-002  0.4670079E+03  0.7546771E-02  0.1022768E+00
         21   -1    0    0  502  501  0.00000000000E+00  0.00000000000E+00  0.21238382500E+03  0.21238382500E+03  0.00000000000E+00 0.  1.
         21   -1    0    0  501  502 -0.00000000000E+00 -0.00000000000E+00 -0.25672437227E+03  0.25672437227E+03  0.00000000000E+00 0.  1.
      99926    2    1    2    0    0  0.00000000000E+00 -0.71054273576E-14 -0.44340547271E+02  0.46910819727E+03  0.46700794063E+03 0.  0.
      99925    2    3    3    0    0 -0.90830107195E+02  0.53231972601E+02  0.38334753715E+02  0.28589666713E+03  0.26302775453E+03 0.  0.
         25    1    4    4    0    0 -0.34005073069E+02  0.25496947406E+01 -0.13944792782E+02  0.13040249723E+03  0.12509000000E+03 0.  0.
         25    1    3    3    0    0  0.90830107195E+02 -0.53231972601E+02 -0.82675300986E+02  0.18321153013E+03  0.12509000000E+03 0.  0.
         25    1    4    4    0    0 -0.56825034126E+02  0.50682277860E+02  0.52279546497E+02  0.15549416991E+03  0.12509000000E+03 0.  0.
<mgrwt>
<rscale>  2 0.46700794E+03</rscale>
<asrwt>0</asrwt>
<pdfrwt beam="1">  1       21 0.31232916E-01 0.46700794E+03</pdfrwt>
<pdfrwt beam="2">  1       21 0.37753584E-01 0.46700794E+03</pdfrwt>
<totfact> 0.61425085E+04</totfact>
</mgrwt>
</event>
<event>
 7    0  0.4788920E-002  0.4431691E+03  0.7546771E-02  0.1029779E+00
         21   -1    0    0  502  501  0.00000000000E+00  0.00000000000E+00  0.12249968852E+03  0.12249968852E+03  0.00000000000E+00 0.  1.
         21   -1    0    0  501  502 -0.00000000000E+00 -0.00000000000E+00 -0.40081492326E+03  0.40081492326E+03  0.00000000000E+00 0.  1.
      99926    2    1    2    0    0 -0.71054273576E-14  0.00000000000E+00 -0.27831523474E+03  0.52331461179E+03  0.44316905693E+03 0.  0.
      99925    2    3    3    0    0  0.49609466303E+02  0.50018601492E+02 -0.90525204628E+02  0.28693448751E+03  0.26300879796E+03 0.  0.
         25    1    4    4    0    0  0.42571190745E+02  0.15153620041E+02 -0.82773108938E+02  0.15665514401E+03  0.12509000000E+03 0.  0.
         25    1    3    3    0    0 -0.49609466303E+02 -0.50018601492E+02 -0.18779003012E+03  0.23638012428E+03  0.12509000000E+03 0.  0.
         25    1    4    4    0    0  0.70382755574E+01  0.34864981451E+02 -0.77520956903E+01  0.13027934350E+03  0.12509000000E+03 0.  0.
<mgrwt>
<rscale>  2 0.44316906E+03</rscale>
<asrwt>0</asrwt>
<pdfrwt beam="1">  1       21 0.18014660E-01 0.44316906E+03</pdfrwt>
<pdfrwt beam="2">  1       21 0.58943371E-01 0.44316906E+03</pdfrwt>
<totfact> 0.69994494E+04</totfact>
</mgrwt>
</event>
<event>
 7    0  0.4788920E-002  0.4550738E+03  0.7546771E-02  0.1026220E+00
         21   -1    0    0  502  501  0.00000000000E+00  0.00000000000E+00  0.40142805144E+03  0.40142805144E+03  0.00000000000E+00 0. -1.
         21   -1    0    0  501  502 -0.00000000000E+00 -0.00000000000E+00 -0.12897214703E+03  0.12897214703E+03  0.00000000000E+00 0. -1.
      99926    2    1    2    0    0  0.00000000000E+00  0.00000000000E+00  0.27245590440E+03  0.53040019847E+03  0.45507378599E+03 0.  0.
      99925    2    3    3    0    0  0.10592789380E+03  0.23363804080E+02  0.13307801096E+03  0.31397401866E+03  0.26287514406E+03 0.  0.
         25    1    3    3    0    0 -0.10592789380E+03 -0.23363804080E+02  0.13937789344E+03  0.21642617981E+03  0.12509000000E+03 0.  0.
         25    1    4    4    0    0  0.86437450938E+02 -0.93567693496E+01  0.56728534577E+02  0.16255650338E+03  0.12509000000E+03 0.  0.
         25    1    4    4    0    0  0.19490442863E+02  0.32720573430E+02  0.76349476383E+02  0.15141751528E+03  0.12509000000E+03 0.  0.
<mgrwt>
<rscale>  2 0.45507379E+03</rscale>
<asrwt>0</asrwt>
<pdfrwt beam="1">  1       21 0.59033537E-01 0.45507379E+03</pdfrwt>
<pdfrwt beam="2">  1       21 0.18966492E-01 0.45507379E+03</pdfrwt>
<totfact> 0.63142508E+04</totfact>
</mgrwt>
</event>
<event>
 7    0  0.4788920E-002  0.4549104E+03  0.7546771E-02  0.1026268E+00
         21   -1    0    0  502  501  0.00000000000E+00  0.00000000000E+00  0.13356381257E+03  0.13356381257E+03  0.00000000000E+00 0. -1.
         21   -1    0    0  501  502 -0.00000000000E+00 -0.00000000000E+00 -0.38734945141E+03  0.38734945141E+03  0.00000000000E+00 0. -1.
      99926    2    1    2    0    0  0.00000000000E+00 -0.44408920985E-15 -0.25378563884E+03  0.52091326398E+03  0.45491040669E+03 0.  0.
      99925    2    3    3    0    0  0.76051875616E+02 -0.29208407641E+01 -0.25527439157E+03  0.37448190265E+03  0.26320953883E+03 0.  0.
         25    1    4    4    0    0  0.43726109208E+02  0.38734181035E+02 -0.13561935191E+03  0.19352629310E+03  0.12509000000E+03 0.  0.
         25    1    3    3    0    0 -0.76051875616E+02  0.29208407641E+01  0.14887527307E+01  0.14643136133E+03  0.12509000000E+03 0.  0.
         25    1    4    4    0    0  0.32325766409E+02 -0.41655021799E+02 -0.11965503965E+03  0.18095560956E+03  0.12509000000E+03 0.  0.
<mgrwt>
<rscale>  2 0.45491041E+03</rscale>
<asrwt>0</asrwt>
<pdfrwt beam="1">  1       21 0.19641737E-01 0.45491041E+03</pdfrwt>
<pdfrwt beam="2">  1       21 0.56963154E-01 0.45491041E+03</pdfrwt>
<totfact> 0.63870465E+04</totfact>
</mgrwt>
</event>
<event>
 7    0  0.4788920E-002  0.4574703E+03  0.7546771E-02  0.1025517E+00
         21   -1    0    0  502  501  0.00000000000E+00  0.00000000000E+00  0.10886371289E+03  0.10886371289E+03  0.00000000000E+00 0.  1.
         21   -1    0    0  501  502 -0.00000000000E+00 -0.00000000000E+00 -0.48059871155E+03  0.48059871155E+03  0.00000000000E+00 0.  1.
      99926    2    1    2    0    0  0.00000000000E+00  0.00000000000E+00 -0.37173499866E+03  0.58946242444E+03  0.45747026199E+03 0.  0.
      99925    2    3    3    0    0  0.86517316476E+02  0.67986188412E+02 -0.27859358550E+03  0.39859545818E+03  0.26297639730E+03 0.  0.
         25    1    4    4    0    0  0.23473417560E+02 -0.44827671295E+01 -0.12376119045E+03  0.17758219757E+03  0.12509000000E+03 0.  0.
         25    1    3    3    0    0 -0.86517316476E+02 -0.67986188412E+02 -0.93141413164E+02  0.19086696626E+03  0.12509000000E+03 0.  0.
         25    1    4    4    0    0  0.63043898915E+02  0.72468955542E+02 -0.15483239505E+03  0.22101326061E+03  0.12509000000E+03 0.  0.
<mgrwt>
<rscale>  2 0.45747026E+03</rscale>
<asrwt>0</asrwt>
<pdfrwt beam="1">  1       21 0.16009370E-01 0.45747026E+03</pdfrwt>
<pdfrwt beam="2">  1       21 0.70676280E-01 0.45747026E+03</pdfrwt>
<totfact> 0.58187204E+04</totfact>
</mgrwt>
</event>
<event>
 7    0  0.4788920E-002  0.4504866E+03  0.7546771E-02  0.1027577E+00
         21   -1    0    0  502  501  0.00000000000E+00  0.00000000000E+00  0.19184181447E+03  0.19184181447E+03  0.00000000000E+00 0. -1.
         21   -1    0    0  501  502 -0.00000000000E+00 -0.00000000000E+00 -0.26446026016E+03  0.26446026016E+03  0.00000000000E+00 0. -1.
      99926    2    1    2    0    0  0.71054273576E-14  0.71054273576E-14 -0.72618445697E+02  0.45630207463E+03  0.45048656435E+03 0.  0.
      99925    2    3    3    0    0  0.59146813091E+02  0.48806699451E+02 -0.12436282432E+03  0.30072113676E+03  0.26284339560E+03 0.  0.
         25    1    3    3    0    0 -0.59146813091E+02 -0.48806699451E+02  0.51744378621E+02  0.15558093787E+03  0.12509000000E+03 0.  0.
         25    1    4    4    0    0  0.22593388492E+02 -0.16234112552E+02 -0.59073109462E+02  0.14110686722E+03  0.12509000000E+03 0.  0.
         25    1    4    4    0    0  0.36553424599E+02  0.65040812003E+02 -0.65289714856E+02  0.15961426954E+03  0.12509000000E+03 0.  0.
<mgrwt>
<rscale>  2 0.45048656E+03</rscale>
<asrwt>0</asrwt>
<pdfrwt beam="1">  1       21 0.28212032E-01 0.45048656E+03</pdfrwt>
<pdfrwt beam="2">  1       21 0.38891214E-01 0.45048656E+03</pdfrwt>
<totfact> 0.70971096E+04</totfact>
</mgrwt>
</event>
<event>
 7    0  0.4788920E-002  0.4544357E+03  0.7546771E-02  0.1026407E+00
         21   -1    0    0  502  501  0.00000000000E+00  0.00000000000E+00  0.85949583427E+03  0.85949583427E+03  0.00000000000E+00 0.  1.
         21   -1    0    0  501  502 -0.00000000000E+00 -0.00000000000E+00 -0.60067725314E+02  0.60067725314E+02  0.00000000000E+00 0.  1.
      99926    2    1    2    0    0  0.00000000000E+00  0.35527136788E-14  0.79942810895E+03  0.91956355958E+03  0.45443573663E+03 0.  0.
      99925    2    3    3    0    0  0.10630347620E+03 -0.20326888535E+02  0.56612610007E+03  0.63357239381E+03  0.26306198047E+03 0.  0.
         25    1    4    4    0    0  0.91272806066E+02  0.77659884878E+01  0.32402186856E+03  0.35920567244E+03  0.12509000000E+03 0.  0.
         25    1    4    4    0    0  0.15030670132E+02 -0.28092877023E+02  0.24210423150E+03  0.27436672137E+03  0.12509000000E+03 0.  0.
         25    1    3    3    0    0 -0.10630347620E+03  0.20326888535E+02  0.23330200888E+03  0.28599116577E+03  0.12509000000E+03 0.  0.
<mgrwt>
<rscale>  2 0.45443574E+03</rscale>
<asrwt>0</asrwt>
<pdfrwt beam="1">  1       21 0.12639644E+00 0.45443574E+03</pdfrwt>
<pdfrwt beam="2">  1       21 0.88334895E-02 0.45443574E+03</pdfrwt>
<totfact> 0.42586222E+04</totfact>
</mgrwt>
</event>
<event>
 7    0  0.4788920E-002  0.4580796E+03  0.7546771E-02  0.1025340E+00
         21   -1    0    0  502  501  0.00000000000E+00  0.00000000000E+00  0.19317143744E+03  0.19317143744E+03  0.00000000000E+00 0.  1.
         21   -1    0    0  501  502 -0.00000000000E+00 -0.00000000000E+00 -0.27156827607E+03  0.27156827607E+03  0.00000000000E+00 0.  1.
      99926    2    1    2    0    0 -0.35527136788E-14  0.00000000000E+00 -0.78396838629E+02  0.46473971351E+03  0.45807961863E+03 0.  0.
      99925    2    3    3    0    0  0.23373536191E+02  0.11374860931E+03 -0.53457907256E+02  0.29224470862E+03  0.26280059656E+03 0.  0.
         25    1    3    3    0    0 -0.23373536191E+02 -0.11374860931E+03 -0.24938931372E+02  0.17249500489E+03  0.12509000000E+03 0.  0.
         25    1    4    4    0    0  0.30216147519E+02  0.96510195224E+02 -0.30019312588E+02  0.16363343357E+03  0.12509000000E+03 0.  0.
         25    1    4    4    0    0 -0.68426113274E+01  0.17238414088E+02 -0.23438594669E+02  0.12861127505E+03  0.12509000000E+03 0.  0.
<mgrwt>
<rscale>  2 0.45807962E+03</rscale>
<asrwt>0</asrwt>
<pdfrwt beam="1">  1       21 0.28407564E-01 0.45807962E+03</pdfrwt>
<pdfrwt beam="2">  1       21 0.39936511E-01 0.45807962E+03</pdfrwt>
<totfact> 0.66194027E+04</totfact>
</mgrwt>
</event>
<event>
 7    0  0.4788920E-002  0.4542431E+03  0.7546771E-02  0.1026464E+00
         21   -1    0    0  502  501  0.00000000000E+00  0.00000000000E+00  0.30281080729E+03  0.30281080729E+03  0.00000000000E+00 0.  1.
         21   -1    0    0  501  502 -0.00000000000E+00 -0.00000000000E+00 -0.17035124146E+03  0.17035124146E+03  0.00000000000E+00 0.  1.
      99926    2    1    2    0    0  0.00000000000E+00  0.00000000000E+00  0.13245956583E+03  0.47316204875E+03  0.45424309329E+03 0.  0.
      99925    2    3    3    0    0 -0.26651912339E+02  0.34353556772E+02  0.19087511550E+03  0.32841960219E+03  0.26369610177E+03 0.  0.
         25    1    4    4    0    0 -0.38815651656E+02  0.38133858799E+01  0.13307111380E+03  0.18675284778E+03  0.12509000000E+03 0.  0.
         25    1    3    3    0    0  0.26651912339E+02 -0.34353556772E+02 -0.58415549669E+02  0.14474244656E+03  0.12509000000E+03 0.  0.
         25    1    4    4    0    0  0.12163739316E+02  0.30540170892E+02  0.57804001704E+02  0.14166675441E+03  0.12509000000E+03 0.  0.
<mgrwt>
<rscale>  2 0.45424309E+03</rscale>
<asrwt>0</asrwt>
<pdfrwt beam="1">  1       21 0.44531001E-01 0.45424309E+03</pdfrwt>
<pdfrwt beam="2">  1       21 0.25051653E-01 0.45424309E+03</pdfrwt>
<totfact> 0.67606497E+04</totfact>
</mgrwt>
</event>
<event>
 7    0  0.4788920E-002  0.4532217E+03  0.7546771E-02  0.1026766E+00
         21   -1    0    0  502  501  0.00000000000E+00  0.00000000000E+00  0.30079224698E+03  0.30079224698E+03  0.00000000000E+00 0. -1.
         21   -1    0    0  501  502 -0.00000000000E+00 -0.00000000000E+00 -0.17072410812E+03  0.17072410812E+03  0.00000000000E+00 0. -1.
      99926    2    1    2    0    0  0.00000000000E+00  0.00000000000E+00  0.13006813886E+03  0.47151635510E+03  0.45322174747E+03 0.  0.
      99925    2    3    3    0    0  0.51469308797E+02 -0.21784079164E+01 -0.20526346248E+02  0.26908107592E+03  0.26330487903E+03 0.  0.
         25    1    3    3    0    0 -0.51469308797E+02  0.21784079164E+01  0.15059448511E+03  0.20243527918E+03  0.12509000000E+03 0.  0.
         25    1    4    4    0    0  0.19705095238E+02 -0.24349607350E+01  0.30538719718E+02  0.13028561438E+03  0.12509000000E+03 0.  0.
         25    1    4    4    0    0  0.31764213559E+02  0.25655281862E+00 -0.51065065966E+02  0.13879546154E+03  0.12509000000E+03 0.  0.
<mgrwt>
<rscale>  2 0.45322175E+03</rscale>
<asrwt>0</asrwt>
<pdfrwt beam="1">  1       21 0.44234154E-01 0.45322175E+03</pdfrwt>
<pdfrwt beam="2">  1       21 0.25106486E-01 0.45322175E+03</pdfrwt>
<totfact> 0.68281453E+04</totfact>
</mgrwt>
</event>
<event>
 7    0  0.4788920E-002  0.4412134E+03  0.7546771E-02  0.1030375E+00
         21   -1    0    0  502  501  0.00000000000E+00  0.00000000000E+00  0.39319331483E+02  0.39319331483E+02  0.00000000000E+00 0. -1.
         21   -1    0    0  501  502 -0.00000000000E+00 -0.00000000000E+00 -0.12377451545E+04  0.12377451545E+04  0.00000000000E+00 0. -1.
      99926    2    1    2    0    0  0.00000000000E+00  0.00000000000E+00 -0.11984258230E+04  0.12770644860E+04  0.44121338158E+03 0.  0.
      99925    2    3    3    0    0 -0.42082549931E+02 -0.25986571878E+02 -0.10148519141E+04  0.10494834431E+04  0.26276386156E+03 0.  0.
         25    1    4    4    0    0  0.14292578063E+02 -0.21511727320E+02 -0.41979015743E+03  0.43879188299E+03  0.12509000000E+03 0.  0.
         25    1    4    4    0    0 -0.56375127994E+02 -0.44748445584E+01 -0.59506175666E+03  0.61069156014E+03  0.12509000000E+03 0.  0.
         25    1    3    3    0    0  0.42082549931E+02  0.25986571878E+02 -0.18357390892E+03  0.22758104285E+03  0.12509000000E+03 0.  0.
<mgrwt>
<rscale>  2 0.44121338E+03</rscale>
<asrwt>0</asrwt>
<pdfrwt beam="1">  1       21 0.57822537E-02 0.44121338E+03</pdfrwt>
<pdfrwt beam="2">  1       21 0.18202137E+00 0.44121338E+03</pdfrwt>
<totfact> 0.33209328E+04</totfact>
</mgrwt>
</event>
<event>
 7    0  0.4788920E-002  0.4562565E+03  0.7546771E-02  0.1025873E+00
         21   -1    0    0  502  501  0.00000000000E+00  0.00000000000E+00  0.12597417100E+03  0.12597417100E+03  0.00000000000E+00 0.  1.
         21   -1    0    0  501  502 -0.00000000000E+00 -0.00000000000E+00 -0.41312032434E+03  0.41312032434E+03  0.00000000000E+00 0.  1.
      99926    2    1    2    0    0  0.71054273576E-14  0.00000000000E+00 -0.28714615334E+03  0.53909449534E+03  0.45625646464E+03 0.  0.
      99925    2    3    3    0    0 -0.54009547145E+02  0.96731535403E+02 -0.21397292669E+03  0.35667780114E+03  0.26298406671E+03 0.  0.
         25    1    3    3    0    0  0.54009547145E+02 -0.96731535403E+02 -0.73173226652E+02  0.18241669420E+03  0.12509000000E+03 0.  0.
         25    1    4    4    0    0 -0.73322161782E+01  0.81369701700E+02 -0.93956442594E+02  0.17649394027E+03  0.12509000000E+03 0.  0.
         25    1    4    4    0    0 -0.46677330967E+02  0.15361833703E+02 -0.12001648409E+03  0.18018386086E+03  0.12509000000E+03 0.  0.
<mgrwt>
<rscale>  2 0.45625646E+03</rscale>
<asrwt>0</asrwt>
<pdfrwt beam="1">  1       21 0.18525613E-01 0.45625646E+03</pdfrwt>
<pdfrwt beam="2">  1       21 0.60752989E-01 0.45625646E+03</pdfrwt>
<totfact> 0.61974394E+04</totfact>
</mgrwt>
</event>
<event>
 7    0  0.4788920E-002  0.4574863E+03  0.7546771E-02  0.1025513E+00
         21   -1    0    0  502  501  0.00000000000E+00  0.00000000000E+00  0.28009079972E+03  0.28009079972E+03  0.00000000000E+00 0. -1.
         21   -1    0    0  501  502 -0.00000000000E+00 -0.00000000000E+00 -0.18680878744E+03  0.18680878744E+03  0.00000000000E+00 0. -1.
      99926    2    1    2    0    0  0.00000000000E+00 -0.14210854715E-13  0.93282012277E+02  0.46689958716E+03  0.45748627376E+03 0.  0.
      99925    2    3    3    0    0 -0.31189641083E+02  0.96355607231E+02  0.11512281205E+03  0.30447506502E+03  0.26304867727E+03 0.  0.
         25    1    4    4    0    0 -0.39352539761E+02  0.81152471652E+02  0.78230635648E+02  0.17292161951E+03  0.12509000000E+03 0.  0.
         25    1    3    3    0    0  0.31189641083E+02 -0.96355607231E+02 -0.21840799774E+02  0.16242452213E+03  0.12509000000E+03 0.  0.
         25    1    4    4    0    0  0.81628986777E+01  0.15203135579E+02  0.36892176404E+02  0.13155344551E+03  0.12509000000E+03 0.  0.
<mgrwt>
<rscale>  2 0.45748627E+03</rscale>
<asrwt>0</asrwt>
<pdfrwt beam="1">  1       21 0.41189824E-01 0.45748627E+03</pdfrwt>
<pdfrwt beam="2">  1       21 0.27471880E-01 0.45748627E+03</pdfrwt>
<totfact> 0.66348461E+04</totfact>
</mgrwt>
</event>
<event>
 7    0  0.4788920E-002  0.4168113E+03  0.7546771E-02  0.1038109E+00
         21   -1    0    0  502  501  0.00000000000E+00  0.00000000000E+00  0.66420702649E+02  0.66420702649E+02  0.00000000000E+00 0. -1.
         21   -1    0    0  501  502 -0.00000000000E+00 -0.00000000000E+00 -0.65390626526E+03  0.65390626526E+03  0.00000000000E+00 0. -1.
      99926    2    1    2    0    0  0.00000000000E+00  0.00000000000E+00 -0.58748556261E+03  0.72032696791E+03  0.41681129354E+03 0.  0.
      99925    2    3    3    0    0 -0.19602640949E+02 -0.67841929054E+02 -0.36223624996E+03  0.45317242121E+03  0.26298926156E+03 0.  0.
         25    1    4    4    0    0  0.27591543161E+01 -0.33709352801E+02 -0.24400755363E+03  0.27628088556E+03  0.12509000000E+03 0.  0.
         25    1    4    4    0    0 -0.22361795266E+02 -0.34132576253E+02 -0.11822869633E+03  0.17689153565E+03  0.12509000000E+03 0.  0.
         25    1    3    3    0    0  0.19602640949E+02  0.67841929054E+02 -0.22524931265E+03  0.26715454670E+03  0.12509000000E+03 0.  0.
<mgrwt>
<rscale>  2 0.41681129E+03</rscale>
<asrwt>0</asrwt>
<pdfrwt beam="1">  1       21 0.97677504E-02 0.41681129E+03</pdfrwt>
<pdfrwt beam="2">  1       21 0.96162686E-01 0.41681129E+03</pdfrwt>
<totfact> 0.70802247E+04</totfact>
</mgrwt>
</event>
<event>
 7    0  0.4788920E-002  0.4538484E+03  0.7546771E-02  0.1026581E+00
         21   -1    0    0  502  501  0.00000000000E+00  0.00000000000E+00  0.22002704553E+03  0.22002704553E+03  0.00000000000E+00 0. -1.
         21   -1    0    0  501  502 -0.00000000000E+00 -0.00000000000E+00 -0.23403755392E+03  0.23403755392E+03  0.00000000000E+00 0. -1.
      99926    2    1    2    0    0 -0.35527136788E-14  0.00000000000E+00 -0.14010508392E+02  0.45406459945E+03  0.45384839553E+03 0.  0.
      99925    2    3    3    0    0  0.13537831118E+02  0.17754168992E+02 -0.11866202251E+03  0.28945010770E+03  0.26306312146E+03 0.  0.
         25    1    3    3    0    0 -0.13537831118E+02 -0.17754168992E+02  0.10465151412E+03  0.16461449175E+03  0.12509000000E+03 0.  0.
         25    1    4    4    0    0 -0.93664944564E+01  0.37437372201E+02 -0.86185278520E+02  0.15673129359E+03  0.12509000000E+03 0.  0.
         25    1    4    4    0    0  0.22904325574E+02 -0.19683203209E+02 -0.32476743992E+02  0.13271881411E+03  0.12509000000E+03 0.  0.
<mgrwt>
<rscale>  2 0.45384840E+03</rscale>
<asrwt>0</asrwt>
<pdfrwt beam="1">  1       21 0.32356918E-01 0.45384840E+03</pdfrwt>
<pdfrwt beam="2">  1       21 0.34417287E-01 0.45384840E+03</pdfrwt>
<totfact> 0.69248494E+04</totfact>
</mgrwt>
</event>
<event>
 7    0  0.4788920E-002  0.4163314E+03  0.7546771E-02  0.1038267E+00
         21   -1    0    0  502  501  0.00000000000E+00  0.00000000000E+00  0.23350399638E+03  0.23350399638E+03  0.00000000000E+00 0.  1.
         21   -1    0    0  501  502 -0.00000000000E+00 -0.00000000000E+00 -0.18557692037E+03  0.18557692037E+03  0.00000000000E+00 0.  1.
      99926    2    1    2    0    0  0.71054273576E-14  0.00000000000E+00  0.47927076005E+02  0.41908091675E+03  0.41633137063E+03 0.  0.
      99925    2    3    3    0    0 -0.42600384814E+02  0.10993393829E+02  0.87725846577E+02  0.28063562888E+03  0.26291611693E+03 0.  0.
         25    1    4    4    0    0  0.14813315103E+02  0.14999653774E+02  0.59332136832E+02  0.14004368775E+03  0.12509000000E+03 0.  0.
         25    1    3    3    0    0  0.42600384814E+02 -0.10993393829E+02 -0.39798770571E+02  0.13844528787E+03  0.12509000000E+03 0.  0.
         25    1    4    4    0    0 -0.57413699917E+02 -0.40062599448E+01  0.28393709744E+02  0.14059194113E+03  0.12509000000E+03 0.  0.
<mgrwt>
<rscale>  2 0.41633137E+03</rscale>
<asrwt>0</asrwt>
<pdfrwt beam="1">  1       21 0.34338823E-01 0.41633137E+03</pdfrwt>
<pdfrwt beam="2">  1       21 0.27290724E-01 0.41633137E+03</pdfrwt>
<totfact> 0.98250964E+04</totfact>
</mgrwt>
</event>
<event>
 7    0  0.4788920E-002  0.4569005E+03  0.7546771E-02  0.1025684E+00
         21   -1    0    0  502  501  0.00000000000E+00  0.00000000000E+00  0.13016221675E+03  0.13016221675E+03  0.00000000000E+00 0. -1.
         21   -1    0    0  501  502 -0.00000000000E+00 -0.00000000000E+00 -0.40095749427E+03  0.40095749427E+03  0.00000000000E+00 0. -1.
      99926    2    1    2    0    0 -0.14210854715E-13  0.00000000000E+00 -0.27079527752E+03  0.53111971103E+03  0.45690049805E+03 0.  0.
      99925    2    3    3    0    0 -0.89621955124E+02 -0.32828964402E+02 -0.96084544591E+02  0.29600020090E+03  0.26319962667E+03 0.  0.
         25    1    4    4    0    0 -0.10370598683E+02 -0.63034678202E+01 -0.68231059473E+02  0.14300443560E+03  0.12509000000E+03 0.  0.
         25    1    3    3    0    0  0.89621955124E+02  0.32828964402E+02 -0.17471073293E+03  0.23511951013E+03  0.12509000000E+03 0.  0.
         25    1    4    4    0    0 -0.79251356441E+02 -0.26525496582E+02 -0.27853485118E+02  0.15299576530E+03  0.12509000000E+03 0.  0.
<mgrwt>
<rscale>  2 0.45690050E+03</rscale>
<asrwt>0</asrwt>
<pdfrwt beam="1">  1       21 0.19141503E-01 0.45690050E+03</pdfrwt>
<pdfrwt beam="2">  1       21 0.58964337E-01 0.45690050E+03</pdfrwt>
<totfact> 0.62188731E+04</totfact>
</mgrwt>
</event>
<event>
 7    0  0.4788920E-002  0.4532544E+03  0.7546771E-02  0.1026756E+00
         21   -1    0    0  502  501  0.00000000000E+00  0.00000000000E+00  0.15433973900E+02  0.15433973900E+02  0.00000000000E+00 0. -1.
         21   -1    0    0  501  502 -0.00000000000E+00 -0.00000000000E+00 -0.33277157518E+04  0.33277157518E+04  0.00000000000E+00 0. -1.
      99926    2    1    2    0    0  0.17763568394E-14 -0.14210854715E-13 -0.33122817779E+04  0.33431497257E+04  0.45325435711E+03 0.  0.
      99925    2    3    3    0    0  0.11279941056E+02 -0.77571084777E+02 -0.26726981919E+04  0.26867510802E+04  0.26300424252E+03 0.  0.
         25    1    3    3    0    0 -0.11279941056E+02  0.77571084777E+02 -0.63958358600E+03  0.65639864552E+03  0.12509000000E+03 0.  0.
         25    1    4    4    0    0  0.31324068586E+02 -0.71443755101E+02 -0.13876929940E+04  0.13955016163E+04  0.12509000000E+03 0.  0.
         25    1    4    4    0    0 -0.20044127530E+02 -0.61273296758E+01 -0.12850051979E+04  0.12912494639E+04  0.12509000000E+03 0.  0.
<mgrwt>
<rscale>  2 0.45325436E+03</rscale>
<asrwt>0</asrwt>
<pdfrwt beam="1">  1       21 0.22697020E-02 0.45325436E+03</pdfrwt>
<pdfrwt beam="2">  1       21 0.48936998E+00 0.45325436E+03</pdfrwt>
<totfact> 0.17702302E+03</totfact>
</mgrwt>
</event>
<event>
 7    0  0.4788920E-002  0.4544366E+03  0.7546771E-02  0.1026407E+00
         21   -1    0    0  502  501  0.00000000000E+00  0.00000000000E+00  0.10240466525E+03  0.10240466525E+03  0.00000000000E+00 0.  1.
         21   -1    0    0  501  502 -0.00000000000E+00 -0.00000000000E+00 -0.50415831119E+03  0.50415831119E+03  0.00000000000E+00 0.  1.
      99926    2    1    2    0    0  0.00000000000E+00  0.00000000000E+00 -0.40175364594E+03  0.60656297644E+03  0.45443663184E+03 0.  0.
      99925    2    3    3    0    0 -0.46345746614E+01 -0.16520880261E+02 -0.10489671717E+03  0.28397041139E+03  0.26332765617E+03 0.  0.
         25    1    4    4    0    0 -0.68105781291E+01  0.91159864634E+01 -0.12264054685E+02  0.12620380470E+03  0.12509000000E+03 0.  0.
         25    1    4    4    0    0  0.21760034678E+01 -0.25636866724E+02 -0.92632662482E+02  0.15776660669E+03  0.12509000000E+03 0.  0.
         25    1    3    3    0    0  0.46345746614E+01  0.16520880261E+02 -0.29685692877E+03  0.32259256505E+03  0.12509000000E+03 0.  0.
<mgrwt>
<rscale>  2 0.45443663E+03</rscale>
<asrwt>0</asrwt>
<pdfrwt beam="1">  1       21 0.15059509E-01 0.45443663E+03</pdfrwt>
<pdfrwt beam="2">  1       21 0.74140929E-01 0.45443663E+03</pdfrwt>
<totfact> 0.58536186E+04</totfact>
</mgrwt>
</event>
<event>
 7    0  0.4788920E-002  0.4619005E+03  0.7546771E-02  0.1024231E+00
         21   -1    0    0  502  501  0.00000000000E+00  0.00000000000E+00  0.52588489059E+03  0.52588489059E+03  0.00000000000E+00 0. -1.
         21   -1    0    0  501  502 -0.00000000000E+00 -0.00000000000E+00 -0.10142529152E+03  0.10142529152E+03  0.00000000000E+00 0. -1.
      99926    2    1    2    0    0  0.00000000000E+00  0.00000000000E+00  0.42445959907E+03  0.62731018211E+03  0.46190054486E+03 0.  0.
      99925    2    3    3    0    0  0.74638009044E+02  0.54527149143E+01  0.39213209627E+03  0.47800130752E+03  0.26290132099E+03 0.  0.
         25    1    4    4    0    0  0.24491469567E+02 -0.62605309794E+01  0.12535312661E+03  0.17888527267E+03  0.12509000000E+03 0.  0.
         25    1    4    4    0    0  0.50146539476E+02  0.11713245894E+02  0.26677896966E+03  0.29911603485E+03  0.12509000000E+03 0.  0.
         25    1    3    3    0    0 -0.74638009044E+02 -0.54527149143E+01  0.32327502800E+02  0.14930887459E+03  0.12509000000E+03 0.  0.
<mgrwt>
<rscale>  2 0.46190054E+03</rscale>
<asrwt>0</asrwt>
<pdfrwt beam="1">  1       21 0.77336012E-01 0.46190054E+03</pdfrwt>
<pdfrwt beam="2">  1       21 0.14915484E-01 0.46190054E+03</pdfrwt>
<totfact> 0.54024001E+04</totfact>
</mgrwt>
</event>
<event>
 7    0  0.4788920E-002  0.4744567E+03  0.7546771E-02  0.1020670E+00
         21   -1    0    0  502  501  0.00000000000E+00  0.00000000000E+00  0.18096674624E+04  0.18096674624E+04  0.00000000000E+00 0.  1.
         21   -1    0    0  501  502 -0.00000000000E+00 -0.00000000000E+00 -0.31098142222E+02  0.31098142222E+02  0.00000000000E+00 0.  1.
      99926    2    1    2    0    0  0.00000000000E+00  0.71054273576E-14  0.17785693202E+04  0.18407656047E+04  0.47445672562E+03 0.  0.
      99925    2    3    3    0    0  0.99787147170E+02  0.45855511156E+02  0.13746531494E+04  0.14038949330E+04  0.26303896858E+03 0.  0.
         25    1    3    3    0    0 -0.99787147170E+02 -0.45855511156E+02  0.40391617080E+03  0.43687067168E+03  0.12509000000E+03 0.  0.
         25    1    4    4    0    0  0.12876293546E+02  0.53398078498E+01  0.68415886286E+03  0.69564011544E+03  0.12509000000E+03 0.  0.
         25    1    4    4    0    0  0.86910853624E+02  0.40515703306E+02  0.69049428657E+03  0.70825481754E+03  0.12509000000E+03 0.  0.
<mgrwt>
<rscale>  2 0.47445673E+03</rscale>
<asrwt>0</asrwt>
<pdfrwt beam="1">  1       21 0.26612750E+00 0.47445673E+03</pdfrwt>
<pdfrwt beam="2">  1       21 0.45732574E-02 0.47445673E+03</pdfrwt>
<totfact> 0.14217104E+04</totfact>
</mgrwt>
</event>
<event>
 7    0  0.4788920E-002  0.4566055E+03  0.7546771E-02  0.1025770E+00
         21   -1    0    0  502  501  0.00000000000E+00  0.00000000000E+00  0.32424952685E+03  0.32424952685E+03  0.00000000000E+00 0. -1.
         21   -1    0    0  501  502 -0.00000000000E+00 -0.00000000000E+00 -0.16074704834E+03  0.16074704834E+03  0.00000000000E+00 0. -1.
      99926    2    1    2    0    0  0.00000000000E+00  0.00000000000E+00  0.16350247852E+03  0.48499657519E+03  0.45660553815E+03 0.  0.
      99925    2    3    3    0    0  0.32343689408E+02  0.10945628482E+03  0.11461492365E+03  0.30874591944E+03  0.26298416210E+03 0.  0.
         25    1    3    3    0    0 -0.32343689408E+02 -0.10945628482E+03  0.48887554867E+02  0.17625065575E+03  0.12509000000E+03 0.  0.
         25    1    4    4    0    0  0.46123029103E+02  0.27400079119E+02  0.46984285071E+02  0.14399003192E+03  0.12509000000E+03 0.  0.
         25    1    4    4    0    0 -0.13779339695E+02  0.82056205706E+02  0.67630638579E+02  0.16475588752E+03  0.12509000000E+03 0.  0.
<mgrwt>
<rscale>  2 0.45660554E+03</rscale>
<asrwt>0</asrwt>
<pdfrwt beam="1">  1       21 0.47683754E-01 0.45660554E+03</pdfrwt>
<pdfrwt beam="2">  1       21 0.23639272E-01 0.45660554E+03</pdfrwt>
<totfact> 0.65499362E+04</totfact>
</mgrwt>
</event>
<event>
 7    0  0.4788920E-002  0.4466917E+03  0.7546771E-02  0.1028713E+00
         21   -1    0    0  502  501  0.00000000000E+00  0.00000000000E+00  0.33815519203E+03  0.33815519203E+03  0.00000000000E+00 0. -1.
         21   -1    0    0  501  502 -0.00000000000E+00 -0.00000000000E+00 -0.14751619615E+03  0.14751619615E+03  0.00000000000E+00 0. -1.
      99926    2    1    2    0    0  0.00000000000E+00  0.00000000000E+00  0.19063899588E+03  0.48567138818E+03  0.44669169519E+03 0.  0.
      99925    2    3    3    0    0  0.27774507643E+02  0.25534906593E+02  0.14164062863E+02  0.26609369165E+03  0.26302429038E+03 0.  0.
         25    1    4    4    0    0  0.17106613488E+02 -0.63240911143E+01 -0.28760282286E+02  0.12964294154E+03  0.12509000000E+03 0.  0.
         25    1    4    4    0    0  0.10667894155E+02  0.31858997707E+02  0.42924345149E+02  0.13645075012E+03  0.12509000000E+03 0.  0.
         25    1    3    3    0    0 -0.27774507643E+02 -0.25534906593E+02  0.17647493302E+03  0.21957769653E+03  0.12509000000E+03 0.  0.
<mgrwt>
<rscale>  2 0.44669170E+03</rscale>
<asrwt>0</asrwt>
<pdfrwt beam="1">  1       21 0.49728704E-01 0.44669170E+03</pdfrwt>
<pdfrwt beam="2">  1       21 0.21693558E-01 0.44669170E+03</pdfrwt>
<totfact> 0.70848410E+04</totfact>
</mgrwt>
</event>
<event>
 7    0  0.4788920E-002  0.4540908E+03  0.7546771E-02  0.1026509E+00
         21   -1    0    0  502  501  0.00000000000E+00  0.00000000000E+00  0.22401052717E+03  0.22401052717E+03  0.00000000000E+00 0. -1.
         21   -1    0    0  501  502 -0.00000000000E+00 -0.00000000000E+00 -0.23012137280E+03  0.23012137280E+03  0.00000000000E+00 0. -1.
      99926    2    1    2    0    0  0.00000000000E+00  0.00000000000E+00 -0.61108456318E+01  0.45413189996E+03  0.45409078402E+03 0.  0.
      99925    2    3    3    0    0  0.47305670804E+02  0.92056219037E+02  0.39734979187E+02  0.28542647116E+03  0.26301564196E+03 0.  0.
         25    1    4    4    0    0  0.55896031738E+02  0.74645750800E+02  0.19724947307E+02  0.15726708531E+03  0.12509000000E+03 0.  0.
         25    1    4    4    0    0 -0.85903609332E+01  0.17410468237E+02  0.20010031881E+02  0.12815938585E+03  0.12509000000E+03 0.  0.
         25    1    3    3    0    0 -0.47305670804E+02 -0.92056219037E+02 -0.45845824819E+02  0.16870542880E+03  0.12509000000E+03 0.  0.
<mgrwt>
<rscale>  2 0.45409078E+03</rscale>
<asrwt>0</asrwt>
<pdfrwt beam="1">  1       21 0.32942725E-01 0.45409078E+03</pdfrwt>
<pdfrwt beam="2">  1       21 0.33841378E-01 0.45409078E+03</pdfrwt>
<totfact> 0.69109437E+04</totfact>
</mgrwt>
</event>
<event>
 7    0  0.4788920E-002  0.4764870E+03  0.7546771E-02  0.1020105E+00
         21   -1    0    0  502  501  0.00000000000E+00  0.00000000000E+00  0.44119313056E+03  0.44119313056E+03  0.00000000000E+00 0. -1.
         21   -1    0    0  501  502 -0.00000000000E+00 -0.00000000000E+00 -0.12865106461E+03  0.12865106461E+03  0.00000000000E+00 0. -1.
      99926    2    1    2    0    0  0.00000000000E+00  0.14210854715E-13  0.31254206595E+03  0.56984419517E+03  0.47648700274E+03 0.  0.
      99925    2    3    3    0    0 -0.33936693340E+02 -0.99308999817E+02  0.28947891781E+03  0.40494000025E+03  0.26299122295E+03 0.  0.
         25    1    3    3    0    0  0.33936693340E+02  0.99308999817E+02  0.23063148138E+02  0.16490419492E+03  0.12509000000E+03 0.  0.
         25    1    4    4    0    0  0.19452003850E+02 -0.61260233240E+02  0.16375972117E+03  0.21586095295E+03  0.12509000000E+03 0.  0.
         25    1    4    4    0    0 -0.53388697190E+02 -0.38048766576E+02  0.12571919664E+03  0.18907904730E+03  0.12509000000E+03 0.  0.
<mgrwt>
<rscale>  2 0.47648700E+03</rscale>
<asrwt>0</asrwt>
<pdfrwt beam="1">  1       21 0.64881342E-01 0.47648700E+03</pdfrwt>
<pdfrwt beam="2">  1       21 0.18919274E-01 0.47648700E+03</pdfrwt>
<totfact> 0.51286314E+04</totfact>
</mgrwt>
</event>
<event>
 7    0  0.4788920E-002  0.4530027E+03  0.7546771E-02  0.1026830E+00
         21   -1    0    0  502  501  0.00000000000E+00  0.00000000000E+00  0.10455482443E+04  0.10455482443E+04  0.00000000000E+00 0. -1.
         21   -1    0    0  501  502 -0.00000000000E+00 -0.00000000000E+00 -0.49067914497E+02  0.49067914497E+02  0.00000000000E+00 0. -1.
      99926    2    1    2    0    0 -0.14210854715E-13 -0.71054273576E-14  0.99648032978E+03  0.10946161588E+04  0.45300274548E+03 0.  0.
      99925    2    3    3    0    0  0.10281846810E+03  0.21443128935E+02  0.71708278494E+03  0.77097756200E+03  0.26299664538E+03 0.  0.
         25    1    3    3    0    0 -0.10281846810E+03 -0.21443128935E+02  0.27939754484E+03  0.32363859678E+03  0.12509000000E+03 0.  0.
         25    1    4    4    0    0  0.46002441695E+02 -0.16071974409E+02  0.26616783393E+03  0.29810628461E+03  0.12509000000E+03 0.  0.
         25    1    4    4    0    0  0.56816026409E+02  0.37515103344E+02  0.45091495101E+03  0.47287127739E+03  0.12509000000E+03 0.  0.
<mgrwt>
<rscale>  2 0.45300275E+03</rscale>
<asrwt>0</asrwt>
<pdfrwt beam="1">  1       21 0.15375708E+00 0.45300275E+03</pdfrwt>
<pdfrwt beam="2">  1       21 0.72158705E-02 0.45300275E+03</pdfrwt>
<totfact> 0.36242946E+04</totfact>
</mgrwt>
</event>
<event>
 6    0  0.4788920E-002  0.4530762E+03  0.7546771E-02  0.1026809E+00
         21   -1    0    0  502  501  0.00000000000E+00  0.00000000000E+00  0.13472507993E+03  0.13472507993E+03  0.00000000000E+00 0.  1.
         21   -1    0    0  501  502 -0.00000000000E+00 -0.00000000000E+00 -0.38092027923E+03  0.38092027923E+03  0.00000000000E+00 0.  1.
      99926    2    1    2    0    0  0.00000000000E+00  0.71054273576E-14 -0.24619519930E+03  0.51564535916E+03  0.45307621904E+03 0.  0.
         25    1    3    3    0    0  0.17832683756E+02 -0.48553225213E+01 -0.98299346440E+01  0.12682947008E+03  0.12509000000E+03 0.  0.
         25    1    3    3    0    0  0.11386620099E+02  0.46771119423E+02 -0.21303816227E+03  0.25169417835E+03  0.12509000000E+03 0.  0.
         25    1    3    3    0    0 -0.29219303855E+02 -0.41915796901E+02 -0.23327102386E+02  0.13712171073E+03  0.12509000000E+03 0.  0.
<mgrwt>
<rscale>  2 0.45307622E+03</rscale>
<asrwt>0</asrwt>
<pdfrwt beam="1">  1       21 0.19812512E-01 0.45307622E+03</pdfrwt>
<pdfrwt beam="2">  1       21 0.56017688E-01 0.45307622E+03</pdfrwt>
<totfact> 0.65174109E+04</totfact>
</mgrwt>
</event>
<event>
 7    0  0.4788920E-002  0.4499476E+03  0.7546771E-02  0.1027738E+00
         21   -1    0    0  502  501  0.00000000000E+00  0.00000000000E+00  0.44271837826E+03  0.44271837826E+03  0.00000000000E+00 0.  1.
         21   -1    0    0  501  502 -0.00000000000E+00 -0.00000000000E+00 -0.11432370703E+03  0.11432370703E+03  0.00000000000E+00 0.  1.
      99926    2    1    2    0    0  0.00000000000E+00  0.00000000000E+00  0.32839467123E+03  0.55704208529E+03  0.44994757994E+03 0.  0.
      99925    2    3    3    0    0 -0.52182654225E+02 -0.93446298326E+02  0.22880182263E+03  0.36463240865E+03  0.26296630835E+03 0.  0.
         25    1    3    3    0    0  0.52182654225E+02  0.93446298326E+02  0.99592848599E+02  0.19240967664E+03  0.12509000000E+03 0.  0.
         25    1    4    4    0    0  0.13656410447E+02 -0.46618932407E+02  0.12221603578E+03  0.18150506855E+03  0.12509000000E+03 0.  0.
         25    1    4    4    0    0 -0.65839064672E+02 -0.46827365919E+02  0.10658578684E+03  0.18312734010E+03  0.12509000000E+03 0.  0.
<mgrwt>
<rscale>  2 0.44994758E+03</rscale>
<asrwt>0</asrwt>
<pdfrwt beam="1">  1       21 0.65105643E-01 0.44994758E+03</pdfrwt>
<pdfrwt beam="2">  1       21 0.16812310E-01 0.44994758E+03</pdfrwt>
<totfact> 0.63920178E+04</totfact>
</mgrwt>
</event>
<event>
 7    0  0.4788920E-002  0.4487933E+03  0.7546771E-02  0.1028083E+00
         21   -1    0    0  502  501  0.00000000000E+00  0.00000000000E+00  0.25179905492E+03  0.25179905492E+03  0.00000000000E+00 0. -1.
         21   -1    0    0  501  502 -0.00000000000E+00 -0.00000000000E+00 -0.19997633540E+03  0.19997633540E+03  0.00000000000E+00 0. -1.
      99926    2    1    2    0    0  0.14210854715E-13 -0.71054273576E-14  0.51822719514E+02  0.45177539032E+03  0.44879328097E+03 0.  0.
      99925    2    3    3    0    0 -0.90973912338E+02  0.43758438276E+02  0.69306354927E+02  0.29008358703E+03  0.26297160109E+03 0.  0.
         25    1    4    4    0    0 -0.12270194612E+02  0.19334198462E+02  0.58270689135E+02  0.13988334504E+03  0.12509000000E+03 0.  0.
         25    1    3    3    0    0  0.90973912338E+02 -0.43758438276E+02 -0.17483635413E+02  0.16169180330E+03  0.12509000000E+03 0.  0.
         25    1    4    4    0    0 -0.78703717726E+02  0.24424239813E+02  0.11035665792E+02  0.15020024199E+03  0.12509000000E+03 0.  0.
<mgrwt>
<rscale>  2 0.44879328E+03</rscale>
<asrwt>0</asrwt>
<pdfrwt beam="1">  1       21 0.37029273E-01 0.44879328E+03</pdfrwt>
<pdfrwt beam="2">  1       21 0.29408284E-01 0.44879328E+03</pdfrwt>
<totfact> 0.72296933E+04</totfact>
</mgrwt>
</event>
<event>
 7    0  0.4788920E-002  0.4496853E+03  0.7546771E-02  0.1027816E+00
         21   -1    0    0  502  501  0.00000000000E+00  0.00000000000E+00  0.58279654463E+03  0.58279654463E+03  0.00000000000E+00 0. -1.
         21   -1    0    0  501  502 -0.00000000000E+00 -0.00000000000E+00 -0.86744191672E+02  0.86744191672E+02  0.00000000000E+00 0. -1.
      99926    2    1    2    0    0  0.00000000000E+00 -0.71054273576E-14  0.49605235296E+03  0.66954073630E+03  0.44968529072E+03 0.  0.
      99925    2    3    3    0    0 -0.55077948565E+02 -0.51806982140E+02  0.20048216605E+03  0.33980328422E+03  0.26373401230E+03 0.  0.
         25    1    4    4    0    0 -0.28836403663E+01  0.97155494595E+01  0.93017032144E+02  0.15621262322E+03  0.12509000000E+03 0.  0.
         25    1    4    4    0    0 -0.52194308198E+02 -0.61522531600E+02  0.10746513391E+03  0.18359066101E+03  0.12509000000E+03 0.  0.
         25    1    3    3    0    0  0.55077948565E+02  0.51806982140E+02  0.29557018691E+03  0.32973745208E+03  0.12509000000E+03 0.  0.
<mgrwt>
<rscale>  2 0.44968529E+03</rscale>
<asrwt>0</asrwt>
<pdfrwt beam="1">  1       21 0.85705373E-01 0.44968529E+03</pdfrwt>
<pdfrwt beam="2">  1       21 0.12756499E-01 0.44968529E+03</pdfrwt>
<totfact> 0.56935377E+04</totfact>
</mgrwt>
</event>
<event>
 7    0  0.4788920E-002  0.4336428E+03  0.7546771E-02  0.1032715E+00
         21   -1    0    0  502  501  0.00000000000E+00  0.00000000000E+00  0.51430763705E+02  0.51430763705E+02  0.00000000000E+00 0.  1.
         21   -1    0    0  501  502 -0.00000000000E+00 -0.00000000000E+00 -0.91407401056E+03  0.91407401056E+03  0.00000000000E+00 0.  1.
      99926    2    1    2    0    0 -0.71054273576E-14  0.00000000000E+00 -0.86264324686E+03  0.96550477427E+03  0.43364282282E+03 0.  0.
      99925    2    3    3    0    0  0.50313188078E+02  0.76329384937E+02 -0.54153768911E+03  0.60897444005E+03  0.26311443900E+03 0.  0.
         25    1    4    4    0    0  0.48989248007E+02  0.23190569409E+02 -0.20676318621E+03  0.24766160825E+03  0.12509000000E+03 0.  0.
         25    1    3    3    0    0 -0.50313188078E+02 -0.76329384937E+02 -0.32110555775E+03  0.35653033422E+03  0.12509000000E+03 0.  0.
         25    1    4    4    0    0  0.13239400712E+01  0.53138815528E+02 -0.33477450289E+03  0.36131283180E+03  0.12509000000E+03 0.  0.
<mgrwt>
<rscale>  2 0.43364282E+03</rscale>
<asrwt>0</asrwt>
<pdfrwt beam="1">  1       21 0.75633477E-02 0.43364282E+03</pdfrwt>
<pdfrwt beam="2">  1       21 0.13442265E+00 0.43364282E+03</pdfrwt>
<totfact> 0.48055494E+04</totfact>
</mgrwt>
</event>
<event>
 7    0  0.4788920E-002  0.4569606E+03  0.7546771E-02  0.1025666E+00
         21   -1    0    0  502  501  0.00000000000E+00  0.00000000000E+00  0.20435276437E+03  0.20435276437E+03  0.00000000000E+00 0. -1.
         21   -1    0    0  501  502 -0.00000000000E+00 -0.00000000000E+00 -0.25545653824E+03  0.25545653824E+03  0.00000000000E+00 0. -1.
      99926    2    1    2    0    0  0.00000000000E+00  0.00000000000E+00 -0.51103773870E+02  0.45980930262E+03  0.45696060998E+03 0.  0.
      99925    2    3    3    0    0  0.66349458209E+02 -0.84295257405E+02  0.95982324312E+01  0.28419557111E+03  0.26299630330E+03 0.  0.
         25    1    3    3    0    0 -0.66349458209E+02  0.84295257405E+02 -0.60702006301E+02  0.17561373151E+03  0.12509000000E+03 0.  0.
         25    1    4    4    0    0  0.63717551447E+02 -0.22982415760E+02 -0.13768519854E+02  0.14291675212E+03  0.12509000000E+03 0.  0.
         25    1    4    4    0    0  0.26319067619E+01 -0.61312841646E+02  0.23366752285E+02  0.14127881899E+03  0.12509000000E+03 0.  0.
<mgrwt>
<rscale>  2 0.45696061E+03</rscale>
<asrwt>0</asrwt>
<pdfrwt beam="1">  1       21 0.30051877E-01 0.45696061E+03</pdfrwt>
<pdfrwt beam="2">  1       21 0.37567138E-01 0.45696061E+03</pdfrwt>
<totfact> 0.67138443E+04</totfact>
</mgrwt>
</event>
<event>
 7    0  0.4788920E-002  0.4496875E+03  0.7546771E-02  0.1027815E+00
         21   -1    0    0  502  501  0.00000000000E+00  0.00000000000E+00  0.40700228050E+03  0.40700228050E+03  0.00000000000E+00 0. -1.
         21   -1    0    0  501  502 -0.00000000000E+00 -0.00000000000E+00 -0.12421238096E+03  0.12421238096E+03  0.00000000000E+00 0. -1.
      99926    2    1    2    0    0  0.00000000000E+00  0.00000000000E+00  0.28278989954E+03  0.53121466146E+03  0.44968754627E+03 0.  0.
      99925    2    3    3    0    0  0.69276916430E+02  0.82839037159E+02  0.18447693724E+03  0.33892700226E+03  0.26301744288E+03 0.  0.
         25    1    4    4    0    0  0.52674140961E+02  0.58879600557E+01  0.99976447933E+02  0.16867729972E+03  0.12509000000E+03 0.  0.
         25    1    3    3    0    0 -0.69276916430E+02 -0.82839037159E+02  0.98312962300E+02  0.19228765921E+03  0.12509000000E+03 0.  0.
         25    1    4    4    0    0  0.16602775469E+02  0.76951077103E+02  0.84500489306E+02  0.17024970254E+03  0.12509000000E+03 0.  0.
<mgrwt>
<rscale>  2 0.44968755E+03</rscale>
<asrwt>0</asrwt>
<pdfrwt beam="1">  1       21 0.59853276E-01 0.44968755E+03</pdfrwt>
<pdfrwt beam="2">  1       21 0.18266527E-01 0.44968755E+03</pdfrwt>
<totfact> 0.65850931E+04</totfact>
</mgrwt>
</event>
<event>
 7    0  0.4788920E-002  0.4606691E+03  0.7546771E-02  0.1024587E+00
         21   -1    0    0  502  501  0.00000000000E+00  0.00000000000E+00  0.32387974883E+03  0.32387974883E+03  0.00000000000E+00 0. -1.
         21   -1    0    0  501  502 -0.00000000000E+00 -0.00000000000E+00 -0.16380774970E+03  0.16380774970E+03  0.00000000000E+00 0. -1.
      99926    2    1    2    0    0  0.00000000000E+00  0.00000000000E+00  0.16007199913E+03  0.48768749853E+03  0.46066913432E+03 0.  0.
      99925    2    3    3    0    0 -0.93946736686E+02 -0.67991535952E+02  0.12569285546E+03  0.31368097016E+03  0.26296048911E+03 0.  0.
         25    1    4    4    0    0 -0.50422095366E+01 -0.33215046959E+02  0.47401688988E+02  0.13792422354E+03  0.12509000000E+03 0.  0.
         25    1    3    3    0    0  0.93946736686E+02  0.67991535952E+02  0.34379143675E+02  0.17400652837E+03  0.12509000000E+03 0.  0.
         25    1    4    4    0    0 -0.88904527149E+02 -0.34776488993E+02  0.78291166471E+02  0.17575674662E+03  0.12509000000E+03 0.  0.
<mgrwt>
<rscale>  2 0.46066913E+03</rscale>
<asrwt>0</asrwt>
<pdfrwt beam="1">  1       21 0.47629375E-01 0.46066913E+03</pdfrwt>
<pdfrwt beam="2">  1       21 0.24089375E-01 0.46066913E+03</pdfrwt>
<totfact> 0.63249900E+04</totfact>
</mgrwt>
</event>
<event>
 7    0  0.4788920E-002  0.4594350E+03  0.7546771E-02  0.1024945E+00
         21   -1    0    0  502  501  0.00000000000E+00  0.00000000000E+00  0.94691684350E+02  0.94691684350E+02  0.00000000000E+00 0.  1.
         21   -1    0    0  501  502 -0.00000000000E+00 -0.00000000000E+00 -0.55728369034E+03  0.55728369034E+03  0.00000000000E+00 0.  1.
      99926    2    1    2    0    0  0.00000000000E+00  0.00000000000E+00 -0.46259200599E+03  0.65197537469E+03  0.45943500650E+03 0.  0.
      99925    2    3    3    0    0  0.10411843557E+03  0.37797247690E+02 -0.23553744294E+03  0.37007013661E+03  0.26306793499E+03 0.  0.
         25    1    4    4    0    0  0.37142479088E+02  0.46297191246E+01 -0.65310774516E+02  0.14599316224E+03  0.12509000000E+03 0.  0.
         25    1    3    3    0    0 -0.10411843557E+03 -0.37797247690E+02 -0.22705456305E+03  0.28190523809E+03  0.12509000000E+03 0.  0.
         25    1    4    4    0    0  0.66975956487E+02  0.33167528565E+02 -0.17022666843E+03  0.22407697437E+03  0.12509000000E+03 0.  0.
<mgrwt>
<rscale>  2 0.45943501E+03</rscale>
<asrwt>0</asrwt>
<pdfrwt beam="1">  1       21 0.13925248E-01 0.45943501E+03</pdfrwt>
<pdfrwt beam="2">  1       21 0.81953480E-01 0.45943501E+03</pdfrwt>
<totfact> 0.53684785E+04</totfact>
</mgrwt>
</event>
<event>
 7    0  0.4788920E-002  0.4384684E+03  0.7546771E-02  0.1031218E+00
         21   -1    0    0  502  501  0.00000000000E+00  0.00000000000E+00  0.20595450455E+02  0.20595450455E+02  0.00000000000E+00 0.  1.
         21   -1    0    0  501  502 -0.00000000000E+00 -0.00000000000E+00 -0.23337015778E+04  0.23337015778E+04  0.00000000000E+00 0.  1.
      99926    2    1    2    0    0  0.00000000000E+00  0.00000000000E+00 -0.23131061273E+04  0.23542970282E+04  0.43846840352E+03 0.  0.
      99925    2    3    3    0    0  0.54839946073E+02 -0.59955842751E+02 -0.17620227695E+04  0.17833832886E+04  0.26292506717E+03 0.  0.
         25    1    4    4    0    0 -0.95462596296E+01 -0.18153561238E+02 -0.91508011215E+03  0.92381805710E+03  0.12509000000E+03 0.  0.
         25    1    3    3    0    0 -0.54839946073E+02  0.59955842751E+02 -0.55108335780E+03  0.57091373964E+03  0.12509000000E+03 0.  0.
         25    1    4    4    0    0  0.64386205703E+02 -0.41802281513E+02 -0.84694265735E+03  0.85956523147E+03  0.12509000000E+03 0.  0.
<mgrwt>
<rscale>  2 0.43846840E+03</rscale>
<asrwt>0</asrwt>
<pdfrwt beam="1">  1       21 0.30287434E-02 0.43846840E+03</pdfrwt>
<pdfrwt beam="2">  1       21 0.34319133E+00 0.43846840E+03</pdfrwt>
<totfact> 0.99591934E+03</totfact>
</mgrwt>
</event>
<event>
 7    0  0.4788920E-002  0.4553297E+03  0.7546771E-02  0.1026145E+00
         21   -1    0    0  502  501  0.00000000000E+00  0.00000000000E+00  0.53081213504E+02  0.53081213504E+02  0.00000000000E+00 0. -1.
         21   -1    0    0  501  502 -0.00000000000E+00 -0.00000000000E+00 -0.97645232068E+03  0.97645232068E+03  0.00000000000E+00 0. -1.
      99926    2    1    2    0    0  0.00000000000E+00  0.00000000000E+00 -0.92337110718E+03  0.10295335342E+04  0.45532965689E+03 0.  0.
      99925    2    3    3    0    0  0.10075126484E+03 -0.51675772500E+02 -0.56395075992E+03  0.63247976332E+03  0.26299997828E+03 0.  0.
         25    1    3    3    0    0 -0.10075126484E+03  0.51675772500E+02 -0.35942034726E+03  0.39705377086E+03  0.12509000000E+03 0.  0.
         25    1    4    4    0    0  0.10776802507E+02 -0.76705576719E+01 -0.26253857135E+03  0.29111679181E+03  0.12509000000E+03 0.  0.
         25    1    4    4    0    0  0.89974462334E+02 -0.44005214828E+02 -0.30141218857E+03  0.34136297152E+03  0.12509000000E+03 0.  0.
<mgrwt>
<rscale>  2 0.45532966E+03</rscale>
<asrwt>0</asrwt>
<pdfrwt beam="1">  1       21 0.78060618E-02 0.45532966E+03</pdfrwt>
<pdfrwt beam="2">  1       21 0.14359591E+00 0.45532966E+03</pdfrwt>
<totfact> 0.37939718E+04</totfact>
</mgrwt>
</event>
<event>
 7    0  0.4788920E-002  0.4529352E+03  0.7546771E-02  0.1026850E+00
         21   -1    0    0  502  501  0.00000000000E+00  0.00000000000E+00  0.89514871800E+02  0.89514871800E+02  0.00000000000E+00 0.  1.
         21   -1    0    0  501  502 -0.00000000000E+00 -0.00000000000E+00 -0.57295019421E+03  0.57295019421E+03  0.00000000000E+00 0.  1.
      99926    2    1    2    0    0  0.14210854715E-13  0.35527136788E-14 -0.48343532241E+03  0.66246506601E+03  0.45293515290E+03 0.  0.
      99925    2    3    3    0    0  0.10513821554E+03  0.26006164452E+02 -0.34109446556E+03  0.44420193906E+03  0.26313411652E+03 0.  0.
         25    1    4    4    0    0  0.14937563339E+02 -0.42559681717E+01 -0.13058176315E+03  0.18149476309E+03  0.12509000000E+03 0.  0.
         25    1    4    4    0    0  0.90200652199E+02  0.30262132624E+02 -0.21051270241E+03  0.26270717597E+03  0.12509000000E+03 0.  0.
         25    1    3    3    0    0 -0.10513821554E+03 -0.26006164452E+02 -0.14234085684E+03  0.21826312694E+03  0.12509000000E+03 0.  0.
<mgrwt>
<rscale>  2 0.45293515E+03</rscale>
<asrwt>0</asrwt>
<pdfrwt beam="1">  1       21 0.13163952E-01 0.45293515E+03</pdfrwt>
<pdfrwt beam="2">  1       21 0.84257381E-01 0.45293515E+03</pdfrwt>
<totfact> 0.55892780E+04</totfact>
</mgrwt>
</event>
<event>
 7    0  0.4788920E-002  0.4749994E+03  0.7546771E-02  0.1020519E+00
         21   -1    0    0  502  501  0.00000000000E+00  0.00000000000E+00  0.37880747867E+03  0.37880747867E+03  0.00000000000E+00 0.  1.
         21   -1    0    0  501  502 -0.00000000000E+00 -0.00000000000E+00 -0.14890444875E+03  0.14890444875E+03  0.00000000000E+00 0.  1.
      99926    2    1    2    0    0 -0.35527136788E-14  0.00000000000E+00  0.22990302992E+03  0.52771192742E+03  0.47499944755E+03 0.  0.
      99925    2    3    3    0    0 -0.22896041495E+02 -0.17808219881E+02  0.28428168510E+03  0.38826334316E+03  0.26285164208E+03 0.  0.
         25    1    4    4    0    0 -0.45363673814E+02  0.11043878262E+02  0.15695119309E+03  0.20606070771E+03  0.12509000000E+03 0.  0.
         25    1    3    3    0    0  0.22896041495E+02  0.17808219881E+02 -0.54378655182E+02  0.13944858426E+03  0.12509000000E+03 0.  0.
         25    1    4    4    0    0  0.22467632319E+02 -0.28852098143E+02  0.12733049201E+03  0.18220263545E+03  0.12509000000E+03 0.  0.
<mgrwt>
<rscale>  2 0.47499945E+03</rscale>
<asrwt>0</asrwt>
<pdfrwt beam="1">  1       21 0.55706982E-01 0.47499945E+03</pdfrwt>
<pdfrwt beam="2">  1       21 0.21897713E-01 0.47499945E+03</pdfrwt>
<totfact> 0.54233689E+04</totfact>
</mgrwt>
</event>
<event>
 7    0  0.4788920E-002  0.4305606E+03  0.7546771E-02  0.1033683E+00
         21   -1    0    0  502  501  0.00000000000E+00  0.00000000000E+00  0.22385691932E+03  0.22385691932E+03  0.00000000000E+00 0.  1.
         21   -1    0    0  501  502 -0.00000000000E+00 -0.00000000000E+00 -0.20703224262E+03  0.20703224262E+03  0.00000000000E+00 0.  1.
      99926    2    1    2    0    0 -0.71054273576E-14  0.00000000000E+00  0.16824676696E+02  0.43088916194E+03  0.43056056500E+03 0.  0.
      99925    2    3    3    0    0 -0.37639321914E+02  0.35430705953E+02 -0.60929843314E+02  0.27479519357E+03  0.26292184984E+03 0.  0.
         25    1    4    4    0    0 -0.52556804137E+02 -0.43694854690E+01 -0.27349753637E+02  0.13848042168E+03  0.12509000000E+03 0.  0.
         25    1    3    3    0    0  0.37639321914E+02 -0.35430705953E+02  0.77754520010E+02  0.15609396837E+03  0.12509000000E+03 0.  0.
         25    1    4    4    0    0  0.14917482223E+02  0.39800191422E+02 -0.33580089677E+02  0.13631477189E+03  0.12509000000E+03 0.  0.
<mgrwt>
<rscale>  2 0.43056056E+03</rscale>
<asrwt>0</asrwt>
<pdfrwt beam="1">  1       21 0.32920135E-01 0.43056056E+03</pdfrwt>
<pdfrwt beam="2">  1       21 0.30445918E-01 0.43056056E+03</pdfrwt>
<totfact> 0.85921031E+04</totfact>
</mgrwt>
</event>
<event>
 7    0  0.4788920E-002  0.4526213E+03  0.7546771E-02  0.1026943E+00
         21   -1    0    0  502  501  0.00000000000E+00  0.00000000000E+00  0.12974352026E+03  0.12974352026E+03  0.00000000000E+00 0.  1.
         21   -1    0    0  501  502 -0.00000000000E+00 -0.00000000000E+00 -0.39475189582E+03  0.39475189582E+03  0.00000000000E+00 0.  1.
      99926    2    1    2    0    0  0.00000000000E+00  0.00000000000E+00 -0.26500837556E+03  0.52449541607E+03  0.45262125708E+03 0.  0.
      99925    2    3    3    0    0  0.41060604988E+02 -0.85014867442E+02 -0.10048419958E+03  0.29727478860E+03  0.26336614172E+03 0.  0.
         25    1    4    4    0    0 -0.19849886232E+02 -0.31716075974E+02 -0.52818341262E+02  0.14084464041E+03  0.12509000000E+03 0.  0.
         25    1    4    4    0    0  0.60910491220E+02 -0.53298791468E+02 -0.47665858321E+02  0.15643014819E+03  0.12509000000E+03 0.  0.
         25    1    3    3    0    0 -0.41060604988E+02  0.85014867442E+02 -0.16452417598E+03  0.22722062747E+03  0.12509000000E+03 0.  0.
<mgrwt>
<rscale>  2 0.45262126E+03</rscale>
<asrwt>0</asrwt>
<pdfrwt beam="1">  1       21 0.19079930E-01 0.45262126E+03</pdfrwt>
<pdfrwt beam="2">  1       21 0.58051749E-01 0.45262126E+03</pdfrwt>
<totfact> 0.64793874E+04</totfact>
</mgrwt>
</event>
<event>
 7    0  0.4788920E-002  0.4483288E+03  0.7546771E-02  0.1028222E+00
         21   -1    0    0  502  501  0.00000000000E+00  0.00000000000E+00  0.20841475744E+03  0.20841475744E+03  0.00000000000E+00 0.  1.
         21   -1    0    0  501  502 -0.00000000000E+00 -0.00000000000E+00 -0.24110426882E+03  0.24110426882E+03  0.00000000000E+00 0.  1.
      99926    2    1    2    0    0  0.00000000000E+00  0.00000000000E+00 -0.32689511380E+02  0.44951902626E+03  0.44832884228E+03 0.  0.
      99925    2    3    3    0    0  0.10141889001E+03  0.25249460451E+02  0.76525714564E+00  0.28311573261E+03  0.26311709547E+03 0.  0.
         25    1    3    3    0    0 -0.10141889001E+03 -0.25249460451E+02 -0.33454768526E+02  0.16640329366E+03  0.12509000000E+03 0.  0.
         25    1    4    4    0    0  0.76188312851E+02  0.83492196741E+01 -0.32292182841E+02  0.15021538422E+03  0.12509000000E+03 0.  0.
         25    1    4    4    0    0  0.25230577158E+02  0.16900240777E+02  0.33057439986E+02  0.13290034838E+03  0.12509000000E+03 0.  0.
<mgrwt>
<rscale>  2 0.44832884E+03</rscale>
<asrwt>0</asrwt>
<pdfrwt beam="1">  1       21 0.30649229E-01 0.44832884E+03</pdfrwt>
<pdfrwt beam="2">  1       21 0.35456510E-01 0.44832884E+03</pdfrwt>
<totfact> 0.72744835E+04</totfact>
</mgrwt>
</event>
<event>
 7    0  0.4788920E-002  0.4543777E+03  0.7546771E-02  0.1026425E+00
         21   -1    0    0  502  501  0.00000000000E+00  0.00000000000E+00  0.17769176029E+03  0.17769176029E+03  0.00000000000E+00 0.  1.
         21   -1    0    0  501  502 -0.00000000000E+00 -0.00000000000E+00 -0.29047362431E+03  0.29047362431E+03  0.00000000000E+00 0.  1.
      99926    2    1    2    0    0  0.00000000000E+00  0.00000000000E+00 -0.11278186402E+03  0.46816538460E+03  0.45437768265E+03 0.  0.
      99925    2    3    3    0    0  0.70229549052E+02 -0.74242272622E+02 -0.22242269086E+02  0.28299240883E+03  0.26295604256E+03 0.  0.
         25    1    4    4    0    0  0.15830976964E+02 -0.27146140744E+02 -0.45611834347E+02  0.13680453326E+03  0.12509000000E+03 0.  0.
         25    1    4    4    0    0  0.54398572088E+02 -0.47096131878E+02  0.23369565262E+02  0.14618787557E+03  0.12509000000E+03 0.  0.
         25    1    3    3    0    0 -0.70229549052E+02  0.74242272622E+02 -0.90539594931E+02  0.18517297577E+03  0.12509000000E+03 0.  0.
<mgrwt>
<rscale>  2 0.45437768E+03</rscale>
<asrwt>0</asrwt>
<pdfrwt beam="1">  1       21 0.26131141E-01 0.45437768E+03</pdfrwt>
<pdfrwt beam="2">  1       21 0.42716709E-01 0.45437768E+03</pdfrwt>
<totfact> 0.67907079E+04</totfact>
</mgrwt>
</event>
<event>
 7    0  0.4788920E-002  0.4482577E+03  0.7546771E-02  0.1028243E+00
         21   -1    0    0  502  501  0.00000000000E+00  0.00000000000E+00  0.98558438476E+03  0.98558438476E+03  0.00000000000E+00 0.  1.
         21   -1    0    0  501  502 -0.00000000000E+00 -0.00000000000E+00 -0.50968476553E+02  0.50968476553E+02  0.00000000000E+00 0.  1.
      99926    2    1    2    0    0  0.00000000000E+00  0.00000000000E+00  0.93461590820E+03  0.10365528613E+04  0.44825766968E+03 0.  0.
      99925    2    3    3    0    0  0.75650408544E+02  0.67352170231E+02  0.66866821124E+03  0.72569118023E+03  0.26315625241E+03 0.  0.
         25    1    4    4    0    0  0.79583677637E+02  0.42666969036E+02  0.37719175307E+03  0.40752320017E+03  0.12509000000E+03 0.  0.
         25    1    4    4    0    0 -0.39332690929E+01  0.24685201195E+02  0.29147645817E+03  0.31816798006E+03  0.12509000000E+03 0.  0.
         25    1    3    3    0    0 -0.75650408544E+02 -0.67352170231E+02  0.26594769696E+03  0.31086168108E+03  0.12509000000E+03 0.  0.
<mgrwt>
<rscale>  2 0.44825767E+03</rscale>
<asrwt>0</asrwt>
<pdfrwt beam="1">  1       21 0.14493887E+00 0.44825767E+03</pdfrwt>
<pdfrwt beam="2">  1       21 0.74953648E-02 0.44825767E+03</pdfrwt>
<totfact> 0.39830152E+04</totfact>
</mgrwt>
</event>
<event>
 7    0  0.4788920E-002  0.4370964E+03  0.7546771E-02  0.1031641E+00
         21   -1    0    0  502  501  0.00000000000E+00  0.00000000000E+00  0.28674590156E+03  0.28674590156E+03  0.00000000000E+00 0. -1.
         21   -1    0    0  501  502 -0.00000000000E+00 -0.00000000000E+00 -0.16657021247E+03  0.16657021247E+03  0.00000000000E+00 0. -1.
      99926    2    1    2    0    0  0.00000000000E+00  0.00000000000E+00  0.12017568909E+03  0.45331611403E+03  0.43709644587E+03 0.  0.
      99925    2    3    3    0    0 -0.49837072267E+02 -0.65461434273E+02  0.26647527979E+02  0.27678294953E+03  0.26292542147E+03 0.  0.
         25    1    4    4    0    0 -0.38573436516E+01 -0.56433626767E+02  0.38774021526E+02  0.14265541061E+03  0.12509000000E+03 0.  0.
         25    1    3    3    0    0  0.49837072267E+02  0.65461434273E+02  0.93528161110E+02  0.17653316450E+03  0.12509000000E+03 0.  0.
         25    1    4    4    0    0 -0.45979728615E+02 -0.90278075066E+01 -0.12126493548E+02  0.13412753892E+03  0.12509000000E+03 0.  0.
<mgrwt>
<rscale>  2 0.43709645E+03</rscale>
<asrwt>0</asrwt>
<pdfrwt beam="1">  1       21 0.42168515E-01 0.43709645E+03</pdfrwt>
<pdfrwt beam="2">  1       21 0.24495619E-01 0.43709645E+03</pdfrwt>
<totfact> 0.79386285E+04</totfact>
</mgrwt>
</event>
<event>
 7    0  0.4788920E-002  0.4533449E+03  0.7546771E-02  0.1026729E+00
         21   -1    0    0  502  501  0.00000000000E+00  0.00000000000E+00  0.90484215225E+02  0.90484215225E+02  0.00000000000E+00 0.  1.
         21   -1    0    0  501  502 -0.00000000000E+00 -0.00000000000E+00 -0.56783817893E+03  0.56783817893E+03  0.00000000000E+00 0.  1.
      99926    2    1    2    0    0  0.00000000000E+00  0.14210854715E-13 -0.47735396371E+03  0.65832239416E+03  0.45334486650E+03 0.  0.
      99925    2    3    3    0    0  0.19238501816E+02  0.73760939122E+02 -0.18252218767E+03  0.32910501862E+03  0.26303035604E+03 0.  0.
         25    1    3    3    0    0 -0.19238501816E+02 -0.73760939122E+02 -0.29483177604E+03  0.32921737554E+03  0.12509000000E+03 0.  0.
         25    1    4    4    0    0 -0.81732314758E+01  0.30307863057E+01 -0.10495158136E+03  0.16351859193E+03  0.12509000000E+03 0.  0.
         25    1    4    4    0    0  0.27411733292E+02  0.70730152817E+02 -0.77570606309E+02  0.16558642669E+03  0.12509000000E+03 0.  0.
<mgrwt>
<rscale>  2 0.45334487E+03</rscale>
<asrwt>0</asrwt>
<pdfrwt beam="1">  1       21 0.13306503E-01 0.45334487E+03</pdfrwt>
<pdfrwt beam="2">  1       21 0.83505612E-01 0.45334487E+03</pdfrwt>
<totfact> 0.55951045E+04</totfact>
</mgrwt>
</event>
<event>
 7    0  0.4788920E-002  0.4513357E+03  0.7546771E-02  0.1027324E+00
         21   -1    0    0  502  501  0.00000000000E+00  0.00000000000E+00  0.94192140511E+02  0.94192140511E+02  0.00000000000E+00 0.  1.
         21   -1    0    0  501  502 -0.00000000000E+00 -0.00000000000E+00 -0.54066059421E+03  0.54066059421E+03  0.00000000000E+00 0.  1.
      99926    2    1    2    0    0 -0.71054273576E-14 -0.14210854715E-13 -0.44646845370E+03  0.63485273472E+03  0.45133570060E+03 0.  0.
      99925    2    3    3    0    0 -0.63439558588E+02 -0.83793994185E+02 -0.32606717720E+03  0.43189957131E+03  0.26300460946E+03 0.  0.
         25    1    4    4    0    0 -0.34609506121E+02 -0.31178289119E+01 -0.12644135468E+03  0.18122489631E+03  0.12509000000E+03 0.  0.
         25    1    3    3    0    0  0.63439558588E+02  0.83793994185E+02 -0.12040127650E+03  0.20295316341E+03  0.12509000000E+03 0.  0.
         25    1    4    4    0    0 -0.28830052467E+02 -0.80676165273E+02 -0.19962582252E+03  0.25067467500E+03  0.12509000000E+03 0.  0.
<mgrwt>
<rscale>  2 0.45133570E+03</rscale>
<asrwt>0</asrwt>
<pdfrwt beam="1">  1       21 0.13851786E-01 0.45133570E+03</pdfrwt>
<pdfrwt beam="2">  1       21 0.79508908E-01 0.45133570E+03</pdfrwt>
<totfact> 0.58249099E+04</totfact>
</mgrwt>
</event>
<event>
 7    0  0.4788920E-002  0.4513410E+03  0.7546771E-02  0.1027323E+00
         21   -1    0    0  502  501  0.00000000000E+00  0.00000000000E+00  0.40839792636E+03  0.40839792636E+03  0.00000000000E+00 0.  1.
         21   -1    0    0  501  502 -0.00000000000E+00 -0.00000000000E+00 -0.12469988966E+03  0.12469988966E+03  0.00000000000E+00 0.  1.
      99926    2    1    2    0    0 -0.14210854715E-13  0.00000000000E+00  0.28369803670E+03  0.53309781602E+03  0.45134100790E+03 0.  0.
      99925    2    3    3    0    0  0.96556989053E+02 -0.22776702024E+02  0.23453312192E+03  0.36604474889E+03  0.26294665358E+03 0.  0.
         25    1    4    4    0    0  0.76547054370E+02 -0.27220667501E+02  0.91765142268E+02  0.17512500024E+03  0.12509000000E+03 0.  0.
         25    1    3    3    0    0 -0.96556989053E+02  0.22776702024E+02  0.49164914788E+02  0.16705306713E+03  0.12509000000E+03 0.  0.
         25    1    4    4    0    0  0.20009934682E+02  0.44439654774E+01  0.14276797965E+03  0.19091974866E+03  0.12509000000E+03 0.  0.
<mgrwt>
<rscale>  2 0.45134101E+03</rscale>
<asrwt>0</asrwt>
<pdfrwt beam="1">  1       21 0.60058518E-01 0.45134101E+03</pdfrwt>
<pdfrwt beam="2">  1       21 0.18338219E-01 0.45134101E+03</pdfrwt>
<totfact> 0.64855454E+04</totfact>
</mgrwt>
</event>
<event>
 7    0  0.4788920E-002  0.4563541E+03  0.7546771E-02  0.1025844E+00
         21   -1    0    0  502  501  0.00000000000E+00  0.00000000000E+00  0.73042705081E+03  0.73042705081E+03  0.00000000000E+00 0. -1.
         21   -1    0    0  501  502 -0.00000000000E+00 -0.00000000000E+00 -0.71279912326E+02  0.71279912326E+02  0.00000000000E+00 0. -1.
      99926    2    1    2    0    0  0.00000000000E+00  0.00000000000E+00  0.65914713848E+03  0.80170696313E+03  0.45635414380E+03 0.  0.
      99925    2    3    3    0    0  0.89792635264E+02  0.70822801139E+02  0.41013091798E+03  0.50048416738E+03  0.26305597390E+03 0.  0.
         25    1    4    4    0    0  0.61435705569E+02 -0.10801486492E+00  0.21980976168E+03  0.26026562780E+03  0.12509000000E+03 0.  0.
         25    1    3    3    0    0 -0.89792635264E+02 -0.70822801139E+02  0.24901622050E+03  0.30122279575E+03  0.12509000000E+03 0.  0.
         25    1    4    4    0    0  0.28356929695E+02  0.70930816004E+02  0.19032115630E+03  0.24021853958E+03  0.12509000000E+03 0.  0.
<mgrwt>
<rscale>  2 0.45635414E+03</rscale>
<asrwt>0</asrwt>
<pdfrwt beam="1">  1       21 0.10741574E+00 0.45635414E+03</pdfrwt>
<pdfrwt beam="2">  1       21 0.10482340E-01 0.45635414E+03</pdfrwt>
<totfact> 0.47178986E+04</totfact>
</mgrwt>
</event>
<event>
 7    0  0.4788920E-002  0.4568166E+03  0.7546771E-02  0.1025709E+00
         21   -1    0    0  502  501  0.00000000000E+00  0.00000000000E+00  0.22360948892E+03  0.22360948892E+03  0.00000000000E+00 0.  1.
         21   -1    0    0  501  502 -0.00000000000E+00 -0.00000000000E+00 -0.23331009295E+03  0.23331009295E+03  0.00000000000E+00 0.  1.
      99926    2    1    2    0    0 -0.88817841970E-15  0.00000000000E+00 -0.97006040300E+01  0.45691958186E+03  0.45681659621E+03 0.  0.
      99925    2    3    3    0    0  0.61188256266E+01 -0.11440407175E+03  0.18949779991E+01  0.28689694430E+03  0.26302192694E+03 0.  0.
         25    1    4    4    0    0  0.72545471511E+01 -0.16680060557E+02 -0.14850612828E+02  0.12727490592E+03  0.12509000000E+03 0.  0.
         25    1    3    3    0    0 -0.61188256266E+01  0.11440407175E+03 -0.11595582029E+02  0.17002263756E+03  0.12509000000E+03 0.  0.
         25    1    4    4    0    0 -0.11357215245E+01 -0.97724011192E+02  0.16745590827E+02  0.15962203839E+03  0.12509000000E+03 0.  0.
<mgrwt>
<rscale>  2 0.45681660E+03</rscale>
<asrwt>0</asrwt>
<pdfrwt beam="1">  1       21 0.32883749E-01 0.45681660E+03</pdfrwt>
<pdfrwt beam="2">  1       21 0.34310308E-01 0.45681660E+03</pdfrwt>
<totfact> 0.67422824E+04</totfact>
</mgrwt>
</event>
<event>
 7    0  0.4788920E-002  0.4527455E+03  0.7546771E-02  0.1026906E+00
         21   -1    0    0  502  501  0.00000000000E+00  0.00000000000E+00  0.21790055042E+03  0.21790055042E+03  0.00000000000E+00 0. -1.
         21   -1    0    0  501  502 -0.00000000000E+00 -0.00000000000E+00 -0.23517436805E+03  0.23517436805E+03  0.00000000000E+00 0. -1.
      99926    2    1    2    0    0  0.00000000000E+00  0.00000000000E+00 -0.17273817632E+02  0.45307491846E+03  0.45274551015E+03 0.  0.
      99925    2    3    3    0    0  0.10751616288E+02 -0.91395745740E+02 -0.73099194241E+02  0.28805140388E+03  0.26298543588E+03 0.  0.
         25    1    3    3    0    0 -0.10751616288E+02  0.91395745740E+02  0.55825376609E+02  0.16502351458E+03  0.12509000000E+03 0.  0.
         25    1    4    4    0    0  0.32187388035E+01 -0.56231801098E+02  0.31179465378E+01  0.13722100941E+03  0.12509000000E+03 0.  0.
         25    1    4    4    0    0  0.75328774846E+01 -0.35163944641E+02 -0.76217140779E+02  0.15083039446E+03  0.12509000000E+03 0.  0.
<mgrwt>
<rscale>  2 0.45274551E+03</rscale>
<asrwt>0</asrwt>
<pdfrwt beam="1">  1       21 0.32044199E-01 0.45274551E+03</pdfrwt>
<pdfrwt beam="2">  1       21 0.34584466E-01 0.45274551E+03</pdfrwt>
<totfact> 0.69936674E+04</totfact>
</mgrwt>
</event>
<event>
 7    0  0.4788920E-002  0.4576140E+03  0.7546771E-02  0.1025475E+00
         21   -1    0    0  502  501  0.00000000000E+00  0.00000000000E+00  0.37353840638E+03  0.37353840638E+03  0.00000000000E+00 0. -1.
         21   -1    0    0  501  502 -0.00000000000E+00 -0.00000000000E+00 -0.14015330764E+03  0.14015330764E+03  0.00000000000E+00 0. -1.
      99926    2    1    2    0    0  0.00000000000E+00 -0.71054273576E-14  0.23338509874E+03  0.51369171402E+03  0.45761399972E+03 0.  0.
      99925    2    3    3    0    0 -0.32451062992E+02 -0.55810227455E+02  0.38987279094E+02  0.27367947816E+03  0.26308286881E+03 0.  0.
         25    1    4    4    0    0  0.46799310403E+01 -0.37612354654E+02  0.53302039353E+02  0.14115667351E+03  0.12509000000E+03 0.  0.
         25    1    4    4    0    0 -0.37130994032E+02 -0.18197872801E+02 -0.14314760259E+02  0.13252280465E+03  0.12509000000E+03 0.  0.
         25    1    3    3    0    0  0.32451062992E+02  0.55810227455E+02  0.19439781964E+03  0.24001223585E+03  0.12509000000E+03 0.  0.
<mgrwt>
<rscale>  2 0.45761400E+03</rscale>
<asrwt>0</asrwt>
<pdfrwt beam="1">  1       21 0.54932119E-01 0.45761400E+03</pdfrwt>
<pdfrwt beam="2">  1       21 0.20610781E-01 0.45761400E+03</pdfrwt>
<totfact> 0.63001988E+04</totfact>
</mgrwt>
</event>
<event>
 7    0  0.4788920E-002  0.4522162E+03  0.7546771E-02  0.1027063E+00
         21   -1    0    0  502  501  0.00000000000E+00  0.00000000000E+00  0.80388868211E+03  0.80388868211E+03  0.00000000000E+00 0. -1.
         21   -1    0    0  501  502 -0.00000000000E+00 -0.00000000000E+00 -0.63596943061E+02  0.63596943061E+02  0.00000000000E+00 0. -1.
      99926    2    1    2    0    0  0.17763568394E-14 -0.17763568394E-14  0.74029173905E+03  0.86748562517E+03  0.45221615514E+03 0.  0.
      99925    2    3    3    0    0 -0.60862474778E+01 -0.92181781329E+01  0.25602889981E+03  0.36720568076E+03  0.26299657265E+03 0.  0.
         25    1    3    3    0    0  0.60862474778E+01  0.92181781329E+01  0.48426283924E+03  0.50027994441E+03  0.12509000000E+03 0.  0.
         25    1    4    4    0    0 -0.24431194743E+02 -0.20891091736E+02  0.17142870484E+03  0.21463604062E+03  0.12509000000E+03 0.  0.
         25    1    4    4    0    0  0.18344947265E+02  0.11672913603E+02  0.84600194974E+02  0.15256964014E+03  0.12509000000E+03 0.  0.
<mgrwt>
<rscale>  2 0.45221616E+03</rscale>
<asrwt>0</asrwt>
<pdfrwt beam="1">  1       21 0.11821892E+00 0.45221616E+03</pdfrwt>
<pdfrwt beam="2">  1       21 0.93524921E-02 0.45221616E+03</pdfrwt>
<totfact> 0.45655546E+04</totfact>
</mgrwt>
</event>
<event>
 7    0  0.4788920E-002  0.4535828E+03  0.7546771E-02  0.1026659E+00
         21   -1    0    0  502  501  0.00000000000E+00  0.00000000000E+00  0.32142953584E+03  0.32142953584E+03  0.00000000000E+00 0.  1.
         21   -1    0    0  501  502 -0.00000000000E+00 -0.00000000000E+00 -0.16001746175E+03  0.16001746175E+03  0.00000000000E+00 0.  1.
      99926    2    1    2    0    0  0.00000000000E+00 -0.14210854715E-13  0.16141207410E+03  0.48144699759E+03  0.45358279710E+03 0.  0.
      99925    2    3    3    0    0  0.19397597271E+02 -0.10024363420E+03  0.15021009286E+03  0.31958889473E+03  0.26296185401E+03 0.  0.
         25    1    4    4    0    0  0.62940001220E+01 -0.15879759680E+02  0.96469390949E+02  0.15888874314E+03  0.12509000000E+03 0.  0.
         25    1    3    3    0    0 -0.19397597271E+02  0.10024363420E+03  0.11201981238E+02  0.16185810286E+03  0.12509000000E+03 0.  0.
         25    1    4    4    0    0  0.13103597149E+02 -0.84363874519E+02  0.53740701909E+02  0.16070015160E+03  0.12509000000E+03 0.  0.
<mgrwt>
<rscale>  2 0.45358280E+03</rscale>
<asrwt>0</asrwt>
<pdfrwt beam="1">  1       21 0.47269050E-01 0.45358280E+03</pdfrwt>
<pdfrwt beam="2">  1       21 0.23531980E-01 0.45358280E+03</pdfrwt>
<totfact> 0.67349396E+04</totfact>
</mgrwt>
</event>
<event>
 7    0  0.4788920E-002  0.4443987E+03  0.7546771E-02  0.1029406E+00
         21   -1    0    0  502  501  0.00000000000E+00  0.00000000000E+00  0.10803624565E+03  0.10803624565E+03  0.00000000000E+00 0.  1.
         21   -1    0    0  501  502 -0.00000000000E+00 -0.00000000000E+00 -0.45699993312E+03  0.45699993312E+03  0.00000000000E+00 0.  1.
      99926    2    1    2    0    0 -0.71054273576E-14 -0.35527136788E-14 -0.34896368747E+03  0.56503617877E+03  0.44439872654E+03 0.  0.
      99925    2    3    3    0    0  0.41150551784E+02 -0.19818006673E+02 -0.33896571239E+03  0.43149371771E+03  0.26306454141E+03 0.  0.
         25    1    4    4    0    0 -0.12544115714E+01 -0.30574532492E+02 -0.21150500046E+03  0.24762521864E+03  0.12509000000E+03 0.  0.
         25    1    3    3    0    0 -0.41150551784E+02  0.19818006673E+02 -0.99979750783E+01  0.13354246106E+03  0.12509000000E+03 0.  0.
         25    1    4    4    0    0  0.42404963356E+02  0.10756525819E+02 -0.12746071192E+03  0.18386849907E+03  0.12509000000E+03 0.  0.
<mgrwt>
<rscale>  2 0.44439873E+03</rscale>
<asrwt>0</asrwt>
<pdfrwt beam="1">  1       21 0.15887683E-01 0.44439873E+03</pdfrwt>
<pdfrwt beam="2">  1       21 0.67205872E-01 0.44439873E+03</pdfrwt>
<totfact> 0.66267378E+04</totfact>
</mgrwt>
</event>
<event>
 7    0  0.4788920E-002  0.4528122E+03  0.7546771E-02  0.1026887E+00
         21   -1    0    0  502  501  0.00000000000E+00  0.00000000000E+00  0.19787924980E+04  0.19787924980E+04  0.00000000000E+00 0.  1.
         21   -1    0    0  501  502 -0.00000000000E+00 -0.00000000000E+00 -0.25904542798E+02  0.25904542798E+02  0.00000000000E+00 0.  1.
      99926    2    1    2    0    0  0.00000000000E+00  0.71054273576E-14  0.19528879552E+04  0.20046970408E+04  0.45281216836E+03 0.  0.
      99925    2    3    3    0    0 -0.97797545061E+01 -0.52385707695E+02  0.16629145283E+04  0.16844283998E+04  0.26301026561E+03 0.  0.
         25    1    4    4    0    0 -0.27755196735E+02 -0.60157743286E+02  0.90931680750E+03  0.92026836821E+03  0.12509000000E+03 0.  0.
         25    1    4    4    0    0  0.17975442229E+02  0.77720355912E+01  0.75359772078E+03  0.76416003162E+03  0.12509000000E+03 0.  0.
         25    1    3    3    0    0  0.97797545061E+01  0.52385707695E+02  0.28997342693E+03  0.32026864098E+03  0.12509000000E+03 0.  0.
<mgrwt>
<rscale>  2 0.45281217E+03</rscale>
<asrwt>0</asrwt>
<pdfrwt beam="1">  1       21 0.29099879E+00 0.45281217E+03</pdfrwt>
<pdfrwt beam="2">  1       21 0.38094929E-02 0.45281217E+03</pdfrwt>
<totfact> 0.13867127E+04</totfact>
</mgrwt>
</event>
<event>
 7    0  0.4788920E-002  0.4518341E+03  0.7546771E-02  0.1027177E+00
         21   -1    0    0  502  501  0.00000000000E+00  0.00000000000E+00  0.46824277110E+02  0.46824277110E+02  0.00000000000E+00 0.  1.
         21   -1    0    0  501  502 -0.00000000000E+00 -0.00000000000E+00 -0.10900011490E+04  0.10900011490E+04  0.00000000000E+00 0.  1.
      99926    2    1    2    0    0  0.00000000000E+00  0.00000000000E+00 -0.10431768719E+04  0.11368254261E+04  0.45183411049E+03 0.  0.
      99925    2    3    3    0    0  0.60176768384E+02  0.90941036042E+02 -0.69705140484E+03  0.75297407138E+03  0.26305470094E+03 0.  0.
         25    1    4    4    0    0  0.43928962154E+02  0.21863299650E+02 -0.25683722201E+03  0.28986311303E+03  0.12509000000E+03 0.  0.
         25    1    4    4    0    0  0.16247806230E+02  0.69077736391E+02 -0.44021418283E+03  0.46311095834E+03  0.12509000000E+03 0.  0.
         25    1    3    3    0    0 -0.60176768384E+02 -0.90941036042E+02 -0.34612546704E+03  0.38385135472E+03  0.12509000000E+03 0.  0.
<mgrwt>
<rscale>  2 0.45183411E+03</rscale>
<asrwt>0</asrwt>
<pdfrwt beam="1">  1       21 0.68859224E-02 0.45183411E+03</pdfrwt>
<pdfrwt beam="2">  1       21 0.16029430E+00 0.45183411E+03</pdfrwt>
<totfact> 0.35083084E+04</totfact>
</mgrwt>
</event>
<event>
 7    0  0.4788920E-002  0.4473908E+03  0.7546771E-02  0.1028503E+00
         21   -1    0    0  502  501  0.00000000000E+00  0.00000000000E+00  0.28505385570E+03  0.28505385570E+03  0.00000000000E+00 0. -1.
         21   -1    0    0  501  502 -0.00000000000E+00 -0.00000000000E+00 -0.17554451087E+03  0.17554451087E+03  0.00000000000E+00 0. -1.
      99926    2    1    2    0    0  0.00000000000E+00  0.00000000000E+00  0.10950934483E+03  0.46059836656E+03  0.44739083437E+03 0.  0.
      99925    2    3    3    0    0 -0.68834470407E+02  0.73522790344E+02  0.10133328726E+03  0.29979369924E+03  0.26356031943E+03 0.  0.
         25    1    3    3    0    0  0.68834470407E+02 -0.73522790344E+02  0.81760575650E+01  0.16080466733E+03  0.12509000000E+03 0.  0.
         25    1    4    4    0    0 -0.72869533024E+02  0.36594730161E+02  0.34803667572E+02  0.15332301359E+03  0.12509000000E+03 0.  0.
         25    1    4    4    0    0  0.40350626167E+01  0.36928060183E+02  0.66529619692E+02  0.14647068565E+03  0.12509000000E+03 0.  0.
<mgrwt>
<rscale>  2 0.44739083E+03</rscale>
<asrwt>0</asrwt>
<pdfrwt beam="1">  1       21 0.41919685E-01 0.44739083E+03</pdfrwt>
<pdfrwt beam="2">  1       21 0.25815369E-01 0.44739083E+03</pdfrwt>
<totfact> 0.72414567E+04</totfact>
</mgrwt>
</event>
<event>
 7    0  0.4788920E-002  0.4440462E+03  0.7546771E-02  0.1029513E+00
         21   -1    0    0  502  501  0.00000000000E+00  0.00000000000E+00  0.27250814139E+03  0.27250814139E+03  0.00000000000E+00 0.  1.
         21   -1    0    0  501  502 -0.00000000000E+00 -0.00000000000E+00 -0.18089092546E+03  0.18089092546E+03  0.00000000000E+00 0.  1.
      99926    2    1    2    0    0  0.00000000000E+00  0.00000000000E+00  0.91617215923E+02  0.45339906685E+03  0.44404616828E+03 0.  0.
      99925    2    3    3    0    0  0.18425815185E+02 -0.27354494521E+02 -0.40726123003E+02  0.26833138600E+03  0.26316408680E+03 0.  0.
         25    1    4    4    0    0 -0.11219447818E+02  0.48587794579E+01  0.10774677393E+02  0.12614707892E+03  0.12509000000E+03 0.  0.
         25    1    3    3    0    0 -0.18425815185E+02  0.27354494521E+02  0.13234333893E+03  0.18506768085E+03  0.12509000000E+03 0.  0.
         25    1    4    4    0    0  0.29645263003E+02 -0.32213273979E+02 -0.51500800397E+02  0.14218430708E+03  0.12509000000E+03 0.  0.
<mgrwt>
<rscale>  2 0.44404617E+03</rscale>
<asrwt>0</asrwt>
<pdfrwt beam="1">  1       21 0.40074727E-01 0.44404617E+03</pdfrwt>
<pdfrwt beam="2">  1       21 0.26601607E-01 0.44404617E+03</pdfrwt>
<totfact> 0.74998471E+04</totfact>
</mgrwt>
</event>
<event>
 7    0  0.4788920E-002  0.4576339E+03  0.7546771E-02  0.1025470E+00
         21   -1    0    0  502  501  0.00000000000E+00  0.00000000000E+00  0.13407977924E+03  0.13407977924E+03  0.00000000000E+00 0. -1.
         21   -1    0    0  501  502 -0.00000000000E+00 -0.00000000000E+00 -0.39049290302E+03  0.39049290302E+03  0.00000000000E+00 0. -1.
      99926    2    1    2    0    0  0.71054273576E-14  0.44408920985E-14 -0.25641312379E+03  0.52457268226E+03  0.45763392458E+03 0.  0.
      99925    2    3    3    0    0 -0.56901020818E+02  0.56877815505E+01 -0.27609406089E+03  0.38563052014E+03  0.26308342893E+03 0.  0.
         25    1    4    4    0    0 -0.48910460500E+02  0.38301746984E+02 -0.13986504791E+03  0.19765878856E+03  0.12509000000E+03 0.  0.
         25    1    3    3    0    0  0.56901020818E+02 -0.56877815505E+01  0.19680937105E+02  0.13894216212E+03  0.12509000000E+03 0.  0.
         25    1    4    4    0    0 -0.79905603184E+01 -0.32613965433E+02 -0.13622901298E+03  0.18797173158E+03  0.12509000000E+03 0.  0.
<mgrwt>
<rscale>  2 0.45763392E+03</rscale>
<asrwt>0</asrwt>
<pdfrwt beam="1">  1       21 0.19717615E-01 0.45763392E+03</pdfrwt>
<pdfrwt beam="2">  1       21 0.57425427E-01 0.45763392E+03</pdfrwt>
<totfact> 0.62265025E+04</totfact>
</mgrwt>
</event>
<event>
 7    0  0.4788920E-002  0.4560210E+03  0.7546771E-02  0.1025942E+00
         21   -1    0    0  502  501  0.00000000000E+00  0.00000000000E+00  0.19827870270E+03  0.19827870270E+03  0.00000000000E+00 0.  1.
         21   -1    0    0  501  502 -0.00000000000E+00 -0.00000000000E+00 -0.26220053209E+03  0.26220053209E+03  0.00000000000E+00 0.  1.
      99926    2    1    2    0    0  0.00000000000E+00  0.00000000000E+00 -0.63921829390E+02  0.46047923478E+03  0.45602097034E+03 0.  0.
      99925    2    3    3    0    0 -0.11932504579E+02  0.60321505831E+02  0.56676649076E+02  0.27616274111E+03  0.26319678626E+03 0.  0.
         25    1    4    4    0    0 -0.30392063871E+02 -0.32114769449E+01  0.27958279981E+02  0.13176936158E+03  0.12509000000E+03 0.  0.
         25    1    3    3    0    0  0.11932504579E+02 -0.60321505831E+02 -0.12059847847E+03  0.18431649367E+03  0.12509000000E+03 0.  0.
         25    1    4    4    0    0  0.18459559292E+02  0.63532982776E+02  0.28718369095E+02  0.14439337953E+03  0.12509000000E+03 0.  0.
<mgrwt>
<rscale>  2 0.45602097E+03</rscale>
<asrwt>0</asrwt>
<pdfrwt beam="1">  1       21 0.29158633E-01 0.45602097E+03</pdfrwt>
<pdfrwt beam="2">  1       21 0.38558901E-01 0.45602097E+03</pdfrwt>
<totfact> 0.67593638E+04</totfact>
</mgrwt>
</event>
<event>
 7    0  0.4788920E-002  0.4544679E+03  0.7546771E-02  0.1026398E+00
         21   -1    0    0  502  501  0.00000000000E+00  0.00000000000E+00  0.72418016020E+03  0.72418016020E+03  0.00000000000E+00 0. -1.
         21   -1    0    0  501  502 -0.00000000000E+00 -0.00000000000E+00 -0.71301673954E+02  0.71301673954E+02  0.00000000000E+00 0. -1.
      99926    2    1    2    0    0  0.00000000000E+00  0.00000000000E+00  0.65287848625E+03  0.79548183415E+03  0.45446785438E+03 0.  0.
      99925    2    3    3    0    0 -0.10749297009E+02  0.11141974410E+03  0.43388572828E+03  0.51955567935E+03  0.26296648453E+03 0.  0.
         25    1    4    4    0    0  0.18669799283E+02  0.45471492826E+02  0.26645869558E+03  0.29843586014E+03  0.12509000000E+03 0.  0.
         25    1    4    4    0    0 -0.29419096292E+02  0.65948251271E+02  0.16742703269E+03  0.22111981921E+03  0.12509000000E+03 0.  0.
         25    1    3    3    0    0  0.10749297009E+02 -0.11141974410E+03  0.21899275797E+03  0.27592615480E+03  0.12509000000E+03 0.  0.
<mgrwt>
<rscale>  2 0.45446785E+03</rscale>
<asrwt>0</asrwt>
<pdfrwt beam="1">  1       21 0.10649708E+00 0.45446785E+03</pdfrwt>
<pdfrwt beam="2">  1       21 0.10485541E-01 0.45446785E+03</pdfrwt>
<totfact> 0.48185051E+04</totfact>
</mgrwt>
</event>
<event>
 7    0  0.4788920E-002  0.4597292E+03  0.7546771E-02  0.1024860E+00
         21   -1    0    0  502  501  0.00000000000E+00  0.00000000000E+00  0.64923355895E+02  0.64923355895E+02  0.00000000000E+00 0. -1.
         21   -1    0    0  501  502 -0.00000000000E+00 -0.00000000000E+00 -0.81384792426E+03  0.81384792426E+03  0.00000000000E+00 0. -1.
      99926    2    1    2    0    0  0.00000000000E+00 -0.71054273576E-14 -0.74892456837E+03  0.87877128016E+03  0.45972921783E+03 0.  0.
      99925    2    3    3    0    0 -0.10308348255E+03 -0.48528314517E+02 -0.52583691028E+03  0.59877697133E+03  0.26277024850E+03 0.  0.
         25    1    4    4    0    0 -0.73554782275E+02 -0.49175052352E+02 -0.33879687633E+03  0.37183238600E+03  0.12509000000E+03 0.  0.
         25    1    3    3    0    0  0.10308348255E+03  0.48528314517E+02 -0.22308765808E+03  0.27999430882E+03  0.12509000000E+03 0.  0.
         25    1    4    4    0    0 -0.29528700276E+02  0.64673783510E+00 -0.18704003395E+03  0.22694458533E+03  0.12509000000E+03 0.  0.
<mgrwt>
<rscale>  2 0.45972922E+03</rscale>
<asrwt>0</asrwt>
<pdfrwt beam="1">  1       21 0.95475531E-02 0.45972922E+03</pdfrwt>
<pdfrwt beam="2">  1       21 0.11968351E+00 0.45972922E+03</pdfrwt>
<totfact> 0.42565650E+04</totfact>
</mgrwt>
</event>
<event>
 7    0  0.4788920E-002  0.4608980E+03  0.7546771E-02  0.1024521E+00
         21   -1    0    0  502  501  0.00000000000E+00  0.00000000000E+00  0.26524569414E+03  0.26524569414E+03  0.00000000000E+00 0.  1.
         21   -1    0    0  501  502 -0.00000000000E+00 -0.00000000000E+00 -0.20021717833E+03  0.20021717833E+03  0.00000000000E+00 0.  1.
      99926    2    1    2    0    0  0.00000000000E+00  0.00000000000E+00  0.65028515810E+02  0.46546287247E+03  0.46089801234E+03 0.  0.
      99925    2    3    3    0    0 -0.92524302659E+02  0.68762218614E+02  0.69013896377E+02  0.29530888148E+03  0.26297419702E+03 0.  0.
         25    1    3    3    0    0  0.92524302659E+02 -0.68762218614E+02 -0.39853805672E+01  0.17015399099E+03  0.12509000000E+03 0.  0.
         25    1    4    4    0    0 -0.83919300131E+02  0.52386261280E+02  0.25066524867E+02  0.16143917763E+03  0.12509000000E+03 0.  0.
         25    1    4    4    0    0 -0.86050025276E+01  0.16375957335E+02  0.43947371510E+02  0.13386970385E+03  0.12509000000E+03 0.  0.
<mgrwt>
<rscale>  2 0.46089801E+03</rscale>
<asrwt>0</asrwt>
<pdfrwt beam="1">  1       21 0.39006720E-01 0.46089801E+03</pdfrwt>
<pdfrwt beam="2">  1       21 0.29443703E-01 0.46089801E+03</pdfrwt>
<totfact> 0.64687710E+04</totfact>
</mgrwt>
</event>
<event>
 7    0  0.4788920E-002  0.4398513E+03  0.7546771E-02  0.1030792E+00
         21   -1    0    0  502  501  0.00000000000E+00  0.00000000000E+00  0.10214094227E+03  0.10214094227E+03  0.00000000000E+00 0. -1.
         21   -1    0    0  501  502 -0.00000000000E+00 -0.00000000000E+00 -0.47353472097E+03  0.47353472097E+03  0.00000000000E+00 0. -1.
      99926    2    1    2    0    0  0.22204460493E-14 -0.71054273576E-14 -0.37139377871E+03  0.57567566324E+03  0.43985125939E+03 0.  0.
      99925    2    3    3    0    0 -0.37459662674E+01  0.57370978322E+02 -0.34124839177E+03  0.43474407036E+03  0.26314725994E+03 0.  0.
         25    1    3    3    0    0  0.37459662674E+01 -0.57370978322E+02 -0.30145386937E+02  0.14093159288E+03  0.12509000000E+03 0.  0.
         25    1    4    4    0    0  0.34277275404E+02  0.45530907566E+02 -0.15982658621E+03  0.21080806652E+03  0.12509000000E+03 0.  0.
         25    1    4    4    0    0 -0.38023241672E+02  0.11840070756E+02 -0.18142180556E+03  0.22393600384E+03  0.12509000000E+03 0.  0.
<mgrwt>
<rscale>  2 0.43985126E+03</rscale>
<asrwt>0</asrwt>
<pdfrwt beam="1">  1       21 0.15020727E-01 0.43985126E+03</pdfrwt>
<pdfrwt beam="2">  1       21 0.69637459E-01 0.43985126E+03</pdfrwt>
<totfact> 0.67985043E+04</totfact>
</mgrwt>
</event>
<event>
 7    0  0.4788920E-002  0.4528267E+03  0.7546771E-02  0.1026882E+00
         21   -1    0    0  502  501  0.00000000000E+00  0.00000000000E+00  0.10123505404E+03  0.10123505404E+03  0.00000000000E+00 0. -1.
         21   -1    0    0  501  502 -0.00000000000E+00 -0.00000000000E+00 -0.50637611720E+03  0.50637611720E+03  0.00000000000E+00 0. -1.
      99926    2    1    2    0    0  0.00000000000E+00  0.00000000000E+00 -0.40514106317E+03  0.60761117124E+03  0.45282673767E+03 0.  0.
      99925    2    3    3    0    0  0.95335303936E+02  0.25302479072E+02 -0.18704018302E+03  0.33752870671E+03  0.26308280477E+03 0.  0.
         25    1    3    3    0    0 -0.95335303936E+02 -0.25302479072E+02 -0.21810088014E+03  0.27008246452E+03  0.12509000000E+03 0.  0.
         25    1    4    4    0    0  0.61432634476E+01  0.21506743473E+00 -0.79989679605E+02  0.14860566235E+03  0.12509000000E+03 0.  0.
         25    1    4    4    0    0  0.89192040488E+02  0.25087411637E+02 -0.10705050342E+03  0.18892304436E+03  0.12509000000E+03 0.  0.
<mgrwt>
<rscale>  2 0.45282674E+03</rscale>
<asrwt>0</asrwt>
<pdfrwt beam="1">  1       21 0.14887508E-01 0.45282674E+03</pdfrwt>
<pdfrwt beam="2">  1       21 0.74467076E-01 0.45282674E+03</pdfrwt>
<totfact> 0.59222379E+04</totfact>
</mgrwt>
</event>
<event>
 7    0  0.4788920E-002  0.4555796E+03  0.7546771E-02  0.1026071E+00
         21   -1    0    0  502  501  0.00000000000E+00  0.00000000000E+00  0.30877206562E+03  0.30877206562E+03  0.00000000000E+00 0. -1.
         21   -1    0    0  501  502 -0.00000000000E+00 -0.00000000000E+00 -0.16804691392E+03  0.16804691392E+03  0.00000000000E+00 0. -1.
      99926    2    1    2    0    0  0.14210854715E-13  0.00000000000E+00  0.14072515169E+03  0.47681897954E+03  0.45557959890E+03 0.  0.
      99925    2    3    3    0    0  0.10004551427E+03  0.29187931546E+02  0.38702598399E+02  0.28468061857E+03  0.26207655980E+03 0.  0.
         25    1    3    3    0    0 -0.10004551427E+03 -0.29187931546E+02  0.10202255329E+03  0.19213836097E+03  0.12509000000E+03 0.  0.
         25    1    4    4    0    0  0.48709471826E+02 -0.17784349311E+02  0.41125521314E+02  0.14151930020E+03  0.12509000000E+03 0.  0.
         25    1    4    4    0    0  0.51336042446E+02  0.46972280858E+02 -0.24229229156E+01  0.14316131837E+03  0.12509000000E+03 0.  0.
<mgrwt>
<rscale>  2 0.45557960E+03</rscale>
<asrwt>0</asrwt>
<pdfrwt beam="1">  1       21 0.45407657E-01 0.45557960E+03</pdfrwt>
<pdfrwt beam="2">  1       21 0.24712781E-01 0.45557960E+03</pdfrwt>
<totfact> 0.66625391E+04</totfact>
</mgrwt>
</event>
<event>
 7    0  0.4788920E-002  0.4564967E+03  0.7546771E-02  0.1025802E+00
         21   -1    0    0  502  501  0.00000000000E+00  0.00000000000E+00  0.49198014580E+02  0.49198014580E+02  0.00000000000E+00 0. -1.
         21   -1    0    0  501  502 -0.00000000000E+00 -0.00000000000E+00 -0.10589311246E+04  0.10589311246E+04  0.00000000000E+00 0. -1.
      99926    2    1    2    0    0  0.00000000000E+00  0.00000000000E+00 -0.10097331100E+04  0.11081291392E+04  0.45649669838E+03 0.  0.
      99925    2    3    3    0    0  0.38408616691E+02  0.10797250041E+03 -0.63389469169E+03  0.69577576224E+03  0.26296035536E+03 0.  0.
         25    1    4    4    0    0 -0.20783302127E+02  0.60848222636E+02 -0.30826290013E+03  0.33883325625E+03  0.12509000000E+03 0.  0.
         25    1    4    4    0    0  0.59191918818E+02  0.47124277771E+02 -0.32563179156E+03  0.35694250599E+03  0.12509000000E+03 0.  0.
         25    1    3    3    0    0 -0.38408616691E+02 -0.10797250041E+03 -0.37583841834E+03  0.41235337695E+03  0.12509000000E+03 0.  0.
<mgrwt>
<rscale>  2 0.45649670E+03</rscale>
<asrwt>0</asrwt>
<pdfrwt beam="1">  1       21 0.72350021E-02 0.45649670E+03</pdfrwt>
<pdfrwt beam="2">  1       21 0.15572517E+00 0.45649670E+03</pdfrwt>
<totfact> 0.34803439E+04</totfact>
</mgrwt>
</event>
<event>
 7    0  0.4788920E-002  0.4386672E+03  0.7546771E-02  0.1031157E+00
         21   -1    0    0  502  501  0.00000000000E+00  0.00000000000E+00  0.37747031519E+03  0.37747031519E+03  0.00000000000E+00 0.  1.
         21   -1    0    0  501  502 -0.00000000000E+00 -0.00000000000E+00 -0.12744641576E+03  0.12744641576E+03  0.00000000000E+00 0.  1.
      99926    2    1    2    0    0  0.00000000000E+00  0.00000000000E+00  0.25002389943E+03  0.50491673095E+03  0.43866724850E+03 0.  0.
      99925    2    3    3    0    0  0.96222897214E+02 -0.83781453390E+01  0.17074587960E+03  0.32810736526E+03  0.26300427462E+03 0.  0.
         25    1    4    4    0    0  0.25352528247E+02 -0.88920491293E+01  0.12065127461E+03  0.17585806035E+03  0.12509000000E+03 0.  0.
         25    1    4    4    0    0  0.70870368967E+02  0.51390379038E+00  0.50094604993E+02  0.15224930490E+03  0.12509000000E+03 0.  0.
         25    1    3    3    0    0 -0.96222897214E+02  0.83781453390E+01  0.79278019830E+02  0.17680936569E+03  0.12509000000E+03 0.  0.
<mgrwt>
<rscale>  2 0.43866725E+03</rscale>
<asrwt>0</asrwt>
<pdfrwt beam="1">  1       21 0.55510340E-01 0.43866725E+03</pdfrwt>
<pdfrwt beam="2">  1       21 0.18742120E-01 0.43866725E+03</pdfrwt>
<totfact> 0.74070868E+04</totfact>
</mgrwt>
</event>
<event>
 7    0  0.4788920E-002  0.4453742E+03  0.7546771E-02  0.1029111E+00
         21   -1    0    0  502  501  0.00000000000E+00  0.00000000000E+00  0.12522464761E+04  0.12522464761E+04  0.00000000000E+00 0. -1.
         21   -1    0    0  501  502 -0.00000000000E+00 -0.00000000000E+00 -0.39600473020E+02  0.39600473020E+02  0.00000000000E+00 0. -1.
      99926    2    1    2    0    0  0.00000000000E+00 -0.71054273576E-14  0.12126460030E+04  0.12918469491E+04  0.44537423719E+03 0.  0.
      99925    2    3    3    0    0 -0.94787048492E+02  0.35660532759E+02  0.83755777225E+03  0.88368650619E+03  0.26294973134E+03 0.  0.
         25    1    4    4    0    0 -0.26401269552E+02  0.45563226053E+02  0.34236648178E+03  0.36828704912E+03  0.12509000000E+03 0.  0.
         25    1    3    3    0    0  0.94787048492E+02 -0.35660532759E+02  0.37508823078E+03  0.40816044288E+03  0.12509000000E+03 0.  0.
         25    1    4    4    0    0 -0.68385778940E+02 -0.99026932941E+01  0.49519129047E+03  0.51539945708E+03  0.12509000000E+03 0.  0.
<mgrwt>
<rscale>  2 0.44537424E+03</rscale>
<asrwt>0</asrwt>
<pdfrwt beam="1">  1       21 0.18415387E+00 0.44537424E+03</pdfrwt>
<pdfrwt beam="2">  1       21 0.58235998E-02 0.44537424E+03</pdfrwt>
<totfact> 0.31656893E+04</totfact>
</mgrwt>
</event>
<event>
 7    0  0.4788920E-002  0.4499369E+03  0.7546771E-02  0.1027741E+00
         21   -1    0    0  502  501  0.00000000000E+00  0.00000000000E+00  0.50001190378E+03  0.50001190378E+03  0.00000000000E+00 0. -1.
         21   -1    0    0  501  502 -0.00000000000E+00 -0.00000000000E+00 -0.10121920122E+03  0.10121920122E+03  0.00000000000E+00 0. -1.
      99926    2    1    2    0    0  0.35527136788E-14  0.71054273576E-14  0.39879270256E+03  0.60123110500E+03  0.44993690892E+03 0.  0.
      99925    2    3    3    0    0  0.25070029132E+02  0.37804892416E+02  0.11940904683E+03  0.29177924859E+03  0.26233355331E+03 0.  0.
         25    1    4    4    0    0  0.17165360494E+02  0.48477165892E+02  0.90418042729E+02  0.16268870817E+03  0.12509000000E+03 0.  0.
         25    1    4    4    0    0  0.79046686387E+01 -0.10672273477E+02  0.28991004105E+02  0.12909054042E+03  0.12509000000E+03 0.  0.
         25    1    3    3    0    0 -0.25070029132E+02 -0.37804892416E+02  0.27938365572E+03  0.30945185641E+03  0.12509000000E+03 0.  0.
<mgrwt>
<rscale>  2 0.44993691E+03</rscale>
<asrwt>0</asrwt>
<pdfrwt beam="1">  1       21 0.73531161E-01 0.44993691E+03</pdfrwt>
<pdfrwt beam="2">  1       21 0.14885177E-01 0.44993691E+03</pdfrwt>
<totfact> 0.61006581E+04</totfact>
</mgrwt>
</event>
<event>
 7    0  0.4788920E-002  0.4527131E+03  0.7546771E-02  0.1026916E+00
         21   -1    0    0  502  501  0.00000000000E+00  0.00000000000E+00  0.11883654485E+03  0.11883654485E+03  0.00000000000E+00 0.  1.
         21   -1    0    0  501  502 -0.00000000000E+00 -0.00000000000E+00 -0.43115776026E+03  0.43115776026E+03  0.00000000000E+00 0.  1.
      99926    2    1    2    0    0  0.14210854715E-13 -0.14210854715E-13 -0.31232121540E+03  0.54999430511E+03  0.45271314766E+03 0.  0.
      99925    2    3    3    0    0 -0.92095441242E+02  0.59219708857E+02 -0.21930525258E+03  0.35950015387E+03  0.26297722831E+03 0.  0.
         25    1    3    3    0    0  0.92095441242E+02 -0.59219708857E+02 -0.93015962825E+02  0.19049415124E+03  0.12509000000E+03 0.  0.
         25    1    4    4    0    0 -0.53755535759E+02  0.55596654330E+02 -0.15502236280E+03  0.21368220952E+03  0.12509000000E+03 0.  0.
         25    1    4    4    0    0 -0.38339905483E+02  0.36230545274E+01 -0.64282889776E+02  0.14581794435E+03  0.12509000000E+03 0.  0.
<mgrwt>
<rscale>  2 0.45271315E+03</rscale>
<asrwt>0</asrwt>
<pdfrwt beam="1">  1       21 0.17475963E-01 0.45271315E+03</pdfrwt>
<pdfrwt beam="2">  1       21 0.63405553E-01 0.45271315E+03</pdfrwt>
<totfact> 0.62999033E+04</totfact>
</mgrwt>
</event>
<event>
 7    0  0.4788920E-002  0.4529092E+03  0.7546771E-02  0.1026858E+00
         21   -1    0    0  502  501  0.00000000000E+00  0.00000000000E+00  0.70680791759E+03  0.70680791759E+03  0.00000000000E+00 0. -1.
         21   -1    0    0  501  502 -0.00000000000E+00 -0.00000000000E+00 -0.72553923730E+02  0.72553923730E+02  0.00000000000E+00 0. -1.
      99926    2    1    2    0    0  0.14210854715E-13  0.88817841970E-15  0.63425399386E+03  0.77936184132E+03  0.45290920832E+03 0.  0.
      99925    2    3    3    0    0  0.10193198569E+03 -0.17952969192E+01  0.32335629221E+03  0.42907875325E+03  0.26297515469E+03 0.  0.
         25    1    3    3    0    0 -0.10193198569E+03  0.17952969192E+01  0.31089770165E+03  0.35028308807E+03  0.12509000000E+03 0.  0.
         25    1    4    4    0    0  0.80467148873E+02 -0.93970462370E+01  0.13056623256E+03  0.19813711341E+03  0.12509000000E+03 0.  0.
         25    1    4    4    0    0  0.21464836813E+02  0.76017493178E+01  0.19279005966E+03  0.23094163985E+03  0.12509000000E+03 0.  0.
<mgrwt>
<rscale>  2 0.45290921E+03</rscale>
<asrwt>0</asrwt>
<pdfrwt beam="1">  1       21 0.10394234E+00 0.45290921E+03</pdfrwt>
<pdfrwt beam="2">  1       21 0.10669695E-01 0.45290921E+03</pdfrwt>
<totfact> 0.49588097E+04</totfact>
</mgrwt>
</event>
<event>
 7    0  0.4788920E-002  0.4601206E+03  0.7546771E-02  0.1024746E+00
         21   -1    0    0  502  501  0.00000000000E+00  0.00000000000E+00  0.12332605997E+03  0.12332605997E+03  0.00000000000E+00 0.  1.
         21   -1    0    0  501  502 -0.00000000000E+00 -0.00000000000E+00 -0.42916919081E+03  0.42916919081E+03  0.00000000000E+00 0.  1.
      99926    2    1    2    0    0  0.00000000000E+00  0.00000000000E+00 -0.30584313084E+03  0.55249525078E+03  0.46012061620E+03 0.  0.
      99925    2    3    3    0    0 -0.36305907446E+02  0.12000277934E+02 -0.57611416358E+02  0.27190904698E+03  0.26297020544E+03 0.  0.
         25    1    4    4    0    0 -0.16556650206E+02 -0.33072621450E+02 -0.17377893249E+02  0.13159566949E+03  0.12509000000E+03 0.  0.
         25    1    4    4    0    0 -0.19749257240E+02  0.45072899384E+02 -0.40233523109E+02  0.14031337749E+03  0.12509000000E+03 0.  0.
         25    1    3    3    0    0  0.36305907446E+02 -0.12000277934E+02 -0.24823171448E+03  0.28058620380E+03  0.12509000000E+03 0.  0.
<mgrwt>
<rscale>  2 0.46012062E+03</rscale>
<asrwt>0</asrwt>
<pdfrwt beam="1">  1       21 0.18136185E-01 0.46012062E+03</pdfrwt>
<pdfrwt beam="2">  1       21 0.63113116E-01 0.46012062E+03</pdfrwt>
<totfact> 0.59264283E+04</totfact>
</mgrwt>
</event>
<event>
 7    0  0.4788920E-002  0.4554665E+03  0.7546771E-02  0.1026104E+00
         21   -1    0    0  502  501  0.00000000000E+00  0.00000000000E+00  0.27838908645E+03  0.27838908645E+03  0.00000000000E+00 0.  1.
         21   -1    0    0  501  502 -0.00000000000E+00 -0.00000000000E+00 -0.18629474772E+03  0.18629474772E+03  0.00000000000E+00 0.  1.
      99926    2    1    2    0    0  0.35527136788E-14  0.14210854715E-13  0.92094338729E+02  0.46468383417E+03  0.45546646256E+03 0.  0.
      99925    2    3    3    0    0 -0.79263250465E+01 -0.76356843156E+02 -0.27449437722E+02  0.27539195185E+03  0.26304764091E+03 0.  0.
         25    1    3    3    0    0  0.79263250465E+01  0.76356843156E+02  0.11954377645E+03  0.18929188232E+03  0.12509000000E+03 0.  0.
         25    1    4    4    0    0  0.34585494587E+02 -0.37138684321E+02 -0.26528702859E+02  0.13757441072E+03  0.12509000000E+03 0.  0.
         25    1    4    4    0    0 -0.42511819633E+02 -0.39218158835E+02 -0.92073486288E+00  0.13781754113E+03  0.12509000000E+03 0.  0.
<mgrwt>
<rscale>  2 0.45546646E+03</rscale>
<asrwt>0</asrwt>
<pdfrwt beam="1">  1       21 0.40939572E-01 0.45546646E+03</pdfrwt>
<pdfrwt beam="2">  1       21 0.27396286E-01 0.45546646E+03</pdfrwt>
<totfact> 0.67582782E+04</totfact>
</mgrwt>
</event>
<event>
 7    0  0.4788920E-002  0.4610232E+03  0.7546771E-02  0.1024485E+00
         21   -1    0    0  502  501  0.00000000000E+00  0.00000000000E+00  0.77224804870E+02  0.77224804870E+02  0.00000000000E+00 0.  1.
         21   -1    0    0  501  502 -0.00000000000E+00 -0.00000000000E+00 -0.68806378075E+03  0.68806378075E+03  0.00000000000E+00 0.  1.
      99926    2    1    2    0    0  0.00000000000E+00  0.00000000000E+00 -0.61083897588E+03  0.76528858562E+03  0.46102317168E+03 0.  0.
      99925    2    3    3    0    0  0.11508401643E+03  0.27496979253E+02 -0.39757128945E+03  0.49118818634E+03  0.26306366056E+03 0.  0.
         25    1    3    3    0    0 -0.11508401643E+03 -0.27496979253E+02 -0.21326768643E+03  0.27410039927E+03  0.12509000000E+03 0.  0.
         25    1    4    4    0    0  0.42180099338E+02 -0.81151875790E+00 -0.12794019025E+03  0.18383693786E+03  0.12509000000E+03 0.  0.
         25    1    4    4    0    0  0.72903917092E+02  0.28308498010E+02 -0.26963109920E+03  0.30735124848E+03  0.12509000000E+03 0.  0.
<mgrwt>
<rscale>  2 0.46102317E+03</rscale>
<asrwt>0</asrwt>
<pdfrwt beam="1">  1       21 0.11356590E-01 0.46102317E+03</pdfrwt>
<pdfrwt beam="2">  1       21 0.10118584E+00 0.46102317E+03</pdfrwt>
<totfact> 0.47216821E+04</totfact>
</mgrwt>
</event>
<event>
 7    0  0.4788920E-002  0.4991940E+03  0.7546771E-02  0.1013989E+00
         21   -1    0    0  502  501  0.00000000000E+00  0.00000000000E+00  0.23779314507E+03  0.23779314507E+03  0.00000000000E+00 0.  1.
         21   -1    0    0  501  502 -0.00000000000E+00 -0.00000000000E+00 -0.26198682487E+03  0.26198682487E+03  0.00000000000E+00 0.  1.
      99926    2    1    2    0    0  0.14210854715E-13  0.00000000000E+00 -0.24193679793E+02  0.49977996994E+03  0.49919403463E+03 0.  0.
      99925    2    3    3    0    0  0.80434438149E+02  0.43156127287E+02  0.10590110577E+03  0.29753182657E+03  0.26263661865E+03 0.  0.
         25    1    3    3    0    0 -0.80434438149E+02 -0.43156127287E+02 -0.13009478556E+03  0.20224814336E+03  0.12509000000E+03 0.  0.
         25    1    4    4    0    0  0.32158389808E+01  0.18348210495E+02  0.28864294423E+02  0.12972144788E+03  0.12509000000E+03 0.  0.
         25    1    4    4    0    0  0.77218599169E+02  0.24807916792E+02  0.77036811348E+02  0.16781037869E+03  0.12509000000E+03 0.  0.
<mgrwt>
<rscale>  2 0.49919403E+03</rscale>
<asrwt>0</asrwt>
<pdfrwt beam="1">  1       21 0.34969581E-01 0.49919403E+03</pdfrwt>
<pdfrwt beam="2">  1       21 0.38527474E-01 0.49919403E+03</pdfrwt>
<totfact> 0.46637709E+04</totfact>
</mgrwt>
</event>
<event>
 7    0  0.4788920E-002  0.4609861E+03  0.7546771E-02  0.1024496E+00
         21   -1    0    0  502  501  0.00000000000E+00  0.00000000000E+00  0.96917202196E+02  0.96917202196E+02  0.00000000000E+00 0. -1.
         21   -1    0    0  501  502 -0.00000000000E+00 -0.00000000000E+00 -0.54816952757E+03  0.54816952757E+03  0.00000000000E+00 0. -1.
      99926    2    1    2    0    0  0.00000000000E+00  0.44408920985E-15 -0.45125232537E+03  0.64508672977E+03  0.46098614704E+03 0.  0.
      99925    2    3    3    0    0  0.11866223487E+03 -0.25189634677E+01 -0.29003938312E+03  0.40902700849E+03  0.26285581362E+03 0.  0.
         25    1    4    4    0    0  0.31133568855E+02 -0.10125223368E+02 -0.91242821782E+02  0.15825479419E+03  0.12509000000E+03 0.  0.
         25    1    3    3    0    0 -0.11866223487E+03  0.25189634677E+01 -0.16121294225E+03  0.23605972128E+03  0.12509000000E+03 0.  0.
         25    1    4    4    0    0  0.87528666010E+02  0.76062599007E+01 -0.19879656134E+03  0.25077221430E+03  0.12509000000E+03 0.  0.
<mgrwt>
<rscale>  2 0.46098615E+03</rscale>
<asrwt>0</asrwt>
<pdfrwt beam="1">  1       21 0.14252530E-01 0.46098615E+03</pdfrwt>
<pdfrwt beam="2">  1       21 0.80613167E-01 0.46098615E+03</pdfrwt>
<totfact> 0.53417230E+04</totfact>
</mgrwt>
</event>
<event>
 7    0  0.4788920E-002  0.4606641E+03  0.7546771E-02  0.1024589E+00
         21   -1    0    0  502  501  0.00000000000E+00  0.00000000000E+00  0.11385269422E+03  0.11385269422E+03  0.00000000000E+00 0. -1.
         21   -1    0    0  501  502 -0.00000000000E+00 -0.00000000000E+00 -0.46597805357E+03  0.46597805357E+03  0.00000000000E+00 0. -1.
      99926    2    1    2    0    0  0.88817841970E-15 -0.14210854715E-13 -0.35212535935E+03  0.57983074779E+03  0.46066411558E+03 0.  0.
      99925    2    3    3    0    0  0.39912909735E+01  0.95485695273E+02 -0.30859138497E+03  0.41650235641E+03  0.26289184395E+03 0.  0.
         25    1    4    4    0    0 -0.63280711852E+01  0.38979454844E+02 -0.93309980323E+02  0.16097733664E+03  0.12509000000E+03 0.  0.
         25    1    4    4    0    0  0.10319362159E+02  0.56506240429E+02 -0.21528140464E+03  0.25552501977E+03  0.12509000000E+03 0.  0.
         25    1    3    3    0    0 -0.39912909735E+01 -0.95485695273E+02 -0.43533974388E+02  0.16332839138E+03  0.12509000000E+03 0.  0.
<mgrwt>
<rscale>  2 0.46066412E+03</rscale>
<asrwt>0</asrwt>
<pdfrwt beam="1">  1       21 0.16743043E-01 0.46066412E+03</pdfrwt>
<pdfrwt beam="2">  1       21 0.68526184E-01 0.46066412E+03</pdfrwt>
<totfact> 0.57326698E+04</totfact>
</mgrwt>
</event>
<event>
 7    0  0.4788920E-002  0.4736032E+03  0.7546771E-02  0.1020908E+00
         21   -1    0    0  502  501  0.00000000000E+00  0.00000000000E+00  0.39612710116E+02  0.39612710116E+02  0.00000000000E+00 0.  1.
         21   -1    0    0  501  502 -0.00000000000E+00 -0.00000000000E+00 -0.14155806520E+04  0.14155806520E+04  0.00000000000E+00 0.  1.
      99926    2    1    2    0    0  0.00000000000E+00  0.00000000000E+00 -0.13759679419E+04  0.14551933621E+04  0.47360315038E+03 0.  0.
      99925    2    3    3    0    0  0.17875815597E+02  0.12799573867E+03 -0.88887727917E+03  0.93595615649E+03  0.26307537997E+03 0.  0.
         25    1    4    4    0    0  0.13418392644E+02  0.65823690774E+02 -0.57670116850E+03  0.59392302311E+03  0.12509000000E+03 0.  0.
         25    1    4    4    0    0  0.44574229531E+01  0.62172047895E+02 -0.31217611067E+03  0.34203313339E+03  0.12509000000E+03 0.  0.
         25    1    3    3    0    0 -0.17875815597E+02 -0.12799573867E+03 -0.48709066269E+03  0.51923720560E+03  0.12509000000E+03 0.  0.
<mgrwt>
<rscale>  2 0.47360315E+03</rscale>
<asrwt>0</asrwt>
<pdfrwt beam="1">  1       21 0.58253976E-02 0.47360315E+03</pdfrwt>
<pdfrwt beam="2">  1       21 0.20817366E+00 0.47360315E+03</pdfrwt>
<totfact> 0.21602462E+04</totfact>
</mgrwt>
</event>
<event>
 7    0  0.4788920E-002  0.4585916E+03  0.7546771E-02  0.1025190E+00
         21   -1    0    0  502  501  0.00000000000E+00  0.00000000000E+00  0.23983922916E+03  0.23983922916E+03  0.00000000000E+00 0. -1.
         21   -1    0    0  501  502 -0.00000000000E+00 -0.00000000000E+00 -0.21921587184E+03  0.21921587184E+03  0.00000000000E+00 0. -1.
      99926    2    1    2    0    0 -0.35527136788E-14  0.00000000000E+00  0.20623357321E+02  0.45905510100E+03  0.45859160796E+03 0.  0.
      99925    2    3    3    0    0 -0.18500554811E+02 -0.30229668449E+02 -0.96711604981E+02  0.28392342237E+03  0.26458131425E+03 0.  0.
         25    1    4    4    0    0  0.24979153766E+02 -0.36137588726E+01 -0.21790278629E+02  0.12945787623E+03  0.12509000000E+03 0.  0.
         25    1    3    3    0    0  0.18500554811E+02  0.30229668449E+02  0.11733496230E+03  0.17513167863E+03  0.12509000000E+03 0.  0.
         25    1    4    4    0    0 -0.43479708577E+02 -0.26615909576E+02 -0.74921326352E+02  0.15446554614E+03  0.12509000000E+03 0.  0.
<mgrwt>
<rscale>  2 0.45859161E+03</rscale>
<asrwt>0</asrwt>
<pdfrwt beam="1">  1       21 0.35270475E-01 0.45859161E+03</pdfrwt>
<pdfrwt beam="2">  1       21 0.32237628E-01 0.45859161E+03</pdfrwt>
<totfact> 0.66328505E+04</totfact>
</mgrwt>
</event>
<event>
 7    0  0.4788920E-002  0.4633732E+03  0.7546771E-02  0.1023807E+00
         21   -1    0    0  502  501  0.00000000000E+00  0.00000000000E+00  0.37465693247E+03  0.37465693247E+03  0.00000000000E+00 0.  1.
         21   -1    0    0  501  502 -0.00000000000E+00 -0.00000000000E+00 -0.14327422037E+03  0.14327422037E+03  0.00000000000E+00 0.  1.
      99926    2    1    2    0    0  0.00000000000E+00 -0.44408920985E-15  0.23138271209E+03  0.51793115284E+03  0.46337319692E+03 0.  0.
      99925    2    3    3    0    0 -0.46726119969E+02  0.31188047218E+01  0.26905703272E+03  0.37915103984E+03  0.26300335915E+03 0.  0.
         25    1    3    3    0    0  0.46726119969E+02 -0.31188047218E+01 -0.37674320622E+02  0.13878011300E+03  0.12509000000E+03 0.  0.
         25    1    4    4    0    0 -0.17310470345E+02 -0.29724995425E+02  0.97417666547E+02  0.16223728792E+03  0.12509000000E+03 0.  0.
         25    1    4    4    0    0 -0.29415649625E+02  0.32843800147E+02  0.17163936617E+03  0.21691375192E+03  0.12509000000E+03 0.  0.
<mgrwt>
<rscale>  2 0.46337320E+03</rscale>
<asrwt>0</asrwt>
<pdfrwt beam="1">  1       21 0.55096608E-01 0.46337320E+03</pdfrwt>
<pdfrwt beam="2">  1       21 0.21069738E-01 0.46337320E+03</pdfrwt>
<totfact> 0.59945202E+04</totfact>
</mgrwt>
</event>
<event>
 6    0  0.4788920E-002  0.4549210E+03  0.7546771E-02  0.1026265E+00
         21   -1    0    0  502  501  0.00000000000E+00  0.00000000000E+00  0.26602068786E+02  0.26602068786E+02  0.00000000000E+00 0.  1.
         21   -1    0    0  501  502 -0.00000000000E+00 -0.00000000000E+00 -0.19448965528E+04  0.19448965528E+04  0.00000000000E+00 0.  1.
      99926    2    1    2    0    0  0.35527136788E-14  0.71054273576E-14 -0.19182944841E+04  0.19714986216E+04  0.45492096844E+03 0.  0.
         25    1    3    3    0    0 -0.82969468221E+01  0.46982202060E+02 -0.31571613727E+03  0.34292908023E+03  0.12509000000E+03 0.  0.
         25    1    3    3    0    0 -0.29477136663E+02 -0.39276507454E+02 -0.11378724494E+04  0.11457804174E+04  0.12509000000E+03 0.  0.
         25    1    3    3    0    0  0.37774083485E+02 -0.77056946062E+01 -0.46470589739E+03  0.48278912403E+03  0.12509000000E+03 0.  0.
<mgrwt>
<rscale>  2 0.45492097E+03</rscale>
<asrwt>0</asrwt>
<pdfrwt beam="1">  1       21 0.39120680E-02 0.45492097E+03</pdfrwt>
<pdfrwt beam="2">  1       21 0.28601427E+00 0.45492097E+03</pdfrwt>
<totfact> 0.14189489E+04</totfact>
</mgrwt>
</event>
<event>
 7    0  0.4788920E-002  0.4571304E+03  0.7546771E-02  0.1025617E+00
         21   -1    0    0  502  501  0.00000000000E+00  0.00000000000E+00  0.91046131286E+03  0.91046131286E+03  0.00000000000E+00 0.  1.
         21   -1    0    0  501  502 -0.00000000000E+00 -0.00000000000E+00 -0.57379746888E+02  0.57379746888E+02  0.00000000000E+00 0.  1.
      99926    2    1    2    0    0  0.14210854715E-13  0.00000000000E+00  0.85308156597E+03  0.96784105975E+03  0.45713035201E+03 0.  0.
      99925    2    3    3    0    0 -0.10811503135E+03  0.39267295724E+02  0.54214183634E+03  0.61349404893E+03  0.26310909683E+03 0.  0.
         25    1    4    4    0    0 -0.49247528723E+02  0.59993702047E+02  0.28780884096E+03  0.32327387832E+03  0.12509000000E+03 0.  0.
         25    1    4    4    0    0 -0.58867502627E+02 -0.20726406323E+02  0.25433299539E+03  0.29022017061E+03  0.12509000000E+03 0.  0.
         25    1    3    3    0    0  0.10811503135E+03 -0.39267295724E+02  0.31093972963E+03  0.35434701082E+03  0.12509000000E+03 0.  0.
<mgrwt>
<rscale>  2 0.45713035E+03</rscale>
<asrwt>0</asrwt>
<pdfrwt beam="1">  1       21 0.13389136E+00 0.45713035E+03</pdfrwt>
<pdfrwt beam="2">  1       21 0.84381987E-02 0.45713035E+03</pdfrwt>
<totfact> 0.39760345E+04</totfact>
</mgrwt>
</event>
<event>
 7    0  0.4788920E-002  0.4543777E+03  0.7546771E-02  0.1026425E+00
         21   -1    0    0  502  501  0.00000000000E+00  0.00000000000E+00  0.20820787500E+03  0.20820787500E+03  0.00000000000E+00 0. -1.
         21   -1    0    0  501  502 -0.00000000000E+00 -0.00000000000E+00 -0.24790014695E+03  0.24790014695E+03  0.00000000000E+00 0. -1.
      99926    2    1    2    0    0  0.00000000000E+00  0.00000000000E+00 -0.39692271954E+02  0.45610802195E+03  0.45437765266E+03 0.  0.
      99925    2    3    3    0    0 -0.67091500656E+02 -0.62534761319E+02 -0.90559697537E+02  0.29286933500E+03  0.26298198176E+03 0.  0.
         25    1    3    3    0    0  0.67091500656E+02  0.62534761319E+02  0.50867425584E+02  0.16323868696E+03  0.12509000000E+03 0.  0.
         25    1    4    4    0    0 -0.65145688669E+02 -0.99552567202E+01 -0.31417536318E+02  0.14483658922E+03  0.12509000000E+03 0.  0.
         25    1    4    4    0    0 -0.19458119877E+01 -0.52579504599E+02 -0.59142161219E+02  0.14803274578E+03  0.12509000000E+03 0.  0.
<mgrwt>
<rscale>  2 0.45437765E+03</rscale>
<asrwt>0</asrwt>
<pdfrwt beam="1">  1       21 0.30618805E-01 0.45437765E+03</pdfrwt>
<pdfrwt beam="2">  1       21 0.36455904E-01 0.45437765E+03</pdfrwt>
<totfact> 0.68805739E+04</totfact>
</mgrwt>
</event>
<event>
 7    0  0.4788920E-002  0.4573063E+03  0.7546771E-02  0.1025565E+00
         21   -1    0    0  502  501  0.00000000000E+00  0.00000000000E+00  0.30853774363E+03  0.30853774363E+03  0.00000000000E+00 0. -1.
         21   -1    0    0  501  502 -0.00000000000E+00 -0.00000000000E+00 -0.16945175247E+03  0.16945175247E+03  0.00000000000E+00 0. -1.
      99926    2    1    2    0    0  0.00000000000E+00 -0.14210854715E-13  0.13908599116E+03  0.47798949610E+03  0.45730629281E+03 0.  0.
      99925    2    3    3    0    0 -0.16684456324E+02  0.95761233220E+02  0.15199357378E+03  0.31904705790E+03  0.26313569468E+03 0.  0.
         25    1    4    4    0    0 -0.35848583729E+02  0.76596271956E+02  0.65624838852E+02  0.16463972002E+03  0.12509000000E+03 0.  0.
         25    1    3    3    0    0  0.16684456324E+02 -0.95761233220E+02 -0.12907582623E+02  0.15894243820E+03  0.12509000000E+03 0.  0.
         25    1    4    4    0    0  0.19164127405E+02  0.19164961264E+02  0.86368734931E+02  0.15440733789E+03  0.12509000000E+03 0.  0.
<mgrwt>
<rscale>  2 0.45730629E+03</rscale>
<asrwt>0</asrwt>
<pdfrwt beam="1">  1       21 0.45373198E-01 0.45730629E+03</pdfrwt>
<pdfrwt beam="2">  1       21 0.24919375E-01 0.45730629E+03</pdfrwt>
<totfact> 0.65637083E+04</totfact>
</mgrwt>
</event>
<event>
 7    0  0.4788920E-002  0.4533497E+03  0.7546771E-02  0.1026728E+00
         21   -1    0    0  502  501  0.00000000000E+00  0.00000000000E+00  0.11301468477E+03  0.11301468477E+03  0.00000000000E+00 0.  1.
         21   -1    0    0  501  502 -0.00000000000E+00 -0.00000000000E+00 -0.45464427651E+03  0.45464427651E+03  0.00000000000E+00 0.  1.
      99926    2    1    2    0    0  0.00000000000E+00  0.00000000000E+00 -0.34162959173E+03  0.56765896128E+03  0.45334966458E+03 0.  0.
      99925    2    3    3    0    0  0.75879129046E+02  0.73293146025E+02 -0.26077791570E+03  0.38513764993E+03  0.26305201121E+03 0.  0.
         25    1    3    3    0    0 -0.75879129046E+02 -0.73293146025E+02 -0.80851676032E+02  0.18252131135E+03  0.12509000000E+03 0.  0.
         25    1    4    4    0    0  0.24536195417E+00  0.49712277753E+02 -0.11028231010E+03  0.17401455911E+03  0.12509000000E+03 0.  0.
         25    1    4    4    0    0  0.75633767092E+02  0.23580868272E+02 -0.15049560560E+03  0.21112309082E+03  0.12509000000E+03 0.  0.
<mgrwt>
<rscale>  2 0.45334966E+03</rscale>
<asrwt>0</asrwt>
<pdfrwt beam="1">  1       21 0.16619807E-01 0.45334966E+03</pdfrwt>
<pdfrwt beam="2">  1       21 0.66859452E-01 0.45334966E+03</pdfrwt>
<totfact> 0.61513364E+04</totfact>
</mgrwt>
</event>
<event>
 7    0  0.4788920E-002  0.4555408E+03  0.7546771E-02  0.1026082E+00
         21   -1    0    0  502  501  0.00000000000E+00  0.00000000000E+00  0.20897883429E+03  0.20897883429E+03  0.00000000000E+00 0.  1.
         21   -1    0    0  501  502 -0.00000000000E+00 -0.00000000000E+00 -0.24825176581E+03  0.24825176581E+03  0.00000000000E+00 0.  1.
      99926    2    1    2    0    0  0.00000000000E+00  0.00000000000E+00 -0.39272931517E+02  0.45723060010E+03  0.45554084177E+03 0.  0.
      99925    2    3    3    0    0 -0.88089610017E+02 -0.27394399493E+02 -0.91378583014E+02  0.29330153150E+03  0.26299336575E+03 0.  0.
         25    1    4    4    0    0 -0.64491458153E+02 -0.23410170712E+02 -0.11871737943E+02  0.14316295097E+03  0.12509000000E+03 0.  0.
         25    1    3    3    0    0  0.88089610017E+02  0.27394399493E+02  0.52105651497E+02  0.16392906861E+03  0.12509000000E+03 0.  0.
         25    1    4    4    0    0 -0.23598151865E+02 -0.39842287816E+01 -0.79506845071E+02  0.15013858053E+03  0.12509000000E+03 0.  0.
<mgrwt>
<rscale>  2 0.45554084E+03</rscale>
<asrwt>0</asrwt>
<pdfrwt beam="1">  1       21 0.30732181E-01 0.45554084E+03</pdfrwt>
<pdfrwt beam="2">  1       21 0.36507613E-01 0.45554084E+03</pdfrwt>
<totfact> 0.68088424E+04</totfact>
</mgrwt>
</event>
<event>
 7    0  0.4788920E-002  0.4675681E+03  0.7546771E-02  0.1022609E+00
         21   -1    0    0  502  501  0.00000000000E+00  0.00000000000E+00  0.12604010485E+03  0.12604010485E+03  0.00000000000E+00 0.  1.
         21   -1    0    0  501  502 -0.00000000000E+00 -0.00000000000E+00 -0.43363162970E+03  0.43363162970E+03  0.00000000000E+00 0.  1.
      99926    2    1    2    0    0  0.00000000000E+00 -0.71054273576E-14 -0.30759152485E+03  0.55967173454E+03  0.46756807450E+03 0.  0.
      99925    2    3    3    0    0  0.53738285846E+02 -0.57303902853E+02 -0.30731382113E+03  0.41195874978E+03  0.26286248537E+03 0.  0.
         25    1    4    4    0    0 -0.10465009378E+02 -0.43031922708E+02 -0.13880069230E+03  0.19202708943E+03  0.12509000000E+03 0.  0.
         25    1    3    3    0    0 -0.53738285846E+02  0.57303902853E+02 -0.27770371792E+00  0.14771298476E+03  0.12509000000E+03 0.  0.
         25    1    4    4    0    0  0.64203295224E+02 -0.14271980145E+02 -0.16851312884E+03  0.21993166035E+03  0.12509000000E+03 0.  0.
<mgrwt>
<rscale>  2 0.46756807E+03</rscale>
<asrwt>0</asrwt>
<pdfrwt beam="1">  1       21 0.18535310E-01 0.46756807E+03</pdfrwt>
<pdfrwt beam="2">  1       21 0.63769357E-01 0.46756807E+03</pdfrwt>
<totfact> 0.55504535E+04</totfact>
</mgrwt>
</event>
<event>
 7    0  0.4788920E-002  0.4525278E+03  0.7546771E-02  0.1026971E+00
         21   -1    0    0  502  501  0.00000000000E+00  0.00000000000E+00  0.79218363662E+02  0.79218363662E+02  0.00000000000E+00 0. -1.
         21   -1    0    0  501  502 -0.00000000000E+00 -0.00000000000E+00 -0.64625616552E+03  0.64625616552E+03  0.00000000000E+00 0. -1.
      99926    2    1    2    0    0  0.00000000000E+00  0.00000000000E+00 -0.56703780186E+03  0.72547452918E+03  0.45252781545E+03 0.  0.
      99925    2    3    3    0    0  0.94477073779E+02 -0.53748056666E+02 -0.32218404432E+03  0.42981316588E+03  0.26291068462E+03 0.  0.
         25    1    4    4    0    0  0.83781605154E+02 -0.50722610128E+02 -0.18356842155E+03  0.24276946684E+03  0.12509000000E+03 0.  0.
         25    1    4    4    0    0  0.10695468625E+02 -0.30254465374E+01 -0.13861562277E+03  0.18704369904E+03  0.12509000000E+03 0.  0.
         25    1    3    3    0    0 -0.94477073779E+02  0.53748056666E+02 -0.24485375754E+03  0.29566136330E+03  0.12509000000E+03 0.  0.
<mgrwt>
<rscale>  2 0.45252782E+03</rscale>
<asrwt>0</asrwt>
<pdfrwt beam="1">  1       21 0.11649759E-01 0.45252782E+03</pdfrwt>
<pdfrwt beam="2">  1       21 0.95037671E-01 0.45252782E+03</pdfrwt>
<totfact> 0.52556006E+04</totfact>
</mgrwt>
</event>
<event>
 7    0  0.4788920E-002  0.4999214E+03  0.7546771E-02  0.1013799E+00
         21   -1    0    0  502  501  0.00000000000E+00  0.00000000000E+00  0.39162785420E+03  0.39162785420E+03  0.00000000000E+00 0.  1.
         21   -1    0    0  501  502 -0.00000000000E+00 -0.00000000000E+00 -0.15954009483E+03  0.15954009483E+03  0.00000000000E+00 0.  1.
      99926    2    1    2    0    0  0.00000000000E+00  0.00000000000E+00  0.23208775937E+03  0.55116794903E+03  0.49992137381E+03 0.  0.
      99925    2    3    3    0    0 -0.19684771147E+02 -0.75344172405E+02 -0.22703707768E+01  0.27433681676E+03  0.26304239186E+03 0.  0.
         25    1    3    3    0    0  0.19684771147E+02  0.75344172405E+02  0.23435813015E+03  0.27683113228E+03  0.12509000000E+03 0.  0.
         25    1    4    4    0    0  0.28003037259E+02 -0.50272803156E+02  0.65931232152E+01  0.13784956368E+03  0.12509000000E+03 0.  0.
         25    1    4    4    0    0 -0.47687808405E+02 -0.25071369249E+02 -0.88634939920E+01  0.13648725308E+03  0.12509000000E+03 0.  0.
<mgrwt>
<rscale>  2 0.49992137E+03</rscale>
<asrwt>0</asrwt>
<pdfrwt beam="1">  1       21 0.57592332E-01 0.49992137E+03</pdfrwt>
<pdfrwt beam="2">  1       21 0.23461779E-01 0.49992137E+03</pdfrwt>
<totfact> 0.43938930E+04</totfact>
</mgrwt>
</event>
<event>
 7    0  0.4788920E-002  0.4669669E+03  0.7546771E-02  0.1022780E+00
         21   -1    0    0  502  501  0.00000000000E+00  0.00000000000E+00  0.74737766397E+02  0.74737766397E+02  0.00000000000E+00 0. -1.
         21   -1    0    0  501  502 -0.00000000000E+00 -0.00000000000E+00 -0.72941055362E+03  0.72941055362E+03  0.00000000000E+00 0. -1.
      99926    2    1    2    0    0  0.00000000000E+00 -0.71054273576E-14 -0.65467278722E+03  0.80414832002E+03  0.46696687490E+03 0.  0.
      99925    2    3    3    0    0  0.20306138903E+02  0.45925914668E+02 -0.21248892870E+03  0.34187610394E+03  0.26307070668E+03 0.  0.
         25    1    3    3    0    0 -0.20306138903E+02 -0.45925914668E+02 -0.44218385853E+03  0.46227221608E+03  0.12509000000E+03 0.  0.
         25    1    4    4    0    0 -0.25060978687E+02  0.35167824512E+01 -0.11230545956E+03  0.17000130811E+03  0.12509000000E+03 0.  0.
         25    1    4    4    0    0  0.45367117590E+02  0.42409132217E+02 -0.10018346914E+03  0.17187479583E+03  0.12509000000E+03 0.  0.
<mgrwt>
<rscale>  2 0.46696687E+03</rscale>
<asrwt>0</asrwt>
<pdfrwt beam="1">  1       21 0.10990848E-01 0.46696687E+03</pdfrwt>
<pdfrwt beam="2">  1       21 0.10726626E+00 0.46696687E+03</pdfrwt>
<totfact> 0.43348320E+04</totfact>
</mgrwt>
</event>
<event>
 7    0  0.4788920E-002  0.4520893E+03  0.7546771E-02  0.1027101E+00
         21   -1    0    0  502  501  0.00000000000E+00  0.00000000000E+00  0.17678981400E+04  0.17678981400E+04  0.00000000000E+00 0. -1.
         21   -1    0    0  501  502 -0.00000000000E+00 -0.00000000000E+00 -0.28902225115E+02  0.28902225115E+02  0.00000000000E+00 0. -1.
      99926    2    1    2    0    0  0.00000000000E+00  0.00000000000E+00  0.17389959149E+04  0.17968003651E+04  0.45208932755E+03 0.  0.
      99925    2    3    3    0    0 -0.56434297765E+02 -0.61314173585E+02  0.80950827218E+03  0.85523834172E+03  0.26302988534E+03 0.  0.
         25    1    4    4    0    0 -0.58412798429E+01 -0.45856817515E+02  0.30730148406E+03  0.33499056474E+03  0.12509000000E+03 0.  0.
         25    1    3    3    0    0  0.56434297765E+02  0.61314173585E+02  0.92948764270E+03  0.94156202338E+03  0.12509000000E+03 0.  0.
         25    1    4    4    0    0 -0.50593017922E+02 -0.15457356070E+02  0.50220678812E+03  0.52024777698E+03  0.12509000000E+03 0.  0.
<mgrwt>
<rscale>  2 0.45208933E+03</rscale>
<asrwt>0</asrwt>
<pdfrwt beam="1">  1       21 0.25998495E+00 0.45208933E+03</pdfrwt>
<pdfrwt beam="2">  1       21 0.42503284E-02 0.45208933E+03</pdfrwt>
<totfact> 0.17718025E+04</totfact>
</mgrwt>
</event>
<event>
 7    0  0.4788920E-002  0.4572533E+03  0.7546771E-02  0.1025581E+00
         21   -1    0    0  502  501  0.00000000000E+00  0.00000000000E+00  0.71846145659E+02  0.71846145659E+02  0.00000000000E+00 0.  1.
         21   -1    0    0  501  502 -0.00000000000E+00 -0.00000000000E+00 -0.72752892200E+03  0.72752892200E+03  0.00000000000E+00 0.  1.
      99926    2    1    2    0    0  0.71054273576E-14  0.71054273576E-14 -0.65568277634E+03  0.79937506766E+03  0.45725331667E+03 0.  0.
      99925    2    3    3    0    0  0.32529193305E+02 -0.45373360079E+02 -0.23510493153E+03  0.35705151881E+03  0.26285845627E+03 0.  0.
         25    1    4    4    0    0 -0.17298793622E+02 -0.43689668489E+02 -0.10691411884E+03  0.17113203178E+03  0.12509000000E+03 0.  0.
         25    1    4    4    0    0  0.49827986927E+02 -0.16836915895E+01 -0.12819081269E+03  0.18591948703E+03  0.12509000000E+03 0.  0.
         25    1    3    3    0    0 -0.32529193305E+02  0.45373360079E+02 -0.42057784481E+03  0.44232354885E+03  0.12509000000E+03 0.  0.
<mgrwt>
<rscale>  2 0.45725332E+03</rscale>
<asrwt>0</asrwt>
<pdfrwt beam="1">  1       21 0.10565610E-01 0.45725332E+03</pdfrwt>
<pdfrwt beam="2">  1       21 0.10698955E+00 0.45725332E+03</pdfrwt>
<totfact> 0.46959119E+04</totfact>
</mgrwt>
</event>
<event>
 7    0  0.4788920E-002  0.4456858E+03  0.7546771E-02  0.1029016E+00
         21   -1    0    0  502  501  0.00000000000E+00  0.00000000000E+00  0.19045390061E+04  0.19045390061E+04  0.00000000000E+00 0.  1.
         21   -1    0    0  501  502 -0.00000000000E+00 -0.00000000000E+00 -0.26074001150E+02  0.26074001150E+02  0.00000000000E+00 0.  1.
      99926    2    1    2    0    0  0.00000000000E+00  0.00000000000E+00  0.18784650049E+04  0.19306130072E+04  0.44568577377E+03 0.  0.
      99925    2    3    3    0    0  0.10035434399E+03 -0.26009368219E+02  0.12361499523E+04  0.12680697132E+04  0.26303347933E+03 0.  0.
         25    1    4    4    0    0  0.83175283228E+02 -0.28730915034E+02  0.57672165070E+03  0.59665648719E+03  0.12509000000E+03 0.  0.
         25    1    3    3    0    0 -0.10035434399E+03  0.26009368219E+02  0.64231505260E+03  0.66254329405E+03  0.12509000000E+03 0.  0.
         25    1    4    4    0    0  0.17179060766E+02  0.27215468149E+01  0.65942830162E+03  0.67141322598E+03  0.12509000000E+03 0.  0.
<mgrwt>
<rscale>  2 0.44568577E+03</rscale>
<asrwt>0</asrwt>
<pdfrwt beam="1">  1       21 0.28007917E+00 0.44568577E+03</pdfrwt>
<pdfrwt beam="2">  1       21 0.38344132E-02 0.44568577E+03</pdfrwt>
<totfact> 0.16001827E+04</totfact>
</mgrwt>
</event>
<event>
 7    0  0.4788920E-002  0.4547207E+03  0.7546771E-02  0.1026324E+00
         21   -1    0    0  502  501  0.00000000000E+00  0.00000000000E+00  0.10459324688E+04  0.10459324688E+04  0.00000000000E+00 0. -1.
         21   -1    0    0  501  502 -0.00000000000E+00 -0.00000000000E+00 -0.49422623510E+02  0.49422623510E+02  0.00000000000E+00 0. -1.
      99926    2    1    2    0    0 -0.14210854715E-13  0.00000000000E+00  0.99650984529E+03  0.10953550923E+04  0.45472069063E+03 0.  0.
      99925    2    3    3    0    0 -0.94973928843E+02  0.61427852334E+01  0.77568734613E+03  0.82430553004E+03  0.26216591491E+03 0.  0.
         25    1    3    3    0    0  0.94973928843E+02 -0.61427852334E+01  0.22082249916E+03  0.27104956227E+03  0.12509000000E+03 0.  0.
         25    1    4    4    0    0 -0.78354062245E+02  0.17227268775E+02  0.48397737898E+03  0.50627833187E+03  0.12509000000E+03 0.  0.
         25    1    4    4    0    0 -0.16619866598E+02 -0.11084483541E+02  0.29170996715E+03  0.31802719817E+03  0.12509000000E+03 0.  0.
<mgrwt>
<rscale>  2 0.45472069E+03</rscale>
<asrwt>0</asrwt>
<pdfrwt beam="1">  1       21 0.15381358E+00 0.45472069E+03</pdfrwt>
<pdfrwt beam="2">  1       21 0.72680335E-02 0.45472069E+03</pdfrwt>
<totfact> 0.35733544E+04</totfact>
</mgrwt>
</event>
<event>
 7    0  0.4788920E-002  0.4742181E+03  0.7546771E-02  0.1020736E+00
         21   -1    0    0  502  501  0.00000000000E+00  0.00000000000E+00  0.13279579795E+03  0.13279579795E+03  0.00000000000E+00 0. -1.
         21   -1    0    0  501  502 -0.00000000000E+00 -0.00000000000E+00 -0.42336205466E+03  0.42336205466E+03  0.00000000000E+00 0. -1.
      99926    2    1    2    0    0  0.00000000000E+00  0.00000000000E+00 -0.29056625671E+03  0.55615785261E+03  0.47421810117E+03 0.  0.
      99925    2    3    3    0    0 -0.10498119849E+03 -0.75107466163E+02 -0.15812080174E+03  0.33288337992E+03  0.26295812057E+03 0.  0.
         25    1    4    4    0    0 -0.73687233359E+02 -0.63381348940E+02 -0.56136461419E+02  0.16806491054E+03  0.12509000000E+03 0.  0.
         25    1    3    3    0    0  0.10498119849E+03  0.75107466163E+02 -0.13244545497E+03  0.22327447268E+03  0.12509000000E+03 0.  0.
         25    1    4    4    0    0 -0.31293965134E+02 -0.11726117223E+02 -0.10198434032E+03  0.16481846938E+03  0.12509000000E+03 0.  0.
<mgrwt>
<rscale>  2 0.47421810E+03</rscale>
<asrwt>0</asrwt>
<pdfrwt beam="1">  1       21 0.19528794E-01 0.47421810E+03</pdfrwt>
<pdfrwt beam="2">  1       21 0.62259126E-01 0.47421810E+03</pdfrwt>
<totfact> 0.52937924E+04</totfact>
</mgrwt>
</event>
<event>
 7    0  0.4788920E-002  0.4553359E+03  0.7546771E-02  0.1026143E+00
         21   -1    0    0  502  501  0.00000000000E+00  0.00000000000E+00  0.10761551481E+04  0.10761551481E+04  0.00000000000E+00 0. -1.
         21   -1    0    0  501  502 -0.00000000000E+00 -0.00000000000E+00 -0.48164709651E+02  0.48164709651E+02  0.00000000000E+00 0. -1.
      99926    2    1    2    0    0  0.35527136788E-14  0.35527136788E-14  0.10279904385E+04  0.11243198578E+04  0.45533592104E+03 0.  0.
      99925    2    3    3    0    0 -0.24285909740E+02 -0.23106510103E+02  0.91440516690E+03  0.95206180066E+03  0.26298506954E+03 0.  0.
         25    1    3    3    0    0  0.24285909740E+02  0.23106510103E+02  0.11358527156E+03  0.17225805710E+03  0.12509000000E+03 0.  0.
         25    1    4    4    0    0  0.28292349268E+02 -0.88995907386E+01  0.45808761407E+03  0.47578506703E+03  0.12509000000E+03 0.  0.
         25    1    4    4    0    0 -0.52578259008E+02 -0.14206919364E+02  0.45631755284E+03  0.47627673364E+03  0.12509000000E+03 0.  0.
<mgrwt>
<rscale>  2 0.45533592E+03</rscale>
<asrwt>0</asrwt>
<pdfrwt beam="1">  1       21 0.15825810E+00 0.45533592E+03</pdfrwt>
<pdfrwt beam="2">  1       21 0.70830462E-02 0.45533592E+03</pdfrwt>
<totfact> 0.34560833E+04</totfact>
</mgrwt>
</event>
<event>
 7    0  0.4788920E-002  0.4509371E+03  0.7546771E-02  0.1027443E+00
         21   -1    0    0  502  501  0.00000000000E+00  0.00000000000E+00  0.15376685926E+03  0.15376685926E+03  0.00000000000E+00 0. -1.
         21   -1    0    0  501  502 -0.00000000000E+00 -0.00000000000E+00 -0.33060484374E+03  0.33060484374E+03  0.00000000000E+00 0. -1.
      99926    2    1    2    0    0  0.00000000000E+00  0.00000000000E+00 -0.17683798449E+03  0.48437170300E+03  0.45093710638E+03 0.  0.
      99925    2    3    3    0    0  0.11944847278E+02  0.97387852783E+02 -0.16406772070E+03  0.32487981925E+03  0.26268156907E+03 0.  0.
         25    1    4    4    0    0 -0.54585599055E+01  0.38465514019E+02 -0.12277149746E+03  0.17952643352E+03  0.12509000000E+03 0.  0.
         25    1    3    3    0    0 -0.11944847278E+02 -0.97387852783E+02 -0.12770263784E+02  0.15949188375E+03  0.12509000000E+03 0.  0.
         25    1    4    4    0    0  0.17403407184E+02  0.58922338764E+02 -0.41296223244E+02  0.14535338572E+03  0.12509000000E+03 0.  0.
<mgrwt>
<rscale>  2 0.45093711E+03</rscale>
<asrwt>0</asrwt>
<pdfrwt beam="1">  1       21 0.22612774E-01 0.45093711E+03</pdfrwt>
<pdfrwt beam="2">  1       21 0.48618359E-01 0.45093711E+03</pdfrwt>
<totfact> 0.68568240E+04</totfact>
</mgrwt>
</event>
<event>
 7    0  0.4788920E-002  0.4604763E+03  0.7546771E-02  0.1024643E+00
         21   -1    0    0  502  501  0.00000000000E+00  0.00000000000E+00  0.64086741565E+03  0.64086741565E+03  0.00000000000E+00 0.  1.
         21   -1    0    0  501  502 -0.00000000000E+00 -0.00000000000E+00 -0.82715391277E+02  0.82715391277E+02  0.00000000000E+00 0.  1.
      99926    2    1    2    0    0 -0.35527136788E-14  0.00000000000E+00  0.55815202437E+03  0.72358280693E+03  0.46047627102E+03 0.  0.
      99925    2    3    3    0    0 -0.22123230409E+02 -0.64262017242E+02  0.50163813972E+03  0.57041501840E+03  0.26289432442E+03 0.  0.
         25    1    4    4    0    0 -0.49364443459E+02 -0.26762499178E+02  0.22952885192E+03  0.26736507178E+03  0.12509000000E+03 0.  0.
         25    1    3    3    0    0  0.22123230409E+02  0.64262017242E+02  0.56513884653E+02  0.15316778853E+03  0.12509000000E+03 0.  0.
         25    1    4    4    0    0  0.27241213050E+02 -0.37499518064E+02  0.27210928780E+03  0.30304994662E+03  0.12509000000E+03 0.  0.
<mgrwt>
<rscale>  2 0.46047627E+03</rscale>
<asrwt>0</asrwt>
<pdfrwt beam="1">  1       21 0.94245205E-01 0.46047627E+03</pdfrwt>
<pdfrwt beam="2">  1       21 0.12164028E-01 0.46047627E+03</pdfrwt>
<totfact> 0.49475615E+04</totfact>
</mgrwt>
</event>
<event>
 7    0  0.4788920E-002  0.4525299E+03  0.7546771E-02  0.1026970E+00
         21   -1    0    0  502  501  0.00000000000E+00  0.00000000000E+00  0.21563477312E+03  0.21563477312E+03  0.00000000000E+00 0.  1.
         21   -1    0    0  501  502 -0.00000000000E+00 -0.00000000000E+00 -0.23741912565E+03  0.23741912565E+03  0.00000000000E+00 0.  1.
      99926    2    1    2    0    0  0.17763568394E-14  0.00000000000E+00 -0.21784352529E+02  0.45305389878E+03  0.45252986331E+03 0.  0.
      99925    2    3    3    0    0 -0.10304952840E+02  0.48334250609E+02 -0.11319049739E+03  0.29043476321E+03  0.26286473926E+03 0.  0.
         25    1    3    3    0    0  0.10304952840E+02 -0.48334250609E+02  0.91406144856E+02  0.16261913557E+03  0.12509000000E+03 0.  0.
         25    1    4    4    0    0  0.27466882357E+02  0.32933538075E+02 -0.80676796656E+02  0.15490416771E+03  0.12509000000E+03 0.  0.
         25    1    4    4    0    0 -0.37771835197E+02  0.15400712535E+02 -0.32513700729E+02  0.13553059550E+03  0.12509000000E+03 0.  0.
<mgrwt>
<rscale>  2 0.45252986E+03</rscale>
<asrwt>0</asrwt>
<pdfrwt beam="1">  1       21 0.31710996E-01 0.45252986E+03</pdfrwt>
<pdfrwt beam="2">  1       21 0.34914577E-01 0.45252986E+03</pdfrwt>
<totfact> 0.70059266E+04</totfact>
</mgrwt>
</event>
<event>
 7    0  0.4788920E-002  0.4552789E+03  0.7546771E-02  0.1026159E+00
         21   -1    0    0  502  501  0.00000000000E+00  0.00000000000E+00  0.15932924465E+03  0.15932924465E+03  0.00000000000E+00 0. -1.
         21   -1    0    0  501  502 -0.00000000000E+00 -0.00000000000E+00 -0.32523671595E+03  0.32523671595E+03  0.00000000000E+00 0. -1.
      99926    2    1    2    0    0 -0.35527136788E-14  0.14210854715E-13 -0.16590747130E+03  0.48456596059E+03  0.45527890477E+03 0.  0.
      99925    2    3    3    0    0  0.22834994043E+02 -0.97979615611E+02 -0.48575373074E+02  0.28572991909E+03  0.26298398766E+03 0.  0.
         25    1    4    4    0    0  0.26463107695E+01 -0.88071516653E+02 -0.12002102221E+02  0.15347688283E+03  0.12509000000E+03 0.  0.
         25    1    4    4    0    0  0.20188683273E+02 -0.99080989584E+01 -0.36573270854E+02  0.13225303625E+03  0.12509000000E+03 0.  0.
         25    1    3    3    0    0 -0.22834994043E+02  0.97979615611E+02 -0.11733209823E+03  0.19883604151E+03  0.12509000000E+03 0.  0.
<mgrwt>
<rscale>  2 0.45527890E+03</rscale>
<asrwt>0</asrwt>
<pdfrwt beam="1">  1       21 0.23430772E-01 0.45527890E+03</pdfrwt>
<pdfrwt beam="2">  1       21 0.47828928E-01 0.45527890E+03</pdfrwt>
<totfact> 0.66222468E+04</totfact>
</mgrwt>
</event>
<event>
 7    0  0.4788920E-002  0.4612171E+03  0.7546771E-02  0.1024429E+00
         21   -1    0    0  502  501  0.00000000000E+00  0.00000000000E+00  0.31299365060E+03  0.31299365060E+03  0.00000000000E+00 0.  1.
         21   -1    0    0  501  502 -0.00000000000E+00 -0.00000000000E+00 -0.16990854106E+03  0.16990854106E+03  0.00000000000E+00 0.  1.
      99926    2    1    2    0    0  0.00000000000E+00  0.00000000000E+00  0.14308510955E+03  0.48290219166E+03  0.46121706184E+03 0.  0.
      99925    2    3    3    0    0 -0.10458734264E+03 -0.42206697751E+02  0.12903058796E+03  0.31389049013E+03  0.26297990340E+03 0.  0.
         25    1    3    3    0    0  0.10458734264E+03  0.42206697751E+02  0.14054521591E+02  0.16901170152E+03  0.12509000000E+03 0.  0.
         25    1    4    4    0    0 -0.48926540936E+02 -0.44660313085E+02  0.29462691046E+02  0.14458183923E+03  0.12509000000E+03 0.  0.
         25    1    4    4    0    0 -0.55660801702E+02  0.24536153338E+01  0.99567896910E+02  0.16930865090E+03  0.12509000000E+03 0.  0.
<mgrwt>
<rscale>  2 0.46121706E+03</rscale>
<asrwt>0</asrwt>
<pdfrwt beam="1">  1       21 0.46028478E-01 0.46121706E+03</pdfrwt>
<pdfrwt beam="2">  1       21 0.24986550E-01 0.46121706E+03</pdfrwt>
<totfact> 0.63307309E+04</totfact>
</mgrwt>
</event>
<event>
 7    0  0.4788920E-002  0.4421171E+03  0.7546771E-02  0.1030099E+00
         21   -1    0    0  502  501  0.00000000000E+00  0.00000000000E+00  0.61203180696E+02  0.61203180696E+02  0.00000000000E+00 0. -1.
         21   -1    0    0  501  502 -0.00000000000E+00 -0.00000000000E+00 -0.79843703823E+03  0.79843703823E+03  0.00000000000E+00 0. -1.
      99926    2    1    2    0    0 -0.17763568394E-14 -0.71054273576E-14 -0.73723385754E+03  0.85964021893E+03  0.44211711718E+03 0.  0.
      99925    2    3    3    0    0  0.11489542091E+02  0.54332348244E+02 -0.63264072942E+03  0.68738678880E+03  0.26302526732E+03 0.  0.
         25    1    4    4    0    0  0.85074327028E+01  0.62188253440E+02 -0.38843531187E+03  0.41287922554E+03  0.12509000000E+03 0.  0.
         25    1    4    4    0    0  0.29821093879E+01 -0.78559051966E+01 -0.24420541755E+03  0.27450756326E+03  0.12509000000E+03 0.  0.
         25    1    3    3    0    0 -0.11489542091E+02 -0.54332348244E+02 -0.10459312812E+03  0.17225343013E+03  0.12509000000E+03 0.  0.
<mgrwt>
<rscale>  2 0.44211712E+03</rscale>
<asrwt>0</asrwt>
<pdfrwt beam="1">  1       21 0.90004684E-02 0.44211712E+03</pdfrwt>
<pdfrwt beam="2">  1       21 0.11741720E+00 0.44211712E+03</pdfrwt>
<totfact> 0.49861615E+04</totfact>
</mgrwt>
</event>
<event>
 7    0  0.4788920E-002  0.4540841E+03  0.7546771E-02  0.1026511E+00
         21   -1    0    0  502  501  0.00000000000E+00  0.00000000000E+00  0.27517348936E+03  0.27517348936E+03  0.00000000000E+00 0.  1.
         21   -1    0    0  501  502 -0.00000000000E+00 -0.00000000000E+00 -0.18732941226E+03  0.18732941226E+03  0.00000000000E+00 0.  1.
      99926    2    1    2    0    0  0.00000000000E+00  0.00000000000E+00  0.87844077102E+02  0.46250290162E+03  0.45408408046E+03 0.  0.
      99925    2    3    3    0    0  0.33122630989E+02  0.96568493269E+02  0.97045698473E+01  0.28312655628E+03  0.26390128006E+03 0.  0.
         25    1    4    4    0    0  0.13484693635E+02  0.23187612990E+02  0.39262609801E+02  0.13382287916E+03  0.12509000000E+03 0.  0.
         25    1    3    3    0    0 -0.33122630989E+02 -0.96568493269E+02  0.78139507255E+02  0.17937634535E+03  0.12509000000E+03 0.  0.
         25    1    4    4    0    0  0.19637937354E+02  0.73380880279E+02 -0.29558039954E+02  0.14930367711E+03  0.12509000000E+03 0.  0.
<mgrwt>
<rscale>  2 0.45408408E+03</rscale>
<asrwt>0</asrwt>
<pdfrwt beam="1">  1       21 0.40466690E-01 0.45408408E+03</pdfrwt>
<pdfrwt beam="2">  1       21 0.27548443E-01 0.45408408E+03</pdfrwt>
<totfact> 0.68493293E+04</totfact>
</mgrwt>
</event>
<event>
 7    0  0.4788920E-002  0.4555409E+03  0.7546771E-02  0.1026082E+00
         21   -1    0    0  502  501  0.00000000000E+00  0.00000000000E+00  0.83590005797E+03  0.83590005797E+03  0.00000000000E+00 0.  1.
         21   -1    0    0  501  502 -0.00000000000E+00 -0.00000000000E+00 -0.62064091600E+02  0.62064091600E+02  0.00000000000E+00 0.  1.
      99926    2    1    2    0    0  0.00000000000E+00  0.71054273576E-14  0.77383596637E+03  0.89796414957E+03  0.45554089944E+03 0.  0.
      99925    2    3    3    0    0  0.39169738285E+02 -0.38964602828E+02  0.29088767936E+03  0.39602883033E+03  0.26300320108E+03 0.  0.
         25    1    4    4    0    0 -0.95224472693E+01 -0.46376609533E+02  0.15781243773E+03  0.20686647992E+03  0.12509000000E+03 0.  0.
         25    1    4    4    0    0  0.48692185554E+02  0.74120067045E+01  0.13307524163E+03  0.18916235041E+03  0.12509000000E+03 0.  0.
         25    1    3    3    0    0 -0.39169738285E+02  0.38964602828E+02  0.48294828701E+03  0.50193531924E+03  0.12509000000E+03 0.  0.
<mgrwt>
<rscale>  2 0.45554090E+03</rscale>
<asrwt>0</asrwt>
<pdfrwt beam="1">  1       21 0.12292647E+00 0.45554090E+03</pdfrwt>
<pdfrwt beam="2">  1       21 0.91270728E-02 0.45554090E+03</pdfrwt>
<totfact> 0.43138838E+04</totfact>
</mgrwt>
</event>
<event>
 7    0  0.4788920E-002  0.4586807E+03  0.7546771E-02  0.1025165E+00
         21   -1    0    0  502  501  0.00000000000E+00  0.00000000000E+00  0.20769271589E+03  0.20769271589E+03  0.00000000000E+00 0.  1.
         21   -1    0    0  501  502 -0.00000000000E+00 -0.00000000000E+00 -0.25324434381E+03  0.25324434381E+03  0.00000000000E+00 0.  1.
      99926    2    1    2    0    0  0.71054273576E-14 -0.14210854715E-13 -0.45551627927E+02  0.46093705970E+03  0.45868074104E+03 0.  0.
      99925    2    3    3    0    0 -0.31533308764E+02  0.10641991339E+03 -0.64525361866E+02  0.29263061833E+03  0.26296313226E+03 0.  0.
         25    1    4    4    0    0 -0.49789946936E+02  0.73050960195E+02 -0.19818114074E+02  0.15445305872E+03  0.12509000000E+03 0.  0.
         25    1    4    4    0    0  0.18256638172E+02  0.33368953196E+02 -0.44707247791E+02  0.13817755961E+03  0.12509000000E+03 0.  0.
         25    1    3    3    0    0  0.31533308764E+02 -0.10641991339E+03  0.18973733938E+02  0.16830644137E+03  0.12509000000E+03 0.  0.
<mgrwt>
<rscale>  2 0.45868074E+03</rscale>
<asrwt>0</asrwt>
<pdfrwt beam="1">  1       21 0.30543047E-01 0.45868074E+03</pdfrwt>
<pdfrwt beam="2">  1       21 0.37241815E-01 0.45868074E+03</pdfrwt>
<totfact> 0.66148963E+04</totfact>
</mgrwt>
</event>
<event>
 7    0  0.4788920E-002  0.4518700E+03  0.7546771E-02  0.1027166E+00
         21   -1    0    0  502  501  0.00000000000E+00  0.00000000000E+00  0.96313046584E+02  0.96313046584E+02  0.00000000000E+00 0. -1.
         21   -1    0    0  501  502 -0.00000000000E+00 -0.00000000000E+00 -0.53000744024E+03  0.53000744024E+03  0.00000000000E+00 0. -1.
      99926    2    1    2    0    0  0.00000000000E+00  0.00000000000E+00 -0.43369439366E+03  0.62632048682E+03  0.45187003123E+03 0.  0.
      99925    2    3    3    0    0 -0.74231221110E+02  0.23441511084E+02 -0.38167459663E+03  0.47007277960E+03  0.26312191429E+03 0.  0.
         25    1    4    4    0    0 -0.41490671643E+02  0.13100098778E+02 -0.26205380190E+03  0.29362014851E+03  0.12509000000E+03 0.  0.
         25    1    4    4    0    0 -0.32740549467E+02  0.10341412306E+02 -0.11962079473E+03  0.17645263110E+03  0.12509000000E+03 0.  0.
         25    1    3    3    0    0  0.74231221110E+02 -0.23441511084E+02 -0.52019797026E+02  0.15624770722E+03  0.12509000000E+03 0.  0.
<mgrwt>
<rscale>  2 0.45187003E+03</rscale>
<asrwt>0</asrwt>
<pdfrwt beam="1">  1       21 0.14163683E-01 0.45187003E+03</pdfrwt>
<pdfrwt beam="2">  1       21 0.77942272E-01 0.45187003E+03</pdfrwt>
<totfact> 0.58519422E+04</totfact>
</mgrwt>
</event>
<event>
 7    0  0.4788920E-002  0.4479974E+03  0.7546771E-02  0.1028321E+00
         21   -1    0    0  502  501  0.00000000000E+00  0.00000000000E+00  0.22197246026E+04  0.22197246026E+04  0.00000000000E+00 0.  1.
         21   -1    0    0  501  502 -0.00000000000E+00 -0.00000000000E+00 -0.22604340698E+02  0.22604340698E+02  0.00000000000E+00 0.  1.
      99926    2    1    2    0    0  0.00000000000E+00  0.00000000000E+00  0.21971202619E+04  0.22423289433E+04  0.44799737131E+03 0.  0.
      99925    2    3    3    0    0 -0.55960707577E+02 -0.79537192276E+02  0.11738215873E+04  0.12068360890E+04  0.26294193497E+03 0.  0.
         25    1    3    3    0    0  0.55960707577E+02  0.79537192276E+02  0.10232986747E+04  0.10354928544E+04  0.12509000000E+03 0.  0.
         25    1    4    4    0    0  0.69321160606E+00 -0.35407919830E+02  0.68285396455E+03  0.69511959139E+03  0.12509000000E+03 0.  0.
         25    1    4    4    0    0 -0.56653919183E+02 -0.44129272446E+02  0.49096762270E+03  0.51171649757E+03  0.12509000000E+03 0.  0.
<mgrwt>
<rscale>  2 0.44799737E+03</rscale>
<asrwt>0</asrwt>
<pdfrwt beam="1">  1       21 0.32642994E+00 0.44799737E+03</pdfrwt>
<pdfrwt beam="2">  1       21 0.33241693E-02 0.44799737E+03</pdfrwt>
<totfact> 0.10712434E+04</totfact>
</mgrwt>
</event>
<event>
 7    0  0.4788920E-002  0.4578171E+03  0.7546771E-02  0.1025416E+00
         21   -1    0    0  502  501  0.00000000000E+00  0.00000000000E+00  0.48938835140E+03  0.48938835140E+03  0.00000000000E+00 0.  1.
         21   -1    0    0  501  502 -0.00000000000E+00 -0.00000000000E+00 -0.10707065848E+03  0.10707065848E+03  0.00000000000E+00 0.  1.
      99926    2    1    2    0    0 -0.71054273576E-14  0.14210854715E-13  0.38231769292E+03  0.59645900988E+03  0.45781713832E+03 0.  0.
      99925    2    3    3    0    0  0.62936424174E+02 -0.90709173471E+02  0.28622239391E+03  0.40392080008E+03  0.26275388926E+03 0.  0.
         25    1    4    4    0    0  0.22285244946E+02 -0.62325524189E+02  0.19663461689E+03  0.24226799989E+03  0.12509000000E+03 0.  0.
         25    1    4    4    0    0  0.40651179228E+02 -0.28383649282E+02  0.89587777020E+02  0.16165280019E+03  0.12509000000E+03 0.  0.
         25    1    3    3    0    0 -0.62936424174E+02  0.90709173471E+02  0.96095299010E+02  0.19253820980E+03  0.12509000000E+03 0.  0.
<mgrwt>
<rscale>  2 0.45781714E+03</rscale>
<asrwt>0</asrwt>
<pdfrwt beam="1">  1       21 0.71968874E-01 0.45781714E+03</pdfrwt>
<pdfrwt beam="2">  1       21 0.15745685E-01 0.45781714E+03</pdfrwt>
<totfact> 0.57603661E+04</totfact>
</mgrwt>
</event>
<event>
 7    0  0.4788920E-002  0.4568303E+03  0.7546771E-02  0.1025705E+00
         21   -1    0    0  502  501  0.00000000000E+00  0.00000000000E+00  0.22327706774E+03  0.22327706774E+03  0.00000000000E+00 0.  1.
         21   -1    0    0  501  502 -0.00000000000E+00 -0.00000000000E+00 -0.23367150685E+03  0.23367150685E+03  0.00000000000E+00 0.  1.
      99926    2    1    2    0    0  0.35527136788E-14 -0.14210854715E-13 -0.10394439117E+02  0.45694857459E+03  0.45683033552E+03 0.  0.
      99925    2    3    3    0    0 -0.30684216286E+02  0.10980168618E+03 -0.20380475826E+02  0.28740459668E+03  0.26303632255E+03 0.  0.
         25    1    4    4    0    0 -0.11687542217E+02  0.18361126275E+02  0.13427689281E+02  0.12767748643E+03  0.12509000000E+03 0.  0.
         25    1    3    3    0    0  0.30684216286E+02 -0.10980168618E+03  0.99860367096E+01  0.16954397791E+03  0.12509000000E+03 0.  0.
         25    1    4    4    0    0 -0.18996674069E+02  0.91440559903E+02 -0.33808165107E+02  0.15972711025E+03  0.12509000000E+03 0.  0.
<mgrwt>
<rscale>  2 0.45683034E+03</rscale>
<asrwt>0</asrwt>
<pdfrwt beam="1">  1       21 0.32834863E-01 0.45683034E+03</pdfrwt>
<pdfrwt beam="2">  1       21 0.34363457E-01 0.45683034E+03</pdfrwt>
<totfact> 0.67413375E+04</totfact>
</mgrwt>
</event>
<event>
 7    0  0.4788920E-002  0.4564136E+03  0.7546771E-02  0.1025827E+00
         21   -1    0    0  502  501  0.00000000000E+00  0.00000000000E+00  0.29051078308E+03  0.29051078308E+03  0.00000000000E+00 0.  1.
         21   -1    0    0  501  502 -0.00000000000E+00 -0.00000000000E+00 -0.17926475020E+03  0.17926475020E+03  0.00000000000E+00 0.  1.
      99926    2    1    2    0    0  0.00000000000E+00  0.00000000000E+00  0.11124603288E+03  0.46977553327E+03  0.45641359733E+03 0.  0.
      99925    2    3    3    0    0 -0.10029064304E+03 -0.21339942927E+02  0.17576985437E+02  0.28286645165E+03  0.26304157999E+03 0.  0.
         25    1    4    4    0    0 -0.65536841107E+02 -0.65023465191E+01 -0.28679669915E+02  0.14424766764E+03  0.12509000000E+03 0.  0.
         25    1    4    4    0    0 -0.34753801931E+02 -0.14837596407E+02  0.46256655353E+02  0.13861878401E+03  0.12509000000E+03 0.  0.
         25    1    3    3    0    0  0.10029064304E+03  0.21339942927E+02  0.93669047447E+02  0.18690908163E+03  0.12509000000E+03 0.  0.
<mgrwt>
<rscale>  2 0.45641360E+03</rscale>
<asrwt>0</asrwt>
<pdfrwt beam="1">  1       21 0.42722174E-01 0.45641360E+03</pdfrwt>
<pdfrwt beam="2">  1       21 0.26362463E-01 0.45641360E+03</pdfrwt>
<totfact> 0.66701378E+04</totfact>
</mgrwt>
</event>
<event>
 7    0  0.4788920E-002  0.4533077E+03  0.7546771E-02  0.1026740E+00
         21   -1    0    0  502  501  0.00000000000E+00  0.00000000000E+00  0.17738004102E+03  0.17738004102E+03  0.00000000000E+00 0. -1.
         21   -1    0    0  501  502 -0.00000000000E+00 -0.00000000000E+00 -0.28961528714E+03  0.28961528714E+03  0.00000000000E+00 0. -1.
      99926    2    1    2    0    0  0.88817841970E-15  0.00000000000E+00 -0.11223524612E+03  0.46699532815E+03  0.45330771673E+03 0.  0.
      99925    2    3    3    0    0  0.69010372084E+01 -0.11461872735E+02 -0.18465564758E+03  0.32183603121E+03  0.26325220600E+03 0.  0.
         25    1    4    4    0    0  0.18699959113E+02 -0.32531596355E+02 -0.12640233736E+03  0.18174997172E+03  0.12509000000E+03 0.  0.
         25    1    3    3    0    0 -0.69010372084E+01  0.11461872735E+02  0.72420401457E+02  0.14515929694E+03  0.12509000000E+03 0.  0.
         25    1    4    4    0    0 -0.11798921904E+02  0.21069723620E+02 -0.58253310224E+02  0.14008605949E+03  0.12509000000E+03 0.  0.
<mgrwt>
<rscale>  2 0.45330772E+03</rscale>
<asrwt>0</asrwt>
<pdfrwt beam="1">  1       21 0.26085300E-01 0.45330772E+03</pdfrwt>
<pdfrwt beam="2">  1       21 0.42590483E-01 0.45330772E+03</pdfrwt>
<totfact> 0.68575874E+04</totfact>
</mgrwt>
</event>
<event>
 7    0  0.4788920E-002  0.4616375E+03  0.7546771E-02  0.1024307E+00
         21   -1    0    0  502  501  0.00000000000E+00  0.00000000000E+00  0.46880636591E+02  0.46880636591E+02  0.00000000000E+00 0. -1.
         21   -1    0    0  501  502 -0.00000000000E+00 -0.00000000000E+00 -0.11364455951E+04  0.11364455951E+04  0.00000000000E+00 0. -1.
      99926    2    1    2    0    0 -0.71054273576E-14 -0.14210854715E-13 -0.10895649586E+04  0.11833262317E+04  0.46163748960E+03 0.  0.
      99925    2    3    3    0    0  0.49288027852E+02  0.10500542476E+03 -0.75353619399E+03  0.80647309372E+03  0.26291939130E+03 0.  0.
         25    1    4    4    0    0  0.36134331849E+02  0.93823623524E+02 -0.39549213088E+03  0.42681388913E+03  0.12509000000E+03 0.  0.
         25    1    4    4    0    0  0.13153696003E+02  0.11181801240E+02 -0.35804406311E+03  0.37965920459E+03  0.12509000000E+03 0.  0.
         25    1    3    3    0    0 -0.49288027852E+02 -0.10500542476E+03 -0.33602876456E+03  0.37685313802E+03  0.12509000000E+03 0.  0.
<mgrwt>
<rscale>  2 0.46163749E+03</rscale>
<asrwt>0</asrwt>
<pdfrwt beam="1">  1       21 0.68942114E-02 0.46163749E+03</pdfrwt>
<pdfrwt beam="2">  1       21 0.16712435E+00 0.46163749E+03</pdfrwt>
<totfact> 0.31051770E+04</totfact>
</mgrwt>
</event>
<event>
 7    0  0.4788920E-002  0.4621843E+03  0.7546771E-02  0.1024150E+00
         21   -1    0    0  502  501  0.00000000000E+00  0.00000000000E+00  0.13654054771E+03  0.13654054771E+03  0.00000000000E+00 0. -1.
         21   -1    0    0  501  502 -0.00000000000E+00 -0.00000000000E+00 -0.39111882955E+03  0.39111882955E+03  0.00000000000E+00 0. -1.
      99926    2    1    2    0    0 -0.88817841970E-15  0.00000000000E+00 -0.25457828184E+03  0.52765937726E+03  0.46218428881E+03 0.  0.
      99925    2    3    3    0    0  0.53765340900E+01 -0.10885700264E+03 -0.10246914625E+03  0.30257394598E+03  0.26300629785E+03 0.  0.
         25    1    4    4    0    0 -0.75329259776E+01 -0.11878932298E+02 -0.43946656158E+02  0.13332918170E+03  0.12509000000E+03 0.  0.
         25    1    4    4    0    0  0.12909460068E+02 -0.96978070346E+02 -0.58522490090E+02  0.16924476427E+03  0.12509000000E+03 0.  0.
         25    1    3    3    0    0 -0.53765340900E+01  0.10885700264E+03 -0.15210913559E+03  0.22508543128E+03  0.12509000000E+03 0.  0.
<mgrwt>
<rscale>  2 0.46218429E+03</rscale>
<asrwt>0</asrwt>
<pdfrwt beam="1">  1       21 0.20079493E-01 0.46218429E+03</pdfrwt>
<pdfrwt beam="2">  1       21 0.57517474E-01 0.46218429E+03</pdfrwt>
<totfact> 0.59881358E+04</totfact>
</mgrwt>
</event>
<event>
 7    0  0.4788920E-002  0.4567806E+03  0.7546771E-02  0.1025719E+00
         21   -1    0    0  502  501  0.00000000000E+00  0.00000000000E+00  0.85218578237E+02  0.85218578237E+02  0.00000000000E+00 0.  1.
         21   -1    0    0  501  502 -0.00000000000E+00 -0.00000000000E+00 -0.61209809762E+03  0.61209809762E+03  0.00000000000E+00 0.  1.
      99926    2    1    2    0    0  0.15543122345E-14  0.00000000000E+00 -0.52687951938E+03  0.69731667585E+03  0.45678060213E+03 0.  0.
      99925    2    3    3    0    0 -0.16475954888E+01 -0.11194463319E+03 -0.29208245186E+03  0.40867938359E+03  0.26300639615E+03 0.  0.
         25    1    4    4    0    0  0.22227422256E+02 -0.19797129804E+02 -0.12689129470E+03  0.18065130340E+03  0.12509000000E+03 0.  0.
         25    1    3    3    0    0  0.16475954888E+01  0.11194463319E+03 -0.23479706752E+03  0.28863729227E+03  0.12509000000E+03 0.  0.
         25    1    4    4    0    0 -0.23875017745E+02 -0.92147503382E+02 -0.16519115716E+03  0.22802808019E+03  0.12509000000E+03 0.  0.
<mgrwt>
<rscale>  2 0.45678060E+03</rscale>
<asrwt>0</asrwt>
<pdfrwt beam="1">  1       21 0.12532143E-01 0.45678060E+03</pdfrwt>
<pdfrwt beam="2">  1       21 0.90014430E-01 0.45678060E+03</pdfrwt>
<totfact> 0.52311930E+04</totfact>
</mgrwt>
</event>
<event>
 7    0  0.4788920E-002  0.4614274E+03  0.7546771E-02  0.1024368E+00
         21   -1    0    0  502  501  0.00000000000E+00  0.00000000000E+00  0.56270694227E+03  0.56270694227E+03  0.00000000000E+00 0. -1.
         21   -1    0    0  501  502 -0.00000000000E+00 -0.00000000000E+00 -0.94594202570E+02  0.94594202570E+02  0.00000000000E+00 0. -1.
      99926    2    1    2    0    0  0.00000000000E+00  0.00000000000E+00  0.46811273970E+03  0.65730114484E+03  0.46142741351E+03 0.  0.
      99925    2    3    3    0    0  0.74441279386E+02 -0.76318828597E+02  0.36871692994E+03  0.46522537132E+03  0.26289998863E+03 0.  0.
         25    1    4    4    0    0  0.56473391136E+02 -0.12045198302E+02  0.22138486097E+03  0.26075485705E+03  0.12509000000E+03 0.  0.
         25    1    3    3    0    0 -0.74441279386E+02  0.76318828597E+02  0.99395809762E+02  0.19207577352E+03  0.12509000000E+03 0.  0.
         25    1    4    4    0    0  0.17967888249E+02 -0.64273630295E+02  0.14733206897E+03  0.20447051427E+03  0.12509000000E+03 0.  0.
<mgrwt>
<rscale>  2 0.46142741E+03</rscale>
<asrwt>0</asrwt>
<pdfrwt beam="1">  1       21 0.82751019E-01 0.46142741E+03</pdfrwt>
<pdfrwt beam="2">  1       21 0.13910912E-01 0.46142741E+03</pdfrwt>
<totfact> 0.52566768E+04</totfact>
</mgrwt>
</event>
<event>
 7    0  0.4788920E-002  0.4537879E+03  0.7546771E-02  0.1026598E+00
         21   -1    0    0  502  501  0.00000000000E+00  0.00000000000E+00  0.30434973127E+03  0.30434973127E+03  0.00000000000E+00 0. -1.
         21   -1    0    0  501  502 -0.00000000000E+00 -0.00000000000E+00 -0.16915038276E+03  0.16915038276E+03  0.00000000000E+00 0. -1.
      99926    2    1    2    0    0  0.00000000000E+00 -0.11102230246E-14  0.13519934852E+03  0.47350011403E+03  0.45378793962E+03 0.  0.
      99925    2    3    3    0    0 -0.11182252409E+03 -0.17661063235E+01  0.80245218073E+02  0.29693607302E+03  0.26310518887E+03 0.  0.
         25    1    4    4    0    0 -0.17881210409E+02 -0.19545113097E+02  0.26581659366E+02  0.13059801624E+03  0.12509000000E+03 0.  0.
         25    1    4    4    0    0 -0.93941313681E+02  0.17779006774E+02  0.53663558707E+02  0.16633805677E+03  0.12509000000E+03 0.  0.
         25    1    3    3    0    0  0.11182252409E+03  0.17661063235E+01  0.54954130442E+02  0.17656404101E+03  0.12509000000E+03 0.  0.
<mgrwt>
<rscale>  2 0.45378794E+03</rscale>
<asrwt>0</asrwt>
<pdfrwt beam="1">  1       21 0.44757314E-01 0.45378794E+03</pdfrwt>
<pdfrwt beam="2">  1       21 0.24875056E-01 0.45378794E+03</pdfrwt>
<totfact> 0.67826421E+04</totfact>
</mgrwt>
</event>
<event>
 7    0  0.4788920E-002  0.4511999E+03  0.7546771E-02  0.1027365E+00
         21   -1    0    0  502  501  0.00000000000E+00  0.00000000000E+00  0.41621845065E+03  0.41621845065E+03  0.00000000000E+00 0.  1.
         21   -1    0    0  501  502 -0.00000000000E+00 -0.00000000000E+00 -0.12228037575E+03  0.12228037575E+03  0.00000000000E+00 0.  1.
      99926    2    1    2    0    0 -0.88817841970E-15  0.00000000000E+00  0.29393807490E+03  0.53849882639E+03  0.45119994919E+03 0.  0.
      99925    2    3    3    0    0  0.44387095886E+01 -0.89827052967E+02  0.26027774201E+03  0.38079934099E+03  0.26301147032E+03 0.  0.
         25    1    4    4    0    0 -0.41148796179E+01 -0.54100154465E+02  0.79238418027E+02  0.15770223188E+03  0.12509000000E+03 0.  0.
         25    1    4    4    0    0  0.85535892065E+01 -0.35726898501E+02  0.18103932398E+03  0.22309710911E+03  0.12509000000E+03 0.  0.
         25    1    3    3    0    0 -0.44387095886E+01  0.89827052967E+02  0.33660332891E+02  0.15769948541E+03  0.12509000000E+03 0.  0.
<mgrwt>
<rscale>  2 0.45119995E+03</rscale>
<asrwt>0</asrwt>
<pdfrwt beam="1">  1       21 0.61208595E-01 0.45119995E+03</pdfrwt>
<pdfrwt beam="2">  1       21 0.17982408E-01 0.45119995E+03</pdfrwt>
<totfact> 0.64552550E+04</totfact>
</mgrwt>
</event>
<event>
 7    0  0.4788920E-002  0.4573025E+03  0.7546771E-02  0.1025566E+00
         21   -1    0    0  502  501  0.00000000000E+00  0.00000000000E+00  0.14158959459E+03  0.14158959459E+03  0.00000000000E+00 0. -1.
         21   -1    0    0  501  502 -0.00000000000E+00 -0.00000000000E+00 -0.36924604089E+03  0.36924604089E+03  0.00000000000E+00 0. -1.
      99926    2    1    2    0    0  0.00000000000E+00  0.00000000000E+00 -0.22765644630E+03  0.51083563547E+03  0.45730251358E+03 0.  0.
      99925    2    3    3    0    0 -0.67757874687E+02 -0.91725014764E+02 -0.13186379468E+03  0.31634052469E+03  0.26396715572E+03 0.  0.
         25    1    4    4    0    0 -0.12611699550E+02 -0.82365107153E+02 -0.62807550709E+02  0.16289678440E+03  0.12509000000E+03 0.  0.
         25    1    3    3    0    0  0.67757874687E+02  0.91725014764E+02 -0.95792651618E+02  0.19449511079E+03  0.12509000000E+03 0.  0.
         25    1    4    4    0    0 -0.55146175137E+02 -0.93599076108E+01 -0.69056243969E+02  0.15344374029E+03  0.12509000000E+03 0.  0.
<mgrwt>
<rscale>  2 0.45730251E+03</rscale>
<asrwt>0</asrwt>
<pdfrwt beam="1">  1       21 0.20822000E-01 0.45730251E+03</pdfrwt>
<pdfrwt beam="2">  1       21 0.54300887E-01 0.45730251E+03</pdfrwt>
<totfact> 0.63350351E+04</totfact>
</mgrwt>
</event>
<event>
 7    0  0.4788920E-002  0.4492099E+03  0.7546771E-02  0.1027958E+00
         21   -1    0    0  502  501  0.00000000000E+00  0.00000000000E+00  0.25372865581E+03  0.25372865581E+03  0.00000000000E+00 0.  1.
         21   -1    0    0  501  502 -0.00000000000E+00 -0.00000000000E+00 -0.19882413441E+03  0.19882413441E+03  0.00000000000E+00 0.  1.
      99926    2    1    2    0    0  0.00000000000E+00 -0.71054273576E-14  0.54904521402E+02  0.45255279022E+03  0.44920988576E+03 0.  0.
      99925    2    3    3    0    0  0.62151523864E+02  0.43273752690E+02  0.11169942030E+03  0.29568151104E+03  0.26308813331E+03 0.  0.
         25    1    4    4    0    0  0.35200647129E+02  0.54552396119E+02  0.32041267270E+02  0.14453096689E+03  0.12509000000E+03 0.  0.
         25    1    3    3    0    0 -0.62151523864E+02 -0.43273752690E+02 -0.56794898899E+02  0.15687127918E+03  0.12509000000E+03 0.  0.
         25    1    4    4    0    0  0.26950876736E+02 -0.11278643430E+02  0.79658153031E+02  0.15115054416E+03  0.12509000000E+03 0.  0.
<mgrwt>
<rscale>  2 0.44920989E+03</rscale>
<asrwt>0</asrwt>
<pdfrwt beam="1">  1       21 0.37313038E-01 0.44920989E+03</pdfrwt>
<pdfrwt beam="2">  1       21 0.29238843E-01 0.44920989E+03</pdfrwt>
<totfact> 0.71994079E+04</totfact>
</mgrwt>
</event>
<event>
 7    0  0.4788920E-002  0.4553245E+03  0.7546771E-02  0.1026146E+00
         21   -1    0    0  502  501  0.00000000000E+00  0.00000000000E+00  0.30601764389E+03  0.30601764389E+03  0.00000000000E+00 0.  1.
         21   -1    0    0  501  502 -0.00000000000E+00 -0.00000000000E+00 -0.16936962891E+03  0.16936962891E+03  0.00000000000E+00 0.  1.
      99926    2    1    2    0    0  0.00000000000E+00  0.00000000000E+00  0.13664801498E+03  0.47538727280E+03  0.45532447677E+03 0.  0.
      99925    2    3    3    0    0 -0.51869369387E+02  0.56497277838E+02  0.17343013196E+03  0.32411663417E+03  0.26285206484E+03 0.  0.
         25    1    4    4    0    0  0.49318795093E+01  0.32513111709E+02  0.11441451255E+03  0.17268356798E+03  0.12509000000E+03 0.  0.
         25    1    4    4    0    0 -0.56801248896E+02  0.23984166129E+02  0.59015619410E+02  0.15143306619E+03  0.12509000000E+03 0.  0.
         25    1    3    3    0    0  0.51869369387E+02 -0.56497277838E+02 -0.36782116973E+02  0.15127063863E+03  0.12509000000E+03 0.  0.
<mgrwt>
<rscale>  2 0.45532448E+03</rscale>
<asrwt>0</asrwt>
<pdfrwt beam="1">  1       21 0.45002595E-01 0.45532448E+03</pdfrwt>
<pdfrwt beam="2">  1       21 0.24907298E-01 0.45532448E+03</pdfrwt>
<totfact> 0.66865096E+04</totfact>
</mgrwt>
</event>
<event>
 7    0  0.4788920E-002  0.4493519E+03  0.7546771E-02  0.1027915E+00
         21   -1    0    0  502  501  0.00000000000E+00  0.00000000000E+00  0.10383326950E+03  0.10383326950E+03  0.00000000000E+00 0.  1.
         21   -1    0    0  501  502 -0.00000000000E+00 -0.00000000000E+00 -0.48615702881E+03  0.48615702881E+03  0.00000000000E+00 0.  1.
      99926    2    1    2    0    0  0.00000000000E+00  0.00000000000E+00 -0.38232375931E+03  0.58999029832E+03  0.44935186121E+03 0.  0.
      99925    2    3    3    0    0 -0.56587482559E+02 -0.91019018812E+02 -0.25659080912E+03  0.38276364021E+03  0.26302577054E+03 0.  0.
         25    1    3    3    0    0  0.56587482559E+02  0.91019018812E+02 -0.12573295019E+03  0.20722665811E+03  0.12509000000E+03 0.  0.
         25    1    4    4    0    0 -0.56369361911E+02 -0.16011547461E+02 -0.12190109623E+03  0.18423153904E+03  0.12509000000E+03 0.  0.
         25    1    4    4    0    0 -0.21812064829E+00 -0.75007471351E+02 -0.13468971289E+03  0.19853210117E+03  0.12509000000E+03 0.  0.
<mgrwt>
<rscale>  2 0.44935186E+03</rscale>
<asrwt>0</asrwt>
<pdfrwt beam="1">  1       21 0.15269599E-01 0.44935186E+03</pdfrwt>
<pdfrwt beam="2">  1       21 0.71493680E-01 0.44935186E+03</pdfrwt>
<totfact> 0.62021212E+04</totfact>
</mgrwt>
</event>
<event>
 7    0  0.4788920E-002  0.4466600E+03  0.7546771E-02  0.1028723E+00
         21   -1    0    0  502  501  0.00000000000E+00  0.00000000000E+00  0.70835910201E+03  0.70835910201E+03  0.00000000000E+00 0. -1.
         21   -1    0    0  501  502 -0.00000000000E+00 -0.00000000000E+00 -0.70411037193E+02  0.70411037193E+02  0.00000000000E+00 0. -1.
      99926    2    1    2    0    0  0.71054273576E-14  0.00000000000E+00  0.63794806481E+03  0.77877013920E+03  0.44666004557E+03 0.  0.
      99925    2    3    3    0    0 -0.34258777398E+02  0.86110840500E+02  0.31774133435E+03  0.42272435701E+03  0.26295928540E+03 0.  0.
         25    1    4    4    0    0 -0.15660774448E+02  0.14769245365E+01  0.13063757323E+03  0.18155198926E+03  0.12509000000E+03 0.  0.
         25    1    4    4    0    0 -0.18598002950E+02  0.84633915964E+02  0.18710376112E+03  0.24117236776E+03  0.12509000000E+03 0.  0.
         25    1    3    3    0    0  0.34258777398E+02 -0.86110840500E+02  0.32020673046E+03  0.35604578219E+03  0.12509000000E+03 0.  0.
<mgrwt>
<rscale>  2 0.44666005E+03</rscale>
<asrwt>0</asrwt>
<pdfrwt beam="1">  1       21 0.10417045E+00 0.44666005E+03</pdfrwt>
<pdfrwt beam="2">  1       21 0.10354565E-01 0.44666005E+03</pdfrwt>
<totfact> 0.52139207E+04</totfact>
</mgrwt>
</event>
<event>
 7    0  0.4788920E-002  0.4546829E+03  0.7546771E-02  0.1026335E+00
         21   -1    0    0  502  501  0.00000000000E+00  0.00000000000E+00  0.22645695140E+02  0.22645695140E+02  0.00000000000E+00 0. -1.
         21   -1    0    0  501  502 -0.00000000000E+00 -0.00000000000E+00 -0.22822936214E+04  0.22822936214E+04  0.00000000000E+00 0. -1.
      99926    2    1    2    0    0  0.00000000000E+00  0.71054273576E-14 -0.22596479263E+04  0.23049393166E+04  0.45468285902E+03 0.  0.
      99925    2    3    3    0    0  0.60299869972E+02  0.53241878734E+02 -0.18236097558E+04  0.18442359780E+04  0.26302666982E+03 0.  0.
         25    1    4    4    0    0  0.11956158053E+02  0.63043311085E+02 -0.93115176732E+03  0.94170511874E+03  0.12509000000E+03 0.  0.
         25    1    3    3    0    0 -0.60299869972E+02 -0.53241878734E+02 -0.43603817049E+03  0.46070333860E+03  0.12509000000E+03 0.  0.
         25    1    4    4    0    0  0.48343711919E+02 -0.98014323517E+01 -0.89245798847E+03  0.90253085921E+03  0.12509000000E+03 0.  0.
<mgrwt>
<rscale>  2 0.45468286E+03</rscale>
<asrwt>0</asrwt>
<pdfrwt beam="1">  1       21 0.33302478E-02 0.45468286E+03</pdfrwt>
<pdfrwt beam="2">  1       21 0.33563156E+00 0.45468286E+03</pdfrwt>
<totfact> 0.93624708E+03</totfact>
</mgrwt>
</event>
<event>
 7    0  0.4788920E-002  0.4611703E+03  0.7546771E-02  0.1024442E+00
         21   -1    0    0  502  501  0.00000000000E+00  0.00000000000E+00  0.28954874461E+03  0.28954874461E+03  0.00000000000E+00 0.  1.
         21   -1    0    0  501  502 -0.00000000000E+00 -0.00000000000E+00 -0.18362889299E+03  0.18362889299E+03  0.00000000000E+00 0.  1.
      99926    2    1    2    0    0  0.00000000000E+00  0.35527136788E-14  0.10591985162E+03  0.47317763760E+03  0.46117031751E+03 0.  0.
      99925    2    3    3    0    0  0.11685414770E+03  0.17743464336E+02  0.52807201397E+02  0.29307160196E+03  0.26293086733E+03 0.  0.
         25    1    3    3    0    0 -0.11685414770E+03 -0.17743464336E+02  0.53112650227E+02  0.18010603564E+03  0.12509000000E+03 0.  0.
         25    1    4    4    0    0  0.71401567931E+02  0.42754390157E+02  0.81085217635E+01  0.15046387608E+03  0.12509000000E+03 0.  0.
         25    1    4    4    0    0  0.45452579764E+02 -0.25010925821E+02  0.44698679634E+02  0.14260772587E+03  0.12509000000E+03 0.  0.
<mgrwt>
<rscale>  2 0.46117032E+03</rscale>
<asrwt>0</asrwt>
<pdfrwt beam="1">  1       21 0.42580698E-01 0.46117032E+03</pdfrwt>
<pdfrwt beam="2">  1       21 0.27004249E-01 0.46117032E+03</pdfrwt>
<totfact> 0.64009354E+04</totfact>
</mgrwt>
</event>
<event>
 7    0  0.4788920E-002  0.4398838E+03  0.7546771E-02  0.1030782E+00
         21   -1    0    0  502  501  0.00000000000E+00  0.00000000000E+00  0.18816363712E+03  0.18816363712E+03  0.00000000000E+00 0.  1.
         21   -1    0    0  501  502 -0.00000000000E+00 -0.00000000000E+00 -0.25708702667E+03  0.25708702667E+03  0.00000000000E+00 0.  1.
      99926    2    1    2    0    0  0.00000000000E+00  0.00000000000E+00 -0.68923389544E+02  0.44525066379E+03  0.43988375735E+03 0.  0.
      99925    2    3    3    0    0 -0.86960105232E+02 -0.44879832469E+02 -0.54588817255E+02  0.28578515866E+03  0.26290104350E+03 0.  0.
         25    1    4    4    0    0 -0.51202468566E+02  0.16742584040E+02 -0.19205238851E+02  0.13754401553E+03  0.12509000000E+03 0.  0.
         25    1    4    4    0    0 -0.35757636666E+02 -0.61622416510E+02 -0.35383578404E+02  0.14824114313E+03  0.12509000000E+03 0.  0.
         25    1    3    3    0    0  0.86960105232E+02  0.44879832469E+02 -0.14334572290E+02  0.15946550513E+03  0.12509000000E+03 0.  0.
<mgrwt>
<rscale>  2 0.43988376E+03</rscale>
<asrwt>0</asrwt>
<pdfrwt beam="1">  1       21 0.27671123E-01 0.43988376E+03</pdfrwt>
<pdfrwt beam="2">  1       21 0.37806915E-01 0.43988376E+03</pdfrwt>
<totfact> 0.78289331E+04</totfact>
</mgrwt>
</event>
<event>
 7    0  0.4788920E-002  0.5065787E+03  0.7546771E-02  0.1012076E+00
         21   -1    0    0  502  501  0.00000000000E+00  0.00000000000E+00  0.17073733167E+03  0.17073733167E+03  0.00000000000E+00 0.  1.
         21   -1    0    0  501  502 -0.00000000000E+00 -0.00000000000E+00 -0.37575556131E+03  0.37575556131E+03  0.00000000000E+00 0.  1.
      99926    2    1    2    0    0  0.00000000000E+00  0.00000000000E+00 -0.20501822964E+03  0.54649289298E+03  0.50657872793E+03 0.  0.
      99925    2    3    3    0    0  0.22232579546E+02  0.49545930262E+01 -0.29109572659E+03  0.39294915600E+03  0.26297049563E+03 0.  0.
         25    1    4    4    0    0 -0.16881696642E+02  0.24336008428E+02 -0.17253272419E+03  0.21515641288E+03  0.12509000000E+03 0.  0.
         25    1    3    3    0    0 -0.22232579546E+02 -0.49545930262E+01  0.86077496956E+02  0.15354373699E+03  0.12509000000E+03 0.  0.
         25    1    4    4    0    0  0.39114276189E+02 -0.19381415402E+02 -0.11856300241E+03  0.17779274311E+03  0.12509000000E+03 0.  0.
<mgrwt>
<rscale>  2 0.50657873E+03</rscale>
<asrwt>0</asrwt>
<pdfrwt beam="1">  1       21 0.25108431E-01 0.50657873E+03</pdfrwt>
<pdfrwt beam="2">  1       21 0.55258171E-01 0.50657873E+03</pdfrwt>
<totfact> 0.42076815E+04</totfact>
</mgrwt>
</event>
<event>
 7    0  0.4788920E-002  0.4589610E+03  0.7546771E-02  0.1025083E+00
         21   -1    0    0  502  501  0.00000000000E+00  0.00000000000E+00  0.25624230760E+03  0.25624230760E+03  0.00000000000E+00 0.  1.
         21   -1    0    0  501  502 -0.00000000000E+00 -0.00000000000E+00 -0.20551368597E+03  0.20551368597E+03  0.00000000000E+00 0.  1.
      99926    2    1    2    0    0  0.14210854715E-13  0.14210854715E-13  0.50728621630E+02  0.46175599356E+03  0.45896100546E+03 0.  0.
      99925    2    3    3    0    0  0.88258392276E+02  0.73020015897E+02  0.55233231089E+02  0.29208199398E+03  0.26294431893E+03 0.  0.
         25    1    3    3    0    0 -0.88258392276E+02 -0.73020015897E+02 -0.45046094597E+01  0.16967399959E+03  0.12509000000E+03 0.  0.
         25    1    4    4    0    0  0.60112560172E+02  0.75518100699E+02  0.21320478998E+02  0.15943203677E+03  0.12509000000E+03 0.  0.
         25    1    4    4    0    0  0.28145832104E+02 -0.24980848023E+01  0.33912752091E+02  0.13264995721E+03  0.12509000000E+03 0.  0.
<mgrwt>
<rscale>  2 0.45896101E+03</rscale>
<asrwt>0</asrwt>
<pdfrwt beam="1">  1       21 0.37682692E-01 0.45896101E+03</pdfrwt>
<pdfrwt beam="2">  1       21 0.30222601E-01 0.45896101E+03</pdfrwt>
<totfact> 0.65944792E+04</totfact>
</mgrwt>
</event>
<event>
 7    0  0.4788920E-002  0.4551687E+03  0.7546771E-02  0.1026192E+00
         21   -1    0    0  502  501  0.00000000000E+00  0.00000000000E+00  0.26421330857E+03  0.26421330857E+03  0.00000000000E+00 0. -1.
         21   -1    0    0  501  502 -0.00000000000E+00 -0.00000000000E+00 -0.19603337354E+03  0.19603337354E+03  0.00000000000E+00 0. -1.
      99926    2    1    2    0    0  0.00000000000E+00  0.00000000000E+00  0.68179935031E+02  0.46024668210E+03  0.45516865539E+03 0.  0.
      99925    2    3    3    0    0  0.10656267215E+03  0.27634348828E+02  0.69969650001E+02  0.29360343589E+03  0.26303605326E+03 0.  0.
         25    1    3    3    0    0 -0.10656267215E+03 -0.27634348828E+02 -0.17897149700E+01  0.16664324622E+03  0.12509000000E+03 0.  0.
         25    1    4    4    0    0  0.32019796627E+02 -0.33006359774E+01  0.12148252919E+00  0.12916533758E+03  0.12509000000E+03 0.  0.
         25    1    4    4    0    0  0.74542875520E+02  0.30934984806E+02  0.69848167472E+02  0.16443809831E+03  0.12509000000E+03 0.  0.
<mgrwt>
<rscale>  2 0.45516866E+03</rscale>
<asrwt>0</asrwt>
<pdfrwt beam="1">  1       21 0.38854898E-01 0.45516866E+03</pdfrwt>
<pdfrwt beam="2">  1       21 0.28828437E-01 0.45516866E+03</pdfrwt>
<totfact> 0.68070996E+04</totfact>
</mgrwt>
</event>
<event>
 7    0  0.4788920E-002  0.4639917E+03  0.7546771E-02  0.1023630E+00
         21   -1    0    0  502  501  0.00000000000E+00  0.00000000000E+00  0.54651837652E+03  0.54651837652E+03  0.00000000000E+00 0.  1.
         21   -1    0    0  501  502 -0.00000000000E+00 -0.00000000000E+00 -0.98481721990E+02  0.98481721990E+02  0.00000000000E+00 0.  1.
      99926    2    1    2    0    0 -0.88817841970E-15  0.00000000000E+00  0.44803665453E+03  0.64500009851E+03  0.46399168449E+03 0.  0.
      99925    2    3    3    0    0 -0.67968547832E+01  0.10734030427E+03  0.20085017451E+03  0.34781866880E+03  0.26280961857E+03 0.  0.
         25    1    3    3    0    0  0.67968547832E+01 -0.10734030427E+03  0.24718648002E+03  0.29718142971E+03  0.12509000000E+03 0.  0.
         25    1    4    4    0    0 -0.60858082419E+01  0.90551552488E+02  0.13626859235E+03  0.20604188429E+03  0.12509000000E+03 0.  0.
         25    1    4    4    0    0 -0.71104654125E+00  0.16788751786E+02  0.64581582160E+02  0.14177678452E+03  0.12509000000E+03 0.  0.
<mgrwt>
<rscale>  2 0.46399168E+03</rscale>
<asrwt>0</asrwt>
<pdfrwt beam="1">  1       21 0.80370348E-01 0.46399168E+03</pdfrwt>
<pdfrwt beam="2">  1       21 0.14482606E-01 0.46399168E+03</pdfrwt>
<totfact> 0.52187877E+04</totfact>
</mgrwt>
</event>
<event>
 7    0  0.4788920E-002  0.4430995E+03  0.7546771E-02  0.1029800E+00
         21   -1    0    0  502  501  0.00000000000E+00  0.00000000000E+00  0.45484001681E+03  0.45484001681E+03  0.00000000000E+00 0. -1.
         21   -1    0    0  501  502 -0.00000000000E+00 -0.00000000000E+00 -0.10791552584E+03  0.10791552584E+03  0.00000000000E+00 0. -1.
      99926    2    1    2    0    0  0.00000000000E+00  0.35527136788E-14  0.34692449097E+03  0.56275554265E+03  0.44309953548E+03 0.  0.
      99925    2    3    3    0    0  0.57836433278E+02  0.25589198787E+02  0.32175268462E+03  0.42034420867E+03  0.26299164169E+03 0.  0.
         25    1    3    3    0    0 -0.57836433278E+02 -0.25589198787E+02  0.25171806351E+02  0.14241133397E+03  0.12509000000E+03 0.  0.
         25    1    4    4    0    0  0.41253375617E+02  0.37564745713E+02  0.21349240215E+03  0.25365225210E+03  0.12509000000E+03 0.  0.
         25    1    4    4    0    0  0.16583057660E+02 -0.11975546926E+02  0.10826028247E+03  0.16669195657E+03  0.12509000000E+03 0.  0.
<mgrwt>
<rscale>  2 0.44309954E+03</rscale>
<asrwt>0</asrwt>
<pdfrwt beam="1">  1       21 0.66888237E-01 0.44309954E+03</pdfrwt>
<pdfrwt beam="2">  1       21 0.15869930E-01 0.44309954E+03</pdfrwt>
<totfact> 0.67130243E+04</totfact>
</mgrwt>
</event>
<event>
 7    0  0.4788920E-002  0.4500803E+03  0.7546771E-02  0.1027698E+00
         21   -1    0    0  502  501  0.00000000000E+00  0.00000000000E+00  0.23573128745E+03  0.23573128745E+03  0.00000000000E+00 0. -1.
         21   -1    0    0  501  502 -0.00000000000E+00 -0.00000000000E+00 -0.21483387480E+03  0.21483387480E+03  0.00000000000E+00 0. -1.
      99926    2    1    2    0    0  0.00000000000E+00  0.00000000000E+00  0.20897412649E+02  0.45056516226E+03  0.45008028571E+03 0.  0.
      99925    2    3    3    0    0  0.14707317365E+02  0.10731414694E+03  0.10214934236E+02  0.28475124619E+03  0.26314690955E+03 0.  0.
         25    1    3    3    0    0 -0.14707317365E+02 -0.10731414694E+03  0.10682478413E+02  0.16581391607E+03  0.12509000000E+03 0.  0.
         25    1    4    4    0    0 -0.14603232477E+02  0.87956895045E+02 -0.65068852216E+01  0.15375147947E+03  0.12509000000E+03 0.  0.
         25    1    4    4    0    0  0.29310549842E+02  0.19357251894E+02  0.16721819457E+02  0.13099976671E+03  0.12509000000E+03 0.  0.
<mgrwt>
<rscale>  2 0.45008029E+03</rscale>
<asrwt>0</asrwt>
<pdfrwt beam="1">  1       21 0.34666366E-01 0.45008029E+03</pdfrwt>
<pdfrwt beam="2">  1       21 0.31593217E-01 0.45008029E+03</pdfrwt>
<totfact> 0.71643171E+04</totfact>
</mgrwt>
</event>
<event>
 7    0  0.4788920E-002  0.4537602E+03  0.7546771E-02  0.1026607E+00
         21   -1    0    0  502  501  0.00000000000E+00  0.00000000000E+00  0.73952305146E+03  0.73952305146E+03  0.00000000000E+00 0. -1.
         21   -1    0    0  501  502 -0.00000000000E+00 -0.00000000000E+00 -0.69605119038E+02  0.69605119038E+02  0.00000000000E+00 0. -1.
      99926    2    1    2    0    0  0.22759572005E-14  0.00000000000E+00  0.66991793242E+03  0.80912817050E+03  0.45376024519E+03 0.  0.
      99925    2    3    3    0    0  0.25951547657E+00  0.10446350709E+03  0.49366987956E+03  0.56907905906E+03  0.26311277776E+03 0.  0.
         25    1    4    4    0    0  0.34591724246E+02  0.37353158946E+02  0.27097567079E+03  0.30276586355E+03  0.12509000000E+03 0.  0.
         25    1    4    4    0    0 -0.34332208769E+02  0.67110348144E+02  0.22269420876E+03  0.26631319551E+03  0.12509000000E+03 0.  0.
         25    1    3    3    0    0 -0.25951547657E+00 -0.10446350709E+03  0.17624805286E+03  0.24004911143E+03  0.12509000000E+03 0.  0.
<mgrwt>
<rscale>  2 0.45376025E+03</rscale>
<asrwt>0</asrwt>
<pdfrwt beam="1">  1       21 0.10875339E+00 0.45376025E+03</pdfrwt>
<pdfrwt beam="2">  1       21 0.10236047E-01 0.45376025E+03</pdfrwt>
<totfact> 0.47789697E+04</totfact>
</mgrwt>
</event>
<event>
 7    0  0.4788920E-002  0.4588265E+03  0.7546771E-02  0.1025122E+00
         21   -1    0    0  502  501  0.00000000000E+00  0.00000000000E+00  0.60351516388E+03  0.60351516388E+03  0.00000000000E+00 0. -1.
         21   -1    0    0  501  502 -0.00000000000E+00 -0.00000000000E+00 -0.87206496056E+02  0.87206496056E+02  0.00000000000E+00 0. -1.
      99926    2    1    2    0    0  0.00000000000E+00  0.88817841970E-15  0.51630866783E+03  0.69072165994E+03  0.45882651518E+03 0.  0.
      99925    2    3    3    0    0  0.78609540871E+02  0.33232759028E+01  0.45361778832E+03  0.53019702460E+03  0.26296251241E+03 0.  0.
         25    1    4    4    0    0  0.23837680992E+02  0.16272746429E+02  0.15272244128E+03  0.19951112621E+03  0.12509000000E+03 0.  0.
         25    1    3    3    0    0 -0.78609540871E+02 -0.33232759028E+01  0.62690879509E+02  0.16052463534E+03  0.12509000000E+03 0.  0.
         25    1    4    4    0    0  0.54771859879E+02 -0.12949470526E+02  0.30089534704E+03  0.33068589838E+03  0.12509000000E+03 0.  0.
<mgrwt>
<rscale>  2 0.45882652E+03</rscale>
<asrwt>0</asrwt>
<pdfrwt beam="1">  1       21 0.88752228E-01 0.45882652E+03</pdfrwt>
<pdfrwt beam="2">  1       21 0.12824485E-01 0.45882652E+03</pdfrwt>
<totfact> 0.51830722E+04</totfact>
</mgrwt>
</event>
<event>
 7    0  0.4788920E-002  0.4811692E+03  0.7546771E-02  0.1018814E+00
         21   -1    0    0  502  501  0.00000000000E+00  0.00000000000E+00  0.29092337487E+04  0.29092337487E+04  0.00000000000E+00 0. -1.
         21   -1    0    0  501  502 -0.00000000000E+00 -0.00000000000E+00 -0.19895601030E+02  0.19895601030E+02  0.00000000000E+00 0. -1.
      99926    2    1    2    0    0  0.00000000000E+00  0.00000000000E+00  0.28893381477E+04  0.29291293498E+04  0.48116921750E+03 0.  0.
      99925    2    3    3    0    0  0.12908370062E+03  0.24568103053E+02  0.15536913878E+04  0.15812176432E+04  0.26272821141E+03 0.  0.
         25    1    3    3    0    0 -0.12908370062E+03 -0.24568103053E+02  0.13356467599E+04  0.13479117066E+04  0.12509000000E+03 0.  0.
         25    1    4    4    0    0  0.87331956348E+02  0.34739243269E+02  0.69462815544E+03  0.71203192910E+03  0.12509000000E+03 0.  0.
         25    1    4    4    0    0  0.41751744269E+02 -0.10171140217E+02  0.85906323235E+03  0.86918571406E+03  0.12509000000E+03 0.  0.
<mgrwt>
<rscale>  2 0.48116922E+03</rscale>
<asrwt>0</asrwt>
<pdfrwt beam="1">  1       21 0.42782820E+00 0.48116922E+03</pdfrwt>
<pdfrwt beam="2">  1       21 0.29258257E-02 0.48116922E+03</pdfrwt>
<totfact> 0.30024769E+03</totfact>
</mgrwt>
</event>
<event>
 7    0  0.4788920E-002  0.4632245E+03  0.7546771E-02  0.1023850E+00
         21   -1    0    0  502  501  0.00000000000E+00  0.00000000000E+00  0.11508304704E+03  0.11508304704E+03  0.00000000000E+00 0. -1.
         21   -1    0    0  501  502 -0.00000000000E+00 -0.00000000000E+00 -0.46613493937E+03  0.46613493937E+03  0.00000000000E+00 0. -1.
      99926    2    1    2    0    0  0.00000000000E+00  0.71054273576E-14 -0.35105189233E+03  0.58121798640E+03  0.46322447756E+03 0.  0.
      99925    2    3    3    0    0  0.56478749557E+02  0.60238490600E+02 -0.10897262177E+03  0.29649284484E+03  0.26308639236E+03 0.  0.
         25    1    4    4    0    0  0.20136439860E+02 -0.93541052219E+00 -0.79544166990E+02  0.14960325466E+03  0.12509000000E+03 0.  0.
         25    1    4    4    0    0  0.36342309696E+02  0.61173901123E+02 -0.29428454779E+02  0.14688959018E+03  0.12509000000E+03 0.  0.
         25    1    3    3    0    0 -0.56478749557E+02 -0.60238490600E+02 -0.24207927056E+03  0.28472514156E+03  0.12509000000E+03 0.  0.
<mgrwt>
<rscale>  2 0.46322448E+03</rscale>
<asrwt>0</asrwt>
<pdfrwt beam="1">  1       21 0.16923977E-01 0.46322448E+03</pdfrwt>
<pdfrwt beam="2">  1       21 0.68549256E-01 0.46322448E+03</pdfrwt>
<totfact> 0.56111178E+04</totfact>
</mgrwt>
</event>
<event>
 7    0  0.4788920E-002  0.4548569E+03  0.7546771E-02  0.1026283E+00
         21   -1    0    0  502  501  0.00000000000E+00  0.00000000000E+00  0.37241158779E+02  0.37241158779E+02  0.00000000000E+00 0. -1.
         21   -1    0    0  501  502 -0.00000000000E+00 -0.00000000000E+00 -0.13888855696E+04  0.13888855696E+04  0.00000000000E+00 0. -1.
      99926    2    1    2    0    0  0.00000000000E+00  0.00000000000E+00 -0.13516444108E+04  0.14261267284E+04  0.45485693586E+03 0.  0.
      99925    2    3    3    0    0  0.22929828921E+02  0.91810323604E+02 -0.65742986317E+03  0.71441312106E+03  0.26309156197E+03 0.  0.
         25    1    3    3    0    0 -0.22929828921E+02 -0.91810323604E+02 -0.69421454767E+03  0.71171360734E+03  0.12509000000E+03 0.  0.
         25    1    4    4    0    0 -0.13905316877E+02  0.11700238335E+02 -0.30894821609E+03  0.33380647348E+03  0.12509000000E+03 0.  0.
         25    1    4    4    0    0  0.36835145798E+02  0.80110085269E+02 -0.34848164709E+03  0.38060664758E+03  0.12509000000E+03 0.  0.
<mgrwt>
<rscale>  2 0.45485694E+03</rscale>
<asrwt>0</asrwt>
<pdfrwt beam="1">  1       21 0.54766407E-02 0.45485694E+03</pdfrwt>
<pdfrwt beam="2">  1       21 0.20424789E+00 0.45485694E+03</pdfrwt>
<totfact> 0.25672558E+04</totfact>
</mgrwt>
</event>
<event>
 7    0  0.4788920E-002  0.4557377E+03  0.7546771E-02  0.1026025E+00
         21   -1    0    0  502  501  0.00000000000E+00  0.00000000000E+00  0.97458961026E+02  0.97458961026E+02  0.00000000000E+00 0. -1.
         21   -1    0    0  501  502 -0.00000000000E+00 -0.00000000000E+00 -0.53278031503E+03  0.53278031503E+03  0.00000000000E+00 0. -1.
      99926    2    1    2    0    0  0.00000000000E+00  0.00000000000E+00 -0.43532135400E+03  0.63023927605E+03  0.45573771386E+03 0.  0.
      99925    2    3    3    0    0 -0.91071357537E+02 -0.18946996547E+02 -0.36264671067E+03  0.45824482055E+03  0.26423984930E+03 0.  0.
         25    1    4    4    0    0 -0.56682656764E+02 -0.44190625963E+02 -0.15195747439E+03  0.20953357040E+03  0.12509000000E+03 0.  0.
         25    1    3    3    0    0  0.91071357537E+02  0.18946996547E+02 -0.72674643335E+02  0.17199445551E+03  0.12509000000E+03 0.  0.
         25    1    4    4    0    0 -0.34388700773E+02  0.25243629416E+02 -0.21068923627E+03  0.24871125014E+03  0.12509000000E+03 0.  0.
<mgrwt>
<rscale>  2 0.45573771E+03</rscale>
<asrwt>0</asrwt>
<pdfrwt beam="1">  1       21 0.14332200E-01 0.45573771E+03</pdfrwt>
<pdfrwt beam="2">  1       21 0.78350046E-01 0.45573771E+03</pdfrwt>
<totfact> 0.56524624E+04</totfact>
</mgrwt>
</event>
<event>
 7    0  0.4788920E-002  0.4534708E+03  0.7546771E-02  0.1026692E+00
         21   -1    0    0  502  501  0.00000000000E+00  0.00000000000E+00  0.45507058955E+03  0.45507058955E+03  0.00000000000E+00 0.  1.
         21   -1    0    0  501  502 -0.00000000000E+00 -0.00000000000E+00 -0.11296918040E+03  0.11296918040E+03  0.00000000000E+00 0.  1.
      99926    2    1    2    0    0  0.00000000000E+00  0.71054273576E-14  0.34210140915E+03  0.56803976995E+03  0.45347084372E+03 0.  0.
      99925    2    3    3    0    0  0.89465977919E+02 -0.56047686581E+02  0.16971223339E+03  0.33031926096E+03  0.26298872147E+03 0.  0.
         25    1    4    4    0    0  0.82999610257E+02 -0.41973823100E+02  0.11041361336E+03  0.19102201769E+03  0.12509000000E+03 0.  0.
         25    1    4    4    0    0  0.64663676621E+01 -0.14073863481E+02  0.59298620034E+02  0.13929724327E+03  0.12509000000E+03 0.  0.
         25    1    3    3    0    0 -0.89465977919E+02  0.56047686581E+02  0.17238917576E+03  0.23772050899E+03  0.12509000000E+03 0.  0.
<mgrwt>
<rscale>  2 0.45347084E+03</rscale>
<asrwt>0</asrwt>
<pdfrwt beam="1">  1       21 0.66922145E-01 0.45347084E+03</pdfrwt>
<pdfrwt beam="2">  1       21 0.16613115E-01 0.45347084E+03</pdfrwt>
<totfact> 0.61429430E+04</totfact>
</mgrwt>
</event>
<event>
 7    0  0.4788920E-002  0.4544917E+03  0.7546771E-02  0.1026391E+00
         21   -1    0    0  502  501  0.00000000000E+00  0.00000000000E+00  0.20638435802E+04  0.20638435802E+04  0.00000000000E+00 0. -1.
         21   -1    0    0  501  502 -0.00000000000E+00 -0.00000000000E+00 -0.25021599601E+02  0.25021599601E+02  0.00000000000E+00 0. -1.
      99926    2    1    2    0    0  0.00000000000E+00  0.00000000000E+00  0.20388219806E+04  0.20888651798E+04  0.45449166199E+03 0.  0.
      99925    2    3    3    0    0 -0.55702016467E+02 -0.19280591428E+02  0.17250447984E+04  0.17459685714E+04  0.26296813534E+03 0.  0.
         25    1    3    3    0    0  0.55702016467E+02  0.19280591428E+02  0.31377718226E+03  0.34289660840E+03  0.12509000000E+03 0.  0.
         25    1    4    4    0    0 -0.42595226593E+02 -0.26304760264E+02  0.66867841916E+03  0.68211775383E+03  0.12509000000E+03 0.  0.
         25    1    4    4    0    0 -0.13106789874E+02  0.70241688358E+01  0.10563663792E+04  0.10638508176E+04  0.12509000000E+03 0.  0.
<mgrwt>
<rscale>  2 0.45449166E+03</rscale>
<asrwt>0</asrwt>
<pdfrwt beam="1">  1       21 0.30350629E+00 0.45449166E+03</pdfrwt>
<pdfrwt beam="2">  1       21 0.36796484E-02 0.45449166E+03</pdfrwt>
<totfact> 0.12361424E+04</totfact>
</mgrwt>
</event>
<event>
 7    0  0.4788920E-002  0.4497207E+03  0.7546771E-02  0.1027805E+00
         21   -1    0    0  502  501  0.00000000000E+00  0.00000000000E+00  0.13618274667E+04  0.13618274667E+04  0.00000000000E+00 0. -1.
         21   -1    0    0  501  502 -0.00000000000E+00 -0.00000000000E+00 -0.37128178770E+02  0.37128178770E+02  0.00000000000E+00 0. -1.
      99926    2    1    2    0    0  0.00000000000E+00  0.00000000000E+00  0.13246992880E+04  0.13989556455E+04  0.44972068504E+03 0.  0.
      99925    2    3    3    0    0  0.26981282664E+02  0.98477530521E+02  0.72719248429E+03  0.78001485498E+03  0.26303697679E+03 0.  0.
         25    1    3    3    0    0 -0.26981282664E+02 -0.98477530521E+02  0.59750680368E+03  0.61894079052E+03  0.12509000000E+03 0.  0.
         25    1    4    4    0    0 -0.21065750507E+02  0.58919507743E+02  0.41636655575E+03  0.43923102245E+03  0.12509000000E+03 0.  0.
         25    1    4    4    0    0  0.48047033172E+02  0.39558022778E+02  0.31082592854E+03  0.34078383253E+03  0.12509000000E+03 0.  0.
<mgrwt>
<rscale>  2 0.44972069E+03</rscale>
<asrwt>0</asrwt>
<pdfrwt beam="1">  1       21 0.20026871E+00 0.44972069E+03</pdfrwt>
<pdfrwt beam="2">  1       21 0.54600272E-02 0.44972069E+03</pdfrwt>
<totfact> 0.27469681E+04</totfact>
</mgrwt>
</event>
<event>
 7    0  0.4788920E-002  0.4513979E+03  0.7546771E-02  0.1027306E+00
         21   -1    0    0  502  501  0.00000000000E+00  0.00000000000E+00  0.27115994448E+03  0.27115994448E+03  0.00000000000E+00 0. -1.
         21   -1    0    0  501  502 -0.00000000000E+00 -0.00000000000E+00 -0.18785967954E+03  0.18785967954E+03  0.00000000000E+00 0. -1.
      99926    2    1    2    0    0  0.00000000000E+00  0.71054273576E-14  0.83300264941E+02  0.45901962402E+03  0.45139791880E+03 0.  0.
      99925    2    3    3    0    0  0.10174845425E+03  0.34262447797E+02  0.78487458632E+02  0.29410348025E+03  0.26231643612E+03 0.  0.
         25    1    3    3    0    0 -0.10174845425E+03 -0.34262447797E+02  0.48128063090E+01  0.16491614377E+03  0.12509000000E+03 0.  0.
         25    1    4    4    0    0  0.63429436098E+02 -0.90976988695E+01  0.67285091247E+02  0.15582314684E+03  0.12509000000E+03 0.  0.
         25    1    4    4    0    0  0.38319018150E+02  0.43360146667E+02  0.11202367385E+02  0.13828033340E+03  0.12509000000E+03 0.  0.
<mgrwt>
<rscale>  2 0.45139792E+03</rscale>
<asrwt>0</asrwt>
<pdfrwt beam="1">  1       21 0.39876462E-01 0.45139792E+03</pdfrwt>
<pdfrwt beam="2">  1       21 0.27626423E-01 0.45139792E+03</pdfrwt>
<totfact> 0.70246391E+04</totfact>
</mgrwt>
</event>
<event>
 7    0  0.4788920E-002  0.4526571E+03  0.7546771E-02  0.1026933E+00
         21   -1    0    0  502  501  0.00000000000E+00  0.00000000000E+00  0.57361133862E+02  0.57361133862E+02  0.00000000000E+00 0. -1.
         21   -1    0    0  501  502 -0.00000000000E+00 -0.00000000000E+00 -0.89301966619E+03  0.89301966619E+03  0.00000000000E+00 0. -1.
      99926    2    1    2    0    0  0.00000000000E+00  0.00000000000E+00 -0.83565853233E+03  0.95038080005E+03  0.45265713565E+03 0.  0.
      99925    2    3    3    0    0 -0.61032942762E+02  0.91372974602E+02 -0.56050310314E+03  0.62877225088E+03  0.26290069276E+03 0.  0.
         25    1    3    3    0    0  0.61032942762E+02 -0.91372974602E+02 -0.27515542919E+03  0.32160854917E+03  0.12509000000E+03 0.  0.
         25    1    4    4    0    0 -0.63315750219E+02  0.74288418964E+02 -0.31304218281E+03  0.35095664937E+03  0.12509000000E+03 0.  0.
         25    1    4    4    0    0  0.22828074575E+01  0.17084555638E+02 -0.24746092034E+03  0.27781560151E+03  0.12509000000E+03 0.  0.
<mgrwt>
<rscale>  2 0.45265714E+03</rscale>
<asrwt>0</asrwt>
<pdfrwt beam="1">  1       21 0.84354603E-02 0.45265714E+03</pdfrwt>
<pdfrwt beam="2">  1       21 0.13132643E+00 0.45265714E+03</pdfrwt>
<totfact> 0.41887542E+04</totfact>
</mgrwt>
</event>
<event>
 7    0  0.4788920E-002  0.4430212E+03  0.7546771E-02  0.1029824E+00
         21   -1    0    0  502  501  0.00000000000E+00  0.00000000000E+00  0.23316545492E+03  0.23316545492E+03  0.00000000000E+00 0.  1.
         21   -1    0    0  501  502 -0.00000000000E+00 -0.00000000000E+00 -0.21043835302E+03  0.21043835302E+03  0.00000000000E+00 0.  1.
      99926    2    1    2    0    0  0.00000000000E+00  0.00000000000E+00  0.22727101900E+02  0.44360380794E+03  0.44302123793E+03 0.  0.
      99925    2    3    3    0    0  0.80053496552E+02 -0.37914528623E+02  0.64069363892E+02  0.28485002210E+03  0.26303721773E+03 0.  0.
         25    1    4    4    0    0  0.44969830295E+02 -0.43075234696E+02 -0.38091236540E+00  0.13973336994E+03  0.12509000000E+03 0.  0.
         25    1    4    4    0    0  0.35083666257E+02  0.51607060723E+01  0.64450276257E+02  0.14511665216E+03  0.12509000000E+03 0.  0.
         25    1    3    3    0    0 -0.80053496552E+02  0.37914528623E+02 -0.41342261991E+02  0.15875378584E+03  0.12509000000E+03 0.  0.
<mgrwt>
<rscale>  2 0.44302124E+03</rscale>
<asrwt>0</asrwt>
<pdfrwt beam="1">  1       21 0.34289037E-01 0.44302124E+03</pdfrwt>
<pdfrwt beam="2">  1       21 0.30946817E-01 0.44302124E+03</pdfrwt>
<totfact> 0.76437436E+04</totfact>
</mgrwt>
</event>
<event>
 7    0  0.4788920E-002  0.4532135E+03  0.7546771E-02  0.1026768E+00
         21   -1    0    0  502  501  0.00000000000E+00  0.00000000000E+00  0.17268219854E+03  0.17268219854E+03  0.00000000000E+00 0.  1.
         21   -1    0    0  501  502 -0.00000000000E+00 -0.00000000000E+00 -0.29737062238E+03  0.29737062238E+03  0.00000000000E+00 0.  1.
      99926    2    1    2    0    0  0.00000000000E+00  0.00000000000E+00 -0.12468842384E+03  0.47005282092E+03  0.45321347223E+03 0.  0.
      99925    2    3    3    0    0  0.29850881806E+02 -0.66615654639E+02  0.94523077821E+01  0.27264470414E+03  0.26252060488E+03 0.  0.
         25    1    4    4    0    0  0.20371977681E+02 -0.30112562094E+02  0.44010643020E+02  0.13749992243E+03  0.12509000000E+03 0.  0.
         25    1    3    3    0    0 -0.29850881806E+02  0.66615654639E+02 -0.13414073162E+03  0.19740811677E+03  0.12509000000E+03 0.  0.
         25    1    4    4    0    0  0.94789041254E+01 -0.36503092545E+02 -0.34558335238E+02  0.13514478171E+03  0.12509000000E+03 0.  0.
<mgrwt>
<rscale>  2 0.45321347E+03</rscale>
<asrwt>0</asrwt>
<pdfrwt beam="1">  1       21 0.25394441E-01 0.45321347E+03</pdfrwt>
<pdfrwt beam="2">  1       21 0.43730973E-01 0.45321347E+03</pdfrwt>
<totfact> 0.68396066E+04</totfact>
</mgrwt>
</event>
<event>
 7    0  0.4788920E-002  0.4551063E+03  0.7546771E-02  0.1026210E+00
         21   -1    0    0  502  501  0.00000000000E+00  0.00000000000E+00  0.73732194876E+02  0.73732194876E+02  0.00000000000E+00 0. -1.
         21   -1    0    0  501  502 -0.00000000000E+00 -0.00000000000E+00 -0.70227728393E+03  0.70227728393E+03  0.00000000000E+00 0. -1.
      99926    2    1    2    0    0  0.35527136788E-14  0.00000000000E+00 -0.62854508905E+03  0.77600947880E+03  0.45510634166E+03 0.  0.
      99925    2    3    3    0    0 -0.27377726651E+02 -0.79469817107E+02 -0.52501850346E+03  0.59317005807E+03  0.26294732757E+03 0.  0.
         25    1    4    4    0    0 -0.21845387786E+01 -0.79894700147E+02 -0.27993703872E+03  0.31685988871E+03  0.12509000000E+03 0.  0.
         25    1    4    4    0    0 -0.25193187872E+02  0.42488304020E+00 -0.24508146473E+03  0.27631016937E+03  0.12509000000E+03 0.  0.
         25    1    3    3    0    0  0.27377726651E+02  0.79469817107E+02 -0.10352658559E+03  0.18283942073E+03  0.12509000000E+03 0.  0.
<mgrwt>
<rscale>  2 0.45510634E+03</rscale>
<asrwt>0</asrwt>
<pdfrwt beam="1">  1       21 0.10842970E-01 0.45510634E+03</pdfrwt>
<pdfrwt beam="2">  1       21 0.10327607E+00 0.45510634E+03</pdfrwt>
<totfact> 0.48906281E+04</totfact>
</mgrwt>
</event>
<event>
 7    0  0.4788920E-002  0.4529520E+03  0.7546771E-02  0.1026845E+00
         21   -1    0    0  502  501  0.00000000000E+00  0.00000000000E+00  0.26114893255E+03  0.26114893255E+03  0.00000000000E+00 0. -1.
         21   -1    0    0  501  502 -0.00000000000E+00 -0.00000000000E+00 -0.19640665416E+03  0.19640665416E+03  0.00000000000E+00 0. -1.
      99926    2    1    2    0    0  0.00000000000E+00  0.35527136788E-14  0.64742278393E+02  0.45755558671E+03  0.45295204197E+03 0.  0.
      99925    2    3    3    0    0 -0.31222350944E+02  0.24797095044E+02 -0.64188846144E+02  0.27354342925E+03  0.26289935069E+03 0.  0.
         25    1    4    4    0    0  0.16514311753E+02  0.18226272728E+02 -0.66272877250E+01  0.12765715238E+03  0.12509000000E+03 0.  0.
         25    1    4    4    0    0 -0.47736662696E+02  0.65708223158E+01 -0.57561558419E+02  0.14588627687E+03  0.12509000000E+03 0.  0.
         25    1    3    3    0    0  0.31222350944E+02 -0.24797095044E+02  0.12893112454E+03  0.18401215747E+03  0.12509000000E+03 0.  0.
<mgrwt>
<rscale>  2 0.45295204E+03</rscale>
<asrwt>0</asrwt>
<pdfrwt beam="1">  1       21 0.38404255E-01 0.45295204E+03</pdfrwt>
<pdfrwt beam="2">  1       21 0.28883332E-01 0.45295204E+03</pdfrwt>
<totfact> 0.69487025E+04</totfact>
</mgrwt>
</event>
<event>
 7    0  0.4788920E-002  0.4497559E+03  0.7546771E-02  0.1027795E+00
         21   -1    0    0  502  501  0.00000000000E+00  0.00000000000E+00  0.18045313726E+03  0.18045313726E+03  0.00000000000E+00 0.  1.
         21   -1    0    0  501  502 -0.00000000000E+00 -0.00000000000E+00 -0.28023941969E+03  0.28023941969E+03  0.00000000000E+00 0.  1.
      99926    2    1    2    0    0  0.00000000000E+00  0.00000000000E+00 -0.99786282438E+02  0.46069255695E+03  0.44975585584E+03 0.  0.
      99925    2    3    3    0    0 -0.10178419496E+03 -0.14534780240E+02 -0.28447909471E+02  0.28375201965E+03  0.26293467425E+03 0.  0.
         25    1    4    4    0    0 -0.44224497432E+02 -0.12141757388E+02  0.25849447484E+02  0.13571636040E+03  0.12509000000E+03 0.  0.
         25    1    4    4    0    0 -0.57559697528E+02 -0.23930228518E+01 -0.54297356955E+02  0.14803565925E+03  0.12509000000E+03 0.  0.
         25    1    3    3    0    0  0.10178419496E+03  0.14534780240E+02 -0.71338372967E+02  0.17694053729E+03  0.12509000000E+03 0.  0.
<mgrwt>
<rscale>  2 0.44975586E+03</rscale>
<asrwt>0</asrwt>
<pdfrwt beam="1">  1       21 0.26537226E-01 0.44975586E+03</pdfrwt>
<pdfrwt beam="2">  1       21 0.41211679E-01 0.44975586E+03</pdfrwt>
<totfact> 0.71044205E+04</totfact>
</mgrwt>
</event>
<event>
 7    0  0.4788920E-002  0.4024743E+03  0.7546771E-02  0.1042926E+00
         21   -1    0    0  502  501  0.00000000000E+00  0.00000000000E+00  0.35301900597E+03  0.35301900597E+03  0.00000000000E+00 0.  1.
         21   -1    0    0  501  502 -0.00000000000E+00 -0.00000000000E+00 -0.11471449317E+03  0.11471449317E+03  0.00000000000E+00 0.  1.
      99926    2    1    2    0    0 -0.17763568394E-14  0.71054273576E-14  0.23830451280E+03  0.46773349914E+03  0.40247432887E+03 0.  0.
      99925    2    3    3    0    0  0.10327795744E+02 -0.34004011666E+02  0.20071736307E+03  0.33237014332E+03  0.26252526766E+03 0.  0.
         25    1    4    4    0    0 -0.57566032887E+00  0.19188215797E+02  0.76307778037E+02  0.14777991778E+03  0.12509000000E+03 0.  0.
         25    1    3    3    0    0 -0.10327795744E+02  0.34004011666E+02  0.37587149730E+02  0.13536335582E+03  0.12509000000E+03 0.  0.
         25    1    4    4    0    0  0.10903456073E+02 -0.53192227464E+02  0.12440958503E+03  0.18459022554E+03  0.12509000000E+03 0.  0.
<mgrwt>
<rscale>  2 0.40247433E+03</rscale>
<asrwt>0</asrwt>
<pdfrwt beam="1">  1       21 0.51914559E-01 0.40247433E+03</pdfrwt>
<pdfrwt beam="2">  1       21 0.16869779E-01 0.40247433E+03</pdfrwt>
<totfact> 0.10500542E+05</totfact>
</mgrwt>
</event>
<event>
 6    0  0.4788920E-002  0.4956022E+03  0.7546771E-02  0.1014933E+00
         21   -1    0    0  502  501  0.00000000000E+00  0.00000000000E+00  0.80251498350E+03  0.80251498350E+03  0.00000000000E+00 0. -1.
         21   -1    0    0  501  502 -0.00000000000E+00 -0.00000000000E+00 -0.76516170944E+02  0.76516170944E+02  0.00000000000E+00 0. -1.
      99926    2    1    2    0    0 -0.14210854715E-13 -0.35527136788E-14  0.72599881255E+03  0.87903115444E+03  0.49560215360E+03 0.  0.
         25    1    3    3    0    0  0.84535514799E+02  0.34824017869E+01  0.29823062911E+03  0.33428639910E+03  0.12509000000E+03 0.  0.
         25    1    3    3    0    0  0.34335725307E+02  0.21923936529E+02  0.30289147005E+03  0.33022772711E+03  0.12509000000E+03 0.  0.
         25    1    3    3    0    0 -0.11887124011E+03 -0.25406338316E+02  0.12487671339E+03  0.21451702822E+03  0.12509000000E+03 0.  0.
<mgrwt>
<rscale>  2 0.49560215E+03</rscale>
<asrwt>0</asrwt>
<pdfrwt beam="1">  1       21 0.11801690E+00 0.49560215E+03</pdfrwt>
<pdfrwt beam="2">  1       21 0.11252379E-01 0.49560215E+03</pdfrwt>
<totfact> 0.32510701E+04</totfact>
</mgrwt>
</event>
<event>
 7    0  0.4788920E-002  0.5178342E+03  0.7546771E-02  0.1009226E+00
         21   -1    0    0  502  501  0.00000000000E+00  0.00000000000E+00  0.12635465178E+03  0.12635465178E+03  0.00000000000E+00 0.  1.
         21   -1    0    0  501  502 -0.00000000000E+00 -0.00000000000E+00 -0.53055473909E+03  0.53055473909E+03  0.00000000000E+00 0.  1.
      99926    2    1    2    0    0 -0.28421709430E-13  0.00000000000E+00 -0.40420008731E+03  0.65690939087E+03  0.51783417928E+03 0.  0.
      99925    2    3    3    0    0 -0.13781082964E+03  0.87960608379E+02 -0.21177765830E+03  0.37512437942E+03  0.26294415773E+03 0.  0.
         25    1    4    4    0    0 -0.37999467510E+02  0.56307921198E+02 -0.12941470367E+03  0.19238039180E+03  0.12509000000E+03 0.  0.
         25    1    3    3    0    0  0.13781082964E+03 -0.87960608379E+02 -0.19242242901E+03  0.28178501145E+03  0.12509000000E+03 0.  0.
         25    1    4    4    0    0 -0.99811362131E+02  0.31652687182E+02 -0.82362954631E+02  0.18274398762E+03  0.12509000000E+03 0.  0.
<mgrwt>
<rscale>  2 0.51783418E+03</rscale>
<asrwt>0</asrwt>
<pdfrwt beam="1">  1       21 0.18581566E-01 0.51783418E+03</pdfrwt>
<pdfrwt beam="2">  1       21 0.78022756E-01 0.51783418E+03</pdfrwt>
<totfact> 0.34654278E+04</totfact>
</mgrwt>
</event>
<event>
 7    0  0.4788920E-002  0.4509626E+03  0.7546771E-02  0.1027435E+00
         21   -1    0    0  502  501  0.00000000000E+00  0.00000000000E+00  0.71777557798E+03  0.71777557798E+03  0.00000000000E+00 0. -1.
         21   -1    0    0  501  502 -0.00000000000E+00 -0.00000000000E+00 -0.70832483934E+02  0.70832483934E+02  0.00000000000E+00 0. -1.
      99926    2    1    2    0    0  0.00000000000E+00  0.00000000000E+00  0.64694309404E+03  0.78860806191E+03  0.45096264633E+03 0.  0.
      99925    2    3    3    0    0  0.51541760532E+02  0.19032933004E+02  0.24356056131E+03  0.36271631342E+03  0.26310182702E+03 0.  0.
         25    1    4    4    0    0  0.49397986611E+02  0.34849020390E+02  0.15763177013E+03  0.21011877202E+03  0.12509000000E+03 0.  0.
         25    1    4    4    0    0  0.21437739212E+01 -0.15816087386E+02  0.85928791183E+02  0.15259754140E+03  0.12509000000E+03 0.  0.
         25    1    3    3    0    0 -0.51541760532E+02 -0.19032933004E+02  0.40338253273E+03  0.42589174849E+03  0.12509000000E+03 0.  0.
<mgrwt>
<rscale>  2 0.45096265E+03</rscale>
<asrwt>0</asrwt>
<pdfrwt beam="1">  1       21 0.10555523E+00 0.45096265E+03</pdfrwt>
<pdfrwt beam="2">  1       21 0.10416542E-01 0.45096265E+03</pdfrwt>
<totfact> 0.49882762E+04</totfact>
</mgrwt>
</event>
<event>
 7    0  0.4788920E-002  0.4685191E+03  0.7546771E-02  0.1022339E+00
         21   -1    0    0  502  501  0.00000000000E+00  0.00000000000E+00  0.31096702417E+03  0.31096702417E+03  0.00000000000E+00 0.  1.
         21   -1    0    0  501  502 -0.00000000000E+00 -0.00000000000E+00 -0.17647384099E+03  0.17647384099E+03  0.00000000000E+00 0.  1.
      99926    2    1    2    0    0 -0.14210854715E-13 -0.35527136788E-14  0.13449318318E+03  0.48744086516E+03  0.46851913590E+03 0.  0.
      99925    2    3    3    0    0 -0.12073429004E+03 -0.31651244821E+02  0.71185435381E+02  0.29973378186E+03  0.26304829155E+03 0.  0.
         25    1    4    4    0    0 -0.38179052768E+02 -0.34974007911E+01  0.67435480947E+02  0.14719009502E+03  0.12509000000E+03 0.  0.
         25    1    4    4    0    0 -0.82555237271E+02 -0.28153844030E+02  0.37499544342E+01  0.15254368683E+03  0.12509000000E+03 0.  0.
         25    1    3    3    0    0  0.12073429004E+03  0.31651244821E+02  0.63307747803E+02  0.18770708330E+03  0.12509000000E+03 0.  0.
<mgrwt>
<rscale>  2 0.46851914E+03</rscale>
<asrwt>0</asrwt>
<pdfrwt beam="1">  1       21 0.45730445E-01 0.46851914E+03</pdfrwt>
<pdfrwt beam="2">  1       21 0.25952035E-01 0.46851914E+03</pdfrwt>
<totfact> 0.59515110E+04</totfact>
</mgrwt>
</event>
<event>
 7    0  0.4788920E-002  0.4549110E+03  0.7546771E-02  0.1026268E+00
         21   -1    0    0  502  501  0.00000000000E+00  0.00000000000E+00  0.52592753465E+02  0.52592753465E+02  0.00000000000E+00 0. -1.
         21   -1    0    0  501  502 -0.00000000000E+00 -0.00000000000E+00 -0.98370995399E+03  0.98370995399E+03  0.00000000000E+00 0. -1.
      99926    2    1    2    0    0 -0.13322676296E-14  0.00000000000E+00 -0.93111720053E+03  0.10363027075E+04  0.45491104665E+03 0.  0.
      99925    2    3    3    0    0 -0.36845441245E+01 -0.68693042605E+02 -0.79006318724E+03  0.83561376224E+03  0.26328351609E+03 0.  0.
         25    1    3    3    0    0  0.36845441245E+01  0.68693042605E+02 -0.14105401328E+03  0.20068894521E+03  0.12509000000E+03 0.  0.
         25    1    4    4    0    0  0.17487694683E+02 -0.15549543633E+01 -0.31652002940E+03  0.34079418196E+03  0.12509000000E+03 0.  0.
         25    1    4    4    0    0 -0.21172238808E+02 -0.67138088241E+02 -0.47354315785E+03  0.49481958029E+03  0.12509000000E+03 0.  0.
<mgrwt>
<rscale>  2 0.45491105E+03</rscale>
<asrwt>0</asrwt>
<pdfrwt beam="1">  1       21 0.77342286E-02 0.45491105E+03</pdfrwt>
<pdfrwt beam="2">  1       21 0.14466323E+00 0.45491105E+03</pdfrwt>
<totfact> 0.37810288E+04</totfact>
</mgrwt>
</event>
<event>
 7    0  0.4788920E-002  0.4562063E+03  0.7546771E-02  0.1025887E+00
         21   -1    0    0  502  501  0.00000000000E+00  0.00000000000E+00  0.38576976004E+02  0.38576976004E+02  0.00000000000E+00 0. -1.
         21   -1    0    0  501  502 -0.00000000000E+00 -0.00000000000E+00 -0.13487589400E+04  0.13487589400E+04  0.00000000000E+00 0. -1.
      99926    2    1    2    0    0  0.00000000000E+00  0.00000000000E+00 -0.13101819640E+04  0.13873359160E+04  0.45620627468E+03 0.  0.
      99925    2    3    3    0    0  0.36125443621E+02 -0.91318927485E+02 -0.64651465953E+03  0.70488006152E+03  0.26311689790E+03 0.  0.
         25    1    4    4    0    0 -0.20414984720E+02 -0.35902757040E+02 -0.33533611511E+03  0.36028266369E+03  0.12509000000E+03 0.  0.
         25    1    3    3    0    0 -0.36125443621E+02  0.91318927485E+02 -0.66366730451E+03  0.68245585452E+03  0.12509000000E+03 0.  0.
         25    1    4    4    0    0  0.56540428341E+02 -0.55416170444E+02 -0.31117854442E+03  0.34459739783E+03  0.12509000000E+03 0.  0.
<mgrwt>
<rscale>  2 0.45620627E+03</rscale>
<asrwt>0</asrwt>
<pdfrwt beam="1">  1       21 0.56730844E-02 0.45620627E+03</pdfrwt>
<pdfrwt beam="2">  1       21 0.19834691E+00 0.45620627E+03</pdfrwt>
<totfact> 0.26422860E+04</totfact>
</mgrwt>
</event>
<event>
 7    0  0.4788920E-002  0.4591272E+03  0.7546771E-02  0.1025035E+00
         21   -1    0    0  502  501  0.00000000000E+00  0.00000000000E+00  0.21982831573E+03  0.21982831573E+03  0.00000000000E+00 0.  1.
         21   -1    0    0  501  502 -0.00000000000E+00 -0.00000000000E+00 -0.23973005740E+03  0.23973005740E+03  0.00000000000E+00 0.  1.
      99926    2    1    2    0    0  0.00000000000E+00  0.00000000000E+00 -0.19901741666E+02  0.45955837313E+03  0.45912723617E+03 0.  0.
      99925    2    3    3    0    0 -0.43312962052E+02  0.81693756983E+02 -0.84191573559E+02  0.29124148985E+03  0.26302756841E+03 0.  0.
         25    1    4    4    0    0 -0.33361001376E+02  0.39543483228E+02 -0.83144627697E+02  0.15886214368E+03  0.12509000000E+03 0.  0.
         25    1    3    3    0    0  0.43312962052E+02 -0.81693756983E+02  0.64289831893E+02  0.16831688328E+03  0.12509000000E+03 0.  0.
         25    1    4    4    0    0 -0.99519606753E+01  0.42150273755E+02 -0.10469458627E+01  0.13237934618E+03  0.12509000000E+03 0.  0.
<mgrwt>
<rscale>  2 0.45912724E+03</rscale>
<asrwt>0</asrwt>
<pdfrwt beam="1">  1       21 0.32327693E-01 0.45912724E+03</pdfrwt>
<pdfrwt beam="2">  1       21 0.35254420E-01 0.45912724E+03</pdfrwt>
<totfact> 0.66012387E+04</totfact>
</mgrwt>
</event>
<event>
 7    0  0.4788920E-002  0.4580704E+03  0.7546771E-02  0.1025342E+00
         21   -1    0    0  502  501  0.00000000000E+00  0.00000000000E+00  0.27243562072E+04  0.27243562072E+04  0.00000000000E+00 0. -1.
         21   -1    0    0  501  502 -0.00000000000E+00 -0.00000000000E+00 -0.19254865520E+02  0.19254865520E+02  0.00000000000E+00 0. -1.
      99926    2    1    2    0    0  0.00000000000E+00  0.35527136788E-14  0.27051013416E+04  0.27436110727E+04  0.45807035441E+03 0.  0.
      99925    2    3    3    0    0 -0.11478981921E+03  0.16098372821E+02  0.17300604477E+04  0.17537686038E+04  0.26298156371E+03 0.  0.
         25    1    4    4    0    0 -0.23429821993E+02 -0.31540362965E+01  0.92459064499E+03  0.93331359864E+03  0.12509000000E+03 0.  0.
         25    1    3    3    0    0  0.11478981921E+03 -0.16098372821E+02  0.97504089394E+03  0.98984246886E+03  0.12509000000E+03 0.  0.
         25    1    4    4    0    0 -0.91359997216E+02  0.19252409117E+02  0.80546980271E+03  0.82045500518E+03  0.12509000000E+03 0.  0.
<mgrwt>
<rscale>  2 0.45807035E+03</rscale>
<asrwt>0</asrwt>
<pdfrwt beam="1">  1       21 0.40064035E+00 0.45807035E+03</pdfrwt>
<pdfrwt beam="2">  1       21 0.28315997E-02 0.45807035E+03</pdfrwt>
<totfact> 0.48304311E+03</totfact>
</mgrwt>
</event>
<event>
 7    0  0.4788920E-002  0.5603243E+03  0.7546771E-02  0.9991321E-01
         21   -1    0    0  502  501  0.00000000000E+00  0.00000000000E+00  0.17818394891E+03  0.17818394891E+03  0.00000000000E+00 0. -1.
         21   -1    0    0  501  502 -0.00000000000E+00 -0.00000000000E+00 -0.44050455512E+03  0.44050455512E+03  0.00000000000E+00 0. -1.
      99926    2    1    2    0    0  0.00000000000E+00  0.00000000000E+00 -0.26232060620E+03  0.61868850403E+03  0.56032433874E+03 0.  0.
      99925    2    3    3    0    0 -0.11172501210E+03  0.15998629028E+03 -0.17197335592E+03  0.36991506265E+03  0.26302894712E+03 0.  0.
         25    1    4    4    0    0 -0.51012040600E+02  0.12212830305E+03 -0.79639142778E+02  0.19876481543E+03  0.12509000000E+03 0.  0.
         25    1    4    4    0    0 -0.60712971496E+02  0.37857987231E+02 -0.92334213142E+02  0.17115024721E+03  0.12509000000E+03 0.  0.
         25    1    3    3    0    0  0.11172501210E+03 -0.15998629028E+03 -0.90347250280E+02  0.24877344138E+03  0.12509000000E+03 0.  0.
<mgrwt>
<rscale>  2 0.56032434E+03</rscale>
<asrwt>0</asrwt>
<pdfrwt beam="1">  1       21 0.26203522E-01 0.56032434E+03</pdfrwt>
<pdfrwt beam="2">  1       21 0.64780081E-01 0.56032434E+03</pdfrwt>
<totfact> 0.26996495E+04</totfact>
</mgrwt>
</event>
<event>
 7    0  0.4788920E-002  0.4514751E+03  0.7546771E-02  0.1027283E+00
         21   -1    0    0  502  501  0.00000000000E+00  0.00000000000E+00  0.42584321835E+03  0.42584321835E+03  0.00000000000E+00 0.  1.
         21   -1    0    0  501  502 -0.00000000000E+00 -0.00000000000E+00 -0.11966242394E+03  0.11966242394E+03  0.00000000000E+00 0.  1.
      99926    2    1    2    0    0 -0.14210854715E-13 -0.71054273576E-14  0.30618079441E+03  0.54550564229E+03  0.45147505679E+03 0.  0.
      99925    2    3    3    0    0  0.93819523526E+02  0.56538253460E+02  0.20326009888E+03  0.34995806555E+03  0.26297776094E+03 0.  0.
         25    1    3    3    0    0 -0.93819523526E+02 -0.56538253460E+02  0.10292069554E+03  0.19554757674E+03  0.12509000000E+03 0.  0.
         25    1    4    4    0    0  0.24510527450E+02  0.60798873583E+02  0.89797920004E+02  0.16735723325E+03  0.12509000000E+03 0.  0.
         25    1    4    4    0    0  0.69308996076E+02 -0.42606201228E+01  0.11346217887E+03  0.18260083230E+03  0.12509000000E+03 0.  0.
<mgrwt>
<rscale>  2 0.45147506E+03</rscale>
<asrwt>0</asrwt>
<pdfrwt beam="1">  1       21 0.62624002E-01 0.45147506E+03</pdfrwt>
<pdfrwt beam="2">  1       21 0.17597415E-01 0.45147506E+03</pdfrwt>
<totfact> 0.63929020E+04</totfact>
</mgrwt>
</event>
<event>
 7    0  0.4788920E-002  0.4542297E+03  0.7546771E-02  0.1026468E+00
         21   -1    0    0  502  501  0.00000000000E+00  0.00000000000E+00  0.13405498662E+04  0.13405498662E+04  0.00000000000E+00 0.  1.
         21   -1    0    0  501  502 -0.00000000000E+00 -0.00000000000E+00 -0.38477605656E+02  0.38477605656E+02  0.00000000000E+00 0.  1.
      99926    2    1    2    0    0  0.00000000000E+00 -0.35527136788E-14  0.13020722605E+04  0.13790274719E+04  0.45422967369E+03 0.  0.
      99925    2    3    3    0    0  0.63043152985E+02 -0.14485995068E+02  0.54049960230E+03  0.60454396326E+03  0.26296254533E+03 0.  0.
         25    1    4    4    0    0  0.44261842652E+02  0.13523025025E+02  0.20162348846E+03  0.24174681408E+03  0.12509000000E+03 0.  0.
         25    1    3    3    0    0 -0.63043152985E+02  0.14485995068E+02  0.76157265825E+03  0.77448350860E+03  0.12509000000E+03 0.  0.
         25    1    4    4    0    0  0.18781310333E+02 -0.28009020093E+02  0.33887611384E+03  0.36279714918E+03  0.12509000000E+03 0.  0.
<mgrwt>
<rscale>  2 0.45422967E+03</rscale>
<asrwt>0</asrwt>
<pdfrwt beam="1">  1       21 0.19713966E+00 0.45422967E+03</pdfrwt>
<pdfrwt beam="2">  1       21 0.56584723E-02 0.45422967E+03</pdfrwt>
<totfact> 0.27057925E+04</totfact>
</mgrwt>
</event>
<event>
 7    0  0.4788920E-002  0.4421919E+03  0.7546771E-02  0.1030076E+00
         21   -1    0    0  502  501  0.00000000000E+00  0.00000000000E+00  0.42332251212E+02  0.42332251212E+02  0.00000000000E+00 0. -1.
         21   -1    0    0  501  502 -0.00000000000E+00 -0.00000000000E+00 -0.11547558564E+04  0.11547558564E+04  0.00000000000E+00 0. -1.
      99926    2    1    2    0    0 -0.35527136788E-14  0.00000000000E+00 -0.11124236052E+04  0.11970881077E+04  0.44219188144E+03 0.  0.
      99925    2    3    3    0    0 -0.23616633580E+02  0.88853480164E+02 -0.81985417872E+03  0.86588263707E+03  0.26294330280E+03 0.  0.
         25    1    4    4    0    0  0.65804329239E+01  0.18098948208E+02 -0.46316479729E+03  0.48014582323E+03  0.12509000000E+03 0.  0.
         25    1    4    4    0    0 -0.30197066504E+02  0.70754531956E+02 -0.35668938143E+03  0.38573681383E+03  0.12509000000E+03 0.  0.
         25    1    3    3    0    0  0.23616633580E+02 -0.88853480164E+02 -0.29256942651E+03  0.33120547059E+03  0.12509000000E+03 0.  0.
<mgrwt>
<rscale>  2 0.44219188E+03</rscale>
<asrwt>0</asrwt>
<pdfrwt beam="1">  1       21 0.62253320E-02 0.44219188E+03</pdfrwt>
<pdfrwt beam="2">  1       21 0.16981701E+00 0.44219188E+03</pdfrwt>
<totfact> 0.35677412E+04</totfact>
</mgrwt>
</event>
<event>
 7    0  0.4788920E-002  0.4553789E+03  0.7546771E-02  0.1026130E+00
         21   -1    0    0  502  501  0.00000000000E+00  0.00000000000E+00  0.11691238893E+03  0.11691238893E+03  0.00000000000E+00 0. -1.
         21   -1    0    0  501  502 -0.00000000000E+00 -0.00000000000E+00 -0.44343016498E+03  0.44343016498E+03  0.00000000000E+00 0. -1.
      99926    2    1    2    0    0  0.17763568394E-14 -0.88817841970E-15 -0.32651777606E+03  0.56034255391E+03  0.45537887483E+03 0.  0.
      99925    2    3    3    0    0  0.59300702447E+01 -0.71821128811E+01 -0.34459865447E+03  0.43360986380E+03  0.26302572657E+03 0.  0.
         25    1    4    4    0    0 -0.25487794813E+02 -0.88418040864E+01 -0.12472266734E+03  0.17869263285E+03  0.12509000000E+03 0.  0.
         25    1    4    4    0    0  0.31417865058E+02  0.16596912053E+01 -0.21987598713E+03  0.25491723095E+03  0.12509000000E+03 0.  0.
         25    1    3    3    0    0 -0.59300702447E+01  0.71821128811E+01  0.18080878416E+02  0.12673269011E+03  0.12509000000E+03 0.  0.
<mgrwt>
<rscale>  2 0.45537887E+03</rscale>
<asrwt>0</asrwt>
<pdfrwt beam="1">  1       21 0.17192998E-01 0.45537887E+03</pdfrwt>
<pdfrwt beam="2">  1       21 0.65210319E-01 0.45537887E+03</pdfrwt>
<totfact> 0.61005170E+04</totfact>
</mgrwt>
</event>
<event>
 6    0  0.4788920E-002  0.4549465E+03  0.7546771E-02  0.1026257E+00
         21   -1    0    0  502  501  0.00000000000E+00  0.00000000000E+00  0.92322571612E+02  0.92322571612E+02  0.00000000000E+00 0. -1.
         21   -1    0    0  501  502 -0.00000000000E+00 -0.00000000000E+00 -0.56047054634E+03  0.56047054634E+03  0.00000000000E+00 0. -1.
      99926    2    1    2    0    0  0.00000000000E+00  0.00000000000E+00 -0.46814797473E+03  0.65279311795E+03  0.45494651181E+03 0.  0.
         25    1    3    3    0    0 -0.94247523734E+02 -0.51418794917E+02 -0.20256534261E+03  0.26116415208E+03  0.12509000000E+03 0.  0.
         25    1    3    3    0    0  0.68116875452E+02  0.41098652454E+02 -0.19602597794E+03  0.24576960773E+03  0.12509000000E+03 0.  0.
         25    1    3    3    0    0  0.26130648282E+02  0.10320142463E+02 -0.69556654172E+02  0.14585935815E+03  0.12509000000E+03 0.  0.
<mgrwt>
<rscale>  2 0.45494651E+03</rscale>
<asrwt>0</asrwt>
<pdfrwt beam="1">  1       21 0.13576849E-01 0.45494651E+03</pdfrwt>
<pdfrwt beam="2">  1       21 0.82422135E-01 0.45494651E+03</pdfrwt>
<totfact> 0.55564309E+04</totfact>
</mgrwt>
</event>
<event>
 7    0  0.4788920E-002  0.4796300E+03  0.7546771E-02  0.1019237E+00
         21   -1    0    0  502  501  0.00000000000E+00  0.00000000000E+00  0.10706525145E+03  0.10706525145E+03  0.00000000000E+00 0. -1.
         21   -1    0    0  501  502 -0.00000000000E+00 -0.00000000000E+00 -0.53716048929E+03  0.53716048929E+03  0.00000000000E+00 0. -1.
      99926    2    1    2    0    0  0.00000000000E+00  0.71054273576E-14 -0.43009523784E+03  0.64422574073E+03  0.47962995258E+03 0.  0.
      99925    2    3    3    0    0 -0.10929902869E+03 -0.45802986084E+02 -0.17829685542E+03  0.33911244260E+03  0.26298914211E+03 0.  0.
         25    1    4    4    0    0 -0.49587025766E+02  0.17918922924E+02 -0.89462689639E+02  0.16257626475E+03  0.12509000000E+03 0.  0.
         25    1    3    3    0    0  0.10929902869E+03  0.45802986084E+02 -0.25179838242E+03  0.30511329813E+03  0.12509000000E+03 0.  0.
         25    1    4    4    0    0 -0.59712002920E+02 -0.63721909008E+02 -0.88834165784E+02  0.17653617785E+03  0.12509000000E+03 0.  0.
<mgrwt>
<rscale>  2 0.47962995E+03</rscale>
<asrwt>0</asrwt>
<pdfrwt beam="1">  1       21 0.15744890E-01 0.47962995E+03</pdfrwt>
<pdfrwt beam="2">  1       21 0.78994190E-01 0.47962995E+03</pdfrwt>
<totfact> 0.46347605E+04</totfact>
</mgrwt>
</event>
<event>
 7    0  0.4788920E-002  0.4555820E+03  0.7546771E-02  0.1026070E+00
         21   -1    0    0  502  501  0.00000000000E+00  0.00000000000E+00  0.41986072761E+02  0.41986072761E+02  0.00000000000E+00 0.  1.
         21   -1    0    0  501  502 -0.00000000000E+00 -0.00000000000E+00 -0.12358560939E+04  0.12358560939E+04  0.00000000000E+00 0.  1.
      99926    2    1    2    0    0 -0.71054273576E-14  0.00000000000E+00 -0.11938700211E+04  0.12778421667E+04  0.45558201844E+03 0.  0.
      99925    2    3    3    0    0  0.51107427864E+02 -0.91741627818E+01 -0.46747705604E+03  0.53893054658E+03  0.26308782121E+03 0.  0.
         25    1    3    3    0    0 -0.51107427864E+02  0.91741627818E+01 -0.72639296510E+03  0.73891162008E+03  0.12509000000E+03 0.  0.
         25    1    4    4    0    0  0.44611762812E+02 -0.87860307826E+01 -0.16814686524E+03  0.21444878202E+03  0.12509000000E+03 0.  0.
         25    1    4    4    0    0  0.64956650521E+01 -0.38813199922E+00 -0.29933019080E+03  0.32448176456E+03  0.12509000000E+03 0.  0.
<mgrwt>
<rscale>  2 0.45558202E+03</rscale>
<asrwt>0</asrwt>
<pdfrwt beam="1">  1       21 0.61744229E-02 0.45558202E+03</pdfrwt>
<pdfrwt beam="2">  1       21 0.18174353E+00 0.45558202E+03</pdfrwt>
<totfact> 0.29630689E+04</totfact>
</mgrwt>
</event>
<event>
 7    0  0.4788920E-002  0.4483835E+03  0.7546771E-02  0.1028205E+00
         21   -1    0    0  502  501  0.00000000000E+00  0.00000000000E+00  0.32358118430E+02  0.32358118430E+02  0.00000000000E+00 0.  1.
         21   -1    0    0  501  502 -0.00000000000E+00 -0.00000000000E+00 -0.15533024083E+04  0.15533024083E+04  0.00000000000E+00 0.  1.
      99926    2    1    2    0    0  0.00000000000E+00  0.00000000000E+00 -0.15209442898E+04  0.15856605267E+04  0.44838351123E+03 0.  0.
      99925    2    3    3    0    0  0.61939408298E+01 -0.10628350331E+03 -0.99513151885E+03  0.10347874685E+04  0.26299014667E+03 0.  0.
         25    1    4    4    0    0  0.40878647331E+02 -0.39838490994E+02 -0.45561154567E+03  0.47590708948E+03  0.12509000000E+03 0.  0.
         25    1    4    4    0    0 -0.34684706501E+02 -0.66445012318E+02 -0.53951997318E+03  0.55888037905E+03  0.12509000000E+03 0.  0.
         25    1    3    3    0    0 -0.61939408298E+01  0.10628350331E+03 -0.52581277100E+03  0.55087305818E+03  0.12509000000E+03 0.  0.
<mgrwt>
<rscale>  2 0.44838351E+03</rscale>
<asrwt>0</asrwt>
<pdfrwt beam="1">  1       21 0.47585459E-02 0.44838351E+03</pdfrwt>
<pdfrwt beam="2">  1       21 0.22842687E+00 0.44838351E+03</pdfrwt>
<totfact> 0.22910328E+04</totfact>
</mgrwt>
</event>
<event>
 7    0  0.4788920E-002  0.4522564E+03  0.7546771E-02  0.1027051E+00
         21   -1    0    0  502  501  0.00000000000E+00  0.00000000000E+00  0.10993497569E+03  0.10993497569E+03  0.00000000000E+00 0. -1.
         21   -1    0    0  501  502 -0.00000000000E+00 -0.00000000000E+00 -0.46512925040E+03  0.46512925040E+03  0.00000000000E+00 0. -1.
      99926    2    1    2    0    0 -0.14210854715E-13  0.00000000000E+00 -0.35519427472E+03  0.57506422609E+03  0.45225644422E+03 0.  0.
      99925    2    3    3    0    0 -0.68030497309E+02  0.72585709743E+02 -0.16260553469E+03  0.32479484181E+03  0.26297204325E+03 0.  0.
         25    1    3    3    0    0  0.68030497309E+02 -0.72585709743E+02 -0.19258874002E+03  0.25026938428E+03  0.12509000000E+03 0.  0.
         25    1    4    4    0    0  0.55736148414E+01  0.41497405595E+02 -0.88902249306E+02  0.15907299546E+03  0.12509000000E+03 0.  0.
         25    1    4    4    0    0 -0.73604112151E+02  0.31088304148E+02 -0.73703285387E+02  0.16572184635E+03  0.12509000000E+03 0.  0.
<mgrwt>
<rscale>  2 0.45225644E+03</rscale>
<asrwt>0</asrwt>
<pdfrwt beam="1">  1       21 0.16166908E-01 0.45225644E+03</pdfrwt>
<pdfrwt beam="2">  1       21 0.68401361E-01 0.45225644E+03</pdfrwt>
<totfact> 0.61564655E+04</totfact>
</mgrwt>
</event>
<event>
 7    0  0.4788920E-002  0.4562490E+03  0.7546771E-02  0.1025875E+00
         21   -1    0    0  502  501  0.00000000000E+00  0.00000000000E+00  0.35401610099E+02  0.35401610099E+02  0.00000000000E+00 0.  1.
         21   -1    0    0  501  502 -0.00000000000E+00 -0.00000000000E+00 -0.14700118465E+04  0.14700118465E+04  0.00000000000E+00 0.  1.
      99926    2    1    2    0    0  0.00000000000E+00  0.00000000000E+00 -0.14346102364E+04  0.15054134566E+04  0.45624899443E+03 0.  0.
      99925    2    3    3    0    0 -0.37439964383E+02  0.92212072794E+02 -0.71621779639E+03  0.76945148525E+03  0.26302630855E+03 0.  0.
         25    1    4    4    0    0 -0.14638568164E+02  0.20968115676E+02 -0.42551703464E+03  0.44425916357E+03  0.12509000000E+03 0.  0.
         25    1    3    3    0    0  0.37439964383E+02 -0.92212072794E+02 -0.71839244003E+03  0.73596197136E+03  0.12509000000E+03 0.  0.
         25    1    4    4    0    0 -0.22801396219E+02  0.71243957118E+02 -0.29070076175E+03  0.32519232168E+03  0.12509000000E+03 0.  0.
<mgrwt>
<rscale>  2 0.45624899E+03</rscale>
<asrwt>0</asrwt>
<pdfrwt beam="1">  1       21 0.52061182E-02 0.45624899E+03</pdfrwt>
<pdfrwt beam="2">  1       21 0.21617825E+00 0.45624899E+03</pdfrwt>
<totfact> 0.23418732E+04</totfact>
</mgrwt>
</event>
<event>
 7    0  0.4788920E-002  0.4550474E+03  0.7546771E-02  0.1026227E+00
         21   -1    0    0  502  501  0.00000000000E+00  0.00000000000E+00  0.53813167425E+03  0.53813167425E+03  0.00000000000E+00 0. -1.
         21   -1    0    0  501  502 -0.00000000000E+00 -0.00000000000E+00 -0.96197723378E+02  0.96197723378E+02  0.00000000000E+00 0. -1.
      99926    2    1    2    0    0  0.00000000000E+00  0.00000000000E+00  0.44193395087E+03  0.63432939763E+03  0.45504743463E+03 0.  0.
      99925    2    3    3    0    0 -0.10568226579E+03  0.39481710568E+02  0.26294800212E+03  0.38854285462E+03  0.26286184829E+03 0.  0.
         25    1    4    4    0    0 -0.61917505079E+02 -0.18652211413E+02  0.14136658768E+03  0.19953371303E+03  0.12509000000E+03 0.  0.
         25    1    3    3    0    0  0.10568226579E+03 -0.39481710568E+02  0.17898594875E+03  0.24578654300E+03  0.12509000000E+03 0.  0.
         25    1    4    4    0    0 -0.43764760715E+02  0.58133921982E+02  0.12158141445E+03  0.18900914159E+03  0.12509000000E+03 0.  0.
<mgrwt>
<rscale>  2 0.45504743E+03</rscale>
<asrwt>0</asrwt>
<pdfrwt beam="1">  1       21 0.79137010E-01 0.45504743E+03</pdfrwt>
<pdfrwt beam="2">  1       21 0.14146724E-01 0.45504743E+03</pdfrwt>
<totfact> 0.56592235E+04</totfact>
</mgrwt>
</event>
<event>
 7    0  0.4788920E-002  0.4596988E+03  0.7546771E-02  0.1024869E+00
         21   -1    0    0  502  501  0.00000000000E+00  0.00000000000E+00  0.30507195498E+03  0.30507195498E+03  0.00000000000E+00 0.  1.
         21   -1    0    0  501  502 -0.00000000000E+00 -0.00000000000E+00 -0.17317470551E+03  0.17317470551E+03  0.00000000000E+00 0.  1.
      99926    2    1    2    0    0  0.71054273576E-14  0.00000000000E+00  0.13189724947E+03  0.47824666049E+03  0.45969879687E+03 0.  0.
      99925    2    3    3    0    0  0.53246964453E+02  0.10182455531E+03  0.56650640283E+02  0.29246980622E+03  0.26291788303E+03 0.  0.
         25    1    4    4    0    0 -0.57193838802E+01  0.35342344495E+02  0.48342626950E+02  0.13880313522E+03  0.12509000000E+03 0.  0.
         25    1    3    3    0    0 -0.53246964453E+02 -0.10182455531E+03  0.75246609187E+02  0.18577685427E+03  0.12509000000E+03 0.  0.
         25    1    4    4    0    0  0.58966348333E+02  0.66482210814E+02  0.83080133337E+01  0.15366667100E+03  0.12509000000E+03 0.  0.
<mgrwt>
<rscale>  2 0.45969880E+03</rscale>
<asrwt>0</asrwt>
<pdfrwt beam="1">  1       21 0.44863523E-01 0.45969880E+03</pdfrwt>
<pdfrwt beam="2">  1       21 0.25466868E-01 0.45969880E+03</pdfrwt>
<totfact> 0.64393055E+04</totfact>
</mgrwt>
</event>
<event>
 7    0  0.4788920E-002  0.3901279E+03  0.7546771E-02  0.1047253E+00
         21   -1    0    0  502  501  0.00000000000E+00  0.00000000000E+00  0.11198192518E+04  0.11198192518E+04  0.00000000000E+00 0. -1.
         21   -1    0    0  501  502 -0.00000000000E+00 -0.00000000000E+00 -0.33978645634E+02  0.33978645634E+02  0.00000000000E+00 0. -1.
      99926    2    1    2    0    0  0.00000000000E+00  0.00000000000E+00  0.10858406061E+04  0.11537978974E+04  0.39012788432E+03 0.  0.
      99925    2    3    3    0    0  0.48084227757E+01  0.17875593396E+02  0.72680058463E+03  0.77314069872E+03  0.26299200069E+03 0.  0.
         25    1    4    4    0    0  0.42669072793E+02  0.42738440527E+01  0.36726195725E+03  0.39034314245E+03  0.12509000000E+03 0.  0.
         25    1    3    3    0    0 -0.48084227757E+01 -0.17875593396E+02  0.35904002151E+03  0.38065719869E+03  0.12509000000E+03 0.  0.
         25    1    4    4    0    0 -0.37860650017E+02  0.13601749344E+02  0.35953862738E+03  0.38279755627E+03  0.12509000000E+03 0.  0.
<mgrwt>
<rscale>  2 0.39012788E+03</rscale>
<asrwt>0</asrwt>
<pdfrwt beam="1">  1       21 0.16467928E+00 0.39012788E+03</pdfrwt>
<pdfrwt beam="2">  1       21 0.49968604E-02 0.39012788E+03</pdfrwt>
<totfact> 0.57807479E+04</totfact>
</mgrwt>
</event>
<event>
 7    0  0.4788920E-002  0.4559022E+03  0.7546771E-02  0.1025976E+00
         21   -1    0    0  502  501  0.00000000000E+00  0.00000000000E+00  0.51362590790E+03  0.51362590790E+03  0.00000000000E+00 0.  1.
         21   -1    0    0  501  502 -0.00000000000E+00 -0.00000000000E+00 -0.10116644718E+03  0.10116644718E+03  0.00000000000E+00 0.  1.
      99926    2    1    2    0    0  0.71054273576E-14  0.14210854715E-13  0.41245946071E+03  0.61479235508E+03  0.45590221882E+03 0.  0.
      99925    2    3    3    0    0  0.60727817901E+02  0.92165889406E+02  0.29892705241E+03  0.41300153548E+03  0.26273649654E+03 0.  0.
         25    1    4    4    0    0  0.52157301023E+01  0.12256596937E+02  0.14679455289E+03  0.19332246860E+03  0.12509000000E+03 0.  0.
         25    1    3    3    0    0 -0.60727817901E+02 -0.92165889406E+02  0.11353240831E+03  0.20179081959E+03  0.12509000000E+03 0.  0.
         25    1    4    4    0    0  0.55512087799E+02  0.79909292469E+02  0.15213249952E+03  0.21967906688E+03  0.12509000000E+03 0.  0.
<mgrwt>
<rscale>  2 0.45590222E+03</rscale>
<asrwt>0</asrwt>
<pdfrwt beam="1">  1       21 0.75533221E-01 0.45590222E+03</pdfrwt>
<pdfrwt beam="2">  1       21 0.14877419E-01 0.45590222E+03</pdfrwt>
<totfact> 0.57367010E+04</totfact>
</mgrwt>
</event>
<event>
 7    0  0.4788920E-002  0.4545264E+03  0.7546771E-02  0.1026381E+00
         21   -1    0    0  502  501  0.00000000000E+00  0.00000000000E+00  0.35345621802E+03  0.35345621802E+03  0.00000000000E+00 0. -1.
         21   -1    0    0  501  502 -0.00000000000E+00 -0.00000000000E+00 -0.14612437953E+03  0.14612437953E+03  0.00000000000E+00 0. -1.
      99926    2    1    2    0    0  0.00000000000E+00  0.00000000000E+00  0.20733183849E+03  0.49958059755E+03  0.45452643729E+03 0.  0.
      99925    2    3    3    0    0  0.41546069784E+02  0.78720713793E+02  0.54632440255E+02  0.28304505540E+03  0.26307180229E+03 0.  0.
         25    1    3    3    0    0 -0.41546069784E+02 -0.78720713793E+02  0.15269939824E+03  0.21653554216E+03  0.12509000000E+03 0.  0.
         25    1    4    4    0    0  0.44624008071E+02  0.80013171922E+01  0.14638676717E+02  0.13385485471E+03  0.12509000000E+03 0.  0.
         25    1    4    4    0    0 -0.30779382873E+01  0.70719396600E+02  0.39993763538E+02  0.14919020069E+03  0.12509000000E+03 0.  0.
<mgrwt>
<rscale>  2 0.45452644E+03</rscale>
<asrwt>0</asrwt>
<pdfrwt beam="1">  1       21 0.51978855E-01 0.45452644E+03</pdfrwt>
<pdfrwt beam="2">  1       21 0.21488879E-01 0.45452644E+03</pdfrwt>
<totfact> 0.65546188E+04</totfact>
</mgrwt>
</event>
<event>
 7    0  0.4788920E-002  0.4566103E+03  0.7546771E-02  0.1025769E+00
         21   -1    0    0  502  501  0.00000000000E+00  0.00000000000E+00  0.20959355178E+03  0.20959355178E+03  0.00000000000E+00 0.  1.
         21   -1    0    0  501  502 -0.00000000000E+00 -0.00000000000E+00 -0.24868721448E+03  0.24868721448E+03  0.00000000000E+00 0.  1.
      99926    2    1    2    0    0  0.00000000000E+00  0.00000000000E+00 -0.39093662704E+02  0.45828076626E+03  0.45661027831E+03 0.  0.
      99925    2    3    3    0    0 -0.36226771597E+02  0.77902463998E+02  0.51670619668E+02  0.28145645817E+03  0.26299565022E+03 0.  0.
         25    1    4    4    0    0 -0.65641939033E+01  0.39480371941E+02  0.65142226667E+02  0.14660425030E+03  0.12509000000E+03 0.  0.
         25    1    3    3    0    0  0.36226771597E+02 -0.77902463998E+02 -0.90764282371E+02  0.17682430809E+03  0.12509000000E+03 0.  0.
         25    1    4    4    0    0 -0.29662577694E+02  0.38422092056E+02 -0.13471606999E+02  0.13485220787E+03  0.12509000000E+03 0.  0.
<mgrwt>
<rscale>  2 0.45661028E+03</rscale>
<asrwt>0</asrwt>
<pdfrwt beam="1">  1       21 0.30822581E-01 0.45661028E+03</pdfrwt>
<pdfrwt beam="2">  1       21 0.36571649E-01 0.45661028E+03</pdfrwt>
<totfact> 0.67435560E+04</totfact>
</mgrwt>
</event>
<event>
 7    0  0.4788920E-002  0.4565677E+03  0.7546771E-02  0.1025781E+00
         21   -1    0    0  502  501  0.00000000000E+00  0.00000000000E+00  0.21017796860E+03  0.21017796860E+03  0.00000000000E+00 0. -1.
         21   -1    0    0  501  502 -0.00000000000E+00 -0.00000000000E+00 -0.24794948435E+03  0.24794948435E+03  0.00000000000E+00 0. -1.
      99926    2    1    2    0    0  0.00000000000E+00  0.00000000000E+00 -0.37771515748E+02  0.45812745295E+03  0.45656771212E+03 0.  0.
      99925    2    3    3    0    0  0.45371920113E+02  0.60397776344E+02  0.62738848505E+02  0.28076808911E+03  0.26303622227E+03 0.  0.
         25    1    3    3    0    0 -0.45371920113E+02 -0.60397776344E+02 -0.10051036425E+03  0.17735936385E+03  0.12509000000E+03 0.  0.
         25    1    4    4    0    0 -0.17617628332E+02  0.21916127966E+02  0.23899203199E+02  0.13042000424E+03  0.12509000000E+03 0.  0.
         25    1    4    4    0    0  0.62989548445E+02  0.38481648378E+02  0.38839645306E+02  0.15034808487E+03  0.12509000000E+03 0.  0.
<mgrwt>
<rscale>  2 0.45656771E+03</rscale>
<asrwt>0</asrwt>
<pdfrwt beam="1">  1       21 0.30908525E-01 0.45656771E+03</pdfrwt>
<pdfrwt beam="2">  1       21 0.36463159E-01 0.45656771E+03</pdfrwt>
<totfact> 0.67469428E+04</totfact>
</mgrwt>
</event>
<event>
 7    0  0.4788920E-002  0.4410444E+03  0.7546771E-02  0.1030427E+00
         21   -1    0    0  502  501  0.00000000000E+00  0.00000000000E+00  0.12955330975E+03  0.12955330975E+03  0.00000000000E+00 0. -1.
         21   -1    0    0  501  502 -0.00000000000E+00 -0.00000000000E+00 -0.37536704713E+03  0.37536704713E+03  0.00000000000E+00 0. -1.
      99926    2    1    2    0    0  0.17763568394E-14  0.00000000000E+00 -0.24581373738E+03  0.50492035688E+03  0.44104441194E+03 0.  0.
      99925    2    3    3    0    0  0.15345324761E+02  0.98263696479E+02 -0.16193183891E+03  0.32443513857E+03  0.26295437941E+03 0.  0.
         25    1    4    4    0    0 -0.27201430722E+02  0.26335223176E+02 -0.75915064660E+02  0.15114253854E+03  0.12509000000E+03 0.  0.
         25    1    3    3    0    0 -0.15345324761E+02 -0.98263696479E+02 -0.83881898469E+02  0.18048521831E+03  0.12509000000E+03 0.  0.
         25    1    4    4    0    0  0.42546755483E+02  0.71928473303E+02 -0.86016774255E+02  0.17329260004E+03  0.12509000000E+03 0.  0.
<mgrwt>
<rscale>  2 0.44104441E+03</rscale>
<asrwt>0</asrwt>
<pdfrwt beam="1">  1       21 0.19051957E-01 0.44104441E+03</pdfrwt>
<pdfrwt beam="2">  1       21 0.55201036E-01 0.44104441E+03</pdfrwt>
<totfact> 0.72644075E+04</totfact>
</mgrwt>
</event>
<event>
 7    0  0.4788920E-002  0.4509317E+03  0.7546771E-02  0.1027445E+00
         21   -1    0    0  502  501  0.00000000000E+00  0.00000000000E+00  0.15181992277E+03  0.15181992277E+03  0.00000000000E+00 0. -1.
         21   -1    0    0  501  502 -0.00000000000E+00 -0.00000000000E+00 -0.33483643565E+03  0.33483643565E+03  0.00000000000E+00 0. -1.
      99926    2    1    2    0    0  0.00000000000E+00  0.00000000000E+00 -0.18301651289E+03  0.48665635842E+03  0.45093166577E+03 0.  0.
      99925    2    3    3    0    0 -0.11861628033E+02 -0.10715165188E+03 -0.96571167345E+02  0.30026300932E+03  0.26307738346E+03 0.  0.
         25    1    4    4    0    0 -0.11512782080E+02 -0.63703474462E+02 -0.82487147760E+01  0.14108942627E+03  0.12509000000E+03 0.  0.
         25    1    3    3    0    0  0.11861628033E+02  0.10715165188E+03 -0.86445345541E+02  0.18639334909E+03  0.12509000000E+03 0.  0.
         25    1    4    4    0    0 -0.34884595377E+00 -0.43448177418E+02 -0.88322452569E+02  0.15917358305E+03  0.12509000000E+03 0.  0.
<mgrwt>
<rscale>  2 0.45093167E+03</rscale>
<asrwt>0</asrwt>
<pdfrwt beam="1">  1       21 0.22326459E-01 0.45093167E+03</pdfrwt>
<pdfrwt beam="2">  1       21 0.49240652E-01 0.45093167E+03</pdfrwt>
<totfact> 0.68401279E+04</totfact>
</mgrwt>
</event>
<event>
 7    0  0.4788920E-002  0.4712574E+03  0.7546771E-02  0.1021566E+00
         21   -1    0    0  502  501  0.00000000000E+00  0.00000000000E+00  0.59369714249E+02  0.59369714249E+02  0.00000000000E+00 0.  1.
         21   -1    0    0  501  502 -0.00000000000E+00 -0.00000000000E+00 -0.93517183162E+03  0.93517183162E+03  0.00000000000E+00 0.  1.
      99926    2    1    2    0    0  0.00000000000E+00  0.00000000000E+00 -0.87580211737E+03  0.99454154587E+03  0.47125740065E+03 0.  0.
      99925    2    3    3    0    0 -0.41438405797E+02  0.11681505624E+03 -0.60911517499E+03  0.67496005050E+03  0.26303397982E+03 0.  0.
         25    1    4    4    0    0 -0.10667989344E+02  0.81505027735E+02 -0.24484308733E+03  0.28697128960E+03  0.12509000000E+03 0.  0.
         25    1    4    4    0    0 -0.30770416453E+02  0.35310028506E+02 -0.36427208766E+03  0.38798876091E+03  0.12509000000E+03 0.  0.
         25    1    3    3    0    0  0.41438405797E+02 -0.11681505624E+03 -0.26668694238E+03  0.31958149536E+03  0.12509000000E+03 0.  0.
<mgrwt>
<rscale>  2 0.47125740E+03</rscale>
<asrwt>0</asrwt>
<pdfrwt beam="1">  1       21 0.87308398E-02 0.47125740E+03</pdfrwt>
<pdfrwt beam="2">  1       21 0.13752528E+00 0.47125740E+03</pdfrwt>
<totfact> 0.34752594E+04</totfact>
</mgrwt>
</event>
<event>
 7    0  0.4788920E-002  0.4554317E+03  0.7546771E-02  0.1026115E+00
         21   -1    0    0  502  501  0.00000000000E+00  0.00000000000E+00  0.77947040652E+03  0.77947040652E+03  0.00000000000E+00 0.  1.
         21   -1    0    0  501  502 -0.00000000000E+00 -0.00000000000E+00 -0.66525297922E+02  0.66525297922E+02  0.00000000000E+00 0.  1.
      99926    2    1    2    0    0  0.00000000000E+00  0.00000000000E+00  0.71294510860E+03  0.84599570444E+03  0.45543166783E+03 0.  0.
      99925    2    3    3    0    0 -0.19183276904E+01  0.10543742086E+03  0.36984003377E+03  0.46587818291E+03  0.26294505327E+03 0.  0.
         25    1    3    3    0    0  0.19183276904E+01 -0.10543742086E+03  0.34310507483E+03  0.38011752153E+03  0.12509000000E+03 0.  0.
         25    1    4    4    0    0 -0.22041710299E+01  0.19495378504E+02  0.12575450568E+03  0.17845624660E+03  0.12509000000E+03 0.  0.
         25    1    4    4    0    0  0.28584333951E+00  0.85942042355E+02  0.24408552809E+03  0.28742193631E+03  0.12509000000E+03 0.  0.
<mgrwt>
<rscale>  2 0.45543167E+03</rscale>
<asrwt>0</asrwt>
<pdfrwt beam="1">  1       21 0.11462800E+00 0.45543167E+03</pdfrwt>
<pdfrwt beam="2">  1       21 0.97831325E-02 0.45543167E+03</pdfrwt>
<totfact> 0.45464882E+04</totfact>
</mgrwt>
</event>
<event>
 7    0  0.4788920E-002  0.4561412E+03  0.7546771E-02  0.1025906E+00
         21   -1    0    0  502  501  0.00000000000E+00  0.00000000000E+00  0.13085082015E+03  0.13085082015E+03  0.00000000000E+00 0.  1.
         21   -1    0    0  501  502 -0.00000000000E+00 -0.00000000000E+00 -0.39752297758E+03  0.39752297758E+03  0.00000000000E+00 0.  1.
      99926    2    1    2    0    0  0.14210854715E-13  0.00000000000E+00 -0.26667215744E+03  0.52837379773E+03  0.45614123972E+03 0.  0.
      99925    2    3    3    0    0  0.10499690641E+03 -0.44660067479E+02 -0.16159957284E+03  0.32910857719E+03  0.26301931803E+03 0.  0.
         25    1    3    3    0    0 -0.10499690641E+03  0.44660067479E+02 -0.10507258460E+03  0.19926522054E+03  0.12509000000E+03 0.  0.
         25    1    4    4    0    0  0.85642563534E+02 -0.28761799005E+02 -0.58271341415E+02  0.16493922245E+03  0.12509000000E+03 0.  0.
         25    1    4    4    0    0  0.19354342874E+02 -0.15898268474E+02 -0.10332823142E+03  0.16416935475E+03  0.12509000000E+03 0.  0.
<mgrwt>
<rscale>  2 0.45614124E+03</rscale>
<asrwt>0</asrwt>
<pdfrwt beam="1">  1       21 0.19242768E-01 0.45614124E+03</pdfrwt>
<pdfrwt beam="2">  1       21 0.58459262E-01 0.45614124E+03</pdfrwt>
<totfact> 0.62747215E+04</totfact>
</mgrwt>
</event>
<event>
 7    0  0.4788920E-002  0.4441367E+03  0.7546771E-02  0.1029485E+00
         21   -1    0    0  502  501  0.00000000000E+00  0.00000000000E+00  0.43179183842E+02  0.43179183842E+02  0.00000000000E+00 0.  1.
         21   -1    0    0  501  502 -0.00000000000E+00 -0.00000000000E+00 -0.11420863647E+04  0.11420863647E+04  0.00000000000E+00 0.  1.
      99926    2    1    2    0    0  0.00000000000E+00  0.71054273576E-14 -0.10989071809E+04  0.11852655486E+04  0.44413672267E+03 0.  0.
      99925    2    3    3    0    0 -0.37799126968E+02  0.32762410454E+02 -0.45929363409E+03  0.53161797772E+03  0.26299217170E+03 0.  0.
         25    1    4    4    0    0 -0.39973448848E+02 -0.18264888001E+02 -0.22564542543E+03  0.26171520564E+03  0.12509000000E+03 0.  0.
         25    1    4    4    0    0  0.21743218799E+01  0.51027298455E+02 -0.23364820866E+03  0.26990277207E+03  0.12509000000E+03 0.  0.
         25    1    3    3    0    0  0.37799126968E+02 -0.32762410454E+02 -0.63961354678E+03  0.65364757084E+03  0.12509000000E+03 0.  0.
<mgrwt>
<rscale>  2 0.44413672E+03</rscale>
<asrwt>0</asrwt>
<pdfrwt beam="1">  1       21 0.63498793E-02 0.44413672E+03</pdfrwt>
<pdfrwt beam="2">  1       21 0.16795390E+00 0.44413672E+03</pdfrwt>
<totfact> 0.35540518E+04</totfact>
</mgrwt>
</event>
<event>
 7    0  0.4788920E-002  0.4529156E+03  0.7546771E-02  0.1026856E+00
         21   -1    0    0  502  501  0.00000000000E+00  0.00000000000E+00  0.34425669479E+03  0.34425669479E+03  0.00000000000E+00 0.  1.
         21   -1    0    0  501  502 -0.00000000000E+00 -0.00000000000E+00 -0.14896775052E+03  0.14896775052E+03  0.00000000000E+00 0.  1.
      99926    2    1    2    0    0  0.00000000000E+00  0.00000000000E+00  0.19528894427E+03  0.49322444532E+03  0.45291564524E+03 0.  0.
      99925    2    3    3    0    0 -0.91348152684E+02  0.14379901901E+02  0.19042273713E+03  0.33758879821E+03  0.26297169294E+03 0.  0.
         25    1    4    4    0    0 -0.81781823742E+02 -0.11761371678E+02  0.90765263095E+02  0.17524964377E+03  0.12509000000E+03 0.  0.
         25    1    4    4    0    0 -0.95663289420E+01  0.26141273579E+02  0.99657474030E+02  0.16233915444E+03  0.12509000000E+03 0.  0.
         25    1    3    3    0    0  0.91348152684E+02 -0.14379901901E+02  0.48662071458E+01  0.15563564710E+03  0.12509000000E+03 0.  0.
<mgrwt>
<rscale>  2 0.45291565E+03</rscale>
<asrwt>0</asrwt>
<pdfrwt beam="1">  1       21 0.50625985E-01 0.45291565E+03</pdfrwt>
<pdfrwt beam="2">  1       21 0.21907022E-01 0.45291565E+03</pdfrwt>
<totfact> 0.66848631E+04</totfact>
</mgrwt>
</event>
<event>
 7    0  0.4788920E-002  0.4498034E+03  0.7546771E-02  0.1027781E+00
         21   -1    0    0  502  501  0.00000000000E+00  0.00000000000E+00  0.35038622975E+03  0.35038622975E+03  0.00000000000E+00 0. -1.
         21   -1    0    0  501  502 -0.00000000000E+00 -0.00000000000E+00 -0.14435718030E+03  0.14435718030E+03  0.00000000000E+00 0. -1.
      99926    2    1    2    0    0  0.00000000000E+00  0.00000000000E+00  0.20602904945E+03  0.49474341006E+03  0.44980337102E+03 0.  0.
      99925    2    3    3    0    0 -0.96048038775E+01  0.97268828329E+02  0.82707680136E+02  0.29372314876E+03  0.26434683759E+03 0.  0.
         25    1    3    3    0    0  0.96048038775E+01 -0.97268828329E+02  0.12332136932E+03  0.20102026130E+03  0.12509000000E+03 0.  0.
         25    1    4    4    0    0  0.33527327417E+02  0.42074567171E+02  0.59031901737E+02  0.14841369347E+03  0.12509000000E+03 0.  0.
         25    1    4    4    0    0 -0.43132131294E+02  0.55194261158E+02  0.23675778399E+02  0.14530945529E+03  0.12509000000E+03 0.  0.
<mgrwt>
<rscale>  2 0.44980337E+03</rscale>
<asrwt>0</asrwt>
<pdfrwt beam="1">  1       21 0.51527387E-01 0.44980337E+03</pdfrwt>
<pdfrwt beam="2">  1       21 0.21228997E-01 0.44980337E+03</pdfrwt>
<totfact> 0.68420809E+04</totfact>
</mgrwt>
</event>
<event>
 7    0  0.4788920E-002  0.4445494E+03  0.7546771E-02  0.1029360E+00
         21   -1    0    0  502  501  0.00000000000E+00  0.00000000000E+00  0.10601209649E+03  0.10601209649E+03  0.00000000000E+00 0.  1.
         21   -1    0    0  501  502 -0.00000000000E+00 -0.00000000000E+00 -0.46604148132E+03  0.46604148132E+03  0.00000000000E+00 0.  1.
      99926    2    1    2    0    0  0.00000000000E+00  0.55511151231E-15 -0.36002938484E+03  0.57205357781E+03  0.44454936502E+03 0.  0.
      99925    2    3    3    0    0  0.23581493638E+02  0.60733144013E+00 -0.99743255883E+02  0.28230742560E+03  0.26304431141E+03 0.  0.
         25    1    3    3    0    0 -0.23581493638E+02 -0.60733144013E+00 -0.26028612895E+03  0.28974615221E+03  0.12509000000E+03 0.  0.
         25    1    4    4    0    0 -0.11325586051E+02  0.31785617769E+02 -0.61263001321E+02  0.14331523934E+03  0.12509000000E+03 0.  0.
         25    1    4    4    0    0  0.34907079689E+02 -0.31178286329E+02 -0.38480254562E+02  0.13899218626E+03  0.12509000000E+03 0.  0.
<mgrwt>
<rscale>  2 0.44454937E+03</rscale>
<asrwt>0</asrwt>
<pdfrwt beam="1">  1       21 0.15590014E-01 0.44454937E+03</pdfrwt>
<pdfrwt beam="2">  1       21 0.68535513E-01 0.44454937E+03</pdfrwt>
<totfact> 0.65695011E+04</totfact>
</mgrwt>
</event>
<event>
 7    0  0.4788920E-002  0.4564563E+03  0.7546771E-02  0.1025814E+00
         21   -1    0    0  502  501  0.00000000000E+00  0.00000000000E+00  0.72200872773E+03  0.72200872773E+03  0.00000000000E+00 0.  1.
         21   -1    0    0  501  502 -0.00000000000E+00 -0.00000000000E+00 -0.72143307232E+02  0.72143307232E+02  0.00000000000E+00 0.  1.
      99926    2    1    2    0    0  0.00000000000E+00  0.00000000000E+00  0.64986542050E+03  0.79415203496E+03  0.45645633951E+03 0.  0.
      99925    2    3    3    0    0 -0.68018081720E+02  0.73982104057E+02  0.50337229302E+03  0.57687903696E+03  0.26326022629E+03 0.  0.
         25    1    4    4    0    0 -0.13134266391E+02  0.55326911744E+02  0.18962812763E+03  0.23417922838E+03  0.12509000000E+03 0.  0.
         25    1    4    4    0    0 -0.54883815329E+02  0.18655192313E+02  0.31374416539E+03  0.34269980859E+03  0.12509000000E+03 0.  0.
         25    1    3    3    0    0  0.68018081720E+02 -0.73982104057E+02  0.14649312748E+03  0.21727299800E+03  0.12509000000E+03 0.  0.
<mgrwt>
<rscale>  2 0.45645634E+03</rscale>
<asrwt>0</asrwt>
<pdfrwt beam="1">  1       21 0.10617775E+00 0.45645634E+03</pdfrwt>
<pdfrwt beam="2">  1       21 0.10609310E-01 0.45645634E+03</pdfrwt>
<totfact> 0.47503700E+04</totfact>
</mgrwt>
</event>
<event>
 7    0  0.4788920E-002  0.4546651E+03  0.7546771E-02  0.1026340E+00
         21   -1    0    0  502  501  0.00000000000E+00  0.00000000000E+00  0.17248590814E+04  0.17248590814E+04  0.00000000000E+00 0. -1.
         21   -1    0    0  501  502 -0.00000000000E+00 -0.00000000000E+00 -0.29961924498E+02  0.29961924498E+02  0.00000000000E+00 0. -1.
      99926    2    1    2    0    0  0.00000000000E+00  0.00000000000E+00  0.16948971569E+04  0.17548210059E+04  0.45466514081E+03 0.  0.
      99925    2    3    3    0    0 -0.52688177235E+02 -0.90853259271E+02  0.90756064273E+03  0.95072110328E+03  0.26300938624E+03 0.  0.
         25    1    3    3    0    0  0.52688177235E+02  0.90853259271E+02  0.78733651417E+03  0.80409990262E+03  0.12509000000E+03 0.  0.
         25    1    4    4    0    0 -0.19690936212E+02 -0.57750180086E+02  0.33433372022E+03  0.36214549679E+03  0.12509000000E+03 0.  0.
         25    1    4    4    0    0 -0.32997241023E+02 -0.33103079185E+02  0.57322692251E+03  0.58857560649E+03  0.12509000000E+03 0.  0.
<mgrwt>
<rscale>  2 0.45466514E+03</rscale>
<asrwt>0</asrwt>
<pdfrwt beam="1">  1       21 0.25365568E+00 0.45466514E+03</pdfrwt>
<pdfrwt beam="2">  1       21 0.44061665E-02 0.45466514E+03</pdfrwt>
<totfact> 0.18191193E+04</totfact>
</mgrwt>
</event>
<event>
 7    0  0.4788920E-002  0.4558706E+03  0.7546771E-02  0.1025986E+00
         21   -1    0    0  502  501  0.00000000000E+00  0.00000000000E+00  0.76779525040E+03  0.76779525040E+03  0.00000000000E+00 0.  1.
         21   -1    0    0  501  502 -0.00000000000E+00 -0.00000000000E+00 -0.67667136816E+02  0.67667136816E+02  0.00000000000E+00 0.  1.
      99926    2    1    2    0    0  0.00000000000E+00  0.00000000000E+00  0.70012811359E+03  0.83546238722E+03  0.45587062312E+03 0.  0.
      99925    2    3    3    0    0 -0.60952524842E+02 -0.60805877253E+02  0.57714687399E+03  0.64005394732E+03  0.26297904160E+03 0.  0.
         25    1    4    4    0    0 -0.34404141201E+02 -0.45317398350E+02  0.21001188865E+03  0.25097771415E+03  0.12509000000E+03 0.  0.
         25    1    4    4    0    0 -0.26548383641E+02 -0.15488478903E+02  0.36713498534E+03  0.38907623317E+03  0.12509000000E+03 0.  0.
         25    1    3    3    0    0  0.60952524842E+02  0.60805877253E+02  0.12298123960E+03  0.19540843990E+03  0.12509000000E+03 0.  0.
<mgrwt>
<rscale>  2 0.45587062E+03</rscale>
<asrwt>0</asrwt>
<pdfrwt beam="1">  1       21 0.11291106E+00 0.45587062E+03</pdfrwt>
<pdfrwt beam="2">  1       21 0.99510500E-02 0.45587062E+03</pdfrwt>
<totfact> 0.45783332E+04</totfact>
</mgrwt>
</event>
<event>
 7    0  0.4788920E-002  0.4526141E+03  0.7546771E-02  0.1026945E+00
         21   -1    0    0  502  501  0.00000000000E+00  0.00000000000E+00  0.31430784591E+02  0.31430784591E+02  0.00000000000E+00 0. -1.
         21   -1    0    0  501  502 -0.00000000000E+00 -0.00000000000E+00 -0.16294495980E+04  0.16294495980E+04  0.00000000000E+00 0. -1.
      99926    2    1    2    0    0  0.00000000000E+00  0.00000000000E+00 -0.15980188134E+04  0.16608803826E+04  0.45261409309E+03 0.  0.
      99925    2    3    3    0    0  0.46720589559E+02 -0.99709862401E+02 -0.10564368649E+04  0.10942381805E+04  0.26300850933E+03 0.  0.
         25    1    4    4    0    0 -0.14498849015E+02 -0.59476360577E+02 -0.47427567146E+03  0.49430008571E+03  0.12509000000E+03 0.  0.
         25    1    4    4    0    0  0.61219438574E+02 -0.40233501824E+02 -0.58216119346E+03  0.59993809480E+03  0.12509000000E+03 0.  0.
         25    1    3    3    0    0 -0.46720589559E+02  0.99709862401E+02 -0.54158194853E+03  0.56664220211E+03  0.12509000000E+03 0.  0.
<mgrwt>
<rscale>  2 0.45261409E+03</rscale>
<asrwt>0</asrwt>
<pdfrwt beam="1">  1       21 0.46221748E-02 0.45261409E+03</pdfrwt>
<pdfrwt beam="2">  1       21 0.23962491E+00 0.45261409E+03</pdfrwt>
<totfact> 0.20464864E+04</totfact>
</mgrwt>
</event>
<event>
 7    0  0.4788920E-002  0.4511738E+03  0.7546771E-02  0.1027373E+00
         21   -1    0    0  502  501  0.00000000000E+00  0.00000000000E+00  0.20715799520E+03  0.20715799520E+03  0.00000000000E+00 0. -1.
         21   -1    0    0  501  502 -0.00000000000E+00 -0.00000000000E+00 -0.24565526891E+03  0.24565526891E+03  0.00000000000E+00 0. -1.
      99926    2    1    2    0    0  0.00000000000E+00 -0.35527136788E-14 -0.38497273710E+02  0.45281326410E+03  0.45117381580E+03 0.  0.
      99925    2    3    3    0    0  0.10313200409E+03  0.23204395944E+02  0.19263343744E+01  0.28412351797E+03  0.26371918482E+03 0.  0.
         25    1    4    4    0    0  0.55071360043E+02 -0.29233219395E+02 -0.70434903024E+01  0.13994482723E+03  0.12509000000E+03 0.  0.
         25    1    4    4    0    0  0.48060644051E+02  0.52437615339E+02  0.89698246768E+01  0.14417869074E+03  0.12509000000E+03 0.  0.
         25    1    3    3    0    0 -0.10313200409E+03 -0.23204395944E+02 -0.40423608084E+02  0.16868974613E+03  0.12509000000E+03 0.  0.
<mgrwt>
<rscale>  2 0.45117382E+03</rscale>
<asrwt>0</asrwt>
<pdfrwt beam="1">  1       21 0.30464411E-01 0.45117382E+03</pdfrwt>
<pdfrwt beam="2">  1       21 0.36125775E-01 0.45117382E+03</pdfrwt>
<totfact> 0.70844467E+04</totfact>
</mgrwt>
</event>
<event>
 7    0  0.4788920E-002  0.4540951E+03  0.7546771E-02  0.1026508E+00
         21   -1    0    0  502  501  0.00000000000E+00  0.00000000000E+00  0.81845493647E+02  0.81845493647E+02  0.00000000000E+00 0.  1.
         21   -1    0    0  501  502 -0.00000000000E+00 -0.00000000000E+00 -0.62985263846E+03  0.62985263846E+03  0.00000000000E+00 0.  1.
      99926    2    1    2    0    0  0.00000000000E+00  0.00000000000E+00 -0.54800714481E+03  0.71169813211E+03  0.45409514474E+03 0.  0.
      99925    2    3    3    0    0  0.77472255835E+02 -0.72457956876E+02 -0.40218419604E+03  0.49223527323E+03  0.26323246518E+03 0.  0.
         25    1    4    4    0    0  0.56117713453E+02 -0.24104954140E+02 -0.14262698150E+03  0.19929929886E+03  0.12509000000E+03 0.  0.
         25    1    4    4    0    0  0.21354542382E+02 -0.48353002736E+02 -0.25955721454E+03  0.29293597436E+03  0.12509000000E+03 0.  0.
         25    1    3    3    0    0 -0.77472255835E+02  0.72457956876E+02 -0.14582294878E+03  0.21946285888E+03  0.12509000000E+03 0.  0.
<mgrwt>
<rscale>  2 0.45409514E+03</rscale>
<asrwt>0</asrwt>
<pdfrwt beam="1">  1       21 0.12036102E-01 0.45409514E+03</pdfrwt>
<pdfrwt beam="2">  1       21 0.92625386E-01 0.45409514E+03</pdfrwt>
<totfact> 0.52646216E+04</totfact>
</mgrwt>
</event>
<event>
 7    0  0.4788920E-002  0.4573864E+03  0.7546771E-02  0.1025542E+00
         21   -1    0    0  502  501  0.00000000000E+00  0.00000000000E+00  0.19437779951E+03  0.19437779951E+03  0.00000000000E+00 0. -1.
         21   -1    0    0  501  502 -0.00000000000E+00 -0.00000000000E+00 -0.26906668451E+03  0.26906668451E+03  0.00000000000E+00 0. -1.
      99926    2    1    2    0    0  0.14210854715E-13  0.71054273576E-14 -0.74688884994E+02  0.46344448402E+03  0.45738644517E+03 0.  0.
      99925    2    3    3    0    0  0.10725675033E+03  0.33564599436E+02 -0.20612137003E+02  0.28680248561E+03  0.26305933311E+03 0.  0.
         25    1    4    4    0    0  0.46334053542E+02 -0.20866467756E+01 -0.45647862255E+02  0.14100508516E+03  0.12509000000E+03 0.  0.
         25    1    3    3    0    0 -0.10725675033E+03 -0.33564599436E+02 -0.54076747991E+02  0.17664199840E+03  0.12509000000E+03 0.  0.
         25    1    4    4    0    0  0.60922696788E+02  0.35651246212E+02  0.25035725252E+02  0.14579740045E+03  0.12509000000E+03 0.  0.
<mgrwt>
<rscale>  2 0.45738645E+03</rscale>
<asrwt>0</asrwt>
<pdfrwt beam="1">  1       21 0.28584970E-01 0.45738645E+03</pdfrwt>
<pdfrwt beam="2">  1       21 0.39568630E-01 0.45738645E+03</pdfrwt>
<totfact> 0.66652257E+04</totfact>
</mgrwt>
</event>
<event>
 7    0  0.4788920E-002  0.4398234E+03  0.7546771E-02  0.1030801E+00
         21   -1    0    0  502  501  0.00000000000E+00  0.00000000000E+00  0.27692268415E+03  0.27692268415E+03  0.00000000000E+00 0. -1.
         21   -1    0    0  501  502 -0.00000000000E+00 -0.00000000000E+00 -0.17463776657E+03  0.17463776657E+03  0.00000000000E+00 0. -1.
      99926    2    1    2    0    0  0.00000000000E+00  0.00000000000E+00  0.10228491758E+03  0.45156045072E+03  0.43982341489E+03 0.  0.
      99925    2    3    3    0    0  0.72493270595E+02  0.55348934508E+02  0.28119516131E+02  0.27990150483E+03  0.26312614158E+03 0.  0.
         25    1    3    3    0    0 -0.72493270595E+02 -0.55348934508E+02  0.74165401448E+02  0.17165894589E+03  0.12509000000E+03 0.  0.
         25    1    4    4    0    0  0.43911752976E+01  0.33747335716E+02 -0.12474548167E+02  0.13023550799E+03  0.12509000000E+03 0.  0.
         25    1    4    4    0    0  0.68102095297E+02  0.21601598792E+02  0.40594064298E+02  0.14966599684E+03  0.12509000000E+03 0.  0.
<mgrwt>
<rscale>  2 0.43982341E+03</rscale>
<asrwt>0</asrwt>
<pdfrwt beam="1">  1       21 0.40723924E-01 0.43982341E+03</pdfrwt>
<pdfrwt beam="2">  1       21 0.25682024E-01 0.43982341E+03</pdfrwt>
<totfact> 0.77782109E+04</totfact>
</mgrwt>
</event>
<event>
 7    0  0.4788920E-002  0.4460500E+03  0.7546771E-02  0.1028907E+00
         21   -1    0    0  502  501  0.00000000000E+00  0.00000000000E+00  0.32676403878E+03  0.32676403878E+03  0.00000000000E+00 0. -1.
         21   -1    0    0  501  502 -0.00000000000E+00 -0.00000000000E+00 -0.15222036782E+03  0.15222036782E+03  0.00000000000E+00 0. -1.
      99926    2    1    2    0    0  0.00000000000E+00  0.00000000000E+00  0.17454367095E+03  0.47898440660E+03  0.44604996211E+03 0.  0.
      99925    2    3    3    0    0 -0.32482948501E+01 -0.85854197878E+02  0.17466746914E+03  0.32723125791E+03  0.26304006665E+03 0.  0.
         25    1    3    3    0    0  0.32482948501E+01  0.85854197878E+02 -0.12379818781E+00  0.15175314869E+03  0.12509000000E+03 0.  0.
         25    1    4    4    0    0 -0.31020102237E+02 -0.34766520036E+02  0.54132416406E+02  0.14404438297E+03  0.12509000000E+03 0.  0.
         25    1    4    4    0    0  0.27771807387E+02 -0.51087677841E+02  0.12053505274E+03  0.18318687494E+03  0.12509000000E+03 0.  0.
<mgrwt>
<rscale>  2 0.44604996E+03</rscale>
<asrwt>0</asrwt>
<pdfrwt beam="1">  1       21 0.48053535E-01 0.44604996E+03</pdfrwt>
<pdfrwt beam="2">  1       21 0.22385348E-01 0.44604996E+03</pdfrwt>
<totfact> 0.71736923E+04</totfact>
</mgrwt>
</event>
<event>
 7    0  0.4788920E-002  0.4473340E+03  0.7546771E-02  0.1028520E+00
         21   -1    0    0  502  501  0.00000000000E+00  0.00000000000E+00  0.63827749577E+03  0.63827749577E+03  0.00000000000E+00 0. -1.
         21   -1    0    0  501  502 -0.00000000000E+00 -0.00000000000E+00 -0.78378006849E+02  0.78378006849E+02  0.00000000000E+00 0. -1.
      99926    2    1    2    0    0  0.00000000000E+00  0.00000000000E+00  0.55989948892E+03  0.71665550262E+03  0.44733395997E+03 0.  0.
      99925    2    3    3    0    0  0.55951363819E+02  0.73310478352E+02  0.43823144789E+03  0.51928376792E+03  0.26287610838E+03 0.  0.
         25    1    4    4    0    0 -0.10311917778E+02  0.30527870660E+02  0.17737425388E+03  0.21942520497E+03  0.12509000000E+03 0.  0.
         25    1    3    3    0    0 -0.55951363819E+02 -0.73310478352E+02  0.12166804103E+03  0.19737173470E+03  0.12509000000E+03 0.  0.
         25    1    4    4    0    0  0.66263281597E+02  0.42782607691E+02  0.26085719401E+03  0.29985856295E+03  0.12509000000E+03 0.  0.
<mgrwt>
<rscale>  2 0.44733396E+03</rscale>
<asrwt>0</asrwt>
<pdfrwt beam="1">  1       21 0.93864335E-01 0.44733396E+03</pdfrwt>
<pdfrwt beam="2">  1       21 0.11526178E-01 0.44733396E+03</pdfrwt>
<totfact> 0.55266052E+04</totfact>
</mgrwt>
</event>
<event>
 7    0  0.4788920E-002  0.4543698E+03  0.7546771E-02  0.1026427E+00
         21   -1    0    0  502  501  0.00000000000E+00  0.00000000000E+00  0.19465739163E+04  0.19465739163E+04  0.00000000000E+00 0. -1.
         21   -1    0    0  501  502 -0.00000000000E+00 -0.00000000000E+00 -0.26514778433E+02  0.26514778433E+02  0.00000000000E+00 0. -1.
      99926    2    1    2    0    0  0.00000000000E+00 -0.14210854715E-13  0.19200591379E+04  0.19730886948E+04  0.45436978815E+03 0.  0.
      99925    2    3    3    0    0 -0.17389514395E+02  0.76206252834E+02  0.85754338810E+03  0.90038322967E+03  0.26305799666E+03 0.  0.
         25    1    3    3    0    0  0.17389514395E+02 -0.76206252834E+02  0.10625157498E+04  0.10727054651E+04  0.12509000000E+03 0.  0.
         25    1    4    4    0    0 -0.24612641326E+02  0.42629924368E+01  0.46163471362E+03  0.47893430879E+03  0.12509000000E+03 0.  0.
         25    1    4    4    0    0  0.72231269307E+01  0.71943260398E+02  0.39590867449E+03  0.42144892088E+03  0.12509000000E+03 0.  0.
<mgrwt>
<rscale>  2 0.45436979E+03</rscale>
<asrwt>0</asrwt>
<pdfrwt beam="1">  1       21 0.28626077E+00 0.45436979E+03</pdfrwt>
<pdfrwt beam="2">  1       21 0.38992334E-02 0.45436979E+03</pdfrwt>
<totfact> 0.14223666E+04</totfact>
</mgrwt>
</event>
<event>
 7    0  0.4788920E-002  0.4554924E+03  0.7546771E-02  0.1026097E+00
         21   -1    0    0  502  501  0.00000000000E+00  0.00000000000E+00  0.10815568433E+04  0.10815568433E+04  0.00000000000E+00 0. -1.
         21   -1    0    0  501  502 -0.00000000000E+00 -0.00000000000E+00 -0.47957095961E+02  0.47957095961E+02  0.00000000000E+00 0. -1.
      99926    2    1    2    0    0  0.00000000000E+00  0.00000000000E+00  0.10335997474E+04  0.11295139393E+04  0.45549237237E+03 0.  0.
      99925    2    3    3    0    0  0.24221935140E+02  0.91702168597E+02  0.80512931478E+03  0.85230961657E+03  0.26306364080E+03 0.  0.
         25    1    3    3    0    0 -0.24221935140E+02 -0.91702168597E+02  0.22847043259E+03  0.27720432272E+03  0.12509000000E+03 0.  0.
         25    1    4    4    0    0  0.10550643436E+02  0.34021189540E+02  0.51010186775E+03  0.52642205596E+03  0.12509000000E+03 0.  0.
         25    1    4    4    0    0  0.13671291704E+02  0.57680979057E+02  0.29502744703E+03  0.32588756061E+03  0.12509000000E+03 0.  0.
<mgrwt>
<rscale>  2 0.45549237E+03</rscale>
<asrwt>0</asrwt>
<pdfrwt beam="1">  1       21 0.15905246E+00 0.45549237E+03</pdfrwt>
<pdfrwt beam="2">  1       21 0.70525148E-02 0.45549237E+03</pdfrwt>
<totfact> 0.34341765E+04</totfact>
</mgrwt>
</event>
<event>
 7    0  0.4788920E-002  0.4554649E+03  0.7546771E-02  0.1026105E+00
         21   -1    0    0  502  501  0.00000000000E+00  0.00000000000E+00  0.19672053829E+03  0.19672053829E+03  0.00000000000E+00 0.  1.
         21   -1    0    0  501  502 -0.00000000000E+00 -0.00000000000E+00 -0.26363327400E+03  0.26363327400E+03  0.00000000000E+00 0.  1.
      99926    2    1    2    0    0  0.71054273576E-14 -0.38857805862E-14 -0.66912735715E+02  0.46035381229E+03  0.45546494738E+03 0.  0.
      99925    2    3    3    0    0 -0.55928292071E+02 -0.58498635089E+00 -0.14202525594E+03  0.30409212518E+03  0.26300671324E+03 0.  0.
         25    1    4    4    0    0 -0.46396993262E+02  0.34195956438E+02 -0.60077241201E+02  0.15026252837E+03  0.12509000000E+03 0.  0.
         25    1    3    3    0    0  0.55928292071E+02  0.58498635089E+00  0.75112520221E+02  0.15626168711E+03  0.12509000000E+03 0.  0.
         25    1    4    4    0    0 -0.95312988095E+01 -0.34780942788E+02 -0.81948014736E+02  0.15382959682E+03  0.12509000000E+03 0.  0.
<mgrwt>
<rscale>  2 0.45546495E+03</rscale>
<asrwt>0</asrwt>
<pdfrwt beam="1">  1       21 0.28929491E-01 0.45546495E+03</pdfrwt>
<pdfrwt beam="2">  1       21 0.38769599E-01 0.45546495E+03</pdfrwt>
<totfact> 0.67902677E+04</totfact>
</mgrwt>
</event>
<event>
 7    0  0.4788920E-002  0.4543571E+03  0.7546771E-02  0.1026431E+00
         21   -1    0    0  502  501  0.00000000000E+00  0.00000000000E+00  0.49798348474E+02  0.49798348474E+02  0.00000000000E+00 0. -1.
         21   -1    0    0  501  502 -0.00000000000E+00 -0.00000000000E+00 -0.10363817356E+04  0.10363817356E+04  0.00000000000E+00 0. -1.
      99926    2    1    2    0    0  0.00000000000E+00  0.00000000000E+00 -0.98658338709E+03  0.10861800840E+04  0.45435712306E+03 0.  0.
      99925    2    3    3    0    0  0.65172691455E+02 -0.90448649403E+02 -0.66001381204E+03  0.71913290269E+03  0.26287917710E+03 0.  0.
         25    1    4    4    0    0  0.26708204909E+02 -0.79595577550E+02 -0.29552918428E+03  0.33171341703E+03  0.12509000000E+03 0.  0.
         25    1    3    3    0    0 -0.65172691455E+02  0.90448649403E+02 -0.32656957505E+03  0.36704718135E+03  0.12509000000E+03 0.  0.
         25    1    4    4    0    0  0.38464486546E+02 -0.10853071853E+02 -0.36448462777E+03  0.38741948566E+03  0.12509000000E+03 0.  0.
<mgrwt>
<rscale>  2 0.45435712E+03</rscale>
<asrwt>0</asrwt>
<pdfrwt beam="1">  1       21 0.73232870E-02 0.45435712E+03</pdfrwt>
<pdfrwt beam="2">  1       21 0.15240907E+00 0.45435712E+03</pdfrwt>
<totfact> 0.36158178E+04</totfact>
</mgrwt>
</event>
<event>
 7    0  0.4788920E-002  0.4788143E+03  0.7546771E-02  0.1019462E+00
         21   -1    0    0  502  501  0.00000000000E+00  0.00000000000E+00  0.40070445620E+02  0.40070445620E+02  0.00000000000E+00 0. -1.
         21   -1    0    0  501  502 -0.00000000000E+00 -0.00000000000E+00 -0.14303757115E+04  0.14303757115E+04  0.00000000000E+00 0. -1.
      99926    2    1    2    0    0 -0.14210854715E-13  0.35527136788E-14 -0.13903052659E+04  0.14704461571E+04  0.47881433631E+03 0.  0.
      99925    2    3    3    0    0  0.71583188920E+02 -0.59014819783E+01 -0.50844365570E+03  0.57686550154E+03  0.26286855159E+03 0.  0.
         25    1    4    4    0    0  0.27355949577E+02 -0.34706425683E+02 -0.20171515877E+03  0.24143197249E+03  0.12509000000E+03 0.  0.
         25    1    3    3    0    0 -0.71583188920E+02  0.59014819783E+01 -0.88186161015E+03  0.89358065556E+03  0.12509000000E+03 0.  0.
         25    1    4    4    0    0  0.44227239343E+02  0.28804943705E+02 -0.30672849693E+03  0.33543352905E+03  0.12509000000E+03 0.  0.
<mgrwt>
<rscale>  2 0.47881434E+03</rscale>
<asrwt>0</asrwt>
<pdfrwt beam="1">  1       21 0.58927122E-02 0.47881434E+03</pdfrwt>
<pdfrwt beam="2">  1       21 0.21034938E+00 0.47881434E+03</pdfrwt>
<totfact> 0.20458377E+04</totfact>
</mgrwt>
</event>
<event>
 7    0  0.4788920E-002  0.4522609E+03  0.7546771E-02  0.1027050E+00
         21   -1    0    0  502  501  0.00000000000E+00  0.00000000000E+00  0.85363335782E+03  0.85363335782E+03  0.00000000000E+00 0. -1.
         21   -1    0    0  501  502 -0.00000000000E+00 -0.00000000000E+00 -0.59902739268E+02  0.59902739268E+02  0.00000000000E+00 0. -1.
      99926    2    1    2    0    0  0.00000000000E+00  0.00000000000E+00  0.79373061855E+03  0.91353609709E+03  0.45226088252E+03 0.  0.
      99925    2    3    3    0    0  0.91405211453E+02 -0.48468261494E+01  0.62636238521E+03  0.68541762340E+03  0.26284801019E+03 0.  0.
         25    1    4    4    0    0  0.75170762720E+02 -0.62913799518E+01  0.26389170254E+03  0.30162321495E+03  0.12509000000E+03 0.  0.
         25    1    4    4    0    0  0.16234448734E+02  0.14445538024E+01  0.36247068267E+03  0.38379440845E+03  0.12509000000E+03 0.  0.
         25    1    3    3    0    0 -0.91405211453E+02  0.48468261494E+01  0.16736823335E+03  0.22811847369E+03  0.12509000000E+03 0.  0.
<mgrwt>
<rscale>  2 0.45226088E+03</rscale>
<asrwt>0</asrwt>
<pdfrwt beam="1">  1       21 0.12553431E+00 0.45226088E+03</pdfrwt>
<pdfrwt beam="2">  1       21 0.88092269E-02 0.45226088E+03</pdfrwt>
<totfact> 0.43580174E+04</totfact>
</mgrwt>
</event>
<event>
 7    0  0.4788920E-002  0.4476499E+03  0.7546771E-02  0.1028425E+00
         21   -1    0    0  502  501  0.00000000000E+00  0.00000000000E+00  0.16587606358E+03  0.16587606358E+03  0.00000000000E+00 0.  1.
         21   -1    0    0  501  502 -0.00000000000E+00 -0.00000000000E+00 -0.30201832105E+03  0.30201832105E+03  0.00000000000E+00 0.  1.
      99926    2    1    2    0    0  0.00000000000E+00  0.00000000000E+00 -0.13614225747E+03  0.46789438463E+03  0.44764990886E+03 0.  0.
      99925    2    3    3    0    0  0.40650143456E+02 -0.92940677160E+02 -0.53444742620E+02  0.28685076918E+03  0.26293843316E+03 0.  0.
         25    1    4    4    0    0  0.35489654909E+02 -0.40337393603E+02  0.10907121631E+02  0.13657633152E+03  0.12509000000E+03 0.  0.
         25    1    4    4    0    0  0.51604885469E+01 -0.52603283557E+02 -0.64351864252E+02  0.15027443767E+03  0.12509000000E+03 0.  0.
         25    1    3    3    0    0 -0.40650143456E+02  0.92940677160E+02 -0.82697514846E+02  0.18104361545E+03  0.12509000000E+03 0.  0.
<mgrwt>
<rscale>  2 0.44764991E+03</rscale>
<asrwt>0</asrwt>
<pdfrwt beam="1">  1       21 0.24393539E-01 0.44764991E+03</pdfrwt>
<pdfrwt beam="2">  1       21 0.44414458E-01 0.44764991E+03</pdfrwt>
<totfact> 0.71682678E+04</totfact>
</mgrwt>
</event>
<event>
 7    0  0.4788920E-002  0.4623619E+03  0.7546771E-02  0.1024098E+00
         21   -1    0    0  502  501  0.00000000000E+00  0.00000000000E+00  0.77054901950E+02  0.77054901950E+02  0.00000000000E+00 0. -1.
         21   -1    0    0  501  502 -0.00000000000E+00 -0.00000000000E+00 -0.69359171848E+03  0.69359171848E+03  0.00000000000E+00 0. -1.
      99926    2    1    2    0    0  0.35527136788E-14  0.00000000000E+00 -0.61653681653E+03  0.77064662043E+03  0.46236194420E+03 0.  0.
      99925    2    3    3    0    0  0.20751778401E+02  0.10874493799E+03 -0.46219024822E+03  0.54321208239E+03  0.26306547295E+03 0.  0.
         25    1    4    4    0    0 -0.27386374371E+02  0.55457368173E+02 -0.19835200266E+03  0.24252125318E+03  0.12509000000E+03 0.  0.
         25    1    3    3    0    0 -0.20751778401E+02 -0.10874493799E+03 -0.15434656831E+03  0.22743453804E+03  0.12509000000E+03 0.  0.
         25    1    4    4    0    0  0.48138152773E+02  0.53287569813E+02 -0.26383824556E+03  0.30069082921E+03  0.12509000000E+03 0.  0.
<mgrwt>
<rscale>  2 0.46236194E+03</rscale>
<asrwt>0</asrwt>
<pdfrwt beam="1">  1       21 0.11331603E-01 0.46236194E+03</pdfrwt>
<pdfrwt beam="2">  1       21 0.10199878E+00 0.46236194E+03</pdfrwt>
<totfact> 0.46472835E+04</totfact>
</mgrwt>
</event>
<event>
 7    0  0.4788920E-002  0.4584715E+03  0.7546771E-02  0.1025225E+00
         21   -1    0    0  502  501  0.00000000000E+00  0.00000000000E+00  0.11116365445E+04  0.11116365445E+04  0.00000000000E+00 0. -1.
         21   -1    0    0  501  502 -0.00000000000E+00 -0.00000000000E+00 -0.47271768013E+02  0.47271768013E+02  0.00000000000E+00 0. -1.
      99926    2    1    2    0    0 -0.35527136788E-14  0.00000000000E+00  0.10643647765E+04  0.11589083125E+04  0.45847148155E+03 0.  0.
      99925    2    3    3    0    0 -0.11328508504E+02  0.97262003557E+02  0.82674761360E+03  0.87308029318E+03  0.26300066407E+03 0.  0.
         25    1    4    4    0    0  0.31031847441E+02  0.31450110643E+02  0.36770726789E+03  0.39090693006E+03  0.12509000000E+03 0.  0.
         25    1    4    4    0    0 -0.42360355946E+02  0.65811892914E+02  0.45904034571E+03  0.48217336311E+03  0.12509000000E+03 0.  0.
         25    1    3    3    0    0  0.11328508504E+02 -0.97262003557E+02  0.23761716291E+03  0.28582801936E+03  0.12509000000E+03 0.  0.
<mgrwt>
<rscale>  2 0.45847148E+03</rscale>
<asrwt>0</asrwt>
<pdfrwt beam="1">  1       21 0.16347595E+00 0.45847148E+03</pdfrwt>
<pdfrwt beam="2">  1       21 0.69517313E-02 0.45847148E+03</pdfrwt>
<totfact> 0.32595544E+04</totfact>
</mgrwt>
</event>
<event>
 7    0  0.4788920E-002  0.4481558E+03  0.7546771E-02  0.1028273E+00
         21   -1    0    0  502  501  0.00000000000E+00  0.00000000000E+00  0.29502078337E+02  0.29502078337E+02  0.00000000000E+00 0.  1.
         21   -1    0    0  501  502 -0.00000000000E+00 -0.00000000000E+00 -0.17019449575E+04  0.17019449575E+04  0.00000000000E+00 0.  1.
      99926    2    1    2    0    0  0.00000000000E+00  0.00000000000E+00 -0.16724428792E+04  0.17314470358E+04  0.44815583656E+03 0.  0.
      99925    2    3    3    0    0  0.66797660510E+02  0.51813305250E+02 -0.81169893406E+03  0.85756249359E+03  0.26346104988E+03 0.  0.
         25    1    4    4    0    0  0.50536520431E+02 -0.91542098002E+01 -0.44126227579E+03  0.46151667748E+03  0.12509000000E+03 0.  0.
         25    1    3    3    0    0 -0.66797660510E+02 -0.51813305250E+02 -0.86074394510E+03  0.87388454224E+03  0.12509000000E+03 0.  0.
         25    1    4    4    0    0  0.16261140078E+02  0.60967515050E+02 -0.37043665827E+03  0.39604581611E+03  0.12509000000E+03 0.  0.
<mgrwt>
<rscale>  2 0.44815584E+03</rscale>
<asrwt>0</asrwt>
<pdfrwt beam="1">  1       21 0.43385404E-02 0.44815584E+03</pdfrwt>
<pdfrwt beam="2">  1       21 0.25028605E+00 0.44815584E+03</pdfrwt>
<totfact> 0.19637562E+04</totfact>
</mgrwt>
</event>
<event>
 7    0  0.4788920E-002  0.4548367E+03  0.7546771E-02  0.1026289E+00
         21   -1    0    0  502  501  0.00000000000E+00  0.00000000000E+00  0.35452769417E+02  0.35452769417E+02  0.00000000000E+00 0. -1.
         21   -1    0    0  501  502 -0.00000000000E+00 -0.00000000000E+00 -0.14588169597E+04  0.14588169597E+04  0.00000000000E+00 0. -1.
      99926    2    1    2    0    0 -0.14210854715E-13  0.00000000000E+00 -0.14233641903E+04  0.14942697291E+04  0.45483667968E+03 0.  0.
      99925    2    3    3    0    0 -0.10813660526E+03  0.21345555414E+02 -0.81163715216E+03  0.86022979709E+03  0.26285219973E+03 0.  0.
         25    1    3    3    0    0  0.10813660526E+03 -0.21345555414E+02 -0.61172703815E+03  0.63403993205E+03  0.12509000000E+03 0.  0.
         25    1    4    4    0    0 -0.82218351364E+02  0.41187414354E+02 -0.41751619594E+03  0.44544757534E+03  0.12509000000E+03 0.  0.
         25    1    4    4    0    0 -0.25918253898E+02 -0.19841858940E+02 -0.39412095622E+03  0.41478222175E+03  0.12509000000E+03 0.  0.
<mgrwt>
<rscale>  2 0.45483668E+03</rscale>
<asrwt>0</asrwt>
<pdfrwt beam="1">  1       21 0.52136431E-02 0.45483668E+03</pdfrwt>
<pdfrwt beam="2">  1       21 0.21453188E+00 0.45483668E+03</pdfrwt>
<totfact> 0.23950284E+04</totfact>
</mgrwt>
</event>
<event>
 7    0  0.4788920E-002  0.4510602E+03  0.7546771E-02  0.1027406E+00
         21   -1    0    0  502  501  0.00000000000E+00  0.00000000000E+00  0.22994390572E+04  0.22994390572E+04  0.00000000000E+00 0.  1.
         21   -1    0    0  501  502 -0.00000000000E+00 -0.00000000000E+00 -0.22120101496E+02  0.22120101496E+02  0.00000000000E+00 0.  1.
      99926    2    1    2    0    0 -0.88817841970E-15  0.00000000000E+00  0.22773189558E+04  0.23215591587E+04  0.45106019700E+03 0.  0.
      99925    2    3    3    0    0  0.66570514530E+01  0.84059071429E+02  0.17971881485E+04  0.18182865249E+04  0.26300266467E+03 0.  0.
         25    1    3    3    0    0 -0.66570514530E+01 -0.84059071429E+02  0.48013080721E+03  0.50327263382E+03  0.12509000000E+03 0.  0.
         25    1    4    4    0    0  0.27281086312E+02  0.57423152678E+02  0.11261376943E+04  0.11348459326E+04  0.12509000000E+03 0.  0.
         25    1    4    4    0    0 -0.20624034859E+02  0.26635918751E+02  0.67105045421E+03  0.68344059228E+03  0.12509000000E+03 0.  0.
<mgrwt>
<rscale>  2 0.45106020E+03</rscale>
<asrwt>0</asrwt>
<pdfrwt beam="1">  1       21 0.33815264E+00 0.45106020E+03</pdfrwt>
<pdfrwt beam="2">  1       21 0.32529577E-02 0.45106020E+03</pdfrwt>
<totfact> 0.94195664E+03</totfact>
</mgrwt>
</event>
<event>
 7    0  0.4788920E-002  0.4611152E+03  0.7546771E-02  0.1024458E+00
         21   -1    0    0  502  501  0.00000000000E+00  0.00000000000E+00  0.39393613305E+02  0.39393613305E+02  0.00000000000E+00 0. -1.
         21   -1    0    0  501  502 -0.00000000000E+00 -0.00000000000E+00 -0.13493760284E+04  0.13493760284E+04  0.00000000000E+00 0. -1.
      99926    2    1    2    0    0  0.00000000000E+00  0.00000000000E+00 -0.13099824151E+04  0.13887696417E+04  0.46111515901E+03 0.  0.
      99925    2    3    3    0    0  0.64960410775E+01  0.11426330491E+03 -0.72347162643E+03  0.77824469158E+03  0.26297396133E+03 0.  0.
         25    1    4    4    0    0  0.24484077493E+01  0.88900988604E+02 -0.46994331472E+03  0.49437193248E+03  0.12509000000E+03 0.  0.
         25    1    4    4    0    0  0.40476333283E+01  0.25362316303E+02 -0.25352831171E+03  0.28387275911E+03  0.12509000000E+03 0.  0.
         25    1    3    3    0    0 -0.64960410775E+01 -0.11426330491E+03 -0.58651078870E+03  0.61052495015E+03  0.12509000000E+03 0.  0.
<mgrwt>
<rscale>  2 0.46111516E+03</rscale>
<asrwt>0</asrwt>
<pdfrwt beam="1">  1       21 0.57931790E-02 0.46111516E+03</pdfrwt>
<pdfrwt beam="2">  1       21 0.19843763E+00 0.46111516E+03</pdfrwt>
<totfact> 0.25403892E+04</totfact>
</mgrwt>
</event>
<event>
 7    0  0.4788920E-002  0.4414693E+03  0.7546771E-02  0.1030297E+00
         21   -1    0    0  502  501  0.00000000000E+00  0.00000000000E+00  0.52721008069E+02  0.52721008069E+02  0.00000000000E+00 0. -1.
         21   -1    0    0  501  502 -0.00000000000E+00 -0.00000000000E+00 -0.92418174018E+03  0.92418174018E+03  0.00000000000E+00 0. -1.
      99926    2    1    2    0    0  0.00000000000E+00 -0.17763568394E-14 -0.87146073212E+03  0.97690274825E+03  0.44146933294E+03 0.  0.
      99925    2    3    3    0    0  0.98502139434E+02 -0.12110904408E+02 -0.58473400101E+03  0.64871214523E+03  0.26280077999E+03 0.  0.
         25    1    4    4    0    0  0.18159012159E+02 -0.33277985161E+02 -0.26674036959E+03  0.29704394774E+03  0.12509000000E+03 0.  0.
         25    1    4    4    0    0  0.80343127275E+02  0.21167080753E+02 -0.31799363142E+03  0.35166819749E+03  0.12509000000E+03 0.  0.
         25    1    3    3    0    0 -0.98502139434E+02  0.12110904408E+02 -0.28672673111E+03  0.32819060302E+03  0.12509000000E+03 0.  0.
<mgrwt>
<rscale>  2 0.44146933E+03</rscale>
<asrwt>0</asrwt>
<pdfrwt beam="1">  1       21 0.77530901E-02 0.44146933E+03</pdfrwt>
<pdfrwt beam="2">  1       21 0.13590907E+00 0.44146933E+03</pdfrwt>
<totfact> 0.44604389E+04</totfact>
</mgrwt>
</event>
<event>
 7    0  0.4788920E-002  0.4291454E+03  0.7546771E-02  0.1034130E+00
         21   -1    0    0  502  501  0.00000000000E+00  0.00000000000E+00  0.26546821845E+03  0.26546821845E+03  0.00000000000E+00 0. -1.
         21   -1    0    0  501  502 -0.00000000000E+00 -0.00000000000E+00 -0.17343484086E+03  0.17343484086E+03  0.00000000000E+00 0. -1.
      99926    2    1    2    0    0  0.00000000000E+00 -0.35527136788E-14  0.92033377589E+02  0.43890305931E+03  0.42914537500E+03 0.  0.
      99925    2    3    3    0    0  0.73811523432E+02 -0.26189751936E+02  0.97433517865E+02  0.29121855195E+03  0.26302264256E+03 0.  0.
         25    1    3    3    0    0 -0.73811523432E+02  0.26189751936E+02 -0.54001402757E+01  0.14768450736E+03  0.12509000000E+03 0.  0.
         25    1    4    4    0    0  0.37752934440E+02  0.13611968555E+02  0.80412144687E+02  0.15402659141E+03  0.12509000000E+03 0.  0.
         25    1    4    4    0    0  0.36058588992E+02 -0.39801720490E+02  0.17021373178E+02  0.13719196055E+03  0.12509000000E+03 0.  0.
<mgrwt>
<rscale>  2 0.42914537E+03</rscale>
<asrwt>0</asrwt>
<pdfrwt beam="1">  1       21 0.39039444E-01 0.42914537E+03</pdfrwt>
<pdfrwt beam="2">  1       21 0.25505124E-01 0.42914537E+03</pdfrwt>
<totfact> 0.86181055E+04</totfact>
</mgrwt>
</event>
<event>
 7    0  0.4788920E-002  0.4419685E+03  0.7546771E-02  0.1030145E+00
         21   -1    0    0  502  501  0.00000000000E+00  0.00000000000E+00  0.31808020789E+03  0.31808020789E+03  0.00000000000E+00 0. -1.
         21   -1    0    0  501  502 -0.00000000000E+00 -0.00000000000E+00 -0.15352744918E+03  0.15352744918E+03  0.00000000000E+00 0. -1.
      99926    2    1    2    0    0  0.00000000000E+00  0.00000000000E+00  0.16455275871E+03  0.47160765707E+03  0.44196851902E+03 0.  0.
      99925    2    3    3    0    0  0.19906300111E+02  0.94040011140E+02  0.13543186930E+03  0.31118534322E+03  0.26316295738E+03 0.  0.
         25    1    3    3    0    0 -0.19906300111E+02 -0.94040011140E+02  0.29120889409E+02  0.16042231384E+03  0.12509000000E+03 0.  0.
         25    1    4    4    0    0  0.95359922152E+00  0.88359313358E+02  0.66147559261E+02  0.16682711202E+03  0.12509000000E+03 0.  0.
         25    1    4    4    0    0  0.18952700889E+02  0.56806977829E+01  0.69284310039E+02  0.14435823120E+03  0.12509000000E+03 0.  0.
<mgrwt>
<rscale>  2 0.44196852E+03</rscale>
<asrwt>0</asrwt>
<pdfrwt beam="1">  1       21 0.46776501E-01 0.44196852E+03</pdfrwt>
<pdfrwt beam="2">  1       21 0.22577566E-01 0.44196852E+03</pdfrwt>
<totfact> 0.74754145E+04</totfact>
</mgrwt>
</event>
<event>
 7    0  0.4788920E-002  0.4497128E+03  0.7546771E-02  0.1027808E+00
         21   -1    0    0  502  501  0.00000000000E+00  0.00000000000E+00  0.52371473868E+03  0.52371473868E+03  0.00000000000E+00 0.  1.
         21   -1    0    0  501  502 -0.00000000000E+00 -0.00000000000E+00 -0.96541862564E+02  0.96541862564E+02  0.00000000000E+00 0.  1.
      99926    2    1    2    0    0  0.00000000000E+00  0.00000000000E+00  0.42717287611E+03  0.62025660124E+03  0.44971278089E+03 0.  0.
      99925    2    3    3    0    0 -0.14383414364E+02 -0.39192155602E+02  0.40769138721E+03  0.48695264714E+03  0.26299753931E+03 0.  0.
         25    1    3    3    0    0  0.14383414364E+02  0.39192155602E+02  0.19481488904E+02  0.13330395410E+03  0.12509000000E+03 0.  0.
         25    1    4    4    0    0 -0.20830221012E+02 -0.13204510686E+02  0.27238393195E+03  0.30074702276E+03  0.12509000000E+03 0.  0.
         25    1    4    4    0    0  0.64468066473E+01 -0.25987644916E+02  0.13530745526E+03  0.18620562438E+03  0.12509000000E+03 0.  0.
<mgrwt>
<rscale>  2 0.44971278E+03</rscale>
<asrwt>0</asrwt>
<pdfrwt beam="1">  1       21 0.77016872E-01 0.44971278E+03</pdfrwt>
<pdfrwt beam="2">  1       21 0.14197333E-01 0.44971278E+03</pdfrwt>
<totfact> 0.59910734E+04</totfact>
</mgrwt>
</event>
<event>
 7    0  0.4788920E-002  0.4572940E+03  0.7546771E-02  0.1025569E+00
         21   -1    0    0  502  501  0.00000000000E+00  0.00000000000E+00  0.37999294113E+03  0.37999294113E+03  0.00000000000E+00 0.  1.
         21   -1    0    0  501  502 -0.00000000000E+00 -0.00000000000E+00 -0.13758004034E+03  0.13758004034E+03  0.00000000000E+00 0.  1.
      99926    2    1    2    0    0  0.35527136788E-14  0.71054273576E-14  0.24241290079E+03  0.51757298147E+03  0.45729397184E+03 0.  0.
      99925    2    3    3    0    0  0.22331434860E+02  0.39682629389E+02  0.27221438432E+03  0.38115802416E+03  0.26288279573E+03 0.  0.
         25    1    4    4    0    0 -0.94004902322E+01 -0.11020208219E+02  0.10518090553E+03  0.16407420636E+03  0.12509000000E+03 0.  0.
         25    1    3    3    0    0 -0.22331434860E+02 -0.39682629389E+02 -0.29801483529E+02  0.13641495731E+03  0.12509000000E+03 0.  0.
         25    1    4    4    0    0  0.31731925093E+02  0.50702837608E+02  0.16703347880E+03  0.21708381780E+03  0.12509000000E+03 0.  0.
<mgrwt>
<rscale>  2 0.45729397E+03</rscale>
<asrwt>0</asrwt>
<pdfrwt beam="1">  1       21 0.55881315E-01 0.45729397E+03</pdfrwt>
<pdfrwt beam="2">  1       21 0.20232359E-01 0.45729397E+03</pdfrwt>
<totfact> 0.62900191E+04</totfact>
</mgrwt>
</event>
<event>
 7    0  0.4788920E-002  0.4589261E+03  0.7546771E-02  0.1025093E+00
         21   -1    0    0  502  501  0.00000000000E+00  0.00000000000E+00  0.45243377928E+03  0.45243377928E+03  0.00000000000E+00 0. -1.
         21   -1    0    0  501  502 -0.00000000000E+00 -0.00000000000E+00 -0.11637790437E+03  0.11637790437E+03  0.00000000000E+00 0. -1.
      99926    2    1    2    0    0  0.00000000000E+00 -0.71054273576E-14  0.33605587491E+03  0.56881168365E+03  0.45892611649E+03 0.  0.
      99925    2    3    3    0    0 -0.28783235964E+02 -0.44772280693E+02  0.33955644341E+03  0.43282347140E+03  0.26306757182E+03 0.  0.
         25    1    3    3    0    0  0.28783235964E+02  0.44772280693E+02 -0.35005684988E+01  0.13598821225E+03  0.12509000000E+03 0.  0.
         25    1    4    4    0    0  0.42962717576E+01 -0.50843374754E+02  0.13711346851E+03  0.19248666981E+03  0.12509000000E+03 0.  0.
         25    1    4    4    0    0 -0.33079507722E+02  0.60710940618E+01  0.20244297489E+03  0.24033680159E+03  0.12509000000E+03 0.  0.
<mgrwt>
<rscale>  2 0.45892612E+03</rscale>
<asrwt>0</asrwt>
<pdfrwt beam="1">  1       21 0.66534379E-01 0.45892612E+03</pdfrwt>
<pdfrwt beam="2">  1       21 0.17114398E-01 0.45892612E+03</pdfrwt>
<totfact> 0.58793456E+04</totfact>
</mgrwt>
</event>
<event>
 7    0  0.4788920E-002  0.4659565E+03  0.7546771E-02  0.1023068E+00
         21   -1    0    0  502  501  0.00000000000E+00  0.00000000000E+00  0.22013583197E+03  0.22013583197E+03  0.00000000000E+00 0. -1.
         21   -1    0    0  501  502 -0.00000000000E+00 -0.00000000000E+00 -0.24656988690E+03  0.24656988690E+03  0.00000000000E+00 0. -1.
      99926    2    1    2    0    0  0.00000000000E+00  0.00000000000E+00 -0.26434054933E+02  0.46670571887E+03  0.46595650953E+03 0.  0.
      99925    2    3    3    0    0  0.10808486256E+03  0.58861456605E+02 -0.12303857311E+02  0.29065408107E+03  0.26302357566E+03 0.  0.
         25    1    4    4    0    0  0.57341010539E+02  0.15856133947E+02 -0.44266234208E+02  0.14541807338E+03  0.12509000000E+03 0.  0.
         25    1    3    3    0    0 -0.10808486256E+03 -0.58861456605E+02 -0.14130197622E+02  0.17605163780E+03  0.12509000000E+03 0.  0.
         25    1    4    4    0    0  0.50743852020E+02  0.43005322658E+02  0.31962376897E+02  0.14523600770E+03  0.12509000000E+03 0.  0.
<mgrwt>
<rscale>  2 0.46595651E+03</rscale>
<asrwt>0</asrwt>
<pdfrwt beam="1">  1       21 0.32372917E-01 0.46595651E+03</pdfrwt>
<pdfrwt beam="2">  1       21 0.36260277E-01 0.46595651E+03</pdfrwt>
<totfact> 0.62088709E+04</totfact>
</mgrwt>
</event>
<event>
 7    0  0.4788920E-002  0.4538085E+03  0.7546771E-02  0.1026592E+00
         21   -1    0    0  502  501  0.00000000000E+00  0.00000000000E+00  0.15541258206E+03  0.15541258206E+03  0.00000000000E+00 0. -1.
         21   -1    0    0  501  502 -0.00000000000E+00 -0.00000000000E+00 -0.33128300224E+03  0.33128300224E+03  0.00000000000E+00 0. -1.
      99926    2    1    2    0    0 -0.14210854715E-13  0.00000000000E+00 -0.17587042017E+03  0.48669558430E+03  0.45380853571E+03 0.  0.
      99925    2    3    3    0    0 -0.68812862681E+02  0.48676999464E+01 -0.14633924462E+02  0.27128058895E+03  0.26195438843E+03 0.  0.
         25    1    4    4    0    0 -0.17505813949E+01  0.19273723940E+02 -0.21786996605E+02  0.12843956669E+03  0.12509000000E+03 0.  0.
         25    1    4    4    0    0 -0.67062281286E+02 -0.14406023994E+02  0.71530721430E+01  0.14284102226E+03  0.12509000000E+03 0.  0.
         25    1    3    3    0    0  0.68812862681E+02 -0.48676999464E+01 -0.16123649571E+03  0.21541499535E+03  0.12509000000E+03 0.  0.
<mgrwt>
<rscale>  2 0.45380854E+03</rscale>
<asrwt>0</asrwt>
<pdfrwt beam="1">  1       21 0.22854792E-01 0.45380854E+03</pdfrwt>
<pdfrwt beam="2">  1       21 0.48718088E-01 0.45380854E+03</pdfrwt>
<totfact> 0.66845879E+04</totfact>
</mgrwt>
</event>
<event>
 7    0  0.4788920E-002  0.4254780E+03  0.7546771E-02  0.1035298E+00
         21   -1    0    0  502  501  0.00000000000E+00  0.00000000000E+00  0.17913486556E+02  0.17913486556E+02  0.00000000000E+00 0.  1.
         21   -1    0    0  501  502 -0.00000000000E+00 -0.00000000000E+00 -0.25264699136E+04  0.25264699136E+04  0.00000000000E+00 0.  1.
      99926    2    1    2    0    0  0.16653345369E-15  0.00000000000E+00 -0.25085564270E+04  0.25443834001E+04  0.42547801274E+03 0.  0.
      99925    2    3    3    0    0  0.26665172026E+00 -0.73405594630E+02 -0.13998770229E+04  0.14262572974E+04  0.26299381490E+03 0.  0.
         25    1    3    3    0    0 -0.26665172026E+00  0.73405594630E+02 -0.11086794041E+04  0.11181261027E+04  0.12509000000E+03 0.  0.
         25    1    4    4    0    0 -0.17120492775E+01 -0.66229770046E+01 -0.80631912131E+03  0.81599315464E+03  0.12509000000E+03 0.  0.
         25    1    4    4    0    0  0.19787009978E+01 -0.66782617625E+02 -0.59355790160E+03  0.61026414275E+03  0.12509000000E+03 0.  0.
<mgrwt>
<rscale>  2 0.42547801E+03</rscale>
<asrwt>0</asrwt>
<pdfrwt beam="1">  1       21 0.26343364E-02 0.42547801E+03</pdfrwt>
<pdfrwt beam="2">  1       21 0.37153968E+00 0.42547801E+03</pdfrwt>
<totfact> 0.84721034E+03</totfact>
</mgrwt>
</event>
<event>
 7    0  0.4788920E-002  0.4558067E+03  0.7546771E-02  0.1026004E+00
         21   -1    0    0  502  501  0.00000000000E+00  0.00000000000E+00  0.42222070649E+03  0.42222070649E+03  0.00000000000E+00 0. -1.
         21   -1    0    0  501  502 -0.00000000000E+00 -0.00000000000E+00 -0.12301610815E+03  0.12301610815E+03  0.00000000000E+00 0. -1.
      99926    2    1    2    0    0  0.14210854715E-13  0.00000000000E+00  0.29920459834E+03  0.54523681465E+03  0.45580674894E+03 0.  0.
      99925    2    3    3    0    0  0.10275797495E+03  0.38823555343E+02  0.22387815950E+03  0.36251284153E+03  0.26311149747E+03 0.  0.
         25    1    4    4    0    0  0.93724282093E+02  0.22175824491E+02  0.13713267756E+03  0.20911453225E+03  0.12509000000E+03 0.  0.
         25    1    4    4    0    0  0.90336928575E+01  0.16647730851E+02  0.86745481947E+02  0.15339830927E+03  0.12509000000E+03 0.  0.
         25    1    3    3    0    0 -0.10275797495E+03 -0.38823555343E+02  0.75326438836E+02  0.18272397312E+03  0.12509000000E+03 0.  0.
<mgrwt>
<rscale>  2 0.45580675E+03</rscale>
<asrwt>0</asrwt>
<pdfrwt beam="1">  1       21 0.62091280E-01 0.45580675E+03</pdfrwt>
<pdfrwt beam="2">  1       21 0.18090604E-01 0.45580675E+03</pdfrwt>
<totfact> 0.61786993E+04</totfact>
</mgrwt>
</event>
<event>
 7    0  0.4788920E-002  0.4549335E+03  0.7546771E-02  0.1026261E+00
         21   -1    0    0  502  501  0.00000000000E+00  0.00000000000E+00  0.58856415337E+03  0.58856415337E+03  0.00000000000E+00 0. -1.
         21   -1    0    0  501  502 -0.00000000000E+00 -0.00000000000E+00 -0.87910756234E+02  0.87910756234E+02  0.00000000000E+00 0. -1.
      99926    2    1    2    0    0  0.00000000000E+00  0.00000000000E+00  0.50065339713E+03  0.67647490960E+03  0.45493348883E+03 0.  0.
      99925    2    3    3    0    0  0.10514410307E+03  0.37314394079E+02  0.28779046994E+03  0.40553989841E+03  0.26304297785E+03 0.  0.
         25    1    4    4    0    0  0.51304036817E+02  0.56744090652E+02  0.16941491611E+03  0.22405561345E+03  0.12509000000E+03 0.  0.
         25    1    3    3    0    0 -0.10514410307E+03 -0.37314394079E+02  0.21286292720E+03  0.27093501119E+03  0.12509000000E+03 0.  0.
         25    1    4    4    0    0  0.53840066253E+02 -0.19429696573E+02  0.11837555383E+03  0.18148428496E+03  0.12509000000E+03 0.  0.
<mgrwt>
<rscale>  2 0.45493349E+03</rscale>
<asrwt>0</asrwt>
<pdfrwt beam="1">  1       21 0.86553550E-01 0.45493349E+03</pdfrwt>
<pdfrwt beam="2">  1       21 0.12928053E-01 0.45493349E+03</pdfrwt>
<totfact> 0.54227860E+04</totfact>
</mgrwt>
</event>
<event>
 7    0  0.4788920E-002  0.4517238E+03  0.7546771E-02  0.1027209E+00
         21   -1    0    0  502  501  0.00000000000E+00  0.00000000000E+00  0.12995169078E+04  0.12995169078E+04  0.00000000000E+00 0. -1.
         21   -1    0    0  501  502 -0.00000000000E+00 -0.00000000000E+00 -0.39255812528E+02  0.39255812528E+02  0.00000000000E+00 0. -1.
      99926    2    1    2    0    0  0.00000000000E+00  0.00000000000E+00  0.12602610953E+04  0.13387727203E+04  0.45172377449E+03 0.  0.
      99925    2    3    3    0    0 -0.98508219169E+01 -0.35126985741E+02  0.48850874884E+03  0.55609773277E+03  0.26319754346E+03 0.  0.
         25    1    3    3    0    0  0.98508219169E+01  0.35126985741E+02  0.77175234644E+03  0.78267498757E+03  0.12509000000E+03 0.  0.
         25    1    4    4    0    0  0.14173690635E+02 -0.33044168046E+02  0.31511278138E+03  0.34093457383E+03  0.12509000000E+03 0.  0.
         25    1    4    4    0    0 -0.24024512551E+02 -0.20828176948E+01  0.17339596746E+03  0.21516315894E+03  0.12509000000E+03 0.  0.
<mgrwt>
<rscale>  2 0.45172377E+03</rscale>
<asrwt>0</asrwt>
<pdfrwt beam="1">  1       21 0.19110540E+00 0.45172377E+03</pdfrwt>
<pdfrwt beam="2">  1       21 0.57729145E-02 0.45172377E+03</pdfrwt>
<totfact> 0.28734176E+04</totfact>
</mgrwt>
</event>
<event>
 7    0  0.4788920E-002  0.4517686E+03  0.7546771E-02  0.1027196E+00
         21   -1    0    0  502  501  0.00000000000E+00  0.00000000000E+00  0.19508490769E+03  0.19508490769E+03  0.00000000000E+00 0.  1.
         21   -1    0    0  501  502 -0.00000000000E+00 -0.00000000000E+00 -0.26154625131E+03  0.26154625131E+03  0.00000000000E+00 0.  1.
      99926    2    1    2    0    0  0.00000000000E+00 -0.71054273576E-14 -0.66461343620E+02  0.45663115899E+03  0.45176864120E+03 0.  0.
      99925    2    3    3    0    0  0.90225467458E+02  0.59756087569E+02 -0.22892025236E+02  0.28558374281E+03  0.26329186155E+03 0.  0.
         25    1    4    4    0    0  0.59224978857E+02  0.18044403123E+02 -0.48438338251E+02  0.14773956585E+03  0.12509000000E+03 0.  0.
         25    1    3    3    0    0 -0.90225467458E+02 -0.59756087569E+02 -0.43569318385E+02  0.17104741619E+03  0.12509000000E+03 0.  0.
         25    1    4    4    0    0  0.31000488601E+02  0.41711684446E+02  0.25546313015E+02  0.13784417696E+03  0.12509000000E+03 0.  0.
<mgrwt>
<rscale>  2 0.45176864E+03</rscale>
<asrwt>0</asrwt>
<pdfrwt beam="1">  1       21 0.28688957E-01 0.45176864E+03</pdfrwt>
<pdfrwt beam="2">  1       21 0.38462684E-01 0.45176864E+03</pdfrwt>
<totfact> 0.70218887E+04</totfact>
</mgrwt>
</event>
<event>
 7    0  0.4788920E-002  0.4575501E+03  0.7546771E-02  0.1025494E+00
         21   -1    0    0  502  501  0.00000000000E+00  0.00000000000E+00  0.47149686617E+03  0.47149686617E+03  0.00000000000E+00 0. -1.
         21   -1    0    0  501  502 -0.00000000000E+00 -0.00000000000E+00 -0.11100395520E+03  0.11100395520E+03  0.00000000000E+00 0. -1.
      99926    2    1    2    0    0  0.00000000000E+00  0.00000000000E+00  0.36049291097E+03  0.58250082138E+03  0.45755007162E+03 0.  0.
      99925    2    3    3    0    0  0.10640712659E+03  0.44882290593E+02  0.22229943752E+03  0.36322510270E+03  0.26301813381E+03 0.  0.
         25    1    4    4    0    0  0.69799345179E+02  0.11231886809E+02  0.69571760857E+02  0.15964285727E+03  0.12509000000E+03 0.  0.
         25    1    4    4    0    0  0.36607781407E+02  0.33650403784E+02  0.15272767666E+03  0.20358224543E+03  0.12509000000E+03 0.  0.
         25    1    3    3    0    0 -0.10640712659E+03 -0.44882290593E+02  0.13819347345E+03  0.21927571868E+03  0.12509000000E+03 0.  0.
<mgrwt>
<rscale>  2 0.45755007E+03</rscale>
<asrwt>0</asrwt>
<pdfrwt beam="1">  1       21 0.69337774E-01 0.45755007E+03</pdfrwt>
<pdfrwt beam="2">  1       21 0.16324111E-01 0.45755007E+03</pdfrwt>
<totfact> 0.58578681E+04</totfact>
</mgrwt>
</event>
<event>
 7    0  0.4788920E-002  0.4398674E+03  0.7546771E-02  0.1030788E+00
         21   -1    0    0  502  501  0.00000000000E+00  0.00000000000E+00  0.27964623478E+04  0.27964623478E+04  0.00000000000E+00 0.  1.
         21   -1    0    0  501  502 -0.00000000000E+00 -0.00000000000E+00 -0.17297148767E+02  0.17297148767E+02  0.00000000000E+00 0.  1.
      99926    2    1    2    0    0  0.00000000000E+00 -0.35527136788E-14  0.27791651991E+04  0.28137594966E+04  0.43986736751E+03 0.  0.
      99925    2    3    3    0    0  0.45441283507E+02  0.19698977928E+02  0.12315389097E+04  0.12602963977E+04  0.26307026436E+03 0.  0.
         25    1    4    4    0    0  0.44418357859E+02  0.43927023771E+02  0.60771001456E+03  0.62358763926E+03  0.12509000000E+03 0.  0.
         25    1    4    4    0    0  0.10229256476E+01 -0.24228045843E+02  0.62382889511E+03  0.63670875842E+03  0.12509000000E+03 0.  0.
         25    1    3    3    0    0 -0.45441283507E+02 -0.19698977928E+02  0.15476262894E+04  0.15534630989E+04  0.12509000000E+03 0.  0.
<mgrwt>
<rscale>  2 0.43986737E+03</rscale>
<asrwt>0</asrwt>
<pdfrwt beam="1">  1       21 0.41124415E+00 0.43986737E+03</pdfrwt>
<pdfrwt beam="2">  1       21 0.25437003E-02 0.43986737E+03</pdfrwt>
<totfact> 0.49865305E+03</totfact>
</mgrwt>
</event>
<event>
 7    0  0.4788920E-002  0.4505777E+03  0.7546771E-02  0.1027550E+00
         21   -1    0    0  502  501  0.00000000000E+00  0.00000000000E+00  0.37999619497E+03  0.37999619497E+03  0.00000000000E+00 0.  1.
         21   -1    0    0  501  502 -0.00000000000E+00 -0.00000000000E+00 -0.13356732676E+03  0.13356732676E+03  0.00000000000E+00 0.  1.
      99926    2    1    2    0    0 -0.14210854715E-13  0.00000000000E+00  0.24642886821E+03  0.51356352172E+03  0.45057774441E+03 0.  0.
      99925    2    3    3    0    0 -0.77517853087E+02 -0.72115880822E+02  0.18510720493E+03  0.33858474501E+03  0.26299284101E+03 0.  0.
         25    1    4    4    0    0 -0.68104062960E+02 -0.32748323612E+02  0.62975260072E+02  0.15913518647E+03  0.12509000000E+03 0.  0.
         25    1    3    3    0    0  0.77517853087E+02  0.72115880822E+02  0.61321663275E+02  0.17497877672E+03  0.12509000000E+03 0.  0.
         25    1    4    4    0    0 -0.94137901273E+01 -0.39367557209E+02  0.12213194486E+03  0.17944955854E+03  0.12509000000E+03 0.  0.
<mgrwt>
<rscale>  2 0.45057774E+03</rscale>
<asrwt>0</asrwt>
<pdfrwt beam="1">  1       21 0.55881793E-01 0.45057774E+03</pdfrwt>
<pdfrwt beam="2">  1       21 0.19642254E-01 0.45057774E+03</pdfrwt>
<totfact> 0.66635609E+04</totfact>
</mgrwt>
</event>
<event>
 7    0  0.4788920E-002  0.4616279E+03  0.7546771E-02  0.1024310E+00
         21   -1    0    0  502  501  0.00000000000E+00  0.00000000000E+00  0.66765547910E+03  0.66765547910E+03  0.00000000000E+00 0.  1.
         21   -1    0    0  501  502 -0.00000000000E+00 -0.00000000000E+00 -0.79794282556E+02  0.79794282556E+02  0.00000000000E+00 0.  1.
      99926    2    1    2    0    0  0.00000000000E+00 -0.71054273576E-14  0.58786119655E+03  0.74744976166E+03  0.46162794521E+03 0.  0.
      99925    2    3    3    0    0  0.10874334748E+03 -0.41528159179E+02  0.40857100447E+03  0.49977621705E+03  0.26324189979E+03 0.  0.
         25    1    4    4    0    0  0.71786293152E+02 -0.13291364666E+02  0.14835030813E+03  0.20732885540E+03  0.12509000000E+03 0.  0.
         25    1    4    4    0    0  0.36957054332E+02 -0.28236794513E+02  0.26022069634E+03  0.29244736165E+03  0.12509000000E+03 0.  0.
         25    1    3    3    0    0 -0.10874334748E+03  0.41528159179E+02  0.17929019207E+03  0.24767354461E+03  0.12509000000E+03 0.  0.
<mgrwt>
<rscale>  2 0.46162795E+03</rscale>
<asrwt>0</asrwt>
<pdfrwt beam="1">  1       21 0.98184627E-01 0.46162795E+03</pdfrwt>
<pdfrwt beam="2">  1       21 0.11734454E-01 0.46162795E+03</pdfrwt>
<totfact> 0.47858870E+04</totfact>
</mgrwt>
</event>
<event>
 7    0  0.4788920E-002  0.4525242E+03  0.7546771E-02  0.1026972E+00
         21   -1    0    0  502  501  0.00000000000E+00  0.00000000000E+00  0.92015064610E+03  0.92015064610E+03  0.00000000000E+00 0.  1.
         21   -1    0    0  501  502 -0.00000000000E+00 -0.00000000000E+00 -0.55637128739E+02  0.55637128739E+02  0.00000000000E+00 0.  1.
      99926    2    1    2    0    0 -0.14210854715E-13  0.00000000000E+00  0.86451351736E+03  0.97578777484E+03  0.45252420910E+03 0.  0.
      99925    2    3    3    0    0 -0.98147408190E+02  0.51150364913E+02  0.55661369888E+03  0.62550349046E+03  0.26303333102E+03 0.  0.
         25    1    3    3    0    0  0.98147408190E+02 -0.51150364913E+02  0.30789981848E+03  0.35028428438E+03  0.12509000000E+03 0.  0.
         25    1    4    4    0    0 -0.76799763575E+02  0.40436723656E+02  0.36442177884E+03  0.39494819065E+03  0.12509000000E+03 0.  0.
         25    1    4    4    0    0 -0.21347644614E+02  0.10713641258E+02  0.19219192004E+03  0.23055529981E+03  0.12509000000E+03 0.  0.
<mgrwt>
<rscale>  2 0.45252421E+03</rscale>
<asrwt>0</asrwt>
<pdfrwt beam="1">  1       21 0.13531626E+00 0.45252421E+03</pdfrwt>
<pdfrwt beam="2">  1       21 0.81819313E-02 0.45252421E+03</pdfrwt>
<totfact> 0.40899661E+04</totfact>
</mgrwt>
</event>
<event>
 7    0  0.4788920E-002  0.4548923E+03  0.7546771E-02  0.1026273E+00
         21   -1    0    0  502  501  0.00000000000E+00  0.00000000000E+00  0.94333220206E+03  0.94333220206E+03  0.00000000000E+00 0.  1.
         21   -1    0    0  501  502 -0.00000000000E+00 -0.00000000000E+00 -0.54839367763E+02  0.54839367763E+02  0.00000000000E+00 0.  1.
      99926    2    1    2    0    0  0.00000000000E+00  0.00000000000E+00  0.88849283430E+03  0.99817156982E+03  0.45489225780E+03 0.  0.
      99925    2    3    3    0    0 -0.17134319772E+02 -0.40113121426E+02  0.32935480022E+03  0.42355387372E+03  0.26271781837E+03 0.  0.
         25    1    4    4    0    0 -0.30335385903E+02 -0.22331885537E+02  0.11333101935E+03  0.17294616734E+03  0.12509000000E+03 0.  0.
         25    1    3    3    0    0  0.17134319772E+02  0.40113121426E+02  0.55913803408E+03  0.57461769611E+03  0.12509000000E+03 0.  0.
         25    1    4    4    0    0  0.13201066131E+02 -0.17781235888E+02  0.21602378087E+03  0.25060770638E+03  0.12509000000E+03 0.  0.
<mgrwt>
<rscale>  2 0.45489226E+03</rscale>
<asrwt>0</asrwt>
<pdfrwt beam="1">  1       21 0.13872531E+00 0.45489226E+03</pdfrwt>
<pdfrwt beam="2">  1       21 0.80646135E-02 0.45489226E+03</pdfrwt>
<totfact> 0.39271025E+04</totfact>
</mgrwt>
</event>
<event>
 7    0  0.4788920E-002  0.4546963E+03  0.7546771E-02  0.1026331E+00
         21   -1    0    0  502  501  0.00000000000E+00  0.00000000000E+00  0.85045548724E+02  0.85045548724E+02  0.00000000000E+00 0.  1.
         21   -1    0    0  501  502 -0.00000000000E+00 -0.00000000000E+00 -0.60775886090E+03  0.60775886090E+03  0.00000000000E+00 0.  1.
      99926    2    1    2    0    0  0.00000000000E+00  0.00000000000E+00 -0.52271331217E+03  0.69280440962E+03  0.45469631983E+03 0.  0.
      99925    2    3    3    0    0  0.13858269528E+02 -0.11152931714E+03 -0.32841703507E+03  0.43584256106E+03  0.26357190460E+03 0.  0.
         25    1    4    4    0    0  0.39199082276E+02 -0.33508495084E+02 -0.13281067378E+03  0.18959317094E+03  0.12509000000E+03 0.  0.
         25    1    3    3    0    0 -0.13858269528E+02  0.11152931714E+03 -0.19429627710E+03  0.25696184856E+03  0.12509000000E+03 0.  0.
         25    1    4    4    0    0 -0.25340812748E+02 -0.78020822057E+02 -0.19560636128E+03  0.24624939013E+03  0.12509000000E+03 0.  0.
<mgrwt>
<rscale>  2 0.45469632E+03</rscale>
<asrwt>0</asrwt>
<pdfrwt beam="1">  1       21 0.12506699E-01 0.45469632E+03</pdfrwt>
<pdfrwt beam="2">  1       21 0.89376300E-01 0.45469632E+03</pdfrwt>
<totfact> 0.53423019E+04</totfact>
</mgrwt>
</event>
<event>
 7    0  0.4788920E-002  0.4425183E+03  0.7546771E-02  0.1029977E+00
         21   -1    0    0  502  501  0.00000000000E+00  0.00000000000E+00  0.13048189481E+02  0.13048189481E+02  0.00000000000E+00 0. -1.
         21   -1    0    0  501  502 -0.00000000000E+00 -0.00000000000E+00 -0.37519076335E+04  0.37519076335E+04  0.00000000000E+00 0. -1.
      99926    2    1    2    0    0  0.17763568394E-14  0.00000000000E+00 -0.37388594440E+04  0.37649558230E+04  0.44251825598E+03 0.  0.
      99925    2    3    3    0    0 -0.57653580039E+01 -0.60799701275E+02 -0.16960580891E+04  0.17174171233E+04  0.26301842273E+03 0.  0.
         25    1    3    3    0    0  0.57653580039E+01  0.60799701275E+02 -0.20428013549E+04  0.20475386997E+04  0.12509000000E+03 0.  0.
         25    1    4    4    0    0 -0.21059637179E+02 -0.66140321401E+02 -0.96789098107E+03  0.97840610677E+03  0.12509000000E+03 0.  0.
         25    1    4    4    0    0  0.15294279175E+02  0.53406201253E+01 -0.72816710805E+03  0.73901101653E+03  0.12509000000E+03 0.  0.
<mgrwt>
<rscale>  2 0.44251826E+03</rscale>
<asrwt>0</asrwt>
<pdfrwt beam="1">  1       21 0.19188508E-02 0.44251826E+03</pdfrwt>
<pdfrwt beam="2">  1       21 0.55175129E+00 0.44251826E+03</pdfrwt>
<totfact> 0.82664307E+02</totfact>
</mgrwt>
</event>
<event>
 7    0  0.4788920E-002  0.4467904E+03  0.7546771E-02  0.1028684E+00
         21   -1    0    0  502  501  0.00000000000E+00  0.00000000000E+00  0.26280274592E+03  0.26280274592E+03  0.00000000000E+00 0. -1.
         21   -1    0    0  501  502 -0.00000000000E+00 -0.00000000000E+00 -0.18989688109E+03  0.18989688109E+03  0.00000000000E+00 0. -1.
      99926    2    1    2    0    0  0.71054273576E-14  0.00000000000E+00  0.72905864832E+02  0.45269962702E+03  0.44679042870E+03 0.  0.
      99925    2    3    3    0    0 -0.61212188235E+02 -0.66261825350E+02 -0.63932952750E+01  0.27928271210E+03  0.26423549641E+03 0.  0.
         25    1    4    4    0    0 -0.37756427813E+02 -0.66041850661E+01  0.29709650884E+02  0.13416159867E+03  0.12509000000E+03 0.  0.
         25    1    4    4    0    0 -0.23455760423E+02 -0.59657640284E+02 -0.36102946159E+02  0.14512111343E+03  0.12509000000E+03 0.  0.
         25    1    3    3    0    0  0.61212188235E+02  0.66261825350E+02  0.79299160107E+02  0.17341691492E+03  0.12509000000E+03 0.  0.
<mgrwt>
<rscale>  2 0.44679043E+03</rscale>
<asrwt>0</asrwt>
<pdfrwt beam="1">  1       21 0.38647463E-01 0.44679043E+03</pdfrwt>
<pdfrwt beam="2">  1       21 0.27926012E-01 0.44679043E+03</pdfrwt>
<totfact> 0.73405035E+04</totfact>
</mgrwt>
</event>
<event>
 7    0  0.4788920E-002  0.4548643E+03  0.7546771E-02  0.1026281E+00
         21   -1    0    0  502  501  0.00000000000E+00  0.00000000000E+00  0.14021663913E+03  0.14021663913E+03  0.00000000000E+00 0. -1.
         21   -1    0    0  501  502 -0.00000000000E+00 -0.00000000000E+00 -0.36889625926E+03  0.36889625926E+03  0.00000000000E+00 0. -1.
      99926    2    1    2    0    0  0.71054273576E-14  0.00000000000E+00 -0.22867962013E+03  0.50911289839E+03  0.45486434752E+03 0.  0.
      99925    2    3    3    0    0  0.47799053913E+02 -0.95003276095E+02 -0.18626913123E+03  0.33953539490E+03  0.26320661677E+03 0.  0.
         25    1    3    3    0    0 -0.47799053913E+02  0.95003276095E+02 -0.42410488896E+02  0.16957750350E+03  0.12509000000E+03 0.  0.
         25    1    4    4    0    0 -0.14919530500E+02 -0.47812034974E+02 -0.71735612749E+02  0.15265021885E+03  0.12509000000E+03 0.  0.
         25    1    4    4    0    0  0.62718584414E+02 -0.47191241121E+02 -0.11453351848E+03  0.18688517604E+03  0.12509000000E+03 0.  0.
<mgrwt>
<rscale>  2 0.45486435E+03</rscale>
<asrwt>0</asrwt>
<pdfrwt beam="1">  1       21 0.20620094E-01 0.45486435E+03</pdfrwt>
<pdfrwt beam="2">  1       21 0.54249450E-01 0.45486435E+03</pdfrwt>
<totfact> 0.64704710E+04</totfact>
</mgrwt>
</event>
<event>
 7    0  0.4788920E-002  0.4415276E+03  0.7546771E-02  0.1030279E+00
         21   -1    0    0  502  501  0.00000000000E+00  0.00000000000E+00  0.16972292136E+03  0.16972292136E+03  0.00000000000E+00 0. -1.
         21   -1    0    0  501  502 -0.00000000000E+00 -0.00000000000E+00 -0.28715418306E+03  0.28715418306E+03  0.00000000000E+00 0. -1.
      99926    2    1    2    0    0  0.00000000000E+00  0.00000000000E+00 -0.11743126170E+03  0.45687710443E+03  0.44152756123E+03 0.  0.
      99925    2    3    3    0    0  0.20871455650E+02  0.82860649578E+02 -0.12876385298E+03  0.30496449588E+03  0.26291007779E+03 0.  0.
         25    1    3    3    0    0 -0.20871455650E+02 -0.82860649578E+02  0.11332591274E+02  0.15191260854E+03  0.12509000000E+03 0.  0.
         25    1    4    4    0    0 -0.54863580621E+01  0.64807799124E+02 -0.34611037201E+02  0.14517431918E+03  0.12509000000E+03 0.  0.
         25    1    4    4    0    0  0.26357813712E+02  0.18052850454E+02 -0.94152815776E+02  0.15979017671E+03  0.12509000000E+03 0.  0.
<mgrwt>
<rscale>  2 0.44152756E+03</rscale>
<asrwt>0</asrwt>
<pdfrwt beam="1">  1       21 0.24959253E-01 0.44152756E+03</pdfrwt>
<pdfrwt beam="2">  1       21 0.42228556E-01 0.44152756E+03</pdfrwt>
<totfact> 0.76253349E+04</totfact>
</mgrwt>
</event>
<event>
 7    0  0.4788920E-002  0.4461385E+03  0.7546771E-02  0.1028880E+00
         21   -1    0    0  502  501  0.00000000000E+00  0.00000000000E+00  0.47844396500E+03  0.47844396500E+03  0.00000000000E+00 0.  1.
         21   -1    0    0  501  502 -0.00000000000E+00 -0.00000000000E+00 -0.10400358996E+03  0.10400358996E+03  0.00000000000E+00 0.  1.
      99926    2    1    2    0    0  0.00000000000E+00  0.00000000000E+00  0.37444037505E+03  0.58244755496E+03  0.44613849846E+03 0.  0.
      99925    2    3    3    0    0 -0.23673982279E+02 -0.10147969116E+03  0.22548363077E+03  0.36177992045E+03  0.26302710496E+03 0.  0.
         25    1    3    3    0    0  0.23673982279E+02  0.10147969116E+03  0.14895674428E+03  0.22066763451E+03  0.12509000000E+03 0.  0.
         25    1    4    4    0    0 -0.93598030592E+01 -0.87601439930E+02  0.15032430886E+03  0.21449131480E+03  0.12509000000E+03 0.  0.
         25    1    4    4    0    0 -0.14314179220E+02 -0.13878251225E+02  0.75159321909E+02  0.14728860565E+03  0.12509000000E+03 0.  0.
<mgrwt>
<rscale>  2 0.44613850E+03</rscale>
<asrwt>0</asrwt>
<pdfrwt beam="1">  1       21 0.70359406E-01 0.44613850E+03</pdfrwt>
<pdfrwt beam="2">  1       21 0.15294646E-01 0.44613850E+03</pdfrwt>
<totfact> 0.64148767E+04</totfact>
</mgrwt>
</event>
<event>
 7    0  0.4788920E-002  0.4488346E+03  0.7546771E-02  0.1028070E+00
         21   -1    0    0  502  501  0.00000000000E+00  0.00000000000E+00  0.16598846107E+03  0.16598846107E+03  0.00000000000E+00 0. -1.
         21   -1    0    0  501  502 -0.00000000000E+00 -0.00000000000E+00 -0.30341340655E+03  0.30341340655E+03  0.00000000000E+00 0. -1.
      99926    2    1    2    0    0  0.00000000000E+00 -0.44408920985E-15 -0.13742494547E+03  0.46940186762E+03  0.44883459948E+03 0.  0.
      99925    2    3    3    0    0  0.98308848724E+02 -0.23399533426E+01 -0.13192675061E+03  0.31019180711E+03  0.26295281812E+03 0.  0.
         25    1    4    4    0    0  0.11724691669E+02  0.63919215908E-01 -0.82119937445E+02  0.15009551861E+03  0.12509000000E+03 0.  0.
         25    1    4    4    0    0  0.86584157055E+02 -0.24038725585E+01 -0.49806813161E+02  0.16009628851E+03  0.12509000000E+03 0.  0.
         25    1    3    3    0    0 -0.98308848724E+02  0.23399533426E+01 -0.54981948682E+01  0.15921006050E+03  0.12509000000E+03 0.  0.
<mgrwt>
<rscale>  2 0.44883460E+03</rscale>
<asrwt>0</asrwt>
<pdfrwt beam="1">  1       21 0.24410068E-01 0.44883460E+03</pdfrwt>
<pdfrwt beam="2">  1       21 0.44619618E-01 0.44883460E+03</pdfrwt>
<totfact> 0.70884971E+04</totfact>
</mgrwt>
</event>
<event>
 7    0  0.4788920E-002  0.4592957E+03  0.7546771E-02  0.1024986E+00
         21   -1    0    0  502  501  0.00000000000E+00  0.00000000000E+00  0.29321354158E+03  0.29321354158E+03  0.00000000000E+00 0. -1.
         21   -1    0    0  501  502 -0.00000000000E+00 -0.00000000000E+00 -0.17986254749E+03  0.17986254749E+03  0.00000000000E+00 0. -1.
      99926    2    1    2    0    0  0.00000000000E+00  0.00000000000E+00  0.11335099409E+03  0.47307608906E+03  0.45929569798E+03 0.  0.
      99925    2    3    3    0    0 -0.39600814892E+02  0.74139016753E+02 -0.13249654920E+02  0.27625116490E+03  0.26281996577E+03 0.  0.
         25    1    4    4    0    0 -0.40180119193E+02  0.17004020779E+02  0.21972868087E+02  0.13429033373E+03  0.12509000000E+03 0.  0.
         25    1    3    3    0    0  0.39600814892E+02 -0.74139016753E+02  0.12660064901E+03  0.19682492417E+03  0.12509000000E+03 0.  0.
         25    1    4    4    0    0  0.57930430080E+00  0.57134995974E+02 -0.35222523007E+02  0.14196083117E+03  0.12509000000E+03 0.  0.
<mgrwt>
<rscale>  2 0.45929570E+03</rscale>
<asrwt>0</asrwt>
<pdfrwt beam="1">  1       21 0.43119639E-01 0.45929570E+03</pdfrwt>
<pdfrwt beam="2">  1       21 0.26450374E-01 0.45929570E+03</pdfrwt>
<totfact> 0.64965371E+04</totfact>
</mgrwt>
</event>
<event>
 7    0  0.4788920E-002  0.4569162E+03  0.7546771E-02  0.1025679E+00
         21   -1    0    0  502  501  0.00000000000E+00  0.00000000000E+00  0.53864495006E+03  0.53864495006E+03  0.00000000000E+00 0.  1.
         21   -1    0    0  501  502 -0.00000000000E+00 -0.00000000000E+00 -0.96897024396E+02  0.96897024396E+02  0.00000000000E+00 0.  1.
      99926    2    1    2    0    0 -0.35527136788E-14 -0.14210854715E-13  0.44174792567E+03  0.63554197446E+03  0.45691615365E+03 0.  0.
      99925    2    3    3    0    0 -0.26211759119E+02 -0.10423855429E+03  0.33409199130E+03  0.43859010008E+03  0.26304198281E+03 0.  0.
         25    1    4    4    0    0 -0.11770369320E+01 -0.87764286965E+02  0.15100578553E+03  0.21483531098E+03  0.12509000000E+03 0.  0.
         25    1    4    4    0    0 -0.25034722187E+02 -0.16474267325E+02  0.18308620578E+03  0.22375478910E+03  0.12509000000E+03 0.  0.
         25    1    3    3    0    0  0.26211759119E+02  0.10423855429E+03  0.10765593436E+03  0.19695187438E+03  0.12509000000E+03 0.  0.
<mgrwt>
<rscale>  2 0.45691615E+03</rscale>
<asrwt>0</asrwt>
<pdfrwt beam="1">  1       21 0.79212491E-01 0.45691615E+03</pdfrwt>
<pdfrwt beam="2">  1       21 0.14249563E-01 0.45691615E+03</pdfrwt>
<totfact> 0.55695086E+04</totfact>
</mgrwt>
</event>
<event>
 7    0  0.4788920E-002  0.4523526E+03  0.7546771E-02  0.1027023E+00
         21   -1    0    0  502  501  0.00000000000E+00  0.00000000000E+00  0.17301462957E+04  0.17301462957E+04  0.00000000000E+00 0.  1.
         21   -1    0    0  501  502 -0.00000000000E+00 -0.00000000000E+00 -0.29567285298E+02  0.29567285298E+02  0.00000000000E+00 0.  1.
      99926    2    1    2    0    0  0.00000000000E+00  0.00000000000E+00  0.17005790104E+04  0.17597135810E+04  0.45235264620E+03 0.  0.
      99925    2    3    3    0    0 -0.92981636301E+02  0.48104308625E+02  0.12110258766E+04  0.12437006082E+04  0.26314999487E+03 0.  0.
         25    1    3    3    0    0  0.92981636301E+02 -0.48104308625E+02  0.48955313381E+03  0.51601297282E+03  0.12509000000E+03 0.  0.
         25    1    4    4    0    0 -0.66528655729E+02  0.16637708739E+02  0.78266560970E+03  0.79556007950E+03  0.12509000000E+03 0.  0.
         25    1    4    4    0    0 -0.26452980572E+02  0.31466599886E+02  0.42836026688E+03  0.44814052866E+03  0.12509000000E+03 0.  0.
<mgrwt>
<rscale>  2 0.45235265E+03</rscale>
<asrwt>0</asrwt>
<pdfrwt beam="1">  1       21 0.25443321E+00 0.45235265E+03</pdfrwt>
<pdfrwt beam="2">  1       21 0.43481313E-02 0.45235265E+03</pdfrwt>
<totfact> 0.18422289E+04</totfact>
</mgrwt>
</event>
<event>
 7    0  0.4788920E-002  0.4756617E+03  0.7546771E-02  0.1020334E+00
         21   -1    0    0  502  501  0.00000000000E+00  0.00000000000E+00  0.55030565741E+03  0.55030565741E+03  0.00000000000E+00 0.  1.
         21   -1    0    0  501  502 -0.00000000000E+00 -0.00000000000E+00 -0.10278564747E+03  0.10278564747E+03  0.00000000000E+00 0.  1.
      99926    2    1    2    0    0 -0.35527136788E-14  0.71054273576E-14  0.44752000994E+03  0.65309130487E+03  0.47566174242E+03 0.  0.
      99925    2    3    3    0    0 -0.21871471890E+02 -0.40456922587E+02  0.44600088610E+03  0.51980612301E+03  0.26299523047E+03 0.  0.
         25    1    4    4    0    0 -0.40006860410E+02  0.80690830475E+01  0.22247669977E+03  0.25847446493E+03  0.12509000000E+03 0.  0.
         25    1    4    4    0    0  0.18135388520E+02 -0.48526005634E+02  0.22352418633E+03  0.26133165808E+03  0.12509000000E+03 0.  0.
         25    1    3    3    0    0  0.21871471890E+02  0.40456922587E+02  0.15191238445E+01  0.13328518187E+03  0.12509000000E+03 0.  0.
<mgrwt>
<rscale>  2 0.47566174E+03</rscale>
<asrwt>0</asrwt>
<pdfrwt beam="1">  1       21 0.80927301E-01 0.47566174E+03</pdfrwt>
<pdfrwt beam="2">  1       21 0.15115537E-01 0.47566174E+03</pdfrwt>
<totfact> 0.47324440E+04</totfact>
</mgrwt>
</event>
<event>
 7    0  0.4788920E-002  0.4502372E+03  0.7546771E-02  0.1027651E+00
         21   -1    0    0  502  501  0.00000000000E+00  0.00000000000E+00  0.36330152532E+02  0.36330152532E+02  0.00000000000E+00 0. -1.
         21   -1    0    0  501  502 -0.00000000000E+00 -0.00000000000E+00 -0.13949398214E+04  0.13949398214E+04  0.00000000000E+00 0. -1.
      99926    2    1    2    0    0  0.00000000000E+00  0.00000000000E+00 -0.13586096688E+04  0.14312699739E+04  0.45023716632E+03 0.  0.
      99925    2    3    3    0    0 -0.16659651177E+02  0.91749837167E+02 -0.68150208897E+03  0.73641908384E+03  0.26300645084E+03 0.  0.
         25    1    4    4    0    0 -0.42578695079E+02  0.57978877136E+02 -0.40570253978E+03  0.43060022567E+03  0.12509000000E+03 0.  0.
         25    1    3    3    0    0  0.16659651177E+02 -0.91749837167E+02 -0.67710757987E+03  0.69485089006E+03  0.12509000000E+03 0.  0.
         25    1    4    4    0    0  0.25919043902E+02  0.33770960032E+02 -0.27579954919E+03  0.30581885817E+03  0.12509000000E+03 0.  0.
<mgrwt>
<rscale>  2 0.45023717E+03</rscale>
<asrwt>0</asrwt>
<pdfrwt beam="1">  1       21 0.53426689E-02 0.45023717E+03</pdfrwt>
<pdfrwt beam="2">  1       21 0.20513823E+00 0.45023717E+03</pdfrwt>
<totfact> 0.26476905E+04</totfact>
</mgrwt>
</event>
<event>
 7    0  0.4788920E-002  0.4182831E+03  0.7546771E-02  0.1037627E+00
         21   -1    0    0  502  501  0.00000000000E+00  0.00000000000E+00  0.44609090404E+02  0.44609090404E+02  0.00000000000E+00 0.  1.
         21   -1    0    0  501  502 -0.00000000000E+00 -0.00000000000E+00 -0.98052170211E+03  0.98052170211E+03  0.00000000000E+00 0.  1.
      99926    2    1    2    0    0  0.00000000000E+00 -0.35527136788E-14 -0.93591261171E+03  0.10251307925E+04  0.41828306804E+03 0.  0.
      99925    2    3    3    0    0 -0.59143616893E+02 -0.22563813588E+02 -0.70341927935E+03  0.75363907847E+03  0.26299445800E+03 0.  0.
         25    1    4    4    0    0 -0.27001078979E+02 -0.48939810930E+02 -0.31653865205E+03  0.34491794634E+03  0.12509000000E+03 0.  0.
         25    1    4    4    0    0 -0.32142537915E+02  0.26375997342E+02 -0.38688062729E+03  0.40872113213E+03  0.12509000000E+03 0.  0.
         25    1    3    3    0    0  0.59143616893E+02  0.22563813588E+02 -0.23249333236E+03  0.27149171405E+03  0.12509000000E+03 0.  0.
<mgrwt>
<rscale>  2 0.41828307E+03</rscale>
<asrwt>0</asrwt>
<pdfrwt beam="1">  1       21 0.65601603E-02 0.41828307E+03</pdfrwt>
<pdfrwt beam="2">  1       21 0.14419437E+00 0.41828307E+03</pdfrwt>
<totfact> 0.51442270E+04</totfact>
</mgrwt>
</event>
<event>
 7    0  0.4788920E-002  0.4431870E+03  0.7546771E-02  0.1029773E+00
         21   -1    0    0  502  501  0.00000000000E+00  0.00000000000E+00  0.22835457668E+03  0.22835457668E+03  0.00000000000E+00 0. -1.
         21   -1    0    0  501  502 -0.00000000000E+00 -0.00000000000E+00 -0.21503256917E+03  0.21503256917E+03  0.00000000000E+00 0. -1.
      99926    2    1    2    0    0  0.00000000000E+00 -0.71054273576E-14  0.13322007504E+02  0.44338714585E+03  0.44318696418E+03 0.  0.
      99925    2    3    3    0    0  0.91535257937E+02 -0.35282248844E+02 -0.18299479088E+02  0.28130393560E+03  0.26300854116E+03 0.  0.
         25    1    4    4    0    0  0.44800939975E+02 -0.53843862055E+02 -0.28233416135E+02  0.14611953870E+03  0.12509000000E+03 0.  0.
         25    1    3    3    0    0 -0.91535257937E+02  0.35282248844E+02  0.31621486592E+02  0.16208321024E+03  0.12509000000E+03 0.  0.
         25    1    4    4    0    0  0.46734317961E+02  0.18561613211E+02  0.99339370465E+01  0.13518439690E+03  0.12509000000E+03 0.  0.
<mgrwt>
<rscale>  2 0.44318696E+03</rscale>
<asrwt>0</asrwt>
<pdfrwt beam="1">  1       21 0.33581556E-01 0.44318696E+03</pdfrwt>
<pdfrwt beam="2">  1       21 0.31622436E-01 0.44318696E+03</pdfrwt>
<totfact> 0.76351816E+04</totfact>
</mgrwt>
</event>
<event>
 7    0  0.4788920E-002  0.4598107E+03  0.7546771E-02  0.1024836E+00
         21   -1    0    0  502  501  0.00000000000E+00  0.00000000000E+00  0.86456260691E+02  0.86456260691E+02  0.00000000000E+00 0.  1.
         21   -1    0    0  501  502 -0.00000000000E+00 -0.00000000000E+00 -0.61136659204E+03  0.61136659204E+03  0.00000000000E+00 0.  1.
      99926    2    1    2    0    0  0.14210854715E-13  0.14210854715E-13 -0.52491033135E+03  0.69782285273E+03  0.45981069783E+03 0.  0.
      99925    2    3    3    0    0  0.88980134574E+02  0.64984443203E+02 -0.39190434527E+03  0.48456586541E+03  0.26282050885E+03 0.  0.
         25    1    4    4    0    0  0.60340650557E+02  0.81784618119E+01 -0.24259403453E+03  0.27965560076E+03  0.12509000000E+03 0.  0.
         25    1    3    3    0    0 -0.88980134574E+02 -0.64984443203E+02 -0.13300598608E+03  0.21325698732E+03  0.12509000000E+03 0.  0.
         25    1    4    4    0    0  0.28639484017E+02  0.56805981392E+02 -0.14931031074E+03  0.20491026465E+03  0.12509000000E+03 0.  0.
<mgrwt>
<rscale>  2 0.45981070E+03</rscale>
<asrwt>0</asrwt>
<pdfrwt beam="1">  1       21 0.12714156E-01 0.45981070E+03</pdfrwt>
<pdfrwt beam="2">  1       21 0.89906851E-01 0.45981070E+03</pdfrwt>
<totfact> 0.51060437E+04</totfact>
</mgrwt>
</event>
<event>
 7    0  0.4788920E-002  0.4528540E+03  0.7546771E-02  0.1026874E+00
         21   -1    0    0  502  501  0.00000000000E+00  0.00000000000E+00  0.30097830247E+02  0.30097830247E+02  0.00000000000E+00 0. -1.
         21   -1    0    0  501  502 -0.00000000000E+00 -0.00000000000E+00 -0.17034183869E+04  0.17034183869E+04  0.00000000000E+00 0. -1.
      99926    2    1    2    0    0  0.00000000000E+00  0.71054273576E-14 -0.16733205566E+04  0.17335162171E+04  0.45285404910E+03 0.  0.
      99925    2    3    3    0    0 -0.83680126534E+02 -0.53666979074E+02 -0.86524282624E+03  0.90979318438E+03  0.26305129113E+03 0.  0.
         25    1    4    4    0    0 -0.81964998213E+02 -0.31026231184E+02 -0.42767285767E+03  0.45412825197E+03  0.12509000000E+03 0.  0.
         25    1    3    3    0    0  0.83680126534E+02  0.53666979074E+02 -0.80807773036E+03  0.82372303271E+03  0.12509000000E+03 0.  0.
         25    1    4    4    0    0 -0.17151283214E+01 -0.22640747890E+02 -0.43756996858E+03  0.45566493241E+03  0.12509000000E+03 0.  0.
<mgrwt>
<rscale>  2 0.45285405E+03</rscale>
<asrwt>0</asrwt>
<pdfrwt beam="1">  1       21 0.44261501E-02 0.45285405E+03</pdfrwt>
<pdfrwt beam="2">  1       21 0.25050279E+00 0.45285405E+03</pdfrwt>
<totfact> 0.18885290E+04</totfact>
</mgrwt>
</event>
<event>
 7    0  0.4788920E-002  0.4529118E+03  0.7546771E-02  0.1026857E+00
         21   -1    0    0  502  501  0.00000000000E+00  0.00000000000E+00  0.35355952899E+03  0.35355952899E+03  0.00000000000E+00 0.  1.
         21   -1    0    0  501  502 -0.00000000000E+00 -0.00000000000E+00 -0.14504565212E+03  0.14504565212E+03  0.00000000000E+00 0.  1.
      99926    2    1    2    0    0  0.00000000000E+00  0.35527136788E-14  0.20851387686E+03  0.49860518111E+03  0.45291179029E+03 0.  0.
      99925    2    3    3    0    0 -0.22766909710E+02  0.12768384933E+02  0.12037603311E+02  0.26422984538E+03  0.26266165206E+03 0.  0.
         25    1    4    4    0    0 -0.13951373831E+02  0.41369740935E+02 -0.13236469195E+02  0.13314957196E+03  0.12509000000E+03 0.  0.
         25    1    4    4    0    0 -0.88155358786E+01 -0.28601356003E+02  0.25274072507E+02  0.13108027342E+03  0.12509000000E+03 0.  0.
         25    1    3    3    0    0  0.22766909710E+02 -0.12768384933E+02  0.19647627355E+03  0.23437533573E+03  0.12509000000E+03 0.  0.
<mgrwt>
<rscale>  2 0.45291179E+03</rscale>
<asrwt>0</asrwt>
<pdfrwt beam="1">  1       21 0.51994048E-01 0.45291179E+03</pdfrwt>
<pdfrwt beam="2">  1       21 0.21330243E-01 0.45291179E+03</pdfrwt>
<totfact> 0.66463674E+04</totfact>
</mgrwt>
</event>
<event>
 7    0  0.4788920E-002  0.4514278E+03  0.7546771E-02  0.1027297E+00
         21   -1    0    0  502  501  0.00000000000E+00  0.00000000000E+00  0.89439868019E+02  0.89439868019E+02  0.00000000000E+00 0. -1.
         21   -1    0    0  501  502 -0.00000000000E+00 -0.00000000000E+00 -0.56962019834E+03  0.56962019834E+03  0.00000000000E+00 0. -1.
      99926    2    1    2    0    0 -0.35527136788E-14  0.00000000000E+00 -0.48018033032E+03  0.65906006636E+03  0.45142775883E+03 0.  0.
      99925    2    3    3    0    0 -0.14731995896E+02 -0.96149025873E+02 -0.22883500356E+03  0.36193442246E+03  0.26300076127E+03 0.  0.
         25    1    4    4    0    0 -0.34553484138E+02 -0.59152944043E+02 -0.15542382460E+03  0.21094332748E+03  0.12509000000E+03 0.  0.
         25    1    4    4    0    0  0.19821488242E+02 -0.36996081829E+02 -0.73411178968E+02  0.15099109498E+03  0.12509000000E+03 0.  0.
         25    1    3    3    0    0  0.14731995896E+02  0.96149025873E+02 -0.25134532676E+03  0.29712564390E+03  0.12509000000E+03 0.  0.
<mgrwt>
<rscale>  2 0.45142776E+03</rscale>
<asrwt>0</asrwt>
<pdfrwt beam="1">  1       21 0.13152921E-01 0.45142776E+03</pdfrwt>
<pdfrwt beam="2">  1       21 0.83767679E-01 0.45142776E+03</pdfrwt>
<totfact> 0.56764395E+04</totfact>
</mgrwt>
</event>
<event>
 7    0  0.4788920E-002  0.4477825E+03  0.7546771E-02  0.1028385E+00
         21   -1    0    0  502  501  0.00000000000E+00  0.00000000000E+00  0.90671943702E+02  0.90671943702E+02  0.00000000000E+00 0. -1.
         21   -1    0    0  501  502 -0.00000000000E+00 -0.00000000000E+00 -0.55284241352E+03  0.55284241352E+03  0.00000000000E+00 0. -1.
      99926    2    1    2    0    0  0.00000000000E+00  0.00000000000E+00 -0.46217046981E+03  0.64351435722E+03  0.44778251951E+03 0.  0.
      99925    2    3    3    0    0 -0.19481080424E+01  0.58834237367E+02 -0.41983592518E+03  0.49892879646E+03  0.26306363726E+03 0.  0.
         25    1    4    4    0    0  0.22241773266E+01  0.23483899530E+02 -0.13361423946E+03  0.18454461138E+03  0.12509000000E+03 0.  0.
         25    1    3    3    0    0  0.19481080424E+01 -0.58834237367E+02 -0.42334544630E+02  0.14458556076E+03  0.12509000000E+03 0.  0.
         25    1    4    4    0    0 -0.41722853691E+01  0.35350337837E+02 -0.28622168572E+03  0.31438418508E+03  0.12509000000E+03 0.  0.
<mgrwt>
<rscale>  2 0.44778252E+03</rscale>
<asrwt>0</asrwt>
<pdfrwt beam="1">  1       21 0.13334109E-01 0.44778252E+03</pdfrwt>
<pdfrwt beam="2">  1       21 0.81300354E-01 0.44778252E+03</pdfrwt>
<totfact> 0.59387030E+04</totfact>
</mgrwt>
</event>
<event>
 7    0  0.4788920E-002  0.4544072E+03  0.7546771E-02  0.1026416E+00
         21   -1    0    0  502  501  0.00000000000E+00  0.00000000000E+00  0.28559750425E+03  0.28559750425E+03  0.00000000000E+00 0. -1.
         21   -1    0    0  501  502 -0.00000000000E+00 -0.00000000000E+00 -0.18074905006E+03  0.18074905006E+03  0.00000000000E+00 0. -1.
      99926    2    1    2    0    0 -0.14210854715E-13  0.00000000000E+00  0.10484845419E+03  0.46634655431E+03  0.45440720766E+03 0.  0.
      99925    2    3    3    0    0 -0.71866934295E+02 -0.78988972480E+02  0.29269935476E+02  0.28533900030E+03  0.26297813968E+03 0.  0.
         25    1    4    4    0    0 -0.14814234691E+02 -0.23675286552E+01  0.50207429434E+01  0.12608640966E+03  0.12509000000E+03 0.  0.
         25    1    4    4    0    0 -0.57052699605E+02 -0.76621443825E+02  0.24249192533E+02  0.15925259064E+03  0.12509000000E+03 0.  0.
         25    1    3    3    0    0  0.71866934295E+02  0.78988972480E+02  0.75578518718E+02  0.18100755401E+03  0.12509000000E+03 0.  0.
<mgrwt>
<rscale>  2 0.45440721E+03</rscale>
<asrwt>0</asrwt>
<pdfrwt beam="1">  1       21 0.41999633E-01 0.45440721E+03</pdfrwt>
<pdfrwt beam="2">  1       21 0.26580743E-01 0.45440721E+03</pdfrwt>
<totfact> 0.68027993E+04</totfact>
</mgrwt>
</event>
<event>
 7    0  0.4788920E-002  0.4557729E+03  0.7546771E-02  0.1026014E+00
         21   -1    0    0  502  501  0.00000000000E+00  0.00000000000E+00  0.55113793824E+02  0.55113793824E+02  0.00000000000E+00 0.  1.
         21   -1    0    0  501  502 -0.00000000000E+00 -0.00000000000E+00 -0.94227307147E+03  0.94227307147E+03  0.00000000000E+00 0.  1.
      99926    2    1    2    0    0 -0.53290705182E-14  0.71054273576E-14 -0.88715927764E+03  0.99738686529E+03  0.45577294253E+03 0.  0.
      99925    2    3    3    0    0 -0.13350771753E+02  0.55222282753E+02 -0.77392369290E+03  0.81934880933E+03  0.26295787742E+03 0.  0.
         25    1    4    4    0    0 -0.37090317314E+02  0.55217011689E+02 -0.40187043988E+03  0.42611262428E+03  0.12509000000E+03 0.  0.
         25    1    4    4    0    0  0.23739545561E+02  0.52710640499E-02 -0.37205325302E+03  0.39323618505E+03  0.12509000000E+03 0.  0.
         25    1    3    3    0    0  0.13350771753E+02 -0.55222282753E+02 -0.11323558474E+03  0.17803805596E+03  0.12509000000E+03 0.  0.
<mgrwt>
<rscale>  2 0.45577294E+03</rscale>
<asrwt>0</asrwt>
<pdfrwt beam="1">  1       21 0.81049693E-02 0.45577294E+03</pdfrwt>
<pdfrwt beam="2">  1       21 0.13856958E+00 0.45577294E+03</pdfrwt>
<totfact> 0.39032423E+04</totfact>
</mgrwt>
</event>
<event>
 7    0  0.4788920E-002  0.4471953E+03  0.7546771E-02  0.1028562E+00
         21   -1    0    0  502  501  0.00000000000E+00  0.00000000000E+00  0.18383684716E+03  0.18383684716E+03  0.00000000000E+00 0. -1.
         21   -1    0    0  501  502 -0.00000000000E+00 -0.00000000000E+00 -0.27195805705E+03  0.27195805705E+03  0.00000000000E+00 0. -1.
      99926    2    1    2    0    0  0.14210854715E-13 -0.17763568394E-14 -0.88121209888E+02  0.45579490420E+03  0.44719531199E+03 0.  0.
      99925    2    3    3    0    0  0.72496832621E+02  0.77578071903E+01  0.22151842572E+02  0.27379592478E+03  0.26297819298E+03 0.  0.
         25    1    4    4    0    0  0.73387813164E+02  0.22077871073E+02  0.18196902603E+02  0.14782367495E+03  0.12509000000E+03 0.  0.
         25    1    4    4    0    0 -0.89098054347E+00 -0.14320063883E+02  0.39549399688E+01  0.12597224983E+03  0.12509000000E+03 0.  0.
         25    1    3    3    0    0 -0.72496832621E+02 -0.77578071903E+01 -0.11027305246E+03  0.18199897942E+03  0.12509000000E+03 0.  0.
<mgrwt>
<rscale>  2 0.44719531E+03</rscale>
<asrwt>0</asrwt>
<pdfrwt beam="1">  1       21 0.27034831E-01 0.44719531E+03</pdfrwt>
<pdfrwt beam="2">  1       21 0.39993832E-01 0.44719531E+03</pdfrwt>
<totfact> 0.72918433E+04</totfact>
</mgrwt>
</event>
<event>
 7    0  0.4788920E-002  0.4587927E+03  0.7546771E-02  0.1025132E+00
         21   -1    0    0  502  501  0.00000000000E+00  0.00000000000E+00  0.81368982148E+02  0.81368982148E+02  0.00000000000E+00 0.  1.
         21   -1    0    0  501  502 -0.00000000000E+00 -0.00000000000E+00 -0.64671669116E+03  0.64671669116E+03  0.00000000000E+00 0.  1.
      99926    2    1    2    0    0  0.00000000000E+00  0.00000000000E+00 -0.56534770901E+03  0.72808567331E+03  0.45879267168E+03 0.  0.
      99925    2    3    3    0    0  0.16891469323E+02 -0.99331993765E+02 -0.44786417802E+03  0.52908302289E+03  0.26304820172E+03 0.  0.
         25    1    4    4    0    0  0.41691752160E+02 -0.60432547316E+02 -0.27357116278E+03  0.30964331767E+03  0.12509000000E+03 0.  0.
         25    1    3    3    0    0 -0.16891469323E+02  0.99331993765E+02 -0.11748353099E+03  0.19900265042E+03  0.12509000000E+03 0.  0.
         25    1    4    4    0    0 -0.24800282837E+02 -0.38899446449E+02 -0.17429301525E+03  0.21943970522E+03  0.12509000000E+03 0.  0.
<mgrwt>
<rscale>  2 0.45879267E+03</rscale>
<asrwt>0</asrwt>
<pdfrwt beam="1">  1       21 0.11966027E-01 0.45879267E+03</pdfrwt>
<pdfrwt beam="2">  1       21 0.95105394E-01 0.45879267E+03</pdfrwt>
<totfact> 0.49899500E+04</totfact>
</mgrwt>
</event>
<event>
 7    0  0.4788920E-002  0.4572564E+03  0.7546771E-02  0.1025580E+00
         21   -1    0    0  502  501  0.00000000000E+00  0.00000000000E+00  0.80498599432E+02  0.80498599432E+02  0.00000000000E+00 0.  1.
         21   -1    0    0  501  502 -0.00000000000E+00 -0.00000000000E+00 -0.64933866150E+03  0.64933866150E+03  0.00000000000E+00 0.  1.
      99926    2    1    2    0    0  0.00000000000E+00  0.00000000000E+00 -0.56884006207E+03  0.72983726093E+03  0.45725639551E+03 0.  0.
      99925    2    3    3    0    0  0.35851231751E+01 -0.84291091933E+02 -0.23203739425E+03  0.36078254082E+03  0.26306814353E+03 0.  0.
         25    1    3    3    0    0 -0.35851231751E+01  0.84291091933E+02 -0.33680266782E+03  0.36905472012E+03  0.12509000000E+03 0.  0.
         25    1    4    4    0    0  0.30802770789E+01 -0.72493301182E+02 -0.16113971202E+03  0.21651392960E+03  0.12509000000E+03 0.  0.
         25    1    4    4    0    0  0.50484609621E+00 -0.11797790751E+02 -0.70897682230E+02  0.14426861121E+03  0.12509000000E+03 0.  0.
<mgrwt>
<rscale>  2 0.45725640E+03</rscale>
<asrwt>0</asrwt>
<pdfrwt beam="1">  1       21 0.11838030E-01 0.45725640E+03</pdfrwt>
<pdfrwt beam="2">  1       21 0.95490977E-01 0.45725640E+03</pdfrwt>
<totfact> 0.50412327E+04</totfact>
</mgrwt>
</event>
<event>
 7    0  0.4788920E-002  0.4251021E+03  0.7546771E-02  0.1035418E+00
         21   -1    0    0  502  501  0.00000000000E+00  0.00000000000E+00  0.38586002763E+03  0.38586002763E+03  0.00000000000E+00 0.  1.
         21   -1    0    0  501  502 -0.00000000000E+00 -0.00000000000E+00 -0.11708377310E+03  0.11708377310E+03  0.00000000000E+00 0.  1.
      99926    2    1    2    0    0  0.00000000000E+00  0.00000000000E+00  0.26877625453E+03  0.50294380073E+03  0.42510209561E+03 0.  0.
      99925    2    3    3    0    0  0.20400871338E+02  0.82812374493E+01  0.80936442278E+02  0.27619266488E+03  0.26314806858E+03 0.  0.
         25    1    4    4    0    0 -0.26794427682E+02  0.19174399748E+02  0.48811512764E+02  0.13825943309E+03  0.12509000000E+03 0.  0.
         25    1    3    3    0    0 -0.20400871338E+02 -0.82812374493E+01  0.18783981225E+03  0.22675113585E+03  0.12509000000E+03 0.  0.
         25    1    4    4    0    0  0.47195299020E+02 -0.10893162299E+02  0.32124929514E+02  0.13793323179E+03  0.12509000000E+03 0.  0.
<mgrwt>
<rscale>  2 0.42510210E+03</rscale>
<asrwt>0</asrwt>
<pdfrwt beam="1">  1       21 0.56744122E-01 0.42510210E+03</pdfrwt>
<pdfrwt beam="2">  1       21 0.17218202E-01 0.42510210E+03</pdfrwt>
<totfact> 0.83082806E+04</totfact>
</mgrwt>
</event>
<event>
 7    0  0.4788920E-002  0.4553216E+03  0.7546771E-02  0.1026147E+00
         21   -1    0    0  502  501  0.00000000000E+00  0.00000000000E+00  0.12934768968E+03  0.12934768968E+03  0.00000000000E+00 0.  1.
         21   -1    0    0  501  502 -0.00000000000E+00 -0.00000000000E+00 -0.40069854690E+03  0.40069854690E+03  0.00000000000E+00 0.  1.
      99926    2    1    2    0    0  0.35527136788E-14  0.14210854715E-13 -0.27135085722E+03  0.53004623658E+03  0.45532156242E+03 0.  0.
      99925    2    3    3    0    0  0.29847124535E+02  0.78214025985E+02 -0.81535016809E+02  0.28779461930E+03  0.26300094911E+03 0.  0.
         25    1    3    3    0    0 -0.29847124535E+02 -0.78214025985E+02 -0.18981584041E+03  0.24225161728E+03  0.12509000000E+03 0.  0.
         25    1    4    4    0    0 -0.59584588892E+01  0.11710258495E+02 -0.13161043450E+02  0.12646483524E+03  0.12509000000E+03 0.  0.
         25    1    4    4    0    0  0.35805583424E+02  0.66503767490E+02 -0.68373973359E+02  0.16132978407E+03  0.12509000000E+03 0.  0.
<mgrwt>
<rscale>  2 0.45532156E+03</rscale>
<asrwt>0</asrwt>
<pdfrwt beam="1">  1       21 0.19021719E-01 0.45532156E+03</pdfrwt>
<pdfrwt beam="2">  1       21 0.58926257E-01 0.45532156E+03</pdfrwt>
<totfact> 0.63042571E+04</totfact>
</mgrwt>
</event>
<event>
 7    0  0.4788920E-002  0.4584714E+03  0.7546771E-02  0.1025225E+00
         21   -1    0    0  502  501  0.00000000000E+00  0.00000000000E+00  0.29904584597E+02  0.29904584597E+02  0.00000000000E+00 0. -1.
         21   -1    0    0  501  502 -0.00000000000E+00 -0.00000000000E+00 -0.17572224633E+04  0.17572224633E+04  0.00000000000E+00 0. -1.
      99926    2    1    2    0    0  0.00000000000E+00  0.00000000000E+00 -0.17273178787E+04  0.17871270479E+04  0.45847140723E+03 0.  0.
      99925    2    3    3    0    0  0.64524320522E+02  0.69686024938E+02 -0.82147229978E+03  0.86776680786E+03  0.26302654525E+03 0.  0.
         25    1    4    4    0    0 -0.19497339277E+01  0.29072721022E+02 -0.31178008742E+03  0.33719928170E+03  0.12509000000E+03 0.  0.
         25    1    3    3    0    0 -0.64524320522E+02 -0.69686024938E+02 -0.90584557896E+03  0.91936024008E+03  0.12509000000E+03 0.  0.
         25    1    4    4    0    0  0.66474054449E+02  0.40613303917E+02 -0.50969221236E+03  0.53056752616E+03  0.12509000000E+03 0.  0.
<mgrwt>
<rscale>  2 0.45847141E+03</rscale>
<asrwt>0</asrwt>
<pdfrwt beam="1">  1       21 0.43977320E-02 0.45847141E+03</pdfrwt>
<pdfrwt beam="2">  1       21 0.25841513E+00 0.45847141E+03</pdfrwt>
<totfact> 0.17044109E+04</totfact>
</mgrwt>
</event>
<event>
 7    0  0.4788920E-002  0.4549084E+03  0.7546771E-02  0.1026268E+00
         21   -1    0    0  502  501  0.00000000000E+00  0.00000000000E+00  0.42202579957E+03  0.42202579957E+03  0.00000000000E+00 0.  1.
         21   -1    0    0  501  502 -0.00000000000E+00 -0.00000000000E+00 -0.12258827673E+03  0.12258827673E+03  0.00000000000E+00 0.  1.
      99926    2    1    2    0    0  0.88817841970E-15 -0.14210854715E-13  0.29943752284E+03  0.54461407630E+03  0.45490841058E+03 0.  0.
      99925    2    3    3    0    0  0.52298699384E+01 -0.87056205757E+02  0.10483673191E+03  0.29738319143E+03  0.26427237405E+03 0.  0.
         25    1    4    4    0    0  0.74214364507E+01 -0.87798726259E+01  0.20122743109E+02  0.12721869663E+03  0.12509000000E+03 0.  0.
         25    1    4    4    0    0 -0.21915665123E+01 -0.78276333131E+02  0.84713988803E+02  0.17016449480E+03  0.12509000000E+03 0.  0.
         25    1    3    3    0    0 -0.52298699384E+01  0.87056205757E+02  0.19460079093E+03  0.24723088486E+03  0.12509000000E+03 0.  0.
<mgrwt>
<rscale>  2 0.45490841E+03</rscale>
<asrwt>0</asrwt>
<pdfrwt beam="1">  1       21 0.62062617E-01 0.45490841E+03</pdfrwt>
<pdfrwt beam="2">  1       21 0.18027688E-01 0.45490841E+03</pdfrwt>
<totfact> 0.62268945E+04</totfact>
</mgrwt>
</event>
<event>
 7    0  0.4788920E-002  0.4559136E+03  0.7546771E-02  0.1025973E+00
         21   -1    0    0  502  501  0.00000000000E+00  0.00000000000E+00  0.56643573996E+03  0.56643573996E+03  0.00000000000E+00 0. -1.
         21   -1    0    0  501  502 -0.00000000000E+00 -0.00000000000E+00 -0.91739089985E+02  0.91739089985E+02  0.00000000000E+00 0. -1.
      99926    2    1    2    0    0 -0.35527136788E-14  0.14210854715E-13  0.47469664998E+03  0.65817482995E+03  0.45591358532E+03 0.  0.
      99925    2    3    3    0    0 -0.17306935777E+02  0.10658068172E+03  0.34993807667E+03  0.45112125848E+03  0.26342885303E+03 0.  0.
         25    1    4    4    0    0 -0.14915989858E+01  0.18170020878E+02  0.11942910606E+03  0.17390570433E+03  0.12509000000E+03 0.  0.
         25    1    3    3    0    0  0.17306935777E+02 -0.10658068172E+03  0.12475857331E+03  0.20705357146E+03  0.12509000000E+03 0.  0.
         25    1    4    4    0    0 -0.15815336791E+02  0.88410660846E+02  0.23050897061E+03  0.27721555415E+03  0.12509000000E+03 0.  0.
<mgrwt>
<rscale>  2 0.45591359E+03</rscale>
<asrwt>0</asrwt>
<pdfrwt beam="1">  1       21 0.83299372E-01 0.45591359E+03</pdfrwt>
<pdfrwt beam="2">  1       21 0.13491043E-01 0.45591359E+03</pdfrwt>
<totfact> 0.54836619E+04</totfact>
</mgrwt>
</event>
<event>
 7    0  0.4788920E-002  0.4559880E+03  0.7546771E-02  0.1025951E+00
         21   -1    0    0  502  501  0.00000000000E+00  0.00000000000E+00  0.10962039041E+03  0.10962039041E+03  0.00000000000E+00 0.  1.
         21   -1    0    0  501  502 -0.00000000000E+00 -0.00000000000E+00 -0.47419343210E+03  0.47419343210E+03  0.00000000000E+00 0.  1.
      99926    2    1    2    0    0  0.00000000000E+00 -0.14210854715E-13 -0.36457304169E+03  0.58381382251E+03  0.45598802246E+03 0.  0.
      99925    2    3    3    0    0  0.80891645405E+00 -0.11205590613E+03 -0.20159050930E+03  0.34978819483E+03  0.26297503182E+03 0.  0.
         25    1    4    4    0    0  0.36578113406E+01 -0.87376024756E+02 -0.74870459473E+02  0.17000306788E+03  0.12509000000E+03 0.  0.
         25    1    4    4    0    0 -0.28488948865E+01 -0.24679881376E+02 -0.12672004983E+03  0.17978512696E+03  0.12509000000E+03 0.  0.
         25    1    3    3    0    0 -0.80891645405E+00  0.11205590613E+03 -0.16298253239E+03  0.23402562768E+03  0.12509000000E+03 0.  0.
<mgrwt>
<rscale>  2 0.45598802E+03</rscale>
<asrwt>0</asrwt>
<pdfrwt beam="1">  1       21 0.16120646E-01 0.45598802E+03</pdfrwt>
<pdfrwt beam="2">  1       21 0.69734328E-01 0.45598802E+03</pdfrwt>
<totfact> 0.59221901E+04</totfact>
</mgrwt>
</event>
<event>
 7    0  0.4788920E-002  0.4646217E+03  0.7546771E-02  0.1023449E+00
         21   -1    0    0  502  501  0.00000000000E+00  0.00000000000E+00  0.38405521528E+02  0.38405521528E+02  0.00000000000E+00 0.  1.
         21   -1    0    0  501  502 -0.00000000000E+00 -0.00000000000E+00 -0.14052233178E+04  0.14052233178E+04  0.00000000000E+00 0.  1.
      99926    2    1    2    0    0  0.00000000000E+00  0.00000000000E+00 -0.13668177963E+04  0.14436288394E+04  0.46462171445E+03 0.  0.
      99925    2    3    3    0    0 -0.11921238203E+03  0.26736106668E+02 -0.84952367653E+03  0.89758202279E+03  0.26274816693E+03 0.  0.
         25    1    3    3    0    0  0.11921238203E+03 -0.26736106668E+02 -0.51729411977E+03  0.54604681657E+03  0.12509000000E+03 0.  0.
         25    1    4    4    0    0 -0.49599959861E+02 -0.49577247418E+01 -0.51546042526E+03  0.53275856930E+03  0.12509000000E+03 0.  0.
         25    1    4    4    0    0 -0.69612422173E+02  0.31693831409E+02 -0.33406325126E+03  0.36482345349E+03  0.12509000000E+03 0.  0.
<mgrwt>
<rscale>  2 0.46462171E+03</rscale>
<asrwt>0</asrwt>
<pdfrwt beam="1">  1       21 0.56478700E-02 0.46462171E+03</pdfrwt>
<pdfrwt beam="2">  1       21 0.20665052E+00 0.46462171E+03</pdfrwt>
<totfact> 0.23393859E+04</totfact>
</mgrwt>
</event>
<event>
 7    0  0.4788920E-002  0.4534963E+03  0.7546771E-02  0.1026685E+00
         21   -1    0    0  502  501  0.00000000000E+00  0.00000000000E+00  0.17448015324E+02  0.17448015324E+02  0.00000000000E+00 0. -1.
         21   -1    0    0  501  502 -0.00000000000E+00 -0.00000000000E+00 -0.29467378195E+04  0.29467378195E+04  0.00000000000E+00 0. -1.
      99926    2    1    2    0    0  0.00000000000E+00 -0.71054273576E-14 -0.29292898041E+04  0.29641858348E+04  0.45349631368E+03 0.  0.
      99925    2    3    3    0    0  0.19475576127E+02 -0.42711373391E+02 -0.25086878801E+04  0.25228729684E+04  0.26300109345E+03 0.  0.
         25    1    4    4    0    0  0.36353272071E+02  0.25380335399E+00 -0.10349969783E+04  0.10431624408E+04  0.12509000000E+03 0.  0.
         25    1    3    3    0    0 -0.19475576127E+02  0.42711373391E+02 -0.42060192401E+03  0.44131286641E+03  0.12509000000E+03 0.  0.
         25    1    4    4    0    0 -0.16877695944E+02 -0.42965176745E+02 -0.14736909018E+04  0.14797105275E+04  0.12509000000E+03 0.  0.
<mgrwt>
<rscale>  2 0.45349631E+03</rscale>
<asrwt>0</asrwt>
<pdfrwt beam="1">  1       21 0.25658845E-02 0.45349631E+03</pdfrwt>
<pdfrwt beam="2">  1       21 0.43334381E+00 0.45349631E+03</pdfrwt>
<totfact> 0.34923556E+03</totfact>
</mgrwt>
</event>
<event>
 7    0  0.4788920E-002  0.4510909E+03  0.7546771E-02  0.1027397E+00
         21   -1    0    0  502  501  0.00000000000E+00  0.00000000000E+00  0.19356818139E+03  0.19356818139E+03  0.00000000000E+00 0.  1.
         21   -1    0    0  501  502 -0.00000000000E+00 -0.00000000000E+00 -0.26280532428E+03  0.26280532428E+03  0.00000000000E+00 0.  1.
      99926    2    1    2    0    0 -0.71054273576E-14  0.14210854715E-13 -0.69237142887E+02  0.45637350566E+03  0.45109089408E+03 0.  0.
      99925    2    3    3    0    0  0.61201135727E+02 -0.78115000430E+02 -0.90161931256E+02  0.29533659320E+03  0.26314824174E+03 0.  0.
         25    1    4    4    0    0  0.69320469699E+01 -0.72519198926E+02 -0.47706582111E+02  0.15241559489E+03  0.12509000000E+03 0.  0.
         25    1    3    3    0    0 -0.61201135727E+02  0.78115000430E+02  0.20924788369E+02  0.16103691246E+03  0.12509000000E+03 0.  0.
         25    1    4    4    0    0  0.54269088757E+02 -0.55958015046E+01 -0.42455349145E+02  0.14292099832E+03  0.12509000000E+03 0.  0.
<mgrwt>
<rscale>  2 0.45109089E+03</rscale>
<asrwt>0</asrwt>
<pdfrwt beam="1">  1       21 0.28465909E-01 0.45109089E+03</pdfrwt>
<pdfrwt beam="2">  1       21 0.38647842E-01 0.45109089E+03</pdfrwt>
<totfact> 0.70621645E+04</totfact>
</mgrwt>
</event>
<event>
 7    0  0.4788920E-002  0.4584359E+03  0.7546771E-02  0.1025236E+00
         21   -1    0    0  502  501  0.00000000000E+00  0.00000000000E+00  0.33376598163E+03  0.33376598163E+03  0.00000000000E+00 0. -1.
         21   -1    0    0  501  502 -0.00000000000E+00 -0.00000000000E+00 -0.15741827995E+03  0.15741827995E+03  0.00000000000E+00 0. -1.
      99926    2    1    2    0    0  0.00000000000E+00  0.35527136788E-14  0.17634770168E+03  0.49118426158E+03  0.45843589185E+03 0.  0.
      99925    2    3    3    0    0 -0.58808349148E+02  0.14771007094E+02  0.42892616105E+01  0.26998702046E+03  0.26305510615E+03 0.  0.
         25    1    4    4    0    0 -0.48960200325E+02 -0.28302033128E+02  0.10518766124E+01  0.13728335966E+03  0.12509000000E+03 0.  0.
         25    1    4    4    0    0 -0.98481488230E+01  0.43073040222E+02  0.32373849980E+01  0.13270366080E+03  0.12509000000E+03 0.  0.
         25    1    3    3    0    0  0.58808349148E+02 -0.14771007094E+02  0.17205844007E+03  0.22119724112E+03  0.12509000000E+03 0.  0.
<mgrwt>
<rscale>  2 0.45843589E+03</rscale>
<asrwt>0</asrwt>
<pdfrwt beam="1">  1       21 0.49083233E-01 0.45843589E+03</pdfrwt>
<pdfrwt beam="2">  1       21 0.23149747E-01 0.45843589E+03</pdfrwt>
<totfact> 0.64127445E+04</totfact>
</mgrwt>
</event>
<event>
 7    0  0.4788920E-002  0.4541296E+03  0.7546771E-02  0.1026498E+00
         21   -1    0    0  502  501  0.00000000000E+00  0.00000000000E+00  0.21679341534E+03  0.21679341534E+03  0.00000000000E+00 0. -1.
         21   -1    0    0  501  502 -0.00000000000E+00 -0.00000000000E+00 -0.23782282393E+03  0.23782282393E+03  0.00000000000E+00 0. -1.
      99926    2    1    2    0    0  0.00000000000E+00  0.00000000000E+00 -0.21029408591E+02  0.45461623927E+03  0.45412959492E+03 0.  0.
      99925    2    3    3    0    0  0.35430219652E+02  0.81900655578E+02 -0.81587382175E+02  0.28945633459E+03  0.26299325249E+03 0.  0.
         25    1    3    3    0    0 -0.35430219652E+02 -0.81900655578E+02  0.60557973584E+02  0.16515990468E+03  0.12509000000E+03 0.  0.
         25    1    4    4    0    0 -0.21396691354E+02  0.50413625352E+02 -0.34496100001E+02  0.14084332088E+03  0.12509000000E+03 0.  0.
         25    1    4    4    0    0  0.56826911006E+02  0.31487030225E+02 -0.47091282174E+02  0.14861301371E+03  0.12509000000E+03 0.  0.
<mgrwt>
<rscale>  2 0.45412959E+03</rscale>
<asrwt>0</asrwt>
<pdfrwt beam="1">  1       21 0.31881385E-01 0.45412959E+03</pdfrwt>
<pdfrwt beam="2">  1       21 0.34973944E-01 0.45412959E+03</pdfrwt>
<totfact> 0.69052253E+04</totfact>
</mgrwt>
</event>
<event>
 7    0  0.4788920E-002  0.4071971E+03  0.7546771E-02  0.1041316E+00
         21   -1    0    0  502  501  0.00000000000E+00  0.00000000000E+00  0.15489101401E+03  0.15489101401E+03  0.00000000000E+00 0. -1.
         21   -1    0    0  501  502 -0.00000000000E+00 -0.00000000000E+00 -0.26762275273E+03  0.26762275273E+03  0.00000000000E+00 0. -1.
      99926    2    1    2    0    0  0.00000000000E+00  0.00000000000E+00 -0.11273173873E+03  0.42251376674E+03  0.40719705078E+03 0.  0.
      99925    2    3    3    0    0 -0.54343159442E+02  0.99380744982E+01 -0.92740146332E+02  0.28431421475E+03  0.26302451153E+03 0.  0.
         25    1    4    4    0    0 -0.37123575915E+02 -0.47325791645E+01 -0.87327294828E+02  0.15707998509E+03  0.12509000000E+03 0.  0.
         25    1    3    3    0    0  0.54343159442E+02 -0.99380744982E+01 -0.19991592394E+02  0.13819955199E+03  0.12509000000E+03 0.  0.
         25    1    4    4    0    0 -0.17219583527E+02  0.14670653663E+02 -0.54128515044E+01  0.12723422966E+03  0.12509000000E+03 0.  0.
<mgrwt>
<rscale>  2 0.40719705E+03</rscale>
<asrwt>0</asrwt>
<pdfrwt beam="1">  1       21 0.22778091E-01 0.40719705E+03</pdfrwt>
<pdfrwt beam="2">  1       21 0.39356286E-01 0.40719705E+03</pdfrwt>
<totfact> 0.10596890E+05</totfact>
</mgrwt>
</event>
<event>
 7    0  0.4788920E-002  0.4470528E+03  0.7546771E-02  0.1028605E+00
         21   -1    0    0  502  501  0.00000000000E+00  0.00000000000E+00  0.12898014542E+03  0.12898014542E+03  0.00000000000E+00 0.  1.
         21   -1    0    0  501  502 -0.00000000000E+00 -0.00000000000E+00 -0.38737792398E+03  0.38737792398E+03  0.00000000000E+00 0.  1.
      99926    2    1    2    0    0  0.00000000000E+00  0.00000000000E+00 -0.25839777856E+03  0.51635806940E+03  0.44705284237E+03 0.  0.
      99925    2    3    3    0    0 -0.96516070893E+02 -0.41767332245E+02 -0.17084359890E+03  0.33095821919E+03  0.26322223610E+03 0.  0.
         25    1    4    4    0    0 -0.21181122928E+02 -0.32938988879E+02 -0.46876789766E+02  0.13920689091E+03  0.12509000000E+03 0.  0.
         25    1    3    3    0    0  0.96516070893E+02  0.41767332245E+02 -0.87554179658E+02  0.18539985021E+03  0.12509000000E+03 0.  0.
         25    1    4    4    0    0 -0.75334947965E+02 -0.88283433665E+01 -0.12396680913E+03  0.19175132828E+03  0.12509000000E+03 0.  0.
<mgrwt>
<rscale>  2 0.44705284E+03</rscale>
<asrwt>0</asrwt>
<pdfrwt beam="1">  1       21 0.18967669E-01 0.44705284E+03</pdfrwt>
<pdfrwt beam="2">  1       21 0.56967341E-01 0.44705284E+03</pdfrwt>
<totfact> 0.68344486E+04</totfact>
</mgrwt>
</event>
<event>
 7    0  0.4788920E-002  0.4522113E+03  0.7546771E-02  0.1027065E+00
         21   -1    0    0  502  501  0.00000000000E+00  0.00000000000E+00  0.78973596191E+03  0.78973596191E+03  0.00000000000E+00 0. -1.
         21   -1    0    0  501  502 -0.00000000000E+00 -0.00000000000E+00 -0.64735256221E+02  0.64735256221E+02  0.00000000000E+00 0. -1.
      99926    2    1    2    0    0  0.00000000000E+00  0.00000000000E+00  0.72500070569E+03  0.85447121813E+03  0.45221127735E+03 0.  0.
      99925    2    3    3    0    0  0.81528913385E+02 -0.74191366361E+02  0.43906915962E+03  0.52347925494E+03  0.26286399689E+03 0.  0.
         25    1    4    4    0    0  0.12564644483E+02 -0.50864624678E+02  0.16537373384E+03  0.21387159765E+03  0.12509000000E+03 0.  0.
         25    1    3    3    0    0 -0.81528913385E+02  0.74191366361E+02  0.28593154607E+03  0.33099196319E+03  0.12509000000E+03 0.  0.
         25    1    4    4    0    0  0.68964268902E+02 -0.23326741683E+02  0.27369542578E+03  0.30960765729E+03  0.12509000000E+03 0.  0.
<mgrwt>
<rscale>  2 0.45221128E+03</rscale>
<asrwt>0</asrwt>
<pdfrwt beam="1">  1       21 0.11613764E+00 0.45221128E+03</pdfrwt>
<pdfrwt beam="2">  1       21 0.95198911E-02 0.45221128E+03</pdfrwt>
<totfact> 0.46243315E+04</totfact>
</mgrwt>
</event>
<event>
 7    0  0.4788920E-002  0.4591606E+03  0.7546771E-02  0.1025025E+00
         21   -1    0    0  502  501  0.00000000000E+00  0.00000000000E+00  0.78664502554E+03  0.78664502554E+03  0.00000000000E+00 0. -1.
         21   -1    0    0  501  502 -0.00000000000E+00 -0.00000000000E+00 -0.67002421256E+02  0.67002421256E+02  0.00000000000E+00 0. -1.
      99926    2    1    2    0    0  0.00000000000E+00  0.17763568394E-14  0.71964260428E+03  0.85364744679E+03  0.45916063150E+03 0.  0.
      99925    2    3    3    0    0  0.86980684787E+02 -0.15152939138E+02  0.30843517196E+03  0.41486012749E+03  0.26302360917E+03 0.  0.
         25    1    4    4    0    0  0.12381890156E+02 -0.83059249940E+01  0.18501766140E+03  0.22383329226E+03  0.12509000000E+03 0.  0.
         25    1    3    3    0    0 -0.86980684787E+02  0.15152939138E+02  0.41120743232E+03  0.43878731931E+03  0.12509000000E+03 0.  0.
         25    1    4    4    0    0  0.74598794631E+02 -0.68470141437E+01  0.12341751057E+03  0.19102683523E+03  0.12509000000E+03 0.  0.
<mgrwt>
<rscale>  2 0.45916063E+03</rscale>
<asrwt>0</asrwt>
<pdfrwt beam="1">  1       21 0.11568309E+00 0.45916063E+03</pdfrwt>
<pdfrwt beam="2">  1       21 0.98532977E-02 0.45916063E+03</pdfrwt>
<totfact> 0.43828599E+04</totfact>
</mgrwt>
</event>
<event>
 7    0  0.4788920E-002  0.4536971E+03  0.7546771E-02  0.1026625E+00
         21   -1    0    0  502  501  0.00000000000E+00  0.00000000000E+00  0.51991872187E+02  0.51991872187E+02  0.00000000000E+00 0.  1.
         21   -1    0    0  501  502 -0.00000000000E+00 -0.00000000000E+00 -0.98977511636E+03  0.98977511636E+03  0.00000000000E+00 0.  1.
      99926    2    1    2    0    0 -0.71054273576E-14  0.00000000000E+00 -0.93778324418E+03  0.10417669886E+04  0.45369708548E+03 0.  0.
      99925    2    3    3    0    0 -0.33281610173E+02 -0.67172394213E+02 -0.39997285572E+03  0.48453515336E+03  0.26301375137E+03 0.  0.
         25    1    3    3    0    0  0.33281610173E+02  0.67172394213E+02 -0.53781038845E+03  0.55723183519E+03  0.12509000000E+03 0.  0.
         25    1    4    4    0    0 -0.53365444887E+02 -0.40494176791E+02 -0.17892964628E+03  0.22836588073E+03  0.12509000000E+03 0.  0.
         25    1    4    4    0    0  0.20083834714E+02 -0.26678217422E+02 -0.22104320945E+03  0.25616927264E+03  0.12509000000E+03 0.  0.
<mgrwt>
<rscale>  2 0.45369709E+03</rscale>
<asrwt>0</asrwt>
<pdfrwt beam="1">  1       21 0.76458647E-02 0.45369709E+03</pdfrwt>
<pdfrwt beam="2">  1       21 0.14555514E+00 0.45369709E+03</pdfrwt>
<totfact> 0.37965607E+04</totfact>
</mgrwt>
</event>
<event>
 7    0  0.4788920E-002  0.4580237E+03  0.7546771E-02  0.1025356E+00
         21   -1    0    0  502  501  0.00000000000E+00  0.00000000000E+00  0.27670091509E+03  0.27670091509E+03  0.00000000000E+00 0.  1.
         21   -1    0    0  501  502 -0.00000000000E+00 -0.00000000000E+00 -0.18954197274E+03  0.18954197274E+03  0.00000000000E+00 0.  1.
      99926    2    1    2    0    0  0.00000000000E+00  0.26645352591E-14  0.87158942351E+02  0.46624288783E+03  0.45802374307E+03 0.  0.
      99925    2    3    3    0    0  0.17046700381E+02  0.19831913354E+01 -0.62078680378E+02  0.27075913101E+03  0.26298711266E+03 0.  0.
         25    1    4    4    0    0 -0.67091088981E+01 -0.31960360854E+02 -0.49318614461E+02  0.13837019419E+03  0.12509000000E+03 0.  0.
         25    1    4    4    0    0  0.23755809279E+02  0.33943552189E+02 -0.12760065917E+02  0.13238893682E+03  0.12509000000E+03 0.  0.
         25    1    3    3    0    0 -0.17046700381E+02 -0.19831913354E+01  0.14923762273E+03  0.19548375682E+03  0.12509000000E+03 0.  0.
<mgrwt>
<rscale>  2 0.45802374E+03</rscale>
<asrwt>0</asrwt>
<pdfrwt beam="1">  1       21 0.40691311E-01 0.45802374E+03</pdfrwt>
<pdfrwt beam="2">  1       21 0.27873819E-01 0.45802374E+03</pdfrwt>
<totfact> 0.66114505E+04</totfact>
</mgrwt>
</event>
<event>
 7    0  0.4788920E-002  0.4546082E+03  0.7546771E-02  0.1026357E+00
         21   -1    0    0  502  501  0.00000000000E+00  0.00000000000E+00  0.57114700240E+03  0.57114700240E+03  0.00000000000E+00 0.  1.
         21   -1    0    0  501  502 -0.00000000000E+00 -0.00000000000E+00 -0.90462076060E+02  0.90462076060E+02  0.00000000000E+00 0.  1.
      99926    2    1    2    0    0  0.00000000000E+00  0.00000000000E+00  0.48068492634E+03  0.66160907846E+03  0.45460815467E+03 0.  0.
      99925    2    3    3    0    0 -0.22680957875E+02  0.10924538060E+03  0.32632990473E+03  0.43374517209E+03  0.26304883302E+03 0.  0.
         25    1    4    4    0    0 -0.99096125285E+01  0.37852639910E+02  0.21272292563E+03  0.24985910822E+03  0.12509000000E+03 0.  0.
         25    1    3    3    0    0  0.22680957875E+02 -0.10924538060E+03  0.15435502161E+03  0.22786390638E+03  0.12509000000E+03 0.  0.
         25    1    4    4    0    0 -0.12771345346E+02  0.71392740693E+02  0.11360697910E+03  0.18388606387E+03  0.12509000000E+03 0.  0.
<mgrwt>
<rscale>  2 0.45460815E+03</rscale>
<asrwt>0</asrwt>
<pdfrwt beam="1">  1       21 0.83992204E-01 0.45460815E+03</pdfrwt>
<pdfrwt beam="2">  1       21 0.13303247E-01 0.45460815E+03</pdfrwt>
<totfact> 0.55207381E+04</totfact>
</mgrwt>
</event>
<event>
 7    0  0.4788920E-002  0.4525877E+03  0.7546771E-02  0.1026953E+00
         21   -1    0    0  502  501  0.00000000000E+00  0.00000000000E+00  0.11052369150E+03  0.11052369150E+03  0.00000000000E+00 0.  1.
         21   -1    0    0  501  502 -0.00000000000E+00 -0.00000000000E+00 -0.46332960109E+03  0.46332960109E+03  0.00000000000E+00 0.  1.
      99926    2    1    2    0    0  0.00000000000E+00  0.00000000000E+00 -0.35280590960E+03  0.57385329259E+03  0.45258766175E+03 0.  0.
      99925    2    3    3    0    0 -0.53022024881E+02  0.69053439069E+02 -0.13571030050E+03  0.30860298786E+03  0.26313267734E+03 0.  0.
         25    1    4    4    0    0 -0.99824186576E+01  0.70678255633E+02 -0.82721090618E+02  0.16608838441E+03  0.12509000000E+03 0.  0.
         25    1    3    3    0    0  0.53022024881E+02 -0.69053439069E+02 -0.21709560910E+03  0.26525030473E+03  0.12509000000E+03 0.  0.
         25    1    4    4    0    0 -0.43039606224E+02 -0.16248165638E+01 -0.52989209879E+02  0.14251460345E+03  0.12509000000E+03 0.  0.
<mgrwt>
<rscale>  2 0.45258766E+03</rscale>
<asrwt>0</asrwt>
<pdfrwt beam="1">  1       21 0.16253484E-01 0.45258766E+03</pdfrwt>
<pdfrwt beam="2">  1       21 0.68136704E-01 0.45258766E+03</pdfrwt>
<totfact> 0.61481590E+04</totfact>
</mgrwt>
</event>
<event>
 7    0  0.4788920E-002  0.4545542E+03  0.7546771E-02  0.1026373E+00
         21   -1    0    0  502  501  0.00000000000E+00  0.00000000000E+00  0.41741130093E+03  0.41741130093E+03  0.00000000000E+00 0. -1.
         21   -1    0    0  501  502 -0.00000000000E+00 -0.00000000000E+00 -0.12375056380E+03  0.12375056380E+03  0.00000000000E+00 0. -1.
      99926    2    1    2    0    0 -0.71054273576E-14 -0.14210854715E-13  0.29366073713E+03  0.54116186473E+03  0.45455421602E+03 0.  0.
      99925    2    3    3    0    0  0.49711982142E+02  0.94115561589E+02  0.22942553981E+03  0.36480232068E+03  0.26289852558E+03 0.  0.
         25    1    4    4    0    0 -0.66031545164E+01  0.26655181036E+02  0.79824100079E+02  0.15090889761E+03  0.12509000000E+03 0.  0.
         25    1    4    4    0    0  0.56315136658E+02  0.67460380553E+02  0.14960143973E+03  0.21389342306E+03  0.12509000000E+03 0.  0.
         25    1    3    3    0    0 -0.49711982142E+02 -0.94115561589E+02  0.64235197327E+02  0.17635954405E+03  0.12509000000E+03 0.  0.
<mgrwt>
<rscale>  2 0.45455422E+03</rscale>
<asrwt>0</asrwt>
<pdfrwt beam="1">  1       21 0.61384015E-01 0.45455422E+03</pdfrwt>
<pdfrwt beam="2">  1       21 0.18198612E-01 0.45455422E+03</pdfrwt>
<totfact> 0.62675161E+04</totfact>
</mgrwt>
</event>
<event>
 7    0  0.4788920E-002  0.4591121E+03  0.7546771E-02  0.1025039E+00
         21   -1    0    0  502  501  0.00000000000E+00  0.00000000000E+00  0.33085252039E+02  0.33085252039E+02  0.00000000000E+00 0. -1.
         21   -1    0    0  501  502 -0.00000000000E+00 -0.00000000000E+00 -0.15927330177E+04  0.15927330177E+04  0.00000000000E+00 0. -1.
      99926    2    1    2    0    0  0.00000000000E+00  0.00000000000E+00 -0.15596477657E+04  0.16258182698E+04  0.45911207051E+03 0.  0.
      99925    2    3    3    0    0 -0.70848254139E+02 -0.92731594087E+02 -0.95603675829E+03  0.99843291768E+03  0.26314137694E+03 0.  0.
         25    1    3    3    0    0  0.70848254139E+02  0.92731594087E+02 -0.60361100738E+03  0.62738535207E+03  0.12509000000E+03 0.  0.
         25    1    4    4    0    0  0.66812666138E+01 -0.39398578667E+02 -0.43288939015E+03  0.45236889761E+03  0.12509000000E+03 0.  0.
         25    1    4    4    0    0 -0.77529520752E+02 -0.53333015420E+02 -0.52314736814E+03  0.54606402007E+03  0.12509000000E+03 0.  0.
<mgrwt>
<rscale>  2 0.45911207E+03</rscale>
<asrwt>0</asrwt>
<pdfrwt beam="1">  1       21 0.48654772E-02 0.45911207E+03</pdfrwt>
<pdfrwt beam="2">  1       21 0.23422550E+00 0.45911207E+03</pdfrwt>
<totfact> 0.20199889E+04</totfact>
</mgrwt>
</event>
<event>
 7    0  0.4788920E-002  0.4534856E+03  0.7546771E-02  0.1026688E+00
         21   -1    0    0  502  501  0.00000000000E+00  0.00000000000E+00  0.49474348355E+03  0.49474348355E+03  0.00000000000E+00 0. -1.
         21   -1    0    0  501  502 -0.00000000000E+00 -0.00000000000E+00 -0.10391706580E+03  0.10391706580E+03  0.00000000000E+00 0. -1.
      99926    2    1    2    0    0 -0.35527136788E-14 -0.35527136788E-14  0.39082641775E+03  0.59866054935E+03  0.45348557258E+03 0.  0.
      99925    2    3    3    0    0 -0.23559437036E+02 -0.28389552815E+02  0.38555089031E+03  0.46813716803E+03  0.26294848410E+03 0.  0.
         25    1    4    4    0    0 -0.30062619699E+01 -0.13469243779E+02  0.12186997282E+03  0.17518634797E+03  0.12509000000E+03 0.  0.
         25    1    3    3    0    0  0.23559437036E+02  0.28389552815E+02  0.52755274398E+01  0.13052338132E+03  0.12509000000E+03 0.  0.
         25    1    4    4    0    0 -0.20553175066E+02 -0.14920309036E+02  0.26368091749E+03  0.29295082006E+03  0.12509000000E+03 0.  0.
<mgrwt>
<rscale>  2 0.45348557E+03</rscale>
<asrwt>0</asrwt>
<pdfrwt beam="1">  1       21 0.72756394E-01 0.45348557E+03</pdfrwt>
<pdfrwt beam="2">  1       21 0.15281922E-01 0.45348557E+03</pdfrwt>
<totfact> 0.59469225E+04</totfact>
</mgrwt>
</event>
<event>
 7    0  0.4788920E-002  0.3931820E+03  0.7546771E-02  0.1046166E+00
         21   -1    0    0  502  501  0.00000000000E+00  0.00000000000E+00  0.47149550489E+03  0.47149550489E+03  0.00000000000E+00 0. -1.
         21   -1    0    0  501  502 -0.00000000000E+00 -0.00000000000E+00 -0.81968999660E+02  0.81968999660E+02  0.00000000000E+00 0. -1.
      99926    2    1    2    0    0  0.00000000000E+00  0.66613381478E-15  0.38952650523E+03  0.55346450455E+03  0.39318196744E+03 0.  0.
      99925    2    3    3    0    0  0.23523925695E+02  0.18080459361E+01  0.23715198807E+03  0.35491439578E+03  0.26299528281E+03 0.  0.
         25    1    4    4    0    0 -0.27800003974E+02 -0.85574147073E+01  0.11740696124E+03  0.17400566720E+03  0.12509000000E+03 0.  0.
         25    1    4    4    0    0  0.51323929669E+02  0.10365460643E+02  0.11974502682E+03  0.18090872859E+03  0.12509000000E+03 0.  0.
         25    1    3    3    0    0 -0.23523925695E+02 -0.18080459361E+01  0.15237451716E+03  0.19855010877E+03  0.12509000000E+03 0.  0.
<mgrwt>
<rscale>  2 0.39318197E+03</rscale>
<asrwt>0</asrwt>
<pdfrwt beam="1">  1       21 0.69337573E-01 0.39318197E+03</pdfrwt>
<pdfrwt beam="2">  1       21 0.12054265E-01 0.39318197E+03</pdfrwt>
<totfact> 0.10383786E+05</totfact>
</mgrwt>
</event>
<event>
 7    0  0.4788920E-002  0.4599901E+03  0.7546771E-02  0.1024784E+00
         21   -1    0    0  502  501  0.00000000000E+00  0.00000000000E+00  0.13324730851E+03  0.13324730851E+03  0.00000000000E+00 0.  1.
         21   -1    0    0  501  502 -0.00000000000E+00 -0.00000000000E+00 -0.39698898873E+03  0.39698898873E+03  0.00000000000E+00 0.  1.
      99926    2    1    2    0    0  0.00000000000E+00 -0.14210854715E-13 -0.26374168022E+03  0.53023629724E+03  0.45999006188E+03 0.  0.
      99925    2    3    3    0    0 -0.72309318922E+02 -0.67367339819E+02 -0.93574207031E+02  0.29705938349E+03  0.26404762642E+03 0.  0.
         25    1    4    4    0    0 -0.13362135775E+02 -0.39155193003E+02 -0.79704249966E+01  0.13199511955E+03  0.12509000000E+03 0.  0.
         25    1    3    3    0    0  0.72309318922E+02  0.67367339819E+02 -0.17016747319E+03  0.23317691376E+03  0.12509000000E+03 0.  0.
         25    1    4    4    0    0 -0.58947183147E+02 -0.28212146816E+02 -0.85603782034E+02  0.16506426393E+03  0.12509000000E+03 0.  0.
<mgrwt>
<rscale>  2 0.45999006E+03</rscale>
<asrwt>0</asrwt>
<pdfrwt beam="1">  1       21 0.19595192E-01 0.45999006E+03</pdfrwt>
<pdfrwt beam="2">  1       21 0.58380734E-01 0.45999006E+03</pdfrwt>
<totfact> 0.60751736E+04</totfact>
</mgrwt>
</event>
<event>
 7    0  0.4788920E-002  0.4353492E+03  0.7546771E-02  0.1032183E+00
         21   -1    0    0  502  501  0.00000000000E+00  0.00000000000E+00  0.18611329287E+03  0.18611329287E+03  0.00000000000E+00 0.  1.
         21   -1    0    0  501  502 -0.00000000000E+00 -0.00000000000E+00 -0.25458811805E+03  0.25458811805E+03  0.00000000000E+00 0.  1.
      99926    2    1    2    0    0  0.00000000000E+00  0.00000000000E+00 -0.68474825176E+02  0.44070141092E+03  0.43534920684E+03 0.  0.
      99925    2    3    3    0    0  0.58375452294E+02  0.66098669575E+02 -0.75147822260E+02  0.28750622646E+03  0.26312716985E+03 0.  0.
         25    1    4    4    0    0  0.46849761721E+02  0.72015375739E+02 -0.40811990786E+02  0.15714401423E+03  0.12509000000E+03 0.  0.
         25    1    3    3    0    0 -0.58375452294E+02 -0.66098669575E+02  0.66729970832E+01  0.15319518445E+03  0.12509000000E+03 0.  0.
         25    1    4    4    0    0  0.11525690573E+02 -0.59167061644E+01 -0.34335831473E+02  0.13036221223E+03  0.12509000000E+03 0.  0.
<mgrwt>
<rscale>  2 0.43534921E+03</rscale>
<asrwt>0</asrwt>
<pdfrwt beam="1">  1       21 0.27369602E-01 0.43534921E+03</pdfrwt>
<pdfrwt beam="2">  1       21 0.37439429E-01 0.43534921E+03</pdfrwt>
<totfact> 0.81679031E+04</totfact>
</mgrwt>
</event>
<event>
 7    0  0.4788920E-002  0.4580998E+03  0.7546771E-02  0.1025334E+00
         21   -1    0    0  502  501  0.00000000000E+00  0.00000000000E+00  0.22846061468E+04  0.22846061468E+04  0.00000000000E+00 0.  1.
         21   -1    0    0  501  502 -0.00000000000E+00 -0.00000000000E+00 -0.22964067964E+02  0.22964067964E+02  0.00000000000E+00 0.  1.
      99926    2    1    2    0    0  0.00000000000E+00  0.17763568394E-14  0.22616420789E+04  0.23075702148E+04  0.45809977440E+03 0.  0.
      99925    2    3    3    0    0  0.18700607453E+02 -0.15252803712E+02  0.84788936972E+03  0.88808911543E+03  0.26306564374E+03 0.  0.
         25    1    4    4    0    0  0.25729341137E+01  0.16614967641E+02  0.31036975375E+03  0.33505159197E+03  0.12509000000E+03 0.  0.
         25    1    4    4    0    0  0.16127673339E+02 -0.31867771353E+02  0.53751961597E+03  0.55303752346E+03  0.12509000000E+03 0.  0.
         25    1    3    3    0    0 -0.18700607453E+02  0.15252803712E+02  0.14137527092E+04  0.14194810994E+04  0.12509000000E+03 0.  0.
<mgrwt>
<rscale>  2 0.45809977E+03</rscale>
<asrwt>0</asrwt>
<pdfrwt beam="1">  1       21 0.33597134E+00 0.45809977E+03</pdfrwt>
<pdfrwt beam="2">  1       21 0.33770704E-02 0.45809977E+03</pdfrwt>
<totfact> 0.90859810E+03</totfact>
</mgrwt>
</event>
<event>
 7    0  0.4788920E-002  0.4532427E+03  0.7546771E-02  0.1026759E+00
         21   -1    0    0  502  501  0.00000000000E+00  0.00000000000E+00  0.78630510943E+02  0.78630510943E+02  0.00000000000E+00 0. -1.
         21   -1    0    0  501  502 -0.00000000000E+00 -0.00000000000E+00 -0.65314648571E+03  0.65314648571E+03  0.00000000000E+00 0. -1.
      99926    2    1    2    0    0  0.88817841970E-15  0.00000000000E+00 -0.57451597477E+03  0.73177699666E+03  0.45324272478E+03 0.  0.
      99925    2    3    3    0    0 -0.40913031564E+01 -0.99765321102E+02 -0.44218670415E+03  0.52410320915E+03  0.26303086217E+03 0.  0.
         25    1    4    4    0    0  0.46287645687E+01 -0.57055329459E+02 -0.29848635575E+03  0.32866145005E+03  0.12509000000E+03 0.  0.
         25    1    3    3    0    0  0.40913031564E+01  0.99765321102E+02 -0.13232927062E+03  0.20767378751E+03  0.12509000000E+03 0.  0.
         25    1    4    4    0    0 -0.87200677252E+01 -0.42709991643E+02 -0.14370034840E+03  0.19544175910E+03  0.12509000000E+03 0.  0.
<mgrwt>
<rscale>  2 0.45324272E+03</rscale>
<asrwt>0</asrwt>
<pdfrwt beam="1">  1       21 0.11563310E-01 0.45324272E+03</pdfrwt>
<pdfrwt beam="2">  1       21 0.96050954E-01 0.45324272E+03</pdfrwt>
<totfact> 0.51925205E+04</totfact>
</mgrwt>
</event>
<event>
 7    0  0.4788920E-002  0.4519209E+03  0.7546771E-02  0.1027151E+00
         21   -1    0    0  502  501  0.00000000000E+00  0.00000000000E+00  0.19064467203E+03  0.19064467203E+03  0.00000000000E+00 0.  1.
         21   -1    0    0  501  502 -0.00000000000E+00 -0.00000000000E+00 -0.26781825548E+03  0.26781825548E+03  0.00000000000E+00 0.  1.
      99926    2    1    2    0    0  0.00000000000E+00  0.00000000000E+00 -0.77173583447E+02  0.45846292751E+03  0.45192089343E+03 0.  0.
      99925    2    3    3    0    0 -0.46167803669E+02  0.37383032690E+02  0.45581874233E+02  0.27340788781E+03  0.26295476536E+03 0.  0.
         25    1    4    4    0    0 -0.63336369184E+02  0.13359426007E+02  0.18467286080E+02  0.14205111291E+03  0.12509000000E+03 0.  0.
         25    1    4    4    0    0  0.17168565515E+02  0.24023606683E+02  0.27114588153E+02  0.13135677489E+03  0.12509000000E+03 0.  0.
         25    1    3    3    0    0  0.46167803669E+02 -0.37383032690E+02 -0.12275545768E+03  0.18505503970E+03  0.12509000000E+03 0.  0.
<mgrwt>
<rscale>  2 0.45192089E+03</rscale>
<asrwt>0</asrwt>
<pdfrwt beam="1">  1       21 0.28035981E-01 0.45192089E+03</pdfrwt>
<pdfrwt beam="2">  1       21 0.39385037E-01 0.45192089E+03</pdfrwt>
<totfact> 0.69995563E+04</totfact>
</mgrwt>
</event>
<event>
 7    0  0.4788920E-002  0.4595194E+03  0.7546771E-02  0.1024921E+00
         21   -1    0    0  502  501  0.00000000000E+00  0.00000000000E+00  0.82841068157E+02  0.82841068157E+02  0.00000000000E+00 0. -1.
         21   -1    0    0  501  502 -0.00000000000E+00 -0.00000000000E+00 -0.63723839495E+03  0.63723839495E+03  0.00000000000E+00 0. -1.
      99926    2    1    2    0    0  0.14210854715E-13  0.00000000000E+00 -0.55439732679E+03  0.72007946311E+03  0.45951935458E+03 0.  0.
      99925    2    3    3    0    0 -0.10658378445E+03  0.48176812240E+02 -0.36097816657E+03  0.46173940043E+03  0.26309110365E+03 0.  0.
         25    1    4    4    0    0 -0.29163083044E+02  0.46641136271E+02 -0.13498509728E+03  0.19207906078E+03  0.12509000000E+03 0.  0.
         25    1    4    4    0    0 -0.77420701402E+02  0.15356759687E+01 -0.22599306930E+03  0.26966033964E+03  0.12509000000E+03 0.  0.
         25    1    3    3    0    0  0.10658378445E+03 -0.48176812240E+02 -0.19341916022E+03  0.25834006268E+03  0.12509000000E+03 0.  0.
<mgrwt>
<rscale>  2 0.45951935E+03</rscale>
<asrwt>0</asrwt>
<pdfrwt beam="1">  1       21 0.12182511E-01 0.45951935E+03</pdfrwt>
<pdfrwt beam="2">  1       21 0.93711524E-01 0.45951935E+03</pdfrwt>
<totfact> 0.50024234E+04</totfact>
</mgrwt>
</event>
<event>
 7    0  0.4788920E-002  0.4513223E+03  0.7546771E-02  0.1027328E+00
         21   -1    0    0  502  501  0.00000000000E+00  0.00000000000E+00  0.10342874188E+04  0.10342874188E+04  0.00000000000E+00 0. -1.
         21   -1    0    0  501  502 -0.00000000000E+00 -0.00000000000E+00 -0.49234822297E+02  0.49234822297E+02  0.00000000000E+00 0. -1.
      99926    2    1    2    0    0  0.00000000000E+00 -0.14210854715E-13  0.98505259645E+03  0.10835222410E+04  0.45132231173E+03 0.  0.
      99925    2    3    3    0    0 -0.21026973376E+02  0.10748066650E+03  0.60952831345E+03  0.67283961114E+03  0.26304780961E+03 0.  0.
         25    1    4    4    0    0  0.70329812353E+01  0.14120641842E+02  0.28441943184E+03  0.31111216089E+03  0.12509000000E+03 0.  0.
         25    1    4    4    0    0 -0.28059954611E+02  0.93360024662E+02  0.32510888161E+03  0.36172745025E+03  0.12509000000E+03 0.  0.
         25    1    3    3    0    0  0.21026973376E+02 -0.10748066650E+03  0.37552428301E+03  0.41068262991E+03  0.12509000000E+03 0.  0.
<mgrwt>
<rscale>  2 0.45132231E+03</rscale>
<asrwt>0</asrwt>
<pdfrwt beam="1">  1       21 0.15210108E+00 0.45132231E+03</pdfrwt>
<pdfrwt beam="2">  1       21 0.72404157E-02 0.45132231E+03</pdfrwt>
<totfact> 0.37124771E+04</totfact>
</mgrwt>
</event>
<event>
 7    0  0.4788920E-002  0.4571772E+03  0.7546771E-02  0.1025603E+00
         21   -1    0    0  502  501  0.00000000000E+00  0.00000000000E+00  0.50446035508E+03  0.50446035508E+03  0.00000000000E+00 0. -1.
         21   -1    0    0  501  502 -0.00000000000E+00 -0.00000000000E+00 -0.10358149306E+03  0.10358149306E+03  0.00000000000E+00 0. -1.
      99926    2    1    2    0    0  0.00000000000E+00 -0.71054273576E-14  0.40087886202E+03  0.60804184814E+03  0.45717723814E+03 0.  0.
      99925    2    3    3    0    0 -0.97737420773E+02 -0.60902499358E+02  0.23766248210E+03  0.37235389211E+03  0.26249237650E+03 0.  0.
         25    1    3    3    0    0  0.97737420773E+02  0.60902499358E+02  0.16321637991E+03  0.23568795603E+03  0.12509000000E+03 0.  0.
         25    1    4    4    0    0 -0.14239453858E+02 -0.35777715472E+02  0.81983591674E+02  0.15443971113E+03  0.12509000000E+03 0.  0.
         25    1    4    4    0    0 -0.83497966915E+02 -0.25124783885E+02  0.15567889043E+03  0.21791418097E+03  0.12509000000E+03 0.  0.
<mgrwt>
<rscale>  2 0.45717724E+03</rscale>
<asrwt>0</asrwt>
<pdfrwt beam="1">  1       21 0.74185345E-01 0.45717724E+03</pdfrwt>
<pdfrwt beam="2">  1       21 0.15232573E-01 0.45717724E+03</pdfrwt>
<totfact> 0.57195902E+04</totfact>
</mgrwt>
</event>
<event>
 7    0  0.4788920E-002  0.4143346E+03  0.7546771E-02  0.1038926E+00
         21   -1    0    0  502  501  0.00000000000E+00  0.00000000000E+00  0.13375179791E+03  0.13375179791E+03  0.00000000000E+00 0.  1.
         21   -1    0    0  501  502 -0.00000000000E+00 -0.00000000000E+00 -0.32088013530E+03  0.32088013530E+03  0.00000000000E+00 0.  1.
      99926    2    1    2    0    0  0.00000000000E+00 -0.17763568394E-14 -0.18712833738E+03  0.45463193321E+03  0.41433462327E+03 0.  0.
      99925    2    3    3    0    0  0.37001664363E+02 -0.41758832220E+01 -0.59546811861E+02  0.27211860515E+03  0.26289950798E+03 0.  0.
         25    1    4    4    0    0  0.46669279904E+01 -0.39952776161E+02 -0.32406116784E+02  0.13533539465E+03  0.12509000000E+03 0.  0.
         25    1    3    3    0    0 -0.37001664363E+02  0.41758832220E+01 -0.12758152552E+03  0.18251332806E+03  0.12509000000E+03 0.  0.
         25    1    4    4    0    0  0.32334736372E+02  0.35776892939E+02 -0.27140695076E+02  0.13678321050E+03  0.12509000000E+03 0.  0.
<mgrwt>
<rscale>  2 0.41433462E+03</rscale>
<asrwt>0</asrwt>
<pdfrwt beam="1">  1       21 0.19669382E-01 0.41433462E+03</pdfrwt>
<pdfrwt beam="2">  1       21 0.47188255E-01 0.41433462E+03</pdfrwt>
<totfact> 0.96048976E+04</totfact>
</mgrwt>
</event>
<event>
 7    0  0.4788920E-002  0.4556956E+03  0.7546771E-02  0.1026037E+00
         21   -1    0    0  502  501  0.00000000000E+00  0.00000000000E+00  0.73237264048E+03  0.73237264048E+03  0.00000000000E+00 0. -1.
         21   -1    0    0  501  502 -0.00000000000E+00 -0.00000000000E+00 -0.70885512241E+02  0.70885512241E+02  0.00000000000E+00 0. -1.
      99926    2    1    2    0    0  0.00000000000E+00  0.00000000000E+00  0.66148712824E+03  0.80325815272E+03  0.45569555526E+03 0.  0.
      99925    2    3    3    0    0  0.38067995566E+02  0.10467596990E+03  0.45386343765E+03  0.53649733110E+03  0.26349788477E+03 0.  0.
         25    1    3    3    0    0 -0.38067995566E+02 -0.10467596990E+03  0.20762369058E+03  0.26676082162E+03  0.12509000000E+03 0.  0.
         25    1    4    4    0    0  0.57814708164E+02  0.39547320200E+02  0.23998619650E+03  0.27954858902E+03  0.12509000000E+03 0.  0.
         25    1    4    4    0    0 -0.19746712597E+02  0.65128649697E+02  0.21387724115E+03  0.25694874207E+03  0.12509000000E+03 0.  0.
<mgrwt>
<rscale>  2 0.45569556E+03</rscale>
<asrwt>0</asrwt>
<pdfrwt beam="1">  1       21 0.10770185E+00 0.45569556E+03</pdfrwt>
<pdfrwt beam="2">  1       21 0.10424340E-01 0.45569556E+03</pdfrwt>
<totfact> 0.47348638E+04</totfact>
</mgrwt>
</event>
<event>
 7    0  0.4788920E-002  0.4498387E+03  0.7546771E-02  0.1027770E+00
         21   -1    0    0  502  501  0.00000000000E+00  0.00000000000E+00  0.39341177612E+03  0.39341177612E+03  0.00000000000E+00 0.  1.
         21   -1    0    0  501  502 -0.00000000000E+00 -0.00000000000E+00 -0.12858971221E+03  0.12858971221E+03  0.00000000000E+00 0.  1.
      99926    2    1    2    0    0  0.00000000000E+00  0.71054273576E-14  0.26482206391E+03  0.52200148834E+03  0.44983866918E+03 0.  0.
      99925    2    3    3    0    0  0.98221127006E+02 -0.39222345057E+02  0.19427112642E+03  0.34364587440E+03  0.26299322100E+03 0.  0.
         25    1    4    4    0    0  0.52244201983E+02  0.23118839104E+01  0.54560638524E+02  0.14614777735E+03  0.12509000000E+03 0.  0.
         25    1    4    4    0    0  0.45976925023E+02 -0.41534228968E+02  0.13971048790E+03  0.19749809705E+03  0.12509000000E+03 0.  0.
         25    1    3    3    0    0 -0.98221127006E+02  0.39222345057E+02  0.70550937488E+02  0.17835561394E+03  0.12509000000E+03 0.  0.
<mgrwt>
<rscale>  2 0.44983867E+03</rscale>
<asrwt>0</asrwt>
<pdfrwt beam="1">  1       21 0.57854673E-01 0.44983867E+03</pdfrwt>
<pdfrwt beam="2">  1       21 0.18910252E-01 0.44983867E+03</pdfrwt>
<totfact> 0.66427788E+04</totfact>
</mgrwt>
</event>
<event>
 7    0  0.4788920E-002  0.4567835E+03  0.7546771E-02  0.1025718E+00
         21   -1    0    0  502  501  0.00000000000E+00  0.00000000000E+00  0.13882835099E+03  0.13882835099E+03  0.00000000000E+00 0.  1.
         21   -1    0    0  501  502 -0.00000000000E+00 -0.00000000000E+00 -0.37573579527E+03  0.37573579527E+03  0.00000000000E+00 0.  1.
      99926    2    1    2    0    0  0.00000000000E+00  0.00000000000E+00 -0.23690744428E+03  0.51456414626E+03  0.45678345358E+03 0.  0.
      99925    2    3    3    0    0  0.83833766964E+02  0.46082559705E+02 -0.77056249657E+02  0.29017249019E+03  0.26288915090E+03 0.  0.
         25    1    4    4    0    0  0.72656404852E+02  0.10334788379E+02 -0.65349590217E+02  0.15907180158E+03  0.12509000000E+03 0.  0.
         25    1    3    3    0    0 -0.83833766964E+02 -0.46082559705E+02 -0.15985119462E+03  0.22439165607E+03  0.12509000000E+03 0.  0.
         25    1    4    4    0    0  0.11177362111E+02  0.35747771327E+02 -0.11706659440E+02  0.13110068861E+03  0.12509000000E+03 0.  0.
<mgrwt>
<rscale>  2 0.45678345E+03</rscale>
<asrwt>0</asrwt>
<pdfrwt beam="1">  1       21 0.20415934E-01 0.45678345E+03</pdfrwt>
<pdfrwt beam="2">  1       21 0.55255263E-01 0.45678345E+03</pdfrwt>
<totfact> 0.63357698E+04</totfact>
</mgrwt>
</event>
<event>
 7    0  0.4788920E-002  0.4496121E+03  0.7546771E-02  0.1027838E+00
         21   -1    0    0  502  501  0.00000000000E+00  0.00000000000E+00  0.76899460966E+02  0.76899460966E+02  0.00000000000E+00 0. -1.
         21   -1    0    0  501  502 -0.00000000000E+00 -0.00000000000E+00 -0.65719275762E+03  0.65719275762E+03  0.00000000000E+00 0. -1.
      99926    2    1    2    0    0  0.00000000000E+00  0.35527136788E-14 -0.58029329666E+03  0.73409221859E+03  0.44961213868E+03 0.  0.
      99925    2    3    3    0    0 -0.10519306476E+03 -0.17654093929E+02 -0.39511066692E+03  0.48646879005E+03  0.26298706560E+03 0.  0.
         25    1    3    3    0    0  0.10519306476E+03  0.17654093929E+02 -0.18518262974E+03  0.24762342854E+03  0.12509000000E+03 0.  0.
         25    1    4    4    0    0 -0.67472763747E+02  0.28877658435E+02 -0.19650994091E+03  0.24423381826E+03  0.12509000000E+03 0.  0.
         25    1    4    4    0    0 -0.37720301013E+02 -0.46531752364E+02 -0.19860072601E+03  0.24223497179E+03  0.12509000000E+03 0.  0.
<mgrwt>
<rscale>  2 0.44961214E+03</rscale>
<asrwt>0</asrwt>
<pdfrwt beam="1">  1       21 0.11308744E-01 0.44961214E+03</pdfrwt>
<pdfrwt beam="2">  1       21 0.96645996E-01 0.44961214E+03</pdfrwt>
<totfact> 0.53313643E+04</totfact>
</mgrwt>
</event>
<event>
 7    0  0.4788920E-002  0.4548910E+03  0.7546771E-02  0.1026273E+00
         21   -1    0    0  502  501  0.00000000000E+00  0.00000000000E+00  0.38239068345E+03  0.38239068345E+03  0.00000000000E+00 0. -1.
         21   -1    0    0  501  502 -0.00000000000E+00 -0.00000000000E+00 -0.13528429024E+03  0.13528429024E+03  0.00000000000E+00 0. -1.
      99926    2    1    2    0    0  0.00000000000E+00  0.00000000000E+00  0.24710639321E+03  0.51767497369E+03  0.45489098564E+03 0.  0.
      99925    2    3    3    0    0  0.79026758384E+02  0.73704376748E+02  0.19333706372E+03  0.34384686150E+03  0.26300927790E+03 0.  0.
         25    1    4    4    0    0  0.23581804977E+02 -0.11474086512E+01  0.72050386935E+02  0.14627434645E+03  0.12509000000E+03 0.  0.
         25    1    4    4    0    0  0.55444953407E+02  0.74851785399E+02  0.12128667678E+03  0.19757251504E+03  0.12509000000E+03 0.  0.
         25    1    3    3    0    0 -0.79026758384E+02 -0.73704376748E+02  0.53769329495E+02  0.17382811219E+03  0.12509000000E+03 0.  0.
<mgrwt>
<rscale>  2 0.45489099E+03</rscale>
<asrwt>0</asrwt>
<pdfrwt beam="1">  1       21 0.56233924E-01 0.45489099E+03</pdfrwt>
<pdfrwt beam="2">  1       21 0.19894749E-01 0.45489099E+03</pdfrwt>
<totfact> 0.64101384E+04</totfact>
</mgrwt>
</event>
<event>
 7    0  0.4788920E-002  0.4577269E+03  0.7546771E-02  0.1025443E+00
         21   -1    0    0  502  501  0.00000000000E+00  0.00000000000E+00  0.13291339420E+04  0.13291339420E+04  0.00000000000E+00 0.  1.
         21   -1    0    0  501  502 -0.00000000000E+00 -0.00000000000E+00 -0.39407984037E+02  0.39407984037E+02  0.00000000000E+00 0.  1.
      99926    2    1    2    0    0 -0.71054273576E-14  0.00000000000E+00  0.12897259579E+04  0.13685419260E+04  0.45772694554E+03 0.  0.
      99925    2    3    3    0    0 -0.46150434296E+02 -0.66775186680E+02  0.56260519604E+03  0.62628799465E+03  0.26291302267E+03 0.  0.
         25    1    4    4    0    0  0.92524327992E+01 -0.77547380596E+01  0.23890313358E+03  0.26994065794E+03  0.12509000000E+03 0.  0.
         25    1    3    3    0    0  0.46150434296E+02  0.66775186680E+02  0.72712076188E+03  0.74225393135E+03  0.12509000000E+03 0.  0.
         25    1    4    4    0    0 -0.55402867096E+02 -0.59020448621E+02  0.32370206246E+03  0.35634733671E+03  0.12509000000E+03 0.  0.
<mgrwt>
<rscale>  2 0.45772695E+03</rscale>
<asrwt>0</asrwt>
<pdfrwt beam="1">  1       21 0.19546084E+00 0.45772695E+03</pdfrwt>
<pdfrwt beam="2">  1       21 0.57952926E-02 0.45772695E+03</pdfrwt>
<totfact> 0.26613946E+04</totfact>
</mgrwt>
</event>
<event>
 7    0  0.4788920E-002  0.4762439E+03  0.7546771E-02  0.1020173E+00
         21   -1    0    0  502  501  0.00000000000E+00  0.00000000000E+00  0.41952831986E+02  0.41952831986E+02  0.00000000000E+00 0.  1.
         21   -1    0    0  501  502 -0.00000000000E+00 -0.00000000000E+00 -0.13515668322E+04  0.13515668322E+04  0.00000000000E+00 0.  1.
      99926    2    1    2    0    0  0.00000000000E+00 -0.71054273576E-14 -0.13096140002E+04  0.13935196641E+04  0.47624387126E+03 0.  0.
      99925    2    3    3    0    0  0.10167421906E+03 -0.43064610036E+02 -0.10215071469E+04  0.10605853246E+04  0.26300603051E+03 0.  0.
         25    1    3    3    0    0 -0.10167421906E+03  0.43064610036E+02 -0.28810685328E+03  0.33293433957E+03  0.12509000000E+03 0.  0.
         25    1    4    4    0    0  0.50186612179E+02 -0.28067925893E+02 -0.36459242105E+03  0.38971995855E+03  0.12509000000E+03 0.  0.
         25    1    4    4    0    0  0.51487606885E+02 -0.14996684143E+02 -0.65691472585E+03  0.67086536603E+03  0.12509000000E+03 0.  0.
<mgrwt>
<rscale>  2 0.47624387E+03</rscale>
<asrwt>0</asrwt>
<pdfrwt beam="1">  1       21 0.61695347E-02 0.47624387E+03</pdfrwt>
<pdfrwt beam="2">  1       21 0.19875981E+00 0.47624387E+03</pdfrwt>
<totfact> 0.22546604E+04</totfact>
</mgrwt>
</event>
<event>
 7    0  0.4788920E-002  0.4458006E+03  0.7546771E-02  0.1028982E+00
         21   -1    0    0  502  501  0.00000000000E+00  0.00000000000E+00  0.63506365552E+03  0.63506365552E+03  0.00000000000E+00 0.  1.
         21   -1    0    0  501  502 -0.00000000000E+00 -0.00000000000E+00 -0.78235520997E+02  0.78235520997E+02  0.00000000000E+00 0.  1.
      99926    2    1    2    0    0  0.00000000000E+00  0.00000000000E+00  0.55682813452E+03  0.71329917652E+03  0.44580056508E+03 0.  0.
      99925    2    3    3    0    0  0.63487649343E+01  0.24077775096E+02  0.51551257202E+03  0.57923005302E+03  0.26293382503E+03 0.  0.
         25    1    3    3    0    0 -0.63487649343E+01 -0.24077775096E+02  0.41315562503E+02  0.13406912350E+03  0.12509000000E+03 0.  0.
         25    1    4    4    0    0 -0.80837718326E+01  0.13322678176E+02  0.17229976638E+03  0.21348901311E+03  0.12509000000E+03 0.  0.
         25    1    4    4    0    0  0.14432536767E+02  0.10755096921E+02  0.34321280563E+03  0.36574103991E+03  0.12509000000E+03 0.  0.
<mgrwt>
<rscale>  2 0.44580057E+03</rscale>
<asrwt>0</asrwt>
<pdfrwt beam="1">  1       21 0.93391712E-01 0.44580057E+03</pdfrwt>
<pdfrwt beam="2">  1       21 0.11505224E-01 0.44580057E+03</pdfrwt>
<totfact> 0.56140823E+04</totfact>
</mgrwt>
</event>
<event>
 7    0  0.4788920E-002  0.4386702E+03  0.7546771E-02  0.1031156E+00
         21   -1    0    0  502  501  0.00000000000E+00  0.00000000000E+00  0.17884831192E+03  0.17884831192E+03  0.00000000000E+00 0. -1.
         21   -1    0    0  501  502 -0.00000000000E+00 -0.00000000000E+00 -0.26898711111E+03  0.26898711111E+03  0.00000000000E+00 0. -1.
      99926    2    1    2    0    0  0.00000000000E+00  0.14210854715E-13 -0.90138799195E+02  0.44783542303E+03  0.43867022124E+03 0.  0.
      99925    2    3    3    0    0  0.59054672921E+02  0.75870225280E+02 -0.43413629108E+02  0.28329213056E+03  0.26291812902E+03 0.  0.
         25    1    4    4    0    0  0.37844733348E+02  0.40718054707E+01 -0.42568282958E+02  0.13750770981E+03  0.12509000000E+03 0.  0.
         25    1    4    4    0    0  0.21209939573E+02  0.71798419809E+02 -0.84534615015E+00  0.14578442075E+03  0.12509000000E+03 0.  0.
         25    1    3    3    0    0 -0.59054672921E+02 -0.75870225280E+02 -0.46725170088E+02  0.16454329247E+03  0.12509000000E+03 0.  0.
<mgrwt>
<rscale>  2 0.43867022E+03</rscale>
<asrwt>0</asrwt>
<pdfrwt beam="1">  1       21 0.26301223E-01 0.43867022E+03</pdfrwt>
<pdfrwt beam="2">  1       21 0.39556928E-01 0.43867022E+03</pdfrwt>
<totfact> 0.78848973E+04</totfact>
</mgrwt>
</event>
<event>
 7    0  0.4788920E-002  0.4716244E+03  0.7546771E-02  0.1021463E+00
         21   -1    0    0  502  501  0.00000000000E+00  0.00000000000E+00  0.39846119862E+03  0.39846119862E+03  0.00000000000E+00 0. -1.
         21   -1    0    0  501  502 -0.00000000000E+00 -0.00000000000E+00 -0.13955537555E+03  0.13955537555E+03  0.00000000000E+00 0. -1.
      99926    2    1    2    0    0  0.00000000000E+00  0.00000000000E+00  0.25890582307E+03  0.53801657417E+03  0.47162443624E+03 0.  0.
      99925    2    3    3    0    0  0.84972038048E+02  0.72745454357E+02  0.91085060387E+02  0.30069092265E+03  0.26383023777E+03 0.  0.
         25    1    3    3    0    0 -0.84972038048E+02 -0.72745454357E+02  0.16782076268E+03  0.23732565151E+03  0.12509000000E+03 0.  0.
         25    1    4    4    0    0  0.38729410319E+02  0.69123801897E+02  0.75970878915E+02  0.16642460682E+03  0.12509000000E+03 0.  0.
         25    1    4    4    0    0  0.46242627729E+02  0.36216524599E+01  0.15114181472E+02  0.13426631583E+03  0.12509000000E+03 0.  0.
<mgrwt>
<rscale>  2 0.47162444E+03</rscale>
<asrwt>0</asrwt>
<pdfrwt beam="1">  1       21 0.58597235E-01 0.47162444E+03</pdfrwt>
<pdfrwt beam="2">  1       21 0.20522849E-01 0.47162444E+03</pdfrwt>
<totfact> 0.55047709E+04</totfact>
</mgrwt>
</event>
<event>
 7    0  0.4788920E-002  0.4428135E+03  0.7546771E-02  0.1029887E+00
         21   -1    0    0  502  501  0.00000000000E+00  0.00000000000E+00  0.10785293445E+03  0.10785293445E+03  0.00000000000E+00 0.  1.
         21   -1    0    0  501  502 -0.00000000000E+00 -0.00000000000E+00 -0.45451654984E+03  0.45451654984E+03  0.00000000000E+00 0.  1.
      99926    2    1    2    0    0  0.00000000000E+00  0.00000000000E+00 -0.34666361539E+03  0.56236948428E+03  0.44281347610E+03 0.  0.
      99925    2    3    3    0    0 -0.78340716183E+02  0.47338834088E+02 -0.16806584697E+03  0.32588924407E+03  0.26377914523E+03 0.  0.
         25    1    4    4    0    0 -0.69785895059E+02  0.65748331623E+00 -0.10715457941E+03  0.17888576081E+03  0.12509000000E+03 0.  0.
         25    1    4    4    0    0 -0.85548211243E+01  0.46681350772E+02 -0.60911267563E+02  0.14700348326E+03  0.12509000000E+03 0.  0.
         25    1    3    3    0    0  0.78340716183E+02 -0.47338834088E+02 -0.17859776842E+03  0.23648024021E+03  0.12509000000E+03 0.  0.
<mgrwt>
<rscale>  2 0.44281348E+03</rscale>
<asrwt>0</asrwt>
<pdfrwt beam="1">  1       21 0.15860726E-01 0.44281348E+03</pdfrwt>
<pdfrwt beam="2">  1       21 0.66840668E-01 0.44281348E+03</pdfrwt>
<totfact> 0.67313688E+04</totfact>
</mgrwt>
</event>
<event>
 7    0  0.4788920E-002  0.4606322E+03  0.7546771E-02  0.1024598E+00
         21   -1    0    0  502  501  0.00000000000E+00  0.00000000000E+00  0.19939075034E+03  0.19939075034E+03  0.00000000000E+00 0.  1.
         21   -1    0    0  501  502 -0.00000000000E+00 -0.00000000000E+00 -0.26603798559E+03  0.26603798559E+03  0.00000000000E+00 0.  1.
      99926    2    1    2    0    0  0.14210854715E-13  0.14210854715E-13 -0.66647235251E+02  0.46542873593E+03  0.46063223320E+03 0.  0.
      99925    2    3    3    0    0 -0.91426160482E+02 -0.74387986679E+02 -0.36998253896E+02  0.29101862848E+03  0.26349697522E+03 0.  0.
         25    1    4    4    0    0 -0.18550478391E+02 -0.40325451178E+02  0.14751270173E+02  0.13354913078E+03  0.12509000000E+03 0.  0.
         25    1    3    3    0    0  0.91426160482E+02  0.74387986679E+02 -0.29648981356E+02  0.17441010744E+03  0.12509000000E+03 0.  0.
         25    1    4    4    0    0 -0.72875682090E+02 -0.34062535502E+02 -0.51749524069E+02  0.15746949770E+03  0.12509000000E+03 0.  0.
<mgrwt>
<rscale>  2 0.46063223E+03</rscale>
<asrwt>0</asrwt>
<pdfrwt beam="1">  1       21 0.29322169E-01 0.46063223E+03</pdfrwt>
<pdfrwt beam="2">  1       21 0.39123233E-01 0.46063223E+03</pdfrwt>
<totfact> 0.64825761E+04</totfact>
</mgrwt>
</event>
<event>
 7    0  0.4788920E-002  0.4342203E+03  0.7546771E-02  0.1032535E+00
         21   -1    0    0  502  501  0.00000000000E+00  0.00000000000E+00  0.56224514619E+02  0.56224514619E+02  0.00000000000E+00 0.  1.
         21   -1    0    0  501  502 -0.00000000000E+00 -0.00000000000E+00 -0.83836778238E+03  0.83836778238E+03  0.00000000000E+00 0.  1.
      99926    2    1    2    0    0  0.00000000000E+00 -0.17763568394E-14 -0.78214326776E+03  0.89459229700E+03  0.43422032028E+03 0.  0.
      99925    2    3    3    0    0 -0.48417391173E+02  0.10331183340E+02 -0.66257914322E+03  0.71460878360E+03  0.26306580061E+03 0.  0.
         25    1    4    4    0    0 -0.36068519425E+02 -0.33437820566E+02 -0.32012350109E+03  0.34719675976E+03  0.12509000000E+03 0.  0.
         25    1    4    4    0    0 -0.12348871749E+02  0.43769003906E+02 -0.34245564213E+03  0.36741202384E+03  0.12509000000E+03 0.  0.
         25    1    3    3    0    0  0.48417391173E+02 -0.10331183340E+02 -0.11956412453E+03  0.17998351339E+03  0.12509000000E+03 0.  0.
<mgrwt>
<rscale>  2 0.43422032E+03</rscale>
<asrwt>0</asrwt>
<pdfrwt beam="1">  1       21 0.82683113E-02 0.43422032E+03</pdfrwt>
<pdfrwt beam="2">  1       21 0.12328937E+00 0.43422032E+03</pdfrwt>
<totfact> 0.51319341E+04</totfact>
</mgrwt>
</event>
<event>
 7    0  0.4788920E-002  0.4533325E+03  0.7546771E-02  0.1026733E+00
         21   -1    0    0  502  501  0.00000000000E+00  0.00000000000E+00  0.23064373263E+04  0.23064373263E+04  0.00000000000E+00 0. -1.
         21   -1    0    0  501  502 -0.00000000000E+00 -0.00000000000E+00 -0.22275734118E+02  0.22275734118E+02  0.00000000000E+00 0. -1.
      99926    2    1    2    0    0 -0.14210854715E-13  0.00000000000E+00  0.22841615922E+04  0.23287130604E+04  0.45333248126E+03 0.  0.
      99925    2    3    3    0    0 -0.89588922837E+02 -0.36853499866E+02  0.11538787025E+04  0.11874106139E+04  0.26291357981E+03 0.  0.
         25    1    4    4    0    0 -0.23214324741E+02 -0.48648656281E+02  0.63360286290E+03  0.64807846177E+03  0.12509000000E+03 0.  0.
         25    1    3    3    0    0  0.89588922837E+02  0.36853499866E+02  0.11302828897E+04  0.11413024465E+04  0.12509000000E+03 0.  0.
         25    1    4    4    0    0 -0.66374598096E+02  0.11795156415E+02  0.52027583960E+03  0.53933215216E+03  0.12509000000E+03 0.  0.
<mgrwt>
<rscale>  2 0.45333248E+03</rscale>
<asrwt>0</asrwt>
<pdfrwt beam="1">  1       21 0.33918180E+00 0.45333248E+03</pdfrwt>
<pdfrwt beam="2">  1       21 0.32758448E-02 0.45333248E+03</pdfrwt>
<totfact> 0.91654163E+03</totfact>
</mgrwt>
</event>
<event>
 7    0  0.4788920E-002  0.4505067E+03  0.7546771E-02  0.1027571E+00
         21   -1    0    0  502  501  0.00000000000E+00  0.00000000000E+00  0.70271716087E+03  0.70271716087E+03  0.00000000000E+00 0. -1.
         21   -1    0    0  501  502 -0.00000000000E+00 -0.00000000000E+00 -0.72204121928E+02  0.72204121928E+02  0.00000000000E+00 0. -1.
      99926    2    1    2    0    0  0.00000000000E+00  0.14210854715E-13  0.63051303894E+03  0.77492128279E+03  0.45050671721E+03 0.  0.
      99925    2    3    3    0    0  0.72968726020E+02  0.78562933260E+02  0.36458600146E+03  0.46209342786E+03  0.26288935725E+03 0.  0.
         25    1    4    4    0    0  0.36186129987E+02  0.39641232664E+02  0.24803267341E+03  0.28292857492E+03  0.12509000000E+03 0.  0.
         25    1    4    4    0    0  0.36782596033E+02  0.38921700596E+02  0.11655332805E+03  0.17916485294E+03  0.12509000000E+03 0.  0.
         25    1    3    3    0    0 -0.72968726020E+02 -0.78562933260E+02  0.26592703748E+03  0.31282785493E+03  0.12509000000E+03 0.  0.
<mgrwt>
<rscale>  2 0.45050672E+03</rscale>
<asrwt>0</asrwt>
<pdfrwt beam="1">  1       21 0.10334075E+00 0.45050672E+03</pdfrwt>
<pdfrwt beam="2">  1       21 0.10618254E-01 0.45050672E+03</pdfrwt>
<totfact> 0.50768898E+04</totfact>
</mgrwt>
</event>
<event>
 7    0  0.4788920E-002  0.4672469E+03  0.7546771E-02  0.1022700E+00
         21   -1    0    0  502  501  0.00000000000E+00  0.00000000000E+00  0.27711722026E+02  0.27711722026E+02  0.00000000000E+00 0.  1.
         21   -1    0    0  501  502 -0.00000000000E+00 -0.00000000000E+00 -0.19695609954E+04  0.19695609954E+04  0.00000000000E+00 0.  1.
      99926    2    1    2    0    0 -0.14210854715E-13  0.00000000000E+00 -0.19418492733E+04  0.19972727174E+04  0.46724694463E+03 0.  0.
      99925    2    3    3    0    0 -0.10292343103E+03 -0.69643702427E+02 -0.12168856516E+04  0.12511740384E+04  0.26302529762E+03 0.  0.
         25    1    3    3    0    0  0.10292343103E+03  0.69643702427E+02 -0.72496362168E+03  0.74609867900E+03  0.12509000000E+03 0.  0.
         25    1    4    4    0    0 -0.62047315116E+02 -0.49577793710E+02 -0.47962063394E+03  0.50198733803E+03  0.12509000000E+03 0.  0.
         25    1    4    4    0    0 -0.40876115919E+02 -0.20065908716E+02 -0.73726501771E+03  0.74918670036E+03  0.12509000000E+03 0.  0.
<mgrwt>
<rscale>  2 0.46724694E+03</rscale>
<asrwt>0</asrwt>
<pdfrwt beam="1">  1       21 0.40752520E-02 0.46724694E+03</pdfrwt>
<pdfrwt beam="2">  1       21 0.28964141E+00 0.46724694E+03</pdfrwt>
<totfact> 0.12521081E+04</totfact>
</mgrwt>
</event>
<event>
 7    0  0.4788920E-002  0.4547256E+03  0.7546771E-02  0.1026322E+00
         21   -1    0    0  502  501  0.00000000000E+00  0.00000000000E+00  0.44051224081E+02  0.44051224081E+02  0.00000000000E+00 0. -1.
         21   -1    0    0  501  502 -0.00000000000E+00 -0.00000000000E+00 -0.11734937994E+04  0.11734937994E+04  0.00000000000E+00 0. -1.
      99926    2    1    2    0    0 -0.14210854715E-13  0.88817841970E-15 -0.11294425753E+04  0.12175450235E+04  0.45472558018E+03 0.  0.
      99925    2    3    3    0    0  0.10991214420E+03 -0.56030352052E+01 -0.64514722041E+03  0.70539116737E+03  0.26315335748E+03 0.  0.
         25    1    4    4    0    0  0.20506206309E+02  0.15975737701E+02 -0.24805604726E+03  0.27902515903E+03  0.12509000000E+03 0.  0.
         25    1    4    4    0    0  0.89405937887E+02 -0.21578772906E+02 -0.39709117315E+03  0.42636600834E+03  0.12509000000E+03 0.  0.
         25    1    3    3    0    0 -0.10991214420E+03  0.56030352052E+01 -0.48429535493E+03  0.51215385613E+03  0.12509000000E+03 0.  0.
<mgrwt>
<rscale>  2 0.45472558E+03</rscale>
<asrwt>0</asrwt>
<pdfrwt beam="1">  1       21 0.64781206E-02 0.45472558E+03</pdfrwt>
<pdfrwt beam="2">  1       21 0.17257263E+00 0.45472558E+03</pdfrwt>
<totfact> 0.31672391E+04</totfact>
</mgrwt>
</event>
<event>
 7    0  0.4788920E-002  0.4548336E+03  0.7546771E-02  0.1026290E+00
         21   -1    0    0  502  501  0.00000000000E+00  0.00000000000E+00  0.23348837102E+02  0.23348837102E+02  0.00000000000E+00 0. -1.
         21   -1    0    0  501  502 -0.00000000000E+00 -0.00000000000E+00 -0.22150313770E+04  0.22150313770E+04  0.00000000000E+00 0. -1.
      99926    2    1    2    0    0  0.00000000000E+00  0.00000000000E+00 -0.21916825399E+04  0.22383802141E+04  0.45483362583E+03 0.  0.
      99925    2    3    3    0    0  0.59845703329E+02 -0.94540473810E+02 -0.13172302194E+04  0.13479680745E+04  0.26344462344E+03 0.  0.
         25    1    4    4    0    0  0.94584891553E+01 -0.44501505871E+02 -0.46466326162E+03  0.48335215097E+03  0.12509000000E+03 0.  0.
         25    1    4    4    0    0  0.50387214174E+02 -0.50038967939E+02 -0.85256695775E+03  0.86461592352E+03  0.12509000000E+03 0.  0.
         25    1    3    3    0    0 -0.59845703329E+02  0.94540473810E+02 -0.87445232055E+03  0.89041213964E+03  0.12509000000E+03 0.  0.
<mgrwt>
<rscale>  2 0.45483363E+03</rscale>
<asrwt>0</asrwt>
<pdfrwt beam="1">  1       21 0.34336503E-02 0.45483363E+03</pdfrwt>
<pdfrwt beam="2">  1       21 0.32574012E+00 0.45483363E+03</pdfrwt>
<totfact> 0.10206795E+04</totfact>
</mgrwt>
</event>
<event>
 7    0  0.4788920E-002  0.4559847E+03  0.7546771E-02  0.1025952E+00
         21   -1    0    0  502  501  0.00000000000E+00  0.00000000000E+00  0.12594455200E+03  0.12594455200E+03  0.00000000000E+00 0. -1.
         21   -1    0    0  501  502 -0.00000000000E+00 -0.00000000000E+00 -0.41272532662E+03  0.41272532662E+03  0.00000000000E+00 0. -1.
      99926    2    1    2    0    0  0.00000000000E+00  0.00000000000E+00 -0.28678077462E+03  0.53866987862E+03  0.45598467676E+03 0.  0.
      99925    2    3    3    0    0  0.84608936600E+02 -0.75900211511E+02 -0.16785994639E+03  0.33200787014E+03  0.26293107457E+03 0.  0.
         25    1    4    4    0    0  0.58224302689E+02 -0.73221129769E+00 -0.75265705409E+02  0.15717200790E+03  0.12509000000E+03 0.  0.
         25    1    3    3    0    0 -0.84608936600E+02  0.75900211511E+02 -0.11892082823E+03  0.20666200848E+03  0.12509000000E+03 0.  0.
         25    1    4    4    0    0  0.26384633911E+02 -0.75168000213E+02 -0.92594240986E+02  0.17483586224E+03  0.12509000000E+03 0.  0.
<mgrwt>
<rscale>  2 0.45598468E+03</rscale>
<asrwt>0</asrwt>
<pdfrwt beam="1">  1       21 0.18521257E-01 0.45598468E+03</pdfrwt>
<pdfrwt beam="2">  1       21 0.60694902E-01 0.45598468E+03</pdfrwt>
<totfact> 0.62135843E+04</totfact>
</mgrwt>
</event>
<event>
 7    0  0.4788920E-002  0.4578125E+03  0.7546771E-02  0.1025418E+00
         21   -1    0    0  502  501  0.00000000000E+00  0.00000000000E+00  0.22572749788E+04  0.22572749788E+04  0.00000000000E+00 0. -1.
         21   -1    0    0  501  502 -0.00000000000E+00 -0.00000000000E+00 -0.23212979086E+02  0.23212979086E+02  0.00000000000E+00 0. -1.
      99926    2    1    2    0    0  0.35527136788E-14  0.00000000000E+00  0.22340619997E+04  0.22804879578E+04  0.45781252440E+03 0.  0.
      99925    2    3    3    0    0  0.21927500183E+02  0.10370668250E+03  0.11698097598E+04  0.12036796046E+04  0.26297114927E+03 0.  0.
         25    1    4    4    0    0  0.41232540759E+02  0.43406420022E+02  0.47325180071E+03  0.49315212125E+03  0.12509000000E+03 0.  0.
         25    1    3    3    0    0 -0.21927500183E+02 -0.10370668250E+03  0.10642522399E+04  0.10768083532E+04  0.12509000000E+03 0.  0.
         25    1    4    4    0    0 -0.19305040576E+02  0.60300262482E+02  0.69655795905E+03  0.71052748339E+03  0.12509000000E+03 0.  0.
<mgrwt>
<rscale>  2 0.45781252E+03</rscale>
<asrwt>0</asrwt>
<pdfrwt beam="1">  1       21 0.33195205E+00 0.45781252E+03</pdfrwt>
<pdfrwt beam="2">  1       21 0.34136749E-02 0.45781252E+03</pdfrwt>
<totfact> 0.94390581E+03</totfact>
</mgrwt>
</event>
<event>
 7    0  0.4788920E-002  0.4563442E+03  0.7546771E-02  0.1025847E+00
         21   -1    0    0  502  501  0.00000000000E+00  0.00000000000E+00  0.14591221292E+03  0.14591221292E+03  0.00000000000E+00 0. -1.
         21   -1    0    0  501  502 -0.00000000000E+00 -0.00000000000E+00 -0.35680706074E+03  0.35680706074E+03  0.00000000000E+00 0. -1.
      99926    2    1    2    0    0  0.00000000000E+00  0.00000000000E+00 -0.21089484781E+03  0.50271927366E+03  0.45634420263E+03 0.  0.
      99925    2    3    3    0    0 -0.61513314498E+02 -0.34704658589E+02 -0.23177425285E+03  0.35755812582E+03  0.26294525641E+03 0.  0.
         25    1    4    4    0    0 -0.66117340778E+02 -0.33843868676E+02 -0.14382446304E+03  0.20457246752E+03  0.12509000000E+03 0.  0.
         25    1    3    3    0    0  0.61513314498E+02  0.34704658589E+02  0.20879405036E+02  0.14516114784E+03  0.12509000000E+03 0.  0.
         25    1    4    4    0    0  0.46040262802E+01 -0.86078991314E+00 -0.87949789807E+02  0.15298565830E+03  0.12509000000E+03 0.  0.
<mgrwt>
<rscale>  2 0.45634420E+03</rscale>
<asrwt>0</asrwt>
<pdfrwt beam="1">  1       21 0.21457678E-01 0.45634420E+03</pdfrwt>
<pdfrwt beam="2">  1       21 0.52471627E-01 0.45634420E+03</pdfrwt>
<totfact> 0.64390253E+04</totfact>
</mgrwt>
</event>
<event>
 7    0  0.4788920E-002  0.4587603E+03  0.7546771E-02  0.1025141E+00
         21   -1    0    0  502  501  0.00000000000E+00  0.00000000000E+00  0.95617373883E+03  0.95617373883E+03  0.00000000000E+00 0.  1.
         21   -1    0    0  501  502 -0.00000000000E+00 -0.00000000000E+00 -0.55026867024E+02  0.55026867024E+02  0.00000000000E+00 0.  1.
      99926    2    1    2    0    0  0.00000000000E+00  0.00000000000E+00  0.90114687181E+03  0.10112006059E+04  0.45876026497E+03 0.  0.
      99925    2    3    3    0    0  0.68547435563E+02  0.27227458435E+02  0.36595572455E+03  0.45665831025E+03  0.26300786029E+03 0.  0.
         25    1    4    4    0    0  0.38120468342E+02  0.94199526058E+01  0.25086845362E+03  0.28306252796E+03  0.12509000000E+03 0.  0.
         25    1    3    3    0    0 -0.68547435563E+02 -0.27227458435E+02  0.53519114726E+03  0.55454229561E+03  0.12509000000E+03 0.  0.
         25    1    4    4    0    0  0.30426967221E+02  0.17807505829E+02  0.11508727093E+03  0.17359578229E+03  0.12509000000E+03 0.  0.
<mgrwt>
<rscale>  2 0.45876026E+03</rscale>
<asrwt>0</asrwt>
<pdfrwt beam="1">  1       21 0.14061377E+00 0.45876026E+03</pdfrwt>
<pdfrwt beam="2">  1       21 0.80921869E-02 0.45876026E+03</pdfrwt>
<totfact> 0.37617194E+04</totfact>
</mgrwt>
</event>
<event>
 7    0  0.4788920E-002  0.4654991E+03  0.7546771E-02  0.1023198E+00
         21   -1    0    0  502  501  0.00000000000E+00  0.00000000000E+00  0.31851786989E+03  0.31851786989E+03  0.00000000000E+00 0.  1.
         21   -1    0    0  501  502 -0.00000000000E+00 -0.00000000000E+00 -0.17007636525E+03  0.17007636525E+03  0.00000000000E+00 0.  1.
      99926    2    1    2    0    0  0.00000000000E+00 -0.71054273576E-14  0.14844150464E+03  0.48859423513E+03  0.46549913674E+03 0.  0.
      99925    2    3    3    0    0  0.66416179539E+02 -0.16272793475E+02  0.19959696586E+03  0.33713367253E+03  0.26295294571E+03 0.  0.
         25    1    3    3    0    0 -0.66416179539E+02  0.16272793475E+02 -0.51155461217E+02  0.15146056260E+03  0.12509000000E+03 0.  0.
         25    1    4    4    0    0  0.62736335825E+02  0.17015480329E+02  0.87976399928E+02  0.16617078398E+03  0.12509000000E+03 0.  0.
         25    1    4    4    0    0  0.36798437135E+01 -0.33288273804E+02  0.11162056593E+03  0.17096288855E+03  0.12509000000E+03 0.  0.
<mgrwt>
<rscale>  2 0.46549914E+03</rscale>
<asrwt>0</asrwt>
<pdfrwt beam="1">  1       21 0.46840863E-01 0.46549914E+03</pdfrwt>
<pdfrwt beam="2">  1       21 0.25011230E-01 0.46549914E+03</pdfrwt>
<totfact> 0.60848144E+04</totfact>
</mgrwt>
</event>
<event>
 7    0  0.4788920E-002  0.4537566E+03  0.7546771E-02  0.1026608E+00
         21   -1    0    0  502  501  0.00000000000E+00  0.00000000000E+00  0.35894317792E+03  0.35894317792E+03  0.00000000000E+00 0. -1.
         21   -1    0    0  501  502 -0.00000000000E+00 -0.00000000000E+00 -0.14340366576E+03  0.14340366576E+03  0.00000000000E+00 0. -1.
      99926    2    1    2    0    0  0.00000000000E+00  0.00000000000E+00  0.21553951216E+03  0.50234684368E+03  0.45375661984E+03 0.  0.
      99925    2    3    3    0    0  0.47307590222E+02  0.82746560147E+02  0.70637973294E+02  0.28850352399E+03  0.26298205029E+03 0.  0.
         25    1    3    3    0    0 -0.47307590222E+02 -0.82746560147E+02  0.14490153887E+03  0.21384331969E+03  0.12509000000E+03 0.  0.
         25    1    4    4    0    0  0.38649759742E+02  0.81664221435E+02  0.40781418788E+02  0.15960413907E+03  0.12509000000E+03 0.  0.
         25    1    4    4    0    0  0.86578304802E+01  0.10823387126E+01  0.29856554506E+02  0.12889938492E+03  0.12509000000E+03 0.  0.
<mgrwt>
<rscale>  2 0.45375662E+03</rscale>
<asrwt>0</asrwt>
<pdfrwt beam="1">  1       21 0.52785761E-01 0.45375662E+03</pdfrwt>
<pdfrwt beam="2">  1       21 0.21088774E-01 0.45375662E+03</pdfrwt>
<totfact> 0.65752654E+04</totfact>
</mgrwt>
</event>
<event>
 7    0  0.4788920E-002  0.4563850E+03  0.7546771E-02  0.1025835E+00
         21   -1    0    0  502  501  0.00000000000E+00  0.00000000000E+00  0.43653585128E+02  0.43653585128E+02  0.00000000000E+00 0. -1.
         21   -1    0    0  501  502 -0.00000000000E+00 -0.00000000000E+00 -0.11928417969E+04  0.11928417969E+04  0.00000000000E+00 0. -1.
      99926    2    1    2    0    0  0.14210854715E-13  0.00000000000E+00 -0.11491882118E+04  0.12364953821E+04  0.45638501696E+03 0.  0.
      99925    2    3    3    0    0  0.10439813736E+03  0.37736825726E+02 -0.65075537886E+03  0.71075225451E+03  0.26336887646E+03 0.  0.
         25    1    4    4    0    0  0.25577701595E+02  0.44595266437E+02 -0.35833508459E+03  0.38300717690E+03  0.12509000000E+03 0.  0.
         25    1    3    3    0    0 -0.10439813736E+03 -0.37736825726E+02 -0.49843283295E+03  0.52574312755E+03  0.12509000000E+03 0.  0.
         25    1    4    4    0    0  0.78820435765E+02 -0.68584407114E+01 -0.29242029426E+03  0.32774507762E+03  0.12509000000E+03 0.  0.
<mgrwt>
<rscale>  2 0.45638502E+03</rscale>
<asrwt>0</asrwt>
<pdfrwt beam="1">  1       21 0.64196453E-02 0.45638502E+03</pdfrwt>
<pdfrwt beam="2">  1       21 0.17541790E+00 0.45638502E+03</pdfrwt>
<totfact> 0.30684011E+04</totfact>
</mgrwt>
</event>
<event>
 7    0  0.4788920E-002  0.4587490E+03  0.7546771E-02  0.1025145E+00
         21   -1    0    0  502  501  0.00000000000E+00  0.00000000000E+00  0.19268152091E+03  0.19268152091E+03  0.00000000000E+00 0.  1.
         21   -1    0    0  501  502 -0.00000000000E+00 -0.00000000000E+00 -0.27305508058E+03  0.27305508058E+03  0.00000000000E+00 0.  1.
      99926    2    1    2    0    0  0.14210854715E-13  0.00000000000E+00 -0.80373559671E+02  0.46573660150E+03  0.45874903039E+03 0.  0.
      99925    2    3    3    0    0  0.10589220299E+03 -0.35130510463E+02 -0.15499486640E+02  0.28600495467E+03  0.26289025959E+03 0.  0.
         25    1    3    3    0    0 -0.10589220299E+03  0.35130510463E+02 -0.64874073031E+02  0.17973164683E+03  0.12509000000E+03 0.  0.
         25    1    4    4    0    0  0.69106721263E+02 -0.20363708291E+02  0.29397636050E+02  0.14731649142E+03  0.12509000000E+03 0.  0.
         25    1    4    4    0    0  0.36785481728E+02 -0.14766802172E+02 -0.44897122690E+02  0.13868846325E+03  0.12509000000E+03 0.  0.
<mgrwt>
<rscale>  2 0.45874903E+03</rscale>
<asrwt>0</asrwt>
<pdfrwt beam="1">  1       21 0.28335518E-01 0.45874903E+03</pdfrwt>
<pdfrwt beam="2">  1       21 0.40155158E-01 0.45874903E+03</pdfrwt>
<totfact> 0.65773308E+04</totfact>
</mgrwt>
</event>
<event>
 7    0  0.4788920E-002  0.4509197E+03  0.7546771E-02  0.1027448E+00
         21   -1    0    0  502  501  0.00000000000E+00  0.00000000000E+00  0.19340693977E+03  0.19340693977E+03  0.00000000000E+00 0.  1.
         21   -1    0    0  501  502 -0.00000000000E+00 -0.00000000000E+00 -0.26282486683E+03  0.26282486683E+03  0.00000000000E+00 0.  1.
      99926    2    1    2    0    0  0.71054273576E-14  0.00000000000E+00 -0.69417927057E+02  0.45623180660E+03  0.45091974092E+03 0.  0.
      99925    2    3    3    0    0  0.42662935719E+02 -0.99871611376E+02 -0.31344577166E+02  0.28625665278E+03  0.26299415184E+03 0.  0.
         25    1    3    3    0    0 -0.42662935719E+02  0.99871611376E+02 -0.38073349891E+02  0.16997515382E+03  0.12509000000E+03 0.  0.
         25    1    4    4    0    0  0.15893517429E+02 -0.47314835288E+02  0.24893222338E+02  0.13696159372E+03  0.12509000000E+03 0.  0.
         25    1    4    4    0    0  0.26769418290E+02 -0.52556776088E+02 -0.56237799504E+02  0.14929505907E+03  0.12509000000E+03 0.  0.
<mgrwt>
<rscale>  2 0.45091974E+03</rscale>
<asrwt>0</asrwt>
<pdfrwt beam="1">  1       21 0.28442197E-01 0.45091974E+03</pdfrwt>
<pdfrwt beam="2">  1       21 0.38650716E-01 0.45091974E+03</pdfrwt>
<totfact> 0.70729615E+04</totfact>
</mgrwt>
</event>
<event>
 7    0  0.4788920E-002  0.4578322E+03  0.7546771E-02  0.1025412E+00
         21   -1    0    0  502  501  0.00000000000E+00  0.00000000000E+00  0.10813500678E+04  0.10813500678E+04  0.00000000000E+00 0. -1.
         21   -1    0    0  501  502 -0.00000000000E+00 -0.00000000000E+00 -0.48460333794E+02  0.48460333794E+02  0.00000000000E+00 0. -1.
      99926    2    1    2    0    0  0.00000000000E+00  0.71054273576E-14  0.10328897340E+04  0.11298104016E+04  0.45783221919E+03 0.  0.
      99925    2    3    3    0    0 -0.68220386104E+02  0.61285257251E+02  0.82272748531E+03  0.86861012840E+03  0.26304588238E+03 0.  0.
         25    1    4    4    0    0 -0.22620131558E+02 -0.68057794815E+01  0.42687843924E+03  0.44545560831E+03  0.12509000000E+03 0.  0.
         25    1    3    3    0    0  0.68220386104E+02 -0.61285257251E+02  0.21016224866E+03  0.26120027316E+03  0.12509000000E+03 0.  0.
         25    1    4    4    0    0 -0.45600254546E+02  0.68091036732E+02  0.39584904606E+03  0.42315452008E+03  0.12509000000E+03 0.  0.
<mgrwt>
<rscale>  2 0.45783222E+03</rscale>
<asrwt>0</asrwt>
<pdfrwt beam="1">  1       21 0.15902205E+00 0.45783222E+03</pdfrwt>
<pdfrwt beam="2">  1       21 0.71265204E-02 0.45783222E+03</pdfrwt>
<totfact> 0.33713160E+04</totfact>
</mgrwt>
</event>
<event>
 7    0  0.4788920E-002  0.4552395E+03  0.7546771E-02  0.1026171E+00
         21   -1    0    0  502  501  0.00000000000E+00  0.00000000000E+00  0.39482485439E+03  0.39482485439E+03  0.00000000000E+00 0. -1.
         21   -1    0    0  501  502 -0.00000000000E+00 -0.00000000000E+00 -0.13122463970E+03  0.13122463970E+03  0.00000000000E+00 0. -1.
      99926    2    1    2    0    0  0.35527136788E-14 -0.14210854715E-13  0.26360021468E+03  0.52604949409E+03  0.45523949417E+03 0.  0.
      99925    2    3    3    0    0 -0.42903346674E+01 -0.11079616715E+03  0.13833034099E+03  0.31716137336E+03  0.26298641768E+03 0.  0.
         25    1    3    3    0    0  0.42903346674E+01  0.11079616715E+03  0.12526987369E+03  0.20888812073E+03  0.12509000000E+03 0.  0.
         25    1    4    4    0    0 -0.32067514944E+02 -0.84999220351E+02  0.70798832553E+02  0.17003874784E+03  0.12509000000E+03 0.  0.
         25    1    4    4    0    0  0.27777180277E+02 -0.25796946803E+02  0.67531508442E+02  0.14712262552E+03  0.12509000000E+03 0.  0.
<mgrwt>
<rscale>  2 0.45523949E+03</rscale>
<asrwt>0</asrwt>
<pdfrwt beam="1">  1       21 0.58062478E-01 0.45523949E+03</pdfrwt>
<pdfrwt beam="2">  1       21 0.19297741E-01 0.45523949E+03</pdfrwt>
<totfact> 0.63354384E+04</totfact>
</mgrwt>
</event>
<event>
 7    0  0.4788920E-002  0.4555585E+03  0.7546771E-02  0.1026077E+00
         21   -1    0    0  502  501  0.00000000000E+00  0.00000000000E+00  0.85208039665E+02  0.85208039665E+02  0.00000000000E+00 0. -1.
         21   -1    0    0  501  502 -0.00000000000E+00 -0.00000000000E+00 -0.60890237015E+03  0.60890237015E+03  0.00000000000E+00 0. -1.
      99926    2    1    2    0    0  0.00000000000E+00  0.00000000000E+00 -0.52369433048E+03  0.69411040982E+03  0.45555845863E+03 0.  0.
      99925    2    3    3    0    0 -0.54303158567E+02  0.54020253979E+01 -0.17734863555E+03  0.32184590250E+03  0.26297192153E+03 0.  0.
         25    1    4    4    0    0 -0.23177369171E+02 -0.37040743731E+02 -0.79277434971E+02  0.15440734093E+03  0.12509000000E+03 0.  0.
         25    1    4    4    0    0 -0.31125789397E+02  0.42442769128E+02 -0.98071200583E+02  0.16743856157E+03  0.12509000000E+03 0.  0.
         25    1    3    3    0    0  0.54303158567E+02 -0.54020253979E+01 -0.34634569493E+03  0.37226450731E+03  0.12509000000E+03 0.  0.
<mgrwt>
<rscale>  2 0.45555846E+03</rscale>
<asrwt>0</asrwt>
<pdfrwt beam="1">  1       21 0.12530594E-01 0.45555846E+03</pdfrwt>
<pdfrwt beam="2">  1       21 0.89544467E-01 0.45555846E+03</pdfrwt>
<totfact> 0.52990618E+04</totfact>
</mgrwt>
</event>
<event>
 7    0  0.4788920E-002  0.4539249E+03  0.7546771E-02  0.1026558E+00
         21   -1    0    0  502  501  0.00000000000E+00  0.00000000000E+00  0.16341622164E+03  0.16341622164E+03  0.00000000000E+00 0.  1.
         21   -1    0    0  501  502 -0.00000000000E+00 -0.00000000000E+00 -0.31521928165E+03  0.31521928165E+03  0.00000000000E+00 0.  1.
      99926    2    1    2    0    0 -0.35527136788E-14  0.00000000000E+00 -0.15180306002E+03  0.47863550329E+03  0.45392485719E+03 0.  0.
      99925    2    3    3    0    0  0.28196495424E+02 -0.10146276442E+03 -0.13689857214E+03  0.31444236465E+03  0.26276043598E+03 0.  0.
         25    1    4    4    0    0  0.32430983153E+02 -0.17979803472E+02 -0.44327155477E+02  0.13779494481E+03  0.12509000000E+03 0.  0.
         25    1    3    3    0    0 -0.28196495424E+02  0.10146276442E+03 -0.14904487873E+02  0.16419313864E+03  0.12509000000E+03 0.  0.
         25    1    4    4    0    0 -0.42344877288E+01 -0.83482960943E+02 -0.92571416668E+02  0.17664741985E+03  0.12509000000E+03 0.  0.
<mgrwt>
<rscale>  2 0.45392486E+03</rscale>
<asrwt>0</asrwt>
<pdfrwt beam="1">  1       21 0.24031798E-01 0.45392486E+03</pdfrwt>
<pdfrwt beam="2">  1       21 0.46355776E-01 0.45392486E+03</pdfrwt>
<totfact> 0.67372659E+04</totfact>
</mgrwt>
</event>
<event>
 7    0  0.4788920E-002  0.4578448E+03  0.7546771E-02  0.1025408E+00
         21   -1    0    0  502  501  0.00000000000E+00  0.00000000000E+00  0.10849996281E+03  0.10849996281E+03  0.00000000000E+00 0. -1.
         21   -1    0    0  501  502 -0.00000000000E+00 -0.00000000000E+00 -0.48299985672E+03  0.48299985672E+03  0.00000000000E+00 0. -1.
      99926    2    1    2    0    0  0.00000000000E+00  0.00000000000E+00 -0.37449989390E+03  0.59149981953E+03  0.45784480555E+03 0.  0.
      99925    2    3    3    0    0 -0.54819813730E+02  0.93256911442E+02 -0.28845192414E+03  0.40507604232E+03  0.26302095736E+03 0.  0.
         25    1    4    4    0    0 -0.40255464997E+02  0.67548113685E+01 -0.13031711734E+03  0.18519230305E+03  0.12509000000E+03 0.  0.
         25    1    3    3    0    0  0.54819813730E+02 -0.93256911442E+02 -0.86047969764E+02  0.18642377721E+03  0.12509000000E+03 0.  0.
         25    1    4    4    0    0 -0.14564348732E+02  0.86502100073E+02 -0.15813480680E+03  0.21988373927E+03  0.12509000000E+03 0.  0.
<mgrwt>
<rscale>  2 0.45784481E+03</rscale>
<asrwt>0</asrwt>
<pdfrwt beam="1">  1       21 0.15955877E-01 0.45784481E+03</pdfrwt>
<pdfrwt beam="2">  1       21 0.71029390E-01 0.45784481E+03</pdfrwt>
<totfact> 0.57891926E+04</totfact>
</mgrwt>
</event>
<event>
 7    0  0.4788920E-002  0.4460641E+03  0.7546771E-02  0.1028902E+00
         21   -1    0    0  502  501  0.00000000000E+00  0.00000000000E+00  0.94509040464E+03  0.94509040464E+03  0.00000000000E+00 0. -1.
         21   -1    0    0  501  502 -0.00000000000E+00 -0.00000000000E+00 -0.52633382401E+02  0.52633382401E+02  0.00000000000E+00 0. -1.
      99926    2    1    2    0    0  0.00000000000E+00 -0.35527136788E-14  0.89245702224E+03  0.99772378704E+03  0.44606414190E+03 0.  0.
      99925    2    3    3    0    0  0.10289455171E+03  0.18398089733E+02  0.56386720289E+03  0.63092063008E+03  0.26303771686E+03 0.  0.
         25    1    3    3    0    0 -0.10289455171E+03 -0.18398089733E+02  0.32858981935E+03  0.36680315696E+03  0.12509000000E+03 0.  0.
         25    1    4    4    0    0  0.54404421999E+02 -0.29767506146E+02  0.30391997572E+03  0.33445598410E+03  0.12509000000E+03 0.  0.
         25    1    4    4    0    0  0.48490129710E+02  0.48165595879E+02  0.25994722717E+03  0.29646464598E+03  0.12509000000E+03 0.  0.
<mgrwt>
<rscale>  2 0.44606414E+03</rscale>
<asrwt>0</asrwt>
<pdfrwt beam="1">  1       21 0.13898387E+00 0.44606414E+03</pdfrwt>
<pdfrwt beam="2">  1       21 0.77402039E-02 0.44606414E+03</pdfrwt>
<totfact> 0.42118983E+04</totfact>
</mgrwt>
</event>
<event>
 7    0  0.4788920E-002  0.4505239E+03  0.7546771E-02  0.1027566E+00
         21   -1    0    0  502  501  0.00000000000E+00  0.00000000000E+00  0.32605643410E+03  0.32605643410E+03  0.00000000000E+00 0. -1.
         21   -1    0    0  501  502 -0.00000000000E+00 -0.00000000000E+00 -0.15562627968E+03  0.15562627968E+03  0.00000000000E+00 0. -1.
      99926    2    1    2    0    0  0.00000000000E+00  0.00000000000E+00  0.17043015442E+03  0.48168271378E+03  0.45052391637E+03 0.  0.
      99925    2    3    3    0    0  0.74378276020E+02 -0.27121731329E+02  0.18734596770E+03  0.33268147522E+03  0.26326932234E+03 0.  0.
         25    1    4    4    0    0  0.10979978783E+02  0.91227978409E+00  0.12328019341E+03  0.17597416394E+03  0.12509000000E+03 0.  0.
         25    1    3    3    0    0 -0.74378276020E+02  0.27121731329E+02 -0.16915813283E+02  0.14900123856E+03  0.12509000000E+03 0.  0.
         25    1    4    4    0    0  0.63398297237E+02 -0.28034011113E+02  0.64065774290E+02  0.15670731127E+03  0.12509000000E+03 0.  0.
<mgrwt>
<rscale>  2 0.45052392E+03</rscale>
<asrwt>0</asrwt>
<pdfrwt beam="1">  1       21 0.47949476E-01 0.45052392E+03</pdfrwt>
<pdfrwt beam="2">  1       21 0.22886218E-01 0.45052392E+03</pdfrwt>
<totfact> 0.68997039E+04</totfact>
</mgrwt>
</event>
<event>
 7    0  0.4788920E-002  0.4609790E+03  0.7546771E-02  0.1024498E+00
         21   -1    0    0  502  501  0.00000000000E+00  0.00000000000E+00  0.28446243777E+03  0.28446243777E+03  0.00000000000E+00 0.  1.
         21   -1    0    0  501  502 -0.00000000000E+00 -0.00000000000E+00 -0.18675718000E+03  0.18675718000E+03  0.00000000000E+00 0.  1.
      99926    2    1    2    0    0  0.00000000000E+00  0.00000000000E+00  0.97705257762E+02  0.47121961777E+03  0.46097897000E+03 0.  0.
      99925    2    3    3    0    0  0.56502931436E+02  0.10338001630E+03  0.55756930906E+02  0.29433779491E+03  0.26390508358E+03 0.  0.
         25    1    4    4    0    0  0.26241439776E+02  0.87141923619E+02  0.56296011122E+02  0.16461797284E+03  0.12509000000E+03 0.  0.
         25    1    4    4    0    0  0.30261491660E+02  0.16238092683E+02 -0.53908021603E+00  0.12971982207E+03  0.12509000000E+03 0.  0.
         25    1    3    3    0    0 -0.56502931436E+02 -0.10338001630E+03  0.41948326857E+02  0.17688182286E+03  0.12509000000E+03 0.  0.
<mgrwt>
<rscale>  2 0.46097897E+03</rscale>
<asrwt>0</asrwt>
<pdfrwt beam="1">  1       21 0.41832711E-01 0.46097897E+03</pdfrwt>
<pdfrwt beam="2">  1       21 0.27464291E-01 0.46097897E+03</pdfrwt>
<totfact> 0.64243088E+04</totfact>
</mgrwt>
</event>
<event>
 7    0  0.4788920E-002  0.4559505E+03  0.7546771E-02  0.1025962E+00
         21   -1    0    0  502  501  0.00000000000E+00  0.00000000000E+00  0.93774685705E+03  0.93774685705E+03  0.00000000000E+00 0.  1.
         21   -1    0    0  501  502 -0.00000000000E+00 -0.00000000000E+00 -0.55422967464E+02  0.55422967464E+02  0.00000000000E+00 0.  1.
      99926    2    1    2    0    0 -0.71054273576E-14  0.00000000000E+00  0.88232388959E+03  0.99316982451E+03  0.45595049533E+03 0.  0.
      99925    2    3    3    0    0  0.33591693677E+02  0.11649736078E+02  0.79071569151E+03  0.83409849369E+03  0.26310620317E+03 0.  0.
         25    1    4    4    0    0  0.44738951428E+02  0.55509947005E+01  0.49958795891E+03  0.51697971344E+03  0.12509000000E+03 0.  0.
         25    1    4    4    0    0 -0.11147257751E+02  0.60987413777E+01  0.29112773260E+03  0.31711878025E+03  0.12509000000E+03 0.  0.
         25    1    3    3    0    0 -0.33591693677E+02 -0.11649736078E+02  0.91608198077E+02  0.15907133082E+03  0.12509000000E+03 0.  0.
<mgrwt>
<rscale>  2 0.45595050E+03</rscale>
<asrwt>0</asrwt>
<pdfrwt beam="1">  1       21 0.13790394E+00 0.45595050E+03</pdfrwt>
<pdfrwt beam="2">  1       21 0.81504370E-02 0.45595050E+03</pdfrwt>
<totfact> 0.39142097E+04</totfact>
</mgrwt>
</event>
<event>
 7    0  0.4788920E-002  0.4473021E+03  0.7546771E-02  0.1028530E+00
         21   -1    0    0  502  501  0.00000000000E+00  0.00000000000E+00  0.14541032626E+04  0.14541032626E+04  0.00000000000E+00 0. -1.
         21   -1    0    0  501  502 -0.00000000000E+00 -0.00000000000E+00 -0.34399064116E+02  0.34399064116E+02  0.00000000000E+00 0. -1.
      99926    2    1    2    0    0  0.00000000000E+00 -0.14210854715E-13  0.14197041985E+04  0.14885023267E+04  0.44730209640E+03 0.  0.
      99925    2    3    3    0    0 -0.55207651024E+02  0.71738499180E+02  0.10819121364E+04  0.11170924692E+04  0.26299698996E+03 0.  0.
         25    1    4    4    0    0 -0.56222588021E+02  0.57098203183E+02  0.67407679890E+03  0.69025228948E+03  0.12509000000E+03 0.  0.
         25    1    4    4    0    0  0.10149369974E+01  0.14640295997E+02  0.40783533751E+03  0.42684017967E+03  0.12509000000E+03 0.  0.
         25    1    3    3    0    0  0.55207651024E+02 -0.71738499180E+02  0.33779206209E+03  0.37140985758E+03  0.12509000000E+03 0.  0.
<mgrwt>
<rscale>  2 0.44730210E+03</rscale>
<asrwt>0</asrwt>
<pdfrwt beam="1">  1       21 0.21383867E+00 0.44730210E+03</pdfrwt>
<pdfrwt beam="2">  1       21 0.50586869E-02 0.44730210E+03</pdfrwt>
<totfact> 0.25556685E+04</totfact>
</mgrwt>
</event>
<event>
 7    0  0.4788920E-002  0.4573047E+03  0.7546771E-02  0.1025566E+00
         21   -1    0    0  502  501  0.00000000000E+00  0.00000000000E+00  0.88588461461E+02  0.88588461461E+02  0.00000000000E+00 0.  1.
         21   -1    0    0  501  502 -0.00000000000E+00 -0.00000000000E+00 -0.59016609026E+03  0.59016609026E+03  0.00000000000E+00 0.  1.
      99926    2    1    2    0    0  0.00000000000E+00  0.00000000000E+00 -0.50157762880E+03  0.67875455172E+03  0.45730473841E+03 0.  0.
      99925    2    3    3    0    0  0.12507684225E+02 -0.11076309469E+03 -0.35897979912E+03  0.45873965577E+03  0.26296515033E+03 0.  0.
         25    1    4    4    0    0  0.36971648238E+02 -0.38977730946E+02 -0.20735698269E+03  0.24805360843E+03  0.12509000000E+03 0.  0.
         25    1    4    4    0    0 -0.24463964013E+02 -0.71785363748E+02 -0.15162281643E+03  0.21068604734E+03  0.12509000000E+03 0.  0.
         25    1    3    3    0    0 -0.12507684225E+02  0.11076309469E+03 -0.14259782968E+03  0.22001489595E+03  0.12509000000E+03 0.  0.
<mgrwt>
<rscale>  2 0.45730474E+03</rscale>
<asrwt>0</asrwt>
<pdfrwt beam="1">  1       21 0.13027715E-01 0.45730474E+03</pdfrwt>
<pdfrwt beam="2">  1       21 0.86789133E-01 0.45730474E+03</pdfrwt>
<totfact> 0.53101291E+04</totfact>
</mgrwt>
</event>
<event>
 7    0  0.4788920E-002  0.4541988E+03  0.7546771E-02  0.1026477E+00
         21   -1    0    0  502  501  0.00000000000E+00  0.00000000000E+00  0.15722455893E+03  0.15722455893E+03  0.00000000000E+00 0.  1.
         21   -1    0    0  501  502 -0.00000000000E+00 -0.00000000000E+00 -0.32802856766E+03  0.32802856766E+03  0.00000000000E+00 0.  1.
      99926    2    1    2    0    0  0.17763568394E-14 -0.14210854715E-13 -0.17080400873E+03  0.48525312660E+03  0.45419884134E+03 0.  0.
      99925    2    3    3    0    0 -0.42060789697E+01  0.11115813012E+03 -0.12199646951E+03  0.31088711793E+03  0.26342710667E+03 0.  0.
         25    1    4    4    0    0  0.16043323093E+02  0.95633484638E+02 -0.68860067027E+02  0.17260465964E+03  0.12509000000E+03 0.  0.
         25    1    4    4    0    0 -0.20249402063E+02  0.15524645484E+02 -0.53136402481E+02  0.13828245829E+03  0.12509000000E+03 0.  0.
         25    1    3    3    0    0  0.42060789697E+01 -0.11115813012E+03 -0.48807539225E+02  0.17436600866E+03  0.12509000000E+03 0.  0.
<mgrwt>
<rscale>  2 0.45419884E+03</rscale>
<asrwt>0</asrwt>
<pdfrwt beam="1">  1       21 0.23121259E-01 0.45419884E+03</pdfrwt>
<pdfrwt beam="2">  1       21 0.48239495E-01 0.45419884E+03</pdfrwt>
<totfact> 0.66743132E+04</totfact>
</mgrwt>
</event>
<event>
 7    0  0.4788920E-002  0.4636880E+03  0.7546771E-02  0.1023717E+00
         21   -1    0    0  502  501  0.00000000000E+00  0.00000000000E+00  0.15241732295E+03  0.15241732295E+03  0.00000000000E+00 0.  1.
         21   -1    0    0  501  502 -0.00000000000E+00 -0.00000000000E+00 -0.35266097809E+03  0.35266097809E+03  0.00000000000E+00 0.  1.
      99926    2    1    2    0    0  0.00000000000E+00  0.00000000000E+00 -0.20024365514E+03  0.50507830104E+03  0.46368800800E+03 0.  0.
      99925    2    3    3    0    0  0.98260503676E+02 -0.25556633310E+02 -0.19725515103E+03  0.34394262111E+03  0.26282820229E+03 0.  0.
         25    1    4    4    0    0  0.68230231764E+02 -0.37730443596E+01 -0.14518852491E+03  0.20346207572E+03  0.12509000000E+03 0.  0.
         25    1    4    4    0    0  0.30030271913E+02 -0.21783588951E+02 -0.52066626126E+02  0.14048054540E+03  0.12509000000E+03 0.  0.
         25    1    3    3    0    0 -0.98260503676E+02  0.25556633310E+02 -0.29885041052E+01  0.16113567993E+03  0.12509000000E+03 0.  0.
<mgrwt>
<rscale>  2 0.46368801E+03</rscale>
<asrwt>0</asrwt>
<pdfrwt beam="1">  1       21 0.22414312E-01 0.46368801E+03</pdfrwt>
<pdfrwt beam="2">  1       21 0.51861908E-01 0.46368801E+03</pdfrwt>
<totfact> 0.60625180E+04</totfact>
</mgrwt>
</event>
<event>
 7    0  0.4788920E-002  0.4531766E+03  0.7546771E-02  0.1026779E+00
         21   -1    0    0  502  501  0.00000000000E+00  0.00000000000E+00  0.57096790147E+02  0.57096790147E+02  0.00000000000E+00 0. -1.
         21   -1    0    0  501  502 -0.00000000000E+00 -0.00000000000E+00 -0.89921425315E+03  0.89921425315E+03  0.00000000000E+00 0. -1.
      99926    2    1    2    0    0 -0.35527136788E-14 -0.14210854715E-13 -0.84211746301E+03  0.95631104330E+03  0.45317655504E+03 0.  0.
      99925    2    3    3    0    0 -0.30872634092E+02  0.10527063668E+03 -0.48904602821E+03  0.56600094524E+03  0.26297533310E+03 0.  0.
         25    1    3    3    0    0  0.30872634092E+02 -0.10527063668E+03 -0.35307143479E+03  0.39031009806E+03  0.12509000000E+03 0.  0.
         25    1    4    4    0    0 -0.11548860305E+02  0.97044150751E+01 -0.23040100714E+03  0.26260175940E+03  0.12509000000E+03 0.  0.
         25    1    4    4    0    0 -0.19323773787E+02  0.95566221602E+02 -0.25864502107E+03  0.30339918584E+03  0.12509000000E+03 0.  0.
<mgrwt>
<rscale>  2 0.45317656E+03</rscale>
<asrwt>0</asrwt>
<pdfrwt beam="1">  1       21 0.83965864E-02 0.45317656E+03</pdfrwt>
<pdfrwt beam="2">  1       21 0.13223740E+00 0.45317656E+03</pdfrwt>
<totfact> 0.41474509E+04</totfact>
</mgrwt>
</event>
<event>
 7    0  0.4788920E-002  0.4532368E+03  0.7546771E-02  0.1026761E+00
         21   -1    0    0  502  501  0.00000000000E+00  0.00000000000E+00  0.14585161458E+03  0.14585161458E+03  0.00000000000E+00 0.  1.
         21   -1    0    0  501  502 -0.00000000000E+00 -0.00000000000E+00 -0.35211053397E+03  0.35211053397E+03  0.00000000000E+00 0.  1.
      99926    2    1    2    0    0  0.17763568394E-14  0.71054273576E-14 -0.20625891939E+03  0.49796214855E+03  0.45323675884E+03 0.  0.
      99925    2    3    3    0    0  0.11407858129E+02  0.35498547812E+02 -0.14515286131E+02  0.26600651676E+03  0.26298001313E+03 0.  0.
         25    1    3    3    0    0 -0.11407858129E+02 -0.35498547812E+02 -0.19174363326E+03  0.23195563179E+03  0.12509000000E+03 0.  0.
         25    1    4    4    0    0 -0.18942257357E+02  0.42256122387E+02  0.13604986950E+02  0.13407830832E+03  0.12509000000E+03 0.  0.
         25    1    4    4    0    0  0.30350115486E+02 -0.67575745756E+01 -0.28120273081E+02  0.13192820844E+03  0.12509000000E+03 0.  0.
<mgrwt>
<rscale>  2 0.45323676E+03</rscale>
<asrwt>0</asrwt>
<pdfrwt beam="1">  1       21 0.21448767E-01 0.45323676E+03</pdfrwt>
<pdfrwt beam="2">  1       21 0.51780960E-01 0.45323676E+03</pdfrwt>
<totfact> 0.66337736E+04</totfact>
</mgrwt>
</event>
<event>
 7    0  0.4788920E-002  0.4399563E+03  0.7546771E-02  0.1030760E+00
         21   -1    0    0  502  501  0.00000000000E+00  0.00000000000E+00  0.61071418323E+02  0.61071418323E+02  0.00000000000E+00 0.  1.
         21   -1    0    0  501  502 -0.00000000000E+00 -0.00000000000E+00 -0.79235733099E+03  0.79235733099E+03  0.00000000000E+00 0.  1.
      99926    2    1    2    0    0 -0.71054273576E-14  0.00000000000E+00 -0.73128591267E+03  0.85342874931E+03  0.43995629793E+03 0.  0.
      99925    2    3    3    0    0 -0.54491913713E+02  0.81712047278E+02 -0.47983581399E+03  0.55590414940E+03  0.26294635878E+03 0.  0.
         25    1    3    3    0    0  0.54491913713E+02 -0.81712047278E+02 -0.25145009868E+03  0.29752459991E+03  0.12509000000E+03 0.  0.
         25    1    4    4    0    0  0.13298002799E+02  0.46493480910E+02 -0.23115389849E+03  0.26724167627E+03  0.12509000000E+03 0.  0.
         25    1    4    4    0    0 -0.67789916512E+02  0.35218566368E+02 -0.24868191550E+03  0.28866247313E+03  0.12509000000E+03 0.  0.
<mgrwt>
<rscale>  2 0.43995630E+03</rscale>
<asrwt>0</asrwt>
<pdfrwt beam="1">  1       21 0.89810910E-02 0.43995630E+03</pdfrwt>
<pdfrwt beam="2">  1       21 0.11652314E+00 0.43995630E+03</pdfrwt>
<totfact> 0.51048838E+04</totfact>
</mgrwt>
</event>
<event>
 7    0  0.4788920E-002  0.4617561E+03  0.7546771E-02  0.1024273E+00
         21   -1    0    0  502  501  0.00000000000E+00  0.00000000000E+00  0.53310944194E+03  0.53310944194E+03  0.00000000000E+00 0.  1.
         21   -1    0    0  501  502 -0.00000000000E+00 -0.00000000000E+00 -0.99988249318E+02  0.99988249318E+02  0.00000000000E+00 0.  1.
      99926    2    1    2    0    0  0.14210854715E-13  0.00000000000E+00  0.43312119262E+03  0.63309769126E+03  0.46175612522E+03 0.  0.
      99925    2    3    3    0    0 -0.11796318822E+03  0.16141286711E+02  0.28423519271E+03  0.40508364787E+03  0.26292063837E+03 0.  0.
         25    1    3    3    0    0  0.11796318822E+03 -0.16141286711E+02  0.14888599992E+03  0.22801404339E+03  0.12509000000E+03 0.  0.
         25    1    4    4    0    0 -0.43750950647E+02  0.43958467443E+02  0.15410045124E+03  0.20794458328E+03  0.12509000000E+03 0.  0.
         25    1    4    4    0    0 -0.74212237578E+02 -0.27817180732E+02  0.13013474147E+03  0.19713906459E+03  0.12509000000E+03 0.  0.
<mgrwt>
<rscale>  2 0.46175613E+03</rscale>
<asrwt>0</asrwt>
<pdfrwt beam="1">  1       21 0.78398446E-01 0.46175613E+03</pdfrwt>
<pdfrwt beam="2">  1       21 0.14704155E-01 0.46175613E+03</pdfrwt>
<totfact> 0.53760905E+04</totfact>
</mgrwt>
</event>
<event>
 7    0  0.4788920E-002  0.4525962E+03  0.7546771E-02  0.1026951E+00
         21   -1    0    0  502  501  0.00000000000E+00  0.00000000000E+00  0.38054482225E+03  0.38054482225E+03  0.00000000000E+00 0.  1.
         21   -1    0    0  501  502 -0.00000000000E+00 -0.00000000000E+00 -0.13457238281E+03  0.13457238281E+03  0.00000000000E+00 0.  1.
      99926    2    1    2    0    0  0.14210854715E-13  0.35527136788E-14  0.24597243945E+03  0.51511720506E+03  0.45259617098E+03 0.  0.
      99925    2    3    3    0    0  0.99180003596E+02  0.26569133882E+02  0.20270901938E+03  0.34760056826E+03  0.26304489451E+03 0.  0.
         25    1    4    4    0    0  0.86035095436E+02 -0.69058244394E+01  0.10204642594E+03  0.18305930516E+03  0.12509000000E+03 0.  0.
         25    1    3    3    0    0 -0.99180003596E+02 -0.26569133882E+02  0.43263420064E+02  0.16751663680E+03  0.12509000000E+03 0.  0.
         25    1    4    4    0    0  0.13144908160E+02  0.33474958322E+02  0.10066259345E+03  0.16454126311E+03  0.12509000000E+03 0.  0.
<mgrwt>
<rscale>  2 0.45259617E+03</rscale>
<asrwt>0</asrwt>
<pdfrwt beam="1">  1       21 0.55962474E-01 0.45259617E+03</pdfrwt>
<pdfrwt beam="2">  1       21 0.19790056E-01 0.45259617E+03</pdfrwt>
<totfact> 0.65460854E+04</totfact>
</mgrwt>
</event>
<event>
 7    0  0.4788920E-002  0.4556383E+03  0.7546771E-02  0.1026054E+00
         21   -1    0    0  502  501  0.00000000000E+00  0.00000000000E+00  0.39190643850E+03  0.39190643850E+03  0.00000000000E+00 0. -1.
         21   -1    0    0  501  502 -0.00000000000E+00 -0.00000000000E+00 -0.13243356683E+03  0.13243356683E+03  0.00000000000E+00 0. -1.
      99926    2    1    2    0    0  0.00000000000E+00  0.35527136788E-14  0.25947287167E+03  0.52434000532E+03  0.45563831056E+03 0.  0.
      99925    2    3    3    0    0  0.10267611216E+03  0.16517422549E+02  0.10872771011E+03  0.30255898474E+03  0.26249764770E+03 0.  0.
         25    1    3    3    0    0 -0.10267611216E+03 -0.16517422549E+02  0.15074516156E+03  0.22178102058E+03  0.12509000000E+03 0.  0.
         25    1    4    4    0    0  0.54903069815E+02 -0.31105839663E+02  0.49495937365E+02  0.14859096962E+03  0.12509000000E+03 0.  0.
         25    1    4    4    0    0  0.47773042345E+02  0.47623262212E+02  0.59231772742E+02  0.15396801512E+03  0.12509000000E+03 0.  0.
<mgrwt>
<rscale>  2 0.45563831E+03</rscale>
<asrwt>0</asrwt>
<pdfrwt beam="1">  1       21 0.57633300E-01 0.45563831E+03</pdfrwt>
<pdfrwt beam="2">  1       21 0.19475525E-01 0.45563831E+03</pdfrwt>
<totfact> 0.63270506E+04</totfact>
</mgrwt>
</event>
<event>
 7    0  0.4788920E-002  0.4617856E+03  0.7546771E-02  0.1024265E+00
         21   -1    0    0  502  501  0.00000000000E+00  0.00000000000E+00  0.36296588233E+03  0.36296588233E+03  0.00000000000E+00 0.  1.
         21   -1    0    0  501  502 -0.00000000000E+00 -0.00000000000E+00 -0.14687741852E+03  0.14687741852E+03  0.00000000000E+00 0.  1.
      99926    2    1    2    0    0  0.14210854715E-13  0.17763568394E-14  0.21608846381E+03  0.50984330085E+03  0.46178562909E+03 0.  0.
      99925    2    3    3    0    0  0.11883599501E+03 -0.11925569140E+02  0.13674808519E+03  0.31956293747E+03  0.26297570095E+03 0.  0.
         25    1    4    4    0    0  0.80345723306E+02  0.29448774717E+02  0.72683693629E+02  0.16808656402E+03  0.12509000000E+03 0.  0.
         25    1    4    4    0    0  0.38490271704E+02 -0.41374343857E+02  0.64064391558E+02  0.15147637344E+03  0.12509000000E+03 0.  0.
         25    1    3    3    0    0 -0.11883599501E+03  0.11925569140E+02  0.79340378627E+02  0.19028036339E+03  0.12509000000E+03 0.  0.
<mgrwt>
<rscale>  2 0.46178563E+03</rscale>
<asrwt>0</asrwt>
<pdfrwt beam="1">  1       21 0.53377335E-01 0.46178563E+03</pdfrwt>
<pdfrwt beam="2">  1       21 0.21599621E-01 0.46178563E+03</pdfrwt>
<totfact> 0.61220270E+04</totfact>
</mgrwt>
</event>
<event>
 7    0  0.4788920E-002  0.4504950E+03  0.7546771E-02  0.1027575E+00
         21   -1    0    0  502  501  0.00000000000E+00  0.00000000000E+00  0.38346961449E+03  0.38346961449E+03  0.00000000000E+00 0. -1.
         21   -1    0    0  501  502 -0.00000000000E+00 -0.00000000000E+00 -0.13230888956E+03  0.13230888956E+03  0.00000000000E+00 0. -1.
      99926    2    1    2    0    0  0.00000000000E+00  0.00000000000E+00  0.25116072493E+03  0.51577850405E+03  0.45049501162E+03 0.  0.
      99925    2    3    3    0    0  0.77133799572E+02  0.33303414321E+02  0.23799304845E+03  0.36451834325E+03  0.26300986866E+03 0.  0.
         25    1    4    4    0    0 -0.25326549814E+01  0.57747055992E+01  0.10599348821E+03  0.16407891153E+03  0.12509000000E+03 0.  0.
         25    1    3    3    0    0 -0.77133799572E+02 -0.33303414321E+02  0.13167676482E+02  0.15126016080E+03  0.12509000000E+03 0.  0.
         25    1    4    4    0    0  0.79666454553E+02  0.27528708721E+02  0.13199956024E+03  0.20043943172E+03  0.12509000000E+03 0.  0.
<mgrwt>
<rscale>  2 0.45049501E+03</rscale>
<asrwt>0</asrwt>
<pdfrwt beam="1">  1       21 0.56392590E-01 0.45049501E+03</pdfrwt>
<pdfrwt beam="2">  1       21 0.19457190E-01 0.45049501E+03</pdfrwt>
<totfact> 0.66521905E+04</totfact>
</mgrwt>
</event>
<event>
 7    0  0.4788920E-002  0.4633611E+03  0.7546771E-02  0.1023811E+00
         21   -1    0    0  502  501  0.00000000000E+00  0.00000000000E+00  0.15197312107E+03  0.15197312107E+03  0.00000000000E+00 0. -1.
         21   -1    0    0  501  502 -0.00000000000E+00 -0.00000000000E+00 -0.35319330246E+03  0.35319330246E+03  0.00000000000E+00 0. -1.
      99926    2    1    2    0    0 -0.14210854715E-13 -0.14210854715E-13 -0.20122018140E+03  0.50516642353E+03  0.46336114863E+03 0.  0.
      99925    2    3    3    0    0  0.97219049341E+02  0.70226246416E+02 -0.14242085980E+03  0.32216877993E+03  0.26291776703E+03 0.  0.
         25    1    4    4    0    0  0.43450251472E+02  0.20894525295E+02 -0.26462818730E+02  0.13664660411E+03  0.12509000000E+03 0.  0.
         25    1    3    3    0    0 -0.97219049341E+02 -0.70226246416E+02 -0.58799321597E+02  0.18299764359E+03  0.12509000000E+03 0.  0.
         25    1    4    4    0    0  0.53768797868E+02  0.49331721121E+02 -0.11595804107E+03  0.18552217582E+03  0.12509000000E+03 0.  0.
<mgrwt>
<rscale>  2 0.46336115E+03</rscale>
<asrwt>0</asrwt>
<pdfrwt beam="1">  1       21 0.22348989E-01 0.46336115E+03</pdfrwt>
<pdfrwt beam="2">  1       21 0.51940190E-01 0.46336115E+03</pdfrwt>
<totfact> 0.60774310E+04</totfact>
</mgrwt>
</event>
<event>
 7    0  0.4788920E-002  0.4542781E+03  0.7546771E-02  0.1026454E+00
         21   -1    0    0  502  501  0.00000000000E+00  0.00000000000E+00  0.44736210123E+02  0.44736210123E+02  0.00000000000E+00 0.  1.
         21   -1    0    0  501  502 -0.00000000000E+00 -0.00000000000E+00 -0.11532525347E+04  0.11532525347E+04  0.00000000000E+00 0.  1.
      99926    2    1    2    0    0 -0.71054273576E-14  0.00000000000E+00 -0.11085163245E+04  0.11979887448E+04  0.45427809859E+03 0.  0.
      99925    2    3    3    0    0  0.57022939509E+02  0.45822588120E+02 -0.92338324271E+03  0.96288644514E+03  0.26298739152E+03 0.  0.
         25    1    4    4    0    0  0.55157967684E+02 -0.48761323094E+01 -0.41988425584E+03  0.44160669659E+03  0.12509000000E+03 0.  0.
         25    1    4    4    0    0  0.18649718246E+01  0.50698720430E+02 -0.50349898687E+03  0.52127974855E+03  0.12509000000E+03 0.  0.
         25    1    3    3    0    0 -0.57022939509E+02 -0.45822588120E+02 -0.18513308183E+03  0.23510229965E+03  0.12509000000E+03 0.  0.
<mgrwt>
<rscale>  2 0.45427810E+03</rscale>
<asrwt>0</asrwt>
<pdfrwt beam="1">  1       21 0.65788553E-02 0.45427810E+03</pdfrwt>
<pdfrwt beam="2">  1       21 0.16959594E+00 0.45427810E+03</pdfrwt>
<totfact> 0.32401590E+04</totfact>
</mgrwt>
</event>
<event>
 7    0  0.4788920E-002  0.4546083E+03  0.7546771E-02  0.1026357E+00
         21   -1    0    0  502  501  0.00000000000E+00  0.00000000000E+00  0.17227627929E+03  0.17227627929E+03  0.00000000000E+00 0. -1.
         21   -1    0    0  501  502 -0.00000000000E+00 -0.00000000000E+00 -0.29990877840E+03  0.29990877840E+03  0.00000000000E+00 0. -1.
      99926    2    1    2    0    0  0.00000000000E+00  0.00000000000E+00 -0.12763249911E+03  0.47218505769E+03  0.45460826419E+03 0.  0.
      99925    2    3    3    0    0 -0.66547984298E+02 -0.87350583892E+02 -0.53356111720E+02  0.28991260079E+03  0.26295186388E+03 0.  0.
         25    1    4    4    0    0 -0.25822874759E+02 -0.54776066470E+02  0.11916945311E+02  0.13948749049E+03  0.12509000000E+03 0.  0.
         25    1    3    3    0    0  0.66547984298E+02  0.87350583892E+02 -0.74276387393E+02  0.18227245690E+03  0.12509000000E+03 0.  0.
         25    1    4    4    0    0 -0.40725109539E+02 -0.32574517422E+02 -0.65273057031E+02  0.15042511029E+03  0.12509000000E+03 0.  0.
<mgrwt>
<rscale>  2 0.45460826E+03</rscale>
<asrwt>0</asrwt>
<pdfrwt beam="1">  1       21 0.25334747E-01 0.45460826E+03</pdfrwt>
<pdfrwt beam="2">  1       21 0.44104232E-01 0.45460826E+03</pdfrwt>
<totfact> 0.67483090E+04</totfact>
</mgrwt>
</event>
<event>
 7    0  0.4788920E-002  0.4512729E+03  0.7546771E-02  0.1027343E+00
         21   -1    0    0  502  501  0.00000000000E+00  0.00000000000E+00  0.42849041442E+03  0.42849041442E+03  0.00000000000E+00 0.  1.
         21   -1    0    0  501  502 -0.00000000000E+00 -0.00000000000E+00 -0.11881668212E+03  0.11881668212E+03  0.00000000000E+00 0.  1.
      99926    2    1    2    0    0  0.00000000000E+00  0.14210854715E-13  0.30967373230E+03  0.54730709653E+03  0.45127290794E+03 0.  0.
      99925    2    3    3    0    0  0.51768680487E+02  0.92364933717E+02  0.23019939042E+03  0.36516716028E+03  0.26295250206E+03 0.  0.
         25    1    4    4    0    0  0.12344028344E+02  0.40406400619E+02  0.62666470668E+02  0.14614939922E+03  0.12509000000E+03 0.  0.
         25    1    4    4    0    0  0.39424652143E+02  0.51958533097E+02  0.16753291976E+03  0.21901776106E+03  0.12509000000E+03 0.  0.
         25    1    3    3    0    0 -0.51768680487E+02 -0.92364933717E+02  0.79474341877E+02  0.18213993625E+03  0.12509000000E+03 0.  0.
<mgrwt>
<rscale>  2 0.45127291E+03</rscale>
<asrwt>0</asrwt>
<pdfrwt beam="1">  1       21 0.63013296E-01 0.45127291E+03</pdfrwt>
<pdfrwt beam="2">  1       21 0.17473042E-01 0.45127291E+03</pdfrwt>
<totfact> 0.63908745E+04</totfact>
</mgrwt>
</event>
<event>
 6    0  0.4788920E-002  0.4492566E+03  0.7546771E-02  0.1027944E+00
         21   -1    0    0  502  501  0.00000000000E+00  0.00000000000E+00  0.11876952628E+04  0.11876952628E+04  0.00000000000E+00 0.  1.
         21   -1    0    0  501  502 -0.00000000000E+00 -0.00000000000E+00 -0.42483853008E+02  0.42483853008E+02  0.00000000000E+00 0.  1.
      99926    2    1    2    0    0  0.00000000000E+00  0.00000000000E+00  0.11452114098E+04  0.12301791159E+04  0.44925659023E+03 0.  0.
         25    1    3    3    0    0  0.49863732083E+01  0.12051549836E+02  0.61733957890E+03  0.63002045010E+03  0.12509000000E+03 0.  0.
         25    1    3    3    0    0  0.38456768202E+02 -0.30349632932E+02  0.16097208151E+03  0.20966531035E+03  0.12509000000E+03 0.  0.
         25    1    3    3    0    0 -0.43443141411E+02  0.18298083096E+02  0.36689974943E+03  0.39049335540E+03  0.12509000000E+03 0.  0.
<mgrwt>
<rscale>  2 0.44925659E+03</rscale>
<asrwt>0</asrwt>
<pdfrwt beam="1">  1       21 0.17466105E+00 0.44925659E+03</pdfrwt>
<pdfrwt beam="2">  1       21 0.62476262E-02 0.44925659E+03</pdfrwt>
<totfact> 0.32647412E+04</totfact>
</mgrwt>
</event>
<event>
 7    0  0.4788920E-002  0.4442853E+03  0.7546771E-02  0.1029440E+00
         21   -1    0    0  502  501  0.00000000000E+00  0.00000000000E+00  0.23166429836E+03  0.23166429836E+03  0.00000000000E+00 0. -1.
         21   -1    0    0  501  502 -0.00000000000E+00 -0.00000000000E+00 -0.21301236946E+03  0.21301236946E+03  0.00000000000E+00 0. -1.
      99926    2    1    2    0    0  0.71054273576E-14 -0.14210854715E-13  0.18651928895E+02  0.44467666782E+03  0.44428531874E+03 0.  0.
      99925    2    3    3    0    0 -0.63111392773E+02  0.75904901167E+02  0.40474254744E+02  0.28384034131E+03  0.26302580128E+03 0.  0.
         25    1    3    3    0    0  0.63111392773E+02 -0.75904901167E+02 -0.21822325849E+02  0.16083632651E+03  0.12509000000E+03 0.  0.
         25    1    4    4    0    0 -0.39605251964E+02 -0.28943872844E+01  0.19075949578E+02  0.13262108962E+03  0.12509000000E+03 0.  0.
         25    1    4    4    0    0 -0.23506140809E+02  0.78799288452E+02  0.21398305165E+02  0.15121925168E+03  0.12509000000E+03 0.  0.
<mgrwt>
<rscale>  2 0.44428532E+03</rscale>
<asrwt>0</asrwt>
<pdfrwt beam="1">  1       21 0.34068279E-01 0.44428532E+03</pdfrwt>
<pdfrwt beam="2">  1       21 0.31325348E-01 0.44428532E+03</pdfrwt>
<totfact> 0.75565278E+04</totfact>
</mgrwt>
</event>
<event>
 7    0  0.4788920E-002  0.4600037E+03  0.7546771E-02  0.1024780E+00
         21   -1    0    0  502  501  0.00000000000E+00  0.00000000000E+00  0.67415284700E+03  0.67415284700E+03  0.00000000000E+00 0. -1.
         21   -1    0    0  501  502 -0.00000000000E+00 -0.00000000000E+00 -0.78470117007E+02  0.78470117007E+02  0.00000000000E+00 0. -1.
      99926    2    1    2    0    0  0.00000000000E+00  0.00000000000E+00  0.59568273000E+03  0.75262296401E+03  0.46000370775E+03 0.  0.
      99925    2    3    3    0    0  0.93869619281E+02 -0.65914782441E+02  0.32899195574E+03  0.43650946993E+03  0.26296111200E+03 0.  0.
         25    1    4    4    0    0  0.37420757740E+02 -0.27372632895E+02  0.21911051104E+03  0.25652777294E+03  0.12509000000E+03 0.  0.
         25    1    3    3    0    0 -0.93869619281E+02  0.65914782441E+02  0.26669077426E+03  0.31611349408E+03  0.12509000000E+03 0.  0.
         25    1    4    4    0    0  0.56448861541E+02 -0.38542149546E+02  0.10988144470E+03  0.17998169699E+03  0.12509000000E+03 0.  0.
<mgrwt>
<rscale>  2 0.46000371E+03</rscale>
<asrwt>0</asrwt>
<pdfrwt beam="1">  1       21 0.99140121E-01 0.46000371E+03</pdfrwt>
<pdfrwt beam="2">  1       21 0.11539723E-01 0.46000371E+03</pdfrwt>
<totfact> 0.48213164E+04</totfact>
</mgrwt>
</event>
<event>
 7    0  0.4788920E-002  0.4580825E+03  0.7546771E-02  0.1025339E+00
         21   -1    0    0  502  501  0.00000000000E+00  0.00000000000E+00  0.43574455433E+02  0.43574455433E+02  0.00000000000E+00 0.  1.
         21   -1    0    0  501  502 -0.00000000000E+00 -0.00000000000E+00 -0.12039140059E+04  0.12039140059E+04  0.00000000000E+00 0.  1.
      99926    2    1    2    0    0 -0.14210854715E-13  0.00000000000E+00 -0.11603395505E+04  0.12474884614E+04  0.45808251308E+03 0.  0.
      99925    2    3    3    0    0 -0.75124556223E+02 -0.46589224116E+02 -0.52220604986E+03  0.59122926905E+03  0.26275204153E+03 0.  0.
         25    1    3    3    0    0  0.75124556223E+02  0.46589224116E+02 -0.63813350065E+03  0.65625919232E+03  0.12509000000E+03 0.  0.
         25    1    4    4    0    0 -0.61090840311E+02 -0.20325893145E+02 -0.34239957656E+03  0.37017591876E+03  0.12509000000E+03 0.  0.
         25    1    4    4    0    0 -0.14033715912E+02 -0.26263330972E+02 -0.17980647330E+03  0.22105335030E+03  0.12509000000E+03 0.  0.
<mgrwt>
<rscale>  2 0.45808251E+03</rscale>
<asrwt>0</asrwt>
<pdfrwt beam="1">  1       21 0.64080085E-02 0.45808251E+03</pdfrwt>
<pdfrwt beam="2">  1       21 0.17704617E+00 0.45808251E+03</pdfrwt>
<totfact> 0.29953432E+04</totfact>
</mgrwt>
</event>
<event>
 7    0  0.4788920E-002  0.4582764E+03  0.7546771E-02  0.1025282E+00
         21   -1    0    0  502  501  0.00000000000E+00  0.00000000000E+00  0.19773707302E+03  0.19773707302E+03  0.00000000000E+00 0. -1.
         21   -1    0    0  501  502 -0.00000000000E+00 -0.00000000000E+00 -0.26552592217E+03  0.26552592217E+03  0.00000000000E+00 0. -1.
      99926    2    1    2    0    0  0.14210854715E-13  0.00000000000E+00 -0.67788849152E+02  0.46326299519E+03  0.45827641729E+03 0.  0.
      99925    2    3    3    0    0  0.81087502182E+02 -0.61451323649E+02 -0.99361771864E+02  0.29895899117E+03  0.26296818915E+03 0.  0.
         25    1    4    4    0    0  0.74780833558E+00 -0.35987385041E+02 -0.58380465234E+02  0.14265846600E+03  0.12509000000E+03 0.  0.
         25    1    4    4    0    0  0.80339693847E+02 -0.25463938607E+02 -0.40981306630E+02  0.15630052517E+03  0.12509000000E+03 0.  0.
         25    1    3    3    0    0 -0.81087502182E+02  0.61451323649E+02  0.31572922712E+02  0.16430400402E+03  0.12509000000E+03 0.  0.
<mgrwt>
<rscale>  2 0.45827642E+03</rscale>
<asrwt>0</asrwt>
<pdfrwt beam="1">  1       21 0.29078981E-01 0.45827642E+03</pdfrwt>
<pdfrwt beam="2">  1       21 0.39047930E-01 0.45827642E+03</pdfrwt>
<totfact> 0.66196826E+04</totfact>
</mgrwt>
</event>
<event>
 7    0  0.4788920E-002  0.4635311E+03  0.7546771E-02  0.1023762E+00
         21   -1    0    0  502  501  0.00000000000E+00  0.00000000000E+00  0.14860873283E+03  0.14860873283E+03  0.00000000000E+00 0.  1.
         21   -1    0    0  501  502 -0.00000000000E+00 -0.00000000000E+00 -0.36145438789E+03  0.36145438789E+03  0.00000000000E+00 0.  1.
      99926    2    1    2    0    0  0.00000000000E+00 -0.35527136788E-14 -0.21284565507E+03  0.51006312072E+03  0.46353113621E+03 0.  0.
      99925    2    3    3    0    0 -0.99958743446E+02 -0.21765401308E+02 -0.61821033701E+02  0.28888123302E+03  0.26299247803E+03 0.  0.
         25    1    4    4    0    0 -0.34762629313E+02  0.22862795261E+02 -0.10357231793E+02  0.13223436828E+03  0.12509000000E+03 0.  0.
         25    1    3    3    0    0  0.99958743446E+02  0.21765401308E+02 -0.15102462137E+03  0.22118188769E+03  0.12509000000E+03 0.  0.
         25    1    4    4    0    0 -0.65196114133E+02 -0.44628196569E+02 -0.51463801908E+02  0.15664686474E+03  0.12509000000E+03 0.  0.
<mgrwt>
<rscale>  2 0.46353114E+03</rscale>
<asrwt>0</asrwt>
<pdfrwt beam="1">  1       21 0.21854226E-01 0.46353114E+03</pdfrwt>
<pdfrwt beam="2">  1       21 0.53155056E-01 0.46353114E+03</pdfrwt>
<totfact> 0.60376277E+04</totfact>
</mgrwt>
</event>
<event>
 7    0  0.4788920E-002  0.4790609E+03  0.7546771E-02  0.1019394E+00
         21   -1    0    0  502  501  0.00000000000E+00  0.00000000000E+00  0.54798923641E+02  0.54798923641E+02  0.00000000000E+00 0.  1.
         21   -1    0    0  501  502 -0.00000000000E+00 -0.00000000000E+00 -0.10470065752E+04  0.10470065752E+04  0.00000000000E+00 0.  1.
      99926    2    1    2    0    0  0.00000000000E+00 -0.35527136788E-14 -0.99220765156E+03  0.11018054988E+04  0.47906088701E+03 0.  0.
      99925    2    3    3    0    0 -0.87180891552E+02 -0.29373980706E+02 -0.83745756437E+03  0.88258315468E+03  0.26297245903E+03 0.  0.
         25    1    4    4    0    0 -0.77896222512E+02  0.10709750607E+00 -0.50381887020E+03  0.52492741881E+03  0.12509000000E+03 0.  0.
         25    1    4    4    0    0 -0.92846690397E+01 -0.29481078212E+02 -0.33363869417E+03  0.35765573587E+03  0.12509000000E+03 0.  0.
         25    1    3    3    0    0  0.87180891552E+02  0.29373980706E+02 -0.15475008719E+03  0.21922234416E+03  0.12509000000E+03 0.  0.
<mgrwt>
<rscale>  2 0.47906089E+03</rscale>
<asrwt>0</asrwt>
<pdfrwt beam="1">  1       21 0.80586659E-02 0.47906089E+03</pdfrwt>
<pdfrwt beam="2">  1       21 0.15397154E+00 0.47906089E+03</pdfrwt>
<totfact> 0.29494179E+04</totfact>
</mgrwt>
</event>
<event>
 7    0  0.4788920E-002  0.4552945E+03  0.7546771E-02  0.1026155E+00
         21   -1    0    0  502  501  0.00000000000E+00  0.00000000000E+00  0.30398525211E+03  0.30398525211E+03  0.00000000000E+00 0.  1.
         21   -1    0    0  501  502 -0.00000000000E+00 -0.00000000000E+00 -0.17047959082E+03  0.17047959082E+03  0.00000000000E+00 0.  1.
      99926    2    1    2    0    0  0.71054273576E-14  0.00000000000E+00  0.13350566129E+03  0.47446484293E+03  0.45529454815E+03 0.  0.
      99925    2    3    3    0    0 -0.58689400722E+02  0.64548244232E+02  0.16133030802E+03  0.31944019761E+03  0.26154091452E+03 0.  0.
         25    1    3    3    0    0  0.58689400722E+02 -0.64548244232E+02 -0.27824646738E+02  0.15502464532E+03  0.12509000000E+03 0.  0.
         25    1    4    4    0    0 -0.19426589874E+02  0.30050467097E+02  0.36444196162E+02  0.13511517495E+03  0.12509000000E+03 0.  0.
         25    1    4    4    0    0 -0.39262810849E+02  0.34497777134E+02  0.12488611186E+03  0.18432502266E+03  0.12509000000E+03 0.  0.
<mgrwt>
<rscale>  2 0.45529455E+03</rscale>
<asrwt>0</asrwt>
<pdfrwt beam="1">  1       21 0.44703713E-01 0.45529455E+03</pdfrwt>
<pdfrwt beam="2">  1       21 0.25070528E-01 0.45529455E+03</pdfrwt>
<totfact> 0.66948671E+04</totfact>
</mgrwt>
</event>
<event>
 7    0  0.4788920E-002  0.4545458E+03  0.7546771E-02  0.1026375E+00
         21   -1    0    0  502  501  0.00000000000E+00  0.00000000000E+00  0.25094042554E+03  0.25094042554E+03  0.00000000000E+00 0. -1.
         21   -1    0    0  501  502 -0.00000000000E+00 -0.00000000000E+00 -0.20583756287E+03  0.20583756287E+03  0.00000000000E+00 0. -1.
      99926    2    1    2    0    0  0.00000000000E+00  0.00000000000E+00  0.45102862671E+02  0.45677798841E+03  0.45454577600E+03 0.  0.
      99925    2    3    3    0    0 -0.65545541559E+02 -0.17222925024E+02  0.11894160212E+03  0.29648914068E+03  0.26299402781E+03 0.  0.
         25    1    4    4    0    0 -0.47640293957E+01 -0.36674176251E+02  0.46551500877E+02  0.13849996936E+03  0.12509000000E+03 0.  0.
         25    1    3    3    0    0  0.65545541559E+02  0.17222925024E+02 -0.73838739450E+02  0.16028884773E+03  0.12509000000E+03 0.  0.
         25    1    4    4    0    0 -0.60781512163E+02  0.19451251227E+02  0.72390101244E+02  0.15798917132E+03  0.12509000000E+03 0.  0.
<mgrwt>
<rscale>  2 0.45454578E+03</rscale>
<asrwt>0</asrwt>
<pdfrwt beam="1">  1       21 0.36903004E-01 0.45454578E+03</pdfrwt>
<pdfrwt beam="2">  1       21 0.30270230E-01 0.45454578E+03</pdfrwt>
<totfact> 0.68664234E+04</totfact>
</mgrwt>
</event>
<event>
 7    0  0.4788920E-002  0.4508240E+03  0.7546771E-02  0.1027477E+00
         21   -1    0    0  502  501  0.00000000000E+00  0.00000000000E+00  0.14623030468E+03  0.14623030468E+03  0.00000000000E+00 0. -1.
         21   -1    0    0  501  502 -0.00000000000E+00 -0.00000000000E+00 -0.34746949423E+03  0.34746949423E+03  0.00000000000E+00 0. -1.
      99926    2    1    2    0    0 -0.71054273576E-14  0.00000000000E+00 -0.20123918955E+03  0.49369979890E+03  0.45082400116E+03 0.  0.
      99925    2    3    3    0    0  0.48937315797E+02  0.54332355485E+02 -0.38448346519E+02  0.27576578961E+03  0.26310003732E+03 0.  0.
         25    1    4    4    0    0  0.51480698480E+02  0.23310533521E+02 -0.50594077689E+02  0.14629050580E+03  0.12509000000E+03 0.  0.
         25    1    4    4    0    0 -0.25433826831E+01  0.31021821965E+02  0.12145731170E+02  0.12947528382E+03  0.12509000000E+03 0.  0.
         25    1    3    3    0    0 -0.48937315797E+02 -0.54332355485E+02 -0.16279084303E+03  0.21793400929E+03  0.12509000000E+03 0.  0.
<mgrwt>
<rscale>  2 0.45082400E+03</rscale>
<asrwt>0</asrwt>
<pdfrwt beam="1">  1       21 0.21504457E-01 0.45082400E+03</pdfrwt>
<pdfrwt beam="2">  1       21 0.51098455E-01 0.45082400E+03</pdfrwt>
<totfact> 0.67940069E+04</totfact>
</mgrwt>
</event>
<event>
 7    0  0.4788920E-002  0.4612634E+03  0.7546771E-02  0.1024415E+00
         21   -1    0    0  502  501  0.00000000000E+00  0.00000000000E+00  0.15159473421E+04  0.15159473421E+04  0.00000000000E+00 0. -1.
         21   -1    0    0  501  502 -0.00000000000E+00 -0.00000000000E+00 -0.35087623829E+02  0.35087623829E+02  0.00000000000E+00 0. -1.
      99926    2    1    2    0    0  0.00000000000E+00  0.00000000000E+00  0.14808597182E+04  0.15510349659E+04  0.46126343919E+03 0.  0.
      99925    2    3    3    0    0 -0.63571515651E+02  0.36585804094E+02  0.61489535256E+03  0.67301352573E+03  0.26357361885E+03 0.  0.
         25    1    4    4    0    0 -0.64568771299E+02  0.14227389113E+02  0.25924405497E+03  0.29534138377E+03  0.12509000000E+03 0.  0.
         25    1    4    4    0    0  0.99725564806E+00  0.22358414981E+02  0.35565129759E+03  0.37767214196E+03  0.12509000000E+03 0.  0.
         25    1    3    3    0    0  0.63571515651E+02 -0.36585804094E+02  0.86596436566E+03  0.87802144015E+03  0.12509000000E+03 0.  0.
<mgrwt>
<rscale>  2 0.46126344E+03</rscale>
<asrwt>0</asrwt>
<pdfrwt beam="1">  1       21 0.22293339E+00 0.46126344E+03</pdfrwt>
<pdfrwt beam="2">  1       21 0.51599457E-02 0.46126344E+03</pdfrwt>
<totfact> 0.21491070E+04</totfact>
</mgrwt>
</event>
<event>
 7    0  0.4788920E-002  0.4219683E+03  0.7546771E-02  0.1036428E+00
         21   -1    0    0  502  501  0.00000000000E+00  0.00000000000E+00  0.37087171566E+03  0.37087171566E+03  0.00000000000E+00 0. -1.
         21   -1    0    0  501  502 -0.00000000000E+00 -0.00000000000E+00 -0.12002614490E+03  0.12002614490E+03  0.00000000000E+00 0. -1.
      99926    2    1    2    0    0  0.00000000000E+00  0.00000000000E+00  0.25084557076E+03  0.49089786056E+03  0.42196825607E+03 0.  0.
      99925    2    3    3    0    0  0.26691489546E+02  0.70811299033E+02  0.18590145063E+03  0.33092310466E+03  0.26310468671E+03 0.  0.
         25    1    4    4    0    0 -0.12443075817E+02  0.43455545937E+01  0.71487063161E+02  0.14467764955E+03  0.12509000000E+03 0.  0.
         25    1    3    3    0    0 -0.26691489546E+02 -0.70811299033E+02  0.64944120130E+02  0.15997475590E+03  0.12509000000E+03 0.  0.
         25    1    4    4    0    0  0.39134565363E+02  0.66465744439E+02  0.11441438747E+03  0.18624545511E+03  0.12509000000E+03 0.  0.
<mgrwt>
<rscale>  2 0.42196826E+03</rscale>
<asrwt>0</asrwt>
<pdfrwt beam="1">  1       21 0.54539958E-01 0.42196826E+03</pdfrwt>
<pdfrwt beam="2">  1       21 0.17650904E-01 0.42196826E+03</pdfrwt>
<totfact> 0.86442290E+04</totfact>
</mgrwt>
</event>
<event>
 7    0  0.4788920E-002  0.4555889E+03  0.7546771E-02  0.1026068E+00
         21   -1    0    0  502  501  0.00000000000E+00  0.00000000000E+00  0.37188385933E+02  0.37188385933E+02  0.00000000000E+00 0.  1.
         21   -1    0    0  501  502 -0.00000000000E+00 -0.00000000000E+00 -0.13953366508E+04  0.13953366508E+04  0.00000000000E+00 0.  1.
      99926    2    1    2    0    0 -0.14210854715E-13  0.00000000000E+00 -0.13581482649E+04  0.14325250368E+04  0.45558892822E+03 0.  0.
      99925    2    3    3    0    0  0.78796706231E+02 -0.62592047513E+02 -0.68734049807E+03  0.74277344854E+03  0.26296149954E+03 0.  0.
         25    1    3    3    0    0 -0.78796706231E+02  0.62592047513E+02 -0.67080776684E+03  0.68975158823E+03  0.12509000000E+03 0.  0.
         25    1    4    4    0    0  0.61803682758E+02 -0.39482299681E+02 -0.45233976089E+03  0.47501296253E+03  0.12509000000E+03 0.  0.
         25    1    4    4    0    0  0.16993023473E+02 -0.23109747831E+02 -0.23500073719E+03  0.26776048601E+03  0.12509000000E+03 0.  0.
<mgrwt>
<rscale>  2 0.45558893E+03</rscale>
<asrwt>0</asrwt>
<pdfrwt beam="1">  1       21 0.54688815E-02 0.45558893E+03</pdfrwt>
<pdfrwt beam="2">  1       21 0.20519652E+00 0.45558893E+03</pdfrwt>
<totfact> 0.25361786E+04</totfact>
</mgrwt>
</event>
<event>
 7    0  0.4788920E-002  0.4542911E+03  0.7546771E-02  0.1026450E+00
         21   -1    0    0  502  501  0.00000000000E+00  0.00000000000E+00  0.30053702671E+03  0.30053702671E+03  0.00000000000E+00 0. -1.
         21   -1    0    0  501  502 -0.00000000000E+00 -0.00000000000E+00 -0.17167636566E+03  0.17167636566E+03  0.00000000000E+00 0. -1.
      99926    2    1    2    0    0 -0.17763568394E-14  0.00000000000E+00  0.12886066105E+03  0.47221339237E+03  0.45429111588E+03 0.  0.
      99925    2    3    3    0    0  0.66100950560E+00 -0.84675299580E+02  0.15820362566E+03  0.31833402090E+03  0.26294071270E+03 0.  0.
         25    1    4    4    0    0 -0.36372672717E+02 -0.60124264358E+02  0.83896820956E+02  0.16620494322E+03  0.12509000000E+03 0.  0.
         25    1    3    3    0    0 -0.66100950560E+00  0.84675299580E+02 -0.29342964603E+02  0.15387937147E+03  0.12509000000E+03 0.  0.
         25    1    4    4    0    0  0.37033682223E+02 -0.24551035222E+02  0.74306804700E+02  0.15212907767E+03  0.12509000000E+03 0.  0.
<mgrwt>
<rscale>  2 0.45429112E+03</rscale>
<asrwt>0</asrwt>
<pdfrwt beam="1">  1       21 0.44196622E-01 0.45429112E+03</pdfrwt>
<pdfrwt beam="2">  1       21 0.25246524E-01 0.45429112E+03</pdfrwt>
<totfact> 0.67651201E+04</totfact>
</mgrwt>
</event>
<event>
 7    0  0.4788920E-002  0.4540842E+03  0.7546771E-02  0.1026511E+00
         21   -1    0    0  502  501  0.00000000000E+00  0.00000000000E+00  0.48795113597E+02  0.48795113597E+02  0.00000000000E+00 0. -1.
         21   -1    0    0  501  502 -0.00000000000E+00 -0.00000000000E+00 -0.10564198272E+04  0.10564198272E+04  0.00000000000E+00 0. -1.
      99926    2    1    2    0    0 -0.88817841970E-15  0.00000000000E+00 -0.10076247136E+04  0.11052149408E+04  0.45408424539E+03 0.  0.
      99925    2    3    3    0    0  0.76050950053E+01 -0.36413111283E+02 -0.89243145905E+03  0.93114384575E+03  0.26308021633E+03 0.  0.
         25    1    3    3    0    0 -0.76050950053E+01  0.36413111283E+02 -0.11519325460E+03  0.17407109510E+03  0.12509000000E+03 0.  0.
         25    1    4    4    0    0 -0.27823185087E+02 -0.43793943504E+02 -0.44557730307E+03  0.46570235154E+03  0.12509000000E+03 0.  0.
         25    1    4    4    0    0  0.35428280093E+02  0.73808322215E+01 -0.44685415598E+03  0.46544149421E+03  0.12509000000E+03 0.  0.
<mgrwt>
<rscale>  2 0.45408425E+03</rscale>
<asrwt>0</asrwt>
<pdfrwt beam="1">  1       21 0.71757520E-02 0.45408425E+03</pdfrwt>
<pdfrwt beam="2">  1       21 0.15535586E+00 0.45408425E+03</pdfrwt>
<totfact> 0.35566443E+04</totfact>
</mgrwt>
</event>
<event>
 7    0  0.4788920E-002  0.4304733E+03  0.7546771E-02  0.1033711E+00
         21   -1    0    0  502  501  0.00000000000E+00  0.00000000000E+00  0.46671990171E+02  0.46671990171E+02  0.00000000000E+00 0.  1.
         21   -1    0    0  501  502 -0.00000000000E+00 -0.00000000000E+00 -0.99260432205E+03  0.99260432205E+03  0.00000000000E+00 0.  1.
      99926    2    1    2    0    0  0.00000000000E+00  0.00000000000E+00 -0.94593233188E+03  0.10392763122E+04  0.43047331700E+03 0.  0.
      99925    2    3    3    0    0 -0.14094282751E+02  0.66448974793E+02 -0.47437032400E+03  0.54669905896E+03  0.26313217537E+03 0.  0.
         25    1    4    4    0    0 -0.31103385017E+02  0.61670311753E+02 -0.21432555337E+03  0.25759192309E+03  0.12509000000E+03 0.  0.
         25    1    3    3    0    0  0.14094282751E+02 -0.66448974793E+02 -0.47156200787E+03  0.49257725326E+03  0.12509000000E+03 0.  0.
         25    1    4    4    0    0  0.17009102266E+02  0.47786630408E+01 -0.26004477063E+03  0.28910713587E+03  0.12509000000E+03 0.  0.
<mgrwt>
<rscale>  2 0.43047332E+03</rscale>
<asrwt>0</asrwt>
<pdfrwt beam="1">  1       21 0.68635279E-02 0.43047332E+03</pdfrwt>
<pdfrwt beam="2">  1       21 0.14597123E+00 0.43047332E+03</pdfrwt>
<totfact> 0.45840920E+04</totfact>
</mgrwt>
</event>
<event>
 7    0  0.4788920E-002  0.4503790E+03  0.7546771E-02  0.1027609E+00
         21   -1    0    0  502  501  0.00000000000E+00  0.00000000000E+00  0.38340101237E+02  0.38340101237E+02  0.00000000000E+00 0. -1.
         21   -1    0    0  501  502 -0.00000000000E+00 -0.00000000000E+00 -0.13226439818E+04  0.13226439818E+04  0.00000000000E+00 0. -1.
      99926    2    1    2    0    0  0.00000000000E+00  0.00000000000E+00 -0.12843038806E+04  0.13609840831E+04  0.45037897004E+03 0.  0.
      99925    2    3    3    0    0 -0.37420205860E+02  0.10894594494E+02 -0.50404076637E+03  0.56979700057E+03  0.26285464367E+03 0.  0.
         25    1    3    3    0    0  0.37420205860E+02 -0.10894594494E+02 -0.78026311423E+03  0.79118708251E+03  0.12509000000E+03 0.  0.
         25    1    4    4    0    0 -0.50968568740E+02  0.28493209179E+02 -0.28208470513E+03  0.31405245889E+03  0.12509000000E+03 0.  0.
         25    1    4    4    0    0  0.13548362879E+02 -0.17598614685E+02 -0.22195606124E+03  0.25574454167E+03  0.12509000000E+03 0.  0.
<mgrwt>
<rscale>  2 0.45037897E+03</rscale>
<asrwt>0</asrwt>
<pdfrwt beam="1">  1       21 0.56382508E-02 0.45037897E+03</pdfrwt>
<pdfrwt beam="2">  1       21 0.19450645E+00 0.45037897E+03</pdfrwt>
<totfact> 0.28396881E+04</totfact>
</mgrwt>
</event>
<event>
 7    0  0.4788920E-002  0.4518653E+03  0.7546771E-02  0.1027167E+00
         21   -1    0    0  502  501  0.00000000000E+00  0.00000000000E+00  0.15290269854E+03  0.15290269854E+03  0.00000000000E+00 0. -1.
         21   -1    0    0  501  502 -0.00000000000E+00 -0.00000000000E+00 -0.33384344135E+03  0.33384344135E+03  0.00000000000E+00 0. -1.
      99926    2    1    2    0    0  0.00000000000E+00  0.00000000000E+00 -0.18094074281E+03  0.48674613989E+03  0.45186530325E+03 0.  0.
      99925    2    3    3    0    0 -0.62876323617E+02  0.83247368728E+02 -0.76025305741E+02  0.29299807278E+03  0.26302940343E+03 0.  0.
         25    1    3    3    0    0  0.62876323617E+02 -0.83247368728E+02 -0.10491543707E+03  0.19374806711E+03  0.12509000000E+03 0.  0.
         25    1    4    4    0    0 -0.31040858183E+02 -0.81276642418E+00 -0.32166837744E+02  0.13283978702E+03  0.12509000000E+03 0.  0.
         25    1    4    4    0    0 -0.31835465434E+02  0.84060135152E+02 -0.43858467997E+02  0.16015828576E+03  0.12509000000E+03 0.  0.
<mgrwt>
<rscale>  2 0.45186530E+03</rscale>
<asrwt>0</asrwt>
<pdfrwt beam="1">  1       21 0.22485691E-01 0.45186530E+03</pdfrwt>
<pdfrwt beam="2">  1       21 0.49094623E-01 0.45186530E+03</pdfrwt>
<totfact> 0.67885907E+04</totfact>
</mgrwt>
</event>
<event>
 7    0  0.4788920E-002  0.4422515E+03  0.7546771E-02  0.1030058E+00
         21   -1    0    0  502  501  0.00000000000E+00  0.00000000000E+00  0.21800404523E+03  0.21800404523E+03  0.00000000000E+00 0. -1.
         21   -1    0    0  501  502 -0.00000000000E+00 -0.00000000000E+00 -0.22429210727E+03  0.22429210727E+03  0.00000000000E+00 0. -1.
      99926    2    1    2    0    0  0.00000000000E+00  0.00000000000E+00 -0.62880620457E+01  0.44229615250E+03  0.44225145200E+03 0.  0.
      99925    2    3    3    0    0 -0.12169048267E+02 -0.85480853306E+02  0.47885256022E+02  0.28093531925E+03  0.26301443656E+03 0.  0.
         25    1    4    4    0    0 -0.13017149686E+02 -0.80433161972E+02  0.44176920432E+02  0.15568573515E+03  0.12509000000E+03 0.  0.
         25    1    3    3    0    0  0.12169048267E+02  0.85480853306E+02 -0.54173318067E+02  0.16136083325E+03  0.12509000000E+03 0.  0.
         25    1    4    4    0    0  0.84810141876E+00 -0.50476913348E+01  0.37083355894E+01  0.12524958410E+03  0.12509000000E+03 0.  0.
<mgrwt>
<rscale>  2 0.44225145E+03</rscale>
<asrwt>0</asrwt>
<pdfrwt beam="1">  1       21 0.32059419E-01 0.44225145E+03</pdfrwt>
<pdfrwt beam="2">  1       21 0.32984133E-01 0.44225145E+03</pdfrwt>
<totfact> 0.77028894E+04</totfact>
</mgrwt>
</event>
<event>
 7    0  0.4788920E-002  0.4495961E+03  0.7546771E-02  0.1027843E+00
         21   -1    0    0  502  501  0.00000000000E+00  0.00000000000E+00  0.22048689292E+03  0.22048689292E+03  0.00000000000E+00 0. -1.
         21   -1    0    0  501  502 -0.00000000000E+00 -0.00000000000E+00 -0.22919352860E+03  0.22919352860E+03  0.00000000000E+00 0. -1.
      99926    2    1    2    0    0  0.00000000000E+00 -0.14210854715E-13 -0.87066356808E+01  0.44968042152E+03  0.44959612542E+03 0.  0.
      99925    2    3    3    0    0 -0.17629960861E+02  0.10563729456E+03  0.87049693418E+01  0.28408837578E+03  0.26298360261E+03 0.  0.
         25    1    3    3    0    0  0.17629960861E+02 -0.10563729456E+03 -0.17411605023E+02  0.16559204574E+03  0.12509000000E+03 0.  0.
         25    1    4    4    0    0 -0.22813026137E+02  0.67799490802E+02  0.40115490836E+02  0.14957929609E+03  0.12509000000E+03 0.  0.
         25    1    4    4    0    0  0.51830652761E+01  0.37837803758E+02 -0.31410521494E+02  0.13450907969E+03  0.12509000000E+03 0.  0.
<mgrwt>
<rscale>  2 0.44959613E+03</rscale>
<asrwt>0</asrwt>
<pdfrwt beam="1">  1       21 0.32424543E-01 0.44959613E+03</pdfrwt>
<pdfrwt beam="2">  1       21 0.33704931E-01 0.44959613E+03</pdfrwt>
<totfact> 0.71991638E+04</totfact>
</mgrwt>
</event>
<event>
 7    0  0.4788920E-002  0.4501929E+03  0.7546771E-02  0.1027665E+00
         21   -1    0    0  502  501  0.00000000000E+00  0.00000000000E+00  0.96234114162E+02  0.96234114162E+02  0.00000000000E+00 0.  1.
         21   -1    0    0  501  502 -0.00000000000E+00 -0.00000000000E+00 -0.52651191025E+03  0.52651191025E+03  0.00000000000E+00 0.  1.
      99926    2    1    2    0    0  0.00000000000E+00  0.00000000000E+00 -0.43027779609E+03  0.62274602441E+03  0.45019287990E+03 0.  0.
      99925    2    3    3    0    0  0.84957324814E+02 -0.23804369983E+02 -0.18424231728E+03  0.33297825532E+03  0.26295416325E+03 0.  0.
         25    1    4    4    0    0  0.45507591971E+02  0.25935932621E+02 -0.10769343168E+03  0.17317331450E+03  0.12509000000E+03 0.  0.
         25    1    3    3    0    0 -0.84957324814E+02  0.23804369983E+02 -0.24603547881E+03  0.28976776909E+03  0.12509000000E+03 0.  0.
         25    1    4    4    0    0  0.39449732844E+02 -0.49740302605E+02 -0.76548885592E+02  0.15980494082E+03  0.12509000000E+03 0.  0.
<mgrwt>
<rscale>  2 0.45019288E+03</rscale>
<asrwt>0</asrwt>
<pdfrwt beam="1">  1       21 0.14152076E-01 0.45019288E+03</pdfrwt>
<pdfrwt beam="2">  1       21 0.77428221E-01 0.45019288E+03</pdfrwt>
<totfact> 0.59526972E+04</totfact>
</mgrwt>
</event>
<event>
 7    0  0.4788920E-002  0.4606569E+03  0.7546771E-02  0.1024591E+00
         21   -1    0    0  502  501  0.00000000000E+00  0.00000000000E+00  0.58791942524E+02  0.58791942524E+02  0.00000000000E+00 0.  1.
         21   -1    0    0  501  502 -0.00000000000E+00 -0.00000000000E+00 -0.90235475222E+03  0.90235475222E+03  0.00000000000E+00 0.  1.
      99926    2    1    2    0    0  0.00000000000E+00  0.14210854715E-13 -0.84356280969E+03  0.96114669474E+03  0.46065687329E+03 0.  0.
      99925    2    3    3    0    0  0.85827871801E+01 -0.11446983239E+03 -0.46613439241E+03  0.54729077170E+03  0.26280964640E+03 0.  0.
         25    1    3    3    0    0 -0.85827871801E+01  0.11446983239E+03 -0.37742841728E+03  0.41385592304E+03  0.12509000000E+03 0.  0.
         25    1    4    4    0    0  0.25901644607E+02 -0.79740341389E+02 -0.19684275768E+03  0.24783865031E+03  0.12509000000E+03 0.  0.
         25    1    4    4    0    0 -0.17318857427E+02 -0.34729490996E+02 -0.26929163473E+03  0.29945212139E+03  0.12509000000E+03 0.  0.
<mgrwt>
<rscale>  2 0.46065687E+03</rscale>
<asrwt>0</asrwt>
<pdfrwt beam="1">  1       21 0.86458747E-02 0.46065687E+03</pdfrwt>
<pdfrwt beam="2">  1       21 0.13269922E+00 0.46065687E+03</pdfrwt>
<totfact> 0.38941592E+04</totfact>
</mgrwt>
</event>
<event>
 7    0  0.4788920E-002  0.4506419E+03  0.7546771E-02  0.1027531E+00
         21   -1    0    0  502  501  0.00000000000E+00  0.00000000000E+00  0.14576308182E+03  0.14576308182E+03  0.00000000000E+00 0. -1.
         21   -1    0    0  501  502 -0.00000000000E+00 -0.00000000000E+00 -0.34830165649E+03  0.34830165649E+03  0.00000000000E+00 0. -1.
      99926    2    1    2    0    0  0.00000000000E+00  0.00000000000E+00 -0.20253857467E+03  0.49406473830E+03  0.45064186601E+03 0.  0.
      99925    2    3    3    0    0 -0.36644155281E+02 -0.73340569108E+02 -0.48920734686E+02  0.27966422045E+03  0.26286347164E+03 0.  0.
         25    1    3    3    0    0  0.36644155281E+02  0.73340569108E+02 -0.15361783999E+03  0.21440051785E+03  0.12509000000E+03 0.  0.
         25    1    4    4    0    0 -0.33027212708E+02 -0.18941177605E+02  0.97758612328E+01  0.13112070985E+03  0.12509000000E+03 0.  0.
         25    1    4    4    0    0 -0.36169425733E+01 -0.54399391504E+02 -0.58696595919E+02  0.14854351060E+03  0.12509000000E+03 0.  0.
<mgrwt>
<rscale>  2 0.45064187E+03</rscale>
<asrwt>0</asrwt>
<pdfrwt beam="1">  1       21 0.21435748E-01 0.45064187E+03</pdfrwt>
<pdfrwt beam="2">  1       21 0.51220831E-01 0.45064187E+03</pdfrwt>
<totfact> 0.68012392E+04</totfact>
</mgrwt>
</event>
<event>
 7    0  0.4788920E-002  0.4611055E+03  0.7546771E-02  0.1024461E+00
         21   -1    0    0  502  501  0.00000000000E+00  0.00000000000E+00  0.12120533553E+03  0.12120533553E+03  0.00000000000E+00 0. -1.
         21   -1    0    0  501  502 -0.00000000000E+00 -0.00000000000E+00 -0.43854978981E+03  0.43854978981E+03  0.00000000000E+00 0. -1.
      99926    2    1    2    0    0 -0.35527136788E-14  0.71054273576E-14 -0.31734445428E+03  0.55975512535E+03  0.46110551687E+03 0.  0.
      99925    2    3    3    0    0  0.27910419690E+02 -0.32934677211E+02 -0.64250915779E+02  0.27415482454E+03  0.26300000599E+03 0.  0.
         25    1    4    4    0    0  0.63422570422E+01  0.16778260440E+02 -0.54072121757E+02  0.13745194324E+03  0.12509000000E+03 0.  0.
         25    1    3    3    0    0 -0.27910419690E+02  0.32934677211E+02 -0.25309353850E+03  0.28560030081E+03  0.12509000000E+03 0.  0.
         25    1    4    4    0    0  0.21568162648E+02 -0.49712937650E+02 -0.10178794022E+02  0.13670288131E+03  0.12509000000E+03 0.  0.
<mgrwt>
<rscale>  2 0.46110552E+03</rscale>
<asrwt>0</asrwt>
<pdfrwt beam="1">  1       21 0.17824314E-01 0.46110552E+03</pdfrwt>
<pdfrwt beam="2">  1       21 0.64492615E-01 0.46110552E+03</pdfrwt>
<totfact> 0.58356638E+04</totfact>
</mgrwt>
</event>
<event>
 7    0  0.4788920E-002  0.4559650E+03  0.7546771E-02  0.1025958E+00
         21   -1    0    0  502  501  0.00000000000E+00  0.00000000000E+00  0.32070944128E+03  0.32070944128E+03  0.00000000000E+00 0.  1.
         21   -1    0    0  501  502 -0.00000000000E+00 -0.00000000000E+00 -0.16206575741E+03  0.16206575741E+03  0.00000000000E+00 0.  1.
      99926    2    1    2    0    0  0.00000000000E+00  0.00000000000E+00  0.15864368387E+03  0.48277519869E+03  0.45596499212E+03 0.  0.
      99925    2    3    3    0    0  0.65703453903E+02  0.48825184075E+02  0.14887291784E+02  0.27537642622E+03  0.26250657555E+03 0.  0.
         25    1    3    3    0    0 -0.65703453903E+02 -0.48825184075E+02  0.14375639209E+03  0.20739877247E+03  0.12509000000E+03 0.  0.
         25    1    4    4    0    0  0.37101849108E+02 -0.14994908274E+02  0.13814221333E+02  0.13205958993E+03  0.12509000000E+03 0.  0.
         25    1    4    4    0    0  0.28601604794E+02  0.63820092349E+02  0.10730704504E+01  0.14331683629E+03  0.12509000000E+03 0.  0.
<mgrwt>
<rscale>  2 0.45596499E+03</rscale>
<asrwt>0</asrwt>
<pdfrwt beam="1">  1       21 0.47163153E-01 0.45596499E+03</pdfrwt>
<pdfrwt beam="2">  1       21 0.23833200E-01 0.45596499E+03</pdfrwt>
<totfact> 0.65991687E+04</totfact>
</mgrwt>
</event>
<event>
 7    0  0.4788920E-002  0.4603534E+03  0.7546771E-02  0.1024679E+00
         21   -1    0    0  502  501  0.00000000000E+00  0.00000000000E+00  0.27787220083E+03  0.27787220083E+03  0.00000000000E+00 0.  1.
         21   -1    0    0  501  502 -0.00000000000E+00 -0.00000000000E+00 -0.19066789152E+03  0.19066789152E+03  0.00000000000E+00 0.  1.
      99926    2    1    2    0    0  0.00000000000E+00  0.00000000000E+00  0.87204309317E+02  0.46854009235E+03  0.46035337142E+03 0.  0.
      99925    2    3    3    0    0  0.45014254720E+02 -0.34952825967E+02  0.15996346556E+03  0.31301071864E+03  0.26294375158E+03 0.  0.
         25    1    4    4    0    0  0.55078077167E+02  0.64986926555E+01  0.84475179437E+02  0.16080855584E+03  0.12509000000E+03 0.  0.
         25    1    3    3    0    0 -0.45014254720E+02  0.34952825967E+02 -0.72759156238E+02  0.15552937371E+03  0.12509000000E+03 0.  0.
         25    1    4    4    0    0 -0.10063822447E+02 -0.41451518623E+02  0.75488286118E+02  0.15220216279E+03  0.12509000000E+03 0.  0.
<mgrwt>
<rscale>  2 0.46035337E+03</rscale>
<asrwt>0</asrwt>
<pdfrwt beam="1">  1       21 0.40863559E-01 0.46035337E+03</pdfrwt>
<pdfrwt beam="2">  1       21 0.28039396E-01 0.46035337E+03</pdfrwt>
<totfact> 0.64748617E+04</totfact>
</mgrwt>
</event>
<event>
 7    0  0.4788920E-002  0.4555953E+03  0.7546771E-02  0.1026066E+00
         21   -1    0    0  502  501  0.00000000000E+00  0.00000000000E+00  0.14200990289E+03  0.14200990289E+03  0.00000000000E+00 0.  1.
         21   -1    0    0  501  502 -0.00000000000E+00 -0.00000000000E+00 -0.36540947396E+03  0.36540947396E+03  0.00000000000E+00 0.  1.
      99926    2    1    2    0    0  0.00000000000E+00 -0.14210854715E-13 -0.22339957107E+03  0.50741937685E+03  0.45559527615E+03 0.  0.
      99925    2    3    3    0    0  0.44327773184E+02 -0.10018963960E+03 -0.17488631740E+03  0.33420286713E+03  0.26287528796E+03 0.  0.
         25    1    4    4    0    0  0.46282669685E+02 -0.83022814919E+02 -0.11335949976E+03  0.19373372860E+03  0.12509000000E+03 0.  0.
         25    1    3    3    0    0 -0.44327773184E+02  0.10018963960E+03 -0.48513253670E+02  0.17321650972E+03  0.12509000000E+03 0.  0.
         25    1    4    4    0    0 -0.19548965011E+01 -0.17166824684E+02 -0.61526817640E+02  0.14046913853E+03  0.12509000000E+03 0.  0.
<mgrwt>
<rscale>  2 0.45559528E+03</rscale>
<asrwt>0</asrwt>
<pdfrwt beam="1">  1       21 0.20883809E-01 0.45559528E+03</pdfrwt>
<pdfrwt beam="2">  1       21 0.53736687E-01 0.45559528E+03</pdfrwt>
<totfact> 0.64447478E+04</totfact>
</mgrwt>
</event>
<event>
 6    0  0.4788920E-002  0.4533191E+03  0.7546771E-02  0.1026737E+00
         21   -1    0    0  502  501  0.00000000000E+00  0.00000000000E+00  0.52641357066E+02  0.52641357066E+02  0.00000000000E+00 0.  1.
         21   -1    0    0  501  502 -0.00000000000E+00 -0.00000000000E+00 -0.97593512592E+03  0.97593512592E+03  0.00000000000E+00 0.  1.
      99926    2    1    2    0    0  0.14210854715E-13  0.00000000000E+00 -0.92329376885E+03  0.10285764830E+04  0.45331909043E+03 0.  0.
         25    1    3    3    0    0 -0.47475020191E+02  0.36572653518E+02 -0.28249256373E+03  0.31470779016E+03  0.12509000000E+03 0.  0.
         25    1    3    3    0    0 -0.21741449475E+02 -0.18365966943E+01 -0.47737972017E+03  0.49397871315E+03  0.12509000000E+03 0.  0.
         25    1    3    3    0    0  0.69216469666E+02 -0.34736056824E+02 -0.16342148496E+03  0.21988997968E+03  0.12509000000E+03 0.  0.
<mgrwt>
<rscale>  2 0.45331909E+03</rscale>
<asrwt>0</asrwt>
<pdfrwt beam="1">  1       21 0.77413763E-02 0.45331909E+03</pdfrwt>
<pdfrwt beam="2">  1       21 0.14351987E+00 0.45331909E+03</pdfrwt>
<totfact> 0.38577207E+04</totfact>
</mgrwt>
</event>
<event>
 7    0  0.4788920E-002  0.4546986E+03  0.7546771E-02  0.1026330E+00
         21   -1    0    0  502  501  0.00000000000E+00  0.00000000000E+00  0.12575890184E+04  0.12575890184E+04  0.00000000000E+00 0. -1.
         21   -1    0    0  501  502 -0.00000000000E+00 -0.00000000000E+00 -0.41100624889E+02  0.41100624889E+02  0.00000000000E+00 0. -1.
      99926    2    1    2    0    0  0.00000000000E+00  0.35527136788E-14  0.12164883935E+04  0.12986896433E+04  0.45469855734E+03 0.  0.
      99925    2    3    3    0    0  0.89029030359E+02 -0.28516128796E+02  0.58495824724E+03  0.64813820674E+03  0.26299742618E+03 0.  0.
         25    1    3    3    0    0 -0.89029030359E+02  0.28516128796E+02  0.63153014631E+03  0.65055143659E+03  0.12509000000E+03 0.  0.
         25    1    4    4    0    0  0.74824027628E+02 -0.40788620804E+02  0.28769460609E+03  0.32508159156E+03  0.12509000000E+03 0.  0.
         25    1    4    4    0    0  0.14205002731E+02  0.12272492008E+02  0.29726364115E+03  0.32305661518E+03  0.12509000000E+03 0.  0.
<mgrwt>
<rscale>  2 0.45469856E+03</rscale>
<asrwt>0</asrwt>
<pdfrwt beam="1">  1       21 0.18493954E+00 0.45469856E+03</pdfrwt>
<pdfrwt beam="2">  1       21 0.60442104E-02 0.45469856E+03</pdfrwt>
<totfact> 0.29221219E+04</totfact>
</mgrwt>
</event>
<event>
 7    0  0.4788920E-002  0.4529706E+03  0.7546771E-02  0.1026840E+00
         21   -1    0    0  502  501  0.00000000000E+00  0.00000000000E+00  0.42842552075E+03  0.42842552075E+03  0.00000000000E+00 0. -1.
         21   -1    0    0  501  502 -0.00000000000E+00 -0.00000000000E+00 -0.11973044871E+03  0.11973044871E+03  0.00000000000E+00 0. -1.
      99926    2    1    2    0    0  0.00000000000E+00  0.00000000000E+00  0.30869507204E+03  0.54815596946E+03  0.45297055021E+03 0.  0.
      99925    2    3    3    0    0 -0.79550800577E+02  0.77427381363E+02  0.18602032896E+03  0.34074350613E+03  0.26301947632E+03 0.  0.
         25    1    4    4    0    0 -0.20561829884E+02  0.16224778565E+02  0.12142486723E+03  0.17628822640E+03  0.12509000000E+03 0.  0.
         25    1    3    3    0    0  0.79550800577E+02 -0.77427381363E+02  0.12267474307E+03  0.20741246333E+03  0.12509000000E+03 0.  0.
         25    1    4    4    0    0 -0.58988970693E+02  0.61202602798E+02  0.64595461736E+02  0.16445527973E+03  0.12509000000E+03 0.  0.
<mgrwt>
<rscale>  2 0.45297055E+03</rscale>
<asrwt>0</asrwt>
<pdfrwt beam="1">  1       21 0.63003753E-01 0.45297055E+03</pdfrwt>
<pdfrwt beam="2">  1       21 0.17607419E-01 0.45297055E+03</pdfrwt>
<totfact> 0.62993980E+04</totfact>
</mgrwt>
</event>
<event>
 7    0  0.4788920E-002  0.4574486E+03  0.7546771E-02  0.1025524E+00
         21   -1    0    0  502  501  0.00000000000E+00  0.00000000000E+00  0.14250613082E+03  0.14250613082E+03  0.00000000000E+00 0.  1.
         21   -1    0    0  501  502 -0.00000000000E+00 -0.00000000000E+00 -0.36710563568E+03  0.36710563568E+03  0.00000000000E+00 0.  1.
      99926    2    1    2    0    0  0.00000000000E+00  0.00000000000E+00 -0.22459950486E+03  0.50961176650E+03  0.45744859271E+03 0.  0.
      99925    2    3    3    0    0 -0.52230599192E+02  0.73270575463E+02 -0.60612324400E+02  0.28458750964E+03  0.26309614982E+03 0.  0.
         25    1    3    3    0    0  0.52230599192E+02 -0.73270575463E+02 -0.16398718046E+03  0.22502425686E+03  0.12509000000E+03 0.  0.
         25    1    4    4    0    0 -0.63322421912E+02  0.22993761055E+02 -0.41201194921E+02  0.14793068893E+03  0.12509000000E+03 0.  0.
         25    1    4    4    0    0  0.11091822721E+02  0.50276814408E+02 -0.19411129479E+02  0.13665682071E+03  0.12509000000E+03 0.  0.
<mgrwt>
<rscale>  2 0.45744859E+03</rscale>
<asrwt>0</asrwt>
<pdfrwt beam="1">  1       21 0.20956784E-01 0.45744859E+03</pdfrwt>
<pdfrwt beam="2">  1       21 0.53986122E-01 0.45744859E+03</pdfrwt>
<totfact> 0.63360239E+04</totfact>
</mgrwt>
</event>
<event>
 7    0  0.4788920E-002  0.4661725E+03  0.7546771E-02  0.1023006E+00
         21   -1    0    0  502  501  0.00000000000E+00  0.00000000000E+00  0.11726000602E+03  0.11726000602E+03  0.00000000000E+00 0.  1.
         21   -1    0    0  501  502 -0.00000000000E+00 -0.00000000000E+00 -0.46332256797E+03  0.46332256797E+03  0.00000000000E+00 0.  1.
      99926    2    1    2    0    0  0.00000000000E+00  0.14210854715E-13 -0.34606256195E+03  0.58058257399E+03  0.46617253077E+03 0.  0.
      99925    2    3    3    0    0  0.45321328044E+02  0.97817548976E+02 -0.14376083633E+03  0.31943933370E+03  0.26410606617E+03 0.  0.
         25    1    4    4    0    0  0.51876511787E+02  0.19717380716E+02 -0.81110881488E+02  0.15907995088E+03  0.12509000000E+03 0.  0.
         25    1    4    4    0    0 -0.65551837434E+01  0.78100168260E+02 -0.62649954844E+02  0.16035938282E+03  0.12509000000E+03 0.  0.
         25    1    3    3    0    0 -0.45321328044E+02 -0.97817548976E+02 -0.20230172561E+03  0.26114324029E+03  0.12509000000E+03 0.  0.
<mgrwt>
<rscale>  2 0.46617253E+03</rscale>
<asrwt>0</asrwt>
<pdfrwt beam="1">  1       21 0.17244119E-01 0.46617253E+03</pdfrwt>
<pdfrwt beam="2">  1       21 0.68135671E-01 0.46617253E+03</pdfrwt>
<totfact> 0.54879212E+04</totfact>
</mgrwt>
</event>
<event>
 7    0  0.4788920E-002  0.4362005E+03  0.7546771E-02  0.1031919E+00
         21   -1    0    0  502  501  0.00000000000E+00  0.00000000000E+00  0.98489659400E+02  0.98489659400E+02  0.00000000000E+00 0.  1.
         21   -1    0    0  501  502 -0.00000000000E+00 -0.00000000000E+00 -0.48297166297E+03  0.48297166297E+03  0.00000000000E+00 0.  1.
      99926    2    1    2    0    0  0.00000000000E+00  0.00000000000E+00 -0.38448200356E+03  0.58146132237E+03  0.43620047953E+03 0.  0.
      99925    2    3    3    0    0  0.56405237533E+02  0.66701271429E+02 -0.19852718894E+03  0.34092585385E+03  0.26303380514E+03 0.  0.
         25    1    3    3    0    0 -0.56405237533E+02 -0.66701271429E+02 -0.18595481463E+03  0.24053546852E+03  0.12509000000E+03 0.  0.
         25    1    4    4    0    0  0.80528388726E+01  0.20227083201E+02 -0.52831118212E+02  0.13752315536E+03  0.12509000000E+03 0.  0.
         25    1    4    4    0    0  0.48352398661E+02  0.46474188228E+02 -0.14569607073E+03  0.20340269849E+03  0.12509000000E+03 0.  0.
<mgrwt>
<rscale>  2 0.43620048E+03</rscale>
<asrwt>0</asrwt>
<pdfrwt beam="1">  1       21 0.14483774E-01 0.43620048E+03</pdfrwt>
<pdfrwt beam="2">  1       21 0.71025244E-01 0.43620048E+03</pdfrwt>
<totfact> 0.69617256E+04</totfact>
</mgrwt>
</event>
<event>
 7    0  0.4788920E-002  0.4584665E+03  0.7546771E-02  0.1025227E+00
         21   -1    0    0  502  501  0.00000000000E+00  0.00000000000E+00  0.49447517974E+03  0.49447517974E+03  0.00000000000E+00 0.  1.
         21   -1    0    0  501  502 -0.00000000000E+00 -0.00000000000E+00 -0.10627001312E+03  0.10627001312E+03  0.00000000000E+00 0.  1.
      99926    2    1    2    0    0 -0.14210854715E-13 -0.22204460493E-14  0.38820516662E+03  0.60074519285E+03  0.45846650406E+03 0.  0.
      99925    2    3    3    0    0 -0.11629154602E+03 -0.29674301051E+01  0.24239021986E+03  0.37615214729E+03  0.26306822292E+03 0.  0.
         25    1    4    4    0    0 -0.51320379130E+02  0.30753702626E+02  0.15001377389E+03  0.20428218718E+03  0.12509000000E+03 0.  0.
         25    1    3    3    0    0  0.11629154602E+03  0.29674301051E+01  0.14581494676E+03  0.22459304556E+03  0.12509000000E+03 0.  0.
         25    1    4    4    0    0 -0.64971166895E+02 -0.33721132731E+02  0.92376445968E+02  0.17186996012E+03  0.12509000000E+03 0.  0.
<mgrwt>
<rscale>  2 0.45846650E+03</rscale>
<asrwt>0</asrwt>
<pdfrwt beam="1">  1       21 0.72716937E-01 0.45846650E+03</pdfrwt>
<pdfrwt beam="2">  1       21 0.15627943E-01 0.45846650E+03</pdfrwt>
<totfact> 0.57053614E+04</totfact>
</mgrwt>
</event>
<event>
 7    0  0.4788920E-002  0.4537085E+03  0.7546771E-02  0.1026622E+00
         21   -1    0    0  502  501  0.00000000000E+00  0.00000000000E+00  0.94071538534E+02  0.94071538534E+02  0.00000000000E+00 0. -1.
         21   -1    0    0  501  502 -0.00000000000E+00 -0.00000000000E+00 -0.54706082902E+03  0.54706082902E+03  0.00000000000E+00 0. -1.
      99926    2    1    2    0    0  0.00000000000E+00  0.14210854715E-13 -0.45298929049E+03  0.64113236756E+03  0.45370851373E+03 0.  0.
      99925    2    3    3    0    0 -0.54088388727E+02  0.79936093768E+02 -0.36549234305E+03  0.46052628573E+03  0.26302941687E+03 0.  0.
         25    1    3    3    0    0  0.54088388727E+02 -0.79936093768E+02 -0.87496947440E+02  0.18060608183E+03  0.12509000000E+03 0.  0.
         25    1    4    4    0    0 -0.54018354792E+02  0.73706496098E+02 -0.19937376347E+03  0.25248373390E+03  0.12509000000E+03 0.  0.
         25    1    4    4    0    0 -0.70033935291E-01  0.62295976705E+01 -0.16611857958E+03  0.20804255183E+03  0.12509000000E+03 0.  0.
<mgrwt>
<rscale>  2 0.45370851E+03</rscale>
<asrwt>0</asrwt>
<pdfrwt beam="1">  1       21 0.13834051E-01 0.45370851E+03</pdfrwt>
<pdfrwt beam="2">  1       21 0.80450118E-01 0.45370851E+03</pdfrwt>
<totfact> 0.56791841E+04</totfact>
</mgrwt>
</event>
<event>
 7    0  0.4788920E-002  0.4616857E+03  0.7546771E-02  0.1024293E+00
         21   -1    0    0  502  501  0.00000000000E+00  0.00000000000E+00  0.50571342149E+02  0.50571342149E+02  0.00000000000E+00 0.  1.
         21   -1    0    0  501  502 -0.00000000000E+00 -0.00000000000E+00 -0.10537275168E+04  0.10537275168E+04  0.00000000000E+00 0.  1.
      99926    2    1    2    0    0  0.00000000000E+00  0.00000000000E+00 -0.10031561746E+04  0.11042988589E+04  0.46168567135E+03 0.  0.
      99925    2    3    3    0    0 -0.99393809827E+02 -0.55221395812E+02 -0.54067345428E+03  0.61189018038E+03  0.26297010609E+03 0.  0.
         25    1    4    4    0    0 -0.26542690259E+02 -0.20413471277E+02 -0.18039684849E+03  0.22206250305E+03  0.12509000000E+03 0.  0.
         25    1    4    4    0    0 -0.72851119568E+02 -0.34807924535E+02 -0.36027660579E+03  0.38982767733E+03  0.12509000000E+03 0.  0.
         25    1    3    3    0    0  0.99393809827E+02  0.55221395812E+02 -0.46248272035E+03  0.49240867854E+03  0.12509000000E+03 0.  0.
<mgrwt>
<rscale>  2 0.46168567E+03</rscale>
<asrwt>0</asrwt>
<pdfrwt beam="1">  1       21 0.74369626E-02 0.46168567E+03</pdfrwt>
<pdfrwt beam="2">  1       21 0.15495992E+00 0.46168567E+03</pdfrwt>
<totfact> 0.33560721E+04</totfact>
</mgrwt>
</event>
<event>
 7    0  0.4788920E-002  0.4551065E+03  0.7546771E-02  0.1026210E+00
         21   -1    0    0  502  501  0.00000000000E+00  0.00000000000E+00  0.16642753320E+02  0.16642753320E+02  0.00000000000E+00 0.  1.
         21   -1    0    0  501  502 -0.00000000000E+00 -0.00000000000E+00 -0.31112927560E+04  0.31112927560E+04  0.00000000000E+00 0.  1.
      99926    2    1    2    0    0  0.00000000000E+00  0.00000000000E+00 -0.30946500027E+04  0.31279355093E+04  0.45510648355E+03 0.  0.
      99925    2    3    3    0    0  0.10930317161E+03  0.27480789889E+02 -0.18690246625E+04  0.18907987506E+04  0.26299115797E+03 0.  0.
         25    1    4    4    0    0  0.52160406915E+02  0.30569620900E+02 -0.11820724035E+04  0.11902091770E+04  0.12509000000E+03 0.  0.
         25    1    4    4    0    0  0.57142764691E+02 -0.30888310111E+01 -0.68695225898E+03  0.70058957361E+03  0.12509000000E+03 0.  0.
         25    1    3    3    0    0 -0.10930317161E+03 -0.27480789889E+02 -0.12256253401E+04  0.12371367587E+04  0.12509000000E+03 0.  0.
<mgrwt>
<rscale>  2 0.45510648E+03</rscale>
<asrwt>0</asrwt>
<pdfrwt beam="1">  1       21 0.24474639E-02 0.45510648E+03</pdfrwt>
<pdfrwt beam="2">  1       21 0.45754302E+00 0.45510648E+03</pdfrwt>
<totfact> 0.25939695E+03</totfact>
</mgrwt>
</event>
<event>
 7    0  0.4788920E-002  0.4548272E+03  0.7546771E-02  0.1026292E+00
         21   -1    0    0  502  501  0.00000000000E+00  0.00000000000E+00  0.18835211220E+03  0.18835211220E+03  0.00000000000E+00 0. -1.
         21   -1    0    0  501  502 -0.00000000000E+00 -0.00000000000E+00 -0.27457586814E+03  0.27457586814E+03  0.00000000000E+00 0. -1.
      99926    2    1    2    0    0  0.00000000000E+00  0.00000000000E+00 -0.86223755944E+02  0.46292798034E+03  0.45482719674E+03 0.  0.
      99925    2    3    3    0    0  0.10381741146E+03  0.38518900969E+02 -0.76838455338E+02  0.29560388578E+03  0.26308886030E+03 0.  0.
         25    1    4    4    0    0  0.13920421663E+02  0.36455260515E+02 -0.28017627847E+02  0.13399723777E+03  0.12509000000E+03 0.  0.
         25    1    4    4    0    0  0.89896989794E+02  0.20636404540E+01 -0.48820827491E+02  0.16160664802E+03  0.12509000000E+03 0.  0.
         25    1    3    3    0    0 -0.10381741146E+03 -0.38518900969E+02 -0.93853006058E+01  0.16732409456E+03  0.12509000000E+03 0.  0.
<mgrwt>
<rscale>  2 0.45482720E+03</rscale>
<asrwt>0</asrwt>
<pdfrwt beam="1">  1       21 0.27698840E-01 0.45482720E+03</pdfrwt>
<pdfrwt beam="2">  1       21 0.40378804E-01 0.45482720E+03</pdfrwt>
<totfact> 0.68057697E+04</totfact>
</mgrwt>
</event>
<event>
 7    0  0.4788920E-002  0.4521258E+03  0.7546771E-02  0.1027090E+00
         21   -1    0    0  502  501  0.00000000000E+00  0.00000000000E+00  0.12954594859E+03  0.12954594859E+03  0.00000000000E+00 0.  1.
         21   -1    0    0  501  502 -0.00000000000E+00 -0.00000000000E+00 -0.39448894688E+03  0.39448894688E+03  0.00000000000E+00 0.  1.
      99926    2    1    2    0    0  0.00000000000E+00  0.00000000000E+00 -0.26494299829E+03  0.52403489548E+03  0.45212584458E+03 0.  0.
      99925    2    3    3    0    0 -0.10707316463E+03 -0.27627919778E+02 -0.16580026154E+03  0.32985777302E+03  0.26284683593E+03 0.  0.
         25    1    4    4    0    0 -0.11419748950E+02 -0.12703214380E+02 -0.85385236055E+02  0.15241367707E+03  0.12509000000E+03 0.  0.
         25    1    3    3    0    0  0.10707316463E+03  0.27627919778E+02 -0.99142736753E+02  0.19417712246E+03  0.12509000000E+03 0.  0.
         25    1    4    4    0    0 -0.95653415683E+02 -0.14924705398E+02 -0.80415025484E+02  0.17744409595E+03  0.12509000000E+03 0.  0.
<mgrwt>
<rscale>  2 0.45212584E+03</rscale>
<asrwt>0</asrwt>
<pdfrwt beam="1">  1       21 0.19050875E-01 0.45212584E+03</pdfrwt>
<pdfrwt beam="2">  1       21 0.58013081E-01 0.45212584E+03</pdfrwt>
<totfact> 0.65082350E+04</totfact>
</mgrwt>
</event>
<event>
 7    0  0.4788920E-002  0.4533505E+03  0.7546771E-02  0.1026728E+00
         21   -1    0    0  502  501  0.00000000000E+00  0.00000000000E+00  0.24929668612E+03  0.24929668612E+03  0.00000000000E+00 0. -1.
         21   -1    0    0  501  502 -0.00000000000E+00 -0.00000000000E+00 -0.20610654597E+03  0.20610654597E+03  0.00000000000E+00 0. -1.
      99926    2    1    2    0    0  0.00000000000E+00  0.44408920985E-15  0.43190140160E+02  0.45540323209E+03  0.45335054383E+03 0.  0.
      99925    2    3    3    0    0  0.31645485923E+02  0.22439206046E+01 -0.79934951503E+02  0.27703908699E+03  0.26335259120E+03 0.  0.
         25    1    4    4    0    0 -0.16476520098E+01  0.30534296455E+02 -0.15501791428E+02  0.12970301328E+03  0.12509000000E+03 0.  0.
         25    1    4    4    0    0  0.33293137933E+02 -0.28290375851E+02 -0.64433160075E+02  0.14733607371E+03  0.12509000000E+03 0.  0.
         25    1    3    3    0    0 -0.31645485923E+02 -0.22439206046E+01  0.12312509166E+03  0.17836414510E+03  0.12509000000E+03 0.  0.
<mgrwt>
<rscale>  2 0.45335054E+03</rscale>
<asrwt>0</asrwt>
<pdfrwt beam="1">  1       21 0.36661277E-01 0.45335054E+03</pdfrwt>
<pdfrwt beam="2">  1       21 0.30309786E-01 0.45335054E+03</pdfrwt>
<totfact> 0.69425442E+04</totfact>
</mgrwt>
</event>
<event>
 7    0  0.4788920E-002  0.4553097E+03  0.7546771E-02  0.1026150E+00
         21   -1    0    0  502  501  0.00000000000E+00  0.00000000000E+00  0.32249746038E+03  0.32249746038E+03  0.00000000000E+00 0. -1.
         21   -1    0    0  501  502 -0.00000000000E+00 -0.00000000000E+00 -0.16070430484E+03  0.16070430484E+03  0.00000000000E+00 0. -1.
      99926    2    1    2    0    0 -0.35527136788E-14  0.00000000000E+00  0.16179315554E+03  0.48320176523E+03  0.45530969761E+03 0.  0.
      99925    2    3    3    0    0  0.27350029690E+02  0.68359949844E+02  0.10127281038E+02  0.27327046109E+03  0.26296972491E+03 0.  0.
         25    1    4    4    0    0  0.48629345904E+02  0.56539502291E+02  0.40658576270E+01  0.14568997186E+03  0.12509000000E+03 0.  0.
         25    1    3    3    0    0 -0.27350029690E+02 -0.68359949844E+02  0.15166587450E+03  0.20993130414E+03  0.12509000000E+03 0.  0.
         25    1    4    4    0    0 -0.21279316214E+02  0.11820447552E+02  0.60614234110E+01  0.12758048923E+03  0.12509000000E+03 0.  0.
<mgrwt>
<rscale>  2 0.45530970E+03</rscale>
<asrwt>0</asrwt>
<pdfrwt beam="1">  1       21 0.47426097E-01 0.45530970E+03</pdfrwt>
<pdfrwt beam="2">  1       21 0.23632986E-01 0.45530970E+03</pdfrwt>
<totfact> 0.66304613E+04</totfact>
</mgrwt>
</event>
<event>
 7    0  0.4788920E-002  0.4460672E+03  0.7546771E-02  0.1028901E+00
         21   -1    0    0  502  501  0.00000000000E+00  0.00000000000E+00  0.47960663172E+02  0.47960663172E+02  0.00000000000E+00 0. -1.
         21   -1    0    0  501  502 -0.00000000000E+00 -0.00000000000E+00 -0.10371829725E+04  0.10371829725E+04  0.00000000000E+00 0. -1.
      99926    2    1    2    0    0  0.35527136788E-14  0.00000000000E+00 -0.98922230936E+03  0.10851436357E+04  0.44606718415E+03 0.  0.
      99925    2    3    3    0    0  0.45401276804E+01 -0.76980882167E+02 -0.79944206413E+03  0.84512130642E+03  0.26301281276E+03 0.  0.
         25    1    3    3    0    0 -0.45401276804E+01  0.76980882167E+02 -0.18978024523E+03  0.24002232929E+03  0.12509000000E+03 0.  0.
         25    1    4    4    0    0 -0.30205747003E+02 -0.16122243362E+02 -0.34361453203E+03  0.36727478624E+03  0.12509000000E+03 0.  0.
         25    1    4    4    0    0  0.34745874684E+02 -0.60858638804E+02 -0.45582753210E+03  0.47784652018E+03  0.12509000000E+03 0.  0.
<mgrwt>
<rscale>  2 0.44606718E+03</rscale>
<asrwt>0</asrwt>
<pdfrwt beam="1">  1       21 0.70530393E-02 0.44606718E+03</pdfrwt>
<pdfrwt beam="2">  1       21 0.15252689E+00 0.44606718E+03</pdfrwt>
<totfact> 0.38637087E+04</totfact>
</mgrwt>
</event>
<event>
 7    0  0.4788920E-002  0.4597077E+03  0.7546771E-02  0.1024866E+00
         21   -1    0    0  502  501  0.00000000000E+00  0.00000000000E+00  0.13903370044E+03  0.13903370044E+03  0.00000000000E+00 0. -1.
         21   -1    0    0  501  502 -0.00000000000E+00 -0.00000000000E+00 -0.37999988232E+03  0.37999988232E+03  0.00000000000E+00 0. -1.
      99926    2    1    2    0    0 -0.71054273576E-14  0.00000000000E+00 -0.24096618188E+03  0.51903358276E+03  0.45970768889E+03 0.  0.
      99925    2    3    3    0    0 -0.45588081737E+02 -0.57289058602E+02 -0.25476062956E+03  0.37343789492E+03  0.26304481283E+03 0.  0.
         25    1    4    4    0    0 -0.30550574436E+00  0.68573346775E+01 -0.12126048842E+03  0.17435231723E+03  0.12509000000E+03 0.  0.
         25    1    3    3    0    0  0.45588081737E+02  0.57289058602E+02  0.13794447679E+02  0.14559568784E+03  0.12509000000E+03 0.  0.
         25    1    4    4    0    0 -0.45282575993E+02 -0.64146393279E+02 -0.13350014114E+03  0.19908557769E+03  0.12509000000E+03 0.  0.
<mgrwt>
<rscale>  2 0.45970769E+03</rscale>
<asrwt>0</asrwt>
<pdfrwt beam="1">  1       21 0.20446132E-01 0.45970769E+03</pdfrwt>
<pdfrwt beam="2">  1       21 0.55882335E-01 0.45970769E+03</pdfrwt>
<totfact> 0.61619052E+04</totfact>
</mgrwt>
</event>
<event>
 7    0  0.4788920E-002  0.4536424E+03  0.7546771E-02  0.1026641E+00
         21   -1    0    0  502  501  0.00000000000E+00  0.00000000000E+00  0.51843317601E+03  0.51843317601E+03  0.00000000000E+00 0. -1.
         21   -1    0    0  501  502 -0.00000000000E+00 -0.00000000000E+00 -0.99237210136E+02  0.99237210136E+02  0.00000000000E+00 0. -1.
      99926    2    1    2    0    0  0.00000000000E+00  0.35527136788E-14  0.41919596588E+03  0.61767038615E+03  0.45364242319E+03 0.  0.
      99925    2    3    3    0    0 -0.10466600472E+03 -0.78087560819E+01  0.31630176007E+03  0.42466604707E+03  0.26320809048E+03 0.  0.
         25    1    3    3    0    0  0.10466600472E+03  0.78087560819E+01  0.10289420580E+03  0.19300433908E+03  0.12509000000E+03 0.  0.
         25    1    4    4    0    0 -0.46163070624E+02 -0.31611181512E+02  0.11228855497E+03  0.17716242142E+03  0.12509000000E+03 0.  0.
         25    1    4    4    0    0 -0.58502934093E+02  0.23802425430E+02  0.20401320511E+03  0.24750362565E+03  0.12509000000E+03 0.  0.
<mgrwt>
<rscale>  2 0.45364242E+03</rscale>
<asrwt>0</asrwt>
<pdfrwt beam="1">  1       21 0.76240171E-01 0.45364242E+03</pdfrwt>
<pdfrwt beam="2">  1       21 0.14593708E-01 0.45364242E+03</pdfrwt>
<totfact> 0.58225301E+04</totfact>
</mgrwt>
</event>
<event>
 7    0  0.4788920E-002  0.4915123E+03  0.7546771E-02  0.1016018E+00
         21   -1    0    0  502  501  0.00000000000E+00  0.00000000000E+00  0.19945880952E+04  0.19945880952E+04  0.00000000000E+00 0.  1.
         21   -1    0    0  501  502 -0.00000000000E+00 -0.00000000000E+00 -0.30279974844E+02  0.30279974844E+02  0.00000000000E+00 0.  1.
      99926    2    1    2    0    0 -0.71054273576E-14  0.26645352591E-14  0.19643081203E+04  0.20248680700E+04  0.49151226779E+03 0.  0.
      99925    2    3    3    0    0 -0.58372241205E+02  0.21470169420E+01  0.65498907644E+03  0.70829076693E+03  0.26316001222E+03 0.  0.
         25    1    4    4    0    0 -0.33705645051E+02  0.41483929496E+02  0.32080461875E+03  0.34845386844E+03  0.12509000000E+03 0.  0.
         25    1    3    3    0    0  0.58372241205E+02 -0.21470169420E+01  0.13093190439E+04  0.13165773031E+04  0.12509000000E+03 0.  0.
         25    1    4    4    0    0 -0.24666596154E+02 -0.39336912554E+02  0.33418445769E+03  0.35983689849E+03  0.12509000000E+03 0.  0.
<mgrwt>
<rscale>  2 0.49151227E+03</rscale>
<asrwt>0</asrwt>
<pdfrwt beam="1">  1       21 0.29332169E+00 0.49151227E+03</pdfrwt>
<pdfrwt beam="2">  1       21 0.44529388E-02 0.49151227E+03</pdfrwt>
<totfact> 0.10120681E+04</totfact>
</mgrwt>
</event>
<event>
 7    0  0.4788920E-002  0.4625248E+03  0.7546771E-02  0.1024052E+00
         21   -1    0    0  502  501  0.00000000000E+00  0.00000000000E+00  0.23359562481E+03  0.23359562481E+03  0.00000000000E+00 0. -1.
         21   -1    0    0  501  502 -0.00000000000E+00 -0.00000000000E+00 -0.22895245288E+03  0.22895245288E+03  0.00000000000E+00 0. -1.
      99926    2    1    2    0    0 -0.14210854715E-13  0.26645352591E-14  0.46431719269E+01  0.46254807769E+03  0.46252477245E+03 0.  0.
      99925    2    3    3    0    0 -0.11973246350E+03  0.76014004958E+01  0.86943695062E+01  0.28917690244E+03  0.26297156641E+03 0.  0.
         25    1    4    4    0    0 -0.50229983901E+02 -0.25617416874E+02 -0.22368064914E+02  0.13902209090E+03  0.12509000000E+03 0.  0.
         25    1    4    4    0    0 -0.69502479598E+02  0.33218817370E+02  0.31062434420E+02  0.15015481154E+03  0.12509000000E+03 0.  0.
         25    1    3    3    0    0  0.11973246350E+03 -0.76014004958E+01 -0.40511975793E+01  0.17337117525E+03  0.12509000000E+03 0.  0.
<mgrwt>
<rscale>  2 0.46252477E+03</rscale>
<asrwt>0</asrwt>
<pdfrwt beam="1">  1       21 0.34352298E-01 0.46252477E+03</pdfrwt>
<pdfrwt beam="2">  1       21 0.33669478E-01 0.46252477E+03</pdfrwt>
<totfact> 0.64062742E+04</totfact>
</mgrwt>
</event>
<event>
 7    0  0.4788920E-002  0.4564354E+03  0.7546771E-02  0.1025820E+00
         21   -1    0    0  502  501  0.00000000000E+00  0.00000000000E+00  0.25535304742E+03  0.25535304742E+03  0.00000000000E+00 0.  1.
         21   -1    0    0  501  502 -0.00000000000E+00 -0.00000000000E+00 -0.20396595629E+03  0.20396595629E+03  0.00000000000E+00 0.  1.
      99926    2    1    2    0    0  0.00000000000E+00  0.00000000000E+00  0.51387091129E+02  0.45931900371E+03  0.45643544345E+03 0.  0.
      99925    2    3    3    0    0 -0.81003633230E+02  0.16750538725E+02  0.11194772275E+03  0.29758691862E+03  0.26302758859E+03 0.  0.
         25    1    4    4    0    0 -0.26889608891E+02  0.48963791069E+01  0.95626327337E+02  0.15980903659E+03  0.12509000000E+03 0.  0.
         25    1    3    3    0    0  0.81003633230E+02 -0.16750538725E+02 -0.60560631626E+02  0.16173208509E+03  0.12509000000E+03 0.  0.
         25    1    4    4    0    0 -0.54114024338E+02  0.11854159618E+02  0.16321395418E+02  0.13777788204E+03  0.12509000000E+03 0.  0.
<mgrwt>
<rscale>  2 0.45643544E+03</rscale>
<asrwt>0</asrwt>
<pdfrwt beam="1">  1       21 0.37551919E-01 0.45643544E+03</pdfrwt>
<pdfrwt beam="2">  1       21 0.29994993E-01 0.45643544E+03</pdfrwt>
<totfact> 0.67454619E+04</totfact>
</mgrwt>
</event>
<event>
 7    0  0.4788920E-002  0.4499299E+03  0.7546771E-02  0.1027743E+00
         21   -1    0    0  502  501  0.00000000000E+00  0.00000000000E+00  0.62626947607E+03  0.62626947607E+03  0.00000000000E+00 0.  1.
         21   -1    0    0  501  502 -0.00000000000E+00 -0.00000000000E+00 -0.80810629426E+02  0.80810629426E+02  0.00000000000E+00 0.  1.
      99926    2    1    2    0    0  0.71054273576E-14 -0.14210854715E-13  0.54545884665E+03  0.70708010550E+03  0.44992990810E+03 0.  0.
      99925    2    3    3    0    0 -0.56809541674E+02  0.91337555057E+02  0.32483365034E+03  0.43159352082E+03  0.26303268587E+03 0.  0.
         25    1    4    4    0    0 -0.20432117796E+02  0.87184186442E+02  0.17594582954E+03  0.23371563241E+03  0.12509000000E+03 0.  0.
         25    1    4    4    0    0 -0.36377423878E+02  0.41533686155E+01  0.14888782080E+03  0.19787788841E+03  0.12509000000E+03 0.  0.
         25    1    3    3    0    0  0.56809541674E+02 -0.91337555057E+02  0.22062519631E+03  0.27548658467E+03  0.12509000000E+03 0.  0.
<mgrwt>
<rscale>  2 0.44992991E+03</rscale>
<asrwt>0</asrwt>
<pdfrwt beam="1">  1       21 0.92098450E-01 0.44992991E+03</pdfrwt>
<pdfrwt beam="2">  1       21 0.11883916E-01 0.44992991E+03</pdfrwt>
<totfact> 0.54668687E+04</totfact>
</mgrwt>
</event>
<event>
 7    0  0.4788920E-002  0.4565779E+03  0.7546771E-02  0.1025778E+00
         21   -1    0    0  502  501  0.00000000000E+00  0.00000000000E+00  0.79034850091E+03  0.79034850091E+03  0.00000000000E+00 0. -1.
         21   -1    0    0  501  502 -0.00000000000E+00 -0.00000000000E+00 -0.65940326599E+02  0.65940326599E+02  0.00000000000E+00 0. -1.
      99926    2    1    2    0    0  0.35527136788E-14  0.35527136788E-14  0.72440817431E+03  0.85628882751E+03  0.45657787190E+03 0.  0.
      99925    2    3    3    0    0  0.18214203659E+02  0.14460655102E+02  0.66578287966E+03  0.71619849582E+03  0.26293074144E+03 0.  0.
         25    1    4    4    0    0  0.32251141419E+01 -0.19900954893E+02  0.40808134461E+03  0.42729888987E+03  0.12509000000E+03 0.  0.
         25    1    4    4    0    0  0.14989089517E+02  0.34361609995E+02  0.25770153505E+03  0.28889960594E+03  0.12509000000E+03 0.  0.
         25    1    3    3    0    0 -0.18214203659E+02 -0.14460655102E+02  0.58625294646E+02  0.14009033169E+03  0.12509000000E+03 0.  0.
<mgrwt>
<rscale>  2 0.45657787E+03</rscale>
<asrwt>0</asrwt>
<pdfrwt beam="1">  1       21 0.11622772E+00 0.45657787E+03</pdfrwt>
<pdfrwt beam="2">  1       21 0.96971073E-02 0.45657787E+03</pdfrwt>
<totfact> 0.44604713E+04</totfact>
</mgrwt>
</event>
<event>
 7    0  0.4788920E-002  0.4376838E+03  0.7546771E-02  0.1031460E+00
         21   -1    0    0  502  501  0.00000000000E+00  0.00000000000E+00  0.13017451052E+03  0.13017451052E+03  0.00000000000E+00 0. -1.
         21   -1    0    0  501  502 -0.00000000000E+00 -0.00000000000E+00 -0.36790439475E+03  0.36790439475E+03  0.00000000000E+00 0. -1.
      99926    2    1    2    0    0 -0.35527136788E-14  0.00000000000E+00 -0.23772988423E+03  0.49807890526E+03  0.43768378769E+03 0.  0.
      99925    2    3    3    0    0 -0.17452369743E+02 -0.94221708250E+02 -0.15939968187E+03  0.32210889584E+03  0.26298967030E+03 0.  0.
         25    1    4    4    0    0  0.31377443665E+02 -0.39578474227E+02 -0.79047844943E+02  0.15635558667E+03  0.12509000000E+03 0.  0.
         25    1    4    4    0    0 -0.48829813408E+02 -0.54643234023E+02 -0.80351836929E+02  0.16575330917E+03  0.12509000000E+03 0.  0.
         25    1    3    3    0    0  0.17452369743E+02  0.94221708250E+02 -0.78330202360E+02  0.17597000942E+03  0.12509000000E+03 0.  0.
<mgrwt>
<rscale>  2 0.43768379E+03</rscale>
<asrwt>0</asrwt>
<pdfrwt beam="1">  1       21 0.19143311E-01 0.43768379E+03</pdfrwt>
<pdfrwt beam="2">  1       21 0.54103587E-01 0.43768379E+03</pdfrwt>
<totfact> 0.75224546E+04</totfact>
</mgrwt>
</event>
<event>
 7    0  0.4788920E-002  0.4554163E+03  0.7546771E-02  0.1026119E+00
         21   -1    0    0  502  501  0.00000000000E+00  0.00000000000E+00  0.81588821848E+03  0.81588821848E+03  0.00000000000E+00 0.  1.
         21   -1    0    0  501  502 -0.00000000000E+00 -0.00000000000E+00 -0.63551594073E+02  0.63551594073E+02  0.00000000000E+00 0.  1.
      99926    2    1    2    0    0  0.17763568394E-14  0.00000000000E+00  0.75233662441E+03  0.87943981256E+03  0.45541627933E+03 0.  0.
      99925    2    3    3    0    0  0.50014956582E+01  0.21406457678E+02  0.25826905676E+03  0.36930892652E+03  0.26306449045E+03 0.  0.
         25    1    4    4    0    0 -0.89908678438E+01  0.33766728935E+02  0.86689081411E+02  0.15615227383E+03  0.12509000000E+03 0.  0.
         25    1    4    4    0    0  0.13992363502E+02 -0.12360271257E+02  0.17157997535E+03  0.21315665268E+03  0.12509000000E+03 0.  0.
         25    1    3    3    0    0 -0.50014956582E+01 -0.21406457678E+02  0.49406756765E+03  0.51013088604E+03  0.12509000000E+03 0.  0.
<mgrwt>
<rscale>  2 0.45541628E+03</rscale>
<asrwt>0</asrwt>
<pdfrwt beam="1">  1       21 0.11998356E+00 0.45541628E+03</pdfrwt>
<pdfrwt beam="2">  1       21 0.93458231E-02 0.45541628E+03</pdfrwt>
<totfact> 0.43991012E+04</totfact>
</mgrwt>
</event>
<event>
 7    0  0.4788920E-002  0.4456632E+03  0.7546771E-02  0.1029023E+00
         21   -1    0    0  502  501  0.00000000000E+00  0.00000000000E+00  0.16541280555E+03  0.16541280555E+03  0.00000000000E+00 0. -1.
         21   -1    0    0  501  502 -0.00000000000E+00 -0.00000000000E+00 -0.30018182723E+03  0.30018182723E+03  0.00000000000E+00 0. -1.
      99926    2    1    2    0    0  0.00000000000E+00  0.00000000000E+00 -0.13476902168E+03  0.46559463278E+03  0.44566318321E+03 0.  0.
      99925    2    3    3    0    0  0.33265909916E+02 -0.81887601773E+02 -0.27883322292E+02  0.27882134529E+03  0.26296703755E+03 0.  0.
         25    1    4    4    0    0  0.26863858709E+02 -0.46684920227E+02  0.24836154289E+02  0.13843948621E+03  0.12509000000E+03 0.  0.
         25    1    3    3    0    0 -0.33265909916E+02  0.81887601773E+02 -0.10688569939E+03  0.18677328749E+03  0.12509000000E+03 0.  0.
         25    1    4    4    0    0  0.64020512067E+01 -0.35202681546E+02 -0.52719476581E+02  0.14038185908E+03  0.12509000000E+03 0.  0.
<mgrwt>
<rscale>  2 0.44566318E+03</rscale>
<asrwt>0</asrwt>
<pdfrwt beam="1">  1       21 0.24325413E-01 0.44566318E+03</pdfrwt>
<pdfrwt beam="2">  1       21 0.44144385E-01 0.44566318E+03</pdfrwt>
<totfact> 0.73026296E+04</totfact>
</mgrwt>
</event>
<event>
 7    0  0.4788920E-002  0.4523191E+03  0.7546771E-02  0.1027033E+00
         21   -1    0    0  502  501  0.00000000000E+00  0.00000000000E+00  0.62146364682E+03  0.62146364682E+03  0.00000000000E+00 0.  1.
         21   -1    0    0  501  502 -0.00000000000E+00 -0.00000000000E+00 -0.82302719084E+02  0.82302719084E+02  0.00000000000E+00 0.  1.
      99926    2    1    2    0    0  0.00000000000E+00  0.00000000000E+00  0.53916092774E+03  0.70376636591E+03  0.45231912604E+03 0.  0.
      99925    2    3    3    0    0 -0.87968980489E+02 -0.34454729402E+02  0.25043070925E+03  0.37522669239E+03  0.26297121637E+03 0.  0.
         25    1    3    3    0    0  0.87968980489E+02  0.34454729402E+02  0.28873021849E+03  0.32853967351E+03  0.12509000000E+03 0.  0.
         25    1    4    4    0    0 -0.55410062654E+02 -0.56695346388E+02  0.12617784746E+03  0.19455846071E+03  0.12509000000E+03 0.  0.
         25    1    4    4    0    0 -0.32558917835E+02  0.22240616985E+02  0.12425286180E+03  0.18066823168E+03  0.12509000000E+03 0.  0.
<mgrwt>
<rscale>  2 0.45231913E+03</rscale>
<asrwt>0</asrwt>
<pdfrwt beam="1">  1       21 0.91391710E-01 0.45231913E+03</pdfrwt>
<pdfrwt beam="2">  1       21 0.12103341E-01 0.45231913E+03</pdfrwt>
<totfact> 0.53825468E+04</totfact>
</mgrwt>
</event>
<event>
 7    0  0.4788920E-002  0.4535286E+03  0.7546771E-02  0.1026675E+00
         21   -1    0    0  502  501  0.00000000000E+00  0.00000000000E+00  0.11700137479E+04  0.11700137479E+04  0.00000000000E+00 0. -1.
         21   -1    0    0  501  502 -0.00000000000E+00 -0.00000000000E+00 -0.43949956356E+02  0.43949956356E+02  0.00000000000E+00 0. -1.
      99926    2    1    2    0    0  0.00000000000E+00  0.00000000000E+00  0.11260637916E+04  0.12139637043E+04  0.45352862383E+03 0.  0.
      99925    2    3    3    0    0  0.45307731804E+02  0.99928178029E+02  0.65141126269E+03  0.71099157524E+03  0.26293336717E+03 0.  0.
         25    1    3    3    0    0 -0.45307731804E+02 -0.99928178029E+02  0.47465252889E+03  0.50297212905E+03  0.12509000000E+03 0.  0.
         25    1    4    4    0    0  0.27571720439E+02  0.79277283578E+02  0.27718541022E+03  0.31547479645E+03  0.12509000000E+03 0.  0.
         25    1    4    4    0    0  0.17736011365E+02  0.20650894451E+02  0.37422585247E+03  0.39551677878E+03  0.12509000000E+03 0.  0.
<mgrwt>
<rscale>  2 0.45352862E+03</rscale>
<asrwt>0</asrwt>
<pdfrwt beam="1">  1       21 0.17206082E+00 0.45352862E+03</pdfrwt>
<pdfrwt beam="2">  1       21 0.64632297E-02 0.45352862E+03</pdfrwt>
<totfact> 0.32082591E+04</totfact>
</mgrwt>
</event>
<event>
 7    0  0.4788920E-002  0.4584152E+03  0.7546771E-02  0.1025242E+00
         21   -1    0    0  502  501  0.00000000000E+00  0.00000000000E+00  0.30363513817E+03  0.30363513817E+03  0.00000000000E+00 0. -1.
         21   -1    0    0  501  502 -0.00000000000E+00 -0.00000000000E+00 -0.17302383392E+03  0.17302383392E+03  0.00000000000E+00 0. -1.
      99926    2    1    2    0    0  0.00000000000E+00  0.00000000000E+00  0.13061130424E+03  0.47665897209E+03  0.45841516432E+03 0.  0.
      99925    2    3    3    0    0 -0.20613679961E+02 -0.51740809699E+02 -0.24659940033E+02  0.26963553721E+03  0.26266551943E+03 0.  0.
         25    1    4    4    0    0 -0.26423936821E+02  0.10645509232E+02 -0.18246548977E+02  0.12958393401E+03  0.12509000000E+03 0.  0.
         25    1    4    4    0    0  0.58102568606E+01 -0.62386318931E+02 -0.64133910559E+01  0.14005160320E+03  0.12509000000E+03 0.  0.
         25    1    3    3    0    0  0.20613679961E+02  0.51740809699E+02  0.15527124427E+03  0.20702343488E+03  0.12509000000E+03 0.  0.
<mgrwt>
<rscale>  2 0.45841516E+03</rscale>
<asrwt>0</asrwt>
<pdfrwt beam="1">  1       21 0.44652226E-01 0.45841516E+03</pdfrwt>
<pdfrwt beam="2">  1       21 0.25444681E-01 0.45841516E+03</pdfrwt>
<totfact> 0.65160196E+04</totfact>
</mgrwt>
</event>
<event>
 7    0  0.4788920E-002  0.4514253E+03  0.7546771E-02  0.1027298E+00
         21   -1    0    0  502  501  0.00000000000E+00  0.00000000000E+00  0.48266822452E+03  0.48266822452E+03  0.00000000000E+00 0.  1.
         21   -1    0    0  501  502 -0.00000000000E+00 -0.00000000000E+00 -0.10555120101E+03  0.10555120101E+03  0.00000000000E+00 0.  1.
      99926    2    1    2    0    0  0.00000000000E+00  0.14210854715E-13  0.37711702351E+03  0.58821942553E+03  0.45142534616E+03 0.  0.
      99925    2    3    3    0    0 -0.59319024744E+01 -0.10247745657E+03  0.28844011247E+03  0.40369864290E+03  0.26313129655E+03 0.  0.
         25    1    3    3    0    0  0.59319024744E+01  0.10247745657E+03  0.88676911036E+02  0.18452078263E+03  0.12509000000E+03 0.  0.
         25    1    4    4    0    0  0.93070923596E-01 -0.35695854046E+02  0.19270146493E+03  0.23249852762E+03  0.12509000000E+03 0.  0.
         25    1    4    4    0    0 -0.60249733980E+01 -0.66781602521E+02  0.95738647541E+02  0.17120011528E+03  0.12509000000E+03 0.  0.
<mgrwt>
<rscale>  2 0.45142535E+03</rscale>
<asrwt>0</asrwt>
<pdfrwt beam="1">  1       21 0.70980621E-01 0.45142535E+03</pdfrwt>
<pdfrwt beam="2">  1       21 0.15522236E-01 0.45142535E+03</pdfrwt>
<totfact> 0.61117881E+04</totfact>
</mgrwt>
</event>
<event>
 7    0  0.4788920E-002  0.4510011E+03  0.7546771E-02  0.1027424E+00
         21   -1    0    0  502  501  0.00000000000E+00  0.00000000000E+00  0.86624033201E+02  0.86624033201E+02  0.00000000000E+00 0.  1.
         21   -1    0    0  501  502 -0.00000000000E+00 -0.00000000000E+00 -0.58702534756E+03  0.58702534756E+03  0.00000000000E+00 0.  1.
      99926    2    1    2    0    0 -0.71054273576E-14  0.00000000000E+00 -0.50040131436E+03  0.67364938076E+03  0.45100112282E+03 0.  0.
      99925    2    3    3    0    0  0.61850405160E+02  0.86249184136E+02 -0.28654295858E+03  0.40411775215E+03  0.26446152104E+03 0.  0.
         25    1    4    4    0    0  0.56464323231E+02  0.12173104428E+02 -0.16147984688E+03  0.21227259201E+03  0.12509000000E+03 0.  0.
         25    1    4    4    0    0  0.53860819290E+01  0.74076079708E+02 -0.12506311170E+03  0.19184516015E+03  0.12509000000E+03 0.  0.
         25    1    3    3    0    0 -0.61850405160E+02 -0.86249184136E+02 -0.21385835578E+03  0.26953162861E+03  0.12509000000E+03 0.  0.
<mgrwt>
<rscale>  2 0.45100112E+03</rscale>
<asrwt>0</asrwt>
<pdfrwt beam="1">  1       21 0.12738828E-01 0.45100112E+03</pdfrwt>
<pdfrwt beam="2">  1       21 0.86327262E-01 0.45100112E+03</pdfrwt>
<totfact> 0.56104010E+04</totfact>
</mgrwt>
</event>
<event>
 7    0  0.4788920E-002  0.4549446E+03  0.7546771E-02  0.1026258E+00
         21   -1    0    0  502  501  0.00000000000E+00  0.00000000000E+00  0.13538818534E+04  0.13538818534E+04  0.00000000000E+00 0. -1.
         21   -1    0    0  501  502 -0.00000000000E+00 -0.00000000000E+00 -0.38218736730E+02  0.38218736730E+02  0.00000000000E+00 0. -1.
      99926    2    1    2    0    0  0.00000000000E+00 -0.14210854715E-13  0.13156631167E+04  0.13921005901E+04  0.45494463012E+03 0.  0.
      99925    2    3    3    0    0 -0.65866652828E+02 -0.70485686163E+02  0.64722673901E+03  0.70525173704E+03  0.26300363687E+03 0.  0.
         25    1    3    3    0    0  0.65866652828E+02  0.70485686163E+02  0.66843637768E+03  0.68684885311E+03  0.12509000000E+03 0.  0.
         25    1    4    4    0    0 -0.16334568048E+02  0.42709408060E+01  0.29213461064E+03  0.31823764372E+03  0.12509000000E+03 0.  0.
         25    1    4    4    0    0 -0.49532084779E+02 -0.74756626969E+02  0.35509212837E+03  0.38701409332E+03  0.12509000000E+03 0.  0.
<mgrwt>
<rscale>  2 0.45494463E+03</rscale>
<asrwt>0</asrwt>
<pdfrwt beam="1">  1       21 0.19910024E+00 0.45494463E+03</pdfrwt>
<pdfrwt beam="2">  1       21 0.56204034E-02 0.45494463E+03</pdfrwt>
<totfact> 0.26554696E+04</totfact>
</mgrwt>
</event>
<event>
 7    0  0.4788920E-002  0.4500699E+03  0.7546771E-02  0.1027701E+00
         21   -1    0    0  502  501  0.00000000000E+00  0.00000000000E+00  0.10807467376E+03  0.10807467376E+03  0.00000000000E+00 0. -1.
         21   -1    0    0  501  502 -0.00000000000E+00 -0.00000000000E+00 -0.46857155208E+03  0.46857155208E+03  0.00000000000E+00 0. -1.
      99926    2    1    2    0    0  0.00000000000E+00 -0.71054273576E-14 -0.36049687832E+03  0.57664622585E+03  0.45006985069E+03 0.  0.
      99925    2    3    3    0    0 -0.81216114360E+02  0.50570668016E+02 -0.29335454680E+03  0.40544736347E+03  0.26301563589E+03 0.  0.
         25    1    3    3    0    0  0.81216114360E+02 -0.50570668016E+02 -0.67142331525E+02  0.17119886237E+03  0.12509000000E+03 0.  0.
         25    1    4    4    0    0 -0.68090125377E+02  0.56438486000E+02 -0.17585712532E+03  0.23322693777E+03  0.12509000000E+03 0.  0.
         25    1    4    4    0    0 -0.13125988983E+02 -0.58678179847E+01 -0.11749742147E+03  0.17222042570E+03  0.12509000000E+03 0.  0.
<mgrwt>
<rscale>  2 0.45006985E+03</rscale>
<asrwt>0</asrwt>
<pdfrwt beam="1">  1       21 0.15893334E-01 0.45006985E+03</pdfrwt>
<pdfrwt beam="2">  1       21 0.68907581E-01 0.45006985E+03</pdfrwt>
<totfact> 0.62541694E+04</totfact>
</mgrwt>
</event>
<event>
 7    0  0.4788920E-002  0.4548380E+03  0.7546771E-02  0.1026289E+00
         21   -1    0    0  502  501  0.00000000000E+00  0.00000000000E+00  0.12254322752E+03  0.12254322752E+03  0.00000000000E+00 0.  1.
         21   -1    0    0  501  502 -0.00000000000E+00 -0.00000000000E+00 -0.42205030488E+03  0.42205030488E+03  0.00000000000E+00 0.  1.
      99926    2    1    2    0    0  0.00000000000E+00  0.00000000000E+00 -0.29950707736E+03  0.54459353240E+03  0.45483802188E+03 0.  0.
      99925    2    3    3    0    0 -0.18430749917E+02  0.71983366919E+02 -0.86542540481E+02  0.28667358412E+03  0.26300348831E+03 0.  0.
         25    1    3    3    0    0  0.18430749917E+02 -0.71983366919E+02 -0.21296453688E+03  0.25791994828E+03  0.12509000000E+03 0.  0.
         25    1    4    4    0    0 -0.20415183754E+01  0.43793456664E+02 -0.84869746479E+02  0.15739255577E+03  0.12509000000E+03 0.  0.
         25    1    4    4    0    0 -0.16389231541E+02  0.28189910255E+02 -0.16727940021E+01  0.12928102835E+03  0.12509000000E+03 0.  0.
<mgrwt>
<rscale>  2 0.45483802E+03</rscale>
<asrwt>0</asrwt>
<pdfrwt beam="1">  1       21 0.18021063E-01 0.45483802E+03</pdfrwt>
<pdfrwt beam="2">  1       21 0.62066221E-01 0.45483802E+03</pdfrwt>
<totfact> 0.62305016E+04</totfact>
</mgrwt>
</event>
<event>
 7    0  0.4788920E-002  0.4490434E+03  0.7546771E-02  0.1028008E+00
         21   -1    0    0  502  501  0.00000000000E+00  0.00000000000E+00  0.59658582117E+02  0.59658582117E+02  0.00000000000E+00 0. -1.
         21   -1    0    0  501  502 -0.00000000000E+00 -0.00000000000E+00 -0.84497484392E+03  0.84497484392E+03  0.00000000000E+00 0. -1.
      99926    2    1    2    0    0  0.00000000000E+00  0.00000000000E+00 -0.78531626180E+03  0.90463342603E+03  0.44904343270E+03 0.  0.
      99925    2    3    3    0    0  0.15568710273E+02  0.66219583354E+02 -0.32946525879E+03  0.42706137597E+03  0.26307155706E+03 0.  0.
         25    1    4    4    0    0  0.44706222764E+02  0.15937564027E+02 -0.16312045056E+03  0.21097023911E+03  0.12509000000E+03 0.  0.
         25    1    4    4    0    0 -0.29137512491E+02  0.50282019327E+02 -0.16634480823E+03  0.21609113685E+03  0.12509000000E+03 0.  0.
         25    1    3    3    0    0 -0.15568710273E+02 -0.66219583354E+02 -0.45585100301E+03  0.47757205007E+03  0.12509000000E+03 0.  0.
<mgrwt>
<rscale>  2 0.44904343E+03</rscale>
<asrwt>0</asrwt>
<pdfrwt beam="1">  1       21 0.87733210E-02 0.44904343E+03</pdfrwt>
<pdfrwt beam="2">  1       21 0.12426100E+00 0.44904343E+03</pdfrwt>
<totfact> 0.45099990E+04</totfact>
</mgrwt>
</event>
<event>
 7    0  0.4788920E-002  0.4569671E+03  0.7546771E-02  0.1025665E+00
         21   -1    0    0  502  501  0.00000000000E+00  0.00000000000E+00  0.86502955116E+02  0.86502955116E+02  0.00000000000E+00 0. -1.
         21   -1    0    0  501  502 -0.00000000000E+00 -0.00000000000E+00 -0.60350231038E+03  0.60350231038E+03  0.00000000000E+00 0. -1.
      99926    2    1    2    0    0  0.00000000000E+00  0.00000000000E+00 -0.51699935526E+03  0.69000526549E+03  0.45696710283E+03 0.  0.
      99925    2    3    3    0    0  0.25586413986E+02 -0.47519977404E+02 -0.17132665694E+03  0.31845454850E+03  0.26295943270E+03 0.  0.
         25    1    4    4    0    0  0.21802258187E+02 -0.60785253166E+01 -0.12616907721E+03  0.17910452556E+03  0.12509000000E+03 0.  0.
         25    1    3    3    0    0 -0.25586413986E+02  0.47519977404E+02 -0.34567269832E+03  0.37155071699E+03  0.12509000000E+03 0.  0.
         25    1    4    4    0    0  0.37841557992E+01 -0.41441452087E+02 -0.45157579731E+02  0.13935002294E+03  0.12509000000E+03 0.  0.
<mgrwt>
<rscale>  2 0.45696710E+03</rscale>
<asrwt>0</asrwt>
<pdfrwt beam="1">  1       21 0.12721023E-01 0.45696710E+03</pdfrwt>
<pdfrwt beam="2">  1       21 0.88750341E-01 0.45696710E+03</pdfrwt>
<totfact> 0.52629360E+04</totfact>
</mgrwt>
</event>
<event>
 7    0  0.4788920E-002  0.4555034E+03  0.7546771E-02  0.1026093E+00
         21   -1    0    0  502  501  0.00000000000E+00  0.00000000000E+00  0.47391539617E+03  0.47391539617E+03  0.00000000000E+00 0.  1.
         21   -1    0    0  501  502 -0.00000000000E+00 -0.00000000000E+00 -0.10945168590E+03  0.10945168590E+03  0.00000000000E+00 0.  1.
      99926    2    1    2    0    0  0.88817841970E-15  0.00000000000E+00  0.36446371027E+03  0.58336708206E+03  0.45550340979E+03 0.  0.
      99925    2    3    3    0    0 -0.61141417722E+01  0.98731179845E+02  0.30090429161E+03  0.41169140993E+03  0.26298516250E+03 0.  0.
         25    1    4    4    0    0 -0.19536291616E+02  0.56112848255E+02  0.99876320532E+02  0.17074280639E+03  0.12509000000E+03 0.  0.
         25    1    4    4    0    0  0.13422149844E+02  0.42618331590E+02  0.20102797108E+03  0.24094860354E+03  0.12509000000E+03 0.  0.
         25    1    3    3    0    0  0.61141417722E+01 -0.98731179845E+02  0.63559418660E+02  0.17167567214E+03  0.12509000000E+03 0.  0.
<mgrwt>
<rscale>  2 0.45550341E+03</rscale>
<asrwt>0</asrwt>
<pdfrwt beam="1">  1       21 0.69693440E-01 0.45550341E+03</pdfrwt>
<pdfrwt beam="2">  1       21 0.16095836E-01 0.45550341E+03</pdfrwt>
<totfact> 0.59476887E+04</totfact>
</mgrwt>
</event>
<event>
 7    0  0.4788920E-002  0.4519965E+03  0.7546771E-02  0.1027128E+00
         21   -1    0    0  502  501  0.00000000000E+00  0.00000000000E+00  0.11097989508E+03  0.11097989508E+03  0.00000000000E+00 0. -1.
         21   -1    0    0  501  502 -0.00000000000E+00 -0.00000000000E+00 -0.46022039897E+03  0.46022039897E+03  0.00000000000E+00 0. -1.
      99926    2    1    2    0    0  0.00000000000E+00  0.00000000000E+00 -0.34924050389E+03  0.57120029405E+03  0.45199651145E+03 0.  0.
      99925    2    3    3    0    0 -0.64021544557E+02 -0.81788385836E+02 -0.26709611493E+03  0.38903743570E+03  0.26310015876E+03 0.  0.
         25    1    4    4    0    0 -0.39899711000E+02 -0.45180289115E+02 -0.81622806358E+02  0.16106842049E+03  0.12509000000E+03 0.  0.
         25    1    3    3    0    0  0.64021544557E+02  0.81788385836E+02 -0.82144388959E+02  0.18216285835E+03  0.12509000000E+03 0.  0.
         25    1    4    4    0    0 -0.24121833558E+02 -0.36608096721E+02 -0.18547330858E+03  0.22796901521E+03  0.12509000000E+03 0.  0.
<mgrwt>
<rscale>  2 0.45199651E+03</rscale>
<asrwt>0</asrwt>
<pdfrwt beam="1">  1       21 0.16320573E-01 0.45199651E+03</pdfrwt>
<pdfrwt beam="2">  1       21 0.67679470E-01 0.45199651E+03</pdfrwt>
<totfact> 0.61945080E+04</totfact>
</mgrwt>
</event>
<event>
 7    0  0.4788920E-002  0.4400835E+03  0.7546771E-02  0.1030721E+00
         21   -1    0    0  502  501  0.00000000000E+00  0.00000000000E+00  0.36830313051E+03  0.36830313051E+03  0.00000000000E+00 0. -1.
         21   -1    0    0  501  502 -0.00000000000E+00 -0.00000000000E+00 -0.13146334297E+03  0.13146334297E+03  0.00000000000E+00 0. -1.
      99926    2    1    2    0    0  0.71054273576E-14  0.14210854715E-13  0.23683978754E+03  0.49976647349E+03  0.44008345011E+03 0.  0.
      99925    2    3    3    0    0 -0.50242439227E+02 -0.77354568534E+02  0.19031063599E+03  0.33753052798E+03  0.26306023488E+03 0.  0.
         25    1    4    4    0    0 -0.12183368269E+02 -0.78152157875E+02  0.99634074549E+02  0.17841146587E+03  0.12509000000E+03 0.  0.
         25    1    4    4    0    0 -0.38059070958E+02  0.79758934016E+00  0.90676561437E+02  0.15911906210E+03  0.12509000000E+03 0.  0.
         25    1    3    3    0    0  0.50242439227E+02  0.77354568534E+02  0.46529151554E+02  0.16223594551E+03  0.12509000000E+03 0.  0.
<mgrwt>
<rscale>  2 0.44008345E+03</rscale>
<asrwt>0</asrwt>
<pdfrwt beam="1">  1       21 0.54162225E-01 0.44008345E+03</pdfrwt>
<pdfrwt beam="2">  1       21 0.19332845E-01 0.44008345E+03</pdfrwt>
<totfact> 0.73624691E+04</totfact>
</mgrwt>
</event>
<event>
 7    0  0.4788920E-002  0.4934125E+03  0.7546771E-02  0.1015513E+00
         21   -1    0    0  502  501  0.00000000000E+00  0.00000000000E+00  0.76433240026E+03  0.76433240026E+03  0.00000000000E+00 0. -1.
         21   -1    0    0  501  502 -0.00000000000E+00 -0.00000000000E+00 -0.79630246719E+02  0.79630246719E+02  0.00000000000E+00 0. -1.
      99926    2    1    2    0    0 -0.14210854715E-13  0.00000000000E+00  0.68470215354E+03  0.84396264698E+03  0.49341251548E+03 0.  0.
      99925    2    3    3    0    0  0.91584760481E+02  0.22386019089E+02  0.22677570896E+03  0.35998636765E+03  0.26319965904E+03 0.  0.
         25    1    4    4    0    0  0.27296057702E+02  0.32494822252E+02  0.71355488985E+02  0.15013361432E+03  0.12509000000E+03 0.  0.
         25    1    3    3    0    0 -0.91584760481E+02 -0.22386019089E+02  0.45792644458E+03  0.48397627933E+03  0.12509000000E+03 0.  0.
         25    1    4    4    0    0  0.64288702779E+02 -0.10108803163E+02  0.15542021998E+03  0.20985275334E+03  0.12509000000E+03 0.  0.
<mgrwt>
<rscale>  2 0.49341252E+03</rscale>
<asrwt>0</asrwt>
<pdfrwt beam="1">  1       21 0.11240182E+00 0.49341252E+03</pdfrwt>
<pdfrwt beam="2">  1       21 0.11710331E-01 0.49341252E+03</pdfrwt>
<totfact> 0.34183786E+04</totfact>
</mgrwt>
</event>
<event>
 7    0  0.4788920E-002  0.4433904E+03  0.7546771E-02  0.1029712E+00
         21   -1    0    0  502  501  0.00000000000E+00  0.00000000000E+00  0.10694383549E+03  0.10694383549E+03  0.00000000000E+00 0. -1.
         21   -1    0    0  501  502 -0.00000000000E+00 -0.00000000000E+00 -0.45957536831E+03  0.45957536831E+03  0.00000000000E+00 0. -1.
      99926    2    1    2    0    0  0.00000000000E+00  0.00000000000E+00 -0.35263153282E+03  0.56651920380E+03  0.44339035887E+03 0.  0.
      99925    2    3    3    0    0 -0.48677979213E+02  0.16521139448E+02 -0.11187151940E+03  0.29037542627E+03  0.26298318885E+03 0.  0.
         25    1    4    4    0    0 -0.61246196055E+02  0.58936602283E+01 -0.77992261321E+02  0.15973769965E+03  0.12509000000E+03 0.  0.
         25    1    4    4    0    0  0.12568216842E+02  0.10627479220E+02 -0.33879258076E+02  0.13063772662E+03  0.12509000000E+03 0.  0.
         25    1    3    3    0    0  0.48677979213E+02 -0.16521139448E+02 -0.24076001342E+03  0.27614377753E+03  0.12509000000E+03 0.  0.
<mgrwt>
<rscale>  2 0.44339036E+03</rscale>
<asrwt>0</asrwt>
<pdfrwt beam="1">  1       21 0.15727035E-01 0.44339036E+03</pdfrwt>
<pdfrwt beam="2">  1       21 0.67584612E-01 0.44339036E+03</pdfrwt>
<totfact> 0.66704546E+04</totfact>
</mgrwt>
</event>
<event>
 7    0  0.4788920E-002  0.4606287E+03  0.7546771E-02  0.1024599E+00
         21   -1    0    0  502  501  0.00000000000E+00  0.00000000000E+00  0.41514846880E+03  0.41514846880E+03  0.00000000000E+00 0. -1.
         21   -1    0    0  501  502 -0.00000000000E+00 -0.00000000000E+00 -0.12777286314E+03  0.12777286314E+03  0.00000000000E+00 0. -1.
      99926    2    1    2    0    0  0.00000000000E+00 -0.71054273576E-14  0.28737560566E+03  0.54292133194E+03  0.46062873765E+03 0.  0.
      99925    2    3    3    0    0 -0.10489596736E+03  0.35772390589E+02  0.13085440237E+03  0.31394704719E+03  0.26297727264E+03 0.  0.
         25    1    4    4    0    0 -0.26991829264E+02  0.49770031248E+02  0.60299291514E+02  0.14996375400E+03  0.12509000000E+03 0.  0.
         25    1    3    3    0    0  0.10489596736E+03 -0.35772390589E+02  0.15652120329E+03  0.22897428475E+03  0.12509000000E+03 0.  0.
         25    1    4    4    0    0 -0.77904138098E+02 -0.13997640658E+02  0.70555110857E+02  0.16398329319E+03  0.12509000000E+03 0.  0.
<mgrwt>
<rscale>  2 0.46062874E+03</rscale>
<asrwt>0</asrwt>
<pdfrwt beam="1">  1       21 0.61051245E-01 0.46062874E+03</pdfrwt>
<pdfrwt beam="2">  1       21 0.18790127E-01 0.46062874E+03</pdfrwt>
<totfact> 0.59635402E+04</totfact>
</mgrwt>
</event>
<event>
 7    0  0.4788920E-002  0.4368432E+03  0.7546771E-02  0.1031720E+00
         21   -1    0    0  502  501  0.00000000000E+00  0.00000000000E+00  0.19629610035E+03  0.19629610035E+03  0.00000000000E+00 0.  1.
         21   -1    0    0  501  502 -0.00000000000E+00 -0.00000000000E+00 -0.24304098349E+03  0.24304098349E+03  0.00000000000E+00 0.  1.
      99926    2    1    2    0    0 -0.17763568394E-14 -0.71054273576E-14 -0.46744883144E+02  0.43933708384E+03  0.43684320887E+03 0.  0.
      99925    2    3    3    0    0  0.86029401644E+01  0.62408909284E+02  0.41777221716E+02  0.27364896210E+03  0.26300101837E+03 0.  0.
         25    1    4    4    0    0  0.68395888187E+01  0.12774274501E+02  0.56953462304E+02  0.13820697172E+03  0.12509000000E+03 0.  0.
         25    1    3    3    0    0 -0.86029401644E+01 -0.62408909284E+02 -0.88522104859E+02  0.16568812174E+03  0.12509000000E+03 0.  0.
         25    1    4    4    0    0  0.17633513458E+01  0.49634634784E+02 -0.15176240588E+02  0.13544199037E+03  0.12509000000E+03 0.  0.
<mgrwt>
<rscale>  2 0.43684321E+03</rscale>
<asrwt>0</asrwt>
<pdfrwt beam="1">  1       21 0.28867074E-01 0.43684321E+03</pdfrwt>
<pdfrwt beam="2">  1       21 0.35741321E-01 0.43684321E+03</pdfrwt>
<totfact> 0.80793681E+04</totfact>
</mgrwt>
</event>
<event>
 7    0  0.4788920E-002  0.4152539E+03  0.7546771E-02  0.1038622E+00
         21   -1    0    0  502  501  0.00000000000E+00  0.00000000000E+00  0.36857470271E+02  0.36857470271E+02  0.00000000000E+00 0.  1.
         21   -1    0    0  501  502 -0.00000000000E+00 -0.00000000000E+00 -0.11696120558E+04  0.11696120558E+04  0.00000000000E+00 0.  1.
      99926    2    1    2    0    0  0.00000000000E+00  0.00000000000E+00 -0.11327545855E+04  0.12064695260E+04  0.41525385765E+03 0.  0.
      99925    2    3    3    0    0  0.65046035882E+02  0.20485683549E+02 -0.70080578708E+03  0.75163117831E+03  0.26300195243E+03 0.  0.
         25    1    4    4    0    0 -0.85528762546E+01  0.14575840061E+02 -0.31088653321E+03  0.33553472463E+03  0.12509000000E+03 0.  0.
         25    1    4    4    0    0  0.73598912137E+02  0.59098434885E+01 -0.38991925387E+03  0.41609645367E+03  0.12509000000E+03 0.  0.
         25    1    3    3    0    0 -0.65046035882E+02 -0.20485683549E+02 -0.43194879842E+03  0.45483834773E+03  0.12509000000E+03 0.  0.
<mgrwt>
<rscale>  2 0.41525386E+03</rscale>
<asrwt>0</asrwt>
<pdfrwt beam="1">  1       21 0.54202172E-02 0.41525386E+03</pdfrwt>
<pdfrwt beam="2">  1       21 0.17200174E+00 0.41525386E+03</pdfrwt>
<totfact> 0.44100188E+04</totfact>
</mgrwt>
</event>
<event>
 7    0  0.4788920E-002  0.4562815E+03  0.7546771E-02  0.1025865E+00
         21   -1    0    0  502  501  0.00000000000E+00  0.00000000000E+00  0.23302910466E+03  0.23302910466E+03  0.00000000000E+00 0. -1.
         21   -1    0    0  501  502 -0.00000000000E+00 -0.00000000000E+00 -0.22335489861E+03  0.22335489861E+03  0.00000000000E+00 0. -1.
      99926    2    1    2    0    0  0.00000000000E+00  0.00000000000E+00  0.96742060505E+01  0.45638400327E+03  0.45628145719E+03 0.  0.
      99925    2    3    3    0    0 -0.45173567208E+01 -0.35696276868E+02 -0.10265873813E+03  0.28445137361E+03  0.26282910177E+03 0.  0.
         25    1    4    4    0    0 -0.69902455586E+01 -0.54245948366E+01 -0.91517203969E+02  0.15524560053E+03  0.12509000000E+03 0.  0.
         25    1    4    4    0    0  0.24728888378E+01 -0.30271682031E+02 -0.11141534162E+02  0.12920577307E+03  0.12509000000E+03 0.  0.
         25    1    3    3    0    0  0.45173567208E+01  0.35696276868E+02  0.11233294418E+03  0.17193262966E+03  0.12509000000E+03 0.  0.
<mgrwt>
<rscale>  2 0.45628146E+03</rscale>
<asrwt>0</asrwt>
<pdfrwt beam="1">  1       21 0.34268986E-01 0.45628146E+03</pdfrwt>
<pdfrwt beam="2">  1       21 0.32846308E-01 0.45628146E+03</pdfrwt>
<totfact> 0.67749157E+04</totfact>
</mgrwt>
</event>
<event>
 7    0  0.4788920E-002  0.4793568E+03  0.7546771E-02  0.1019312E+00
         21   -1    0    0  502  501  0.00000000000E+00  0.00000000000E+00  0.43707384637E+03  0.43707384637E+03  0.00000000000E+00 0.  1.
         21   -1    0    0  501  502 -0.00000000000E+00 -0.00000000000E+00 -0.13143256991E+03  0.13143256991E+03  0.00000000000E+00 0.  1.
      99926    2    1    2    0    0  0.00000000000E+00  0.00000000000E+00  0.30564127647E+03  0.56850641628E+03  0.47935681436E+03 0.  0.
      99925    2    3    3    0    0 -0.12022614436E+03 -0.41032061176E+02  0.24149771444E+03  0.37903383124E+03  0.26307326605E+03 0.  0.
         25    1    4    4    0    0 -0.81767959760E+02 -0.15082182685E+02  0.82124226889E+02  0.17118810771E+03  0.12509000000E+03 0.  0.
         25    1    4    4    0    0 -0.38458184602E+02 -0.25949878491E+02  0.15937348755E+03  0.20784572353E+03  0.12509000000E+03 0.  0.
         25    1    3    3    0    0  0.12022614436E+03  0.41032061176E+02  0.64143562031E+02  0.18947258504E+03  0.12509000000E+03 0.  0.
<mgrwt>
<rscale>  2 0.47935681E+03</rscale>
<asrwt>0</asrwt>
<pdfrwt beam="1">  1       21 0.64275565E-01 0.47935681E+03</pdfrwt>
<pdfrwt beam="2">  1       21 0.19328319E-01 0.47935681E+03</pdfrwt>
<totfact> 0.50253768E+04</totfact>
</mgrwt>
</event>
<event>
 7    0  0.4788920E-002  0.4376861E+03  0.7546771E-02  0.1031459E+00
         21   -1    0    0  502  501  0.00000000000E+00  0.00000000000E+00  0.12186518736E+03  0.12186518736E+03  0.00000000000E+00 0. -1.
         21   -1    0    0  501  502 -0.00000000000E+00 -0.00000000000E+00 -0.39299390480E+03  0.39299390480E+03  0.00000000000E+00 0. -1.
      99926    2    1    2    0    0  0.00000000000E+00 -0.14210854715E-13 -0.27112871744E+03  0.51485909215E+03  0.43768607855E+03 0.  0.
      99925    2    3    3    0    0 -0.17999241679E+02  0.83025369027E+02 -0.22592888419E+03  0.35703730143E+03  0.26308665739E+03 0.  0.
         25    1    4    4    0    0  0.13123831730E+02  0.68286805576E+02 -0.89671785924E+02  0.16889008279E+03  0.12509000000E+03 0.  0.
         25    1    3    3    0    0  0.17999241679E+02 -0.83025369027E+02 -0.45199833249E+02  0.15782179073E+03  0.12509000000E+03 0.  0.
         25    1    4    4    0    0 -0.31123073409E+02  0.14738563451E+02 -0.13625709827E+03  0.18814721863E+03  0.12509000000E+03 0.  0.
<mgrwt>
<rscale>  2 0.43768608E+03</rscale>
<asrwt>0</asrwt>
<pdfrwt beam="1">  1       21 0.17921351E-01 0.43768608E+03</pdfrwt>
<pdfrwt beam="2">  1       21 0.57793220E-01 0.43768608E+03</pdfrwt>
<totfact> 0.73868878E+04</totfact>
</mgrwt>
</event>
<event>
 7    0  0.4788920E-002  0.4529160E+03  0.7546771E-02  0.1026856E+00
         21   -1    0    0  502  501  0.00000000000E+00  0.00000000000E+00  0.63044149222E+02  0.63044149222E+02  0.00000000000E+00 0.  1.
         21   -1    0    0  501  502 -0.00000000000E+00 -0.00000000000E+00 -0.81344949374E+03  0.81344949374E+03  0.00000000000E+00 0.  1.
      99926    2    1    2    0    0 -0.17763568394E-14  0.00000000000E+00 -0.75040534452E+03  0.87649364296E+03  0.45291602430E+03 0.  0.
      99925    2    3    3    0    0 -0.13168675259E+02 -0.50691345455E+00 -0.68682384497E+03  0.73555469819E+03  0.26294495438E+03 0.  0.
         25    1    4    4    0    0  0.11293477999E+01  0.30079041561E+01 -0.23177452252E+03  0.26339563456E+03  0.12509000000E+03 0.  0.
         25    1    4    4    0    0 -0.14298023059E+02 -0.35148176106E+01 -0.45504932245E+03  0.47215906363E+03  0.12509000000E+03 0.  0.
         25    1    3    3    0    0  0.13168675259E+02  0.50691345455E+00 -0.63581499547E+02  0.14093894477E+03  0.12509000000E+03 0.  0.
<mgrwt>
<rscale>  2 0.45291602E+03</rscale>
<asrwt>0</asrwt>
<pdfrwt beam="1">  1       21 0.92711991E-02 0.45291602E+03</pdfrwt>
<pdfrwt beam="2">  1       21 0.11962492E+00 0.45291602E+03</pdfrwt>
<totfact> 0.44995617E+04</totfact>
</mgrwt>
</event>
<event>
 7    0  0.4788920E-002  0.4547625E+03  0.7546771E-02  0.1026311E+00
         21   -1    0    0  502  501  0.00000000000E+00  0.00000000000E+00  0.55412290508E+03  0.55412290508E+03  0.00000000000E+00 0. -1.
         21   -1    0    0  501  502 -0.00000000000E+00 -0.00000000000E+00 -0.93304621910E+02  0.93304621910E+02  0.00000000000E+00 0. -1.
      99926    2    1    2    0    0 -0.14210854715E-13 -0.35527136788E-14  0.46081828317E+03  0.64742752698E+03  0.45476247932E+03 0.  0.
      99925    2    3    3    0    0  0.96265238457E+02  0.29245093571E+02  0.36310599228E+03  0.45949809469E+03  0.26300240638E+03 0.  0.
         25    1    3    3    0    0 -0.96265238457E+02 -0.29245093571E+02  0.97712290887E+02  0.18792943230E+03  0.12509000000E+03 0.  0.
         25    1    4    4    0    0  0.13127502382E+02  0.28918569295E+02  0.19746311534E+03  0.23589786982E+03  0.12509000000E+03 0.  0.
         25    1    4    4    0    0  0.83137736075E+02  0.32652427545E+00  0.16564287694E+03  0.22360022487E+03  0.12509000000E+03 0.  0.
<mgrwt>
<rscale>  2 0.45476248E+03</rscale>
<asrwt>0</asrwt>
<pdfrwt beam="1">  1       21 0.81488661E-01 0.45476248E+03</pdfrwt>
<pdfrwt beam="2">  1       21 0.13721268E-01 0.45476248E+03</pdfrwt>
<totfact> 0.55954715E+04</totfact>
</mgrwt>
</event>
<event>
 7    0  0.4788920E-002  0.4528895E+03  0.7546771E-02  0.1026864E+00
         21   -1    0    0  502  501  0.00000000000E+00  0.00000000000E+00  0.19496009978E+02  0.19496009978E+02  0.00000000000E+00 0. -1.
         21   -1    0    0  501  502 -0.00000000000E+00 -0.00000000000E+00 -0.26301393967E+04  0.26301393967E+04  0.00000000000E+00 0. -1.
      99926    2    1    2    0    0  0.00000000000E+00  0.00000000000E+00 -0.26106433868E+04  0.26496354067E+04  0.45288949612E+03 0.  0.
      99925    2    3    3    0    0 -0.59739881012E+02 -0.66844595472E+02 -0.12564607176E+04  0.12867358275E+04  0.26259950821E+03 0.  0.
         25    1    3    3    0    0  0.59739881012E+02  0.66844595472E+02 -0.13541826692E+04  0.13628995792E+04  0.12509000000E+03 0.  0.
         25    1    4    4    0    0 -0.69521723006E+02 -0.45644129398E+02 -0.68724045304E+03  0.70346542553E+03  0.12509000000E+03 0.  0.
         25    1    4    4    0    0  0.97818419941E+01 -0.21200466074E+02 -0.56922026454E+03  0.58327040200E+03  0.12509000000E+03 0.  0.
<mgrwt>
<rscale>  2 0.45288950E+03</rscale>
<asrwt>0</asrwt>
<pdfrwt beam="1">  1       21 0.28670631E-02 0.45288950E+03</pdfrwt>
<pdfrwt beam="2">  1       21 0.38678483E+00 0.45288950E+03</pdfrwt>
<totfact> 0.58136476E+03</totfact>
</mgrwt>
</event>
<event>
 7    0  0.4788920E-002  0.4436581E+03  0.7546771E-02  0.1029630E+00
         21   -1    0    0  502  501  0.00000000000E+00  0.00000000000E+00  0.76579303913E+03  0.76579303913E+03  0.00000000000E+00 0. -1.
         21   -1    0    0  501  502 -0.00000000000E+00 -0.00000000000E+00 -0.64257744248E+02  0.64257744248E+02  0.00000000000E+00 0. -1.
      99926    2    1    2    0    0  0.00000000000E+00  0.00000000000E+00  0.70153529489E+03  0.83005078338E+03  0.44365812629E+03 0.  0.
      99925    2    3    3    0    0 -0.72308232740E+02 -0.54970387293E+02  0.53304733791E+03  0.60138962851E+03  0.26321055607E+03 0.  0.
         25    1    3    3    0    0  0.72308232740E+02  0.54970387293E+02  0.16848795697E+03  0.22866115487E+03  0.12509000000E+03 0.  0.
         25    1    4    4    0    0  0.45315748707E+01 -0.35412778344E+02  0.23646458587E+03  0.26988443547E+03  0.12509000000E+03 0.  0.
         25    1    4    4    0    0 -0.76839807611E+02 -0.19557608949E+02  0.29658275205E+03  0.33150519304E+03  0.12509000000E+03 0.  0.
<mgrwt>
<rscale>  2 0.44365813E+03</rscale>
<asrwt>0</asrwt>
<pdfrwt beam="1">  1       21 0.11261662E+00 0.44365813E+03</pdfrwt>
<pdfrwt beam="2">  1       21 0.94496687E-02 0.44365813E+03</pdfrwt>
<totfact> 0.50709568E+04</totfact>
</mgrwt>
</event>
<event>
 7    0  0.4788920E-002  0.4555121E+03  0.7546771E-02  0.1026091E+00
         21   -1    0    0  502  501  0.00000000000E+00  0.00000000000E+00  0.10659153024E+03  0.10659153024E+03  0.00000000000E+00 0. -1.
         21   -1    0    0  501  502 -0.00000000000E+00 -0.00000000000E+00 -0.48665053072E+03  0.48665053072E+03  0.00000000000E+00 0. -1.
      99926    2    1    2    0    0  0.00000000000E+00  0.00000000000E+00 -0.38005900049E+03  0.59324206096E+03  0.45551212831E+03 0.  0.
      99925    2    3    3    0    0  0.10972338355E+03 -0.42274953528E+01 -0.27735758781E+03  0.39766041335E+03  0.26296288753E+03 0.  0.
         25    1    4    4    0    0  0.71997969143E+02 -0.10526091301E+01 -0.19708209978E+03  0.24428196352E+03  0.12509000000E+03 0.  0.
         25    1    3    3    0    0 -0.10972338355E+03  0.42274953528E+01 -0.10270141268E+03  0.19558164761E+03  0.12509000000E+03 0.  0.
         25    1    4    4    0    0  0.37725414411E+02 -0.31748862227E+01 -0.80275488032E+02  0.15337844984E+03  0.12509000000E+03 0.  0.
<mgrwt>
<rscale>  2 0.45551213E+03</rscale>
<asrwt>0</asrwt>
<pdfrwt beam="1">  1       21 0.15675225E-01 0.45551213E+03</pdfrwt>
<pdfrwt beam="2">  1       21 0.71566255E-01 0.45551213E+03</pdfrwt>
<totfact> 0.58857601E+04</totfact>
</mgrwt>
</event>
<event>
 7    0  0.4788920E-002  0.4566423E+03  0.7546771E-02  0.1025760E+00
         21   -1    0    0  502  501  0.00000000000E+00  0.00000000000E+00  0.23294670824E+03  0.23294670824E+03  0.00000000000E+00 0. -1.
         21   -1    0    0  501  502 -0.00000000000E+00 -0.00000000000E+00 -0.22378744846E+03  0.22378744846E+03  0.00000000000E+00 0. -1.
      99926    2    1    2    0    0 -0.71054273576E-14  0.35527136788E-14  0.91592597797E+01  0.45673415670E+03  0.45664230844E+03 0.  0.
      99925    2    3    3    0    0  0.40718883218E+02 -0.20431901772E+02  0.11104772827E+03  0.28909090998E+03  0.26299518288E+03 0.  0.
         25    1    3    3    0    0 -0.40718883218E+02  0.20431901772E+02 -0.10188846849E+03  0.16764324672E+03  0.12509000000E+03 0.  0.
         25    1    4    4    0    0  0.43040490490E+02 -0.34831060747E+02  0.83202119840E+02  0.16011179676E+03  0.12509000000E+03 0.  0.
         25    1    4    4    0    0 -0.23216072719E+01  0.14399158976E+02  0.27845608432E+02  0.12897911323E+03  0.12509000000E+03 0.  0.
<mgrwt>
<rscale>  2 0.45664231E+03</rscale>
<asrwt>0</asrwt>
<pdfrwt beam="1">  1       21 0.34256869E-01 0.45664231E+03</pdfrwt>
<pdfrwt beam="2">  1       21 0.32909919E-01 0.45664231E+03</pdfrwt>
<totfact> 0.67529690E+04</totfact>
</mgrwt>
</event>
<event>
 7    0  0.4788920E-002  0.4553331E+03  0.7546771E-02  0.1026144E+00
         21   -1    0    0  502  501  0.00000000000E+00  0.00000000000E+00  0.12690060252E+04  0.12690060252E+04  0.00000000000E+00 0.  1.
         21   -1    0    0  501  502 -0.00000000000E+00 -0.00000000000E+00 -0.40844604297E+02  0.40844604297E+02  0.00000000000E+00 0.  1.
      99926    2    1    2    0    0 -0.71054273576E-14  0.00000000000E+00  0.12281614209E+04  0.13098506295E+04  0.45533306030E+03 0.  0.
      99925    2    3    3    0    0 -0.55191001869E+02 -0.23085501185E+01  0.10577703412E+04  0.10913740765E+04  0.26299791618E+03 0.  0.
         25    1    4    4    0    0 -0.16130958017E+02 -0.26700330086E+02  0.40104068656E+03  0.42125319680E+03  0.12509000000E+03 0.  0.
         25    1    3    3    0    0  0.55191001869E+02  0.23085501185E+01  0.17039107969E+03  0.21847655304E+03  0.12509000000E+03 0.  0.
         25    1    4    4    0    0 -0.39060043852E+02  0.24391779968E+02  0.65672965469E+03  0.67012087969E+03  0.12509000000E+03 0.  0.
<mgrwt>
<rscale>  2 0.45533306E+03</rscale>
<asrwt>0</asrwt>
<pdfrwt beam="1">  1       21 0.18661851E+00 0.45533306E+03</pdfrwt>
<pdfrwt beam="2">  1       21 0.60065603E-02 0.45533306E+03</pdfrwt>
<totfact> 0.28755391E+04</totfact>
</mgrwt>
</event>
<event>
 7    0  0.4788920E-002  0.4367143E+03  0.7546771E-02  0.1031760E+00
         21   -1    0    0  502  501  0.00000000000E+00  0.00000000000E+00  0.27845827576E+03  0.27845827576E+03  0.00000000000E+00 0. -1.
         21   -1    0    0  501  502 -0.00000000000E+00 -0.00000000000E+00 -0.17122799975E+03  0.17122799975E+03  0.00000000000E+00 0. -1.
      99926    2    1    2    0    0  0.00000000000E+00  0.14210854715E-13  0.10723027601E+03  0.44968627551E+03  0.43671433946E+03 0.  0.
      99925    2    3    3    0    0  0.32446991990E+02  0.77339653344E+02  0.20867394644E+02  0.27607670018E+03  0.26219967001E+03 0.  0.
         25    1    4    4    0    0  0.42976592254E+01  0.11554729373E+02 -0.17598051215E+02  0.12692194906E+03  0.12509000000E+03 0.  0.
         25    1    4    4    0    0  0.28149332764E+02  0.65784923971E+02  0.38465445858E+02  0.14915475112E+03  0.12509000000E+03 0.  0.
         25    1    3    3    0    0 -0.32446991990E+02 -0.77339653344E+02  0.86362881364E+02  0.17360957533E+03  0.12509000000E+03 0.  0.
<mgrwt>
<rscale>  2 0.43671434E+03</rscale>
<asrwt>0</asrwt>
<pdfrwt beam="1">  1       21 0.40949746E-01 0.43671434E+03</pdfrwt>
<pdfrwt beam="2">  1       21 0.25180588E-01 0.43671434E+03</pdfrwt>
<totfact> 0.79959929E+04</totfact>
</mgrwt>
</event>
<event>
 7    0  0.4788920E-002  0.4485126E+03  0.7546771E-02  0.1028167E+00
         21   -1    0    0  502  501  0.00000000000E+00  0.00000000000E+00  0.78441597503E+02  0.78441597503E+02  0.00000000000E+00 0. -1.
         21   -1    0    0  501  502 -0.00000000000E+00 -0.00000000000E+00 -0.64112516409E+03  0.64112516409E+03  0.00000000000E+00 0. -1.
      99926    2    1    2    0    0  0.00000000000E+00  0.00000000000E+00 -0.56268356658E+03  0.71956676159E+03  0.44851257316E+03 0.  0.
      99925    2    3    3    0    0  0.56968747027E+02  0.75673499983E+02 -0.43606091370E+03  0.51794156212E+03  0.26294947153E+03 0.  0.
         25    1    4    4    0    0  0.45712454127E+02  0.20125810895E+02 -0.15657396607E+03  0.20653714358E+03  0.12509000000E+03 0.  0.
         25    1    4    4    0    0  0.11256292901E+02  0.55547689088E+02 -0.27948694763E+03  0.31140441855E+03  0.12509000000E+03 0.  0.
         25    1    3    3    0    0 -0.56968747027E+02 -0.75673499983E+02 -0.12662265288E+03  0.20162519947E+03  0.12509000000E+03 0.  0.
<mgrwt>
<rscale>  2 0.44851257E+03</rscale>
<asrwt>0</asrwt>
<pdfrwt beam="1">  1       21 0.11535529E-01 0.44851257E+03</pdfrwt>
<pdfrwt beam="2">  1       21 0.94283112E-01 0.44851257E+03</pdfrwt>
<totfact> 0.54586002E+04</totfact>
</mgrwt>
</event>
<event>
 7    0  0.4788920E-002  0.4616849E+03  0.7546771E-02  0.1024294E+00
         21   -1    0    0  502  501  0.00000000000E+00  0.00000000000E+00  0.12132644405E+03  0.12132644405E+03  0.00000000000E+00 0.  1.
         21   -1    0    0  501  502 -0.00000000000E+00 -0.00000000000E+00 -0.43921377114E+03  0.43921377114E+03  0.00000000000E+00 0.  1.
      99926    2    1    2    0    0 -0.14210854715E-13  0.00000000000E+00 -0.31788732710E+03  0.56054021519E+03  0.46168493599E+03 0.  0.
      99925    2    3    3    0    0 -0.11925743100E+03 -0.47443972209E+01 -0.20001847100E+03  0.35129055691E+03  0.26296924246E+03 0.  0.
         25    1    3    3    0    0  0.11925743100E+03  0.47443972209E+01 -0.11786885610E+03  0.20924965828E+03  0.12509000000E+03 0.  0.
         25    1    4    4    0    0 -0.85984927189E+02 -0.22566140963E+01 -0.67858947954E+02  0.16628543210E+03  0.12509000000E+03 0.  0.
         25    1    4    4    0    0 -0.33272503806E+02 -0.24877831247E+01 -0.13215952305E+03  0.18500512481E+03  0.12509000000E+03 0.  0.
<mgrwt>
<rscale>  2 0.46168494E+03</rscale>
<asrwt>0</asrwt>
<pdfrwt beam="1">  1       21 0.17842124E-01 0.46168494E+03</pdfrwt>
<pdfrwt beam="2">  1       21 0.64590261E-01 0.46168494E+03</pdfrwt>
<totfact> 0.58044660E+04</totfact>
</mgrwt>
</event>
<event>
 7    0  0.4788920E-002  0.4542730E+03  0.7546771E-02  0.1026455E+00
         21   -1    0    0  502  501  0.00000000000E+00  0.00000000000E+00  0.19801583321E+03  0.19801583321E+03  0.00000000000E+00 0.  1.
         21   -1    0    0  501  502 -0.00000000000E+00 -0.00000000000E+00 -0.26053970578E+03  0.26053970578E+03  0.00000000000E+00 0.  1.
      99926    2    1    2    0    0  0.00000000000E+00  0.71054273576E-14 -0.62523872568E+02  0.45855553899E+03  0.45427298808E+03 0.  0.
      99925    2    3    3    0    0  0.75358610759E+02 -0.51646140828E+02  0.26693147807E+02  0.27980031836E+03  0.26311489874E+03 0.  0.
         25    1    4    4    0    0  0.46006801911E+02  0.67368109358E+01  0.36429264595E+02  0.13833513604E+03  0.12509000000E+03 0.  0.
         25    1    4    4    0    0  0.29351808848E+02 -0.58382951763E+02 -0.97361167879E+01  0.14146518232E+03  0.12509000000E+03 0.  0.
         25    1    3    3    0    0 -0.75358610759E+02  0.51646140828E+02 -0.89217020375E+02  0.17875522063E+03  0.12509000000E+03 0.  0.
<mgrwt>
<rscale>  2 0.45427299E+03</rscale>
<asrwt>0</asrwt>
<pdfrwt beam="1">  1       21 0.29119976E-01 0.45427299E+03</pdfrwt>
<pdfrwt beam="2">  1       21 0.38314662E-01 0.45427299E+03</pdfrwt>
<totfact> 0.68683315E+04</totfact>
</mgrwt>
</event>
<event>
 7    0  0.4788920E-002  0.4555938E+03  0.7546771E-02  0.1026067E+00
         21   -1    0    0  502  501  0.00000000000E+00  0.00000000000E+00  0.20691859772E+04  0.20691859772E+04  0.00000000000E+00 0. -1.
         21   -1    0    0  501  502 -0.00000000000E+00 -0.00000000000E+00 -0.25078186358E+02  0.25078186358E+02  0.00000000000E+00 0. -1.
      99926    2    1    2    0    0  0.00000000000E+00 -0.14210854715E-13  0.20441077908E+04  0.20942641635E+04  0.45559381710E+03 0.  0.
      99925    2    3    3    0    0  0.60384440461E+02  0.72283225136E+02  0.15786014701E+04  0.16031279421E+04  0.26299325469E+03 0.  0.
         25    1    3    3    0    0 -0.60384440461E+02 -0.72283225136E+02  0.46550632066E+03  0.49113622139E+03  0.12509000000E+03 0.  0.
         25    1    4    4    0    0  0.56221197421E+02  0.24393907070E+02  0.63808525871E+03  0.65311269412E+03  0.12509000000E+03 0.  0.
         25    1    4    4    0    0  0.41632430398E+01  0.47889318065E+02  0.94051621144E+03  0.95001524802E+03  0.12509000000E+03 0.  0.
<mgrwt>
<rscale>  2 0.45559382E+03</rscale>
<asrwt>0</asrwt>
<pdfrwt beam="1">  1       21 0.30429194E+00 0.45559382E+03</pdfrwt>
<pdfrwt beam="2">  1       21 0.36879700E-02 0.45559382E+03</pdfrwt>
<totfact> 0.12174935E+04</totfact>
</mgrwt>
</event>
<event>
 7    0  0.4788920E-002  0.4701628E+03  0.7546771E-02  0.1021874E+00
         21   -1    0    0  502  501  0.00000000000E+00  0.00000000000E+00  0.27474000410E+02  0.27474000410E+02  0.00000000000E+00 0.  1.
         21   -1    0    0  501  502 -0.00000000000E+00 -0.00000000000E+00 -0.20114750602E+04  0.20114750602E+04  0.00000000000E+00 0.  1.
      99926    2    1    2    0    0 -0.71054273576E-14  0.00000000000E+00 -0.19840010597E+04  0.20389490606E+04  0.47016280851E+03 0.  0.
      99925    2    3    3    0    0  0.42782699114E+02 -0.10817926905E+03 -0.10074401629E+04  0.10475602333E+04  0.26251408885E+03 0.  0.
         25    1    3    3    0    0 -0.42782699114E+02  0.10817926905E+03 -0.97656089683E+03  0.99138882731E+03  0.12509000000E+03 0.  0.
         25    1    4    4    0    0  0.35389154508E+02 -0.48270943052E+02 -0.36924302598E+03  0.39442413280E+03  0.12509000000E+03 0.  0.
         25    1    4    4    0    0  0.73935446060E+01 -0.59908326003E+02 -0.63819713694E+03  0.65313610046E+03  0.12509000000E+03 0.  0.
<mgrwt>
<rscale>  2 0.47016281E+03</rscale>
<asrwt>0</asrwt>
<pdfrwt beam="1">  1       21 0.40402925E-02 0.47016281E+03</pdfrwt>
<pdfrwt beam="2">  1       21 0.29580528E+00 0.47016281E+03</pdfrwt>
<totfact> 0.11651291E+04</totfact>
</mgrwt>
</event>
<event>
 7    0  0.4788920E-002  0.5598831E+03  0.7546771E-02  0.9992319E-01
         21   -1    0    0  502  501  0.00000000000E+00  0.00000000000E+00  0.24009420082E+03  0.24009420082E+03  0.00000000000E+00 0. -1.
         21   -1    0    0  501  502 -0.00000000000E+00 -0.00000000000E+00 -0.32640221015E+03  0.32640221015E+03  0.00000000000E+00 0. -1.
      99926    2    1    2    0    0  0.00000000000E+00  0.00000000000E+00 -0.86308009327E+02  0.56649641097E+03  0.55988312277E+03 0.  0.
      99925    2    3    3    0    0 -0.15355370516E+03  0.47908527012E+02  0.62029352571E+02  0.31445385828E+03  0.26298216875E+03 0.  0.
         25    1    4    4    0    0 -0.67510229184E+02  0.63408789245E+02  0.32820531158E+02  0.15906917037E+03  0.12509000000E+03 0.  0.
         25    1    3    3    0    0  0.15355370516E+03 -0.47908527012E+02 -0.14833736190E+03  0.25204255269E+03  0.12509000000E+03 0.  0.
         25    1    4    4    0    0 -0.86043475979E+02 -0.15500262234E+02  0.29208821413E+02  0.15538468791E+03  0.12509000000E+03 0.  0.
<mgrwt>
<rscale>  2 0.55988312E+03</rscale>
<asrwt>0</asrwt>
<pdfrwt beam="1">  1       21 0.35307971E-01 0.55988312E+03</pdfrwt>
<pdfrwt beam="2">  1       21 0.48000324E-01 0.55988312E+03</pdfrwt>
<totfact> 0.28554915E+04</totfact>
</mgrwt>
</event>
<event>
 7    0  0.4788920E-002  0.4560836E+03  0.7546771E-02  0.1025923E+00
         21   -1    0    0  502  501  0.00000000000E+00  0.00000000000E+00  0.17241180670E+03  0.17241180670E+03  0.00000000000E+00 0.  1.
         21   -1    0    0  501  502 -0.00000000000E+00 -0.00000000000E+00 -0.30162126260E+03  0.30162126260E+03  0.00000000000E+00 0.  1.
      99926    2    1    2    0    0  0.00000000000E+00  0.35527136788E-14 -0.12920945589E+03  0.47403306930E+03  0.45608361876E+03 0.  0.
      99925    2    3    3    0    0 -0.65837181689E+02 -0.20499121493E+02 -0.17578529366E+03  0.32379470789E+03  0.26303572936E+03 0.  0.
         25    1    3    3    0    0  0.65837181689E+02  0.20499121493E+02  0.46575837765E+02  0.15023836141E+03  0.12509000000E+03 0.  0.
         25    1    4    4    0    0 -0.47324741502E+01  0.13413026061E+02 -0.10520670345E+03  0.16406786441E+03  0.12509000000E+03 0.  0.
         25    1    4    4    0    0 -0.61104707538E+02 -0.33912147554E+02 -0.70578590203E+02  0.15972684349E+03  0.12509000000E+03 0.  0.
<mgrwt>
<rscale>  2 0.45608362E+03</rscale>
<asrwt>0</asrwt>
<pdfrwt beam="1">  1       21 0.25354678E-01 0.45608362E+03</pdfrwt>
<pdfrwt beam="2">  1       21 0.44356067E-01 0.45608362E+03</pdfrwt>
<totfact> 0.66562915E+04</totfact>
</mgrwt>
</event>
<event>
 7    0  0.4788920E-002  0.4669530E+03  0.7546771E-02  0.1022784E+00
         21   -1    0    0  502  501  0.00000000000E+00  0.00000000000E+00  0.61041290444E+03  0.61041290444E+03  0.00000000000E+00 0.  1.
         21   -1    0    0  501  502 -0.00000000000E+00 -0.00000000000E+00 -0.89302301124E+02  0.89302301124E+02  0.00000000000E+00 0.  1.
      99926    2    1    2    0    0  0.00000000000E+00  0.00000000000E+00  0.52111060331E+03  0.69971520556E+03  0.46695300407E+03 0.  0.
      99925    2    3    3    0    0  0.48150132004E+02 -0.10461330051E+03  0.39362288219E+03  0.48719931206E+03  0.26298634647E+03 0.  0.
         25    1    4    4    0    0  0.24937810223E+02 -0.98353297853E+01  0.16124947990E+03  0.20583374592E+03  0.12509000000E+03 0.  0.
         25    1    3    3    0    0 -0.48150132004E+02  0.10461330051E+03  0.12748772112E+03  0.21251589350E+03  0.12509000000E+03 0.  0.
         25    1    4    4    0    0  0.23212321781E+02 -0.94777970721E+02  0.23237340229E+03  0.28136556614E+03  0.12509000000E+03 0.  0.
<mgrwt>
<rscale>  2 0.46695300E+03</rscale>
<asrwt>0</asrwt>
<pdfrwt beam="1">  1       21 0.89766602E-01 0.46695300E+03</pdfrwt>
<pdfrwt beam="2">  1       21 0.13132692E-01 0.46695300E+03</pdfrwt>
<totfact> 0.48218598E+04</totfact>
</mgrwt>
</event>
<event>
 7    0  0.4788920E-002  0.4569454E+03  0.7546771E-02  0.1025671E+00
         21   -1    0    0  502  501  0.00000000000E+00  0.00000000000E+00  0.66634073692E+03  0.66634073692E+03  0.00000000000E+00 0. -1.
         21   -1    0    0  501  502 -0.00000000000E+00 -0.00000000000E+00 -0.78337966798E+02  0.78337966798E+02  0.00000000000E+00 0. -1.
      99926    2    1    2    0    0  0.00000000000E+00  0.00000000000E+00  0.58800277012E+03  0.74467870372E+03  0.45694541698E+03 0.  0.
      99925    2    3    3    0    0  0.11380943045E+02  0.52363310560E+02  0.20342833345E+03  0.33673698288E+03  0.26293966348E+03 0.  0.
         25    1    4    4    0    0  0.30419698716E+02  0.31707285958E+01  0.70832697559E+02  0.14697003345E+03  0.12509000000E+03 0.  0.
         25    1    3    3    0    0 -0.11380943045E+02 -0.52363310560E+02  0.38457443667E+03  0.40794172084E+03  0.12509000000E+03 0.  0.
         25    1    4    4    0    0 -0.19038755671E+02  0.49192581965E+02  0.13259563589E+03  0.18976694943E+03  0.12509000000E+03 0.  0.
<mgrwt>
<rscale>  2 0.45694542E+03</rscale>
<asrwt>0</asrwt>
<pdfrwt beam="1">  1       21 0.97991282E-01 0.45694542E+03</pdfrwt>
<pdfrwt beam="2">  1       21 0.11520290E-01 0.45694542E+03</pdfrwt>
<totfact> 0.49777822E+04</totfact>
</mgrwt>
</event>
<event>
 6    0  0.4788920E-002  0.4605778E+03  0.7546771E-02  0.1024614E+00
         21   -1    0    0  502  501  0.00000000000E+00  0.00000000000E+00  0.87354109595E+03  0.87354109595E+03  0.00000000000E+00 0. -1.
         21   -1    0    0  501  502 -0.00000000000E+00 -0.00000000000E+00 -0.60710348869E+02  0.60710348869E+02  0.00000000000E+00 0. -1.
      99926    2    1    2    0    0  0.00000000000E+00  0.00000000000E+00  0.81283074708E+03  0.93425144482E+03  0.46057783137E+03 0.  0.
         25    1    3    3    0    0 -0.71176474494E+02 -0.80439055460E+02  0.31573792849E+03  0.35619444093E+03  0.12509000000E+03 0.  0.
         25    1    3    3    0    0  0.58352329665E+02 -0.12599701483E+02  0.23090168164E+03  0.26930807923E+03  0.12509000000E+03 0.  0.
         25    1    3    3    0    0  0.12824144830E+02  0.93038756942E+02  0.26619113695E+03  0.30874892465E+03  0.12509000000E+03 0.  0.
<mgrwt>
<rscale>  2 0.46057783E+03</rscale>
<asrwt>0</asrwt>
<pdfrwt beam="1">  1       21 0.12846192E+00 0.46057783E+03</pdfrwt>
<pdfrwt beam="2">  1       21 0.89279930E-02 0.46057783E+03</pdfrwt>
<totfact> 0.40010831E+04</totfact>
</mgrwt>
</event>
<event>
 7    0  0.4788920E-002  0.4458307E+03  0.7546771E-02  0.1028973E+00
         21   -1    0    0  502  501  0.00000000000E+00  0.00000000000E+00  0.25975164727E+03  0.25975164727E+03  0.00000000000E+00 0.  1.
         21   -1    0    0  501  502 -0.00000000000E+00 -0.00000000000E+00 -0.19130292114E+03  0.19130292114E+03  0.00000000000E+00 0.  1.
      99926    2    1    2    0    0  0.00000000000E+00  0.35527136788E-14  0.68448726133E+02  0.45105456841E+03  0.44583068039E+03 0.  0.
      99925    2    3    3    0    0 -0.10024342126E+03  0.28888574327E+02  0.44597039027E+02  0.28643469018E+03  0.26300692503E+03 0.  0.
         25    1    3    3    0    0  0.10024342126E+03 -0.28888574327E+02  0.23851687106E+02  0.16461987824E+03  0.12509000000E+03 0.  0.
         25    1    4    4    0    0 -0.18404763756E+02 -0.17080267794E+01 -0.33626523266E+01  0.12649295718E+03  0.12509000000E+03 0.  0.
         25    1    4    4    0    0 -0.81838657504E+02  0.30596601106E+02  0.47959691354E+02  0.15994173300E+03  0.12509000000E+03 0.  0.
<mgrwt>
<rscale>  2 0.44583068E+03</rscale>
<asrwt>0</asrwt>
<pdfrwt beam="1">  1       21 0.38198772E-01 0.44583068E+03</pdfrwt>
<pdfrwt beam="2">  1       21 0.28132782E-01 0.44583068E+03</pdfrwt>
<totfact> 0.74110043E+04</totfact>
</mgrwt>
</event>
<event>
 7    0  0.4788920E-002  0.4217350E+03  0.7546771E-02  0.1036503E+00
         21   -1    0    0  502  501  0.00000000000E+00  0.00000000000E+00  0.64486776702E+03  0.64486776702E+03  0.00000000000E+00 0. -1.
         21   -1    0    0  501  502 -0.00000000000E+00 -0.00000000000E+00 -0.68952276037E+02  0.68952276037E+02  0.00000000000E+00 0. -1.
      99926    2    1    2    0    0  0.00000000000E+00  0.14210854715E-13  0.57591549099E+03  0.71382004306E+03  0.42173498920E+03 0.  0.
      99925    2    3    3    0    0  0.25712951147E+02  0.69710984192E+02  0.33768592477E+03  0.43467561540E+03  0.26342044276E+03 0.  0.
         25    1    4    4    0    0 -0.23332186943E+01 -0.51998193385E+01  0.15386980394E+03  0.19838323189E+03  0.12509000000E+03 0.  0.
         25    1    3    3    0    0 -0.25712951147E+02 -0.69710984192E+02  0.23822956621E+03  0.27914442765E+03  0.12509000000E+03 0.  0.
         25    1    4    4    0    0  0.28046169841E+02  0.74910803530E+02  0.18381612084E+03  0.23629238352E+03  0.12509000000E+03 0.  0.
<mgrwt>
<rscale>  2 0.42173499E+03</rscale>
<asrwt>0</asrwt>
<pdfrwt beam="1">  1       21 0.94833492E-01 0.42173499E+03</pdfrwt>
<pdfrwt beam="2">  1       21 0.10140041E-01 0.42173499E+03</pdfrwt>
<totfact> 0.68370011E+04</totfact>
</mgrwt>
</event>
<event>
 7    0  0.4788920E-002  0.4516162E+03  0.7546771E-02  0.1027241E+00
         21   -1    0    0  502  501  0.00000000000E+00  0.00000000000E+00  0.10313696920E+04  0.10313696920E+04  0.00000000000E+00 0.  1.
         21   -1    0    0  501  502 -0.00000000000E+00 -0.00000000000E+00 -0.49438440128E+02  0.49438440128E+02  0.00000000000E+00 0.  1.
      99926    2    1    2    0    0  0.14210854715E-13  0.33306690739E-15  0.98193125184E+03  0.10808081321E+04  0.45161624757E+03 0.  0.
      99925    2    3    3    0    0  0.10766583801E+03  0.95042514099E+00  0.56704407268E+03  0.63429753255E+03  0.26306186239E+03 0.  0.
         25    1    3    3    0    0 -0.10766583801E+03 -0.95042514099E+00  0.41488717916E+03  0.44651059955E+03  0.12509000000E+03 0.  0.
         25    1    4    4    0    0  0.64151450508E+02  0.27195830763E+02  0.22649905681E+03  0.26796334198E+03  0.12509000000E+03 0.  0.
         25    1    4    4    0    0  0.43514387503E+02 -0.26245405622E+02  0.34054501588E+03  0.36633419056E+03  0.12509000000E+03 0.  0.
<mgrwt>
<rscale>  2 0.45161625E+03</rscale>
<asrwt>0</asrwt>
<pdfrwt beam="1">  1       21 0.15167200E+00 0.45161625E+03</pdfrwt>
<pdfrwt beam="2">  1       21 0.72703595E-02 0.45161625E+03</pdfrwt>
<totfact> 0.37137723E+04</totfact>
</mgrwt>
</event>
<event>
 7    0  0.4788920E-002  0.4545378E+03  0.7546771E-02  0.1026377E+00
         21   -1    0    0  502  501  0.00000000000E+00  0.00000000000E+00  0.11900108336E+03  0.11900108336E+03  0.00000000000E+00 0. -1.
         21   -1    0    0  501  502 -0.00000000000E+00 -0.00000000000E+00 -0.43403934114E+03  0.43403934114E+03  0.00000000000E+00 0. -1.
      99926    2    1    2    0    0  0.00000000000E+00  0.00000000000E+00 -0.31503825778E+03  0.55304042451E+03  0.45453779521E+03 0.  0.
      99925    2    3    3    0    0 -0.10182162530E+03 -0.42048780292E+02 -0.16967541919E+03  0.33187621799E+03  0.26308997108E+03 0.  0.
         25    1    4    4    0    0 -0.94463143848E+02 -0.21285099586E+02 -0.92222634522E+02  0.18310888408E+03  0.12509000000E+03 0.  0.
         25    1    3    3    0    0  0.10182162530E+03  0.42048780292E+02 -0.14536283859E+03  0.22116420652E+03  0.12509000000E+03 0.  0.
         25    1    4    4    0    0 -0.73584814539E+01 -0.20763680707E+02 -0.77452784667E+02  0.14876733391E+03  0.12509000000E+03 0.  0.
<mgrwt>
<rscale>  2 0.45453780E+03</rscale>
<asrwt>0</asrwt>
<pdfrwt beam="1">  1       21 0.17500159E-01 0.45453780E+03</pdfrwt>
<pdfrwt beam="2">  1       21 0.63829315E-01 0.45453780E+03</pdfrwt>
<totfact> 0.61892051E+04</totfact>
</mgrwt>
</event>
<event>
 7    0  0.4788920E-002  0.4893123E+03  0.7546771E-02  0.1016607E+00
         21   -1    0    0  502  501  0.00000000000E+00  0.00000000000E+00  0.30743356265E+03  0.30743356265E+03  0.00000000000E+00 0.  1.
         21   -1    0    0  501  502 -0.00000000000E+00 -0.00000000000E+00 -0.19469775230E+03  0.19469775230E+03  0.00000000000E+00 0.  1.
      99926    2    1    2    0    0  0.00000000000E+00  0.00000000000E+00  0.11273581035E+03  0.50213131495E+03  0.48931226688E+03 0.  0.
      99925    2    3    3    0    0  0.46816969239E+02 -0.13515786372E+03  0.58215263283E+02  0.30444602241E+03  0.26237165805E+03 0.  0.
         25    1    4    4    0    0  0.32696411088E+02 -0.63409772115E+02  0.67935365984E+02  0.15922492440E+03  0.12509000000E+03 0.  0.
         25    1    4    4    0    0  0.14120558150E+02 -0.71748091610E+02 -0.97201027010E+01  0.14522109801E+03  0.12509000000E+03 0.  0.
         25    1    3    3    0    0 -0.46816969239E+02  0.13515786372E+03  0.54520547066E+02  0.19768529254E+03  0.12509000000E+03 0.  0.
<mgrwt>
<rscale>  2 0.48931227E+03</rscale>
<asrwt>0</asrwt>
<pdfrwt beam="1">  1       21 0.45210818E-01 0.48931227E+03</pdfrwt>
<pdfrwt beam="2">  1       21 0.28632022E-01 0.48931227E+03</pdfrwt>
<totfact> 0.50035605E+04</totfact>
</mgrwt>
</event>
<event>
 7    0  0.4788920E-002  0.4540312E+03  0.7546771E-02  0.1026527E+00
         21   -1    0    0  502  501  0.00000000000E+00  0.00000000000E+00  0.18385410811E+03  0.18385410811E+03  0.00000000000E+00 0.  1.
         21   -1    0    0  501  502 -0.00000000000E+00 -0.00000000000E+00 -0.28030967322E+03  0.28030967322E+03  0.00000000000E+00 0.  1.
      99926    2    1    2    0    0  0.00000000000E+00  0.00000000000E+00 -0.96455565105E+02  0.46416378133E+03  0.45403121022E+03 0.  0.
      99925    2    3    3    0    0 -0.88687449525E+02 -0.67641116285E+02 -0.48533685785E+02  0.28985142109E+03  0.26309227152E+03 0.  0.
         25    1    4    4    0    0 -0.27753134611E+02 -0.40099711971E+02 -0.60990740937E+02  0.14746390054E+03  0.12509000000E+03 0.  0.
         25    1    3    3    0    0  0.88687449525E+02  0.67641116285E+02 -0.47921879321E+02  0.17431236024E+03  0.12509000000E+03 0.  0.
         25    1    4    4    0    0 -0.60934314914E+02 -0.27541404314E+02  0.12457055153E+02  0.14238752055E+03  0.12509000000E+03 0.  0.
<mgrwt>
<rscale>  2 0.45403121E+03</rscale>
<asrwt>0</asrwt>
<pdfrwt beam="1">  1       21 0.27037369E-01 0.45403121E+03</pdfrwt>
<pdfrwt beam="2">  1       21 0.41222011E-01 0.45403121E+03</pdfrwt>
<totfact> 0.68397002E+04</totfact>
</mgrwt>
</event>
<event>
 7    0  0.4788920E-002  0.4616101E+03  0.7546771E-02  0.1024315E+00
         21   -1    0    0  502  501  0.00000000000E+00  0.00000000000E+00  0.11468850393E+03  0.11468850393E+03  0.00000000000E+00 0. -1.
         21   -1    0    0  501  502 -0.00000000000E+00 -0.00000000000E+00 -0.46448397650E+03  0.46448397650E+03  0.00000000000E+00 0. -1.
      99926    2    1    2    0    0  0.00000000000E+00  0.00000000000E+00 -0.34979547257E+03  0.57917248043E+03  0.46161010545E+03 0.  0.
      99925    2    3    3    0    0 -0.28766446135E+02 -0.10767232017E+03 -0.27209928282E+03  0.39449697324E+03  0.26300000994E+03 0.  0.
         25    1    4    4    0    0 -0.47347673521E+02 -0.29839840692E+02 -0.13595291993E+03  0.19303606610E+03  0.12509000000E+03 0.  0.
         25    1    3    3    0    0  0.28766446135E+02  0.10767232017E+03 -0.77696189753E+02  0.18467550719E+03  0.12509000000E+03 0.  0.
         25    1    4    4    0    0  0.18581227386E+02 -0.77832479482E+02 -0.13614636289E+03  0.20146090713E+03  0.12509000000E+03 0.  0.
<mgrwt>
<rscale>  2 0.46161011E+03</rscale>
<asrwt>0</asrwt>
<pdfrwt beam="1">  1       21 0.16865957E-01 0.46161011E+03</pdfrwt>
<pdfrwt beam="2">  1       21 0.68306466E-01 0.46161011E+03</pdfrwt>
<totfact> 0.56944168E+04</totfact>
</mgrwt>
</event>
<event>
 7    0  0.4788920E-002  0.4586644E+03  0.7546771E-02  0.1025169E+00
         21   -1    0    0  502  501  0.00000000000E+00  0.00000000000E+00  0.45326668422E+03  0.45326668422E+03  0.00000000000E+00 0.  1.
         21   -1    0    0  501  502 -0.00000000000E+00 -0.00000000000E+00 -0.11603159071E+03  0.11603159071E+03  0.00000000000E+00 0.  1.
      99926    2    1    2    0    0  0.00000000000E+00  0.00000000000E+00  0.33723509350E+03  0.56929827493E+03  0.45866438443E+03 0.  0.
      99925    2    3    3    0    0  0.74801099807E+02  0.64502505072E+02  0.13488721419E+03  0.31171731667E+03  0.26309189890E+03 0.  0.
         25    1    3    3    0    0 -0.74801099807E+02 -0.64502505072E+02  0.20234787931E+03  0.25758095825E+03  0.12509000000E+03 0.  0.
         25    1    4    4    0    0 -0.23398484246E+01  0.15443733835E+02  0.58461141036E+02  0.13895753638E+03  0.12509000000E+03 0.  0.
         25    1    4    4    0    0  0.77140948232E+02  0.49058771237E+02  0.76426073158E+02  0.17275978030E+03  0.12509000000E+03 0.  0.
<mgrwt>
<rscale>  2 0.45866438E+03</rscale>
<asrwt>0</asrwt>
<pdfrwt beam="1">  1       21 0.66656864E-01 0.45866438E+03</pdfrwt>
<pdfrwt beam="2">  1       21 0.17063469E-01 0.45866438E+03</pdfrwt>
<totfact> 0.58884001E+04</totfact>
</mgrwt>
</event>
<event>
 7    0  0.4788920E-002  0.4525212E+03  0.7546771E-02  0.1026973E+00
         21   -1    0    0  502  501  0.00000000000E+00  0.00000000000E+00  0.36649377480E+02  0.36649377480E+02  0.00000000000E+00 0.  1.
         21   -1    0    0  501  502 -0.00000000000E+00 -0.00000000000E+00 -0.13968546756E+04  0.13968546756E+04  0.00000000000E+00 0.  1.
      99926    2    1    2    0    0  0.00000000000E+00  0.35527136788E-14 -0.13602052981E+04  0.14335040530E+04  0.45252117869E+03 0.  0.
      99925    2    3    3    0    0 -0.67930778569E+02  0.19294332365E+02 -0.11283865227E+04  0.11607875067E+04  0.26302971147E+03 0.  0.
         25    1    4    4    0    0 -0.44105723776E+02  0.43081201119E+02 -0.49387310262E+03  0.51318559445E+03  0.12509000000E+03 0.  0.
         25    1    4    4    0    0 -0.23825054793E+02 -0.23786868754E+02 -0.63451342011E+03  0.64760191226E+03  0.12509000000E+03 0.  0.
         25    1    3    3    0    0  0.67930778569E+02 -0.19294332365E+02 -0.23181877535E+03  0.27271654633E+03  0.12509000000E+03 0.  0.
<mgrwt>
<rscale>  2 0.45252118E+03</rscale>
<asrwt>0</asrwt>
<pdfrwt beam="1">  1       21 0.53896151E-02 0.45252118E+03</pdfrwt>
<pdfrwt beam="2">  1       21 0.20541978E+00 0.45252118E+03</pdfrwt>
<totfact> 0.25948930E+04</totfact>
</mgrwt>
</event>
<event>
 7    0  0.4788920E-002  0.4536401E+03  0.7546771E-02  0.1026642E+00
         21   -1    0    0  502  501  0.00000000000E+00  0.00000000000E+00  0.79110195827E+03  0.79110195827E+03  0.00000000000E+00 0. -1.
         21   -1    0    0  501  502 -0.00000000000E+00 -0.00000000000E+00 -0.65032497054E+02  0.65032497054E+02  0.00000000000E+00 0. -1.
      99926    2    1    2    0    0  0.66613381478E-15  0.00000000000E+00  0.72606946122E+03  0.85613445532E+03  0.45364010304E+03 0.  0.
      99925    2    3    3    0    0  0.77201407072E+00  0.82397197977E+01  0.66805978044E+03  0.71800002749E+03  0.26296707067E+03 0.  0.
         25    1    3    3    0    0 -0.77201407072E+00 -0.82397197977E+01  0.58009680779E+02  0.13813442783E+03  0.12509000000E+03 0.  0.
         25    1    4    4    0    0  0.28121718134E+02  0.11252449714E+02  0.41296846454E+03  0.43255971779E+03  0.12509000000E+03 0.  0.
         25    1    4    4    0    0 -0.27349704063E+02 -0.30127299164E+01  0.25509131590E+03  0.28544030970E+03  0.12509000000E+03 0.  0.
<mgrwt>
<rscale>  2 0.45364010E+03</rscale>
<asrwt>0</asrwt>
<pdfrwt beam="1">  1       21 0.11633852E+00 0.45364010E+03</pdfrwt>
<pdfrwt beam="2">  1       21 0.95636030E-02 0.45364010E+03</pdfrwt>
<totfact> 0.45651200E+04</totfact>
</mgrwt>
</event>
<event>
 7    0  0.4788920E-002  0.4543083E+03  0.7546771E-02  0.1026445E+00
         21   -1    0    0  502  501  0.00000000000E+00  0.00000000000E+00  0.22879767395E+03  0.22879767395E+03  0.00000000000E+00 0. -1.
         21   -1    0    0  501  502 -0.00000000000E+00 -0.00000000000E+00 -0.22552241012E+03  0.22552241012E+03  0.00000000000E+00 0. -1.
      99926    2    1    2    0    0  0.17763568394E-14  0.14210854715E-13  0.32752638345E+01  0.45432008407E+03  0.45430827798E+03 0.  0.
      99925    2    3    3    0    0 -0.15580366371E+02 -0.88002254294E+02  0.70278883914E+02  0.28661755642E+03  0.26310332105E+03 0.  0.
         25    1    3    3    0    0  0.15580366371E+02  0.88002254294E+02 -0.67003620080E+02  0.16770252765E+03  0.12509000000E+03 0.  0.
         25    1    4    4    0    0 -0.21091607559E+02 -0.63976389992E+01  0.46608801923E+02  0.13529846345E+03  0.12509000000E+03 0.  0.
         25    1    4    4    0    0  0.55112411882E+01 -0.81604615295E+02  0.23670081992E+02  0.15131909297E+03  0.12509000000E+03 0.  0.
<mgrwt>
<rscale>  2 0.45430828E+03</rscale>
<asrwt>0</asrwt>
<pdfrwt beam="1">  1       21 0.33646717E-01 0.45430828E+03</pdfrwt>
<pdfrwt beam="2">  1       21 0.33165060E-01 0.45430828E+03</pdfrwt>
<totfact> 0.68975535E+04</totfact>
</mgrwt>
</event>
<event>
 7    0  0.4788920E-002  0.4492480E+03  0.7546771E-02  0.1027947E+00
         21   -1    0    0  502  501  0.00000000000E+00  0.00000000000E+00  0.26017645021E+04  0.26017645021E+04  0.00000000000E+00 0.  1.
         21   -1    0    0  501  502 -0.00000000000E+00 -0.00000000000E+00 -0.19392966789E+02  0.19392966789E+02  0.00000000000E+00 0.  1.
      99926    2    1    2    0    0 -0.35527136788E-14 -0.11102230246E-14  0.25823715353E+04  0.26211574689E+04  0.44924796085E+03 0.  0.
      99925    2    3    3    0    0 -0.17493510430E+02  0.14311118747E+01  0.22534743066E+04  0.22688380596E+04  0.26300497965E+03 0.  0.
         25    1    4    4    0    0 -0.25337817954E+02  0.31977280536E+02  0.13085527850E+04  0.13151511133E+04  0.12509000000E+03 0.  0.
         25    1    3    3    0    0  0.17493510430E+02 -0.14311118747E+01  0.32889722870E+03  0.35231940925E+03  0.12509000000E+03 0.  0.
         25    1    4    4    0    0  0.78443075244E+01 -0.30546168661E+02  0.94492152159E+03  0.95368694635E+03  0.12509000000E+03 0.  0.
<mgrwt>
<rscale>  2 0.44924796E+03</rscale>
<asrwt>0</asrwt>
<pdfrwt beam="1">  1       21 0.38261219E+00 0.44924796E+03</pdfrwt>
<pdfrwt beam="2">  1       21 0.28519087E-02 0.44924796E+03</pdfrwt>
<totfact> 0.62445796E+03</totfact>
</mgrwt>
</event>
<event>
 7    0  0.4788920E-002  0.4548425E+03  0.7546771E-02  0.1026288E+00
         21   -1    0    0  502  501  0.00000000000E+00  0.00000000000E+00  0.11265551462E+03  0.11265551462E+03  0.00000000000E+00 0. -1.
         21   -1    0    0  501  502 -0.00000000000E+00 -0.00000000000E+00 -0.45910248379E+03  0.45910248379E+03  0.00000000000E+00 0. -1.
      99926    2    1    2    0    0  0.00000000000E+00 -0.14210854715E-13 -0.34644696917E+03  0.57175799841E+03  0.45484250713E+03 0.  0.
      99925    2    3    3    0    0 -0.87404656331E+02 -0.68835367582E+02 -0.19383666314E+03  0.34522920248E+03  0.26312101491E+03 0.  0.
         25    1    4    4    0    0 -0.57385459021E+02 -0.75225906189E+02 -0.10904101038E+03  0.19102219220E+03  0.12509000000E+03 0.  0.
         25    1    3    3    0    0  0.87404656331E+02  0.68835367582E+02 -0.15261030603E+03  0.22652879593E+03  0.12509000000E+03 0.  0.
         25    1    4    4    0    0 -0.30019197310E+02  0.63905386066E+01 -0.84795652761E+02  0.15420701028E+03  0.12509000000E+03 0.  0.
<mgrwt>
<rscale>  2 0.45484251E+03</rscale>
<asrwt>0</asrwt>
<pdfrwt beam="1">  1       21 0.16566988E-01 0.45484251E+03</pdfrwt>
<pdfrwt beam="2">  1       21 0.67515070E-01 0.45484251E+03</pdfrwt>
<totfact> 0.60526551E+04</totfact>
</mgrwt>
</event>
<event>
 7    0  0.4788920E-002  0.4500274E+03  0.7546771E-02  0.1027714E+00
         21   -1    0    0  502  501  0.00000000000E+00  0.00000000000E+00  0.34464518191E+02  0.34464518191E+02  0.00000000000E+00 0. -1.
         21   -1    0    0  501  502 -0.00000000000E+00 -0.00000000000E+00 -0.14690809978E+04  0.14690809978E+04  0.00000000000E+00 0. -1.
      99926    2    1    2    0    0  0.00000000000E+00 -0.71054273576E-14 -0.14346164796E+04  0.15035455160E+04  0.45002741593E+03 0.  0.
      99925    2    3    3    0    0 -0.48822579597E+02 -0.52851157625E+02 -0.63592096099E+03  0.69191818235E+03  0.26301789541E+03 0.  0.
         25    1    4    4    0    0 -0.36681396178E+02  0.42821700112E+01 -0.36966094233E+03  0.39199564052E+03  0.12509000000E+03 0.  0.
         25    1    3    3    0    0  0.48822579597E+02  0.52851157625E+02 -0.79869551862E+03  0.81162733364E+03  0.12509000000E+03 0.  0.
         25    1    4    4    0    0 -0.12141183418E+02 -0.57133327636E+02 -0.26626001866E+03  0.29992254183E+03  0.12509000000E+03 0.  0.
<mgrwt>
<rscale>  2 0.45002742E+03</rscale>
<asrwt>0</asrwt>
<pdfrwt beam="1">  1       21 0.50683134E-02 0.45002742E+03</pdfrwt>
<pdfrwt beam="2">  1       21 0.21604124E+00 0.45002742E+03</pdfrwt>
<totfact> 0.24630025E+04</totfact>
</mgrwt>
</event>
<event>
 7    0  0.4788920E-002  0.4549240E+03  0.7546771E-02  0.1026264E+00
         21   -1    0    0  502  501  0.00000000000E+00  0.00000000000E+00  0.82701596269E+02  0.82701596269E+02  0.00000000000E+00 0. -1.
         21   -1    0    0  501  502 -0.00000000000E+00 -0.00000000000E+00 -0.62561020545E+03  0.62561020545E+03  0.00000000000E+00 0. -1.
      99926    2    1    2    0    0  0.00000000000E+00 -0.35527136788E-14 -0.54290860918E+03  0.70831180172E+03  0.45492400523E+03 0.  0.
      99925    2    3    3    0    0  0.37067290985E+02 -0.30132924866E+02 -0.50118628600E+03  0.56806117757E+03  0.26310422073E+03 0.  0.
         25    1    4    4    0    0  0.35337281924E+02 -0.51958442682E+02 -0.24669182797E+03  0.28364197388E+03  0.12509000000E+03 0.  0.
         25    1    3    3    0    0 -0.37067290985E+02  0.30132924866E+02 -0.41722323177E+02  0.14025062415E+03  0.12509000000E+03 0.  0.
         25    1    4    4    0    0  0.17300090612E+01  0.21825517816E+02 -0.25449445804E+03  0.28441920369E+03  0.12509000000E+03 0.  0.
<mgrwt>
<rscale>  2 0.45492401E+03</rscale>
<asrwt>0</asrwt>
<pdfrwt beam="1">  1       21 0.12161999E-01 0.45492401E+03</pdfrwt>
<pdfrwt beam="2">  1       21 0.92001503E-01 0.45492401E+03</pdfrwt>
<totfact> 0.52485382E+04</totfact>
</mgrwt>
</event>
<event>
 7    0  0.4788920E-002  0.4592595E+03  0.7546771E-02  0.1024996E+00
         21   -1    0    0  502  501  0.00000000000E+00  0.00000000000E+00  0.82747571939E+02  0.82747571939E+02  0.00000000000E+00 0.  1.
         21   -1    0    0  501  502 -0.00000000000E+00 -0.00000000000E+00 -0.63723718161E+03  0.63723718161E+03  0.00000000000E+00 0.  1.
      99926    2    1    2    0    0  0.00000000000E+00  0.00000000000E+00 -0.55448960967E+03  0.71998475355E+03  0.45925953241E+03 0.  0.
      99925    2    3    3    0    0  0.10382715472E+03  0.47979089895E+02 -0.30831116793E+03  0.42109781104E+03  0.26303140319E+03 0.  0.
         25    1    4    4    0    0  0.48877596764E+02  0.81461329054E+01 -0.20511127049E+03  0.24530291545E+03  0.12509000000E+03 0.  0.
         25    1    4    4    0    0  0.54949557960E+02  0.39832956989E+02 -0.10319989743E+03  0.17579489558E+03  0.12509000000E+03 0.  0.
         25    1    3    3    0    0 -0.10382715472E+03 -0.47979089895E+02 -0.24617844174E+03  0.29888694251E+03  0.12509000000E+03 0.  0.
<mgrwt>
<rscale>  2 0.45925953E+03</rscale>
<asrwt>0</asrwt>
<pdfrwt beam="1">  1       21 0.12168760E-01 0.45925953E+03</pdfrwt>
<pdfrwt beam="2">  1       21 0.93711353E-01 0.45925953E+03</pdfrwt>
<totfact> 0.50130542E+04</totfact>
</mgrwt>
</event>
<event>
 7    0  0.4788920E-002  0.4508616E+03  0.7546771E-02  0.1027465E+00
         21   -1    0    0  502  501  0.00000000000E+00  0.00000000000E+00  0.20591053580E+04  0.20591053580E+04  0.00000000000E+00 0.  1.
         21   -1    0    0  501  502 -0.00000000000E+00 -0.00000000000E+00 -0.24680154292E+02  0.24680154292E+02  0.00000000000E+00 0.  1.
      99926    2    1    2    0    0  0.00000000000E+00  0.00000000000E+00  0.20344252037E+04  0.20837855123E+04  0.45086156606E+03 0.  0.
      99925    2    3    3    0    0 -0.93268816961E+02 -0.55439193960E+02  0.12221819241E+04  0.12548348323E+04  0.26288633358E+03 0.  0.
         25    1    3    3    0    0  0.93268816961E+02  0.55439193960E+02  0.81224327960E+03  0.82895067996E+03  0.12509000000E+03 0.  0.
         25    1    4    4    0    0 -0.37625347183E+02 -0.49324749351E+01  0.72458066145E+03  0.73627755576E+03  0.12509000000E+03 0.  0.
         25    1    4    4    0    0 -0.55643469777E+02 -0.50506719025E+02  0.49760126261E+03  0.51855727653E+03  0.12509000000E+03 0.  0.
<mgrwt>
<rscale>  2 0.45086157E+03</rscale>
<asrwt>0</asrwt>
<pdfrwt beam="1">  1       21 0.30280949E+00 0.45086157E+03</pdfrwt>
<pdfrwt beam="2">  1       21 0.36294359E-02 0.45086157E+03</pdfrwt>
<totfact> 0.12796015E+04</totfact>
</mgrwt>
</event>
<event>
 7    0  0.4788920E-002  0.4450591E+03  0.7546771E-02  0.1029206E+00
         21   -1    0    0  502  501  0.00000000000E+00  0.00000000000E+00  0.87438579616E+03  0.87438579616E+03  0.00000000000E+00 0. -1.
         21   -1    0    0  501  502 -0.00000000000E+00 -0.00000000000E+00 -0.56633347860E+02  0.56633347860E+02  0.00000000000E+00 0. -1.
      99926    2    1    2    0    0  0.00000000000E+00  0.14210854715E-13  0.81775244830E+03  0.93101914402E+03  0.44505907454E+03 0.  0.
      99925    2    3    3    0    0 -0.49788299310E+02 -0.86521918880E+02  0.46135729206E+03  0.54034033388E+03  0.26296807467E+03 0.  0.
         25    1    4    4    0    0 -0.98723337263E+00 -0.76501158953E+02  0.24032100038E+03  0.28152281128E+03  0.12509000000E+03 0.  0.
         25    1    4    4    0    0 -0.48801065937E+02 -0.10020759928E+02  0.22103629168E+03  0.25881752260E+03  0.12509000000E+03 0.  0.
         25    1    3    3    0    0  0.49788299310E+02  0.86521918880E+02  0.35639515625E+03  0.39067881014E+03  0.12509000000E+03 0.  0.
<mgrwt>
<rscale>  2 0.44505907E+03</rscale>
<asrwt>0</asrwt>
<pdfrwt beam="1">  1       21 0.12858614E+00 0.44505907E+03</pdfrwt>
<pdfrwt beam="2">  1       21 0.83284340E-02 0.44505907E+03</pdfrwt>
<totfact> 0.45343284E+04</totfact>
</mgrwt>
</event>
<event>
 7    0  0.4788920E-002  0.4009063E+03  0.7546771E-02  0.1043466E+00
         21   -1    0    0  502  501  0.00000000000E+00  0.00000000000E+00  0.11092732153E+03  0.11092732153E+03  0.00000000000E+00 0. -1.
         21   -1    0    0  501  502 -0.00000000000E+00 -0.00000000000E+00 -0.36223233619E+03  0.36223233619E+03  0.00000000000E+00 0. -1.
      99926    2    1    2    0    0  0.00000000000E+00  0.00000000000E+00 -0.25130501466E+03  0.47315965771E+03  0.40090628742E+03 0.  0.
      99925    2    3    3    0    0  0.27315209502E+02  0.37863069764E+02 -0.16006564987E+03  0.31144428272E+03  0.26305283927E+03 0.  0.
         25    1    4    4    0    0 -0.58244082282E+01  0.54305764131E+02 -0.88221195935E+02  0.16252239003E+03  0.12509000000E+03 0.  0.
         25    1    4    4    0    0  0.33139617730E+02 -0.16442694367E+02 -0.71844453940E+02  0.14892189269E+03  0.12509000000E+03 0.  0.
         25    1    3    3    0    0 -0.27315209502E+02 -0.37863069764E+02 -0.91239364784E+02  0.16171537499E+03  0.12509000000E+03 0.  0.
<mgrwt>
<rscale>  2 0.40090629E+03</rscale>
<asrwt>0</asrwt>
<pdfrwt beam="1">  1       21 0.16312841E-01 0.40090629E+03</pdfrwt>
<pdfrwt beam="2">  1       21 0.53269461E-01 0.40090629E+03</pdfrwt>
<totfact> 0.10583662E+05</totfact>
</mgrwt>
</event>
<event>
 7    0  0.4788920E-002  0.4549278E+03  0.7546771E-02  0.1026263E+00
         21   -1    0    0  502  501  0.00000000000E+00  0.00000000000E+00  0.16810977306E+03  0.16810977306E+03  0.00000000000E+00 0. -1.
         21   -1    0    0  501  502 -0.00000000000E+00 -0.00000000000E+00 -0.30777407550E+03  0.30777407550E+03  0.00000000000E+00 0. -1.
      99926    2    1    2    0    0  0.00000000000E+00  0.71054273576E-14 -0.13966430244E+03  0.47588384855E+03  0.45492781838E+03 0.  0.
      99925    2    3    3    0    0  0.10200356664E+03  0.39580972222E+02 -0.11727124613E+03  0.30819265010E+03  0.26317063559E+03 0.  0.
         25    1    4    4    0    0  0.80162989800E+02  0.79917160728E+01 -0.91968239669E+02  0.17491608750E+03  0.12509000000E+03 0.  0.
         25    1    4    4    0    0  0.21840576841E+02  0.31589256149E+02 -0.25303006457E+02  0.13327656259E+03  0.12509000000E+03 0.  0.
         25    1    3    3    0    0 -0.10200356664E+03 -0.39580972222E+02 -0.22393056314E+02  0.16769119846E+03  0.12509000000E+03 0.  0.
<mgrwt>
<rscale>  2 0.45492782E+03</rscale>
<asrwt>0</asrwt>
<pdfrwt beam="1">  1       21 0.24722026E-01 0.45492782E+03</pdfrwt>
<pdfrwt beam="2">  1       21 0.45260893E-01 0.45492782E+03</pdfrwt>
<totfact> 0.67039362E+04</totfact>
</mgrwt>
</event>
<event>
 7    0  0.4788920E-002  0.4448546E+03  0.7546771E-02  0.1029268E+00
         21   -1    0    0  502  501  0.00000000000E+00  0.00000000000E+00  0.30333250095E+03  0.30333250095E+03  0.00000000000E+00 0. -1.
         21   -1    0    0  501  502 -0.00000000000E+00 -0.00000000000E+00 -0.16310122659E+03  0.16310122659E+03  0.00000000000E+00 0. -1.
      99926    2    1    2    0    0  0.00000000000E+00  0.00000000000E+00  0.14023127436E+03  0.46643372754E+03  0.44485459633E+03 0.  0.
      99925    2    3    3    0    0  0.64278861363E+02  0.78795907526E+02  0.10904940211E+03  0.30223755122E+03  0.26289769533E+03 0.  0.
         25    1    4    4    0    0  0.15815481351E+01  0.12613582588E+02  0.63675650726E+02  0.14093864039E+03  0.12509000000E+03 0.  0.
         25    1    3    3    0    0 -0.64278861363E+02 -0.78795907526E+02  0.31181872248E+02  0.16419617632E+03  0.12509000000E+03 0.  0.
         25    1    4    4    0    0  0.62697313228E+02  0.66182324938E+02  0.45373751381E+02  0.16129891083E+03  0.12509000000E+03 0.  0.
<mgrwt>
<rscale>  2 0.44485460E+03</rscale>
<asrwt>0</asrwt>
<pdfrwt beam="1">  1       21 0.44607720E-01 0.44485460E+03</pdfrwt>
<pdfrwt beam="2">  1       21 0.23985475E-01 0.44485460E+03</pdfrwt>
<totfact> 0.73437825E+04</totfact>
</mgrwt>
</event>
<event>
 7    0  0.4788920E-002  0.4505785E+03  0.7546771E-02  0.1027550E+00
         21   -1    0    0  502  501  0.00000000000E+00  0.00000000000E+00  0.60923986931E+03  0.60923986931E+03  0.00000000000E+00 0. -1.
         21   -1    0    0  501  502 -0.00000000000E+00 -0.00000000000E+00 -0.83309132177E+02  0.83309132177E+02  0.00000000000E+00 0. -1.
      99926    2    1    2    0    0  0.00000000000E+00  0.71054273576E-14  0.52593073714E+03  0.69254900149E+03  0.45057849394E+03 0.  0.
      99925    2    3    3    0    0  0.91459613033E+02 -0.32883759372E+02  0.40782977503E+03  0.49495966019E+03  0.26308503827E+03 0.  0.
         25    1    3    3    0    0 -0.91459613033E+02  0.32883759372E+02  0.11810096210E+03  0.19758934130E+03  0.12509000000E+03 0.  0.
         25    1    4    4    0    0  0.81021900766E+02  0.54122539363E+01  0.21060282434E+03  0.25805987409E+03  0.12509000000E+03 0.  0.
         25    1    4    4    0    0  0.10437712267E+02 -0.38296013309E+02  0.19722695069E+03  0.23689978610E+03  0.12509000000E+03 0.  0.
<mgrwt>
<rscale>  2 0.45057849E+03</rscale>
<asrwt>0</asrwt>
<pdfrwt beam="1">  1       21 0.89594096E-01 0.45057849E+03</pdfrwt>
<pdfrwt beam="2">  1       21 0.12251343E-01 0.45057849E+03</pdfrwt>
<totfact> 0.55205816E+04</totfact>
</mgrwt>
</event>
<event>
 7    0  0.4788920E-002  0.4845649E+03  0.7546771E-02  0.1017888E+00
         21   -1    0    0  502  501  0.00000000000E+00  0.00000000000E+00  0.25790044070E+03  0.25790044070E+03  0.00000000000E+00 0.  1.
         21   -1    0    0  501  502 -0.00000000000E+00 -0.00000000000E+00 -0.22761023415E+03  0.22761023415E+03  0.00000000000E+00 0.  1.
      99926    2    1    2    0    0  0.00000000000E+00  0.00000000000E+00  0.30290206556E+02  0.48551067485E+03  0.48456487572E+03 0.  0.
      99925    2    3    3    0    0  0.10882940841E+02 -0.39644172235E+02  0.15159832771E+03  0.30647641234E+03  0.26316466245E+03 0.  0.
         25    1    4    4    0    0  0.10405365374E+01 -0.57379497843E+02  0.60121287672E+02  0.15018510852E+03  0.12509000000E+03 0.  0.
         25    1    3    3    0    0 -0.10882940841E+02  0.39644172235E+02 -0.12130812116E+03  0.17903426251E+03  0.12509000000E+03 0.  0.
         25    1    4    4    0    0  0.98424043036E+01  0.17735325608E+02  0.91477040039E+02  0.15629130382E+03  0.12509000000E+03 0.  0.
<mgrwt>
<rscale>  2 0.48456488E+03</rscale>
<asrwt>0</asrwt>
<pdfrwt beam="1">  1       21 0.37926536E-01 0.48456488E+03</pdfrwt>
<pdfrwt beam="2">  1       21 0.33472093E-01 0.48456488E+03</pdfrwt>
<totfact> 0.52774375E+04</totfact>
</mgrwt>
</event>
<event>
 7    0  0.4788920E-002  0.4499926E+03  0.7546771E-02  0.1027724E+00
         21   -1    0    0  502  501  0.00000000000E+00  0.00000000000E+00  0.78021623340E+02  0.78021623340E+02  0.00000000000E+00 0.  1.
         21   -1    0    0  501  502 -0.00000000000E+00 -0.00000000000E+00 -0.64883711142E+03  0.64883711142E+03  0.00000000000E+00 0.  1.
      99926    2    1    2    0    0  0.00000000000E+00  0.00000000000E+00 -0.57081548808E+03  0.72685873476E+03  0.44999255423E+03 0.  0.
      99925    2    3    3    0    0  0.27590438734E+02  0.37005607297E+02 -0.20305152732E+03  0.33567017893E+03  0.26327532925E+03 0.  0.
         25    1    4    4    0    0 -0.24855774317E+02  0.31867599912E+02 -0.95368074345E+02  0.16240668442E+03  0.12509000000E+03 0.  0.
         25    1    4    4    0    0  0.52446213051E+02  0.51380073852E+01 -0.10768345298E+03  0.17326349450E+03  0.12509000000E+03 0.  0.
         25    1    3    3    0    0 -0.27590438734E+02 -0.37005607297E+02 -0.36776396076E+03  0.39118855583E+03  0.12509000000E+03 0.  0.
<mgrwt>
<rscale>  2 0.44999255E+03</rscale>
<asrwt>0</asrwt>
<pdfrwt beam="1">  1       21 0.11473768E-01 0.44999255E+03</pdfrwt>
<pdfrwt beam="2">  1       21 0.95417224E-01 0.44999255E+03</pdfrwt>
<totfact> 0.53546550E+04</totfact>
</mgrwt>
</event>
<event>
 7    0  0.4788920E-002  0.4565460E+03  0.7546771E-02  0.1025788E+00
         21   -1    0    0  502  501  0.00000000000E+00  0.00000000000E+00  0.13821151489E+03  0.13821151489E+03  0.00000000000E+00 0. -1.
         21   -1    0    0  501  502 -0.00000000000E+00 -0.00000000000E+00 -0.37702041441E+03  0.37702041441E+03  0.00000000000E+00 0. -1.
      99926    2    1    2    0    0  0.14210854715E-13  0.00000000000E+00 -0.23880889952E+03  0.51523192930E+03  0.45654600039E+03 0.  0.
      99925    2    3    3    0    0  0.80656778539E+02  0.78262837141E+02 -0.17539169354E+03  0.33551037323E+03  0.26301022181E+03 0.  0.
         25    1    3    3    0    0 -0.80656778539E+02 -0.78262837141E+02 -0.63417205980E+02  0.17972155607E+03  0.12509000000E+03 0.  0.
         25    1    4    4    0    0  0.56413365371E+02  0.12857442904E+02 -0.11719495614E+03  0.18091419921E+03  0.12509000000E+03 0.  0.
         25    1    4    4    0    0  0.24243413168E+02  0.65405394237E+02 -0.58196737404E+02  0.15459617402E+03  0.12509000000E+03 0.  0.
<mgrwt>
<rscale>  2 0.45654600E+03</rscale>
<asrwt>0</asrwt>
<pdfrwt beam="1">  1       21 0.20325223E-01 0.45654600E+03</pdfrwt>
<pdfrwt beam="2">  1       21 0.55444177E-01 0.45654600E+03</pdfrwt>
<totfact> 0.63431534E+04</totfact>
</mgrwt>
</event>
<event>
 7    0  0.4788920E-002  0.4570364E+03  0.7546771E-02  0.1025644E+00
         21   -1    0    0  502  501  0.00000000000E+00  0.00000000000E+00  0.95288065863E+02  0.95288065863E+02  0.00000000000E+00 0.  1.
         21   -1    0    0  501  502 -0.00000000000E+00 -0.00000000000E+00 -0.54802832341E+03  0.54802832341E+03  0.00000000000E+00 0.  1.
      99926    2    1    2    0    0  0.00000000000E+00  0.35527136788E-14 -0.45274025755E+03  0.64331638927E+03  0.45703636169E+03 0.  0.
      99925    2    3    3    0    0  0.40612795111E+02  0.27858182742E+02 -0.13816210466E+03  0.30121640411E+03  0.26309138616E+03 0.  0.
         25    1    4    4    0    0  0.31262533380E+02  0.53221046230E+02 -0.66317237512E+02  0.15445164242E+03  0.12509000000E+03 0.  0.
         25    1    3    3    0    0 -0.40612795111E+02 -0.27858182742E+02 -0.31457815289E+03  0.34209998516E+03  0.12509000000E+03 0.  0.
         25    1    4    4    0    0  0.93502617314E+01 -0.25362863488E+02 -0.71844867144E+02  0.14676476169E+03  0.12509000000E+03 0.  0.
<mgrwt>
<rscale>  2 0.45703636E+03</rscale>
<asrwt>0</asrwt>
<pdfrwt beam="1">  1       21 0.14012951E-01 0.45703636E+03</pdfrwt>
<pdfrwt beam="2">  1       21 0.80592401E-01 0.45703636E+03</pdfrwt>
<totfact> 0.55195901E+04</totfact>
</mgrwt>
</event>
<event>
 7    0  0.4788920E-002  0.4554099E+03  0.7546771E-02  0.1026121E+00
         21   -1    0    0  502  501  0.00000000000E+00  0.00000000000E+00  0.75598495874E+03  0.75598495874E+03  0.00000000000E+00 0.  1.
         21   -1    0    0  501  502 -0.00000000000E+00 -0.00000000000E+00 -0.68585417930E+02  0.68585417930E+02  0.00000000000E+00 0.  1.
      99926    2    1    2    0    0  0.26645352591E-14  0.00000000000E+00  0.68739954081E+03  0.82457037667E+03  0.45540990039E+03 0.  0.
      99925    2    3    3    0    0  0.46906108402E+01  0.45630751994E+02  0.24463428930E+03  0.36219310279E+03  0.26312305267E+03 0.  0.
         25    1    3    3    0    0 -0.46906108402E+01 -0.45630751994E+02  0.44276525151E+03  0.46237727388E+03  0.12509000000E+03 0.  0.
         25    1    4    4    0    0 -0.28891522193E+02  0.15491399267E+01  0.97027649407E+02  0.16093163996E+03  0.12509000000E+03 0.  0.
         25    1    4    4    0    0  0.33582133033E+02  0.44081612068E+02  0.14760663990E+03  0.20126146284E+03  0.12509000000E+03 0.  0.
<mgrwt>
<rscale>  2 0.45540990E+03</rscale>
<asrwt>0</asrwt>
<pdfrwt beam="1">  1       21 0.11117425E+00 0.45540990E+03</pdfrwt>
<pdfrwt beam="2">  1       21 0.10086091E-01 0.45540990E+03</pdfrwt>
<totfact> 0.46449656E+04</totfact>
</mgrwt>
</event>
<event>
 7    0  0.4788920E-002  0.4541301E+03  0.7546771E-02  0.1026498E+00
         21   -1    0    0  502  501  0.00000000000E+00  0.00000000000E+00  0.45146553265E+03  0.45146553265E+03  0.00000000000E+00 0.  1.
         21   -1    0    0  501  502 -0.00000000000E+00 -0.00000000000E+00 -0.11420257493E+03  0.11420257493E+03  0.00000000000E+00 0.  1.
      99926    2    1    2    0    0  0.14210854715E-13  0.88817841970E-15  0.33726295771E+03  0.56566810758E+03  0.45413005328E+03 0.  0.
      99925    2    3    3    0    0 -0.69744502633E+02 -0.66964895494E+01  0.32160364246E+03  0.42143960529E+03  0.26319821322E+03 0.  0.
         25    1    4    4    0    0 -0.29759137412E+02 -0.56946376025E+01  0.22200029337E+03  0.25661191226E+03  0.12509000000E+03 0.  0.
         25    1    3    3    0    0  0.69744502633E+02  0.66964895494E+01  0.15659315255E+02  0.14422850229E+03  0.12509000000E+03 0.  0.
         25    1    4    4    0    0 -0.39985365221E+02 -0.10018519468E+01  0.99603349093E+02  0.16482769303E+03  0.12509000000E+03 0.  0.
<mgrwt>
<rscale>  2 0.45413005E+03</rscale>
<asrwt>0</asrwt>
<pdfrwt beam="1">  1       21 0.66391989E-01 0.45413005E+03</pdfrwt>
<pdfrwt beam="2">  1       21 0.16794496E-01 0.45413005E+03</pdfrwt>
<totfact> 0.61263285E+04</totfact>
</mgrwt>
</event>
<event>
 7    0  0.4788920E-002  0.4527720E+03  0.7546771E-02  0.1026899E+00
         21   -1    0    0  502  501  0.00000000000E+00  0.00000000000E+00  0.19797428619E+03  0.19797428619E+03  0.00000000000E+00 0.  1.
         21   -1    0    0  501  502 -0.00000000000E+00 -0.00000000000E+00 -0.25887515321E+03  0.25887515321E+03  0.00000000000E+00 0.  1.
      99926    2    1    2    0    0  0.35527136788E-14  0.00000000000E+00 -0.60900867015E+02  0.45684943940E+03  0.45277201181E+03 0.  0.
      99925    2    3    3    0    0  0.25960584724E+02 -0.35543956914E+02 -0.14084266210E+03  0.30200912316E+03  0.26350622416E+03 0.  0.
         25    1    4    4    0    0  0.16700542070E+02 -0.83136403787E+01 -0.11529201649E+03  0.17113673448E+03  0.12509000000E+03 0.  0.
         25    1    3    3    0    0 -0.25960584724E+02  0.35543956914E+02  0.79941795081E+02  0.15484031624E+03  0.12509000000E+03 0.  0.
         25    1    4    4    0    0  0.92600426536E+01 -0.27230316536E+02 -0.25550645608E+02  0.13087238868E+03  0.12509000000E+03 0.  0.
<mgrwt>
<rscale>  2 0.45277201E+03</rscale>
<asrwt>0</asrwt>
<pdfrwt beam="1">  1       21 0.29113866E-01 0.45277201E+03</pdfrwt>
<pdfrwt beam="2">  1       21 0.38069875E-01 0.45277201E+03</pdfrwt>
<totfact> 0.69639927E+04</totfact>
</mgrwt>
</event>
<event>
 7    0  0.4788920E-002  0.4550805E+03  0.7546771E-02  0.1026218E+00
         21   -1    0    0  502  501  0.00000000000E+00  0.00000000000E+00  0.18313730779E+03  0.18313730779E+03  0.00000000000E+00 0.  1.
         21   -1    0    0  501  502 -0.00000000000E+00 -0.00000000000E+00 -0.28270901458E+03  0.28270901458E+03  0.00000000000E+00 0.  1.
      99926    2    1    2    0    0  0.35527136788E-14 -0.71054273576E-14 -0.99571706792E+02  0.46584632237E+03  0.45508051076E+03 0.  0.
      99925    2    3    3    0    0 -0.28772752408E+02 -0.50131732803E+02  0.36959422742E+02  0.27186354132E+03  0.26306410673E+03 0.  0.
         25    1    3    3    0    0  0.28772752408E+02  0.50131732803E+02 -0.13653112953E+03  0.19398278106E+03  0.12509000000E+03 0.  0.
         25    1    4    4    0    0 -0.46164128190E+02  0.32081561433E+00  0.19100805403E+02  0.13469810140E+03  0.12509000000E+03 0.  0.
         25    1    4    4    0    0  0.17391375782E+02 -0.50452548417E+02  0.17858617339E+02  0.13716543991E+03  0.12509000000E+03 0.  0.
<mgrwt>
<rscale>  2 0.45508051E+03</rscale>
<asrwt>0</asrwt>
<pdfrwt beam="1">  1       21 0.26931957E-01 0.45508051E+03</pdfrwt>
<pdfrwt beam="2">  1       21 0.41574855E-01 0.45508051E+03</pdfrwt>
<totfact> 0.67703146E+04</totfact>
</mgrwt>
</event>
<event>
 7    0  0.4788920E-002  0.4558060E+03  0.7546771E-02  0.1026005E+00
         21   -1    0    0  502  501  0.00000000000E+00  0.00000000000E+00  0.53306983400E+03  0.53306983400E+03  0.00000000000E+00 0.  1.
         21   -1    0    0  501  502 -0.00000000000E+00 -0.00000000000E+00 -0.97435235090E+02  0.97435235090E+02  0.00000000000E+00 0.  1.
      99926    2    1    2    0    0  0.00000000000E+00  0.00000000000E+00  0.43563459891E+03  0.63050506909E+03  0.45580603153E+03 0.  0.
      99925    2    3    3    0    0 -0.19991868570E+02 -0.78722928101E+02  0.38451576485E+03  0.47284208195E+03  0.26292639052E+03 0.  0.
         25    1    4    4    0    0  0.52196643797E+01 -0.45613647048E+02  0.25669360643E+03  0.28921785107E+03  0.12509000000E+03 0.  0.
         25    1    4    4    0    0 -0.25211532949E+02 -0.33109281052E+02  0.12782215842E+03  0.18362423088E+03  0.12509000000E+03 0.  0.
         25    1    3    3    0    0  0.19991868570E+02  0.78722928101E+02  0.51118834063E+02  0.15766298714E+03  0.12509000000E+03 0.  0.
<mgrwt>
<rscale>  2 0.45580603E+03</rscale>
<asrwt>0</asrwt>
<pdfrwt beam="1">  1       21 0.78392621E-01 0.45580603E+03</pdfrwt>
<pdfrwt beam="2">  1       21 0.14328711E-01 0.45580603E+03</pdfrwt>
<totfact> 0.56478591E+04</totfact>
</mgrwt>
</event>
<event>
 6    0  0.4788920E-002  0.4934193E+03  0.7546771E-02  0.1015511E+00
         21   -1    0    0  502  501  0.00000000000E+00  0.00000000000E+00  0.89375652016E+03  0.89375652016E+03  0.00000000000E+00 0.  1.
         21   -1    0    0  501  502 -0.00000000000E+00 -0.00000000000E+00 -0.68100919728E+02  0.68100919728E+02  0.00000000000E+00 0.  1.
      99926    2    1    2    0    0  0.00000000000E+00  0.00000000000E+00  0.82565560044E+03  0.96185743989E+03  0.49341925798E+03 0.  0.
         25    1    3    3    0    0  0.10384536985E+03  0.42596984427E+02  0.51662789776E+03  0.54327732951E+03  0.12509000000E+03 0.  0.
         25    1    3    3    0    0 -0.23208815678E+02 -0.25422561216E+02  0.11443182019E+03  0.17299452395E+03  0.12509000000E+03 0.  0.
         25    1    3    3    0    0 -0.80636554170E+02 -0.17174423211E+02  0.19459588249E+03  0.24558558643E+03  0.12509000000E+03 0.  0.
<mgrwt>
<rscale>  2 0.49341926E+03</rscale>
<asrwt>0</asrwt>
<pdfrwt beam="1">  1       21 0.13143478E+00 0.49341926E+03</pdfrwt>
<pdfrwt beam="2">  1       21 0.10014842E-01 0.49341926E+03</pdfrwt>
<totfact> 0.30433771E+04</totfact>
</mgrwt>
</event>
<event>
 7    0  0.4788920E-002  0.4507653E+03  0.7546771E-02  0.1027494E+00
         21   -1    0    0  502  501  0.00000000000E+00  0.00000000000E+00  0.90995417684E+02  0.90995417684E+02  0.00000000000E+00 0. -1.
         21   -1    0    0  501  502 -0.00000000000E+00 -0.00000000000E+00 -0.55824070109E+03  0.55824070109E+03  0.00000000000E+00 0. -1.
      99926    2    1    2    0    0  0.00000000000E+00 -0.88817841970E-15 -0.46724528340E+03  0.64923611877E+03  0.45076533036E+03 0.  0.
      99925    2    3    3    0    0 -0.62882511439E+01  0.43217357092E+01 -0.13819416195E+03  0.29712765802E+03  0.26292394197E+03 0.  0.
         25    1    3    3    0    0  0.62882511439E+01 -0.43217357092E+01 -0.32905112145E+03  0.35210846075E+03  0.12509000000E+03 0.  0.
         25    1    4    4    0    0  0.24376595563E+02 -0.22805787816E+02 -0.86580002466E+02  0.15574956596E+03  0.12509000000E+03 0.  0.
         25    1    4    4    0    0 -0.30664846707E+02  0.27127523525E+02 -0.51614159482E+02  0.14137809206E+03  0.12509000000E+03 0.  0.
<mgrwt>
<rscale>  2 0.45076533E+03</rscale>
<asrwt>0</asrwt>
<pdfrwt beam="1">  1       21 0.13381679E-01 0.45076533E+03</pdfrwt>
<pdfrwt beam="2">  1       21 0.82094223E-01 0.45076533E+03</pdfrwt>
<totfact> 0.57647325E+04</totfact>
</mgrwt>
</event>
<event>
 7    0  0.4788920E-002  0.4547373E+03  0.7546771E-02  0.1026319E+00
         21   -1    0    0  502  501  0.00000000000E+00  0.00000000000E+00  0.14279611095E+04  0.14279611095E+04  0.00000000000E+00 0.  1.
         21   -1    0    0  501  502 -0.00000000000E+00 -0.00000000000E+00 -0.36203024438E+02  0.36203024438E+02  0.00000000000E+00 0.  1.
      99926    2    1    2    0    0  0.00000000000E+00  0.00000000000E+00  0.13917580850E+04  0.14641641339E+04  0.45473733492E+03 0.  0.
      99925    2    3    3    0    0  0.33917055192E+02  0.87638799608E+02  0.10782274275E+04  0.11137644947E+04  0.26280418272E+03 0.  0.
         25    1    3    3    0    0 -0.33917055192E+02 -0.87638799608E+02  0.31353065751E+03  0.35039963917E+03  0.12509000000E+03 0.  0.
         25    1    4    4    0    0  0.15129104495E+02  0.14052561995E+01  0.48761973160E+03  0.50363813924E+03  0.12509000000E+03 0.  0.
         25    1    4    4    0    0  0.18787950697E+02  0.86233543409E+02  0.59060769590E+03  0.61012635549E+03  0.12509000000E+03 0.  0.
<mgrwt>
<rscale>  2 0.45473733E+03</rscale>
<asrwt>0</asrwt>
<pdfrwt beam="1">  1       21 0.20999424E+00 0.45473733E+03</pdfrwt>
<pdfrwt beam="2">  1       21 0.53239751E-02 0.45473733E+03</pdfrwt>
<totfact> 0.24721421E+04</totfact>
</mgrwt>
</event>
<event>
 7    0  0.4788920E-002  0.4566966E+03  0.7546771E-02  0.1025744E+00
         21   -1    0    0  502  501  0.00000000000E+00  0.00000000000E+00  0.91396514076E+03  0.91396514076E+03  0.00000000000E+00 0. -1.
         21   -1    0    0  501  502 -0.00000000000E+00 -0.00000000000E+00 -0.57051363293E+02  0.57051363293E+02  0.00000000000E+00 0. -1.
      99926    2    1    2    0    0 -0.71054273576E-14  0.14210854715E-13  0.85691377747E+03  0.97101650405E+03  0.45669664892E+03 0.  0.
      99925    2    3    3    0    0  0.43327723100E+02 -0.10289465307E+03  0.59447771311E+03  0.65959268159E+03  0.26304781506E+03 0.  0.
         25    1    4    4    0    0 -0.50531856940E+01 -0.38901795789E+02  0.34683788249E+03  0.37078687845E+03  0.12509000000E+03 0.  0.
         25    1    3    3    0    0 -0.43327723100E+02  0.10289465307E+03  0.26243606436E+03  0.31142382246E+03  0.12509000000E+03 0.  0.
         25    1    4    4    0    0  0.48380908794E+02 -0.63992857285E+02  0.24763983062E+03  0.28880580314E+03  0.12509000000E+03 0.  0.
<mgrwt>
<rscale>  2 0.45669665E+03</rscale>
<asrwt>0</asrwt>
<pdfrwt beam="1">  1       21 0.13440663E+00 0.45669665E+03</pdfrwt>
<pdfrwt beam="2">  1       21 0.83899069E-02 0.45669665E+03</pdfrwt>
<totfact> 0.39771151E+04</totfact>
</mgrwt>
</event>
<event>
 7    0  0.4788920E-002  0.4487058E+03  0.7546771E-02  0.1028109E+00
         21   -1    0    0  502  501  0.00000000000E+00  0.00000000000E+00  0.90663690352E+03  0.90663690352E+03  0.00000000000E+00 0.  1.
         21   -1    0    0  501  502 -0.00000000000E+00 -0.00000000000E+00 -0.55517505617E+02  0.55517505617E+02  0.00000000000E+00 0.  1.
      99926    2    1    2    0    0  0.00000000000E+00 -0.17763568394E-14  0.85111939790E+03  0.96215440914E+03  0.44870578059E+03 0.  0.
      99925    2    3    3    0    0 -0.56473302081E+02  0.15364041971E+02  0.34601070564E+03  0.43850606651E+03  0.26294272060E+03 0.  0.
         25    1    3    3    0    0  0.56473302081E+02 -0.15364041971E+02  0.50510869226E+03  0.52364834262E+03  0.12509000000E+03 0.  0.
         25    1    4    4    0    0 -0.13434600086E+02  0.39285540084E+02  0.20473615647E+03  0.24349177400E+03  0.12509000000E+03 0.  0.
         25    1    4    4    0    0 -0.43038701995E+02 -0.23921498114E+02  0.14127454918E+03  0.19501429252E+03  0.12509000000E+03 0.  0.
<mgrwt>
<rscale>  2 0.44870578E+03</rscale>
<asrwt>0</asrwt>
<pdfrwt beam="1">  1       21 0.13332895E+00 0.44870578E+03</pdfrwt>
<pdfrwt beam="2">  1       21 0.81643396E-02 0.44870578E+03</pdfrwt>
<totfact> 0.42716281E+04</totfact>
</mgrwt>
</event>
<event>
 7    0  0.4788920E-002  0.4558739E+03  0.7546771E-02  0.1025985E+00
         21   -1    0    0  502  501  0.00000000000E+00  0.00000000000E+00  0.66436233071E+02  0.66436233071E+02  0.00000000000E+00 0. -1.
         21   -1    0    0  501  502 -0.00000000000E+00 -0.00000000000E+00 -0.78203198724E+03  0.78203198724E+03  0.00000000000E+00 0. -1.
      99926    2    1    2    0    0 -0.14210854715E-13  0.00000000000E+00 -0.71559575417E+03  0.84846822031E+03  0.45587392719E+03 0.  0.
      99925    2    3    3    0    0  0.10357456913E+03  0.16335952203E+02 -0.53343672346E+03  0.60387881892E+03  0.26290746528E+03 0.  0.
         25    1    4    4    0    0  0.78057213079E+02 -0.23293947693E+02 -0.28922545606E+03  0.32547566583E+03  0.12509000000E+03 0.  0.
         25    1    4    4    0    0  0.25517356048E+02  0.39629899897E+02 -0.24421126740E+03  0.27840315309E+03  0.12509000000E+03 0.  0.
         25    1    3    3    0    0 -0.10357456913E+03 -0.16335952203E+02 -0.18215903071E+03  0.24458940139E+03  0.12509000000E+03 0.  0.
<mgrwt>
<rscale>  2 0.45587393E+03</rscale>
<asrwt>0</asrwt>
<pdfrwt beam="1">  1       21 0.97700341E-02 0.45587393E+03</pdfrwt>
<pdfrwt beam="2">  1       21 0.11500471E+00 0.45587393E+03</pdfrwt>
<totfact> 0.45197319E+04</totfact>
</mgrwt>
</event>
<event>
 7    0  0.4788920E-002  0.4569688E+03  0.7546771E-02  0.1025664E+00
         21   -1    0    0  502  501  0.00000000000E+00  0.00000000000E+00  0.53207742707E+03  0.53207742707E+03  0.00000000000E+00 0.  1.
         21   -1    0    0  501  502 -0.00000000000E+00 -0.00000000000E+00 -0.98115652643E+02  0.98115652643E+02  0.00000000000E+00 0.  1.
      99926    2    1    2    0    0  0.14210854715E-13  0.00000000000E+00  0.43396177443E+03  0.63019307971E+03  0.45696881300E+03 0.  0.
      99925    2    3    3    0    0  0.95445402043E+02 -0.52427425549E+02  0.22158452308E+03  0.36073053183E+03  0.26299877568E+03 0.  0.
         25    1    4    4    0    0  0.38223829780E+02 -0.35428810220E+02  0.15824913337E+03  0.20834240584E+03  0.12509000000E+03 0.  0.
         25    1    4    4    0    0  0.57221572264E+02 -0.16998615330E+02  0.63335389711E+02  0.15238812600E+03  0.12509000000E+03 0.  0.
         25    1    3    3    0    0 -0.95445402043E+02  0.52427425549E+02  0.21237725135E+03  0.26946254788E+03  0.12509000000E+03 0.  0.
<mgrwt>
<rscale>  2 0.45696881E+03</rscale>
<asrwt>0</asrwt>
<pdfrwt beam="1">  1       21 0.78246679E-01 0.45696881E+03</pdfrwt>
<pdfrwt beam="2">  1       21 0.14428773E-01 0.45696881E+03</pdfrwt>
<totfact> 0.55982085E+04</totfact>
</mgrwt>
</event>
<event>
 7    0  0.4788920E-002  0.4559066E+03  0.7546771E-02  0.1025975E+00
         21   -1    0    0  502  501  0.00000000000E+00  0.00000000000E+00  0.42141560950E+03  0.42141560950E+03  0.00000000000E+00 0. -1.
         21   -1    0    0  501  502 -0.00000000000E+00 -0.00000000000E+00 -0.12330514318E+03  0.12330514318E+03  0.00000000000E+00 0. -1.
      99926    2    1    2    0    0 -0.14210854715E-13  0.35527136788E-14  0.29811046632E+03  0.54472075269E+03  0.45590662232E+03 0.  0.
      99925    2    3    3    0    0  0.10158232718E+03 -0.13055844691E+02  0.24731867613E+03  0.37526061481E+03  0.26299159148E+03 0.  0.
         25    1    4    4    0    0  0.58097302181E+02 -0.45413648777E+02  0.11439298277E+03  0.18485388452E+03  0.12509000000E+03 0.  0.
         25    1    3    3    0    0 -0.10158232718E+03  0.13055844691E+02  0.50791790189E+02  0.16946013787E+03  0.12509000000E+03 0.  0.
         25    1    4    4    0    0  0.43485025004E+02  0.32357804086E+02  0.13292569336E+03  0.19040673029E+03  0.12509000000E+03 0.  0.
<mgrwt>
<rscale>  2 0.45590662E+03</rscale>
<asrwt>0</asrwt>
<pdfrwt beam="1">  1       21 0.61972883E-01 0.45590662E+03</pdfrwt>
<pdfrwt beam="2">  1       21 0.18133109E-01 0.45590662E+03</pdfrwt>
<totfact> 0.61772369E+04</totfact>
</mgrwt>
</event>
<event>
 7    0  0.4788920E-002  0.4610354E+03  0.7546771E-02  0.1024481E+00
         21   -1    0    0  502  501  0.00000000000E+00  0.00000000000E+00  0.40162783522E+03  0.40162783522E+03  0.00000000000E+00 0.  1.
         21   -1    0    0  501  502 -0.00000000000E+00 -0.00000000000E+00 -0.13230755918E+03  0.13230755918E+03  0.00000000000E+00 0.  1.
      99926    2    1    2    0    0  0.00000000000E+00  0.88817841970E-15  0.26932027604E+03  0.53393539440E+03  0.46103535038E+03 0.  0.
      99925    2    3    3    0    0 -0.80016189190E+02  0.42289661185E+01  0.67127272136E+02  0.28303702132E+03  0.26302739417E+03 0.  0.
         25    1    4    4    0    0 -0.26385961443E+01 -0.81010159302E+01  0.47759953650E+02  0.13416821502E+03  0.12509000000E+03 0.  0.
         25    1    4    4    0    0 -0.77377593046E+02  0.12329982049E+02  0.19367318486E+02  0.14886880630E+03  0.12509000000E+03 0.  0.
         25    1    3    3    0    0  0.80016189190E+02 -0.42289661185E+01  0.20219300391E+03  0.25089837308E+03  0.12509000000E+03 0.  0.
<mgrwt>
<rscale>  2 0.46103535E+03</rscale>
<asrwt>0</asrwt>
<pdfrwt beam="1">  1       21 0.59062917E-01 0.46103535E+03</pdfrwt>
<pdfrwt beam="2">  1       21 0.19456994E-01 0.46103535E+03</pdfrwt>
<totfact> 0.60018092E+04</totfact>
</mgrwt>
</event>
<event>
 7    0  0.4788920E-002  0.4594486E+03  0.7546771E-02  0.1024941E+00
         21   -1    0    0  502  501  0.00000000000E+00  0.00000000000E+00  0.71376629907E+03  0.71376629907E+03  0.00000000000E+00 0. -1.
         21   -1    0    0  501  502 -0.00000000000E+00 -0.00000000000E+00 -0.73936317013E+02  0.73936317013E+02  0.00000000000E+00 0. -1.
      99926    2    1    2    0    0  0.00000000000E+00  0.00000000000E+00  0.63982998206E+03  0.78770261608E+03  0.45944858847E+03 0.  0.
      99925    2    3    3    0    0  0.81266596890E+02  0.31653802579E+02  0.53557211805E+03  0.60297732465E+03  0.26294093903E+03 0.  0.
         25    1    4    4    0    0  0.57264517769E+02 -0.20807534860E+02  0.27855728778E+03  0.31137413056E+03  0.12509000000E+03 0.  0.
         25    1    3    3    0    0 -0.81266596890E+02 -0.31653802579E+02  0.10425786401E+03  0.18472529143E+03  0.12509000000E+03 0.  0.
         25    1    4    4    0    0  0.24002079121E+02  0.52461337439E+02  0.25701483027E+03  0.29160319409E+03  0.12509000000E+03 0.  0.
<mgrwt>
<rscale>  2 0.45944859E+03</rscale>
<asrwt>0</asrwt>
<pdfrwt beam="1">  1       21 0.10496563E+00 0.45944859E+03</pdfrwt>
<pdfrwt beam="2">  1       21 0.10872988E-01 0.45944859E+03</pdfrwt>
<totfact> 0.46712937E+04</totfact>
</mgrwt>
</event>
<event>
 7    0  0.4788920E-002  0.4643167E+03  0.7546771E-02  0.1023537E+00
         21   -1    0    0  502  501  0.00000000000E+00  0.00000000000E+00  0.30991051541E+03  0.30991051541E+03  0.00000000000E+00 0.  1.
         21   -1    0    0  501  502 -0.00000000000E+00 -0.00000000000E+00 -0.17391307706E+03  0.17391307706E+03  0.00000000000E+00 0.  1.
      99926    2    1    2    0    0  0.00000000000E+00  0.00000000000E+00  0.13599743835E+03  0.48382359247E+03  0.46431666499E+03 0.  0.
      99925    2    3    3    0    0  0.78532865132E+02 -0.20821069846E+02 -0.91678374398E+01  0.27568567365E+03  0.26328238368E+03 0.  0.
         25    1    3    3    0    0 -0.78532865132E+02  0.20821069846E+02  0.14516527579E+03  0.20813791882E+03  0.12509000000E+03 0.  0.
         25    1    4    4    0    0  0.15108101118E+02 -0.16896411286E+02  0.28769807932E+02  0.13034167937E+03  0.12509000000E+03 0.  0.
         25    1    4    4    0    0  0.63424764014E+02 -0.39246585595E+01 -0.37937645372E+02  0.14534399427E+03  0.12509000000E+03 0.  0.
<mgrwt>
<rscale>  2 0.46431666E+03</rscale>
<asrwt>0</asrwt>
<pdfrwt beam="1">  1       21 0.45575076E-01 0.46431666E+03</pdfrwt>
<pdfrwt beam="2">  1       21 0.25575452E-01 0.46431666E+03</pdfrwt>
<totfact> 0.61730263E+04</totfact>
</mgrwt>
</event>
<event>
 7    0  0.4788920E-002  0.4494858E+03  0.7546771E-02  0.1027875E+00
         21   -1    0    0  502  501  0.00000000000E+00  0.00000000000E+00  0.35860103822E+03  0.35860103822E+03  0.00000000000E+00 0. -1.
         21   -1    0    0  501  502 -0.00000000000E+00 -0.00000000000E+00 -0.14085117601E+03  0.14085117601E+03  0.00000000000E+00 0. -1.
      99926    2    1    2    0    0 -0.44408920985E-14  0.00000000000E+00  0.21774986222E+03  0.49945221423E+03  0.44948583049E+03 0.  0.
      99925    2    3    3    0    0 -0.41084993086E+01 -0.10670732022E+03  0.15474941202E+03  0.32332755162E+03  0.26303990792E+03 0.  0.
         25    1    4    4    0    0 -0.38089993671E+02 -0.70511640789E+02  0.92878871882E+02  0.17520482883E+03  0.12509000000E+03 0.  0.
         25    1    4    4    0    0  0.33981494362E+02 -0.36195679433E+02  0.61870540140E+02  0.14812272279E+03  0.12509000000E+03 0.  0.
         25    1    3    3    0    0  0.41084993086E+01  0.10670732022E+03  0.63000450193E+02  0.17612466261E+03  0.12509000000E+03 0.  0.
<mgrwt>
<rscale>  2 0.44948583E+03</rscale>
<asrwt>0</asrwt>
<pdfrwt beam="1">  1       21 0.52735447E-01 0.44948583E+03</pdfrwt>
<pdfrwt beam="2">  1       21 0.20713408E-01 0.44948583E+03</pdfrwt>
<totfact> 0.68247783E+04</totfact>
</mgrwt>
</event>
<event>
 7    0  0.4788920E-002  0.4496432E+03  0.7546771E-02  0.1027829E+00
         21   -1    0    0  502  501  0.00000000000E+00  0.00000000000E+00  0.84616090347E+02  0.84616090347E+02  0.00000000000E+00 0.  1.
         21   -1    0    0  501  502 -0.00000000000E+00 -0.00000000000E+00 -0.59734200547E+03  0.59734200547E+03  0.00000000000E+00 0.  1.
      99926    2    1    2    0    0  0.00000000000E+00 -0.17763568394E-14 -0.51272591512E+03  0.68195809582E+03  0.44964317009E+03 0.  0.
      99925    2    3    3    0    0 -0.74263732137E+02  0.15227864760E+02 -0.44102728558E+03  0.51906183633E+03  0.26300785831E+03 0.  0.
         25    1    3    3    0    0  0.74263732137E+02 -0.15227864760E+02 -0.71698629544E+02  0.16289625949E+03  0.12509000000E+03 0.  0.
         25    1    4    4    0    0 -0.53907120755E+02  0.45016419385E+02 -0.23701624667E+03  0.27704993227E+03  0.12509000000E+03 0.  0.
         25    1    4    4    0    0 -0.20356611381E+02 -0.29788554624E+02 -0.20401103890E+03  0.24201190406E+03  0.12509000000E+03 0.  0.
<mgrwt>
<rscale>  2 0.44964317E+03</rscale>
<asrwt>0</asrwt>
<pdfrwt beam="1">  1       21 0.12443543E-01 0.44964317E+03</pdfrwt>
<pdfrwt beam="2">  1       21 0.87844408E-01 0.44964317E+03</pdfrwt>
<totfact> 0.56228146E+04</totfact>
</mgrwt>
</event>
<event>
 7    0  0.4788920E-002  0.4682651E+03  0.7546771E-02  0.1022411E+00
         21   -1    0    0  502  501  0.00000000000E+00  0.00000000000E+00  0.42691504636E+03  0.42691504636E+03  0.00000000000E+00 0.  1.
         21   -1    0    0  501  502 -0.00000000000E+00 -0.00000000000E+00 -0.12840507585E+03  0.12840507585E+03  0.00000000000E+00 0.  1.
      99926    2    1    2    0    0  0.14210854715E-13 -0.71054273576E-14  0.29850997051E+03  0.55532012220E+03  0.46826513391E+03 0.  0.
      99925    2    3    3    0    0  0.81387109329E+02  0.60535861848E+02  0.98585048455E+02  0.29859861027E+03  0.26297084656E+03 0.  0.
         25    1    3    3    0    0 -0.81387109329E+02 -0.60535861848E+02  0.19992492205E+03  0.25672151194E+03  0.12509000000E+03 0.  0.
         25    1    4    4    0    0  0.13446482620E+02  0.42777982060E+02  0.18105123305E+02  0.13411214424E+03  0.12509000000E+03 0.  0.
         25    1    4    4    0    0  0.67940626708E+02  0.17757879787E+02  0.80479925150E+02  0.16448646602E+03  0.12509000000E+03 0.  0.
<mgrwt>
<rscale>  2 0.46826513E+03</rscale>
<asrwt>0</asrwt>
<pdfrwt beam="1">  1       21 0.62781624E-01 0.46826513E+03</pdfrwt>
<pdfrwt beam="2">  1       21 0.18883100E-01 0.46826513E+03</pdfrwt>
<totfact> 0.55462042E+04</totfact>
</mgrwt>
</event>
<event>
 7    0  0.4788920E-002  0.4272593E+03  0.7546771E-02  0.1034729E+00
         21   -1    0    0  502  501  0.00000000000E+00  0.00000000000E+00  0.14424366821E+03  0.14424366821E+03  0.00000000000E+00 0. -1.
         21   -1    0    0  501  502 -0.00000000000E+00 -0.00000000000E+00 -0.31639258091E+03  0.31639258091E+03  0.00000000000E+00 0. -1.
      99926    2    1    2    0    0 -0.14210854715E-13  0.00000000000E+00 -0.17214891269E+03  0.46063624912E+03  0.42725929582E+03 0.  0.
      99925    2    3    3    0    0  0.73543301675E+02  0.41220006646E+02 -0.10631302588E+03  0.29604712961E+03  0.26312304595E+03 0.  0.
         25    1    4    4    0    0  0.63999920766E+01  0.43856588592E+02 -0.35509843085E+02  0.13737837282E+03  0.12509000000E+03 0.  0.
         25    1    3    3    0    0 -0.73543301675E+02 -0.41220006646E+02 -0.65835886812E+02  0.16458911951E+03  0.12509000000E+03 0.  0.
         25    1    4    4    0    0  0.67143309598E+02 -0.26365819465E+01 -0.70803182796E+02  0.15866875679E+03  0.12509000000E+03 0.  0.
<mgrwt>
<rscale>  2 0.42725930E+03</rscale>
<asrwt>0</asrwt>
<pdfrwt beam="1">  1       21 0.21212304E-01 0.42725930E+03</pdfrwt>
<pdfrwt beam="2">  1       21 0.46528320E-01 0.42725930E+03</pdfrwt>
<totfact> 0.85459109E+04</totfact>
</mgrwt>
</event>
<event>
 7    0  0.4788920E-002  0.4477148E+03  0.7546771E-02  0.1028406E+00
         21   -1    0    0  502  501  0.00000000000E+00  0.00000000000E+00  0.26929376051E+03  0.26929376051E+03  0.00000000000E+00 0.  1.
         21   -1    0    0  501  502 -0.00000000000E+00 -0.00000000000E+00 -0.18608724355E+03  0.18608724355E+03  0.00000000000E+00 0.  1.
      99926    2    1    2    0    0  0.00000000000E+00 -0.35527136788E-14  0.83206516964E+02  0.45538100406E+03  0.44771479135E+03 0.  0.
      99925    2    3    3    0    0  0.84456680258E+02  0.27309302054E+02 -0.65988941522E+01  0.27764173214E+03  0.26298794117E+03 0.  0.
         25    1    4    4    0    0  0.54784365047E+02  0.71448148680E+01  0.34757068530E+02  0.14109548875E+03  0.12509000000E+03 0.  0.
         25    1    4    4    0    0  0.29672315211E+02  0.20164487186E+02 -0.41355962682E+02  0.13654624339E+03  0.12509000000E+03 0.  0.
         25    1    3    3    0    0 -0.84456680258E+02 -0.27309302054E+02  0.89805411116E+02  0.17773927193E+03  0.12509000000E+03 0.  0.
<mgrwt>
<rscale>  2 0.44771479E+03</rscale>
<asrwt>0</asrwt>
<pdfrwt beam="1">  1       21 0.39602024E-01 0.44771479E+03</pdfrwt>
<pdfrwt beam="2">  1       21 0.27365771E-01 0.44771479E+03</pdfrwt>
<totfact> 0.72647117E+04</totfact>
</mgrwt>
</event>
<event>
 7    0  0.4788920E-002  0.4562151E+03  0.7546771E-02  0.1025885E+00
         21   -1    0    0  502  501  0.00000000000E+00  0.00000000000E+00  0.36287733350E+02  0.36287733350E+02  0.00000000000E+00 0. -1.
         21   -1    0    0  501  502 -0.00000000000E+00 -0.00000000000E+00 -0.14339021670E+04  0.14339021670E+04  0.00000000000E+00 0. -1.
      99926    2    1    2    0    0  0.00000000000E+00  0.00000000000E+00 -0.13976144336E+04  0.14701899003E+04  0.45621512244E+03 0.  0.
      99925    2    3    3    0    0 -0.55967906629E+02 -0.97268603065E+02 -0.80878621409E+03  0.85785031485E+03  0.26301793642E+03 0.  0.
         25    1    4    4    0    0 -0.39247088590E+02 -0.41098263715E+02 -0.28861079588E+03  0.31964527345E+03  0.12509000000E+03 0.  0.
         25    1    4    4    0    0 -0.16720818039E+02 -0.56170339350E+02 -0.52017541821E+03  0.53820504140E+03  0.12509000000E+03 0.  0.
         25    1    3    3    0    0  0.55967906629E+02  0.97268603065E+02 -0.58882821955E+03  0.61233958549E+03  0.12509000000E+03 0.  0.
<mgrwt>
<rscale>  2 0.45621512E+03</rscale>
<asrwt>0</asrwt>
<pdfrwt beam="1">  1       21 0.53364305E-02 0.45621512E+03</pdfrwt>
<pdfrwt beam="2">  1       21 0.21086800E+00 0.45621512E+03</pdfrwt>
<totfact> 0.24289164E+04</totfact>
</mgrwt>
</event>
<event>
 7    0  0.4788920E-002  0.4561182E+03  0.7546771E-02  0.1025913E+00
         21   -1    0    0  502  501  0.00000000000E+00  0.00000000000E+00  0.27079007186E+02  0.27079007186E+02  0.00000000000E+00 0.  1.
         21   -1    0    0  501  502 -0.00000000000E+00 -0.00000000000E+00 -0.19207115383E+04  0.19207115383E+04  0.00000000000E+00 0.  1.
      99926    2    1    2    0    0 -0.35527136788E-14  0.00000000000E+00 -0.18936325311E+04  0.19477905455E+04  0.45611823707E+03 0.  0.
      99925    2    3    3    0    0 -0.30281010832E+02  0.72802276364E+02 -0.83808826805E+03  0.88193956601E+03  0.26307478403E+03 0.  0.
         25    1    4    4    0    0 -0.46033966717E+02  0.96962400072E+01 -0.41012820001E+03  0.43135344175E+03  0.12509000000E+03 0.  0.
         25    1    3    3    0    0  0.30281010832E+02 -0.72802276364E+02 -0.10555442631E+04  0.10658509795E+04  0.12509000000E+03 0.  0.
         25    1    4    4    0    0  0.15752955885E+02  0.63106036357E+02 -0.42796006804E+03  0.45058612426E+03  0.12509000000E+03 0.  0.
<mgrwt>
<rscale>  2 0.45611824E+03</rscale>
<asrwt>0</asrwt>
<pdfrwt beam="1">  1       21 0.39822053E-02 0.45611824E+03</pdfrwt>
<pdfrwt beam="2">  1       21 0.28245770E+00 0.45611824E+03</pdfrwt>
<totfact> 0.14455300E+04</totfact>
</mgrwt>
</event>
<event>
 7    0  0.4788920E-002  0.4600840E+03  0.7546771E-02  0.1024757E+00
         21   -1    0    0  502  501  0.00000000000E+00  0.00000000000E+00  0.10629919596E+03  0.10629919596E+03  0.00000000000E+00 0. -1.
         21   -1    0    0  501  502 -0.00000000000E+00 -0.00000000000E+00 -0.49783375077E+03  0.49783375077E+03  0.00000000000E+00 0. -1.
      99926    2    1    2    0    0 -0.14210854715E-13  0.00000000000E+00 -0.39153455481E+03  0.60413294674E+03  0.46008402463E+03 0.  0.
      99925    2    3    3    0    0  0.85730651531E+02 -0.78206461498E+02 -0.27227638252E+03  0.39595990576E+03  0.26302817959E+03 0.  0.
         25    1    3    3    0    0 -0.85730651531E+02  0.78206461498E+02 -0.11925817228E+03  0.20817304097E+03  0.12509000000E+03 0.  0.
         25    1    4    4    0    0  0.62456696068E+02 -0.76763355121E+02 -0.16549617980E+03  0.22984765651E+03  0.12509000000E+03 0.  0.
         25    1    4    4    0    0  0.23273955463E+02 -0.14431063762E+01 -0.10678020272E+03  0.16611224925E+03  0.12509000000E+03 0.  0.
<mgrwt>
<rscale>  2 0.46008402E+03</rscale>
<asrwt>0</asrwt>
<pdfrwt beam="1">  1       21 0.15632235E-01 0.46008402E+03</pdfrwt>
<pdfrwt beam="2">  1       21 0.73210845E-01 0.46008402E+03</pdfrwt>
<totfact> 0.56135620E+04</totfact>
</mgrwt>
</event>
<event>
 7    0  0.4788920E-002  0.4492528E+03  0.7546771E-02  0.1027945E+00
         21   -1    0    0  502  501  0.00000000000E+00  0.00000000000E+00  0.68685001908E+02  0.68685001908E+02  0.00000000000E+00 0.  1.
         21   -1    0    0  501  502 -0.00000000000E+00 -0.00000000000E+00 -0.73461486261E+03  0.73461486261E+03  0.00000000000E+00 0.  1.
      99926    2    1    2    0    0  0.00000000000E+00 -0.35527136788E-14 -0.66592986070E+03  0.80329986452E+03  0.44925281631E+03 0.  0.
      99925    2    3    3    0    0 -0.58237406826E+02 -0.31676415514E+02 -0.26918938764E+03  0.38205705815E+03  0.26288719712E+03 0.  0.
         25    1    4    4    0    0 -0.31687331679E+02 -0.42110083838E+02 -0.94842530307E+02  0.16558973339E+03  0.12509000000E+03 0.  0.
         25    1    4    4    0    0 -0.26550075147E+02  0.10433668324E+02 -0.17434685733E+03  0.21646732475E+03  0.12509000000E+03 0.  0.
         25    1    3    3    0    0  0.58237406826E+02  0.31676415514E+02 -0.39674047306E+03  0.42124280637E+03  0.12509000000E+03 0.  0.
<mgrwt>
<rscale>  2 0.44925282E+03</rscale>
<asrwt>0</asrwt>
<pdfrwt beam="1">  1       21 0.10100736E-01 0.44925282E+03</pdfrwt>
<pdfrwt beam="2">  1       21 0.10803160E+00 0.44925282E+03</pdfrwt>
<totfact> 0.49814628E+04</totfact>
</mgrwt>
</event>
<event>
 7    0  0.4788920E-002  0.4529821E+03  0.7546771E-02  0.1026836E+00
         21   -1    0    0  502  501  0.00000000000E+00  0.00000000000E+00  0.21981694633E+03  0.21981694633E+03  0.00000000000E+00 0.  1.
         21   -1    0    0  501  502 -0.00000000000E+00 -0.00000000000E+00 -0.23336783339E+03  0.23336783339E+03  0.00000000000E+00 0.  1.
      99926    2    1    2    0    0  0.00000000000E+00  0.00000000000E+00 -0.13550887061E+02  0.45318477972E+03  0.45298213875E+03 0.  0.
      99925    2    3    3    0    0 -0.81239754592E+02 -0.58219233248E+02  0.40384643616E+02  0.28422938201E+03  0.26299438266E+03 0.  0.
         25    1    4    4    0    0 -0.63629013736E+02 -0.45375394825E+02 -0.95121907134E+01  0.14780246181E+03  0.12509000000E+03 0.  0.
         25    1    4    4    0    0 -0.17610740856E+02 -0.12843838423E+02  0.49896834330E+02  0.13642692020E+03  0.12509000000E+03 0.  0.
         25    1    3    3    0    0  0.81239754592E+02  0.58219233248E+02 -0.53935530677E+02  0.16895539771E+03  0.12509000000E+03 0.  0.
<mgrwt>
<rscale>  2 0.45298214E+03</rscale>
<asrwt>0</asrwt>
<pdfrwt beam="1">  1       21 0.32326022E-01 0.45298214E+03</pdfrwt>
<pdfrwt beam="2">  1       21 0.34318799E-01 0.45298214E+03</pdfrwt>
<totfact> 0.69795979E+04</totfact>
</mgrwt>
</event>
<event>
 7    0  0.4788920E-002  0.4565086E+03  0.7546771E-02  0.1025799E+00
         21   -1    0    0  502  501  0.00000000000E+00  0.00000000000E+00  0.80986146869E+02  0.80986146869E+02  0.00000000000E+00 0.  1.
         21   -1    0    0  501  502 -0.00000000000E+00 -0.00000000000E+00 -0.64332016763E+03  0.64332016763E+03  0.00000000000E+00 0.  1.
      99926    2    1    2    0    0  0.00000000000E+00  0.00000000000E+00 -0.56233402076E+03  0.72430631450E+03  0.45650858296E+03 0.  0.
      99925    2    3    3    0    0 -0.47788973176E+02  0.70420158176E+02 -0.23178825462E+03  0.36078080473E+03  0.26304792235E+03 0.  0.
         25    1    4    4    0    0 -0.87447731400E+01  0.68174237851E+02 -0.14578047478E+03  0.20401875573E+03  0.12509000000E+03 0.  0.
         25    1    3    3    0    0  0.47788973176E+02 -0.70420158176E+02 -0.33054576614E+03  0.36352550977E+03  0.12509000000E+03 0.  0.
         25    1    4    4    0    0 -0.39044200036E+02  0.22459203247E+01 -0.86007779840E+02  0.15676204900E+03  0.12509000000E+03 0.  0.
<mgrwt>
<rscale>  2 0.45650858E+03</rscale>
<asrwt>0</asrwt>
<pdfrwt beam="1">  1       21 0.11909728E-01 0.45650858E+03</pdfrwt>
<pdfrwt beam="2">  1       21 0.94605902E-01 0.45650858E+03</pdfrwt>
<totfact> 0.50995379E+04</totfact>
</mgrwt>
</event>
<event>
 7    0  0.4788920E-002  0.4880964E+03  0.7546771E-02  0.1016933E+00
         21   -1    0    0  502  501  0.00000000000E+00  0.00000000000E+00  0.13066537775E+04  0.13066537775E+04  0.00000000000E+00 0.  1.
         21   -1    0    0  501  502 -0.00000000000E+00 -0.00000000000E+00 -0.45581726081E+02  0.45581726081E+02  0.00000000000E+00 0.  1.
      99926    2    1    2    0    0  0.00000000000E+00  0.00000000000E+00  0.12610720515E+04  0.13522355036E+04  0.48809644363E+03 0.  0.
      99925    2    3    3    0    0  0.74546057380E+02 -0.67134886364E+02  0.10506128586E+04  0.10876513250E+04  0.26293310631E+03 0.  0.
         25    1    4    4    0    0  0.66158294629E+02 -0.65733910197E+02  0.58764689927E+03  0.60800843186E+03  0.12509000000E+03 0.  0.
         25    1    4    4    0    0  0.83877627514E+01 -0.14009761678E+01  0.46296595935E+03  0.47964289311E+03  0.12509000000E+03 0.  0.
         25    1    3    3    0    0 -0.74546057380E+02  0.67134886364E+02  0.21045919285E+03  0.26458417866E+03  0.12509000000E+03 0.  0.
<mgrwt>
<rscale>  2 0.48809644E+03</rscale>
<asrwt>0</asrwt>
<pdfrwt beam="1">  1       21 0.19215494E+00 0.48809644E+03</pdfrwt>
<pdfrwt beam="2">  1       21 0.67031959E-02 0.48809644E+03</pdfrwt>
<totfact> 0.21534333E+04</totfact>
</mgrwt>
</event>
<event>
 7    0  0.4788920E-002  0.4392240E+03  0.7546771E-02  0.1030985E+00
         21   -1    0    0  502  501  0.00000000000E+00  0.00000000000E+00  0.20087799633E+03  0.20087799633E+03  0.00000000000E+00 0.  1.
         21   -1    0    0  501  502 -0.00000000000E+00 -0.00000000000E+00 -0.24009312390E+03  0.24009312390E+03  0.00000000000E+00 0.  1.
      99926    2    1    2    0    0  0.00000000000E+00  0.71054273576E-14 -0.39215127567E+02  0.44097112023E+03  0.43922397777E+03 0.  0.
      99925    2    3    3    0    0  0.27705016128E+02  0.49609135137E+02 -0.10479873338E+03  0.28873002308E+03  0.26297075408E+03 0.  0.
         25    1    4    4    0    0  0.16822318752E+02 -0.10067440315E+02 -0.27158946764E+02  0.12949695074E+03  0.12509000000E+03 0.  0.
         25    1    4    4    0    0  0.10882697377E+02  0.59676575452E+02 -0.77639786621E+02  0.15923307234E+03  0.12509000000E+03 0.  0.
         25    1    3    3    0    0 -0.27705016128E+02 -0.49609135137E+02  0.65583605817E+02  0.15224109714E+03  0.12509000000E+03 0.  0.
<mgrwt>
<rscale>  2 0.43922398E+03</rscale>
<asrwt>0</asrwt>
<pdfrwt beam="1">  1       21 0.29540882E-01 0.43922398E+03</pdfrwt>
<pdfrwt beam="2">  1       21 0.35307812E-01 0.43922398E+03</pdfrwt>
<totfact> 0.79081028E+04</totfact>
</mgrwt>
</event>
<event>
 7    0  0.4788920E-002  0.4548312E+03  0.7546771E-02  0.1026291E+00
         21   -1    0    0  502  501  0.00000000000E+00  0.00000000000E+00  0.17524378129E+04  0.17524378129E+04  0.00000000000E+00 0. -1.
         21   -1    0    0  501  502 -0.00000000000E+00 -0.00000000000E+00 -0.29511952093E+02  0.29511952093E+02  0.00000000000E+00 0. -1.
      99926    2    1    2    0    0  0.00000000000E+00  0.71054273576E-14  0.17229258608E+04  0.17819497650E+04  0.45483122488E+03 0.  0.
      99925    2    3    3    0    0 -0.11915907238E+02 -0.59394024839E+02  0.14587281304E+04  0.14834240745E+04  0.26265868985E+03 0.  0.
         25    1    3    3    0    0  0.11915907238E+02  0.59394024839E+02  0.26419773041E+03  0.29852569049E+03  0.12509000000E+03 0.  0.
         25    1    4    4    0    0 -0.15265456635E+02  0.65831699983E+01  0.60053537606E+03  0.61365024101E+03  0.12509000000E+03 0.  0.
         25    1    4    4    0    0  0.33495493970E+01 -0.65977194838E+02  0.85819275437E+03  0.86977383352E+03  0.12509000000E+03 0.  0.
<mgrwt>
<rscale>  2 0.45483122E+03</rscale>
<asrwt>0</asrwt>
<pdfrwt beam="1">  1       21 0.25771137E+00 0.45483122E+03</pdfrwt>
<pdfrwt beam="2">  1       21 0.43399942E-02 0.45483122E+03</pdfrwt>
<totfact> 0.17631963E+04</totfact>
</mgrwt>
</event>
<event>
 7    0  0.4788920E-002  0.4566412E+03  0.7546771E-02  0.1025760E+00
         21   -1    0    0  502  501  0.00000000000E+00  0.00000000000E+00  0.34029189742E+02  0.34029189742E+02  0.00000000000E+00 0. -1.
         21   -1    0    0  501  502 -0.00000000000E+00 -0.00000000000E+00 -0.15319286490E+04  0.15319286490E+04  0.00000000000E+00 0. -1.
      99926    2    1    2    0    0 -0.88817841970E-15  0.00000000000E+00 -0.14978994592E+04  0.15659578387E+04  0.45664117496E+03 0.  0.
      99925    2    3    3    0    0  0.32933560585E+01  0.36113446206E+02 -0.13143823517E+04  0.13409221437E+04  0.26297566754E+03 0.  0.
         25    1    3    3    0    0 -0.32933560585E+01 -0.36113446206E+02 -0.18351710754E+03  0.22503569506E+03  0.12509000000E+03 0.  0.
         25    1    4    4    0    0 -0.17527152884E+02  0.22649157798E+02 -0.48030682487E+03  0.49715424121E+03  0.12509000000E+03 0.  0.
         25    1    4    4    0    0  0.20820508942E+02  0.13464288408E+02 -0.83407552684E+03  0.84376790247E+03  0.12509000000E+03 0.  0.
<mgrwt>
<rscale>  2 0.45664117E+03</rscale>
<asrwt>0</asrwt>
<pdfrwt beam="1">  1       21 0.50042921E-02 0.45664117E+03</pdfrwt>
<pdfrwt beam="2">  1       21 0.22528365E+00 0.45664117E+03</pdfrwt>
<totfact> 0.21927122E+04</totfact>
</mgrwt>
</event>
<event>
 7    0  0.4788920E-002  0.4555694E+03  0.7546771E-02  0.1026074E+00
         21   -1    0    0  502  501  0.00000000000E+00  0.00000000000E+00  0.35505777369E+03  0.35505777369E+03  0.00000000000E+00 0.  1.
         21   -1    0    0  501  502 -0.00000000000E+00 -0.00000000000E+00 -0.14613362851E+03  0.14613362851E+03  0.00000000000E+00 0.  1.
      99926    2    1    2    0    0  0.71054273576E-14  0.35527136788E-14  0.20892414519E+03  0.50119140220E+03  0.45556944937E+03 0.  0.
      99925    2    3    3    0    0  0.44857990318E+02  0.22243001752E+02  0.19078311372E+02  0.26839118927E+03  0.26298832311E+03 0.  0.
         25    1    4    4    0    0 -0.90910732604E+00 -0.90405186350E+01  0.36102280411E+02  0.13051222243E+03  0.12509000000E+03 0.  0.
         25    1    3    3    0    0 -0.44857990318E+02 -0.22243001752E+02  0.18984583382E+03  0.23280021293E+03  0.12509000000E+03 0.  0.
         25    1    4    4    0    0  0.45767097644E+02  0.31283520387E+02 -0.17023969039E+02  0.13787896684E+03  0.12509000000E+03 0.  0.
<mgrwt>
<rscale>  2 0.45556945E+03</rscale>
<asrwt>0</asrwt>
<pdfrwt beam="1">  1       21 0.52214378E-01 0.45556945E+03</pdfrwt>
<pdfrwt beam="2">  1       21 0.21490239E-01 0.45556945E+03</pdfrwt>
<totfact> 0.64893213E+04</totfact>
</mgrwt>
</event>
<event>
 7    0  0.4788920E-002  0.4553986E+03  0.7546771E-02  0.1026124E+00
         21   -1    0    0  502  501  0.00000000000E+00  0.00000000000E+00  0.18762677233E+03  0.18762677233E+03  0.00000000000E+00 0. -1.
         21   -1    0    0  501  502 -0.00000000000E+00 -0.00000000000E+00 -0.27633034415E+03  0.27633034415E+03  0.00000000000E+00 0. -1.
      99926    2    1    2    0    0  0.00000000000E+00  0.00000000000E+00 -0.88703571824E+02  0.46395711648E+03  0.45539859714E+03 0.  0.
      99925    2    3    3    0    0  0.22450361191E+02  0.76295719169E+02 -0.13838829719E+03  0.30762050683E+03  0.26297148123E+03 0.  0.
         25    1    4    4    0    0 -0.15296384117E+02  0.16997648534E+02 -0.38767311579E+02  0.13294100936E+03  0.12509000000E+03 0.  0.
         25    1    4    4    0    0  0.37746745309E+02  0.59298070635E+02 -0.99620985610E+02  0.17467949747E+03  0.12509000000E+03 0.  0.
         25    1    3    3    0    0 -0.22450361191E+02 -0.76295719169E+02  0.49684725365E+02  0.15633660965E+03  0.12509000000E+03 0.  0.
<mgrwt>
<rscale>  2 0.45539860E+03</rscale>
<asrwt>0</asrwt>
<pdfrwt beam="1">  1       21 0.27592173E-01 0.45539860E+03</pdfrwt>
<pdfrwt beam="2">  1       21 0.40636815E-01 0.45539860E+03</pdfrwt>
<totfact> 0.67673007E+04</totfact>
</mgrwt>
</event>
<event>
 7    0  0.4788920E-002  0.4557895E+03  0.7546771E-02  0.1026009E+00
         21   -1    0    0  502  501  0.00000000000E+00  0.00000000000E+00  0.41177789868E+03  0.41177789868E+03  0.00000000000E+00 0. -1.
         21   -1    0    0  501  502 -0.00000000000E+00 -0.00000000000E+00 -0.12612629016E+03  0.12612629016E+03  0.00000000000E+00 0. -1.
      99926    2    1    2    0    0  0.00000000000E+00  0.00000000000E+00  0.28565160853E+03  0.53790418884E+03  0.45578950725E+03 0.  0.
      99925    2    3    3    0    0 -0.60279361047E+02 -0.89222459060E+02  0.13577075385E+03  0.31495570316E+03  0.26300028285E+03 0.  0.
         25    1    4    4    0    0 -0.47552641715E+02 -0.19157471396E+02  0.95407208788E+02  0.16546391157E+03  0.12509000000E+03 0.  0.
         25    1    4    4    0    0 -0.12726719332E+02 -0.70064987663E+02  0.40363545066E+02  0.14949179159E+03  0.12509000000E+03 0.  0.
         25    1    3    3    0    0  0.60279361047E+02  0.89222459060E+02  0.14988085467E+03  0.22294848568E+03  0.12509000000E+03 0.  0.
<mgrwt>
<rscale>  2 0.45578951E+03</rscale>
<asrwt>0</asrwt>
<pdfrwt beam="1">  1       21 0.60555573E-01 0.45578951E+03</pdfrwt>
<pdfrwt beam="2">  1       21 0.18547984E-01 0.45578951E+03</pdfrwt>
<totfact> 0.62282874E+04</totfact>
</mgrwt>
</event>
<event>
 7    0  0.4788920E-002  0.4518652E+03  0.7546771E-02  0.1027167E+00
         21   -1    0    0  502  501  0.00000000000E+00  0.00000000000E+00  0.34004260408E+03  0.34004260408E+03  0.00000000000E+00 0. -1.
         21   -1    0    0  501  502 -0.00000000000E+00 -0.00000000000E+00 -0.15011512087E+03  0.15011512087E+03  0.00000000000E+00 0. -1.
      99926    2    1    2    0    0  0.00000000000E+00  0.00000000000E+00  0.18992748320E+03  0.49015772495E+03  0.45186518615E+03 0.  0.
      99925    2    3    3    0    0  0.29242829769E+02  0.82626310186E+02  0.47438220318E+02  0.28127271265E+03  0.26302415080E+03 0.  0.
         25    1    4    4    0    0  0.35534140927E+02  0.57578283272E+01  0.26441488998E+02  0.13282502851E+03  0.12509000000E+03 0.  0.
         25    1    3    3    0    0 -0.29242829769E+02 -0.82626310186E+02  0.14248926289E+03  0.20888501230E+03  0.12509000000E+03 0.  0.
         25    1    4    4    0    0 -0.62913111581E+01  0.76868481859E+02  0.20996731321E+02  0.14844768414E+03  0.12509000000E+03 0.  0.
<mgrwt>
<rscale>  2 0.45186519E+03</rscale>
<asrwt>0</asrwt>
<pdfrwt beam="1">  1       21 0.50006265E-01 0.45186519E+03</pdfrwt>
<pdfrwt beam="2">  1       21 0.22075753E-01 0.45186519E+03</pdfrwt>
<totfact> 0.67635377E+04</totfact>
</mgrwt>
</event>
<event>
 7    0  0.4788920E-002  0.4349570E+03  0.7546771E-02  0.1032305E+00
         21   -1    0    0  502  501  0.00000000000E+00  0.00000000000E+00  0.20162213670E+03  0.20162213670E+03  0.00000000000E+00 0.  1.
         21   -1    0    0  501  502 -0.00000000000E+00 -0.00000000000E+00 -0.23458184525E+03  0.23458184525E+03  0.00000000000E+00 0.  1.
      99926    2    1    2    0    0  0.00000000000E+00  0.00000000000E+00 -0.32959708546E+02  0.43620398194E+03  0.43495697658E+03 0.  0.
      99925    2    3    3    0    0 -0.64650099751E+02  0.39050363523E+02 -0.75832719434E+02  0.28392079360E+03  0.26297499770E+03 0.  0.
         25    1    3    3    0    0  0.64650099751E+02 -0.39050363523E+02  0.42873010887E+02  0.15228318834E+03  0.12509000000E+03 0.  0.
         25    1    4    4    0    0 -0.56375517343E+02  0.50855894555E+02 -0.54827067471E+02  0.15626271594E+03  0.12509000000E+03 0.  0.
         25    1    4    4    0    0 -0.82745824083E+01 -0.11805531032E+02 -0.21005651962E+02  0.12765807766E+03  0.12509000000E+03 0.  0.
<mgrwt>
<rscale>  2 0.43495698E+03</rscale>
<asrwt>0</asrwt>
<pdfrwt beam="1">  1       21 0.29650314E-01 0.43495698E+03</pdfrwt>
<pdfrwt beam="2">  1       21 0.34497330E-01 0.43495698E+03</pdfrwt>
<totfact> 0.82346984E+04</totfact>
</mgrwt>
</event>
<event>
 7    0  0.4788920E-002  0.4555829E+03  0.7546771E-02  0.1026070E+00
         21   -1    0    0  502  501  0.00000000000E+00  0.00000000000E+00  0.45257701389E+03  0.45257701389E+03  0.00000000000E+00 0.  1.
         21   -1    0    0  501  502 -0.00000000000E+00 -0.00000000000E+00 -0.11465218425E+03  0.11465218425E+03  0.00000000000E+00 0.  1.
      99926    2    1    2    0    0  0.00000000000E+00  0.00000000000E+00  0.33792482964E+03  0.56722919815E+03  0.45558289338E+03 0.  0.
      99925    2    3    3    0    0 -0.32394567743E+02  0.39049739694E+02  0.85942391638E+02  0.28136743549E+03  0.26307270646E+03 0.  0.
         25    1    4    4    0    0 -0.57154983033E+02  0.21498672955E+02  0.44047042923E+02  0.14600183257E+03  0.12509000000E+03 0.  0.
         25    1    4    4    0    0  0.24760415290E+02  0.17551066739E+02  0.41895348715E+02  0.13536560292E+03  0.12509000000E+03 0.  0.
         25    1    3    3    0    0  0.32394567743E+02 -0.39049739694E+02  0.25198243800E+03  0.28586176266E+03  0.12509000000E+03 0.  0.
<mgrwt>
<rscale>  2 0.45558289E+03</rscale>
<asrwt>0</asrwt>
<pdfrwt beam="1">  1       21 0.66555443E-01 0.45558289E+03</pdfrwt>
<pdfrwt beam="2">  1       21 0.16860615E-01 0.45558289E+03</pdfrwt>
<totfact> 0.60462944E+04</totfact>
</mgrwt>
</event>
<event>
 7    0  0.4788920E-002  0.4468962E+03  0.7546771E-02  0.1028652E+00
         21   -1    0    0  502  501  0.00000000000E+00  0.00000000000E+00  0.64198895175E+03  0.64198895175E+03  0.00000000000E+00 0. -1.
         21   -1    0    0  501  502 -0.00000000000E+00 -0.00000000000E+00 -0.77772449350E+02  0.77772449350E+02  0.00000000000E+00 0. -1.
      99926    2    1    2    0    0  0.00000000000E+00  0.00000000000E+00  0.56421650240E+03  0.71976140110E+03  0.44689619928E+03 0.  0.
      99925    2    3    3    0    0  0.26116732190E+02 -0.92026199214E+02  0.28735737188E+03  0.40125019048E+03  0.26320439043E+03 0.  0.
         25    1    3    3    0    0 -0.26116732190E+02  0.92026199214E+02  0.27685913052E+03  0.31851121063E+03  0.12509000000E+03 0.  0.
         25    1    4    4    0    0  0.17599575325E+02 -0.38226023122E+02  0.84267052537E+02  0.15658677511E+03  0.12509000000E+03 0.  0.
         25    1    4    4    0    0  0.85171568655E+01 -0.53800176092E+02  0.20309031935E+03  0.24466341537E+03  0.12509000000E+03 0.  0.
<mgrwt>
<rscale>  2 0.44689620E+03</rscale>
<asrwt>0</asrwt>
<pdfrwt beam="1">  1       21 0.94410137E-01 0.44689620E+03</pdfrwt>
<pdfrwt beam="2">  1       21 0.11437125E-01 0.44689620E+03</pdfrwt>
<totfact> 0.55283623E+04</totfact>
</mgrwt>
</event>
<event>
 7    0  0.4788920E-002  0.4559812E+03  0.7546771E-02  0.1025953E+00
         21   -1    0    0  502  501  0.00000000000E+00  0.00000000000E+00  0.18490875139E+03  0.18490875139E+03  0.00000000000E+00 0.  1.
         21   -1    0    0  501  502 -0.00000000000E+00 -0.00000000000E+00 -0.28111002669E+03  0.28111002669E+03  0.00000000000E+00 0.  1.
      99926    2    1    2    0    0  0.00000000000E+00 -0.17763568394E-14 -0.96201275295E+02  0.46601877808E+03  0.45598115768E+03 0.  0.
      99925    2    3    3    0    0  0.44456675930E+02 -0.13166486514E+02  0.46105925925E+02  0.27095827459E+03  0.26295033326E+03 0.  0.
         25    1    3    3    0    0 -0.44456675930E+02  0.13166486514E+02 -0.14230720122E+03  0.19506050349E+03  0.12509000000E+03 0.  0.
         25    1    4    4    0    0  0.23176034034E+02  0.29862830920E+02  0.40685737433E+02  0.13686400021E+03  0.12509000000E+03 0.  0.
         25    1    4    4    0    0  0.21280641896E+02 -0.43029317434E+02  0.54201884924E+01  0.13409427438E+03  0.12509000000E+03 0.  0.
<mgrwt>
<rscale>  2 0.45598116E+03</rscale>
<asrwt>0</asrwt>
<pdfrwt beam="1">  1       21 0.27192464E-01 0.45598116E+03</pdfrwt>
<pdfrwt beam="2">  1       21 0.41339709E-01 0.45598116E+03</pdfrwt>
<totfact> 0.67209040E+04</totfact>
</mgrwt>
</event>
<event>
 7    0  0.4788920E-002  0.4516967E+03  0.7546771E-02  0.1027217E+00
         21   -1    0    0  502  501  0.00000000000E+00  0.00000000000E+00  0.98661765707E+03  0.98661765707E+03  0.00000000000E+00 0.  1.
         21   -1    0    0  501  502 -0.00000000000E+00 -0.00000000000E+00 -0.51699340821E+02  0.51699340821E+02  0.00000000000E+00 0.  1.
      99926    2    1    2    0    0  0.71054273576E-14  0.00000000000E+00  0.93491831625E+03  0.10383169979E+04  0.45169672354E+03 0.  0.
      99925    2    3    3    0    0  0.46453167050E+02  0.13664369308E+02  0.36280524744E+03  0.45069000453E+03  0.26296239446E+03 0.  0.
         25    1    4    4    0    0 -0.11555424161E+02 -0.80262700538E+01  0.19911582439E+03  0.23556860669E+03  0.12509000000E+03 0.  0.
         25    1    4    4    0    0  0.58008591210E+02  0.21690639362E+02  0.16368942305E+03  0.21512139784E+03  0.12509000000E+03 0.  0.
         25    1    3    3    0    0 -0.46453167050E+02 -0.13664369308E+02  0.57211306881E+03  0.58762699336E+03  0.12509000000E+03 0.  0.
<mgrwt>
<rscale>  2 0.45169672E+03</rscale>
<asrwt>0</asrwt>
<pdfrwt beam="1">  1       21 0.14509082E+00 0.45169672E+03</pdfrwt>
<pdfrwt beam="2">  1       21 0.76028448E-02 0.45169672E+03</pdfrwt>
<totfact> 0.38697281E+04</totfact>
</mgrwt>
</event>
<event>
 7    0  0.4788920E-002  0.4362324E+03  0.7546771E-02  0.1031909E+00
         21   -1    0    0  502  501  0.00000000000E+00  0.00000000000E+00  0.21365858410E+04  0.21365858410E+04  0.00000000000E+00 0. -1.
         21   -1    0    0  501  502 -0.00000000000E+00 -0.00000000000E+00 -0.22266676681E+02  0.22266676681E+02  0.00000000000E+00 0. -1.
      99926    2    1    2    0    0 -0.14210854715E-13 -0.35527136788E-14  0.21143191643E+04  0.21588525177E+04  0.43623235150E+03 0.  0.
      99925    2    3    3    0    0  0.89109158493E+02  0.17882241432E+02  0.14834922426E+04  0.15093524562E+04  0.26293608785E+03 0.  0.
         25    1    4    4    0    0  0.67120694148E+02 -0.83329154428E+01  0.93403995358E+03  0.94480303135E+03  0.12509000000E+03 0.  0.
         25    1    3    3    0    0 -0.89109158493E+02 -0.17882241432E+02  0.63082692168E+03  0.64950006151E+03  0.12509000000E+03 0.  0.
         25    1    4    4    0    0  0.21988464345E+02  0.26215156874E+02  0.54945228905E+03  0.56454942481E+03  0.12509000000E+03 0.  0.
<mgrwt>
<rscale>  2 0.43623235E+03</rscale>
<asrwt>0</asrwt>
<pdfrwt beam="1">  1       21 0.31420366E+00 0.43623235E+03</pdfrwt>
<pdfrwt beam="2">  1       21 0.32745128E-02 0.43623235E+03</pdfrwt>
<totfact> 0.13092164E+04</totfact>
</mgrwt>
</event>
<event>
 7    0  0.4788920E-002  0.4636383E+03  0.7546771E-02  0.1023731E+00
         21   -1    0    0  502  501  0.00000000000E+00  0.00000000000E+00  0.41803300896E+03  0.41803300896E+03  0.00000000000E+00 0.  1.
         21   -1    0    0  501  502 -0.00000000000E+00 -0.00000000000E+00 -0.12855473482E+03  0.12855473482E+03  0.00000000000E+00 0.  1.
      99926    2    1    2    0    0  0.00000000000E+00  0.00000000000E+00  0.28947827414E+03  0.54658774378E+03  0.46363831857E+03 0.  0.
      99925    2    3    3    0    0 -0.96433240593E+01 -0.80504026865E+02  0.74941495220E+02  0.28534565366E+03  0.26311978701E+03 0.  0.
         25    1    4    4    0    0 -0.24709153795E+02 -0.17902968894E+02  0.65187442848E+02  0.14431898483E+03  0.12509000000E+03 0.  0.
         25    1    3    3    0    0  0.96433240593E+01  0.80504026865E+02  0.21453677892E+03  0.26124209012E+03  0.12509000000E+03 0.  0.
         25    1    4    4    0    0  0.15065829735E+02 -0.62601057971E+02  0.97540523727E+01  0.14102666883E+03  0.12509000000E+03 0.  0.
<mgrwt>
<rscale>  2 0.46363832E+03</rscale>
<asrwt>0</asrwt>
<pdfrwt beam="1">  1       21 0.61475442E-01 0.46363832E+03</pdfrwt>
<pdfrwt beam="2">  1       21 0.18905108E-01 0.46363832E+03</pdfrwt>
<totfact> 0.58022800E+04</totfact>
</mgrwt>
</event>
<event>
 7    0  0.4788920E-002  0.4681343E+03  0.7546771E-02  0.1022448E+00
         21   -1    0    0  502  501  0.00000000000E+00  0.00000000000E+00  0.26888534429E+03  0.26888534429E+03  0.00000000000E+00 0.  1.
         21   -1    0    0  501  502 -0.00000000000E+00 -0.00000000000E+00 -0.20375763406E+03  0.20375763406E+03  0.00000000000E+00 0.  1.
      99926    2    1    2    0    0  0.14210854715E-13  0.35527136788E-14  0.65127710225E+02  0.47264297835E+03  0.46813434647E+03 0.  0.
      99925    2    3    3    0    0  0.73647984046E+02  0.20699955453E+02 -0.59527902550E+02  0.28018767547E+03  0.26288599924E+03 0.  0.
         25    1    4    4    0    0  0.43116877540E+02  0.48786654057E+02 -0.42606739194E+02  0.14731613987E+03  0.12509000000E+03 0.  0.
         25    1    4    4    0    0  0.30531106506E+02 -0.28086698604E+02 -0.16921163356E+02  0.13287153560E+03  0.12509000000E+03 0.  0.
         25    1    3    3    0    0 -0.73647984046E+02 -0.20699955453E+02  0.12465561277E+03  0.19245530288E+03  0.12509000000E+03 0.  0.
<mgrwt>
<rscale>  2 0.46813435E+03</rscale>
<asrwt>0</asrwt>
<pdfrwt beam="1">  1       21 0.39541963E-01 0.46813435E+03</pdfrwt>
<pdfrwt beam="2">  1       21 0.29964358E-01 0.46813435E+03</pdfrwt>
<totfact> 0.60661215E+04</totfact>
</mgrwt>
</event>
<event>
 7    0  0.4788920E-002  0.4648355E+03  0.7546771E-02  0.1023388E+00
         21   -1    0    0  502  501  0.00000000000E+00  0.00000000000E+00  0.26956425564E+03  0.26956425564E+03  0.00000000000E+00 0. -1.
         21   -1    0    0  501  502 -0.00000000000E+00 -0.00000000000E+00 -0.20039012122E+03  0.20039012122E+03  0.00000000000E+00 0. -1.
      99926    2    1    2    0    0  0.00000000000E+00 -0.14210854715E-13  0.69174134423E+02  0.46995437687E+03  0.46483551442E+03 0.  0.
      99925    2    3    3    0    0 -0.87661437592E+02 -0.84980864743E+02  0.48471578688E+02  0.29393625585E+03  0.26295009707E+03 0.  0.
         25    1    4    4    0    0 -0.65751718300E+02 -0.56803712007E+02  0.59209406326E+02  0.16341117482E+03  0.12509000000E+03 0.  0.
         25    1    4    4    0    0 -0.21909719293E+02 -0.28177152736E+02 -0.10737827639E+02  0.13052508103E+03  0.12509000000E+03 0.  0.
         25    1    3    3    0    0  0.87661437592E+02  0.84980864743E+02  0.20702555735E+02  0.17601812102E+03  0.12509000000E+03 0.  0.
<mgrwt>
<rscale>  2 0.46483551E+03</rscale>
<asrwt>0</asrwt>
<pdfrwt beam="1">  1       21 0.39641802E-01 0.46483551E+03</pdfrwt>
<pdfrwt beam="2">  1       21 0.29469135E-01 0.46483551E+03</pdfrwt>
<totfact> 0.62419003E+04</totfact>
</mgrwt>
</event>
<event>
 7    0  0.4788920E-002  0.4690040E+03  0.7546771E-02  0.1022202E+00
         21   -1    0    0  502  501  0.00000000000E+00  0.00000000000E+00  0.29228196285E+02  0.29228196285E+02  0.00000000000E+00 0.  1.
         21   -1    0    0  501  502 -0.00000000000E+00 -0.00000000000E+00 -0.18814429151E+04  0.18814429151E+04  0.00000000000E+00 0.  1.
      99926    2    1    2    0    0  0.14210854715E-13 -0.71054273576E-14 -0.18522147188E+04  0.19106711114E+04  0.46900397790E+03 0.  0.
      99925    2    3    3    0    0 -0.10973049566E+03  0.52971458590E+02 -0.12740945461E+04  0.13067529056E+04  0.26351373160E+03 0.  0.
         25    1    3    3    0    0  0.10973049566E+03 -0.52971458590E+02 -0.57812017273E+03  0.60391820582E+03  0.12509000000E+03 0.  0.
         25    1    4    4    0    0 -0.70895271811E+02  0.31219648694E+02 -0.84063990217E+03  0.85341886507E+03  0.12509000000E+03 0.  0.
         25    1    4    4    0    0 -0.38835223845E+02  0.21751809896E+02 -0.43345464391E+03  0.45333404050E+03  0.12509000000E+03 0.  0.
<mgrwt>
<rscale>  2 0.46900398E+03</rscale>
<asrwt>0</asrwt>
<pdfrwt beam="1">  1       21 0.42982648E-02 0.46900398E+03</pdfrwt>
<pdfrwt beam="2">  1       21 0.27668274E+00 0.46900398E+03</pdfrwt>
<totfact> 0.13675609E+04</totfact>
</mgrwt>
</event>
<event>
 7    0  0.4788920E-002  0.4527575E+03  0.7546771E-02  0.1026903E+00
         21   -1    0    0  502  501  0.00000000000E+00  0.00000000000E+00  0.11088720082E+04  0.11088720082E+04  0.00000000000E+00 0.  1.
         21   -1    0    0  501  502 -0.00000000000E+00 -0.00000000000E+00 -0.46215738948E+02  0.46215738948E+02  0.00000000000E+00 0.  1.
      99926    2    1    2    0    0  0.00000000000E+00  0.88817841970E-15  0.10626562693E+04  0.11550877472E+04  0.45275750357E+03 0.  0.
      99925    2    3    3    0    0  0.26430426292E+02  0.52078673336E+01  0.39559011421E+03  0.47585991157E+03  0.26310725506E+03 0.  0.
         25    1    3    3    0    0 -0.26430426292E+02 -0.52078673336E+01  0.66706615507E+03  0.67922783560E+03  0.12509000000E+03 0.  0.
         25    1    4    4    0    0 -0.17644365183E+01  0.15424098265E+02  0.26009383060E+03  0.28902824232E+03  0.12509000000E+03 0.  0.
         25    1    4    4    0    0  0.28194862810E+02 -0.10216230931E+02  0.13549628361E+03  0.18683166925E+03  0.12509000000E+03 0.  0.
<mgrwt>
<rscale>  2 0.45275750E+03</rscale>
<asrwt>0</asrwt>
<pdfrwt beam="1">  1       21 0.16306940E+00 0.45275750E+03</pdfrwt>
<pdfrwt beam="2">  1       21 0.67964329E-02 0.45275750E+03</pdfrwt>
<totfact> 0.34206866E+04</totfact>
</mgrwt>
</event>
<event>
 7    0  0.4788920E-002  0.4526481E+03  0.7546771E-02  0.1026935E+00
         21   -1    0    0  502  501  0.00000000000E+00  0.00000000000E+00  0.27267734599E+03  0.27267734599E+03  0.00000000000E+00 0.  1.
         21   -1    0    0  501  502 -0.00000000000E+00 -0.00000000000E+00 -0.18785051802E+03  0.18785051802E+03  0.00000000000E+00 0.  1.
      99926    2    1    2    0    0  0.00000000000E+00  0.00000000000E+00  0.84826827971E+02  0.46052786402E+03  0.45264812249E+03 0.  0.
      99925    2    3    3    0    0 -0.38350273887E+02 -0.92042336633E+02  0.10300657733E+03  0.29952927201E+03  0.26299219490E+03 0.  0.
         25    1    4    4    0    0  0.89298715248E+01 -0.73070732284E+02  0.40414747634E+02  0.15066497419E+03  0.12509000000E+03 0.  0.
         25    1    4    4    0    0 -0.47280145412E+02 -0.18971604349E+02  0.62591829694E+02  0.14886429782E+03  0.12509000000E+03 0.  0.
         25    1    3    3    0    0  0.38350273887E+02  0.92042336633E+02 -0.18179749357E+02  0.16099859200E+03  0.12509000000E+03 0.  0.
<mgrwt>
<rscale>  2 0.45264812E+03</rscale>
<asrwt>0</asrwt>
<pdfrwt beam="1">  1       21 0.40099610E-01 0.45264812E+03</pdfrwt>
<pdfrwt beam="2">  1       21 0.27625076E-01 0.45264812E+03</pdfrwt>
<totfact> 0.69432468E+04</totfact>
</mgrwt>
</event>
<event>
 7    0  0.4788920E-002  0.4555806E+03  0.7546771E-02  0.1026071E+00
         21   -1    0    0  502  501  0.00000000000E+00  0.00000000000E+00  0.40102845066E+03  0.40102845066E+03  0.00000000000E+00 0.  1.
         21   -1    0    0  501  502 -0.00000000000E+00 -0.00000000000E+00 -0.12938838619E+03  0.12938838619E+03  0.00000000000E+00 0.  1.
      99926    2    1    2    0    0  0.00000000000E+00  0.00000000000E+00  0.27164006447E+03  0.53041683684E+03  0.45558061436E+03 0.  0.
      99925    2    3    3    0    0 -0.13933232501E+02 -0.35562500862E+02  0.29550833955E+03  0.39746560860E+03  0.26304924415E+03 0.  0.
         25    1    3    3    0    0  0.13933232501E+02  0.35562500862E+02 -0.23868275076E+02  0.13295122824E+03  0.12509000000E+03 0.  0.
         25    1    4    4    0    0 -0.42505234345E+02 -0.14855341427E+02  0.17860907409E+03  0.22265687854E+03  0.12509000000E+03 0.  0.
         25    1    4    4    0    0  0.28572001844E+02 -0.20707159435E+02  0.11689926545E+03  0.17480873006E+03  0.12509000000E+03 0.  0.
<mgrwt>
<rscale>  2 0.45558061E+03</rscale>
<asrwt>0</asrwt>
<pdfrwt beam="1">  1       21 0.58974772E-01 0.45558061E+03</pdfrwt>
<pdfrwt beam="2">  1       21 0.19027704E-01 0.45558061E+03</pdfrwt>
<totfact> 0.62888413E+04</totfact>
</mgrwt>
</event>
<event>
 7    0  0.4788920E-002  0.4778298E+03  0.7546771E-02  0.1019733E+00
         21   -1    0    0  502  501  0.00000000000E+00  0.00000000000E+00  0.12790529898E+04  0.12790529898E+04  0.00000000000E+00 0. -1.
         21   -1    0    0  501  502 -0.00000000000E+00 -0.00000000000E+00 -0.44627025804E+02  0.44627025804E+02  0.00000000000E+00 0. -1.
      99926    2    1    2    0    0  0.14210854715E-13  0.13322676296E-14  0.12344259640E+04  0.13236800156E+04  0.47782980561E+03 0.  0.
      99925    2    3    3    0    0 -0.10817953996E+03  0.25901497566E+01  0.54605141644E+03  0.61571352800E+03  0.26309974806E+03 0.  0.
         25    1    4    4    0    0 -0.81773534518E+02 -0.22119049143E+02  0.24692975287E+03  0.28947879755E+03  0.12509000000E+03 0.  0.
         25    1    3    3    0    0  0.10817953996E+03 -0.25901497566E+01  0.68837454757E+03  0.70796648762E+03  0.12509000000E+03 0.  0.
         25    1    4    4    0    0 -0.26406005439E+02  0.24709198899E+02  0.29912166357E+03  0.32623473045E+03  0.12509000000E+03 0.  0.
<mgrwt>
<rscale>  2 0.47782981E+03</rscale>
<asrwt>0</asrwt>
<pdfrwt beam="1">  1       21 0.18809600E+00 0.47782981E+03</pdfrwt>
<pdfrwt beam="2">  1       21 0.65627987E-02 0.47782981E+03</pdfrwt>
<totfact> 0.23899929E+04</totfact>
</mgrwt>
</event>
<event>
 7    0  0.4788920E-002  0.4583927E+03  0.7546771E-02  0.1025248E+00
         21   -1    0    0  502  501  0.00000000000E+00  0.00000000000E+00  0.72937218286E+03  0.72937218286E+03  0.00000000000E+00 0. -1.
         21   -1    0    0  501  502 -0.00000000000E+00 -0.00000000000E+00 -0.72022171445E+02  0.72022171445E+02  0.00000000000E+00 0. -1.
      99926    2    1    2    0    0  0.00000000000E+00 -0.35527136788E-14  0.65735001142E+03  0.80139435431E+03  0.45839270675E+03 0.  0.
      99925    2    3    3    0    0  0.66664448759E+02  0.25907603726E+02  0.57276328065E+03  0.63430822148E+03  0.26300910921E+03 0.  0.
         25    1    3    3    0    0 -0.66664448759E+02 -0.25907603726E+02  0.84586730771E+02  0.16708613282E+03  0.12509000000E+03 0.  0.
         25    1    4    4    0    0  0.17015791684E+02  0.39774813844E+02  0.22345562342E+03  0.25971425975E+03  0.12509000000E+03 0.  0.
         25    1    4    4    0    0  0.49648657074E+02 -0.13867210118E+02  0.34930765723E+03  0.37459396173E+03  0.12509000000E+03 0.  0.
<mgrwt>
<rscale>  2 0.45839271E+03</rscale>
<asrwt>0</asrwt>
<pdfrwt beam="1">  1       21 0.10726061E+00 0.45839271E+03</pdfrwt>
<pdfrwt beam="2">  1       21 0.10591496E-01 0.45839271E+03</pdfrwt>
<totfact> 0.46448351E+04</totfact>
</mgrwt>
</event>
<event>
 7    0  0.4788920E-002  0.4500626E+03  0.7546771E-02  0.1027703E+00
         21   -1    0    0  502  501  0.00000000000E+00  0.00000000000E+00  0.38615430756E+02  0.38615430756E+02  0.00000000000E+00 0. -1.
         21   -1    0    0  501  502 -0.00000000000E+00 -0.00000000000E+00 -0.13113694170E+04  0.13113694170E+04  0.00000000000E+00 0. -1.
      99926    2    1    2    0    0  0.00000000000E+00  0.17763568394E-14 -0.12727539862E+04  0.13499848477E+04  0.45006263972E+03 0.  0.
      99925    2    3    3    0    0 -0.52194725174E+02  0.14016373014E+02 -0.52252164257E+03  0.58747791294E+03  0.26302221045E+03 0.  0.
         25    1    4    4    0    0 -0.64057330953E+02  0.28593855454E+00 -0.30670997712E+03  0.33737507551E+03  0.12509000000E+03 0.  0.
         25    1    4    4    0    0  0.11862605778E+02  0.13730434460E+02 -0.21581166545E+03  0.25010283743E+03  0.12509000000E+03 0.  0.
         25    1    3    3    0    0  0.52194725174E+02 -0.14016373014E+02 -0.75023234365E+03  0.76250693480E+03  0.12509000000E+03 0.  0.
<mgrwt>
<rscale>  2 0.45006264E+03</rscale>
<asrwt>0</asrwt>
<pdfrwt beam="1">  1       21 0.56787408E-02 0.45006264E+03</pdfrwt>
<pdfrwt beam="2">  1       21 0.19284841E+00 0.45006264E+03</pdfrwt>
<totfact> 0.28784827E+04</totfact>
</mgrwt>
</event>
<event>
 7    0  0.4788920E-002  0.4635932E+03  0.7546771E-02  0.1023744E+00
         21   -1    0    0  502  501  0.00000000000E+00  0.00000000000E+00  0.18935684123E+03  0.18935684123E+03  0.00000000000E+00 0. -1.
         21   -1    0    0  501  502 -0.00000000000E+00 -0.00000000000E+00 -0.28374815683E+03  0.28374815683E+03  0.00000000000E+00 0. -1.
      99926    2    1    2    0    0 -0.19081958236E-14  0.00000000000E+00 -0.94391315598E+02  0.47310499806E+03  0.46359316079E+03 0.  0.
      99925    2    3    3    0    0  0.54104041001E-01 -0.92981793027E+01 -0.18226111555E+03  0.31995452007E+03  0.26280281888E+03 0.  0.
         25    1    3    3    0    0 -0.54104041001E-01  0.92981793027E+01  0.87869799947E+02  0.15315047799E+03  0.12509000000E+03 0.  0.
         25    1    4    4    0    0 -0.36324295722E+02  0.10554645375E+02 -0.80827436426E+02  0.15366013659E+03  0.12509000000E+03 0.  0.
         25    1    4    4    0    0  0.36378399763E+02 -0.19852824678E+02 -0.10143367912E+03  0.16629438348E+03  0.12509000000E+03 0.  0.
<mgrwt>
<rscale>  2 0.46359316E+03</rscale>
<asrwt>0</asrwt>
<pdfrwt beam="1">  1       21 0.27846594E-01 0.46359316E+03</pdfrwt>
<pdfrwt beam="2">  1       21 0.41727670E-01 0.46359316E+03</pdfrwt>
<totfact> 0.62811380E+04</totfact>
</mgrwt>
</event>
<event>
 7    0  0.4788920E-002  0.4539386E+03  0.7546771E-02  0.1026554E+00
         21   -1    0    0  502  501  0.00000000000E+00  0.00000000000E+00  0.98010809627E+02  0.98010809627E+02  0.00000000000E+00 0.  1.
         21   -1    0    0  501  502 -0.00000000000E+00 -0.00000000000E+00 -0.52560594000E+03  0.52560594000E+03  0.00000000000E+00 0.  1.
      99926    2    1    2    0    0  0.00000000000E+00  0.00000000000E+00 -0.42759513037E+03  0.62361674963E+03  0.45393860256E+03 0.  0.
      99925    2    3    3    0    0 -0.88868638335E+01 -0.11106668738E+03 -0.28595105466E+03  0.40424187030E+03  0.26311347106E+03 0.  0.
         25    1    3    3    0    0  0.88868638335E+01  0.11106668738E+03 -0.14164407572E+03  0.21937487933E+03  0.12509000000E+03 0.  0.
         25    1    4    4    0    0 -0.22621601340E+01 -0.96079111076E+02 -0.13599074157E+03  0.20827218452E+03  0.12509000000E+03 0.  0.
         25    1    4    4    0    0 -0.66247036995E+01 -0.14987576302E+02 -0.14996031309E+03  0.19596968578E+03  0.12509000000E+03 0.  0.
<mgrwt>
<rscale>  2 0.45393860E+03</rscale>
<asrwt>0</asrwt>
<pdfrwt beam="1">  1       21 0.14413355E-01 0.45393860E+03</pdfrwt>
<pdfrwt beam="2">  1       21 0.77294990E-01 0.45393860E+03</pdfrwt>
<totfact> 0.57729922E+04</totfact>
</mgrwt>
</event>
<event>
 7    0  0.4788920E-002  0.4752936E+03  0.7546771E-02  0.1020437E+00
         21   -1    0    0  502  501  0.00000000000E+00  0.00000000000E+00  0.10794984193E+04  0.10794984193E+04  0.00000000000E+00 0.  1.
         21   -1    0    0  501  502 -0.00000000000E+00 -0.00000000000E+00 -0.52316895860E+02  0.52316895860E+02  0.00000000000E+00 0.  1.
      99926    2    1    2    0    0  0.00000000000E+00  0.00000000000E+00  0.10271815235E+04  0.11318153152E+04  0.47529362034E+03 0.  0.
      99925    2    3    3    0    0  0.86434865695E+02  0.57330907255E+01  0.40003697752E+03  0.48647692028E+03  0.26291891571E+03 0.  0.
         25    1    4    4    0    0  0.48242832117E+02 -0.22656882987E+02  0.14711576072E+03  0.20032788211E+03  0.12509000000E+03 0.  0.
         25    1    4    4    0    0  0.38192033579E+02  0.28389973713E+02  0.25292121680E+03  0.28614903817E+03  0.12509000000E+03 0.  0.
         25    1    3    3    0    0 -0.86434865695E+02 -0.57330907255E+01  0.62714454595E+03  0.64533839491E+03  0.12509000000E+03 0.  0.
<mgrwt>
<rscale>  2 0.47529362E+03</rscale>
<asrwt>0</asrwt>
<pdfrwt beam="1">  1       21 0.15874975E+00 0.47529362E+03</pdfrwt>
<pdfrwt beam="2">  1       21 0.76936619E-02 0.47529362E+03</pdfrwt>
<totfact> 0.29452846E+04</totfact>
</mgrwt>
</event>
<event>
 7    0  0.4788920E-002  0.4562364E+03  0.7546771E-02  0.1025878E+00
         21   -1    0    0  502  501  0.00000000000E+00  0.00000000000E+00  0.30537839174E+02  0.30537839174E+02  0.00000000000E+00 0. -1.
         21   -1    0    0  501  502 -0.00000000000E+00 -0.00000000000E+00 -0.17040469943E+04  0.17040469943E+04  0.00000000000E+00 0. -1.
      99926    2    1    2    0    0  0.00000000000E+00  0.00000000000E+00 -0.16735091551E+04  0.17345848334E+04  0.45623639949E+03 0.  0.
      99925    2    3    3    0    0 -0.90520213678E+02 -0.68986449984E+02 -0.10809298396E+04  0.11183456001E+04  0.26331449624E+03 0.  0.
         25    1    4    4    0    0 -0.12926791609E+02 -0.42883287161E+02 -0.60803966565E+03  0.62238719570E+03  0.12509000000E+03 0.  0.
         25    1    3    3    0    0  0.90520213678E+02  0.68986449984E+02 -0.59257931554E+03  0.61623923331E+03  0.12509000000E+03 0.  0.
         25    1    4    4    0    0 -0.77593422068E+02 -0.26103162823E+02 -0.47289017391E+03  0.49595840444E+03  0.12509000000E+03 0.  0.
<mgrwt>
<rscale>  2 0.45623640E+03</rscale>
<asrwt>0</asrwt>
<pdfrwt beam="1">  1       21 0.44908573E-02 0.45623640E+03</pdfrwt>
<pdfrwt beam="2">  1       21 0.25059523E+00 0.45623640E+03</pdfrwt>
<totfact> 0.18373930E+04</totfact>
</mgrwt>
</event>
<event>
 7    0  0.4788920E-002  0.4763266E+03  0.7546771E-02  0.1020150E+00
         21   -1    0    0  502  501  0.00000000000E+00  0.00000000000E+00  0.40503495640E+03  0.40503495640E+03  0.00000000000E+00 0.  1.
         21   -1    0    0  501  502 -0.00000000000E+00 -0.00000000000E+00 -0.14004162699E+03  0.14004162699E+03  0.00000000000E+00 0.  1.
      99926    2    1    2    0    0  0.00000000000E+00  0.00000000000E+00  0.26499332940E+03  0.54507658339E+03  0.47632658663E+03 0.  0.
      99925    2    3    3    0    0  0.55585772696E+02  0.33410525964E+02  0.31946710492E+02  0.27274539521E+03  0.26298938557E+03 0.  0.
         25    1    4    4    0    0  0.35602785423E+02  0.34650341626E+02 -0.19529625110E+02  0.13600411340E+03  0.12509000000E+03 0.  0.
         25    1    3    3    0    0 -0.55585772696E+02 -0.33410525964E+02  0.23304661891E+03  0.27233118818E+03  0.12509000000E+03 0.  0.
         25    1    4    4    0    0  0.19982987272E+02 -0.12398156616E+01  0.51476335601E+02  0.13674128181E+03  0.12509000000E+03 0.  0.
<mgrwt>
<rscale>  2 0.47632659E+03</rscale>
<asrwt>0</asrwt>
<pdfrwt beam="1">  1       21 0.59563964E-01 0.47632659E+03</pdfrwt>
<pdfrwt beam="2">  1       21 0.20594357E-01 0.47632659E+03</pdfrwt>
<totfact> 0.52708711E+04</totfact>
</mgrwt>
</event>
<event>
 7    0  0.4788920E-002  0.3913077E+03  0.7546771E-02  0.1046832E+00
         21   -1    0    0  502  501  0.00000000000E+00  0.00000000000E+00  0.54098577091E+02  0.54098577091E+02  0.00000000000E+00 0. -1.
         21   -1    0    0  501  502 -0.00000000000E+00 -0.00000000000E+00 -0.70760514161E+03  0.70760514161E+03  0.00000000000E+00 0. -1.
      99926    2    1    2    0    0  0.00000000000E+00  0.35527136788E-14 -0.65350656452E+03  0.76170371871E+03  0.39130771167E+03 0.  0.
      99925    2    3    3    0    0 -0.13253311979E+02 -0.19868932059E+02 -0.43644882373E+03  0.51004522853E+03  0.26284621867E+03 0.  0.
         25    1    3    3    0    0  0.13253311979E+02  0.19868932059E+02 -0.21705774080E+03  0.25165849018E+03  0.12509000000E+03 0.  0.
         25    1    4    4    0    0 -0.16088176316E+02  0.11259670955E+02 -0.15265541598E+03  0.19833505423E+03  0.12509000000E+03 0.  0.
         25    1    4    4    0    0  0.28348643363E+01 -0.31128603014E+02 -0.28379340775E+03  0.31171017430E+03  0.12509000000E+03 0.  0.
<mgrwt>
<rscale>  2 0.39130771E+03</rscale>
<asrwt>0</asrwt>
<pdfrwt beam="1">  1       21 0.79556735E-02 0.39130771E+03</pdfrwt>
<pdfrwt beam="2">  1       21 0.10405958E+00 0.39130771E+03</pdfrwt>
<totfact> 0.84757807E+04</totfact>
</mgrwt>
</event>
<event>
 7    0  0.4788920E-002  0.4494147E+03  0.7546771E-02  0.1027897E+00
         21   -1    0    0  502  501  0.00000000000E+00  0.00000000000E+00  0.17434244893E+02  0.17434244893E+02  0.00000000000E+00 0. -1.
         21   -1    0    0  501  502 -0.00000000000E+00 -0.00000000000E+00 -0.28962192732E+04  0.28962192732E+04  0.00000000000E+00 0. -1.
      99926    2    1    2    0    0  0.00000000000E+00  0.00000000000E+00 -0.28787850283E+04  0.29136535181E+04  0.44941471304E+03 0.  0.
      99925    2    3    3    0    0  0.17563103552E+02 -0.99784625166E+02 -0.20622903048E+04  0.20814416607E+04  0.26285481061E+03 0.  0.
         25    1    4    4    0    0  0.14583740627E+02 -0.78418947877E+02 -0.88761687040E+03  0.89992968258E+03  0.12509000000E+03 0.  0.
         25    1    4    4    0    0  0.29793629251E+01 -0.21365677290E+02 -0.11746734344E+04  0.11815119781E+04  0.12509000000E+03 0.  0.
         25    1    3    3    0    0 -0.17563103552E+02  0.99784625166E+02 -0.81649472352E+03  0.83221185744E+03  0.12509000000E+03 0.  0.
<mgrwt>
<rscale>  2 0.44941471E+03</rscale>
<asrwt>0</asrwt>
<pdfrwt beam="1">  1       21 0.25638626E-02 0.44941471E+03</pdfrwt>
<pdfrwt beam="2">  1       21 0.42591409E+00 0.44941471E+03</pdfrwt>
<totfact> 0.39251660E+03</totfact>
</mgrwt>
</event>
<event>
 7    0  0.4788920E-002  0.4503797E+03  0.7546771E-02  0.1027609E+00
         21   -1    0    0  502  501  0.00000000000E+00  0.00000000000E+00  0.46856596483E+02  0.46856596483E+02  0.00000000000E+00 0. -1.
         21   -1    0    0  501  502 -0.00000000000E+00 -0.00000000000E+00 -0.10822484662E+04  0.10822484662E+04  0.00000000000E+00 0. -1.
      99926    2    1    2    0    0 -0.35527136788E-14  0.35527136788E-14 -0.10353918697E+04  0.11291050627E+04  0.45037974943E+03 0.  0.
      99925    2    3    3    0    0 -0.31337609879E+02  0.25753406886E+02 -0.40119927401E+03  0.48142223883E+03  0.26298522928E+03 0.  0.
         25    1    4    4    0    0  0.53478592259E+01  0.17232266307E+01 -0.25495348255E+03  0.28404287612E+03  0.12509000000E+03 0.  0.
         25    1    4    4    0    0 -0.36685469105E+02  0.24030180255E+02 -0.14624579146E+03  0.19737936271E+03  0.12509000000E+03 0.  0.
         25    1    3    3    0    0  0.31337609879E+02 -0.25753406886E+02 -0.63419259572E+03  0.64768282386E+03  0.12509000000E+03 0.  0.
<mgrwt>
<rscale>  2 0.45037975E+03</rscale>
<asrwt>0</asrwt>
<pdfrwt beam="1">  1       21 0.68906768E-02 0.45037975E+03</pdfrwt>
<pdfrwt beam="2">  1       21 0.15915417E+00 0.45037975E+03</pdfrwt>
<totfact> 0.35758354E+04</totfact>
</mgrwt>
</event>
<event>
 7    0  0.4788920E-002  0.4519356E+03  0.7546771E-02  0.1027146E+00
         21   -1    0    0  502  501  0.00000000000E+00  0.00000000000E+00  0.37195838300E+03  0.37195838300E+03  0.00000000000E+00 0.  1.
         21   -1    0    0  501  502 -0.00000000000E+00 -0.00000000000E+00 -0.13727732844E+03  0.13727732844E+03  0.00000000000E+00 0.  1.
      99926    2    1    2    0    0  0.00000000000E+00  0.35527136788E-14  0.23468105456E+03  0.50923571144E+03  0.45193562865E+03 0.  0.
      99925    2    3    3    0    0 -0.10996404647E+03  0.76039809108E+01  0.15171223844E+03  0.32300670031E+03  0.26299584238E+03 0.  0.
         25    1    4    4    0    0 -0.42945616354E+02 -0.31677510788E+02  0.54210867299E+02  0.14640395106E+03  0.12509000000E+03 0.  0.
         25    1    3    3    0    0  0.10996404647E+03 -0.76039809108E+01  0.82968816111E+02  0.18622901113E+03  0.12509000000E+03 0.  0.
         25    1    4    4    0    0 -0.67018430113E+02  0.39281491698E+02  0.97501371146E+02  0.17660274924E+03  0.12509000000E+03 0.  0.
<mgrwt>
<rscale>  2 0.45193563E+03</rscale>
<asrwt>0</asrwt>
<pdfrwt beam="1">  1       21 0.54699762E-01 0.45193563E+03</pdfrwt>
<pdfrwt beam="2">  1       21 0.20187842E-01 0.45193563E+03</pdfrwt>
<totfact> 0.66222444E+04</totfact>
</mgrwt>
</event>
<event>
 7    0  0.4788920E-002  0.4488038E+03  0.7546771E-02  0.1028079E+00
         21   -1    0    0  502  501  0.00000000000E+00  0.00000000000E+00  0.98917592380E+03  0.98917592380E+03  0.00000000000E+00 0.  1.
         21   -1    0    0  501  502 -0.00000000000E+00 -0.00000000000E+00 -0.50907229736E+02  0.50907229736E+02  0.00000000000E+00 0.  1.
      99926    2    1    2    0    0  0.00000000000E+00  0.00000000000E+00  0.93826869407E+03  0.10400831535E+04  0.44880377005E+03 0.  0.
      99925    2    3    3    0    0  0.65346100307E+02 -0.45564288717E+02  0.76036664338E+03  0.80847385974E+03  0.26291887018E+03 0.  0.
         25    1    4    4    0    0 -0.27785210308E+01 -0.19567631177E+02  0.41760937542E+03  0.43638940284E+03  0.12509000000E+03 0.  0.
         25    1    4    4    0    0  0.68124621338E+02 -0.25996657540E+02  0.34275726795E+03  0.37208445691E+03  0.12509000000E+03 0.  0.
         25    1    3    3    0    0 -0.65346100307E+02  0.45564288717E+02  0.17790205069E+03  0.23160929379E+03  0.12509000000E+03 0.  0.
<mgrwt>
<rscale>  2 0.44880377E+03</rscale>
<asrwt>0</asrwt>
<pdfrwt beam="1">  1       21 0.14546703E+00 0.44880377E+03</pdfrwt>
<pdfrwt beam="2">  1       21 0.74863580E-02 0.44880377E+03</pdfrwt>
<totfact> 0.39520594E+04</totfact>
</mgrwt>
</event>
<event>
 7    0  0.4788920E-002  0.4537980E+03  0.7546771E-02  0.1026595E+00
         21   -1    0    0  502  501  0.00000000000E+00  0.00000000000E+00  0.11964354863E+03  0.11964354863E+03  0.00000000000E+00 0. -1.
         21   -1    0    0  501  502 -0.00000000000E+00 -0.00000000000E+00 -0.43030457243E+03  0.43030457243E+03  0.00000000000E+00 0. -1.
      99926    2    1    2    0    0  0.00000000000E+00  0.00000000000E+00 -0.31066102380E+03  0.54994812106E+03  0.45379804335E+03 0.  0.
      99925    2    3    3    0    0 -0.10081366195E+03 -0.36375984242E+02 -0.23444969033E+03  0.36844803259E+03  0.26325023980E+03 0.  0.
         25    1    4    4    0    0 -0.74958949468E+02 -0.34061429455E+02 -0.16579010391E+03  0.22341193285E+03  0.12509000000E+03 0.  0.
         25    1    4    4    0    0 -0.25854712484E+02 -0.23145547878E+01 -0.68659586418E+02  0.14503609974E+03  0.12509000000E+03 0.  0.
         25    1    3    3    0    0  0.10081366195E+03  0.36375984242E+02 -0.76211333469E+02  0.18150008847E+03  0.12509000000E+03 0.  0.
<mgrwt>
<rscale>  2 0.45379804E+03</rscale>
<asrwt>0</asrwt>
<pdfrwt beam="1">  1       21 0.17594640E-01 0.45379804E+03</pdfrwt>
<pdfrwt beam="2">  1       21 0.63280084E-01 0.45379804E+03</pdfrwt>
<totfact> 0.62461821E+04</totfact>
</mgrwt>
</event>
<event>
 7    0  0.4788920E-002  0.4562212E+03  0.7546771E-02  0.1025883E+00
         21   -1    0    0  502  501  0.00000000000E+00  0.00000000000E+00  0.15187608769E+03  0.15187608769E+03  0.00000000000E+00 0.  1.
         21   -1    0    0  501  502 -0.00000000000E+00 -0.00000000000E+00 -0.34261113363E+03  0.34261113363E+03  0.00000000000E+00 0.  1.
      99926    2    1    2    0    0  0.00000000000E+00  0.00000000000E+00 -0.19073504594E+03  0.49448722133E+03  0.45622116819E+03 0.  0.
      99925    2    3    3    0    0 -0.70512967856E+02  0.25924724970E+02 -0.21303595779E+03  0.34687621642E+03  0.26323871334E+03 0.  0.
         25    1    4    4    0    0 -0.45281616898E+02 -0.26731864304E+02 -0.10410447354E+03  0.17102709408E+03  0.12509000000E+03 0.  0.
         25    1    4    4    0    0 -0.25231350958E+02  0.52656589275E+02 -0.10893148425E+03  0.17584912234E+03  0.12509000000E+03 0.  0.
         25    1    3    3    0    0  0.70512967856E+02 -0.25924724970E+02  0.22300911853E+02  0.14761100491E+03  0.12509000000E+03 0.  0.
<mgrwt>
<rscale>  2 0.45622117E+03</rscale>
<asrwt>0</asrwt>
<pdfrwt beam="1">  1       21 0.22334719E-01 0.45622117E+03</pdfrwt>
<pdfrwt beam="2">  1       21 0.50383989E-01 0.45622117E+03</pdfrwt>
<totfact> 0.65027021E+04</totfact>
</mgrwt>
</event>
<event>
 7    0  0.4788920E-002  0.4543620E+03  0.7546771E-02  0.1026429E+00
         21   -1    0    0  502  501  0.00000000000E+00  0.00000000000E+00  0.12401814286E+04  0.12401814286E+04  0.00000000000E+00 0. -1.
         21   -1    0    0  501  502 -0.00000000000E+00 -0.00000000000E+00 -0.41615846675E+02  0.41615846675E+02  0.00000000000E+00 0. -1.
      99926    2    1    2    0    0  0.00000000000E+00 -0.71054273576E-14  0.11985655819E+04  0.12817972753E+04  0.45436197104E+03 0.  0.
      99925    2    3    3    0    0  0.32361408886E+02  0.61453765843E+02  0.10045793354E+04  0.10407537147E+04  0.26299206751E+03 0.  0.
         25    1    4    4    0    0 -0.16127733510E+01 -0.19169840303E+01  0.53897520270E+03  0.55330647303E+03  0.12509000000E+03 0.  0.
         25    1    4    4    0    0  0.33974182237E+02  0.63370749874E+02  0.46560413267E+03  0.48744724172E+03  0.12509000000E+03 0.  0.
         25    1    3    3    0    0 -0.32361408886E+02 -0.61453765843E+02  0.19398624654E+03  0.24104356052E+03  0.12509000000E+03 0.  0.
<mgrwt>
<rscale>  2 0.45436197E+03</rscale>
<asrwt>0</asrwt>
<pdfrwt beam="1">  1       21 0.18237960E+00 0.45436197E+03</pdfrwt>
<pdfrwt beam="2">  1       21 0.61199783E-02 0.45436197E+03</pdfrwt>
<totfact> 0.29795671E+04</totfact>
</mgrwt>
</event>
<event>
 7    0  0.4788920E-002  0.4477547E+03  0.7546771E-02  0.1028394E+00
         21   -1    0    0  502  501  0.00000000000E+00  0.00000000000E+00  0.63857894103E+02  0.63857894103E+02  0.00000000000E+00 0. -1.
         21   -1    0    0  501  502 -0.00000000000E+00 -0.00000000000E+00 -0.78488454979E+03  0.78488454979E+03  0.00000000000E+00 0. -1.
      99926    2    1    2    0    0 -0.71054273576E-14  0.14210854715E-13 -0.72102665569E+03  0.84874244390E+03  0.44775472957E+03 0.  0.
      99925    2    3    3    0    0  0.40013533036E+02 -0.97654131658E+02 -0.47938648571E+03  0.55689506579E+03  0.26302718371E+03 0.  0.
         25    1    4    4    0    0 -0.92465532810E+01 -0.49070035764E+02 -0.28873430850E+03  0.31860379182E+03  0.12509000000E+03 0.  0.
         25    1    3    3    0    0 -0.40013533036E+02  0.97654131658E+02 -0.24164016998E+03  0.29184737810E+03  0.12509000000E+03 0.  0.
         25    1    4    4    0    0  0.49260086317E+02 -0.48584095894E+02 -0.19065217721E+03  0.23829127397E+03  0.12509000000E+03 0.  0.
<mgrwt>
<rscale>  2 0.44775473E+03</rscale>
<asrwt>0</asrwt>
<pdfrwt beam="1">  1       21 0.93908673E-02 0.44775473E+03</pdfrwt>
<pdfrwt beam="2">  1       21 0.11542419E+00 0.44775473E+03</pdfrwt>
<totfact> 0.48175985E+04</totfact>
</mgrwt>
</event>
<event>
 7    0  0.4788920E-002  0.4507037E+03  0.7546771E-02  0.1027512E+00
         21   -1    0    0  502  501  0.00000000000E+00  0.00000000000E+00  0.23729982388E+03  0.23729982388E+03  0.00000000000E+00 0.  1.
         21   -1    0    0  501  502 -0.00000000000E+00 -0.00000000000E+00 -0.21400549102E+03  0.21400549102E+03  0.00000000000E+00 0.  1.
      99926    2    1    2    0    0 -0.88817841970E-15  0.00000000000E+00  0.23294332862E+02  0.45130531490E+03  0.45070374007E+03 0.  0.
      99925    2    3    3    0    0  0.63066939162E+01 -0.49165760934E+02 -0.82570600160E+02  0.28009801780E+03  0.26302081501E+03 0.  0.
         25    1    4    4    0    0 -0.59218699780E+01 -0.52305427460E+02 -0.72764663108E+02  0.15399068343E+03  0.12509000000E+03 0.  0.
         25    1    3    3    0    0 -0.63066939162E+01  0.49165760934E+02  0.10586493302E+03  0.17120729710E+03  0.12509000000E+03 0.  0.
         25    1    4    4    0    0  0.12228563894E+02  0.31396665264E+01 -0.98059370528E+01  0.12610733437E+03  0.12509000000E+03 0.  0.
<mgrwt>
<rscale>  2 0.45070374E+03</rscale>
<asrwt>0</asrwt>
<pdfrwt beam="1">  1       21 0.34897033E-01 0.45070374E+03</pdfrwt>
<pdfrwt beam="2">  1       21 0.31471396E-01 0.45070374E+03</pdfrwt>
<totfact> 0.71227842E+04</totfact>
</mgrwt>
</event>
<event>
 7    0  0.4788920E-002  0.4553501E+03  0.7546771E-02  0.1026139E+00
         21   -1    0    0  502  501  0.00000000000E+00  0.00000000000E+00  0.17432184947E+03  0.17432184947E+03  0.00000000000E+00 0. -1.
         21   -1    0    0  501  502 -0.00000000000E+00 -0.00000000000E+00 -0.29735754493E+03  0.29735754493E+03  0.00000000000E+00 0. -1.
      99926    2    1    2    0    0  0.00000000000E+00  0.00000000000E+00 -0.12303569546E+03  0.47167939440E+03  0.45535005078E+03 0.  0.
      99925    2    3    3    0    0 -0.70994738317E+02  0.87470698259E+02 -0.91798707183E+02  0.30046422726E+03  0.26298359892E+03 0.  0.
         25    1    4    4    0    0 -0.48598921134E+02  0.20171339693E+02 -0.76680566262E+02  0.15587224071E+03  0.12509000000E+03 0.  0.
         25    1    4    4    0    0 -0.22395817183E+02  0.67299358566E+02 -0.15118140921E+02  0.14459198655E+03  0.12509000000E+03 0.  0.
         25    1    3    3    0    0  0.70994738317E+02 -0.87470698259E+02 -0.31236988272E+02  0.17121516714E+03  0.12509000000E+03 0.  0.
<mgrwt>
<rscale>  2 0.45535005E+03</rscale>
<asrwt>0</asrwt>
<pdfrwt beam="1">  1       21 0.25635566E-01 0.45535005E+03</pdfrwt>
<pdfrwt beam="2">  1       21 0.43729050E-01 0.45535005E+03</pdfrwt>
<totfact> 0.67124415E+04</totfact>
</mgrwt>
</event>
<event>
 7    0  0.4788920E-002  0.4574697E+03  0.7546771E-02  0.1025518E+00
         21   -1    0    0  502  501  0.00000000000E+00  0.00000000000E+00  0.59440735892E+03  0.59440735892E+03  0.00000000000E+00 0.  1.
         21   -1    0    0  501  502 -0.00000000000E+00 -0.00000000000E+00 -0.88019816327E+02  0.88019816327E+02  0.00000000000E+00 0.  1.
      99926    2    1    2    0    0  0.35527136788E-14  0.00000000000E+00  0.50638754259E+03  0.68242717525E+03  0.45746967793E+03 0.  0.
      99925    2    3    3    0    0 -0.28172990638E+02  0.10059177636E+03  0.39132221576E+03  0.48292790103E+03  0.26300923591E+03 0.  0.
         25    1    4    4    0    0 -0.34657507767E+02  0.31368644316E+02  0.13838204658E+03  0.19230765353E+03  0.12509000000E+03 0.  0.
         25    1    3    3    0    0  0.28172990638E+02 -0.10059177636E+03  0.11506532683E+03  0.19949927421E+03  0.12509000000E+03 0.  0.
         25    1    4    4    0    0  0.64845171283E+01  0.69223132045E+02  0.25294016918E+03  0.29062024750E+03  0.12509000000E+03 0.  0.
<mgrwt>
<rscale>  2 0.45746968E+03</rscale>
<asrwt>0</asrwt>
<pdfrwt beam="1">  1       21 0.87412845E-01 0.45746968E+03</pdfrwt>
<pdfrwt beam="2">  1       21 0.12944091E-01 0.45746968E+03</pdfrwt>
<totfact> 0.52832763E+04</totfact>
</mgrwt>
</event>
<event>
 7    0  0.4788920E-002  0.4522441E+03  0.7546771E-02  0.1027055E+00
         21   -1    0    0  502  501  0.00000000000E+00  0.00000000000E+00  0.59521472980E+02  0.59521472980E+02  0.00000000000E+00 0.  1.
         21   -1    0    0  501  502 -0.00000000000E+00 -0.00000000000E+00 -0.85903749950E+03  0.85903749950E+03  0.00000000000E+00 0.  1.
      99926    2    1    2    0    0  0.00000000000E+00  0.71054273576E-14 -0.79951602652E+03  0.91855897248E+03  0.45224408151E+03 0.  0.
      99925    2    3    3    0    0  0.91544421442E+02  0.52994034097E+02 -0.56916225677E+03  0.63589465551E+03  0.26311136356E+03 0.  0.
         25    1    4    4    0    0  0.56731009232E+01  0.10390474609E+02 -0.26786352997E+03  0.29586910083E+03  0.12509000000E+03 0.  0.
         25    1    4    4    0    0  0.85871320518E+02  0.42603559488E+02 -0.30129872680E+03  0.34002555469E+03  0.12509000000E+03 0.  0.
         25    1    3    3    0    0 -0.91544421442E+02 -0.52994034097E+02 -0.23035376975E+03  0.28266431697E+03  0.12509000000E+03 0.  0.
<mgrwt>
<rscale>  2 0.45224408E+03</rscale>
<asrwt>0</asrwt>
<pdfrwt beam="1">  1       21 0.87531588E-02 0.45224408E+03</pdfrwt>
<pdfrwt beam="2">  1       21 0.12632903E+00 0.45224408E+03</pdfrwt>
<totfact> 0.43368379E+04</totfact>
</mgrwt>
</event>
<event>
 7    0  0.4788920E-002  0.4514768E+03  0.7546771E-02  0.1027283E+00
         21   -1    0    0  502  501  0.00000000000E+00  0.00000000000E+00  0.20812912422E+04  0.20812912422E+04  0.00000000000E+00 0.  1.
         21   -1    0    0  501  502 -0.00000000000E+00 -0.00000000000E+00 -0.24483758421E+02  0.24483758421E+02  0.00000000000E+00 0.  1.
      99926    2    1    2    0    0  0.00000000000E+00  0.00000000000E+00  0.20568074838E+04  0.21057750007E+04  0.45147682988E+03 0.  0.
      99925    2    3    3    0    0  0.75100537935E+02  0.14115620876E+02  0.93070094415E+03  0.97016820765E+03  0.26302616246E+03 0.  0.
         25    1    4    4    0    0  0.33555926736E+01  0.14515333601E+02  0.35526880702E+03  0.37694215505E+03  0.12509000000E+03 0.  0.
         25    1    3    3    0    0 -0.75100537935E+02 -0.14115620876E+02  0.11261065397E+04  0.11356067930E+04  0.12509000000E+03 0.  0.
         25    1    4    4    0    0  0.71744945262E+02 -0.39971272495E+00  0.57543213713E+03  0.59322605260E+03  0.12509000000E+03 0.  0.
<mgrwt>
<rscale>  2 0.45147683E+03</rscale>
<asrwt>0</asrwt>
<pdfrwt beam="1">  1       21 0.30607212E+00 0.45147683E+03</pdfrwt>
<pdfrwt beam="2">  1       21 0.36005541E-02 0.45147683E+03</pdfrwt>
<totfact> 0.12394186E+04</totfact>
</mgrwt>
</event>
<event>
 7    0  0.4788920E-002  0.4521924E+03  0.7546771E-02  0.1027070E+00
         21   -1    0    0  502  501  0.00000000000E+00  0.00000000000E+00  0.90437135851E+03  0.90437135851E+03  0.00000000000E+00 0.  1.
         21   -1    0    0  501  502 -0.00000000000E+00 -0.00000000000E+00 -0.56524902442E+02  0.56524902442E+02  0.00000000000E+00 0.  1.
      99926    2    1    2    0    0  0.00000000000E+00  0.14210854715E-13  0.84784645606E+03  0.96089626095E+03  0.45219244934E+03 0.  0.
      99925    2    3    3    0    0 -0.69295637653E+02 -0.85754621229E+02  0.51705182448E+03  0.59045282823E+03  0.26293765935E+03 0.  0.
         25    1    4    4    0    0 -0.30680211841E+02 -0.83841731424E+02  0.29665514170E+03  0.33409952488E+03  0.12509000000E+03 0.  0.
         25    1    3    3    0    0  0.69295637653E+02  0.85754621229E+02  0.33079463159E+03  0.37044343272E+03  0.12509000000E+03 0.  0.
         25    1    4    4    0    0 -0.38615425812E+02 -0.19128898050E+01  0.22039668278E+03  0.25635330335E+03  0.12509000000E+03 0.  0.
<mgrwt>
<rscale>  2 0.45219245E+03</rscale>
<asrwt>0</asrwt>
<pdfrwt beam="1">  1       21 0.13299578E+00 0.45219245E+03</pdfrwt>
<pdfrwt beam="2">  1       21 0.83124862E-02 0.45219245E+03</pdfrwt>
<totfact> 0.41608631E+04</totfact>
</mgrwt>
</event>
<event>
 7    0  0.4788920E-002  0.4487865E+03  0.7546771E-02  0.1028085E+00
         21   -1    0    0  502  501  0.00000000000E+00  0.00000000000E+00  0.20477525787E+03  0.20477525787E+03  0.00000000000E+00 0. -1.
         21   -1    0    0  501  502 -0.00000000000E+00 -0.00000000000E+00 -0.24589073728E+03  0.24589073728E+03  0.00000000000E+00 0. -1.
      99926    2    1    2    0    0  0.00000000000E+00  0.00000000000E+00 -0.41115479413E+02  0.45066599515E+03  0.44878653783E+03 0.  0.
      99925    2    3    3    0    0  0.80350170119E+02 -0.36694192983E+02 -0.87309194361E+02  0.29071606224E+03  0.26285037528E+03 0.  0.
         25    1    4    4    0    0  0.30635828391E+01 -0.22716066357E+02 -0.21340603963E+02  0.12895090030E+03  0.12509000000E+03 0.  0.
         25    1    3    3    0    0 -0.80350170119E+02  0.36694192983E+02  0.46193714948E+02  0.15994993291E+03  0.12509000000E+03 0.  0.
         25    1    4    4    0    0  0.77286587280E+02 -0.13978126626E+02 -0.65968590398E+02  0.16176516194E+03  0.12509000000E+03 0.  0.
<mgrwt>
<rscale>  2 0.44878654E+03</rscale>
<asrwt>0</asrwt>
<pdfrwt beam="1">  1       21 0.30114008E-01 0.44878654E+03</pdfrwt>
<pdfrwt beam="2">  1       21 0.36160403E-01 0.44878654E+03</pdfrwt>
<totfact> 0.72387050E+04</totfact>
</mgrwt>
</event>
<event>
 7    0  0.4788920E-002  0.4545986E+03  0.7546771E-02  0.1026360E+00
         21   -1    0    0  502  501  0.00000000000E+00  0.00000000000E+00  0.88707889246E+03  0.88707889246E+03  0.00000000000E+00 0. -1.
         21   -1    0    0  501  502 -0.00000000000E+00 -0.00000000000E+00 -0.58241682835E+02  0.58241682835E+02  0.00000000000E+00 0. -1.
      99926    2    1    2    0    0  0.71054273576E-14 -0.71054273576E-14  0.82883720962E+03  0.94532057529E+03  0.45459858118E+03 0.  0.
      99925    2    3    3    0    0  0.40429686755E+02 -0.37950771157E+02  0.31756274722E+03  0.41605324718E+03  0.26301974349E+03 0.  0.
         25    1    3    3    0    0 -0.40429686755E+02  0.37950771157E+02  0.51127446241E+03  0.52926732812E+03  0.12509000000E+03 0.  0.
         25    1    4    4    0    0  0.94996286174E+01  0.14527061927E+02  0.18413513827E+03  0.22328129281E+03  0.12509000000E+03 0.  0.
         25    1    4    4    0    0  0.30930058138E+02 -0.52477833084E+02  0.13342760894E+03  0.19277195437E+03  0.12509000000E+03 0.  0.
<mgrwt>
<rscale>  2 0.45459858E+03</rscale>
<asrwt>0</asrwt>
<pdfrwt beam="1">  1       21 0.13045277E+00 0.45459858E+03</pdfrwt>
<pdfrwt beam="2">  1       21 0.85649539E-02 0.45459858E+03</pdfrwt>
<totfact> 0.41460867E+04</totfact>
</mgrwt>
</event>
<event>
 7    0  0.4788920E-002  0.4587624E+03  0.7546771E-02  0.1025141E+00
         21   -1    0    0  502  501  0.00000000000E+00  0.00000000000E+00  0.45285403776E+02  0.45285403776E+02  0.00000000000E+00 0. -1.
         21   -1    0    0  501  502 -0.00000000000E+00 -0.00000000000E+00 -0.11618693931E+04  0.11618693931E+04  0.00000000000E+00 0. -1.
      99926    2    1    2    0    0  0.88817841970E-15 -0.14210854715E-13 -0.11165839894E+04  0.12071547969E+04  0.45876235506E+03 0.  0.
      99925    2    3    3    0    0  0.26888434709E+01 -0.74824156539E+02 -0.93543609084E+03  0.97462962942E+03  0.26316601265E+03 0.  0.
         25    1    4    4    0    0  0.24545884353E+02 -0.44954646526E+02 -0.35866932295E+03  0.38329441948E+03  0.12509000000E+03 0.  0.
         25    1    4    4    0    0 -0.21857040882E+02 -0.29869510014E+02 -0.57676676790E+03  0.59133520994E+03  0.12509000000E+03 0.  0.
         25    1    3    3    0    0 -0.26888434709E+01  0.74824156539E+02 -0.18114789853E+03  0.23252516750E+03  0.12509000000E+03 0.  0.
<mgrwt>
<rscale>  2 0.45876236E+03</rscale>
<asrwt>0</asrwt>
<pdfrwt beam="1">  1       21 0.66596180E-02 0.45876236E+03</pdfrwt>
<pdfrwt beam="2">  1       21 0.17086315E+00 0.45876236E+03</pdfrwt>
<totfact> 0.31011153E+04</totfact>
</mgrwt>
</event>
<event>
 7    0  0.4788920E-002  0.4528853E+03  0.7546771E-02  0.1026865E+00
         21   -1    0    0  502  501  0.00000000000E+00  0.00000000000E+00  0.15031310660E+03  0.15031310660E+03  0.00000000000E+00 0. -1.
         21   -1    0    0  501  502 -0.00000000000E+00 -0.00000000000E+00 -0.34112979949E+03  0.34112979949E+03  0.00000000000E+00 0. -1.
      99926    2    1    2    0    0  0.00000000000E+00  0.00000000000E+00 -0.19081669289E+03  0.49144290609E+03  0.45288532728E+03 0.  0.
      99925    2    3    3    0    0 -0.65041140871E+02  0.12009824495E+02 -0.21729372377E+03  0.34748761041E+03  0.26297621776E+03 0.  0.
         25    1    3    3    0    0  0.65041140871E+02 -0.12009824495E+02  0.26477030888E+02  0.14395529568E+03  0.12509000000E+03 0.  0.
         25    1    4    4    0    0 -0.44768181324E+02 -0.10939090165E+00 -0.15977073091E+03  0.20779412066E+03  0.12509000000E+03 0.  0.
         25    1    4    4    0    0 -0.20272959547E+02  0.12119215396E+02 -0.57522992865E+02  0.13969348975E+03  0.12509000000E+03 0.  0.
<mgrwt>
<rscale>  2 0.45288533E+03</rscale>
<asrwt>0</asrwt>
<pdfrwt beam="1">  1       21 0.22104869E-01 0.45288533E+03</pdfrwt>
<pdfrwt beam="2">  1       21 0.50166146E-01 0.45288533E+03</pdfrwt>
<totfact> 0.66993722E+04</totfact>
</mgrwt>
</event>
<event>
 7    0  0.4788920E-002  0.4343184E+03  0.7546771E-02  0.1032504E+00
         21   -1    0    0  502  501  0.00000000000E+00  0.00000000000E+00  0.28085057063E+02  0.28085057063E+02  0.00000000000E+00 0.  1.
         21   -1    0    0  501  502 -0.00000000000E+00 -0.00000000000E+00 -0.16791181107E+04  0.16791181107E+04  0.00000000000E+00 0.  1.
      99926    2    1    2    0    0 -0.14210854715E-13  0.00000000000E+00 -0.16510330537E+04  0.17072031678E+04  0.43431844517E+03 0.  0.
      99925    2    3    3    0    0  0.86945380451E+02 -0.81117385016E+01 -0.95059680014E+03  0.99034631121E+03  0.26367828920E+03 0.  0.
         25    1    4    4    0    0  0.83453000000E+02  0.11192893469E+02 -0.54150397505E+03  0.56210652653E+03  0.12509000000E+03 0.  0.
         25    1    3    3    0    0 -0.86945380451E+02  0.81117385016E+01 -0.70043625353E+03  0.71685685659E+03  0.12509000000E+03 0.  0.
         25    1    4    4    0    0  0.34923804511E+01 -0.19304631970E+02 -0.40909282509E+03  0.42823978468E+03  0.12509000000E+03 0.  0.
<mgrwt>
<rscale>  2 0.43431845E+03</rscale>
<asrwt>0</asrwt>
<pdfrwt beam="1">  1       21 0.41301540E-02 0.43431845E+03</pdfrwt>
<pdfrwt beam="2">  1       21 0.24692922E+00 0.43431845E+03</pdfrwt>
<totfact> 0.22516342E+04</totfact>
</mgrwt>
</event>
<event>
 7    0  0.4788920E-002  0.4540641E+03  0.7546771E-02  0.1026517E+00
         21   -1    0    0  502  501  0.00000000000E+00  0.00000000000E+00  0.27580684766E+02  0.27580684766E+02  0.00000000000E+00 0.  1.
         21   -1    0    0  501  502 -0.00000000000E+00 -0.00000000000E+00 -0.18688280670E+04  0.18688280670E+04  0.00000000000E+00 0.  1.
      99926    2    1    2    0    0  0.00000000000E+00  0.00000000000E+00 -0.18412473823E+04  0.18964087518E+04  0.45406412675E+03 0.  0.
      99925    2    3    3    0    0  0.36876183861E+02  0.22806840793E+02 -0.15921620844E+04  0.16143254332E+04  0.26303326091E+03 0.  0.
         25    1    4    4    0    0  0.47011750900E+02 -0.13321283974E+02 -0.89783344705E+03  0.90782155079E+03  0.12509000000E+03 0.  0.
         25    1    3    3    0    0 -0.36876183861E+02 -0.22806840793E+02 -0.24908529792E+03  0.28208331865E+03  0.12509000000E+03 0.  0.
         25    1    4    4    0    0 -0.10135567038E+02  0.36128124767E+02 -0.69432863730E+03  0.70650388236E+03  0.12509000000E+03 0.  0.
<mgrwt>
<rscale>  2 0.45406413E+03</rscale>
<asrwt>0</asrwt>
<pdfrwt beam="1">  1       21 0.40559823E-02 0.45406413E+03</pdfrwt>
<pdfrwt beam="2">  1       21 0.27482771E+00 0.45406413E+03</pdfrwt>
<totfact> 0.15588563E+04</totfact>
</mgrwt>
</event>
<event>
 7    0  0.4788920E-002  0.4662707E+03  0.7546771E-02  0.1022978E+00
         21   -1    0    0  502  501  0.00000000000E+00  0.00000000000E+00  0.58227941440E+03  0.58227941440E+03  0.00000000000E+00 0. -1.
         21   -1    0    0  501  502 -0.00000000000E+00 -0.00000000000E+00 -0.93343655521E+02  0.93343655521E+02  0.00000000000E+00 0. -1.
      99926    2    1    2    0    0  0.14210854715E-13  0.00000000000E+00  0.48893575888E+03  0.67562306992E+03  0.46627068994E+03 0.  0.
      99925    2    3    3    0    0  0.11527140273E+03 -0.40680176180E+02  0.27973512903E+03  0.40294233234E+03  0.26299887405E+03 0.  0.
         25    1    4    4    0    0  0.42750478808E+02 -0.55091281549E+02  0.11842129147E+03  0.18583262123E+03  0.12509000000E+03 0.  0.
         25    1    4    4    0    0  0.72520923926E+02  0.14411105370E+02  0.16131383757E+03  0.21710971110E+03  0.12509000000E+03 0.  0.
         25    1    3    3    0    0 -0.11527140273E+03  0.40680176180E+02  0.20920062984E+03  0.27268073758E+03  0.12509000000E+03 0.  0.
<mgrwt>
<rscale>  2 0.46627069E+03</rscale>
<asrwt>0</asrwt>
<pdfrwt beam="1">  1       21 0.85629323E-01 0.46627069E+03</pdfrwt>
<pdfrwt beam="2">  1       21 0.13727009E-01 0.46627069E+03</pdfrwt>
<totfact> 0.49683761E+04</totfact>
</mgrwt>
</event>
<event>
 7    0  0.4788920E-002  0.4607436E+03  0.7546771E-02  0.1024566E+00
         21   -1    0    0  502  501  0.00000000000E+00  0.00000000000E+00  0.19542810199E+03  0.19542810199E+03  0.00000000000E+00 0. -1.
         21   -1    0    0  501  502 -0.00000000000E+00 -0.00000000000E+00 -0.27156369056E+03  0.27156369056E+03  0.00000000000E+00 0. -1.
      99926    2    1    2    0    0  0.35527136788E-14  0.00000000000E+00 -0.76135588570E+02  0.46699179254E+03  0.46074364505E+03 0.  0.
      99925    2    3    3    0    0  0.20014390962E+02 -0.11686542513E+03 -0.43923915907E+02  0.29165439382E+03  0.26282098776E+03 0.  0.
         25    1    3    3    0    0 -0.20014390962E+02  0.11686542513E+03 -0.32211672662E+02  0.17533739872E+03  0.12509000000E+03 0.  0.
         25    1    4    4    0    0 -0.30120851529E+01 -0.27287902597E+02 -0.45980405038E+02  0.13607133435E+03  0.12509000000E+03 0.  0.
         25    1    4    4    0    0  0.23026476115E+02 -0.89577522530E+02  0.20564891308E+01  0.15558305946E+03  0.12509000000E+03 0.  0.
<mgrwt>
<rscale>  2 0.46074365E+03</rscale>
<asrwt>0</asrwt>
<pdfrwt beam="1">  1       21 0.28739427E-01 0.46074365E+03</pdfrwt>
<pdfrwt beam="2">  1       21 0.39935837E-01 0.46074365E+03</pdfrwt>
<totfact> 0.64659442E+04</totfact>
</mgrwt>
</event>
<event>
 7    0  0.4788920E-002  0.4581876E+03  0.7546771E-02  0.1025308E+00
         21   -1    0    0  502  501  0.00000000000E+00  0.00000000000E+00  0.16106864132E+04  0.16106864132E+04  0.00000000000E+00 0. -1.
         21   -1    0    0  501  502 -0.00000000000E+00 -0.00000000000E+00 -0.32584853248E+02  0.32584853248E+02  0.00000000000E+00 0. -1.
      99926    2    1    2    0    0  0.00000000000E+00  0.00000000000E+00  0.15781015599E+04  0.16432712664E+04  0.45818764890E+03 0.  0.
      99925    2    3    3    0    0  0.51729205976E+02 -0.66597567704E+02  0.12767209840E+04  0.13062417329E+04  0.26294457057E+03 0.  0.
         25    1    4    4    0    0  0.46297199300E+02 -0.62130665833E+02  0.79450290385E+03  0.80801362775E+03  0.12509000000E+03 0.  0.
         25    1    4    4    0    0  0.54320066765E+01 -0.44669018708E+01  0.48221808011E+03  0.49822810519E+03  0.12509000000E+03 0.  0.
         25    1    3    3    0    0 -0.51729205976E+02  0.66597567704E+02  0.30138057595E+03  0.33702953347E+03  0.12509000000E+03 0.  0.
<mgrwt>
<rscale>  2 0.45818765E+03</rscale>
<asrwt>0</asrwt>
<pdfrwt beam="1">  1       21 0.23686559E+00 0.45818765E+03</pdfrwt>
<pdfrwt beam="2">  1       21 0.47918913E-02 0.45818765E+03</pdfrwt>
<totfact> 0.19970519E+04</totfact>
</mgrwt>
</event>
<event>
 7    0  0.4788920E-002  0.4647847E+03  0.7546771E-02  0.1023403E+00
         21   -1    0    0  502  501  0.00000000000E+00  0.00000000000E+00  0.20790535028E+03  0.20790535028E+03  0.00000000000E+00 0.  1.
         21   -1    0    0  501  502 -0.00000000000E+00 -0.00000000000E+00 -0.25976336454E+03  0.25976336454E+03  0.00000000000E+00 0.  1.
      99926    2    1    2    0    0  0.00000000000E+00 -0.71054273576E-14 -0.51858014252E+02  0.46766871482E+03  0.46478465248E+03 0.  0.
      99925    2    3    3    0    0  0.93842669213E+02  0.61341307088E+02  0.16024421000E+02  0.28649273508E+03  0.26315794243E+03 0.  0.
         25    1    4    4    0    0  0.39179806100E+02  0.23545132295E+02  0.47486869870E+02  0.14139286181E+03  0.12509000000E+03 0.  0.
         25    1    3    3    0    0 -0.93842669213E+02 -0.61341307088E+02 -0.67882435253E+02  0.18117597974E+03  0.12509000000E+03 0.  0.
         25    1    4    4    0    0  0.54662863113E+02  0.37796174793E+02 -0.31462448870E+02  0.14509987327E+03  0.12509000000E+03 0.  0.
<mgrwt>
<rscale>  2 0.46478465E+03</rscale>
<asrwt>0</asrwt>
<pdfrwt beam="1">  1       21 0.30574316E-01 0.46478465E+03</pdfrwt>
<pdfrwt beam="2">  1       21 0.38200494E-01 0.46478465E+03</pdfrwt>
<totfact> 0.62596146E+04</totfact>
</mgrwt>
</event>
<event>
 7    0  0.4788920E-002  0.4545880E+03  0.7546771E-02  0.1026363E+00
         21   -1    0    0  502  501  0.00000000000E+00  0.00000000000E+00  0.13657943368E+03  0.13657943368E+03  0.00000000000E+00 0. -1.
         21   -1    0    0  501  502 -0.00000000000E+00 -0.00000000000E+00 -0.37826011200E+03  0.37826011200E+03  0.00000000000E+00 0. -1.
      99926    2    1    2    0    0  0.17763568394E-14 -0.14210854715E-13 -0.24168067832E+03  0.51483954568E+03  0.45458795356E+03 0.  0.
      99925    2    3    3    0    0  0.15470341922E+02  0.72010775625E+02 -0.24882923726E+03  0.36950031050E+03  0.26303917363E+03 0.  0.
         25    1    4    4    0    0  0.21704057504E+02  0.29489387845E+02 -0.17442150659E+03  0.21774080961E+03  0.12509000000E+03 0.  0.
         25    1    4    4    0    0 -0.62337155817E+01  0.42521387779E+02 -0.74407730667E+02  0.15175950089E+03  0.12509000000E+03 0.  0.
         25    1    3    3    0    0 -0.15470341922E+02 -0.72010775625E+02  0.71485589400E+01  0.14533923517E+03  0.12509000000E+03 0.  0.
<mgrwt>
<rscale>  2 0.45458795E+03</rscale>
<asrwt>0</asrwt>
<pdfrwt beam="1">  1       21 0.20085211E-01 0.45458795E+03</pdfrwt>
<pdfrwt beam="2">  1       21 0.55626487E-01 0.45458795E+03</pdfrwt>
<totfact> 0.64450689E+04</totfact>
</mgrwt>
</event>
<event>
 7    0  0.4788920E-002  0.4614172E+03  0.7546771E-02  0.1024371E+00
         21   -1    0    0  502  501  0.00000000000E+00  0.00000000000E+00  0.44438124858E+03  0.44438124858E+03  0.00000000000E+00 0. -1.
         21   -1    0    0  501  502 -0.00000000000E+00 -0.00000000000E+00 -0.11977654066E+03  0.11977654066E+03  0.00000000000E+00 0. -1.
      99926    2    1    2    0    0  0.00000000000E+00  0.00000000000E+00  0.32460470791E+03  0.56415778924E+03  0.46141715915E+03 0.  0.
      99925    2    3    3    0    0 -0.10319591384E+03  0.46014832948E+02  0.24860634945E+03  0.37925235375E+03  0.26317383866E+03 0.  0.
         25    1    4    4    0    0 -0.79727659227E+01  0.16644248087E+02  0.11249459840E+03  0.16924283961E+03  0.12509000000E+03 0.  0.
         25    1    3    3    0    0  0.10319591384E+03 -0.46014832948E+02  0.75998358464E+02  0.18490543549E+03  0.12509000000E+03 0.  0.
         25    1    4    4    0    0 -0.95223147917E+02  0.29370584861E+02  0.13611175105E+03  0.21000951414E+03  0.12509000000E+03 0.  0.
<mgrwt>
<rscale>  2 0.46141716E+03</rscale>
<asrwt>0</asrwt>
<pdfrwt beam="1">  1       21 0.65350183E-01 0.46141716E+03</pdfrwt>
<pdfrwt beam="2">  1       21 0.17614197E-01 0.46141716E+03</pdfrwt>
<totfact> 0.57943186E+04</totfact>
</mgrwt>
</event>
<event>
 7    0  0.4788920E-002  0.4629376E+03  0.7546771E-02  0.1023933E+00
         21   -1    0    0  502  501  0.00000000000E+00  0.00000000000E+00  0.38668500783E+03  0.38668500783E+03  0.00000000000E+00 0.  1.
         21   -1    0    0  501  502 -0.00000000000E+00 -0.00000000000E+00 -0.13855669724E+03  0.13855669724E+03  0.00000000000E+00 0.  1.
      99926    2    1    2    0    0  0.00000000000E+00  0.00000000000E+00  0.24812831059E+03  0.52524170508E+03  0.46293756624E+03 0.  0.
      99925    2    3    3    0    0  0.86042509756E+02  0.78359516625E+00  0.59372474441E+02  0.28300173875E+03  0.26298472562E+03 0.  0.
         25    1    4    4    0    0  0.61151058924E+02 -0.12400956119E+02  0.66047371986E+02  0.15460594803E+03  0.12509000000E+03 0.  0.
         25    1    4    4    0    0  0.24891450832E+02  0.13184551285E+02 -0.66748975457E+01  0.12839579072E+03  0.12509000000E+03 0.  0.
         25    1    3    3    0    0 -0.86042509756E+02 -0.78359516625E+00  0.18875583615E+03  0.24223996633E+03  0.12509000000E+03 0.  0.
<mgrwt>
<rscale>  2 0.46293757E+03</rscale>
<asrwt>0</asrwt>
<pdfrwt beam="1">  1       21 0.56865442E-01 0.46293757E+03</pdfrwt>
<pdfrwt beam="2">  1       21 0.20375985E-01 0.46293757E+03</pdfrwt>
<totfact> 0.59683504E+04</totfact>
</mgrwt>
</event>
<event>
 7    0  0.4788920E-002  0.4550395E+03  0.7546771E-02  0.1026230E+00
         21   -1    0    0  502  501  0.00000000000E+00  0.00000000000E+00  0.74043439706E+03  0.74043439706E+03  0.00000000000E+00 0.  1.
         21   -1    0    0  501  502 -0.00000000000E+00 -0.00000000000E+00 -0.69911971507E+02  0.69911971507E+02  0.00000000000E+00 0.  1.
      99926    2    1    2    0    0  0.00000000000E+00  0.00000000000E+00  0.67052242555E+03  0.81034636857E+03  0.45503946409E+03 0.  0.
      99925    2    3    3    0    0 -0.10781244963E+03  0.33199336254E+02  0.41359274930E+03  0.50312318120E+03  0.26334056459E+03 0.  0.
         25    1    4    4    0    0 -0.46644135735E+02 -0.13796154239E+02  0.14960504503E+03  0.20098553895E+03  0.12509000000E+03 0.  0.
         25    1    3    3    0    0  0.10781244963E+03 -0.33199336254E+02  0.25692967625E+03  0.30722318737E+03  0.12509000000E+03 0.  0.
         25    1    4    4    0    0 -0.61168313890E+02  0.46995490493E+02  0.26398770428E+03  0.30213764224E+03  0.12509000000E+03 0.  0.
<mgrwt>
<rscale>  2 0.45503946E+03</rscale>
<asrwt>0</asrwt>
<pdfrwt beam="1">  1       21 0.10888741E+00 0.45503946E+03</pdfrwt>
<pdfrwt beam="2">  1       21 0.10281173E-01 0.45503946E+03</pdfrwt>
<totfact> 0.47253802E+04</totfact>
</mgrwt>
</event>
<event>
 7    0  0.4788920E-002  0.4536929E+03  0.7546771E-02  0.1026626E+00
         21   -1    0    0  502  501  0.00000000000E+00  0.00000000000E+00  0.18768458023E+04  0.18768458023E+04  0.00000000000E+00 0.  1.
         21   -1    0    0  501  502 -0.00000000000E+00 -0.00000000000E+00 -0.27417978649E+02  0.27417978649E+02  0.00000000000E+00 0.  1.
      99926    2    1    2    0    0  0.00000000000E+00  0.00000000000E+00  0.18494278237E+04  0.19042637810E+04  0.45369292758E+03 0.  0.
      99925    2    3    3    0    0 -0.80076538618E+02 -0.58337732392E+02  0.94539127937E+03  0.98625227528E+03  0.26289415420E+03 0.  0.
         25    1    4    4    0    0 -0.53894201175E+02  0.53823414567E+01  0.51795088883E+03  0.53558770137E+03  0.12509000000E+03 0.  0.
         25    1    4    4    0    0 -0.26182337443E+02 -0.63720073849E+02  0.42744039055E+03  0.45066457391E+03  0.12509000000E+03 0.  0.
         25    1    3    3    0    0  0.80076538618E+02  0.58337732392E+02  0.90403654428E+03  0.91801150567E+03  0.12509000000E+03 0.  0.
<mgrwt>
<rscale>  2 0.45369293E+03</rscale>
<asrwt>0</asrwt>
<pdfrwt beam="1">  1       21 0.27600665E+00 0.45369293E+03</pdfrwt>
<pdfrwt beam="2">  1       21 0.40320570E-02 0.45369293E+03</pdfrwt>
<totfact> 0.15492967E+04</totfact>
</mgrwt>
</event>
<event>
 7    0  0.4788920E-002  0.4559972E+03  0.7546771E-02  0.1025949E+00
         21   -1    0    0  502  501  0.00000000000E+00  0.00000000000E+00  0.91592336068E+02  0.91592336068E+02  0.00000000000E+00 0. -1.
         21   -1    0    0  501  502 -0.00000000000E+00 -0.00000000000E+00 -0.56755151806E+03  0.56755151806E+03  0.00000000000E+00 0. -1.
      99926    2    1    2    0    0 -0.17763568394E-14 -0.14210854715E-13 -0.47595918200E+03  0.65914385413E+03  0.45599723411E+03 0.  0.
      99925    2    3    3    0    0  0.87615854421E+01  0.72978898579E+02 -0.17346229369E+03  0.32365233330E+03  0.26317100999E+03 0.  0.
         25    1    3    3    0    0 -0.87615854421E+01 -0.72978898579E+02 -0.30249688830E+03  0.33549152083E+03  0.12509000000E+03 0.  0.
         25    1    4    4    0    0  0.25168825684E+02  0.59547310354E+02 -0.12350252606E+03  0.18729584619E+03  0.12509000000E+03 0.  0.
         25    1    4    4    0    0 -0.16407240242E+02  0.13431588225E+02 -0.49959767627E+02  0.13635648711E+03  0.12509000000E+03 0.  0.
<mgrwt>
<rscale>  2 0.45599723E+03</rscale>
<asrwt>0</asrwt>
<pdfrwt beam="1">  1       21 0.13469461E-01 0.45599723E+03</pdfrwt>
<pdfrwt beam="2">  1       21 0.83463461E-01 0.45599723E+03</pdfrwt>
<totfact> 0.54745645E+04</totfact>
</mgrwt>
</event>
<event>
 7    0  0.4788920E-002  0.4584604E+03  0.7546771E-02  0.1025229E+00
         21   -1    0    0  502  501  0.00000000000E+00  0.00000000000E+00  0.99329636927E+03  0.99329636927E+03  0.00000000000E+00 0. -1.
         21   -1    0    0  501  502 -0.00000000000E+00 -0.00000000000E+00 -0.52901103197E+02  0.52901103197E+02  0.00000000000E+00 0. -1.
      99926    2    1    2    0    0  0.00000000000E+00  0.00000000000E+00  0.94039526607E+03  0.10461974725E+04  0.45846035264E+03 0.  0.
      99925    2    3    3    0    0  0.66391542136E+02  0.51747921252E+02  0.77324812980E+03  0.82109447941E+03  0.26305472748E+03 0.  0.
         25    1    4    4    0    0  0.50446646540E+02  0.62356397192E+02  0.45304294162E+03  0.47678989028E+03  0.12509000000E+03 0.  0.
         25    1    4    4    0    0  0.15944895596E+02 -0.10608475940E+02  0.32020518818E+03  0.34430458913E+03  0.12509000000E+03 0.  0.
         25    1    3    3    0    0 -0.66391542136E+02 -0.51747921252E+02  0.16714713627E+03  0.22510299306E+03  0.12509000000E+03 0.  0.
<mgrwt>
<rscale>  2 0.45846035E+03</rscale>
<asrwt>0</asrwt>
<pdfrwt beam="1">  1       21 0.14607298E+00 0.45846035E+03</pdfrwt>
<pdfrwt beam="2">  1       21 0.77795747E-02 0.45846035E+03</pdfrwt>
<totfact> 0.36423436E+04</totfact>
</mgrwt>
</event>
<event>
 7    0  0.4788920E-002  0.4556510E+03  0.7546771E-02  0.1026050E+00
         21   -1    0    0  502  501  0.00000000000E+00  0.00000000000E+00  0.37080339992E+02  0.37080339992E+02  0.00000000000E+00 0. -1.
         21   -1    0    0  501  502 -0.00000000000E+00 -0.00000000000E+00 -0.13997834829E+04  0.13997834829E+04  0.00000000000E+00 0. -1.
      99926    2    1    2    0    0  0.00000000000E+00 -0.14210854715E-13 -0.13627031429E+04  0.14368638229E+04  0.45565095177E+03 0.  0.
      99925    2    3    3    0    0 -0.54738302410E+02  0.98244778674E+02 -0.91151183324E+03  0.95533560533E+03  0.26299045304E+03 0.  0.
         25    1    4    4    0    0 -0.48502743793E+02  0.33132993809E+02 -0.55372438944E+03  0.57070878651E+03  0.12509000000E+03 0.  0.
         25    1    3    3    0    0  0.54738302410E+02 -0.98244778674E+02 -0.45119130969E+03  0.48152821758E+03  0.12509000000E+03 0.  0.
         25    1    4    4    0    0 -0.62355586166E+01  0.65111784865E+02 -0.35778744380E+03  0.38462681882E+03  0.12509000000E+03 0.  0.
<mgrwt>
<rscale>  2 0.45565095E+03</rscale>
<asrwt>0</asrwt>
<pdfrwt beam="1">  1       21 0.54529911E-02 0.45565095E+03</pdfrwt>
<pdfrwt beam="2">  1       21 0.20585052E+00 0.45565095E+03</pdfrwt>
<totfact> 0.25238118E+04</totfact>
</mgrwt>
</event>
<event>
 7    0  0.4788920E-002  0.4503358E+03  0.7546771E-02  0.1027622E+00
         21   -1    0    0  502  501  0.00000000000E+00  0.00000000000E+00  0.78162009097E+02  0.78162009097E+02  0.00000000000E+00 0. -1.
         21   -1    0    0  501  502 -0.00000000000E+00 -0.00000000000E+00 -0.64866022839E+03  0.64866022839E+03  0.00000000000E+00 0. -1.
      99926    2    1    2    0    0  0.14210854715E-13 -0.35527136788E-14 -0.57049821929E+03  0.72682223749E+03  0.45033581546E+03 0.  0.
      99925    2    3    3    0    0  0.10653261507E+03 -0.21403610906E+02 -0.36279985471E+03  0.46112799332E+03  0.26307409415E+03 0.  0.
         25    1    4    4    0    0  0.73616607309E+02 -0.29859748353E+02 -0.14286962574E+03  0.20584034469E+03  0.12509000000E+03 0.  0.
         25    1    4    4    0    0  0.32916007762E+02  0.84561374471E+01 -0.21993022897E+03  0.25528764863E+03  0.12509000000E+03 0.  0.
         25    1    3    3    0    0 -0.10653261507E+03  0.21403610906E+02 -0.20769836458E+03  0.26569424417E+03  0.12509000000E+03 0.  0.
<mgrwt>
<rscale>  2 0.45033582E+03</rscale>
<asrwt>0</asrwt>
<pdfrwt beam="1">  1       21 0.11494413E-01 0.45033582E+03</pdfrwt>
<pdfrwt beam="2">  1       21 0.95391210E-01 0.45033582E+03</pdfrwt>
<totfact> 0.53402809E+04</totfact>
</mgrwt>
</event>
<event>
 7    0  0.4788920E-002  0.4546392E+03  0.7546771E-02  0.1026348E+00
         21   -1    0    0  502  501  0.00000000000E+00  0.00000000000E+00  0.15379126478E+03  0.15379126478E+03  0.00000000000E+00 0.  1.
         21   -1    0    0  501  502 -0.00000000000E+00 -0.00000000000E+00 -0.33600222291E+03  0.33600222291E+03  0.00000000000E+00 0.  1.
      99926    2    1    2    0    0  0.00000000000E+00 -0.35527136788E-14 -0.18221095813E+03  0.48979348768E+03  0.45463922764E+03 0.  0.
      99925    2    3    3    0    0  0.36337982451E+02  0.13675589758E+02 -0.38808476660E+00  0.26570748611E+03  0.26285518226E+03 0.  0.
         25    1    4    4    0    0  0.84059631053E+01  0.41560160579E+02  0.17831643333E+02  0.13327934111E+03  0.12509000000E+03 0.  0.
         25    1    4    4    0    0  0.27932019345E+02 -0.27884570821E+02 -0.18219728100E+02  0.13242814499E+03  0.12509000000E+03 0.  0.
         25    1    3    3    0    0 -0.36337982451E+02 -0.13675589758E+02 -0.18182287336E+03  0.22408600157E+03  0.12509000000E+03 0.  0.
<mgrwt>
<rscale>  2 0.45463923E+03</rscale>
<asrwt>0</asrwt>
<pdfrwt beam="1">  1       21 0.22616363E-01 0.45463923E+03</pdfrwt>
<pdfrwt beam="2">  1       21 0.49412091E-01 0.45463923E+03</pdfrwt>
<totfact> 0.66183168E+04</totfact>
</mgrwt>
</event>
<event>
 7    0  0.4788920E-002  0.4640112E+03  0.7546771E-02  0.1023624E+00
         21   -1    0    0  502  501  0.00000000000E+00  0.00000000000E+00  0.77226897949E+03  0.77226897949E+03  0.00000000000E+00 0. -1.
         21   -1    0    0  501  502 -0.00000000000E+00 -0.00000000000E+00 -0.69699281872E+02  0.69699281872E+02  0.00000000000E+00 0. -1.
      99926    2    1    2    0    0  0.00000000000E+00  0.00000000000E+00  0.70256969762E+03  0.84196826136E+03  0.46401117781E+03 0.  0.
      99925    2    3    3    0    0  0.24367312403E+02  0.88311422350E+02  0.58327545793E+03  0.64633775006E+03  0.26296302799E+03 0.  0.
         25    1    3    3    0    0 -0.24367312403E+02 -0.88311422350E+02  0.11929423968E+03  0.19563051130E+03  0.12509000000E+03 0.  0.
         25    1    4    4    0    0  0.11780671096E+02  0.56544064733E+02  0.38973045560E+03  0.41336830018E+03  0.12509000000E+03 0.  0.
         25    1    4    4    0    0  0.12586641307E+02  0.31767357617E+02  0.19354500233E+03  0.23296944988E+03  0.12509000000E+03 0.  0.
<mgrwt>
<rscale>  2 0.46401118E+03</rscale>
<asrwt>0</asrwt>
<pdfrwt beam="1">  1       21 0.11356896E+00 0.46401118E+03</pdfrwt>
<pdfrwt beam="2">  1       21 0.10249895E-01 0.46401118E+03</pdfrwt>
<totfact> 0.42701042E+04</totfact>
</mgrwt>
</event>
<event>
 7    0  0.4788920E-002  0.4423175E+03  0.7546771E-02  0.1030038E+00
         21   -1    0    0  502  501  0.00000000000E+00  0.00000000000E+00  0.57513293130E+03  0.57513293130E+03  0.00000000000E+00 0. -1.
         21   -1    0    0  501  502 -0.00000000000E+00 -0.00000000000E+00 -0.85043294710E+02  0.85043294710E+02  0.00000000000E+00 0. -1.
      99926    2    1    2    0    0 -0.35527136788E-14  0.00000000000E+00  0.49008963659E+03  0.66017622601E+03  0.44231753017E+03 0.  0.
      99925    2    3    3    0    0  0.24805912753E+02 -0.97656083178E+02  0.30547573466E+03  0.41546855393E+03  0.26295750788E+03 0.  0.
         25    1    3    3    0    0 -0.24805912753E+02  0.97656083178E+02  0.18461390193E+03  0.24470767208E+03  0.12509000000E+03 0.  0.
         25    1    4    4    0    0  0.29900136003E+02 -0.31235249179E+02  0.10011389100E+03  0.16595167428E+03  0.12509000000E+03 0.  0.
         25    1    4    4    0    0 -0.50942232503E+01 -0.66420833999E+02  0.20536184366E+03  0.24951687965E+03  0.12509000000E+03 0.  0.
<mgrwt>
<rscale>  2 0.44231753E+03</rscale>
<asrwt>0</asrwt>
<pdfrwt beam="1">  1       21 0.84578371E-01 0.44231753E+03</pdfrwt>
<pdfrwt beam="2">  1       21 0.12506367E-01 0.44231753E+03</pdfrwt>
<totfact> 0.60990289E+04</totfact>
</mgrwt>
</event>
<event>
 7    0  0.4788920E-002  0.4549465E+03  0.7546771E-02  0.1026257E+00
         21   -1    0    0  502  501  0.00000000000E+00  0.00000000000E+00  0.31334298018E+02  0.31334298018E+02  0.00000000000E+00 0. -1.
         21   -1    0    0  501  502 -0.00000000000E+00 -0.00000000000E+00 -0.16513558381E+04  0.16513558381E+04  0.00000000000E+00 0. -1.
      99926    2    1    2    0    0  0.17763568394E-14  0.00000000000E+00 -0.16200215401E+04  0.16826901361E+04  0.45494648461E+03 0.  0.
      99925    2    3    3    0    0  0.15469633124E+02  0.11205830037E+03 -0.10201040481E+04  0.10595169038E+04  0.26299701176E+03 0.  0.
         25    1    4    4    0    0 -0.59886281472E+01  0.19547125453E+02 -0.38722418125E+03  0.40744082813E+03  0.12509000000E+03 0.  0.
         25    1    4    4    0    0  0.21458261271E+02  0.92511174916E+02 -0.63287986685E+03  0.65207607564E+03  0.12509000000E+03 0.  0.
         25    1    3    3    0    0 -0.15469633124E+02 -0.11205830037E+03 -0.59991749200E+03  0.62317323237E+03  0.12509000000E+03 0.  0.
<mgrwt>
<rscale>  2 0.45494648E+03</rscale>
<asrwt>0</asrwt>
<pdfrwt beam="1">  1       21 0.46079838E-02 0.45494648E+03</pdfrwt>
<pdfrwt beam="2">  1       21 0.24284651E+00 0.45494648E+03</pdfrwt>
<totfact> 0.19632302E+04</totfact>
</mgrwt>
</event>
<event>
 7    0  0.4788920E-002  0.4547331E+03  0.7546771E-02  0.1026320E+00
         21   -1    0    0  502  501  0.00000000000E+00  0.00000000000E+00  0.22754972908E+03  0.22754972908E+03  0.00000000000E+00 0.  1.
         21   -1    0    0  501  502 -0.00000000000E+00 -0.00000000000E+00 -0.22718351870E+03  0.22718351870E+03  0.00000000000E+00 0.  1.
      99926    2    1    2    0    0  0.00000000000E+00  0.35527136788E-14  0.36621038403E+00  0.45473324778E+03  0.45473310032E+03 0.  0.
      99925    2    3    3    0    0  0.97112523172E+02  0.16144512739E+02 -0.55088706088E+02  0.28616799836E+03  0.26299404993E+03 0.  0.
         25    1    4    4    0    0  0.47948661903E+02 -0.34997380023E+01  0.12232606598E+02  0.13456770455E+03  0.12509000000E+03 0.  0.
         25    1    3    3    0    0 -0.97112523172E+02 -0.16144512739E+02  0.55454916472E+02  0.16856524941E+03  0.12509000000E+03 0.  0.
         25    1    4    4    0    0  0.49163861269E+02  0.19644250742E+02 -0.67321312686E+02  0.15160029381E+03  0.12509000000E+03 0.  0.
<mgrwt>
<rscale>  2 0.45473310E+03</rscale>
<asrwt>0</asrwt>
<pdfrwt beam="1">  1       21 0.33463196E-01 0.45473310E+03</pdfrwt>
<pdfrwt beam="2">  1       21 0.33409341E-01 0.45473310E+03</pdfrwt>
<totfact> 0.68711546E+04</totfact>
</mgrwt>
</event>
<event>
 7    0  0.4788920E-002  0.4433404E+03  0.7546771E-02  0.1029727E+00
         21   -1    0    0  502  501  0.00000000000E+00  0.00000000000E+00  0.33968616691E+02  0.33968616691E+02  0.00000000000E+00 0.  1.
         21   -1    0    0  501  502 -0.00000000000E+00 -0.00000000000E+00 -0.14465611024E+04  0.14465611024E+04  0.00000000000E+00 0.  1.
      99926    2    1    2    0    0 -0.71054273576E-14 -0.14210854715E-13 -0.14125924857E+04  0.14805297190E+04  0.44334040919E+03 0.  0.
      99925    2    3    3    0    0 -0.44963533311E+02 -0.87213129378E+02 -0.80695480308E+03  0.85437290169E+03  0.26296226279E+03 0.  0.
         25    1    4    4    0    0 -0.53292124741E+02 -0.57461409684E+02 -0.35648743322E+03  0.38584020307E+03  0.12509000000E+03 0.  0.
         25    1    4    4    0    0  0.83285914301E+01 -0.29751719694E+02 -0.45046736986E+03  0.46853269861E+03  0.12509000000E+03 0.  0.
         25    1    3    3    0    0  0.44963533311E+02  0.87213129378E+02 -0.60563768259E+03  0.62615681736E+03  0.12509000000E+03 0.  0.
<mgrwt>
<rscale>  2 0.44334041E+03</rscale>
<asrwt>0</asrwt>
<pdfrwt beam="1">  1       21 0.49953855E-02 0.44334041E+03</pdfrwt>
<pdfrwt beam="2">  1       21 0.21272954E+00 0.44334041E+03</pdfrwt>
<totfact> 0.26588217E+04</totfact>
</mgrwt>
</event>
<event>
 7    0  0.4788920E-002  0.4610168E+03  0.7546771E-02  0.1024487E+00
         21   -1    0    0  502  501  0.00000000000E+00  0.00000000000E+00  0.54312760704E+03  0.54312760704E+03  0.00000000000E+00 0. -1.
         21   -1    0    0  501  502 -0.00000000000E+00 -0.00000000000E+00 -0.97829903443E+02  0.97829903443E+02  0.00000000000E+00 0. -1.
      99926    2    1    2    0    0  0.00000000000E+00  0.00000000000E+00  0.44529770359E+03  0.64095751048E+03  0.46101679515E+03 0.  0.
      99925    2    3    3    0    0 -0.98953121962E+02  0.64601675533E+02  0.25975753420E+03  0.38790068013E+03  0.26273154406E+03 0.  0.
         25    1    4    4    0    0 -0.34213846227E+02  0.52313812490E+02  0.17127566695E+03  0.22111124901E+03  0.12509000000E+03 0.  0.
         25    1    3    3    0    0  0.98953121962E+02 -0.64601675533E+02  0.18554016939E+03  0.25305683035E+03  0.12509000000E+03 0.  0.
         25    1    4    4    0    0 -0.64739275735E+02  0.12287863042E+02  0.88481867255E+02  0.16678943112E+03  0.12509000000E+03 0.  0.
<mgrwt>
<rscale>  2 0.46101680E+03</rscale>
<asrwt>0</asrwt>
<pdfrwt beam="1">  1       21 0.79871706E-01 0.46101680E+03</pdfrwt>
<pdfrwt beam="2">  1       21 0.14386751E-01 0.46101680E+03</pdfrwt>
<totfact> 0.53633088E+04</totfact>
</mgrwt>
</event>
<event>
 7    0  0.4788920E-002  0.4553294E+03  0.7546771E-02  0.1026145E+00
         21   -1    0    0  502  501  0.00000000000E+00  0.00000000000E+00  0.22788594194E+03  0.22788594194E+03  0.00000000000E+00 0.  1.
         21   -1    0    0  501  502 -0.00000000000E+00 -0.00000000000E+00 -0.22744368227E+03  0.22744368227E+03  0.00000000000E+00 0.  1.
      99926    2    1    2    0    0  0.00000000000E+00  0.00000000000E+00  0.44225967687E+00  0.45532962421E+03  0.45532940943E+03 0.  0.
      99925    2    3    3    0    0  0.67405131060E+01 -0.62213161418E+02 -0.94475267851E+02  0.28629484346E+03  0.26291300688E+03 0.  0.
         25    1    3    3    0    0 -0.67405131060E+01  0.62213161418E+02  0.94917527528E+02  0.16903478075E+03  0.12509000000E+03 0.  0.
         25    1    4    4    0    0  0.42119941641E+02 -0.42919200972E+02 -0.51080072818E+02  0.14789465587E+03  0.12509000000E+03 0.  0.
         25    1    4    4    0    0 -0.35379428535E+02 -0.19293960446E+02 -0.43395195033E+02  0.13840018759E+03  0.12509000000E+03 0.  0.
<mgrwt>
<rscale>  2 0.45532941E+03</rscale>
<asrwt>0</asrwt>
<pdfrwt beam="1">  1       21 0.33512639E-01 0.45532941E+03</pdfrwt>
<pdfrwt beam="2">  1       21 0.33447600E-01 0.45532941E+03</pdfrwt>
<totfact> 0.68341845E+04</totfact>
</mgrwt>
</event>
<event>
 7    0  0.4788920E-002  0.4544250E+03  0.7546771E-02  0.1026411E+00
         21   -1    0    0  502  501  0.00000000000E+00  0.00000000000E+00  0.11810261756E+02  0.11810261756E+02  0.00000000000E+00 0.  1.
         21   -1    0    0  501  502 -0.00000000000E+00 -0.00000000000E+00 -0.43712432406E+04  0.43712432406E+04  0.00000000000E+00 0.  1.
      99926    2    1    2    0    0  0.00000000000E+00  0.00000000000E+00 -0.43594329788E+04  0.43830535023E+04  0.45442502956E+03 0.  0.
      99925    2    3    3    0    0  0.82458145381E+02  0.39863518321E+02 -0.33776279016E+04  0.33890830986E+04  0.26291740415E+03 0.  0.
         25    1    4    4    0    0  0.40203874198E+02 -0.20481096515E+01 -0.12320683279E+04  0.12390562614E+04  0.12509000000E+03 0.  0.
         25    1    4    4    0    0  0.42254271184E+02  0.41911627973E+02 -0.21455595737E+04  0.21500268372E+04  0.12509000000E+03 0.  0.
         25    1    3    3    0    0 -0.82458145381E+02 -0.39863518321E+02 -0.98180507718E+03  0.99397040374E+03  0.12509000000E+03 0.  0.
<mgrwt>
<rscale>  2 0.45442503E+03</rscale>
<asrwt>0</asrwt>
<pdfrwt beam="1">  1       21 0.17367991E-02 0.45442503E+03</pdfrwt>
<pdfrwt beam="2">  1       21 0.64283141E+00 0.45442503E+03</pdfrwt>
<totfact> 0.18609226E+02</totfact>
</mgrwt>
</event>
<event>
 7    0  0.4788920E-002  0.5297927E+03  0.7546771E-02  0.1006282E+00
         21   -1    0    0  502  501  0.00000000000E+00  0.00000000000E+00  0.13510954972E+03  0.13510954972E+03  0.00000000000E+00 0. -1.
         21   -1    0    0  501  502 -0.00000000000E+00 -0.00000000000E+00 -0.51935688397E+03  0.51935688397E+03  0.00000000000E+00 0. -1.
      99926    2    1    2    0    0  0.00000000000E+00 -0.71054273576E-14 -0.38424733425E+03  0.65446643369E+03  0.52979269431E+03 0.  0.
      99925    2    3    3    0    0  0.54861341354E+02  0.50484449623E+02 -0.34661637260E+02  0.27576323319E+03  0.26322136169E+03 0.  0.
         25    1    3    3    0    0 -0.54861341354E+02 -0.50484449623E+02 -0.34958569699E+03  0.37870320050E+03  0.12509000000E+03 0.  0.
         25    1    4    4    0    0  0.60341591652E+02  0.96682928632E+00 -0.15143880622E+02  0.13971001275E+03  0.12509000000E+03 0.  0.
         25    1    4    4    0    0 -0.54802502981E+01  0.49517620337E+02 -0.19517756639E+02  0.13605322044E+03  0.12509000000E+03 0.  0.
<mgrwt>
<rscale>  2 0.52979269E+03</rscale>
<asrwt>0</asrwt>
<pdfrwt beam="1">  1       21 0.19869051E-01 0.52979269E+03</pdfrwt>
<pdfrwt beam="2">  1       21 0.76376012E-01 0.52979269E+03</pdfrwt>
<totfact> 0.31965459E+04</totfact>
</mgrwt>
</event>
<event>
 7    0  0.4788920E-002  0.4357083E+03  0.7546771E-02  0.1032072E+00
         21   -1    0    0  502  501  0.00000000000E+00  0.00000000000E+00  0.11970095160E+03  0.11970095160E+03  0.00000000000E+00 0. -1.
         21   -1    0    0  501  502 -0.00000000000E+00 -0.00000000000E+00 -0.39649172434E+03  0.39649172434E+03  0.00000000000E+00 0. -1.
      99926    2    1    2    0    0  0.17763568394E-14  0.00000000000E+00 -0.27679077274E+03  0.51619267594E+03  0.43570832769E+03 0.  0.
      99925    2    3    3    0    0 -0.84123502008E+01 -0.85078088384E+02 -0.22330170578E+03  0.35551399925E+03  0.26309219505E+03 0.  0.
         25    1    4    4    0    0 -0.36685729276E+02 -0.49619630545E+02 -0.14466756152E+03  0.20095810987E+03  0.12509000000E+03 0.  0.
         25    1    3    3    0    0  0.84123502008E+01  0.85078088384E+02 -0.53489066959E+02  0.16067867669E+03  0.12509000000E+03 0.  0.
         25    1    4    4    0    0  0.28273379075E+02 -0.35458457839E+02 -0.78634144262E+02  0.15455588937E+03  0.12509000000E+03 0.  0.
<mgrwt>
<rscale>  2 0.43570833E+03</rscale>
<asrwt>0</asrwt>
<pdfrwt beam="1">  1       21 0.17603081E-01 0.43570833E+03</pdfrwt>
<pdfrwt beam="2">  1       21 0.58307607E-01 0.43570833E+03</pdfrwt>
<totfact> 0.74970253E+04</totfact>
</mgrwt>
</event>
<event>
 7    0  0.4788920E-002  0.4541134E+03  0.7546771E-02  0.1026502E+00
         21   -1    0    0  502  501  0.00000000000E+00  0.00000000000E+00  0.34229184720E+03  0.34229184720E+03  0.00000000000E+00 0. -1.
         21   -1    0    0  501  502 -0.00000000000E+00 -0.00000000000E+00 -0.15061634742E+03  0.15061634742E+03  0.00000000000E+00 0. -1.
      99926    2    1    2    0    0  0.00000000000E+00 -0.13322676296E-14  0.19167549978E+03  0.49290819462E+03  0.45411341217E+03 0.  0.
      99925    2    3    3    0    0 -0.11045070911E+03 -0.19327029667E+01  0.14194643740E+03  0.31877151776E+03  0.26317939692E+03 0.  0.
         25    1    4    4    0    0 -0.27730964973E+02 -0.29328486776E+02  0.82234780117E+02  0.15504590841E+03  0.12509000000E+03 0.  0.
         25    1    4    4    0    0 -0.82719744138E+02  0.27395783809E+02  0.59711657283E+02  0.16372560935E+03  0.12509000000E+03 0.  0.
         25    1    3    3    0    0  0.11045070911E+03  0.19327029667E+01  0.49729062379E+02  0.17413667686E+03  0.12509000000E+03 0.  0.
<mgrwt>
<rscale>  2 0.45411341E+03</rscale>
<asrwt>0</asrwt>
<pdfrwt beam="1">  1       21 0.50337037E-01 0.45411341E+03</pdfrwt>
<pdfrwt beam="2">  1       21 0.22149463E-01 0.45411341E+03</pdfrwt>
<totfact> 0.66236771E+04</totfact>
</mgrwt>
</event>
<event>
 7    0  0.4788920E-002  0.4545808E+03  0.7546771E-02  0.1026365E+00
         21   -1    0    0  502  501  0.00000000000E+00  0.00000000000E+00  0.66959022868E+02  0.66959022868E+02  0.00000000000E+00 0. -1.
         21   -1    0    0  501  502 -0.00000000000E+00 -0.00000000000E+00 -0.77153058430E+03  0.77153058430E+03  0.00000000000E+00 0. -1.
      99926    2    1    2    0    0  0.00000000000E+00  0.14210854715E-13 -0.70457156143E+03  0.83848960717E+03  0.45458083566E+03 0.  0.
      99925    2    3    3    0    0 -0.52845029198E+02 -0.98332157063E+02 -0.47215474527E+03  0.55191170370E+03  0.26308670619E+03 0.  0.
         25    1    3    3    0    0  0.52845029198E+02  0.98332157063E+02 -0.23241681616E+03  0.28657790347E+03  0.12509000000E+03 0.  0.
         25    1    4    4    0    0 -0.33812840124E+02 -0.92347160171E+02 -0.26359432854E+03  0.30789735998E+03  0.12509000000E+03 0.  0.
         25    1    4    4    0    0 -0.19032189074E+02 -0.59849968926E+01 -0.20856041674E+03  0.24401434371E+03  0.12509000000E+03 0.  0.
<mgrwt>
<rscale>  2 0.45458084E+03</rscale>
<asrwt>0</asrwt>
<pdfrwt beam="1">  1       21 0.98469152E-02 0.45458084E+03</pdfrwt>
<pdfrwt beam="2">  1       21 0.11346038E+00 0.45458084E+03</pdfrwt>
<totfact> 0.46110198E+04</totfact>
</mgrwt>
</event>
<event>
 7    0  0.4788920E-002  0.4689699E+03  0.7546771E-02  0.1022211E+00
         21   -1    0    0  502  501  0.00000000000E+00  0.00000000000E+00  0.14280656919E+03  0.14280656919E+03  0.00000000000E+00 0. -1.
         21   -1    0    0  501  502 -0.00000000000E+00 -0.00000000000E+00 -0.38501859831E+03  0.38501859831E+03  0.00000000000E+00 0. -1.
      99926    2    1    2    0    0  0.71054273576E-14  0.00000000000E+00 -0.24221202912E+03  0.52782516749E+03  0.46896987151E+03 0.  0.
      99925    2    3    3    0    0  0.50093358105E+02  0.79833492155E+02 -0.24521656192E+03  0.37117502765E+03  0.26221557527E+03 0.  0.
         25    1    4    4    0    0  0.37562141889E+02  0.43304065001E+02 -0.17499956286E+03  0.22261741093E+03  0.12509000000E+03 0.  0.
         25    1    3    3    0    0 -0.50093358105E+02 -0.79833492155E+02  0.30045327980E+01  0.15665013984E+03  0.12509000000E+03 0.  0.
         25    1    4    4    0    0  0.12531216216E+02  0.36529427154E+02 -0.70216999064E+02  0.14855761672E+03  0.12509000000E+03 0.  0.
<mgrwt>
<rscale>  2 0.46896987E+03</rscale>
<asrwt>0</asrwt>
<pdfrwt beam="1">  1       21 0.21000966E-01 0.46896987E+03</pdfrwt>
<pdfrwt beam="2">  1       21 0.56620381E-01 0.46896987E+03</pdfrwt>
<totfact> 0.56796195E+04</totfact>
</mgrwt>
</event>
<event>
 7    0  0.4788920E-002  0.4527301E+03  0.7546771E-02  0.1026911E+00
         21   -1    0    0  502  501  0.00000000000E+00  0.00000000000E+00  0.25717715960E+03  0.25717715960E+03  0.00000000000E+00 0. -1.
         21   -1    0    0  501  502 -0.00000000000E+00 -0.00000000000E+00 -0.19924446950E+03  0.19924446950E+03  0.00000000000E+00 0. -1.
      99926    2    1    2    0    0 -0.71054273576E-14  0.14210854715E-13  0.57932690103E+02  0.45642162910E+03  0.45273005967E+03 0.  0.
      99925    2    3    3    0    0 -0.48442027433E+02  0.99781238018E+02  0.32866546834E+02  0.28736913689E+03  0.26305490958E+03 0.  0.
         25    1    3    3    0    0  0.48442027433E+02 -0.99781238018E+02  0.25066143270E+02  0.16905249221E+03  0.12509000000E+03 0.  0.
         25    1    4    4    0    0 -0.55635679154E+01  0.12558540603E+02  0.13239377372E+01  0.12584884243E+03  0.12509000000E+03 0.  0.
         25    1    4    4    0    0 -0.42878459517E+02  0.87222697415E+02  0.31542609096E+02  0.16152029446E+03  0.12509000000E+03 0.  0.
<mgrwt>
<rscale>  2 0.45273006E+03</rscale>
<asrwt>0</asrwt>
<pdfrwt beam="1">  1       21 0.37820170E-01 0.45273006E+03</pdfrwt>
<pdfrwt beam="2">  1       21 0.29300657E-01 0.45273006E+03</pdfrwt>
<totfact> 0.69695256E+04</totfact>
</mgrwt>
</event>
<event>
 7    0  0.4788920E-002  0.4528748E+03  0.7546771E-02  0.1026868E+00
         21   -1    0    0  502  501  0.00000000000E+00  0.00000000000E+00  0.11039615059E+03  0.11039615059E+03  0.00000000000E+00 0. -1.
         21   -1    0    0  501  502 -0.00000000000E+00 -0.00000000000E+00 -0.46445370555E+03  0.46445370555E+03  0.00000000000E+00 0. -1.
      99926    2    1    2    0    0  0.00000000000E+00 -0.14210854715E-13 -0.35405755496E+03  0.57484985614E+03  0.45287482252E+03 0.  0.
      99925    2    3    3    0    0  0.46127921985E+02 -0.90826598490E+02 -0.27968482117E+03  0.39720957970E+03  0.26301063636E+03 0.  0.
         25    1    3    3    0    0 -0.46127921985E+02  0.90826598490E+02 -0.74372733797E+02  0.17764027644E+03  0.12509000000E+03 0.  0.
         25    1    4    4    0    0  0.25825130625E+02 -0.42948492019E+02 -0.82600946965E+02  0.15805674575E+03  0.12509000000E+03 0.  0.
         25    1    4    4    0    0  0.20302791359E+02 -0.47878106470E+02 -0.19708387420E+03  0.23915283395E+03  0.12509000000E+03 0.  0.
<mgrwt>
<rscale>  2 0.45287482E+03</rscale>
<asrwt>0</asrwt>
<pdfrwt beam="1">  1       21 0.16234728E-01 0.45287482E+03</pdfrwt>
<pdfrwt beam="2">  1       21 0.68302014E-01 0.45287482E+03</pdfrwt>
<totfact> 0.61276839E+04</totfact>
</mgrwt>
</event>
<event>
 7    0  0.4788920E-002  0.4466410E+03  0.7546771E-02  0.1028728E+00
         21   -1    0    0  502  501  0.00000000000E+00  0.00000000000E+00  0.11296634206E+04  0.11296634206E+04  0.00000000000E+00 0.  1.
         21   -1    0    0  501  502 -0.00000000000E+00 -0.00000000000E+00 -0.44147713216E+02  0.44147713216E+02  0.00000000000E+00 0.  1.
      99926    2    1    2    0    0  0.00000000000E+00  0.71054273576E-14  0.10855157074E+04  0.11738111338E+04  0.44664104927E+03 0.  0.
      99925    2    3    3    0    0  0.92516098599E+02  0.47151238726E+02  0.64374972860E+03  0.70308068449E+03  0.26291874793E+03 0.  0.
         25    1    4    4    0    0  0.37050120813E+02  0.62840676705E+02  0.31879554886E+03  0.35014250267E+03  0.12509000000E+03 0.  0.
         25    1    4    4    0    0  0.55465977785E+02 -0.15689437979E+02  0.32495417974E+03  0.35293818182E+03  0.12509000000E+03 0.  0.
         25    1    3    3    0    0 -0.92516098599E+02 -0.47151238726E+02  0.44176597877E+03  0.47073044932E+03  0.12509000000E+03 0.  0.
<mgrwt>
<rscale>  2 0.44664105E+03</rscale>
<asrwt>0</asrwt>
<pdfrwt beam="1">  1       21 0.16612695E+00 0.44664105E+03</pdfrwt>
<pdfrwt beam="2">  1       21 0.64923115E-02 0.44664105E+03</pdfrwt>
<totfact> 0.35236940E+04</totfact>
</mgrwt>
</event>
<event>
 7    0  0.4788920E-002  0.4477533E+03  0.7546771E-02  0.1028394E+00
         21   -1    0    0  502  501  0.00000000000E+00  0.00000000000E+00  0.10322194546E+03  0.10322194546E+03  0.00000000000E+00 0. -1.
         21   -1    0    0  501  502 -0.00000000000E+00 -0.00000000000E+00 -0.48556298409E+03  0.48556298409E+03  0.00000000000E+00 0. -1.
      99926    2    1    2    0    0  0.00000000000E+00  0.00000000000E+00 -0.38234103862E+03  0.58878492955E+03  0.44775330647E+03 0.  0.
      99925    2    3    3    0    0 -0.56406583961E+02 -0.70985866813E+02 -0.31546590651E+03  0.42043859785E+03  0.26273404879E+03 0.  0.
         25    1    3    3    0    0  0.56406583961E+02  0.70985866813E+02 -0.66875132119E+02  0.16834633170E+03  0.12509000000E+03 0.  0.
         25    1    4    4    0    0  0.35990560017E+01 -0.54948638881E+02 -0.17859004460E+03  0.22488712335E+03  0.12509000000E+03 0.  0.
         25    1    4    4    0    0 -0.60005639962E+02 -0.16037227932E+02 -0.13687586190E+03  0.19555147450E+03  0.12509000000E+03 0.  0.
<mgrwt>
<rscale>  2 0.44775331E+03</rscale>
<asrwt>0</asrwt>
<pdfrwt beam="1">  1       21 0.15179698E-01 0.44775331E+03</pdfrwt>
<pdfrwt beam="2">  1       21 0.71406320E-01 0.44775331E+03</pdfrwt>
<totfact> 0.62899846E+04</totfact>
</mgrwt>
</event>
<event>
 7    0  0.4788920E-002  0.4546186E+03  0.7546771E-02  0.1026354E+00
         21   -1    0    0  502  501  0.00000000000E+00  0.00000000000E+00  0.48597239015E+03  0.48597239015E+03  0.00000000000E+00 0.  1.
         21   -1    0    0  501  502 -0.00000000000E+00 -0.00000000000E+00 -0.10632192858E+03  0.10632192858E+03  0.00000000000E+00 0.  1.
      99926    2    1    2    0    0  0.53290705182E-14  0.14210854715E-13  0.37965046157E+03  0.59229431873E+03  0.45461861712E+03 0.  0.
      99925    2    3    3    0    0 -0.12010956310E+02 -0.10548722723E+03  0.28840443075E+03  0.40455736334E+03  0.26309261939E+03 0.  0.
         25    1    4    4    0    0 -0.33752992906E+02 -0.22838400349E+02  0.14773852777E+03  0.19782577625E+03  0.12509000000E+03 0.  0.
         25    1    4    4    0    0  0.21742036596E+02 -0.82648826880E+02  0.14066590297E+03  0.20673158709E+03  0.12509000000E+03 0.  0.
         25    1    3    3    0    0  0.12010956310E+02  0.10548722723E+03  0.91246030827E+02  0.18773695540E+03  0.12509000000E+03 0.  0.
<mgrwt>
<rscale>  2 0.45461862E+03</rscale>
<asrwt>0</asrwt>
<pdfrwt beam="1">  1       21 0.71466527E-01 0.45461862E+03</pdfrwt>
<pdfrwt beam="2">  1       21 0.15635578E-01 0.45461862E+03</pdfrwt>
<totfact> 0.59333729E+04</totfact>
</mgrwt>
</event>
<event>
 7    0  0.4788920E-002  0.4384642E+03  0.7546771E-02  0.1031219E+00
         21   -1    0    0  502  501  0.00000000000E+00  0.00000000000E+00  0.17469914649E+03  0.17469914649E+03  0.00000000000E+00 0.  1.
         21   -1    0    0  501  502 -0.00000000000E+00 -0.00000000000E+00 -0.27511710220E+03  0.27511710220E+03  0.00000000000E+00 0.  1.
      99926    2    1    2    0    0  0.14210854715E-13 -0.71054273576E-14 -0.10041795571E+03  0.44981624868E+03  0.43846424227E+03 0.  0.
      99925    2    3    3    0    0  0.85233734244E+02  0.43201660014E+02 -0.80464935883E+02  0.29114424743E+03  0.26298135680E+03 0.  0.
         25    1    4    4    0    0  0.94367062977E+01  0.36818440381E+02 -0.58015797099E+02  0.14303142938E+03  0.12509000000E+03 0.  0.
         25    1    4    4    0    0  0.75797027947E+02  0.63832196329E+01 -0.22449138785E+02  0.14811281805E+03  0.12509000000E+03 0.  0.
         25    1    3    3    0    0 -0.85233734244E+02 -0.43201660014E+02 -0.19953019830E+02  0.15867200125E+03  0.12509000000E+03 0.  0.
<mgrwt>
<rscale>  2 0.43846424E+03</rscale>
<asrwt>0</asrwt>
<pdfrwt beam="1">  1       21 0.25691052E-01 0.43846424E+03</pdfrwt>
<pdfrwt beam="2">  1       21 0.40458396E-01 0.43846424E+03</pdfrwt>
<totfact> 0.78806742E+04</totfact>
</mgrwt>
</event>
<event>
 7    0  0.4788920E-002  0.4560447E+03  0.7546771E-02  0.1025935E+00
         21   -1    0    0  502  501  0.00000000000E+00  0.00000000000E+00  0.41371600810E+03  0.41371600810E+03  0.00000000000E+00 0. -1.
         21   -1    0    0  501  502 -0.00000000000E+00 -0.00000000000E+00 -0.12567606759E+03  0.12567606759E+03  0.00000000000E+00 0. -1.
      99926    2    1    2    0    0 -0.14210854715E-13 -0.13322676296E-14  0.28803994050E+03  0.53939207569E+03  0.45604473902E+03 0.  0.
      99925    2    3    3    0    0 -0.11362335129E+03  0.20403271189E+01  0.16933475470E+03  0.33286639174E+03  0.26308049473E+03 0.  0.
         25    1    4    4    0    0 -0.97918358799E+02 -0.13981830225E+02  0.92336308215E+02  0.18427424801E+03  0.12509000000E+03 0.  0.
         25    1    3    3    0    0  0.11362335129E+03 -0.20403271189E+01  0.11870518581E+03  0.20652568395E+03  0.12509000000E+03 0.  0.
         25    1    4    4    0    0 -0.15704992493E+02  0.16022157344E+02  0.76998446483E+02  0.14859214372E+03  0.12509000000E+03 0.  0.
<mgrwt>
<rscale>  2 0.45604474E+03</rscale>
<asrwt>0</asrwt>
<pdfrwt beam="1">  1       21 0.60840589E-01 0.45604474E+03</pdfrwt>
<pdfrwt beam="2">  1       21 0.18481775E-01 0.45604474E+03</pdfrwt>
<totfact> 0.62058282E+04</totfact>
</mgrwt>
</event>
<event>
 7    0  0.4788920E-002  0.4625571E+03  0.7546771E-02  0.1024042E+00
         21   -1    0    0  502  501  0.00000000000E+00  0.00000000000E+00  0.20168780413E+03  0.20168780413E+03  0.00000000000E+00 0. -1.
         21   -1    0    0  501  502 -0.00000000000E+00 -0.00000000000E+00 -0.26521076497E+03  0.26521076497E+03  0.00000000000E+00 0. -1.
      99926    2    1    2    0    0  0.00000000000E+00  0.00000000000E+00 -0.63522960842E+02  0.46689856909E+03  0.46255713946E+03 0.  0.
      99925    2    3    3    0    0  0.34136624583E+02  0.11411333441E+03 -0.55921109176E+02  0.29400421269E+03  0.26291470937E+03 0.  0.
         25    1    4    4    0    0  0.22936736167E+01  0.93369969159E+02 -0.14119540175E+02  0.15674846600E+03  0.12509000000E+03 0.  0.
         25    1    3    3    0    0 -0.34136624583E+02 -0.11411333441E+03 -0.76018516669E+01  0.17289435640E+03  0.12509000000E+03 0.  0.
         25    1    4    4    0    0  0.31842950966E+02  0.20743365246E+02 -0.41801569001E+02  0.13725574669E+03  0.12509000000E+03 0.  0.
<mgrwt>
<rscale>  2 0.46255714E+03</rscale>
<asrwt>0</asrwt>
<pdfrwt beam="1">  1       21 0.29659971E-01 0.46255714E+03</pdfrwt>
<pdfrwt beam="2">  1       21 0.39001583E-01 0.46255714E+03</pdfrwt>
<totfact> 0.63751144E+04</totfact>
</mgrwt>
</event>
<event>
 7    0  0.4788920E-002  0.4555354E+03  0.7546771E-02  0.1026084E+00
         21   -1    0    0  502  501  0.00000000000E+00  0.00000000000E+00  0.39002483881E+03  0.39002483881E+03  0.00000000000E+00 0. -1.
         21   -1    0    0  501  502 -0.00000000000E+00 -0.00000000000E+00 -0.13301234340E+03  0.13301234340E+03  0.00000000000E+00 0. -1.
      99926    2    1    2    0    0  0.00000000000E+00  0.00000000000E+00  0.25701249540E+03  0.52303718221E+03  0.45553536765E+03 0.  0.
      99925    2    3    3    0    0  0.68270415273E+02  0.87554028972E+02  0.18701097849E+03  0.34172452942E+03  0.26358298568E+03 0.  0.
         25    1    3    3    0    0 -0.68270415273E+02 -0.87554028972E+02  0.70001516912E+02  0.18131265279E+03  0.12509000000E+03 0.  0.
         25    1    4    4    0    0  0.12580467513E+02  0.59561707402E+02  0.13123099354E+03  0.19124577621E+03  0.12509000000E+03 0.  0.
         25    1    4    4    0    0  0.55689947759E+02  0.27992321571E+02  0.55779984954E+02  0.15047875322E+03  0.12509000000E+03 0.  0.
<mgrwt>
<rscale>  2 0.45553537E+03</rscale>
<asrwt>0</asrwt>
<pdfrwt beam="1">  1       21 0.57356594E-01 0.45553537E+03</pdfrwt>
<pdfrwt beam="2">  1       21 0.19560639E-01 0.45553537E+03</pdfrwt>
<totfact> 0.63410715E+04</totfact>
</mgrwt>
</event>
<event>
 7    0  0.4788920E-002  0.4608699E+03  0.7546771E-02  0.1024529E+00
         21   -1    0    0  502  501  0.00000000000E+00  0.00000000000E+00  0.34610882288E+03  0.34610882288E+03  0.00000000000E+00 0.  1.
         21   -1    0    0  501  502 -0.00000000000E+00 -0.00000000000E+00 -0.15342071018E+03  0.15342071018E+03  0.00000000000E+00 0.  1.
      99926    2    1    2    0    0  0.71054273576E-14  0.00000000000E+00  0.19268811270E+03  0.49952953306E+03  0.46086987928E+03 0.  0.
      99925    2    3    3    0    0  0.42289625990E+02  0.52953422026E+02  0.15133987226E+02  0.27200930771E+03  0.26299724056E+03 0.  0.
         25    1    4    4    0    0  0.43026157126E+02  0.61918228203E+02  0.41438573521E+01  0.14611569674E+03  0.12509000000E+03 0.  0.
         25    1    4    4    0    0 -0.73653113610E+00 -0.89648061772E+01  0.10990129874E+02  0.12589361097E+03  0.12509000000E+03 0.  0.
         25    1    3    3    0    0 -0.42289625990E+02 -0.52953422026E+02  0.17755412547E+03  0.22752022535E+03  0.12509000000E+03 0.  0.
<mgrwt>
<rscale>  2 0.46086988E+03</rscale>
<asrwt>0</asrwt>
<pdfrwt beam="1">  1       21 0.50898356E-01 0.46086988E+03</pdfrwt>
<pdfrwt beam="2">  1       21 0.22561869E-01 0.46086988E+03</pdfrwt>
<totfact> 0.62347440E+04</totfact>
</mgrwt>
</event>
<event>
 7    0  0.4788920E-002  0.4612757E+03  0.7546771E-02  0.1024412E+00
         21   -1    0    0  502  501  0.00000000000E+00  0.00000000000E+00  0.70861159329E+02  0.70861159329E+02  0.00000000000E+00 0. -1.
         21   -1    0    0  501  502 -0.00000000000E+00 -0.00000000000E+00 -0.75067677632E+03  0.75067677632E+03  0.00000000000E+00 0. -1.
      99926    2    1    2    0    0  0.00000000000E+00 -0.14210854715E-13 -0.67981561699E+03  0.82153793565E+03  0.46127573815E+03 0.  0.
      99925    2    3    3    0    0 -0.78580482712E+02  0.72821278599E+02 -0.33504091327E+03  0.43944509967E+03  0.26340415938E+03 0.  0.
         25    1    4    4    0    0 -0.68662280347E+02  0.82430275402E+01 -0.17867309432E+03  0.22881005000E+03  0.12509000000E+03 0.  0.
         25    1    4    4    0    0 -0.99182023652E+01  0.64578251059E+02 -0.15636781895E+03  0.21063504967E+03  0.12509000000E+03 0.  0.
         25    1    3    3    0    0  0.78580482712E+02 -0.72821278599E+02 -0.34477470372E+03  0.38209283598E+03  0.12509000000E+03 0.  0.
<mgrwt>
<rscale>  2 0.46127574E+03</rscale>
<asrwt>0</asrwt>
<pdfrwt beam="1">  1       21 0.10420759E-01 0.46127574E+03</pdfrwt>
<pdfrwt beam="2">  1       21 0.11039364E+00 0.46127574E+03</pdfrwt>
<totfact> 0.44508100E+04</totfact>
</mgrwt>
</event>
<event>
 7    0  0.4788920E-002  0.4564211E+03  0.7546771E-02  0.1025824E+00
         21   -1    0    0  502  501  0.00000000000E+00  0.00000000000E+00  0.42009006644E+03  0.42009006644E+03  0.00000000000E+00 0.  1.
         21   -1    0    0  501  502 -0.00000000000E+00 -0.00000000000E+00 -0.12397354726E+03  0.12397354726E+03  0.00000000000E+00 0.  1.
      99926    2    1    2    0    0  0.00000000000E+00  0.00000000000E+00  0.29611651918E+03  0.54406361370E+03  0.45642110252E+03 0.  0.
      99925    2    3    3    0    0 -0.10389948555E+03 -0.39792587331E+02  0.15332637545E+03  0.32402932921E+03  0.26288300759E+03 0.  0.
         25    1    4    4    0    0 -0.61095106044E+02 -0.12019230805E+02  0.34064839289E+02  0.14382279120E+03  0.12509000000E+03 0.  0.
         25    1    4    4    0    0 -0.42804379507E+02 -0.27773356526E+02  0.11926153616E+03  0.18020653802E+03  0.12509000000E+03 0.  0.
         25    1    3    3    0    0  0.10389948555E+03  0.39792587331E+02  0.14279014373E+03  0.22003428449E+03  0.12509000000E+03 0.  0.
<mgrwt>
<rscale>  2 0.45642110E+03</rscale>
<asrwt>0</asrwt>
<pdfrwt beam="1">  1       21 0.61777951E-01 0.45642110E+03</pdfrwt>
<pdfrwt beam="2">  1       21 0.18231404E-01 0.45642110E+03</pdfrwt>
<totfact> 0.61565256E+04</totfact>
</mgrwt>
</event>
<event>
 7    0  0.4788920E-002  0.4498803E+03  0.7546771E-02  0.1027758E+00
         21   -1    0    0  502  501  0.00000000000E+00  0.00000000000E+00  0.45224502102E+03  0.45224502102E+03  0.00000000000E+00 0. -1.
         21   -1    0    0  501  502 -0.00000000000E+00 -0.00000000000E+00 -0.11188200225E+03  0.11188200225E+03  0.00000000000E+00 0. -1.
      99926    2    1    2    0    0  0.00000000000E+00  0.00000000000E+00  0.34036301877E+03  0.56412702327E+03  0.44988033280E+03 0.  0.
      99925    2    3    3    0    0  0.45700318908E+02  0.42238460087E+02  0.10407814339E+03  0.28962628176E+03  0.26301809158E+03 0.  0.
         25    1    4    4    0    0  0.11062374443E+02 -0.18052204823E+02  0.55659000026E+02  0.13854129569E+03  0.12509000000E+03 0.  0.
         25    1    4    4    0    0  0.34637944465E+02  0.60290664910E+02  0.48419143369E+02  0.15108498607E+03  0.12509000000E+03 0.  0.
         25    1    3    3    0    0 -0.45700318908E+02 -0.42238460087E+02  0.23628487538E+03  0.27450074151E+03  0.12509000000E+03 0.  0.
<mgrwt>
<rscale>  2 0.44988033E+03</rscale>
<asrwt>0</asrwt>
<pdfrwt beam="1">  1       21 0.66506620E-01 0.44988033E+03</pdfrwt>
<pdfrwt beam="2">  1       21 0.16453236E-01 0.44988033E+03</pdfrwt>
<totfact> 0.63473881E+04</totfact>
</mgrwt>
</event>
<event>
 7    0  0.4788920E-002  0.4126385E+03  0.7546771E-02  0.1039489E+00
         21   -1    0    0  502  501  0.00000000000E+00  0.00000000000E+00  0.46817096225E+03  0.46817096225E+03  0.00000000000E+00 0.  1.
         21   -1    0    0  501  502 -0.00000000000E+00 -0.00000000000E+00 -0.90923274284E+02  0.90923274284E+02  0.00000000000E+00 0.  1.
      99926    2    1    2    0    0  0.00000000000E+00  0.00000000000E+00  0.37724768797E+03  0.55909423654E+03  0.41263851886E+03 0.  0.
      99925    2    3    3    0    0 -0.18192501436E+02  0.60979742250E+02  0.22468988560E+03  0.35180003200E+03  0.26311256478E+03 0.  0.
         25    1    4    4    0    0 -0.14978443872E+02  0.36913341729E+02  0.62100418334E+02  0.14522712775E+03  0.12509000000E+03 0.  0.
         25    1    3    3    0    0  0.18192501436E+02 -0.60979742250E+02  0.15255780237E+03  0.20729420454E+03  0.12509000000E+03 0.  0.
         25    1    4    4    0    0 -0.32140575642E+01  0.24066400522E+02  0.16258946727E+03  0.20657290424E+03  0.12509000000E+03 0.  0.
<mgrwt>
<rscale>  2 0.41263852E+03</rscale>
<asrwt>0</asrwt>
<pdfrwt beam="1">  1       21 0.68848670E-01 0.41263852E+03</pdfrwt>
<pdfrwt beam="2">  1       21 0.13371070E-01 0.41263852E+03</pdfrwt>
<totfact> 0.86938906E+04</totfact>
</mgrwt>
</event>
<event>
 7    0  0.4788920E-002  0.4547579E+03  0.7546771E-02  0.1026313E+00
         21   -1    0    0  502  501  0.00000000000E+00  0.00000000000E+00  0.37409424894E+03  0.37409424894E+03  0.00000000000E+00 0. -1.
         21   -1    0    0  501  502 -0.00000000000E+00 -0.00000000000E+00 -0.13820362950E+03  0.13820362950E+03  0.00000000000E+00 0. -1.
      99926    2    1    2    0    0  0.44408920985E-15  0.14210854715E-13  0.23589061945E+03  0.51229787844E+03  0.45475788274E+03 0.  0.
      99925    2    3    3    0    0 -0.16968705217E+01  0.63071815247E+02  0.25396977402E+03  0.37103465896E+03  0.26303068031E+03 0.  0.
         25    1    4    4    0    0 -0.25298906906E+02 -0.17541007503E+01  0.11875795446E+03  0.17433895551E+03  0.12509000000E+03 0.  0.
         25    1    3    3    0    0  0.16968705217E+01 -0.63071815247E+02 -0.18079154579E+02  0.14126321948E+03  0.12509000000E+03 0.  0.
         25    1    4    4    0    0  0.23602036385E+02  0.64825915997E+02  0.13521181956E+03  0.19669570345E+03  0.12509000000E+03 0.  0.
<mgrwt>
<rscale>  2 0.45475788E+03</rscale>
<asrwt>0</asrwt>
<pdfrwt beam="1">  1       21 0.55013860E-01 0.45475788E+03</pdfrwt>
<pdfrwt beam="2">  1       21 0.20324063E-01 0.45475788E+03</pdfrwt>
<totfact> 0.64538963E+04</totfact>
</mgrwt>
</event>
<event>
 7    0  0.4788920E-002  0.4582121E+03  0.7546771E-02  0.1025301E+00
         21   -1    0    0  502  501  0.00000000000E+00  0.00000000000E+00  0.32305703443E+03  0.32305703443E+03  0.00000000000E+00 0.  1.
         21   -1    0    0  501  502 -0.00000000000E+00 -0.00000000000E+00 -0.16247773628E+03  0.16247773628E+03  0.00000000000E+00 0.  1.
      99926    2    1    2    0    0  0.00000000000E+00  0.00000000000E+00  0.16057929815E+03  0.48553477071E+03  0.45821207162E+03 0.  0.
      99925    2    3    3    0    0  0.96451548873E+02  0.20635101987E+02  0.35786137808E+02  0.28317481992E+03  0.26301829264E+03 0.  0.
         25    1    4    4    0    0  0.22478962051E+02  0.14572960414E+02  0.49298580689E+02  0.13709680182E+03  0.12509000000E+03 0.  0.
         25    1    3    3    0    0 -0.96451548873E+02 -0.20635101987E+02  0.12479316035E+03  0.20235995079E+03  0.12509000000E+03 0.  0.
         25    1    4    4    0    0  0.73972586823E+02  0.60621415728E+01 -0.13512442882E+02  0.14607801811E+03  0.12509000000E+03 0.  0.
<mgrwt>
<rscale>  2 0.45821207E+03</rscale>
<asrwt>0</asrwt>
<pdfrwt beam="1">  1       21 0.47508388E-01 0.45821207E+03</pdfrwt>
<pdfrwt beam="2">  1       21 0.23893785E-01 0.45821207E+03</pdfrwt>
<totfact> 0.64635504E+04</totfact>
</mgrwt>
</event>
<event>
 7    0  0.4788920E-002  0.4581604E+03  0.7546771E-02  0.1025316E+00
         21   -1    0    0  502  501  0.00000000000E+00  0.00000000000E+00  0.10130180024E+04  0.10130180024E+04  0.00000000000E+00 0.  1.
         21   -1    0    0  501  502 -0.00000000000E+00 -0.00000000000E+00 -0.51803353652E+02  0.51803353652E+02  0.00000000000E+00 0.  1.
      99926    2    1    2    0    0  0.00000000000E+00  0.00000000000E+00  0.96121464877E+03  0.10648213561E+04  0.45816036422E+03 0.  0.
      99925    2    3    3    0    0  0.25375314903E+02  0.83713651703E+02  0.42657503877E+03  0.50881874568E+03  0.26320784594E+03 0.  0.
         25    1    3    3    0    0 -0.25375314903E+02 -0.83713651703E+02  0.53463961000E+03  0.55600261040E+03  0.12509000000E+03 0.  0.
         25    1    4    4    0    0  0.21623109612E+02  0.61622475317E+02  0.15892389386E+03  0.21253046952E+03  0.12509000000E+03 0.  0.
         25    1    4    4    0    0  0.37522052912E+01  0.22091176385E+02  0.26765114491E+03  0.29628827616E+03  0.12509000000E+03 0.  0.
<mgrwt>
<rscale>  2 0.45816036E+03</rscale>
<asrwt>0</asrwt>
<pdfrwt beam="1">  1       21 0.14897322E+00 0.45816036E+03</pdfrwt>
<pdfrwt beam="2">  1       21 0.76181409E-02 0.45816036E+03</pdfrwt>
<totfact> 0.35845926E+04</totfact>
</mgrwt>
</event>
<event>
 7    0  0.4788920E-002  0.4504184E+03  0.7546771E-02  0.1027597E+00
         21   -1    0    0  502  501  0.00000000000E+00  0.00000000000E+00  0.65198835369E+02  0.65198835369E+02  0.00000000000E+00 0. -1.
         21   -1    0    0  501  502 -0.00000000000E+00 -0.00000000000E+00 -0.77791551440E+03  0.77791551440E+03  0.00000000000E+00 0. -1.
      99926    2    1    2    0    0  0.14210854715E-13  0.00000000000E+00 -0.71271667903E+03  0.84311434977E+03  0.45041840795E+03 0.  0.
      99925    2    3    3    0    0 -0.87404616807E+02 -0.32936542794E+02 -0.55438601437E+03  0.62076217334E+03  0.26320607902E+03 0.  0.
         25    1    3    3    0    0  0.87404616807E+02  0.32936542794E+02 -0.15833066466E+03  0.22235217643E+03  0.12509000000E+03 0.  0.
         25    1    4    4    0    0 -0.32448364694E+02  0.10635136639E+02 -0.32887679069E+03  0.35351584697E+03  0.12509000000E+03 0.  0.
         25    1    4    4    0    0 -0.54956252113E+02 -0.43571679433E+02 -0.22550922368E+03  0.26724632637E+03  0.12509000000E+03 0.  0.
<mgrwt>
<rscale>  2 0.45041841E+03</rscale>
<asrwt>0</asrwt>
<pdfrwt beam="1">  1       21 0.95880639E-02 0.45041841E+03</pdfrwt>
<pdfrwt beam="2">  1       21 0.11439934E+00 0.45041841E+03</pdfrwt>
<totfact> 0.47430944E+04</totfact>
</mgrwt>
</event>
<event>
 7    0  0.4788920E-002  0.4447207E+03  0.7546771E-02  0.1029308E+00
         21   -1    0    0  502  501  0.00000000000E+00  0.00000000000E+00  0.62946172141E+02  0.62946172141E+02  0.00000000000E+00 0. -1.
         21   -1    0    0  501  502 -0.00000000000E+00 -0.00000000000E+00 -0.78549848036E+03  0.78549848036E+03  0.00000000000E+00 0. -1.
      99926    2    1    2    0    0  0.00000000000E+00 -0.44408920985E-15 -0.72255230822E+03  0.84844465250E+03  0.44472068790E+03 0.  0.
      99925    2    3    3    0    0 -0.80329561362E+02  0.26469081138E+01 -0.33508783863E+03  0.43343131796E+03  0.26290493195E+03 0.  0.
         25    1    4    4    0    0 -0.66702751282E+02 -0.47803194887E+01 -0.12833131299E+03  0.19128131763E+03  0.12509000000E+03 0.  0.
         25    1    3    3    0    0  0.80329561362E+02 -0.26469081138E+01 -0.38746446959E+03  0.41501333454E+03  0.12509000000E+03 0.  0.
         25    1    4    4    0    0 -0.13626810081E+02  0.74272276025E+01 -0.20675652564E+03  0.24215000033E+03  0.12509000000E+03 0.  0.
<mgrwt>
<rscale>  2 0.44472069E+03</rscale>
<asrwt>0</asrwt>
<pdfrwt beam="1">  1       21 0.92567902E-02 0.44472069E+03</pdfrwt>
<pdfrwt beam="2">  1       21 0.11551448E+00 0.44472069E+03</pdfrwt>
<totfact> 0.49371358E+04</totfact>
</mgrwt>
</event>
<event>
 7    0  0.4788920E-002  0.4427419E+03  0.7546771E-02  0.1029909E+00
         21   -1    0    0  502  501  0.00000000000E+00  0.00000000000E+00  0.47733814590E+02  0.47733814590E+02  0.00000000000E+00 0. -1.
         21   -1    0    0  501  502 -0.00000000000E+00 -0.00000000000E+00 -0.10266325886E+04  0.10266325886E+04  0.00000000000E+00 0. -1.
      99926    2    1    2    0    0  0.00000000000E+00  0.00000000000E+00 -0.97889877404E+03  0.10743664032E+04  0.44274186446E+03 0.  0.
      99925    2    3    3    0    0 -0.21651204169E+02  0.96994468573E+02 -0.57618375120E+03  0.64111866889E+03  0.26299948837E+03 0.  0.
         25    1    4    4    0    0 -0.45204051218E+02  0.40103963658E+02 -0.24241117155E+03  0.27939652528E+03  0.12509000000E+03 0.  0.
         25    1    3    3    0    0  0.21651204169E+02 -0.96994468573E+02 -0.40271502284E+03  0.43324773433E+03  0.12509000000E+03 0.  0.
         25    1    4    4    0    0  0.23552847049E+02  0.56890504914E+02 -0.33377257965E+03  0.36172214361E+03  0.12509000000E+03 0.  0.
<mgrwt>
<rscale>  2 0.44274186E+03</rscale>
<asrwt>0</asrwt>
<pdfrwt beam="1">  1       21 0.70196789E-02 0.44274186E+03</pdfrwt>
<pdfrwt beam="2">  1       21 0.15097538E+00 0.44274186E+03</pdfrwt>
<totfact> 0.40095970E+04</totfact>
</mgrwt>
</event>
<event>
 7    0  0.4788920E-002  0.4545198E+03  0.7546771E-02  0.1026383E+00
         21   -1    0    0  502  501  0.00000000000E+00  0.00000000000E+00  0.41699206833E+02  0.41699206833E+02  0.00000000000E+00 0. -1.
         21   -1    0    0  501  502 -0.00000000000E+00 -0.00000000000E+00 -0.12385623115E+04  0.12385623115E+04  0.00000000000E+00 0. -1.
      99926    2    1    2    0    0  0.00000000000E+00  0.00000000000E+00 -0.11968631047E+04  0.12802615183E+04  0.45451981696E+03 0.  0.
      99925    2    3    3    0    0 -0.67501587278E+02 -0.68665228913E+02 -0.58699855579E+03  0.65029830193E+03  0.26277214282E+03 0.  0.
         25    1    4    4    0    0 -0.73220116987E+02 -0.36112762480E+02 -0.28564757262E+03  0.32234664724E+03  0.12509000000E+03 0.  0.
         25    1    3    3    0    0  0.67501587278E+02  0.68665228913E+02 -0.60986454888E+03  0.62996321641E+03  0.12509000000E+03 0.  0.
         25    1    4    4    0    0  0.57185297085E+01 -0.32552466433E+02 -0.30135098317E+03  0.32795165469E+03  0.12509000000E+03 0.  0.
<mgrwt>
<rscale>  2 0.45451982E+03</rscale>
<asrwt>0</asrwt>
<pdfrwt beam="1">  1       21 0.61322377E-02 0.45451982E+03</pdfrwt>
<pdfrwt beam="2">  1       21 0.18214147E+00 0.45451982E+03</pdfrwt>
<totfact> 0.29804682E+04</totfact>
</mgrwt>
</event>
<event>
 7    0  0.4788920E-002  0.4385607E+03  0.7546771E-02  0.1031189E+00
         21   -1    0    0  502  501  0.00000000000E+00  0.00000000000E+00  0.10770418926E+03  0.10770418926E+03  0.00000000000E+00 0. -1.
         21   -1    0    0  501  502 -0.00000000000E+00 -0.00000000000E+00 -0.44644391899E+03  0.44644391899E+03  0.00000000000E+00 0. -1.
      99926    2    1    2    0    0  0.71054273576E-14  0.00000000000E+00 -0.33873972973E+03  0.55414810825E+03  0.43856073853E+03 0.  0.
      99925    2    3    3    0    0 -0.34947230914E+02 -0.87658480179E+02 -0.18818565289E+03  0.33684795581E+03  0.26295890798E+03 0.  0.
         25    1    4    4    0    0 -0.51854708318E+02 -0.42493118867E+02 -0.12286188148E+03  0.18771554530E+03  0.12509000000E+03 0.  0.
         25    1    4    4    0    0  0.16907477403E+02 -0.45165361312E+02 -0.65323771410E+02  0.14913241051E+03  0.12509000000E+03 0.  0.
         25    1    3    3    0    0  0.34947230914E+02  0.87658480179E+02 -0.15055407684E+03  0.21730015244E+03  0.12509000000E+03 0.  0.
<mgrwt>
<rscale>  2 0.43856074E+03</rscale>
<asrwt>0</asrwt>
<pdfrwt beam="1">  1       21 0.15838851E-01 0.43856074E+03</pdfrwt>
<pdfrwt beam="2">  1       21 0.65653517E-01 0.43856074E+03</pdfrwt>
<totfact> 0.70299161E+04</totfact>
</mgrwt>
</event>
<event>
 7    0  0.4788920E-002  0.4613381E+03  0.7546771E-02  0.1024394E+00
         21   -1    0    0  502  501  0.00000000000E+00  0.00000000000E+00  0.50982544815E+02  0.50982544815E+02  0.00000000000E+00 0.  1.
         21   -1    0    0  501  502 -0.00000000000E+00 -0.00000000000E+00 -0.10436556283E+04  0.10436556283E+04  0.00000000000E+00 0.  1.
      99926    2    1    2    0    0  0.00000000000E+00  0.00000000000E+00 -0.99267308344E+03  0.10946381731E+04  0.46133813993E+03 0.  0.
      99925    2    3    3    0    0 -0.49847483448E+02 -0.67015927771E+02 -0.82229233330E+03  0.86736517797E+03  0.26302426577E+03 0.  0.
         25    1    3    3    0    0  0.49847483448E+02  0.67015927771E+02 -0.17038075015E+03  0.22727299510E+03  0.12509000000E+03 0.  0.
         25    1    4    4    0    0 -0.55088974920E+02 -0.63235888207E+02 -0.46094954590E+03  0.48492841192E+03  0.12509000000E+03 0.  0.
         25    1    4    4    0    0  0.52414914726E+01 -0.37800395632E+01 -0.36134278739E+03  0.38243676606E+03  0.12509000000E+03 0.  0.
<mgrwt>
<rscale>  2 0.46133814E+03</rscale>
<asrwt>0</asrwt>
<pdfrwt beam="1">  1       21 0.74974334E-02 0.46133814E+03</pdfrwt>
<pdfrwt beam="2">  1       21 0.15347876E+00 0.46133814E+03</pdfrwt>
<totfact> 0.33969687E+04</totfact>
</mgrwt>
</event>
<event>
 7    0  0.4788920E-002  0.4433034E+03  0.7546771E-02  0.1029738E+00
         21   -1    0    0  502  501  0.00000000000E+00  0.00000000000E+00  0.28975383658E+03  0.28975383658E+03  0.00000000000E+00 0. -1.
         21   -1    0    0  501  502 -0.00000000000E+00 -0.00000000000E+00 -0.16955591758E+03  0.16955591758E+03  0.00000000000E+00 0. -1.
      99926    2    1    2    0    0  0.71054273576E-14 -0.22204460493E-14  0.12019791899E+03  0.45930975416E+03  0.44330340686E+03 0.  0.
      99925    2    3    3    0    0  0.41575380984E+02  0.13898487363E+01 -0.20418018852E+02  0.26656434161E+03  0.26250563563E+03 0.  0.
         25    1    3    3    0    0 -0.41575380984E+02 -0.13898487363E+01  0.14061593784E+03  0.19274541255E+03  0.12509000000E+03 0.  0.
         25    1    4    4    0    0  0.46763618166E+02 -0.28578696559E+02 -0.25241308571E+01  0.13659230292E+03  0.12509000000E+03 0.  0.
         25    1    4    4    0    0 -0.51882371822E+01  0.29968545295E+02 -0.17893887995E+02  0.12997203868E+03  0.12509000000E+03 0.  0.
<mgrwt>
<rscale>  2 0.44330341E+03</rscale>
<asrwt>0</asrwt>
<pdfrwt beam="1">  1       21 0.42610858E-01 0.44330341E+03</pdfrwt>
<pdfrwt beam="2">  1       21 0.24934694E-01 0.44330341E+03</pdfrwt>
<totfact> 0.74956195E+04</totfact>
</mgrwt>
</event>
<event>
 7    0  0.4788920E-002  0.4718023E+03  0.7546771E-02  0.1021413E+00
         21   -1    0    0  502  501  0.00000000000E+00  0.00000000000E+00  0.28915621620E+03  0.28915621620E+03  0.00000000000E+00 0.  1.
         21   -1    0    0  501  502 -0.00000000000E+00 -0.00000000000E+00 -0.19245427409E+03  0.19245427409E+03  0.00000000000E+00 0.  1.
      99926    2    1    2    0    0  0.35527136788E-14  0.00000000000E+00  0.96701942114E+02  0.48161049029E+03  0.47180228778E+03 0.  0.
      99925    2    3    3    0    0  0.30383457343E+02 -0.11149296857E+03  0.31530312044E+01  0.28730983833E+03  0.26302692842E+03 0.  0.
         25    1    4    4    0    0  0.48932839085E+02 -0.73051848690E+02  0.19469980849E+02  0.15413495253E+03  0.12509000000E+03 0.  0.
         25    1    4    4    0    0 -0.18549381742E+02 -0.38441119884E+02 -0.16316949645E+02  0.13317488580E+03  0.12509000000E+03 0.  0.
         25    1    3    3    0    0 -0.30383457343E+02  0.11149296857E+03  0.93548910909E+02  0.19430065196E+03  0.12509000000E+03 0.  0.
<mgrwt>
<rscale>  2 0.47180229E+03</rscale>
<asrwt>0</asrwt>
<pdfrwt beam="1">  1       21 0.42522973E-01 0.47180229E+03</pdfrwt>
<pdfrwt beam="2">  1       21 0.28302099E-01 0.47180229E+03</pdfrwt>
<totfact> 0.58396584E+04</totfact>
</mgrwt>
</event>
<event>
 7    0  0.4788920E-002  0.4546980E+03  0.7546771E-02  0.1026330E+00
         21   -1    0    0  502  501  0.00000000000E+00  0.00000000000E+00  0.48922839698E+03  0.48922839698E+03  0.00000000000E+00 0.  1.
         21   -1    0    0  501  502 -0.00000000000E+00 -0.00000000000E+00 -0.10565120394E+03  0.10565120394E+03  0.00000000000E+00 0.  1.
      99926    2    1    2    0    0  0.00000000000E+00  0.00000000000E+00  0.38357719305E+03  0.59487960092E+03  0.45469800590E+03 0.  0.
      99925    2    3    3    0    0 -0.90433244924E+02  0.67433194541E+02  0.24762876100E+03  0.37841969288E+03  0.26297538511E+03 0.  0.
         25    1    4    4    0    0 -0.19967660788E+02  0.28749230268E+02  0.15901382486E+03  0.20532445133E+03  0.12509000000E+03 0.  0.
         25    1    3    3    0    0  0.90433244924E+02 -0.67433194541E+02  0.13594843204E+03  0.21645990804E+03  0.12509000000E+03 0.  0.
         25    1    4    4    0    0 -0.70465584136E+02  0.38683964273E+02  0.88614936144E+02  0.17309524155E+03  0.12509000000E+03 0.  0.
<mgrwt>
<rscale>  2 0.45469801E+03</rscale>
<asrwt>0</asrwt>
<pdfrwt beam="1">  1       21 0.71945351E-01 0.45469801E+03</pdfrwt>
<pdfrwt beam="2">  1       21 0.15536942E-01 0.45469801E+03</pdfrwt>
<totfact> 0.59135552E+04</totfact>
</mgrwt>
</event>
<event>
 7    0  0.4788920E-002  0.4476675E+03  0.7546771E-02  0.1028420E+00
         21   -1    0    0  502  501  0.00000000000E+00  0.00000000000E+00  0.20750298341E+03  0.20750298341E+03  0.00000000000E+00 0. -1.
         21   -1    0    0  501  502 -0.00000000000E+00 -0.00000000000E+00 -0.24144978537E+03  0.24144978537E+03  0.00000000000E+00 0. -1.
      99926    2    1    2    0    0 -0.16271706205E-14  0.00000000000E+00 -0.33946801960E+02  0.44895276878E+03  0.44766751415E+03 0.  0.
      99925    2    3    3    0    0 -0.26684316283E-01  0.98382949551E+02  0.18274639087E+02  0.28146010482E+03  0.26307151632E+03 0.  0.
         25    1    3    3    0    0  0.26684316283E-01 -0.98382949551E+02 -0.52221441046E+02  0.16749266396E+03  0.12509000000E+03 0.  0.
         25    1    4    4    0    0 -0.12805906623E+02  0.88578614745E+02  0.21440413485E+02  0.15529765505E+03  0.12509000000E+03 0.  0.
         25    1    4    4    0    0  0.12779222307E+02  0.98043348062E+01 -0.31657743981E+01  0.12616244977E+03  0.12509000000E+03 0.  0.
<mgrwt>
<rscale>  2 0.44766751E+03</rscale>
<asrwt>0</asrwt>
<pdfrwt beam="1">  1       21 0.30515145E-01 0.44766751E+03</pdfrwt>
<pdfrwt beam="2">  1       21 0.35507321E-01 0.44766751E+03</pdfrwt>
<totfact> 0.73179625E+04</totfact>
</mgrwt>
</event>
<event>
 7    0  0.4788920E-002  0.4490063E+03  0.7546771E-02  0.1028019E+00
         21   -1    0    0  502  501  0.00000000000E+00  0.00000000000E+00  0.59926807483E+02  0.59926807483E+02  0.00000000000E+00 0.  1.
         21   -1    0    0  501  502 -0.00000000000E+00 -0.00000000000E+00 -0.84105387048E+03  0.84105387048E+03  0.00000000000E+00 0.  1.
      99926    2    1    2    0    0  0.00000000000E+00  0.71054273576E-14 -0.78112706300E+03  0.90098067797E+03  0.44900634017E+03 0.  0.
      99925    2    3    3    0    0  0.52597099181E+02  0.62910628378E+02 -0.35492648322E+03  0.44929644722E+03  0.26300244672E+03 0.  0.
         25    1    3    3    0    0 -0.52597099181E+02 -0.62910628378E+02 -0.42620057978E+03  0.45168423075E+03  0.12509000000E+03 0.  0.
         25    1    4    4    0    0  0.45749697721E+02 -0.11789977283E+01 -0.19659889468E+03  0.23747222652E+03  0.12509000000E+03 0.  0.
         25    1    4    4    0    0  0.68474014598E+01  0.64089626106E+02 -0.15832758854E+03  0.21182422070E+03  0.12509000000E+03 0.  0.
<mgrwt>
<rscale>  2 0.44900634E+03</rscale>
<asrwt>0</asrwt>
<pdfrwt beam="1">  1       21 0.88127662E-02 0.44900634E+03</pdfrwt>
<pdfrwt beam="2">  1       21 0.12368439E+00 0.44900634E+03</pdfrwt>
<totfact> 0.45278507E+04</totfact>
</mgrwt>
</event>
<event>
 7    0  0.4788920E-002  0.4457813E+03  0.7546771E-02  0.1028988E+00
         21   -1    0    0  502  501  0.00000000000E+00  0.00000000000E+00  0.68346933913E+03  0.68346933913E+03  0.00000000000E+00 0.  1.
         21   -1    0    0  501  502 -0.00000000000E+00 -0.00000000000E+00 -0.72688331570E+02  0.72688331570E+02  0.00000000000E+00 0.  1.
      99926    2    1    2    0    0 -0.71054273576E-14  0.00000000000E+00  0.61078100756E+03  0.75615767070E+03  0.44578131832E+03 0.  0.
      99925    2    3    3    0    0 -0.53652953076E+02 -0.86412038476E+02  0.42720509810E+03  0.51183554235E+03  0.26291775673E+03 0.  0.
         25    1    4    4    0    0 -0.89996913627E-02 -0.66114118950E+02  0.25253210017E+03  0.28946683147E+03  0.12509000000E+03 0.  0.
         25    1    3    3    0    0  0.53652953076E+02  0.86412038476E+02  0.18357590945E+03  0.24432212834E+03  0.12509000000E+03 0.  0.
         25    1    4    4    0    0 -0.53643953385E+02 -0.20297919526E+02  0.17467299794E+03  0.22236871088E+03  0.12509000000E+03 0.  0.
<mgrwt>
<rscale>  2 0.44578132E+03</rscale>
<asrwt>0</asrwt>
<pdfrwt beam="1">  1       21 0.10051019E+00 0.44578132E+03</pdfrwt>
<pdfrwt beam="2">  1       21 0.10689461E-01 0.44578132E+03</pdfrwt>
<totfact> 0.53743672E+04</totfact>
</mgrwt>
</event>
<event>
 7    0  0.4788920E-002  0.4544177E+03  0.7546771E-02  0.1026413E+00
         21   -1    0    0  502  501  0.00000000000E+00  0.00000000000E+00  0.26768140915E+03  0.26768140915E+03  0.00000000000E+00 0. -1.
         21   -1    0    0  501  502 -0.00000000000E+00 -0.00000000000E+00 -0.19285558540E+03  0.19285558540E+03  0.00000000000E+00 0. -1.
      99926    2    1    2    0    0  0.00000000000E+00 -0.17763568394E-14  0.74825823747E+02  0.46053699455E+03  0.45441767071E+03 0.  0.
      99925    2    3    3    0    0  0.10819897850E+03  0.66715537108E+01  0.77571937447E+02  0.29498767314E+03  0.26315165447E+03 0.  0.
         25    1    3    3    0    0 -0.10819897850E+03 -0.66715537108E+01 -0.27461137001E+01  0.16554932141E+03  0.12509000000E+03 0.  0.
         25    1    4    4    0    0  0.89126260745E+02 -0.20716569050E+02  0.47114749352E+02  0.16198757451E+03  0.12509000000E+03 0.  0.
         25    1    4    4    0    0  0.19072717759E+02  0.27388122761E+02  0.30457188094E+02  0.13300009864E+03  0.12509000000E+03 0.  0.
<mgrwt>
<rscale>  2 0.45441767E+03</rscale>
<asrwt>0</asrwt>
<pdfrwt beam="1">  1       21 0.39364913E-01 0.45441767E+03</pdfrwt>
<pdfrwt beam="2">  1       21 0.28361115E-01 0.45441767E+03</pdfrwt>
<totfact> 0.68458739E+04</totfact>
</mgrwt>
</event>
<event>
 7    0  0.4788920E-002  0.4588210E+03  0.7546771E-02  0.1025124E+00
         21   -1    0    0  502  501  0.00000000000E+00  0.00000000000E+00  0.35095067599E+03  0.35095067599E+03  0.00000000000E+00 0. -1.
         21   -1    0    0  501  502 -0.00000000000E+00 -0.00000000000E+00 -0.14996176124E+03  0.14996176124E+03  0.00000000000E+00 0. -1.
      99926    2    1    2    0    0 -0.35527136788E-14  0.00000000000E+00  0.20098891474E+03  0.50091243723E+03  0.45882101731E+03 0.  0.
      99925    2    3    3    0    0  0.28525325905E+02  0.99299941592E+01  0.24915366216E+03  0.36350919856E+03  0.26296214760E+03 0.  0.
         25    1    4    4    0    0  0.51555665300E+02  0.20308970253E+02  0.12081542410E+03  0.18252209646E+03  0.12509000000E+03 0.  0.
         25    1    4    4    0    0 -0.23030339395E+02 -0.10378976094E+02  0.12833823806E+03  0.18098710210E+03  0.12509000000E+03 0.  0.
         25    1    3    3    0    0 -0.28525325905E+02 -0.99299941592E+01 -0.48164747419E+02  0.13740323867E+03  0.12509000000E+03 0.  0.
<mgrwt>
<rscale>  2 0.45882102E+03</rscale>
<asrwt>0</asrwt>
<pdfrwt beam="1">  1       21 0.51610394E-01 0.45882102E+03</pdfrwt>
<pdfrwt beam="2">  1       21 0.22053200E-01 0.45882102E+03</pdfrwt>
<totfact> 0.63265745E+04</totfact>
</mgrwt>
</event>
<event>
 7    0  0.4788920E-002  0.4476984E+03  0.7546771E-02  0.1028411E+00
         21   -1    0    0  502  501  0.00000000000E+00  0.00000000000E+00  0.51818052006E+03  0.51818052006E+03  0.00000000000E+00 0. -1.
         21   -1    0    0  501  502 -0.00000000000E+00 -0.00000000000E+00 -0.96700787826E+02  0.96700787826E+02  0.00000000000E+00 0. -1.
      99926    2    1    2    0    0  0.00000000000E+00  0.00000000000E+00  0.42147973223E+03  0.61488130788E+03  0.44769840083E+03 0.  0.
      99925    2    3    3    0    0  0.40836831176E+02  0.57082356526E+02  0.15817790605E+03  0.31504568295E+03  0.26326315765E+03 0.  0.
         25    1    4    4    0    0  0.40527901046E+02  0.26480907304E+02  0.12191544466E+03  0.18125847004E+03  0.12509000000E+03 0.  0.
         25    1    4    4    0    0  0.30893013006E+00  0.30601449222E+02  0.36262461386E+02  0.13378721291E+03  0.12509000000E+03 0.  0.
         25    1    3    3    0    0 -0.40836831176E+02 -0.57082356526E+02  0.26330182618E+03  0.29983562493E+03  0.12509000000E+03 0.  0.
<mgrwt>
<rscale>  2 0.44769840E+03</rscale>
<asrwt>0</asrwt>
<pdfrwt beam="1">  1       21 0.76203016E-01 0.44769840E+03</pdfrwt>
<pdfrwt beam="2">  1       21 0.14220704E-01 0.44769840E+03</pdfrwt>
<totfact> 0.61226410E+04</totfact>
</mgrwt>
</event>
<event>
 7    0  0.4788920E-002  0.4451761E+03  0.7546771E-02  0.1029170E+00
         21   -1    0    0  502  501  0.00000000000E+00  0.00000000000E+00  0.62329508845E+03  0.62329508845E+03  0.00000000000E+00 0.  1.
         21   -1    0    0  501  502 -0.00000000000E+00 -0.00000000000E+00 -0.79489546519E+02  0.79489546519E+02  0.00000000000E+00 0.  1.
      99926    2    1    2    0    0  0.00000000000E+00  0.88817841970E-15  0.54380554193E+03  0.70278463497E+03  0.44517611764E+03 0.  0.
      99925    2    3    3    0    0 -0.23545769114E+02  0.22895784307E+01  0.18555534344E+03  0.32258684667E+03  0.26281522549E+03 0.  0.
         25    1    4    4    0    0  0.15740594336E+02 -0.12173054256E+02  0.12314500952E+03  0.17665828888E+03  0.12509000000E+03 0.  0.
         25    1    4    4    0    0 -0.39286363451E+02  0.14462632686E+02  0.62410333917E+02  0.14592855778E+03  0.12509000000E+03 0.  0.
         25    1    3    3    0    0  0.23545769114E+02 -0.22895784307E+01  0.35825019849E+03  0.38019778831E+03  0.12509000000E+03 0.  0.
<mgrwt>
<rscale>  2 0.44517612E+03</rscale>
<asrwt>0</asrwt>
<pdfrwt beam="1">  1       21 0.91661040E-01 0.44517612E+03</pdfrwt>
<pdfrwt beam="2">  1       21 0.11689640E-01 0.44517612E+03</pdfrwt>
<totfact> 0.57034853E+04</totfact>
</mgrwt>
</event>
<event>
 7    0  0.4788920E-002  0.4573248E+03  0.7546771E-02  0.1025560E+00
         21   -1    0    0  502  501  0.00000000000E+00  0.00000000000E+00  0.76779423881E+03  0.76779423881E+03  0.00000000000E+00 0.  1.
         21   -1    0    0  501  502 -0.00000000000E+00 -0.00000000000E+00 -0.68099611026E+02  0.68099611026E+02  0.00000000000E+00 0.  1.
      99926    2    1    2    0    0 -0.35527136788E-14  0.00000000000E+00  0.69969462779E+03  0.83589384984E+03  0.45732478180E+03 0.  0.
      99925    2    3    3    0    0 -0.22590447956E+02 -0.93870341912E+02  0.55472048320E+03  0.62144809883E+03  0.26298470606E+03 0.  0.
         25    1    3    3    0    0  0.22590447956E+02  0.93870341912E+02  0.14497414458E+03  0.21444575101E+03  0.12509000000E+03 0.  0.
         25    1    4    4    0    0 -0.49397220114E+02 -0.50823413518E+02  0.31699990807E+03  0.34807981058E+03  0.12509000000E+03 0.  0.
         25    1    4    4    0    0  0.26806772157E+02 -0.43046928395E+02  0.23772057513E+03  0.27336828824E+03  0.12509000000E+03 0.  0.
<mgrwt>
<rscale>  2 0.45732478E+03</rscale>
<asrwt>0</asrwt>
<pdfrwt beam="1">  1       21 0.11291091E+00 0.45732478E+03</pdfrwt>
<pdfrwt beam="2">  1       21 0.10014649E-01 0.45732478E+03</pdfrwt>
<totfact> 0.45246208E+04</totfact>
</mgrwt>
</event>
<event>
 7    0  0.4788920E-002  0.4779564E+03  0.7546771E-02  0.1019698E+00
         21   -1    0    0  502  501  0.00000000000E+00  0.00000000000E+00  0.78213888626E+02  0.78213888626E+02  0.00000000000E+00 0.  1.
         21   -1    0    0  501  502 -0.00000000000E+00 -0.00000000000E+00 -0.73018472852E+03  0.73018472852E+03  0.00000000000E+00 0.  1.
      99926    2    1    2    0    0  0.00000000000E+00 -0.14210854715E-13 -0.65197083990E+03  0.80839861715E+03  0.47795642911E+03 0.  0.
      99925    2    3    3    0    0  0.90087739536E+02  0.98225670118E+02 -0.41572671461E+03  0.50969662867E+03  0.26305487823E+03 0.  0.
         25    1    4    4    0    0  0.29068926255E+02  0.86478561720E+02 -0.23167047705E+03  0.27864361135E+03  0.12509000000E+03 0.  0.
         25    1    3    3    0    0 -0.90087739536E+02 -0.98225670118E+02 -0.23624412529E+03  0.29870198847E+03  0.12509000000E+03 0.  0.
         25    1    4    4    0    0  0.61018813280E+02  0.11747108398E+02 -0.18405623756E+03  0.23105301732E+03  0.12509000000E+03 0.  0.
<mgrwt>
<rscale>  2 0.47795643E+03</rscale>
<asrwt>0</asrwt>
<pdfrwt beam="1">  1       21 0.11502042E-01 0.47795643E+03</pdfrwt>
<pdfrwt beam="2">  1       21 0.10738011E+00 0.47795643E+03</pdfrwt>
<totfact> 0.39709646E+04</totfact>
</mgrwt>
</event>
<event>
 7    0  0.4788920E-002  0.4596912E+03  0.7546771E-02  0.1024871E+00
         21   -1    0    0  502  501  0.00000000000E+00  0.00000000000E+00  0.11209236007E+03  0.11209236007E+03  0.00000000000E+00 0.  1.
         21   -1    0    0  501  502 -0.00000000000E+00 -0.00000000000E+00 -0.47129878359E+03  0.47129878359E+03  0.00000000000E+00 0.  1.
      99926    2    1    2    0    0  0.00000000000E+00  0.35527136788E-14 -0.35920642353E+03  0.58339114366E+03  0.45969117003E+03 0.  0.
      99925    2    3    3    0    0 -0.11461719194E+03  0.26278068675E+02 -0.23001988957E+03  0.36853233831E+03  0.26282940703E+03 0.  0.
         25    1    3    3    0    0  0.11461719194E+03 -0.26278068675E+02 -0.12918653396E+03  0.21485880535E+03  0.12509000000E+03 0.  0.
         25    1    4    4    0    0 -0.93415754239E+02  0.33635797964E+02 -0.14429336100E+03  0.21523464446E+03  0.12509000000E+03 0.  0.
         25    1    4    4    0    0 -0.21201437698E+02 -0.73577292882E+01 -0.85726528565E+02  0.15329769385E+03  0.12509000000E+03 0.  0.
<mgrwt>
<rscale>  2 0.45969117E+03</rscale>
<asrwt>0</asrwt>
<pdfrwt beam="1">  1       21 0.16484170E-01 0.45969117E+03</pdfrwt>
<pdfrwt beam="2">  1       21 0.69308645E-01 0.45969117E+03</pdfrwt>
<totfact> 0.57548396E+04</totfact>
</mgrwt>
</event>
<event>
 7    0  0.4788920E-002  0.4330742E+03  0.7546771E-02  0.1032893E+00
         21   -1    0    0  502  501  0.00000000000E+00  0.00000000000E+00  0.22077068687E+03  0.22077068687E+03  0.00000000000E+00 0.  1.
         21   -1    0    0  501  502 -0.00000000000E+00 -0.00000000000E+00 -0.21238474572E+03  0.21238474572E+03  0.00000000000E+00 0.  1.
      99926    2    1    2    0    0  0.00000000000E+00  0.00000000000E+00  0.83859411501E+01  0.43315543258E+03  0.43307424856E+03 0.  0.
      99925    2    3    3    0    0  0.29520378463E+02 -0.54347230180E+02  0.72210081382E+02  0.27970803720E+03  0.26305363721E+03 0.  0.
         25    1    4    4    0    0  0.31178370689E+02 -0.61370572798E+02  0.55988080060E+02  0.15336430880E+03  0.12509000000E+03 0.  0.
         25    1    3    3    0    0 -0.29520378463E+02  0.54347230180E+02 -0.63824140232E+02  0.15344739538E+03  0.12509000000E+03 0.  0.
         25    1    4    4    0    0 -0.16579922257E+01  0.70233426180E+01  0.16222001322E+02  0.12634372840E+03  0.12509000000E+03 0.  0.
<mgrwt>
<rscale>  2 0.43307425E+03</rscale>
<asrwt>0</asrwt>
<pdfrwt beam="1">  1       21 0.32466277E-01 0.43307425E+03</pdfrwt>
<pdfrwt beam="2">  1       21 0.31233051E-01 0.43307425E+03</pdfrwt>
<totfact> 0.83925775E+04</totfact>
</mgrwt>
</event>
<event>
 7    0  0.4788920E-002  0.4505370E+03  0.7546771E-02  0.1027562E+00
         21   -1    0    0  502  501  0.00000000000E+00  0.00000000000E+00  0.37298036564E+03  0.37298036564E+03  0.00000000000E+00 0.  1.
         21   -1    0    0  501  502 -0.00000000000E+00 -0.00000000000E+00 -0.13605516625E+03  0.13605516625E+03  0.00000000000E+00 0.  1.
      99926    2    1    2    0    0  0.00000000000E+00  0.00000000000E+00  0.23692519939E+03  0.50903553190E+03  0.45053703802E+03 0.  0.
      99925    2    3    3    0    0 -0.96703144591E+02  0.46253549799E+02  0.12708646540E+03  0.31103819700E+03  0.26287430696E+03 0.  0.
         25    1    3    3    0    0  0.96703144591E+02 -0.46253549799E+02  0.10983873399E+03  0.19799733490E+03  0.12509000000E+03 0.  0.
         25    1    4    4    0    0 -0.70145318210E+02 -0.10866406109E+02  0.65620871420E+02  0.15808874506E+03  0.12509000000E+03 0.  0.
         25    1    4    4    0    0 -0.26557826381E+02  0.57119955908E+02  0.61465593978E+02  0.15294945194E+03  0.12509000000E+03 0.  0.
<mgrwt>
<rscale>  2 0.45053704E+03</rscale>
<asrwt>0</asrwt>
<pdfrwt beam="1">  1       21 0.54850054E-01 0.45053704E+03</pdfrwt>
<pdfrwt beam="2">  1       21 0.20008113E-01 0.45053704E+03</pdfrwt>
<totfact> 0.66981513E+04</totfact>
</mgrwt>
</event>
<event>
 6    0  0.4788920E-002  0.4665344E+03  0.7546771E-02  0.1022903E+00
         21   -1    0    0  502  501  0.00000000000E+00  0.00000000000E+00  0.22042480124E+03  0.22042480124E+03  0.00000000000E+00 0. -1.
         21   -1    0    0  501  502 -0.00000000000E+00 -0.00000000000E+00 -0.24685778520E+03  0.24685778520E+03  0.00000000000E+00 0. -1.
      99926    2    1    2    0    0  0.00000000000E+00  0.00000000000E+00 -0.26432983960E+02  0.46728258644E+03  0.46653436417E+03 0.  0.
         25    1    3    3    0    0 -0.16923524092E+02  0.46956488009E+02  0.44069413125E+02  0.14170722885E+03  0.12509000000E+03 0.  0.
         25    1    3    3    0    0 -0.61998497667E+02  0.38955374181E+02 -0.14852244812E+02  0.14570323321E+03  0.12509000000E+03 0.  0.
         25    1    3    3    0    0  0.78922021759E+02 -0.85911862190E+02 -0.55650152272E+02  0.17987212439E+03  0.12509000000E+03 0.  0.
<mgrwt>
<rscale>  2 0.46653436E+03</rscale>
<asrwt>0</asrwt>
<pdfrwt beam="1">  1       21 0.32415412E-01 0.46653436E+03</pdfrwt>
<pdfrwt beam="2">  1       21 0.36302615E-01 0.46653436E+03</pdfrwt>
<totfact> 0.61771571E+04</totfact>
</mgrwt>
</event>
<event>
 7    0  0.4788920E-002  0.4518169E+03  0.7546771E-02  0.1027182E+00
         21   -1    0    0  502  501  0.00000000000E+00  0.00000000000E+00  0.94577468819E+03  0.94577468819E+03  0.00000000000E+00 0.  1.
         21   -1    0    0  501  502 -0.00000000000E+00 -0.00000000000E+00 -0.53960654589E+02  0.53960654589E+02  0.00000000000E+00 0.  1.
      99926    2    1    2    0    0  0.00000000000E+00  0.00000000000E+00  0.89181403361E+03  0.99973534278E+03  0.45181687117E+03 0.  0.
      99925    2    3    3    0    0 -0.66392197891E+02 -0.84244858619E+02  0.61686178389E+03  0.67918680065E+03  0.26319409112E+03 0.  0.
         25    1    4    4    0    0 -0.68396813288E+02 -0.68133430598E+02  0.33605647393E+03  0.37135124909E+03  0.12509000000E+03 0.  0.
         25    1    4    4    0    0  0.20046153976E+01 -0.16111428020E+02  0.28080530997E+03  0.30783555156E+03  0.12509000000E+03 0.  0.
         25    1    3    3    0    0  0.66392197891E+02  0.84244858619E+02  0.27495224971E+03  0.32054854214E+03  0.12509000000E+03 0.  0.
<mgrwt>
<rscale>  2 0.45181687E+03</rscale>
<asrwt>0</asrwt>
<pdfrwt beam="1">  1       21 0.13908450E+00 0.45181687E+03</pdfrwt>
<pdfrwt beam="2">  1       21 0.79353909E-02 0.45181687E+03</pdfrwt>
<totfact> 0.40166359E+04</totfact>
</mgrwt>
</event>
<event>
 7    0  0.4788920E-002  0.4599753E+03  0.7546771E-02  0.1024788E+00
         21   -1    0    0  502  501  0.00000000000E+00  0.00000000000E+00  0.11698928638E+03  0.11698928638E+03  0.00000000000E+00 0.  1.
         21   -1    0    0  501  502 -0.00000000000E+00 -0.00000000000E+00 -0.45212954352E+03  0.45212954352E+03  0.00000000000E+00 0.  1.
      99926    2    1    2    0    0  0.00000000000E+00  0.00000000000E+00 -0.33514025714E+03  0.56911882990E+03  0.45997527172E+03 0.  0.
      99925    2    3    3    0    0  0.21111557531E+02  0.10532161905E+02 -0.67210821396E+02  0.27248721504E+03  0.26301209773E+03 0.  0.
         25    1    4    4    0    0  0.23686924950E+02 -0.91953474495E+01  0.29749339465E+01  0.12767921977E+03  0.12509000000E+03 0.  0.
         25    1    3    3    0    0 -0.21111557531E+02 -0.10532161905E+02 -0.26792943575E+03  0.29663161486E+03  0.12509000000E+03 0.  0.
         25    1    4    4    0    0 -0.25753674193E+01  0.19727509355E+02 -0.70185755342E+02  0.14480799528E+03  0.12509000000E+03 0.  0.
<mgrwt>
<rscale>  2 0.45997527E+03</rscale>
<asrwt>0</asrwt>
<pdfrwt beam="1">  1       21 0.17204307E-01 0.45997527E+03</pdfrwt>
<pdfrwt beam="2">  1       21 0.66489639E-01 0.45997527E+03</pdfrwt>
<totfact> 0.58292907E+04</totfact>
</mgrwt>
</event>
<event>
 7    0  0.4788920E-002  0.4557657E+03  0.7546771E-02  0.1026016E+00
         21   -1    0    0  502  501  0.00000000000E+00  0.00000000000E+00  0.16566570486E+04  0.16566570486E+04  0.00000000000E+00 0.  1.
         21   -1    0    0  501  502 -0.00000000000E+00 -0.00000000000E+00 -0.31346622359E+02  0.31346622359E+02  0.00000000000E+00 0.  1.
      99926    2    1    2    0    0  0.00000000000E+00 -0.35527136788E-14  0.16253104262E+04  0.16880036710E+04  0.45576574193E+03 0.  0.
      99925    2    3    3    0    0  0.10399393149E+03  0.31781135782E+02  0.90861550801E+03  0.95239243376E+03  0.26390230787E+03 0.  0.
         25    1    3    3    0    0 -0.10399393149E+03 -0.31781135782E+02  0.71669491822E+03  0.73561123719E+03  0.12509000000E+03 0.  0.
         25    1    4    4    0    0  0.95291468958E+02  0.17767820120E+02  0.46554923096E+03  0.49171104730E+03  0.12509000000E+03 0.  0.
         25    1    4    4    0    0  0.87024625356E+01  0.14013315662E+02  0.44306627705E+03  0.46068138646E+03  0.12509000000E+03 0.  0.
<mgrwt>
<rscale>  2 0.45576574E+03</rscale>
<asrwt>0</asrwt>
<pdfrwt beam="1">  1       21 0.24362598E+00 0.45576574E+03</pdfrwt>
<pdfrwt beam="2">  1       21 0.46097985E-02 0.45576574E+03</pdfrwt>
<totfact> 0.19396757E+04</totfact>
</mgrwt>
</event>
<event>
 7    0  0.4788920E-002  0.4531119E+03  0.7546771E-02  0.1026798E+00
         21   -1    0    0  502  501  0.00000000000E+00  0.00000000000E+00  0.75292814932E+03  0.75292814932E+03  0.00000000000E+00 0.  1.
         21   -1    0    0  501  502 -0.00000000000E+00 -0.00000000000E+00 -0.68170647556E+02  0.68170647556E+02  0.00000000000E+00 0.  1.
      99926    2    1    2    0    0  0.00000000000E+00  0.14210854715E-13  0.68475750176E+03  0.82109879687E+03  0.45311190451E+03 0.  0.
      99925    2    3    3    0    0  0.88065123014E+02  0.67276279894E+02  0.39598639553E+03  0.48745553885E+03  0.26177492849E+03 0.  0.
         25    1    4    4    0    0  0.39489412568E+02  0.70746234954E+02  0.22861061590E+03  0.27290065091E+03  0.12509000000E+03 0.  0.
         25    1    3    3    0    0 -0.88065123014E+02 -0.67276279894E+02  0.28877110623E+03  0.33364325802E+03  0.12509000000E+03 0.  0.
         25    1    4    4    0    0  0.48575710446E+02 -0.34699550597E+01  0.16737577963E+03  0.21455488794E+03  0.12509000000E+03 0.  0.
<mgrwt>
<rscale>  2 0.45311190E+03</rscale>
<asrwt>0</asrwt>
<pdfrwt beam="1">  1       21 0.11072472E+00 0.45311190E+03</pdfrwt>
<pdfrwt beam="2">  1       21 0.10025096E-01 0.45311190E+03</pdfrwt>
<totfact> 0.47460402E+04</totfact>
</mgrwt>
</event>
<event>
 7    0  0.4788920E-002  0.4147480E+03  0.7546771E-02  0.1038789E+00
         21   -1    0    0  502  501  0.00000000000E+00  0.00000000000E+00  0.99161682073E+02  0.99161682073E+02  0.00000000000E+00 0. -1.
         21   -1    0    0  501  502 -0.00000000000E+00 -0.00000000000E+00 -0.43367530607E+03  0.43367530607E+03  0.00000000000E+00 0. -1.
      99926    2    1    2    0    0  0.71054273576E-14  0.71054273576E-14 -0.33451362400E+03  0.53283698815E+03  0.41474798528E+03 0.  0.
      99925    2    3    3    0    0 -0.48232549506E+02 -0.34115080771E+02 -0.17304350482E+03  0.32020979079E+03  0.26286886082E+03 0.  0.
         25    1    3    3    0    0  0.48232549506E+02  0.34115080771E+02 -0.16147011919E+03  0.21262719736E+03  0.12509000000E+03 0.  0.
         25    1    4    4    0    0 -0.59879120666E+01  0.19829962365E+02 -0.82527032504E+02  0.15128549730E+03  0.12509000000E+03 0.  0.
         25    1    4    4    0    0 -0.42244637439E+02 -0.53945043136E+02 -0.90516472312E+02  0.16892429349E+03  0.12509000000E+03 0.  0.
<mgrwt>
<rscale>  2 0.41474799E+03</rscale>
<asrwt>0</asrwt>
<pdfrwt beam="1">  1       21 0.14582600E-01 0.41474799E+03</pdfrwt>
<pdfrwt beam="2">  1       21 0.63775782E-01 0.41474799E+03</pdfrwt>
<totfact> 0.87828271E+04</totfact>
</mgrwt>
</event>
<event>
 7    0  0.4788920E-002  0.4575809E+03  0.7546771E-02  0.1025485E+00
         21   -1    0    0  502  501  0.00000000000E+00  0.00000000000E+00  0.29280810949E+03  0.29280810949E+03  0.00000000000E+00 0.  1.
         21   -1    0    0  501  502 -0.00000000000E+00 -0.00000000000E+00 -0.17876920878E+03  0.17876920878E+03  0.00000000000E+00 0.  1.
      99926    2    1    2    0    0 -0.35527136788E-14  0.71054273576E-14  0.11403890070E+03  0.47157731827E+03  0.45758091769E+03 0.  0.
      99925    2    3    3    0    0  0.30987384499E+02 -0.63769898945E+02 -0.22646899823E+02  0.27319048863E+03  0.26285612604E+03 0.  0.
         25    1    4    4    0    0 -0.20661722172E+01 -0.36667283936E+02 -0.47366068167E+02  0.13870764684E+03  0.12509000000E+03 0.  0.
         25    1    4    4    0    0  0.33053556716E+02 -0.27102615009E+02  0.24719168345E+02  0.13448284179E+03  0.12509000000E+03 0.  0.
         25    1    3    3    0    0 -0.30987384499E+02  0.63769898945E+02  0.13668580052E+03  0.19838682964E+03  0.12509000000E+03 0.  0.
<mgrwt>
<rscale>  2 0.45758092E+03</rscale>
<asrwt>0</asrwt>
<pdfrwt beam="1">  1       21 0.43060016E-01 0.45758092E+03</pdfrwt>
<pdfrwt beam="2">  1       21 0.26289589E-01 0.45758092E+03</pdfrwt>
<totfact> 0.65957787E+04</totfact>
</mgrwt>
</event>
<event>
 7    0  0.4788920E-002  0.4416223E+03  0.7546771E-02  0.1030250E+00
         21   -1    0    0  502  501  0.00000000000E+00  0.00000000000E+00  0.48614051031E+03  0.48614051031E+03  0.00000000000E+00 0. -1.
         21   -1    0    0  501  502 -0.00000000000E+00 -0.00000000000E+00 -0.10029518784E+03  0.10029518784E+03  0.00000000000E+00 0. -1.
      99926    2    1    2    0    0  0.00000000000E+00  0.00000000000E+00  0.38584532247E+03  0.58643569815E+03  0.44162225396E+03 0.  0.
      99925    2    3    3    0    0  0.12010049591E+01  0.90291282902E+02  0.18873197260E+03  0.33612561250E+03  0.26307168550E+03 0.  0.
         25    1    4    4    0    0 -0.16099821500E+01  0.84901932378E+02  0.12164423214E+03  0.19405091465E+03  0.12509000000E+03 0.  0.
         25    1    4    4    0    0  0.28109871091E+01  0.53893505239E+01  0.67087740454E+02  0.14207469784E+03  0.12509000000E+03 0.  0.
         25    1    3    3    0    0 -0.12010049591E+01 -0.90291282902E+02  0.19711334987E+03  0.25031008565E+03  0.12509000000E+03 0.  0.
<mgrwt>
<rscale>  2 0.44162225E+03</rscale>
<asrwt>0</asrwt>
<pdfrwt beam="1">  1       21 0.71491251E-01 0.44162225E+03</pdfrwt>
<pdfrwt beam="2">  1       21 0.14749292E-01 0.44162225E+03</pdfrwt>
<totfact> 0.66253451E+04</totfact>
</mgrwt>
</event>
<event>
 7    0  0.4788920E-002  0.4603300E+03  0.7546771E-02  0.1024686E+00
         21   -1    0    0  502  501  0.00000000000E+00  0.00000000000E+00  0.42814807479E+02  0.42814807479E+02  0.00000000000E+00 0.  1.
         21   -1    0    0  501  502 -0.00000000000E+00 -0.00000000000E+00 -0.12373270610E+04  0.12373270610E+04  0.00000000000E+00 0.  1.
      99926    2    1    2    0    0  0.17763568394E-14  0.00000000000E+00 -0.11945122535E+04  0.12801418685E+04  0.46032996820E+03 0.  0.
      99925    2    3    3    0    0  0.14738271657E+02  0.95333209680E+02 -0.93741526174E+03  0.97839361447E+03  0.26306093279E+03 0.  0.
         25    1    4    4    0    0 -0.47578239721E+01  0.33013170843E+02 -0.57688418982E+03  0.59123208887E+03  0.12509000000E+03 0.  0.
         25    1    3    3    0    0 -0.14738271657E+02 -0.95333209680E+02 -0.25709699179E+03  0.30174825403E+03  0.12509000000E+03 0.  0.
         25    1    4    4    0    0  0.19496095629E+02  0.62320038837E+02 -0.36053107192E+03  0.38716152560E+03  0.12509000000E+03 0.  0.
<mgrwt>
<rscale>  2 0.46032997E+03</rscale>
<asrwt>0</asrwt>
<pdfrwt beam="1">  1       21 0.62962956E-02 0.46032997E+03</pdfrwt>
<pdfrwt beam="2">  1       21 0.18195985E+00 0.46032997E+03</pdfrwt>
<totfact> 0.28496504E+04</totfact>
</mgrwt>
</event>
<event>
 7    0  0.4788920E-002  0.4512560E+03  0.7546771E-02  0.1027348E+00
         21   -1    0    0  502  501  0.00000000000E+00  0.00000000000E+00  0.55242962961E+02  0.55242962961E+02  0.00000000000E+00 0. -1.
         21   -1    0    0  501  502 -0.00000000000E+00 -0.00000000000E+00 -0.92152919735E+03  0.92152919735E+03  0.00000000000E+00 0. -1.
      99926    2    1    2    0    0  0.00000000000E+00  0.00000000000E+00 -0.86628623439E+03  0.97677216031E+03  0.45125603959E+03 0.  0.
      99925    2    3    3    0    0 -0.31134034575E+02 -0.77803596898E+02 -0.69993347297E+03  0.75239863885E+03  0.26300972865E+03 0.  0.
         25    1    3    3    0    0  0.31134034575E+02  0.77803596898E+02 -0.16635276142E+03  0.22437352145E+03  0.12509000000E+03 0.  0.
         25    1    4    4    0    0  0.96384748329E+01 -0.28038717875E+02 -0.41800840137E+03  0.43733008313E+03  0.12509000000E+03 0.  0.
         25    1    4    4    0    0 -0.40772509408E+02 -0.49764879023E+02 -0.28192507160E+03  0.31506855572E+03  0.12509000000E+03 0.  0.
<mgrwt>
<rscale>  2 0.45125604E+03</rscale>
<asrwt>0</asrwt>
<pdfrwt beam="1">  1       21 0.81239657E-02 0.45125604E+03</pdfrwt>
<pdfrwt beam="2">  1       21 0.13551899E+00 0.45125604E+03</pdfrwt>
<totfact> 0.41269942E+04</totfact>
</mgrwt>
</event>
<event>
 7    0  0.4788920E-002  0.4492311E+03  0.7546771E-02  0.1027952E+00
         21   -1    0    0  502  501  0.00000000000E+00  0.00000000000E+00  0.59554203836E+02  0.59554203836E+02  0.00000000000E+00 0. -1.
         21   -1    0    0  501  502 -0.00000000000E+00 -0.00000000000E+00 -0.84716346296E+03  0.84716346296E+03  0.00000000000E+00 0. -1.
      99926    2    1    2    0    0  0.35527136788E-14  0.00000000000E+00 -0.78760925913E+03  0.90671766680E+03  0.44923110113E+03 0.  0.
      99925    2    3    3    0    0  0.18386211400E+02 -0.44333803070E+01 -0.71212162684E+03  0.75939625505E+03  0.26307366486E+03 0.  0.
         25    1    4    4    0    0  0.36880937379E+02  0.23202341884E+02 -0.40508796361E+03  0.42619516488E+03  0.12509000000E+03 0.  0.
         25    1    3    3    0    0 -0.18386211400E+02  0.44333803070E+01 -0.75487632283E+02  0.14732141174E+03  0.12509000000E+03 0.  0.
         25    1    4    4    0    0 -0.18494725979E+02 -0.27635722191E+02 -0.30703366324E+03  0.33320109017E+03  0.12509000000E+03 0.  0.
<mgrwt>
<rscale>  2 0.44923110E+03</rscale>
<asrwt>0</asrwt>
<pdfrwt beam="1">  1       21 0.87579711E-02 0.44923110E+03</pdfrwt>
<pdfrwt beam="2">  1       21 0.12458286E+00 0.44923110E+03</pdfrwt>
<totfact> 0.44939278E+04</totfact>
</mgrwt>
</event>
<event>
 7    0  0.4788920E-002  0.4375359E+03  0.7546771E-02  0.1031506E+00
         21   -1    0    0  502  501  0.00000000000E+00  0.00000000000E+00  0.13939792602E+03  0.13939792602E+03  0.00000000000E+00 0.  1.
         21   -1    0    0  501  502 -0.00000000000E+00 -0.00000000000E+00 -0.34332944196E+03  0.34332944196E+03  0.00000000000E+00 0.  1.
      99926    2    1    2    0    0  0.44408920985E-14  0.00000000000E+00 -0.20393151594E+03  0.48272736798E+03  0.43753588264E+03 0.  0.
      99925    2    3    3    0    0 -0.57619031100E+01 -0.80245522251E+02 -0.72712397201E+02  0.28438799067E+03  0.26290091890E+03 0.  0.
         25    1    3    3    0    0  0.57619031100E+01  0.80245522251E+02 -0.13121911874E+03  0.19833937731E+03  0.12509000000E+03 0.  0.
         25    1    4    4    0    0  0.36307042340E+02 -0.49682844505E+02 -0.33861552503E+02  0.14345974766E+03  0.12509000000E+03 0.  0.
         25    1    4    4    0    0 -0.42068945450E+02 -0.30562677746E+02 -0.38850844698E+02  0.14092824300E+03  0.12509000000E+03 0.  0.
<mgrwt>
<rscale>  2 0.43753588E+03</rscale>
<asrwt>0</asrwt>
<pdfrwt beam="1">  1       21 0.20499695E-01 0.43753588E+03</pdfrwt>
<pdfrwt beam="2">  1       21 0.50489624E-01 0.43753588E+03</pdfrwt>
<totfact> 0.76581138E+04</totfact>
</mgrwt>
</event>
<event>
 7    0  0.4788920E-002  0.4669193E+03  0.7546771E-02  0.1022793E+00
         21   -1    0    0  502  501  0.00000000000E+00  0.00000000000E+00  0.14571326308E+03  0.14571326308E+03  0.00000000000E+00 0. -1.
         21   -1    0    0  501  502 -0.00000000000E+00 -0.00000000000E+00 -0.37404570107E+03  0.37404570107E+03  0.00000000000E+00 0. -1.
      99926    2    1    2    0    0  0.00000000000E+00  0.00000000000E+00 -0.22833243799E+03  0.51975896416E+03  0.46691934912E+03 0.  0.
      99925    2    3    3    0    0 -0.44523273241E+02  0.85919288738E+02 -0.22842114127E+03  0.36160725849E+03  0.26309531652E+03 0.  0.
         25    1    4    4    0    0 -0.44776145679E+02  0.76115472207E+02 -0.10542941909E+03  0.18590680149E+03  0.12509000000E+03 0.  0.
         25    1    4    4    0    0  0.25287243814E+00  0.98038165312E+01 -0.12299172218E+03  0.17570045699E+03  0.12509000000E+03 0.  0.
         25    1    3    3    0    0  0.44523273241E+02 -0.85919288738E+02  0.88703286974E-01  0.15815170567E+03  0.12509000000E+03 0.  0.
<mgrwt>
<rscale>  2 0.46691935E+03</rscale>
<asrwt>0</asrwt>
<pdfrwt beam="1">  1       21 0.21428422E-01 0.46691935E+03</pdfrwt>
<pdfrwt beam="2">  1       21 0.55006719E-01 0.46691935E+03</pdfrwt>
<totfact> 0.58200741E+04</totfact>
</mgrwt>
</event>
<event>
 7    0  0.4788920E-002  0.4505458E+03  0.7546771E-02  0.1027559E+00
         21   -1    0    0  502  501  0.00000000000E+00  0.00000000000E+00  0.10518585645E+03  0.10518585645E+03  0.00000000000E+00 0.  1.
         21   -1    0    0  501  502 -0.00000000000E+00 -0.00000000000E+00 -0.48245916279E+03  0.48245916279E+03  0.00000000000E+00 0.  1.
      99926    2    1    2    0    0  0.00000000000E+00  0.44408920985E-15 -0.37727330634E+03  0.58764501924E+03  0.45054580340E+03 0.  0.
      99925    2    3    3    0    0  0.11168422264E+02 -0.12540388634E+01 -0.37973145425E+03  0.46202711900E+03  0.26295774390E+03 0.  0.
         25    1    4    4    0    0 -0.23289299138E+02  0.10123737110E+02 -0.14186060814E+03  0.19083192015E+03  0.12509000000E+03 0.  0.
         25    1    4    4    0    0  0.34457721402E+02 -0.11377775973E+02 -0.23787084610E+03  0.27119519884E+03  0.12509000000E+03 0.  0.
         25    1    3    3    0    0 -0.11168422264E+02  0.12540388634E+01  0.24581479044E+01  0.12561790024E+03  0.12509000000E+03 0.  0.
<mgrwt>
<rscale>  2 0.45054580E+03</rscale>
<asrwt>0</asrwt>
<pdfrwt beam="1">  1       21 0.15468508E-01 0.45054580E+03</pdfrwt>
<pdfrwt beam="2">  1       21 0.70949877E-01 0.45054580E+03</pdfrwt>
<totfact> 0.61584927E+04</totfact>
</mgrwt>
</event>
<event>
 7    0  0.4788920E-002  0.4566356E+03  0.7546771E-02  0.1025762E+00
         21   -1    0    0  502  501  0.00000000000E+00  0.00000000000E+00  0.36095770879E+02  0.36095770879E+02  0.00000000000E+00 0. -1.
         21   -1    0    0  501  502 -0.00000000000E+00 -0.00000000000E+00 -0.14441863972E+04  0.14441863972E+04  0.00000000000E+00 0. -1.
      99926    2    1    2    0    0  0.00000000000E+00  0.00000000000E+00 -0.14080906264E+04  0.14802821681E+04  0.45663561535E+03 0.  0.
      99925    2    3    3    0    0  0.23094018082E+02 -0.11082953738E+03 -0.94390731643E+03  0.98638929173E+03  0.26303287401E+03 0.  0.
         25    1    3    3    0    0 -0.23094018082E+02  0.11082953738E+03 -0.46418330993E+03  0.49389287639E+03  0.12509000000E+03 0.  0.
         25    1    4    4    0    0  0.38609913956E+02 -0.86913345153E+02 -0.55877046977E+03  0.58044517485E+03  0.12509000000E+03 0.  0.
         25    1    4    4    0    0 -0.15515895874E+02 -0.23916192222E+02 -0.38513684666E+03  0.40594411688E+03  0.12509000000E+03 0.  0.
<mgrwt>
<rscale>  2 0.45663562E+03</rscale>
<asrwt>0</asrwt>
<pdfrwt beam="1">  1       21 0.53082024E-02 0.45663562E+03</pdfrwt>
<pdfrwt beam="2">  1       21 0.21238032E+00 0.45663562E+03</pdfrwt>
<totfact> 0.23960672E+04</totfact>
</mgrwt>
</event>
<event>
 7    0  0.4788920E-002  0.4389205E+03  0.7546771E-02  0.1031079E+00
         21   -1    0    0  502  501  0.00000000000E+00  0.00000000000E+00  0.20131140021E+03  0.20131140021E+03  0.00000000000E+00 0.  1.
         21   -1    0    0  501  502 -0.00000000000E+00 -0.00000000000E+00 -0.23924530524E+03  0.23924530524E+03  0.00000000000E+00 0.  1.
      99926    2    1    2    0    0  0.00000000000E+00  0.00000000000E+00 -0.37933905031E+02  0.44055670545E+03  0.43892052762E+03 0.  0.
      99925    2    3    3    0    0 -0.56980744539E+01 -0.97004995614E+02 -0.34294579625E+02  0.28211684299E+03  0.26262398535E+03 0.  0.
         25    1    4    4    0    0  0.29738917468E+02 -0.60183644815E+02 -0.37920432033E+02  0.14694196671E+03  0.12509000000E+03 0.  0.
         25    1    4    4    0    0 -0.35436991921E+02 -0.36821350799E+02  0.36258524080E+01  0.13517487628E+03  0.12509000000E+03 0.  0.
         25    1    3    3    0    0  0.56980744539E+01  0.97004995614E+02 -0.36393254053E+01  0.15843986246E+03  0.12509000000E+03 0.  0.
<mgrwt>
<rscale>  2 0.43892053E+03</rscale>
<asrwt>0</asrwt>
<pdfrwt beam="1">  1       21 0.29604618E-01 0.43892053E+03</pdfrwt>
<pdfrwt beam="2">  1       21 0.35183133E-01 0.43892053E+03</pdfrwt>
<totfact> 0.79314555E+04</totfact>
</mgrwt>
</event>
<event>
 7    0  0.4788920E-002  0.4558516E+03  0.7546771E-02  0.1025991E+00
         21   -1    0    0  502  501  0.00000000000E+00  0.00000000000E+00  0.82071208373E+02  0.82071208373E+02  0.00000000000E+00 0.  1.
         21   -1    0    0  501  502 -0.00000000000E+00 -0.00000000000E+00 -0.63298910261E+03  0.63298910261E+03  0.00000000000E+00 0.  1.
      99926    2    1    2    0    0  0.00000000000E+00 -0.88817841970E-15 -0.55091789423E+03  0.71506031098E+03  0.45585164489E+03 0.  0.
      99925    2    3    3    0    0  0.10020643692E+03 -0.20012982712E+01 -0.43158448118E+03  0.51522711362E+03  0.26296098383E+03 0.  0.
         25    1    4    4    0    0  0.91512580162E+02 -0.65461158935E+01 -0.21902925438E+03  0.26840030986E+03  0.12509000000E+03 0.  0.
         25    1    3    3    0    0 -0.10020643692E+03  0.20012982712E+01 -0.11933341306E+03  0.19983319736E+03  0.12509000000E+03 0.  0.
         25    1    4    4    0    0  0.86938567619E+01  0.45448176223E+01 -0.21255522680E+03  0.24682680376E+03  0.12509000000E+03 0.  0.
<mgrwt>
<rscale>  2 0.45585164E+03</rscale>
<asrwt>0</asrwt>
<pdfrwt beam="1">  1       21 0.12069295E-01 0.45585164E+03</pdfrwt>
<pdfrwt beam="2">  1       21 0.93086634E-01 0.45585164E+03</pdfrwt>
<totfact> 0.51745380E+04</totfact>
</mgrwt>
</event>
<event>
 7    0  0.4788920E-002  0.4227602E+03  0.7546771E-02  0.1036172E+00
         21   -1    0    0  502  501  0.00000000000E+00  0.00000000000E+00  0.65480299095E+02  0.65480299095E+02  0.00000000000E+00 0. -1.
         21   -1    0    0  501  502 -0.00000000000E+00 -0.00000000000E+00 -0.68236640979E+03  0.68236640979E+03  0.00000000000E+00 0. -1.
      99926    2    1    2    0    0  0.71054273576E-14  0.35527136788E-14 -0.61688611070E+03  0.74784670889E+03  0.42276024698E+03 0.  0.
      99925    2    3    3    0    0 -0.44044151562E+02 -0.26094087930E+02 -0.50783867541E+03  0.57418139872E+03  0.26298929577E+03 0.  0.
         25    1    4    4    0    0 -0.26398780129E+02  0.26879473180E+02 -0.23434250184E+03  0.26829707031E+03  0.12509000000E+03 0.  0.
         25    1    4    4    0    0 -0.17645371433E+02 -0.52973561109E+02 -0.27349617357E+03  0.30588432841E+03  0.12509000000E+03 0.  0.
         25    1    3    3    0    0  0.44044151562E+02  0.26094087930E+02 -0.10904743529E+03  0.17366531017E+03  0.12509000000E+03 0.  0.
<mgrwt>
<rscale>  2 0.42276025E+03</rscale>
<asrwt>0</asrwt>
<pdfrwt beam="1">  1       21 0.96294556E-02 0.42276025E+03</pdfrwt>
<pdfrwt beam="2">  1       21 0.10034800E+00 0.42276025E+03</pdfrwt>
<totfact> 0.65454288E+04</totfact>
</mgrwt>
</event>
<event>
 7    0  0.4788920E-002  0.4532143E+03  0.7546771E-02  0.1026768E+00
         21   -1    0    0  502  501  0.00000000000E+00  0.00000000000E+00  0.32761892654E+03  0.32761892654E+03  0.00000000000E+00 0.  1.
         21   -1    0    0  501  502 -0.00000000000E+00 -0.00000000000E+00 -0.15673940016E+03  0.15673940016E+03  0.00000000000E+00 0.  1.
      99926    2    1    2    0    0  0.88817841970E-15  0.00000000000E+00  0.17087952638E+03  0.48435832670E+03  0.45321427174E+03 0.  0.
      99925    2    3    3    0    0 -0.69007002257E+01  0.66101933583E+01  0.22639099022E+03  0.34717106403E+03  0.26302766571E+03 0.  0.
         25    1    4    4    0    0 -0.16885698628E+02  0.73930666216E+01  0.16383774392E+03  0.20695433961E+03  0.12509000000E+03 0.  0.
         25    1    4    4    0    0  0.99849984027E+01 -0.78287326334E+00  0.62553246306E+02  0.14021672442E+03  0.12509000000E+03 0.  0.
         25    1    3    3    0    0  0.69007002257E+01 -0.66101933583E+01 -0.55511463846E+02  0.13718726267E+03  0.12509000000E+03 0.  0.
<mgrwt>
<rscale>  2 0.45321427E+03</rscale>
<asrwt>0</asrwt>
<pdfrwt beam="1">  1       21 0.48179254E-01 0.45321427E+03</pdfrwt>
<pdfrwt beam="2">  1       21 0.23049912E-01 0.45321427E+03</pdfrwt>
<totfact> 0.67333653E+04</totfact>
</mgrwt>
</event>
<event>
 7    0  0.4788920E-002  0.4476770E+03  0.7546771E-02  0.1028417E+00
         21   -1    0    0  502  501  0.00000000000E+00  0.00000000000E+00  0.13411108645E+03  0.13411108645E+03  0.00000000000E+00 0.  1.
         21   -1    0    0  501  502 -0.00000000000E+00 -0.00000000000E+00 -0.37359830397E+03  0.37359830397E+03  0.00000000000E+00 0.  1.
      99926    2    1    2    0    0  0.00000000000E+00  0.00000000000E+00 -0.23948721752E+03  0.50770939041E+03  0.44767700160E+03 0.  0.
      99925    2    3    3    0    0 -0.98787547613E+02 -0.38161795207E+02 -0.14328427459E+03  0.31766251066E+03  0.26299008566E+03 0.  0.
         25    1    4    4    0    0 -0.69107691978E+02 -0.45482580102E+02 -0.10583376515E+03  0.18355607353E+03  0.12509000000E+03 0.  0.
         25    1    4    4    0    0 -0.29679855635E+02  0.73207848959E+01 -0.37450509441E+02  0.13410643713E+03  0.12509000000E+03 0.  0.
         25    1    3    3    0    0  0.98787547613E+02  0.38161795207E+02 -0.96202942930E+02  0.19004687976E+03  0.12509000000E+03 0.  0.
<mgrwt>
<rscale>  2 0.44767700E+03</rscale>
<asrwt>0</asrwt>
<pdfrwt beam="1">  1       21 0.19722219E-01 0.44767700E+03</pdfrwt>
<pdfrwt beam="2">  1       21 0.54940926E-01 0.44767700E+03</pdfrwt>
<totfact> 0.68635151E+04</totfact>
</mgrwt>
</event>
<event>
 7    0  0.4788920E-002  0.4552046E+03  0.7546771E-02  0.1026181E+00
         21   -1    0    0  502  501  0.00000000000E+00  0.00000000000E+00  0.47278623937E+03  0.47278623937E+03  0.00000000000E+00 0.  1.
         21   -1    0    0  501  502 -0.00000000000E+00 -0.00000000000E+00 -0.10956919829E+03  0.10956919829E+03  0.00000000000E+00 0.  1.
      99926    2    1    2    0    0  0.00000000000E+00  0.00000000000E+00  0.36321704108E+03  0.58235543766E+03  0.45520460987E+03 0.  0.
      99925    2    3    3    0    0 -0.77965054641E+02 -0.32925691310E+02  0.32521132238E+03  0.42661657402E+03  0.26282436366E+03 0.  0.
         25    1    4    4    0    0 -0.72642256785E+02 -0.23841390408E+02  0.13886352925E+03  0.20193042669E+03  0.12509000000E+03 0.  0.
         25    1    3    3    0    0  0.77965054641E+02  0.32925691310E+02  0.38005718703E+02  0.15573886364E+03  0.12509000000E+03 0.  0.
         25    1    4    4    0    0 -0.53227978556E+01 -0.90843009019E+01  0.18634779313E+03  0.22468614734E+03  0.12509000000E+03 0.  0.
<mgrwt>
<rscale>  2 0.45520461E+03</rscale>
<asrwt>0</asrwt>
<pdfrwt beam="1">  1       21 0.69527387E-01 0.45520461E+03</pdfrwt>
<pdfrwt beam="2">  1       21 0.16113118E-01 0.45520461E+03</pdfrwt>
<totfact> 0.59681103E+04</totfact>
</mgrwt>
</event>
<event>
 7    0  0.4788920E-002  0.4517710E+03  0.7546771E-02  0.1027195E+00
         21   -1    0    0  502  501  0.00000000000E+00  0.00000000000E+00  0.23917257400E+03  0.23917257400E+03  0.00000000000E+00 0.  1.
         21   -1    0    0  501  502 -0.00000000000E+00 -0.00000000000E+00 -0.21333653918E+03  0.21333653918E+03  0.00000000000E+00 0.  1.
      99926    2    1    2    0    0 -0.35527136788E-14  0.14210854715E-13  0.25836034820E+02  0.45250911317E+03  0.45177095614E+03 0.  0.
      99925    2    3    3    0    0 -0.15358587480E+02  0.72393724733E+02  0.98412821645E+02  0.29005408655E+03  0.26262054769E+03 0.  0.
         25    1    3    3    0    0  0.15358587480E+02 -0.72393724733E+02 -0.72576786824E+02  0.16245502663E+03  0.12509000000E+03 0.  0.
         25    1    4    4    0    0  0.20870899289E+02  0.83947884749E+01  0.55911131733E+02  0.13885110609E+03  0.12509000000E+03 0.  0.
         25    1    4    4    0    0 -0.36229486769E+02  0.63998936258E+02  0.42501689912E+02  0.15120298046E+03  0.12509000000E+03 0.  0.
<mgrwt>
<rscale>  2 0.45177096E+03</rscale>
<asrwt>0</asrwt>
<pdfrwt beam="1">  1       21 0.35172437E-01 0.45177096E+03</pdfrwt>
<pdfrwt beam="2">  1       21 0.31373021E-01 0.45177096E+03</pdfrwt>
<totfact> 0.70528342E+04</totfact>
</mgrwt>
</event>
<event>
 7    0  0.4788920E-002  0.4475847E+03  0.7546771E-02  0.1028445E+00
         21   -1    0    0  502  501  0.00000000000E+00  0.00000000000E+00  0.11471597725E+04  0.11471597725E+04  0.00000000000E+00 0.  1.
         21   -1    0    0  501  502 -0.00000000000E+00 -0.00000000000E+00 -0.43658277691E+02  0.43658277691E+02  0.00000000000E+00 0.  1.
      99926    2    1    2    0    0  0.00000000000E+00  0.00000000000E+00  0.11035014948E+04  0.11908180502E+04  0.44758471781E+03 0.  0.
      99925    2    3    3    0    0  0.77277210079E+02  0.69696345837E+02  0.64447799884E+03  0.70380734623E+03  0.26298962299E+03 0.  0.
         25    1    4    4    0    0  0.56452338182E+02  0.26634498814E+02  0.41728209066E+03  0.44007739580E+03  0.12509000000E+03 0.  0.
         25    1    3    3    0    0 -0.77277210079E+02 -0.69696345837E+02  0.45902349601E+03  0.48701070399E+03  0.12509000000E+03 0.  0.
         25    1    4    4    0    0  0.20824871898E+02  0.43061847023E+02  0.22719590818E+03  0.26372995043E+03  0.12509000000E+03 0.  0.
<mgrwt>
<rscale>  2 0.44758472E+03</rscale>
<asrwt>0</asrwt>
<pdfrwt beam="1">  1       21 0.16869995E+00 0.44758472E+03</pdfrwt>
<pdfrwt beam="2">  1       21 0.64203357E-02 0.44758472E+03</pdfrwt>
<totfact> 0.34392619E+04</totfact>
</mgrwt>
</event>
<event>
 7    0  0.4788920E-002  0.4371521E+03  0.7546771E-02  0.1031624E+00
         21   -1    0    0  502  501  0.00000000000E+00  0.00000000000E+00  0.11759759161E+03  0.11759759161E+03  0.00000000000E+00 0.  1.
         21   -1    0    0  501  502 -0.00000000000E+00 -0.00000000000E+00 -0.40626246518E+03  0.40626246518E+03  0.00000000000E+00 0.  1.
      99926    2    1    2    0    0  0.00000000000E+00  0.00000000000E+00 -0.28866487357E+03  0.52386005680E+03  0.43715209009E+03 0.  0.
      99925    2    3    3    0    0  0.19322493880E+02 -0.82684421582E+02 -0.13207385551E+03  0.30619442474E+03  0.26287154675E+03 0.  0.
         25    1    4    4    0    0  0.49213077652E+01 -0.71337861750E+02 -0.10113541120E+03  0.17603746558E+03  0.12509000000E+03 0.  0.
         25    1    3    3    0    0 -0.19322493880E+02  0.82684421582E+02 -0.15659101806E+03  0.21766563206E+03  0.12509000000E+03 0.  0.
         25    1    4    4    0    0  0.14401186114E+02 -0.11346559832E+02 -0.30938444314E+02  0.13015695916E+03  0.12509000000E+03 0.  0.
<mgrwt>
<rscale>  2 0.43715209E+03</rscale>
<asrwt>0</asrwt>
<pdfrwt beam="1">  1       21 0.17293764E-01 0.43715209E+03</pdfrwt>
<pdfrwt beam="2">  1       21 0.59744480E-01 0.43715209E+03</pdfrwt>
<totfact> 0.73471934E+04</totfact>
</mgrwt>
</event>
<event>
 7    0  0.4788920E-002  0.4559404E+03  0.7546771E-02  0.1025965E+00
         21   -1    0    0  502  501  0.00000000000E+00  0.00000000000E+00  0.26759446197E+03  0.26759446197E+03  0.00000000000E+00 0.  1.
         21   -1    0    0  501  502 -0.00000000000E+00 -0.00000000000E+00 -0.19421333713E+03  0.19421333713E+03  0.00000000000E+00 0.  1.
      99926    2    1    2    0    0  0.00000000000E+00  0.71054273576E-14  0.73381124838E+02  0.46180779911E+03  0.45594040601E+03 0.  0.
      99925    2    3    3    0    0 -0.84324628359E+02 -0.60854404806E+02 -0.12886554649E+01  0.28281901252E+03  0.26300386248E+03 0.  0.
         25    1    3    3    0    0  0.84324628359E+02  0.60854404806E+02  0.74669780303E+02  0.17898878658E+03  0.12509000000E+03 0.  0.
         25    1    4    4    0    0 -0.17347466072E+02 -0.43211976271E+02 -0.30416501861E+02  0.13689733802E+03  0.12509000000E+03 0.  0.
         25    1    4    4    0    0 -0.66977162287E+02 -0.17642428535E+02  0.29127846396E+02  0.14592167450E+03  0.12509000000E+03 0.  0.
<mgrwt>
<rscale>  2 0.45594041E+03</rscale>
<asrwt>0</asrwt>
<pdfrwt beam="1">  1       21 0.39352127E-01 0.45594041E+03</pdfrwt>
<pdfrwt beam="2">  1       21 0.28560785E-01 0.45594041E+03</pdfrwt>
<totfact> 0.67541044E+04</totfact>
</mgrwt>
</event>
<event>
 7    0  0.4788920E-002  0.4566425E+03  0.7546771E-02  0.1025760E+00
         21   -1    0    0  502  501  0.00000000000E+00  0.00000000000E+00  0.19735781791E+03  0.19735781791E+03  0.00000000000E+00 0. -1.
         21   -1    0    0  501  502 -0.00000000000E+00 -0.00000000000E+00 -0.26414247893E+03  0.26414247893E+03  0.00000000000E+00 0. -1.
      99926    2    1    2    0    0  0.14210854715E-13 -0.14210854715E-13 -0.66784661027E+02  0.46150029684E+03  0.45664245645E+03 0.  0.
      99925    2    3    3    0    0  0.79344893676E+02 -0.66405205735E+02  0.81232294816E+01  0.28271561164E+03  0.26297693189E+03 0.  0.
         25    1    4    4    0    0  0.81190840261E+02 -0.34088649558E+02  0.12017065090E+02  0.15344675469E+03  0.12509000000E+03 0.  0.
         25    1    3    3    0    0 -0.79344893676E+02  0.66405205735E+02 -0.74907890508E+02  0.17878468520E+03  0.12509000000E+03 0.  0.
         25    1    4    4    0    0 -0.18459465848E+01 -0.32316556177E+02 -0.38938356085E+01  0.12926885695E+03  0.12509000000E+03 0.  0.
<mgrwt>
<rscale>  2 0.45664246E+03</rscale>
<asrwt>0</asrwt>
<pdfrwt beam="1">  1       21 0.29023209E-01 0.45664246E+03</pdfrwt>
<pdfrwt beam="2">  1       21 0.38844482E-01 0.45664246E+03</pdfrwt>
<totfact> 0.67187031E+04</totfact>
</mgrwt>
</event>
<event>
 7    0  0.4788920E-002  0.4552245E+03  0.7546771E-02  0.1026175E+00
         21   -1    0    0  502  501  0.00000000000E+00  0.00000000000E+00  0.69603547401E+02  0.69603547401E+02  0.00000000000E+00 0.  1.
         21   -1    0    0  501  502 -0.00000000000E+00 -0.00000000000E+00 -0.74432046144E+03  0.74432046144E+03  0.00000000000E+00 0.  1.
      99926    2    1    2    0    0  0.00000000000E+00  0.00000000000E+00 -0.67471691404E+03  0.81392400884E+03  0.45522453589E+03 0.  0.
      99925    2    3    3    0    0  0.79148184196E+02  0.70583153124E+02 -0.49639918418E+03  0.57166147057E+03  0.26294157206E+03 0.  0.
         25    1    4    4    0    0  0.28133298494E+02  0.41849136803E+02 -0.16827609340E+03  0.21565524442E+03  0.12509000000E+03 0.  0.
         25    1    4    4    0    0  0.51014885702E+02  0.28734016321E+02 -0.32812309078E+03  0.35600622615E+03  0.12509000000E+03 0.  0.
         25    1    3    3    0    0 -0.79148184196E+02 -0.70583153124E+02 -0.17831772986E+03  0.24226253827E+03  0.12509000000E+03 0.  0.
<mgrwt>
<rscale>  2 0.45522454E+03</rscale>
<asrwt>0</asrwt>
<pdfrwt beam="1">  1       21 0.10235816E-01 0.45522454E+03</pdfrwt>
<pdfrwt beam="2">  1       21 0.10945889E+00 0.45522454E+03</pdfrwt>
<totfact> 0.47015796E+04</totfact>
</mgrwt>
</event>
<event>
 7    0  0.4788920E-002  0.4558841E+03  0.7546771E-02  0.1025982E+00
         21   -1    0    0  502  501  0.00000000000E+00  0.00000000000E+00  0.22326552575E+04  0.22326552575E+04  0.00000000000E+00 0.  1.
         21   -1    0    0  501  502 -0.00000000000E+00 -0.00000000000E+00 -0.23271652210E+02  0.23271652210E+02  0.00000000000E+00 0.  1.
      99926    2    1    2    0    0  0.14210854715E-13  0.14210854715E-13  0.22093836053E+04  0.22559269097E+04  0.45588409341E+03 0.  0.
      99925    2    3    3    0    0 -0.68365750472E+02 -0.85321973608E+02  0.12306673551E+04  0.12632100712E+04  0.26306620839E+03 0.  0.
         25    1    4    4    0    0  0.33565849177E+01 -0.38891624013E+02  0.49064821860E+03  0.50784545641E+03  0.12509000000E+03 0.  0.
         25    1    4    4    0    0 -0.71722335390E+02 -0.46430349595E+02  0.74001913651E+03  0.75536461478E+03  0.12509000000E+03 0.  0.
         25    1    3    3    0    0  0.68365750472E+02  0.85321973608E+02  0.97871625017E+03  0.99271683851E+03  0.12509000000E+03 0.  0.
<mgrwt>
<rscale>  2 0.45588409E+03</rscale>
<asrwt>0</asrwt>
<pdfrwt beam="1">  1       21 0.32833151E+00 0.45588409E+03</pdfrwt>
<pdfrwt beam="2">  1       21 0.34223033E-02 0.45588409E+03</pdfrwt>
<totfact> 0.98950759E+03</totfact>
</mgrwt>
</event>
<event>
 7    0  0.4788920E-002  0.4701978E+03  0.7546771E-02  0.1021864E+00
         21   -1    0    0  502  501  0.00000000000E+00  0.00000000000E+00  0.43084435431E+03  0.43084435431E+03  0.00000000000E+00 0. -1.
         21   -1    0    0  501  502 -0.00000000000E+00 -0.00000000000E+00 -0.12828642544E+03  0.12828642544E+03  0.00000000000E+00 0. -1.
      99926    2    1    2    0    0  0.00000000000E+00  0.00000000000E+00  0.30255792887E+03  0.55913077975E+03  0.47019775471E+03 0.  0.
      99925    2    3    3    0    0 -0.84701343177E+02 -0.28251377559E+02  0.80697299434E+02  0.28923801426E+03  0.26300972774E+03 0.  0.
         25    1    4    4    0    0 -0.14243784189E+02 -0.10704886856E+02  0.61051246089E+01  0.12650004204E+03  0.12509000000E+03 0.  0.
         25    1    3    3    0    0  0.84701343177E+02  0.28251377559E+02  0.22186062944E+03  0.26989276549E+03  0.12509000000E+03 0.  0.
         25    1    4    4    0    0 -0.70457558988E+02 -0.17546490704E+02  0.74592174825E+02  0.16273797221E+03  0.12509000000E+03 0.  0.
<mgrwt>
<rscale>  2 0.47019775E+03</rscale>
<asrwt>0</asrwt>
<pdfrwt beam="1">  1       21 0.63359463E-01 0.47019775E+03</pdfrwt>
<pdfrwt beam="2">  1       21 0.18865651E-01 0.47019775E+03</pdfrwt>
<totfact> 0.54422655E+04</totfact>
</mgrwt>
</event>
<event>
 7    0  0.4788920E-002  0.4654849E+03  0.7546771E-02  0.1023202E+00
         21   -1    0    0  502  501  0.00000000000E+00  0.00000000000E+00  0.85788970185E+03  0.85788970185E+03  0.00000000000E+00 0.  1.
         21   -1    0    0  501  502 -0.00000000000E+00 -0.00000000000E+00 -0.63142203248E+02  0.63142203248E+02  0.00000000000E+00 0.  1.
      99926    2    1    2    0    0  0.00000000000E+00  0.00000000000E+00  0.79474749860E+03  0.92103190510E+03  0.46548489092E+03 0.  0.
      99925    2    3    3    0    0  0.83971048764E+01  0.23713621077E+02  0.73313030165E+03  0.77933845340E+03  0.26316447053E+03 0.  0.
         25    1    3    3    0    0 -0.83971048764E+01 -0.23713621077E+02  0.61617196949E+02  0.14169345170E+03  0.12509000000E+03 0.  0.
         25    1    4    4    0    0  0.12481458735E+02  0.16618869050E+02  0.25146413025E+03  0.28162686399E+03  0.12509000000E+03 0.  0.
         25    1    4    4    0    0 -0.40843538586E+01  0.70947520269E+01  0.48166617140E+03  0.49771158940E+03  0.12509000000E+03 0.  0.
<mgrwt>
<rscale>  2 0.46548489E+03</rscale>
<asrwt>0</asrwt>
<pdfrwt beam="1">  1       21 0.12616024E+00 0.46548489E+03</pdfrwt>
<pdfrwt beam="2">  1       21 0.92856186E-02 0.46548489E+03</pdfrwt>
<totfact> 0.39033564E+04</totfact>
</mgrwt>
</event>
<event>
 7    0  0.4788920E-002  0.4560800E+03  0.7546771E-02  0.1025924E+00
         21   -1    0    0  502  501  0.00000000000E+00  0.00000000000E+00  0.10964229211E+03  0.10964229211E+03  0.00000000000E+00 0.  1.
         21   -1    0    0  501  502 -0.00000000000E+00 -0.00000000000E+00 -0.47429001588E+03  0.47429001588E+03  0.00000000000E+00 0.  1.
      99926    2    1    2    0    0  0.00000000000E+00  0.00000000000E+00 -0.36464772378E+03  0.58393230799E+03  0.45608001256E+03 0.  0.
      99925    2    3    3    0    0 -0.10026350753E+03  0.14176427877E+02 -0.16314775327E+03  0.32604960546E+03  0.26350979825E+03 0.  0.
         25    1    3    3    0    0  0.10026350753E+03 -0.14176427877E+02 -0.20149997051E+03  0.25788270253E+03  0.12509000000E+03 0.  0.
         25    1    4    4    0    0 -0.25945212386E+02  0.41990995795E+01 -0.36601812014E+02  0.13295859215E+03  0.12509000000E+03 0.  0.
         25    1    4    4    0    0 -0.74318295146E+02  0.99773282975E+01 -0.12654594125E+03  0.19309101331E+03  0.12509000000E+03 0.  0.
<mgrwt>
<rscale>  2 0.45608001E+03</rscale>
<asrwt>0</asrwt>
<pdfrwt beam="1">  1       21 0.16123866E-01 0.45608001E+03</pdfrwt>
<pdfrwt beam="2">  1       21 0.69748532E-01 0.45608001E+03</pdfrwt>
<totfact> 0.59171546E+04</totfact>
</mgrwt>
</event>
<event>
 7    0  0.4788920E-002  0.4750442E+03  0.7546771E-02  0.1020506E+00
         21   -1    0    0  502  501  0.00000000000E+00  0.00000000000E+00  0.84214450601E+03  0.84214450601E+03  0.00000000000E+00 0.  1.
         21   -1    0    0  501  502 -0.00000000000E+00 -0.00000000000E+00 -0.66991770898E+02  0.66991770898E+02  0.00000000000E+00 0.  1.
      99926    2    1    2    0    0  0.00000000000E+00  0.00000000000E+00  0.77515273511E+03  0.90913627691E+03  0.47504421609E+03 0.  0.
      99925    2    3    3    0    0 -0.10409514188E+03  0.78694636204E+02  0.45613832346E+03  0.54246701548E+03  0.26302024338E+03 0.  0.
         25    1    4    4    0    0 -0.27109540013E+02  0.66882082838E+02  0.25612757484E+03  0.29403568297E+03  0.12509000000E+03 0.  0.
         25    1    4    4    0    0 -0.76985601872E+02  0.11812553366E+02  0.20001074862E+03  0.24843133252E+03  0.12509000000E+03 0.  0.
         25    1    3    3    0    0  0.10409514188E+03 -0.78694636204E+02  0.31901441165E+03  0.36666926143E+03  0.12509000000E+03 0.  0.
<mgrwt>
<rscale>  2 0.47504422E+03</rscale>
<asrwt>0</asrwt>
<pdfrwt beam="1">  1       21 0.12384477E+00 0.47504422E+03</pdfrwt>
<pdfrwt beam="2">  1       21 0.98517315E-02 0.47504422E+03</pdfrwt>
<totfact> 0.36729235E+04</totfact>
</mgrwt>
</event>
<event>
 7    0  0.4788920E-002  0.4569576E+03  0.7546771E-02  0.1025667E+00
         21   -1    0    0  502  501  0.00000000000E+00  0.00000000000E+00  0.66284488124E+02  0.66284488124E+02  0.00000000000E+00 0.  1.
         21   -1    0    0  501  502 -0.00000000000E+00 -0.00000000000E+00 -0.78755308587E+03  0.78755308587E+03  0.00000000000E+00 0.  1.
      99926    2    1    2    0    0  0.00000000000E+00  0.00000000000E+00 -0.72126859774E+03  0.85383757399E+03  0.45695756112E+03 0.  0.
      99925    2    3    3    0    0  0.85516656884E+02 -0.51297150146E+02 -0.34579620195E+03  0.44570582526E+03  0.26293378096E+03 0.  0.
         25    1    4    4    0    0  0.67376190637E+02 -0.40407768925E+02 -0.23337813930E+03  0.27619776041E+03  0.12509000000E+03 0.  0.
         25    1    4    4    0    0  0.18140466247E+02 -0.10889381221E+02 -0.11241806265E+03  0.16950806485E+03  0.12509000000E+03 0.  0.
         25    1    3    3    0    0 -0.85516656884E+02  0.51297150146E+02 -0.37547239579E+03  0.40813174873E+03  0.12509000000E+03 0.  0.
<mgrwt>
<rscale>  2 0.45695756E+03</rscale>
<asrwt>0</asrwt>
<pdfrwt beam="1">  1       21 0.97477193E-02 0.45695756E+03</pdfrwt>
<pdfrwt beam="2">  1       21 0.11581662E+00 0.45695756E+03</pdfrwt>
<totfact> 0.44579693E+04</totfact>
</mgrwt>
</event>
<event>
 6    0  0.4788920E-002  0.4506733E+03  0.7546771E-02  0.1027521E+00
         21   -1    0    0  502  501  0.00000000000E+00  0.00000000000E+00  0.81125769364E+02  0.81125769364E+02  0.00000000000E+00 0. -1.
         21   -1    0    0  501  502 -0.00000000000E+00 -0.00000000000E+00 -0.62589973060E+03  0.62589973060E+03  0.00000000000E+00 0. -1.
      99926    2    1    2    0    0  0.35527136788E-14  0.00000000000E+00 -0.54477396124E+03  0.70702549997E+03  0.45067326164E+03 0.  0.
         25    1    3    3    0    0 -0.47526849420E+02 -0.91388108718E+01 -0.15558229180E+03  0.20541586332E+03  0.12509000000E+03 0.  0.
         25    1    3    3    0    0 -0.95618914115E+01 -0.23495979681E+02 -0.31947429360E+03  0.34402735821E+03  0.12509000000E+03 0.  0.
         25    1    3    3    0    0  0.57088740832E+02  0.32634790553E+02 -0.69717375841E+02  0.15758227844E+03  0.12509000000E+03 0.  0.
<mgrwt>
<rscale>  2 0.45067326E+03</rscale>
<asrwt>0</asrwt>
<pdfrwt beam="1">  1       21 0.11930260E-01 0.45067326E+03</pdfrwt>
<pdfrwt beam="2">  1       21 0.92044081E-01 0.45067326E+03</pdfrwt>
<totfact> 0.54349954E+04</totfact>
</mgrwt>
</event>
<event>
 7    0  0.4788920E-002  0.4545501E+03  0.7546771E-02  0.1026374E+00
         21   -1    0    0  502  501  0.00000000000E+00  0.00000000000E+00  0.62351567731E+03  0.62351567731E+03  0.00000000000E+00 0.  1.
         21   -1    0    0  501  502 -0.00000000000E+00 -0.00000000000E+00 -0.82843047734E+02  0.82843047734E+02  0.00000000000E+00 0.  1.
      99926    2    1    2    0    0  0.00000000000E+00 -0.14210854715E-13  0.54067262958E+03  0.70635872505E+03  0.45455005893E+03 0.  0.
      99925    2    3    3    0    0 -0.45752678000E+02 -0.96528083728E+02  0.28439459241E+03  0.40183135530E+03  0.26301554216E+03 0.  0.
         25    1    3    3    0    0  0.45752678000E+02  0.96528083728E+02  0.25627803717E+03  0.30452736975E+03  0.12509000000E+03 0.  0.
         25    1    4    4    0    0  0.97290649151E+01 -0.41263307374E+02  0.10007956092E+03  0.16571282948E+03  0.12509000000E+03 0.  0.
         25    1    4    4    0    0 -0.55481742915E+02 -0.55264776353E+02  0.18431503149E+03  0.23611852582E+03  0.12509000000E+03 0.  0.
<mgrwt>
<rscale>  2 0.45455006E+03</rscale>
<asrwt>0</asrwt>
<pdfrwt beam="1">  1       21 0.91693480E-01 0.45455006E+03</pdfrwt>
<pdfrwt beam="2">  1       21 0.12182801E-01 0.45455006E+03</pdfrwt>
<totfact> 0.52745568E+04</totfact>
</mgrwt>
</event>
<event>
 7    0  0.4788920E-002  0.4594153E+03  0.7546771E-02  0.1024951E+00
         21   -1    0    0  502  501  0.00000000000E+00  0.00000000000E+00  0.32642143298E+02  0.32642143298E+02  0.00000000000E+00 0. -1.
         21   -1    0    0  501  502 -0.00000000000E+00 -0.00000000000E+00 -0.16164869650E+04  0.16164869650E+04  0.00000000000E+00 0. -1.
      99926    2    1    2    0    0  0.00000000000E+00  0.00000000000E+00 -0.15838448217E+04  0.16491291083E+04  0.45941527685E+03 0.  0.
      99925    2    3    3    0    0 -0.21558145189E+02  0.77105962236E+02 -0.68543587917E+03  0.73852698928E+03  0.26303932483E+03 0.  0.
         25    1    3    3    0    0  0.21558145189E+02 -0.77105962236E+02 -0.89840894250E+03  0.91060211898E+03  0.12509000000E+03 0.  0.
         25    1    4    4    0    0 -0.40842331655E+02  0.12218849532E+02 -0.30647628835E+03  0.33375532918E+03  0.12509000000E+03 0.  0.
         25    1    4    4    0    0  0.19284186465E+02  0.64887112704E+02 -0.37895959082E+03  0.40477166010E+03  0.12509000000E+03 0.  0.
<mgrwt>
<rscale>  2 0.45941528E+03</rscale>
<asrwt>0</asrwt>
<pdfrwt beam="1">  1       21 0.48003143E-02 0.45941528E+03</pdfrwt>
<pdfrwt beam="2">  1       21 0.23771871E+00 0.45941528E+03</pdfrwt>
<totfact> 0.19659359E+04</totfact>
</mgrwt>
</event>
<event>
 7    0  0.4788920E-002  0.4557170E+03  0.7546771E-02  0.1026031E+00
         21   -1    0    0  502  501  0.00000000000E+00  0.00000000000E+00  0.15767120483E+03  0.15767120483E+03  0.00000000000E+00 0. -1.
         21   -1    0    0  501  502 -0.00000000000E+00 -0.00000000000E+00 -0.32928960151E+03  0.32928960151E+03  0.00000000000E+00 0. -1.
      99926    2    1    2    0    0  0.00000000000E+00 -0.35527136788E-14 -0.17161839668E+03  0.48696080634E+03  0.45571696571E+03 0.  0.
      99925    2    3    3    0    0 -0.42100817395E+02 -0.24266018876E+02 -0.21751366851E+03  0.34513273234E+03  0.26352056551E+03 0.  0.
         25    1    4    4    0    0 -0.28471540416E+02  0.85749753016E+01 -0.63012048543E+02  0.14318584140E+03  0.12509000000E+03 0.  0.
         25    1    4    4    0    0 -0.13629276979E+02 -0.32840994177E+02 -0.15450161997E+03  0.20194689095E+03  0.12509000000E+03 0.  0.
         25    1    3    3    0    0  0.42100817395E+02  0.24266018876E+02  0.45895271831E+02  0.14182807400E+03  0.12509000000E+03 0.  0.
<mgrwt>
<rscale>  2 0.45571697E+03</rscale>
<asrwt>0</asrwt>
<pdfrwt beam="1">  1       21 0.23186942E-01 0.45571697E+03</pdfrwt>
<pdfrwt beam="2">  1       21 0.48424940E-01 0.45571697E+03</pdfrwt>
<totfact> 0.65821362E+04</totfact>
</mgrwt>
</event>
<event>
 7    0  0.4788920E-002  0.4739533E+03  0.7546771E-02  0.1020810E+00
         21   -1    0    0  502  501  0.00000000000E+00  0.00000000000E+00  0.32755493172E+04  0.32755493172E+04  0.00000000000E+00 0.  1.
         21   -1    0    0  501  502 -0.00000000000E+00 -0.00000000000E+00 -0.17144586804E+02  0.17144586804E+02  0.00000000000E+00 0.  1.
      99926    2    1    2    0    0  0.00000000000E+00  0.14210854715E-13  0.32584047304E+04  0.32926939040E+04  0.47395332935E+03 0.  0.
      99925    2    3    3    0    0  0.58683900493E+02  0.11034683123E+03  0.17653272403E+04  0.17891819743E+04  0.26300503484E+03 0.  0.
         25    1    3    3    0    0 -0.58683900493E+02 -0.11034683123E+03  0.14930774901E+04  0.15035119298E+04  0.12509000000E+03 0.  0.
         25    1    4    4    0    0  0.52274793927E+02  0.21535177614E+02  0.87854715627E+03  0.88920696795E+03  0.12509000000E+03 0.  0.
         25    1    4    4    0    0  0.64091065659E+01  0.88811653615E+02  0.88678008402E+03  0.89997500631E+03  0.12509000000E+03 0.  0.
<mgrwt>
<rscale>  2 0.47395333E+03</rscale>
<asrwt>0</asrwt>
<pdfrwt beam="1">  1       21 0.48169800E+00 0.47395333E+03</pdfrwt>
<pdfrwt beam="2">  1       21 0.25212650E-02 0.47395333E+03</pdfrwt>
<totfact> 0.16620456E+03</totfact>
</mgrwt>
</event>
<event>
 7    0  0.4788920E-002  0.4568644E+03  0.7546771E-02  0.1025695E+00
         21   -1    0    0  502  501  0.00000000000E+00  0.00000000000E+00  0.13976059541E+03  0.13976059541E+03  0.00000000000E+00 0. -1.
         21   -1    0    0  501  502 -0.00000000000E+00 -0.00000000000E+00 -0.37336187212E+03  0.37336187212E+03  0.00000000000E+00 0. -1.
      99926    2    1    2    0    0  0.00000000000E+00  0.00000000000E+00 -0.23360127670E+03  0.51312246753E+03  0.45686443307E+03 0.  0.
      99925    2    3    3    0    0  0.39402298977E+02 -0.10468026481E+03 -0.17247743059E+03  0.33453318547E+03  0.26391947467E+03 0.  0.
         25    1    4    4    0    0  0.36258827182E+02 -0.41592444396E+02 -0.41908700056E+02  0.14299818607E+03  0.12509000000E+03 0.  0.
         25    1    3    3    0    0 -0.39402298977E+02  0.10468026481E+03 -0.61123846108E+02  0.17858928206E+03  0.12509000000E+03 0.  0.
         25    1    4    4    0    0  0.31434717949E+01 -0.63087820412E+02 -0.13056873054E+03  0.19153499940E+03  0.12509000000E+03 0.  0.
<mgrwt>
<rscale>  2 0.45686443E+03</rscale>
<asrwt>0</asrwt>
<pdfrwt beam="1">  1       21 0.20553029E-01 0.45686443E+03</pdfrwt>
<pdfrwt beam="2">  1       21 0.54906157E-01 0.45686443E+03</pdfrwt>
<totfact> 0.63414776E+04</totfact>
</mgrwt>
</event>
<event>
 7    0  0.4788920E-002  0.4381206E+03  0.7546771E-02  0.1031325E+00
         21   -1    0    0  502  501  0.00000000000E+00  0.00000000000E+00  0.77341426607E+02  0.77341426607E+02  0.00000000000E+00 0. -1.
         21   -1    0    0  501  502 -0.00000000000E+00 -0.00000000000E+00 -0.62046189216E+03  0.62046189216E+03  0.00000000000E+00 0. -1.
      99926    2    1    2    0    0  0.00000000000E+00  0.00000000000E+00 -0.54312046555E+03  0.69780331876E+03  0.43812056740E+03 0.  0.
      99925    2    3    3    0    0 -0.10257521952E+02 -0.43353831041E+02 -0.48363751412E+03  0.55230245611E+03  0.26296004741E+03 0.  0.
         25    1    4    4    0    0 -0.27373291031E+02 -0.51225737087E+02 -0.21600042214E+03  0.25627536687E+03  0.12509000000E+03 0.  0.
         25    1    3    3    0    0  0.10257521952E+02  0.43353831041E+02 -0.59482951426E+02  0.14550086265E+03  0.12509000000E+03 0.  0.
         25    1    4    4    0    0  0.17115769079E+02  0.78719060464E+01 -0.26763709198E+03  0.29602708924E+03  0.12509000000E+03 0.  0.
<mgrwt>
<rscale>  2 0.43812057E+03</rscale>
<asrwt>0</asrwt>
<pdfrwt beam="1">  1       21 0.11373739E-01 0.43812057E+03</pdfrwt>
<pdfrwt beam="2">  1       21 0.91244397E-01 0.43812057E+03</pdfrwt>
<totfact> 0.60691866E+04</totfact>
</mgrwt>
</event>
<event>
 7    0  0.4788920E-002  0.4562294E+03  0.7546771E-02  0.1025880E+00
         21   -1    0    0  502  501  0.00000000000E+00  0.00000000000E+00  0.10598638874E+04  0.10598638874E+04  0.00000000000E+00 0. -1.
         21   -1    0    0  501  502 -0.00000000000E+00 -0.00000000000E+00 -0.49097168761E+02  0.49097168761E+02  0.00000000000E+00 0. -1.
      99926    2    1    2    0    0  0.00000000000E+00  0.00000000000E+00  0.10107667187E+04  0.11089610562E+04  0.45622939907E+03 0.  0.
      99925    2    3    3    0    0  0.10661496370E+03 -0.88161413557E+01  0.73345262209E+03  0.78647835728E+03  0.26296574452E+03 0.  0.
         25    1    3    3    0    0 -0.10661496370E+03  0.88161413557E+01  0.27731409656E+03  0.32248269889E+03  0.12509000000E+03 0.  0.
         25    1    4    4    0    0  0.69127623900E+02  0.24927779645E+02  0.31447671375E+03  0.34632807304E+03  0.12509000000E+03 0.  0.
         25    1    4    4    0    0  0.37487339798E+02 -0.33743921000E+02  0.41897590834E+03  0.44015028424E+03  0.12509000000E+03 0.  0.
<mgrwt>
<rscale>  2 0.45622940E+03</rscale>
<asrwt>0</asrwt>
<pdfrwt beam="1">  1       21 0.15586232E+00 0.45622940E+03</pdfrwt>
<pdfrwt beam="2">  1       21 0.72201725E-02 0.45622940E+03</pdfrwt>
<totfact> 0.34847143E+04</totfact>
</mgrwt>
</event>
<event>
 7    0  0.4788920E-002  0.4527001E+03  0.7546771E-02  0.1026920E+00
         21   -1    0    0  502  501  0.00000000000E+00  0.00000000000E+00  0.81211497194E+02  0.81211497194E+02  0.00000000000E+00 0. -1.
         21   -1    0    0  501  502 -0.00000000000E+00 -0.00000000000E+00 -0.63087545795E+03  0.63087545795E+03  0.00000000000E+00 0. -1.
      99926    2    1    2    0    0  0.00000000000E+00  0.00000000000E+00 -0.54966396075E+03  0.71208695514E+03  0.45270007945E+03 0.  0.
      99925    2    3    3    0    0  0.42299215435E+02  0.10049988068E+03 -0.38015416987E+03  0.47487285997E+03  0.26286420567E+03 0.  0.
         25    1    4    4    0    0  0.43813658627E+02  0.87401417457E+02 -0.21578765268E+03  0.26790010004E+03  0.12509000000E+03 0.  0.
         25    1    3    3    0    0 -0.42299215435E+02 -0.10049988068E+03 -0.16950979089E+03  0.23721409517E+03  0.12509000000E+03 0.  0.
         25    1    4    4    0    0 -0.15144431917E+01  0.13098463221E+02 -0.16436651719E+03  0.20697275992E+03  0.12509000000E+03 0.  0.
<mgrwt>
<rscale>  2 0.45270008E+03</rscale>
<asrwt>0</asrwt>
<pdfrwt beam="1">  1       21 0.11942867E-01 0.45270008E+03</pdfrwt>
<pdfrwt beam="2">  1       21 0.92775801E-01 0.45270008E+03</pdfrwt>
<totfact> 0.53207863E+04</totfact>
</mgrwt>
</event>
<event>
 7    0  0.4788920E-002  0.4579404E+03  0.7546771E-02  0.1025380E+00
         21   -1    0    0  502  501  0.00000000000E+00  0.00000000000E+00  0.80962600873E+03  0.80962600873E+03  0.00000000000E+00 0. -1.
         21   -1    0    0  501  502 -0.00000000000E+00 -0.00000000000E+00 -0.64755025755E+02  0.64755025755E+02  0.00000000000E+00 0. -1.
      99926    2    1    2    0    0  0.00000000000E+00  0.00000000000E+00  0.74487098298E+03  0.87438103449E+03  0.45794040244E+03 0.  0.
      99925    2    3    3    0    0 -0.49637546839E+02  0.79771054529E+02  0.59691773559E+03  0.65905574868E+03  0.26309007888E+03 0.  0.
         25    1    4    4    0    0 -0.22787320817E+02  0.52246093913E+02  0.39689368230E+03  0.42002502243E+03  0.12509000000E+03 0.  0.
         25    1    4    4    0    0 -0.26850226022E+02  0.27524960616E+02  0.20002405329E+03  0.23903072625E+03  0.12509000000E+03 0.  0.
         25    1    3    3    0    0  0.49637546839E+02 -0.79771054529E+02  0.14795324738E+03  0.21532528581E+03  0.12509000000E+03 0.  0.
<mgrwt>
<rscale>  2 0.45794040E+03</rscale>
<asrwt>0</asrwt>
<pdfrwt beam="1">  1       21 0.11906264E+00 0.45794040E+03</pdfrwt>
<pdfrwt beam="2">  1       21 0.95227984E-02 0.45794040E+03</pdfrwt>
<totfact> 0.43352806E+04</totfact>
</mgrwt>
</event>
<event>
 7    0  0.4788920E-002  0.4486340E+03  0.7546771E-02  0.1028130E+00
         21   -1    0    0  502  501  0.00000000000E+00  0.00000000000E+00  0.21668797313E+03  0.21668797313E+03  0.00000000000E+00 0. -1.
         21   -1    0    0  501  502 -0.00000000000E+00 -0.00000000000E+00 -0.23221460293E+03  0.23221460293E+03  0.00000000000E+00 0. -1.
      99926    2    1    2    0    0  0.00000000000E+00  0.00000000000E+00 -0.15526629792E+02  0.44890257606E+03  0.44863397838E+03 0.  0.
      99925    2    3    3    0    0  0.65609175825E+02 -0.81763189984E+02  0.11816030929E+02  0.28341870257E+03  0.26305276884E+03 0.  0.
         25    1    4    4    0    0  0.45419786765E+02 -0.21977548648E+01  0.13577572240E+02  0.13378955761E+03  0.12509000000E+03 0.  0.
         25    1    4    4    0    0  0.20189389060E+02 -0.79565435119E+02 -0.17615413110E+01  0.14962914497E+03  0.12509000000E+03 0.  0.
         25    1    3    3    0    0 -0.65609175825E+02  0.81763189984E+02 -0.27342660721E+02  0.16548387349E+03  0.12509000000E+03 0.  0.
<mgrwt>
<rscale>  2 0.44863398E+03</rscale>
<asrwt>0</asrwt>
<pdfrwt beam="1">  1       21 0.31865878E-01 0.44863398E+03</pdfrwt>
<pdfrwt beam="2">  1       21 0.34149206E-01 0.44863398E+03</pdfrwt>
<totfact> 0.72613660E+04</totfact>
</mgrwt>
</event>
<event>
 7    0  0.4788920E-002  0.4577352E+03  0.7546771E-02  0.1025440E+00
         21   -1    0    0  502  501  0.00000000000E+00  0.00000000000E+00  0.23166577083E+03  0.23166577083E+03  0.00000000000E+00 0.  1.
         21   -1    0    0  501  502 -0.00000000000E+00 -0.00000000000E+00 -0.22610322826E+03  0.22610322826E+03  0.00000000000E+00 0.  1.
      99926    2    1    2    0    0  0.00000000000E+00  0.00000000000E+00  0.55625425780E+01  0.45776899909E+03  0.45773520145E+03 0.  0.
      99925    2    3    3    0    0  0.67574812425E+02 -0.20824081485E+02 -0.88012172011E+02  0.28629383192E+03  0.26309317386E+03 0.  0.
         25    1    4    4    0    0  0.37586427578E+02 -0.33984713393E+02 -0.10127007749E+02  0.13534313676E+03  0.12509000000E+03 0.  0.
         25    1    3    3    0    0 -0.67574812425E+02  0.20824081485E+02  0.93574714589E+02  0.17147516716E+03  0.12509000000E+03 0.  0.
         25    1    4    4    0    0  0.29988384846E+02  0.13160631908E+02 -0.77885164262E+02  0.15095069516E+03  0.12509000000E+03 0.  0.
<mgrwt>
<rscale>  2 0.45773520E+03</rscale>
<asrwt>0</asrwt>
<pdfrwt beam="1">  1       21 0.34068496E-01 0.45773520E+03</pdfrwt>
<pdfrwt beam="2">  1       21 0.33250474E-01 0.45773520E+03</pdfrwt>
<totfact> 0.66872033E+04</totfact>
</mgrwt>
</event>
<event>
 7    0  0.4788920E-002  0.4614861E+03  0.7546771E-02  0.1024351E+00
         21   -1    0    0  502  501  0.00000000000E+00  0.00000000000E+00  0.11062828143E+03  0.11062828143E+03  0.00000000000E+00 0.  1.
         21   -1    0    0  501  502 -0.00000000000E+00 -0.00000000000E+00 -0.48127257565E+03  0.48127257565E+03  0.00000000000E+00 0.  1.
      99926    2    1    2    0    0  0.00000000000E+00  0.00000000000E+00 -0.37064429422E+03  0.59190085708E+03  0.46148611222E+03 0.  0.
      99925    2    3    3    0    0  0.98676018734E+02  0.64300967253E+02 -0.25497557781E+03  0.38478173407E+03  0.26300735071E+03 0.  0.
         25    1    4    4    0    0  0.71430657732E+02  0.78190677691E+00 -0.14559898498E+03  0.20481582646E+03  0.12509000000E+03 0.  0.
         25    1    3    3    0    0 -0.98676018734E+02 -0.64300967253E+02 -0.11566871641E+03  0.20711912301E+03  0.12509000000E+03 0.  0.
         25    1    4    4    0    0  0.27245361001E+02  0.63519060476E+02 -0.10937659283E+03  0.17996590760E+03  0.12509000000E+03 0.  0.
<mgrwt>
<rscale>  2 0.46148611E+03</rscale>
<asrwt>0</asrwt>
<pdfrwt beam="1">  1       21 0.16268865E-01 0.46148611E+03</pdfrwt>
<pdfrwt beam="2">  1       21 0.70775377E-01 0.46148611E+03</pdfrwt>
<totfact> 0.56240658E+04</totfact>
</mgrwt>
</event>
<event>
 7    0  0.4788920E-002  0.4528385E+03  0.7546771E-02  0.1026879E+00
         21   -1    0    0  502  501  0.00000000000E+00  0.00000000000E+00  0.18386395755E+03  0.18386395755E+03  0.00000000000E+00 0.  1.
         21   -1    0    0  501  502 -0.00000000000E+00 -0.00000000000E+00 -0.27882399272E+03  0.27882399272E+03  0.00000000000E+00 0.  1.
      99926    2    1    2    0    0  0.00000000000E+00  0.00000000000E+00 -0.94960035161E+02  0.46268795027E+03  0.45283852646E+03 0.  0.
      99925    2    3    3    0    0 -0.97509689517E+02  0.12334954691E+02 -0.11273687243E+03  0.30261354663E+03  0.26306855673E+03 0.  0.
         25    1    4    4    0    0 -0.54522465390E+02 -0.17656930337E+02 -0.21771847256E+02  0.13930537626E+03  0.12509000000E+03 0.  0.
         25    1    4    4    0    0 -0.42987224127E+02  0.29991885028E+02 -0.90965025177E+02  0.16330817037E+03  0.12509000000E+03 0.  0.
         25    1    3    3    0    0  0.97509689517E+02 -0.12334954691E+02  0.17776837272E+02  0.16007440364E+03  0.12509000000E+03 0.  0.
<mgrwt>
<rscale>  2 0.45283853E+03</rscale>
<asrwt>0</asrwt>
<pdfrwt beam="1">  1       21 0.27038817E-01 0.45283853E+03</pdfrwt>
<pdfrwt beam="2">  1       21 0.41003528E-01 0.45283853E+03</pdfrwt>
<totfact> 0.69162350E+04</totfact>
</mgrwt>
</event>
<event>
 7    0  0.4788920E-002  0.4517967E+03  0.7546771E-02  0.1027188E+00
         21   -1    0    0  502  501  0.00000000000E+00  0.00000000000E+00  0.30188096851E+02  0.30188096851E+02  0.00000000000E+00 0.  1.
         21   -1    0    0  501  502 -0.00000000000E+00 -0.00000000000E+00 -0.16904032072E+04  0.16904032072E+04  0.00000000000E+00 0.  1.
      99926    2    1    2    0    0  0.00000000000E+00 -0.35527136788E-14 -0.16602151104E+04  0.17205913041E+04  0.45179666106E+03 0.  0.
      99925    2    3    3    0    0  0.84719986145E+02  0.28107802272E+02 -0.79975632808E+03  0.84651788111E+03  0.26270670745E+03 0.  0.
         25    1    3    3    0    0 -0.84719986145E+02 -0.28107802272E+02 -0.86045878229E+03  0.87407342296E+03  0.12509000000E+03 0.  0.
         25    1    4    4    0    0  0.35585046889E+00  0.11228366220E+02 -0.35474344560E+03  0.37631984154E+03  0.12509000000E+03 0.  0.
         25    1    4    4    0    0  0.84364135676E+02  0.16879436052E+02 -0.44501288247E+03  0.47019803957E+03  0.12509000000E+03 0.  0.
<mgrwt>
<rscale>  2 0.45179666E+03</rscale>
<asrwt>0</asrwt>
<pdfrwt beam="1">  1       21 0.44394239E-02 0.45179666E+03</pdfrwt>
<pdfrwt beam="2">  1       21 0.24858882E+00 0.45179666E+03</pdfrwt>
<totfact> 0.19312182E+04</totfact>
</mgrwt>
</event>
<event>
 7    0  0.4788920E-002  0.4536492E+03  0.7546771E-02  0.1026639E+00
         21   -1    0    0  502  501  0.00000000000E+00  0.00000000000E+00  0.93890772068E+02  0.93890772068E+02  0.00000000000E+00 0. -1.
         21   -1    0    0  501  502 -0.00000000000E+00 -0.00000000000E+00 -0.54797076318E+03  0.54797076318E+03  0.00000000000E+00 0. -1.
      99926    2    1    2    0    0  0.14210854715E-13  0.00000000000E+00 -0.45407999112E+03  0.64186153525E+03  0.45364919498E+03 0.  0.
      99925    2    3    3    0    0 -0.65867828767E+02  0.73024543739E+02 -0.21072611830E+03  0.35110429911E+03  0.26305432341E+03 0.  0.
         25    1    3    3    0    0  0.65867828767E+02 -0.73024543739E+02 -0.24335387282E+03  0.29075723614E+03  0.12509000000E+03 0.  0.
         25    1    4    4    0    0 -0.26780269082E+02  0.70174683989E+02 -0.81949591004E+02  0.16734668401E+03  0.12509000000E+03 0.  0.
         25    1    4    4    0    0 -0.39087559686E+02  0.28498597501E+01 -0.12877652729E+03  0.18375761509E+03  0.12509000000E+03 0.  0.
<mgrwt>
<rscale>  2 0.45364919E+03</rscale>
<asrwt>0</asrwt>
<pdfrwt beam="1">  1       21 0.13807467E-01 0.45364919E+03</pdfrwt>
<pdfrwt beam="2">  1       21 0.80583935E-01 0.45364919E+03</pdfrwt>
<totfact> 0.56775560E+04</totfact>
</mgrwt>
</event>
<event>
 7    0  0.4788920E-002  0.4507113E+03  0.7546771E-02  0.1027510E+00
         21   -1    0    0  502  501  0.00000000000E+00  0.00000000000E+00  0.18707134093E+03  0.18707134093E+03  0.00000000000E+00 0.  1.
         21   -1    0    0  501  502 -0.00000000000E+00 -0.00000000000E+00 -0.27147489354E+03  0.27147489354E+03  0.00000000000E+00 0.  1.
      99926    2    1    2    0    0  0.00000000000E+00  0.00000000000E+00 -0.84403552607E+02  0.45854623447E+03  0.45071131498E+03 0.  0.
      99925    2    3    3    0    0 -0.30311242267E+02  0.35489273709E+02  0.46743738491E+02  0.27139554647E+03  0.26323431691E+03 0.  0.
         25    1    4    4    0    0 -0.20958661061E+02 -0.22128123365E+02  0.13855747823E+02  0.12949289233E+03  0.12509000000E+03 0.  0.
         25    1    4    4    0    0 -0.93525812055E+01  0.57617397073E+02  0.32887990668E+02  0.14190265414E+03  0.12509000000E+03 0.  0.
         25    1    3    3    0    0  0.30311242267E+02 -0.35489273709E+02 -0.13114729110E+03  0.18715068800E+03  0.12509000000E+03 0.  0.
<mgrwt>
<rscale>  2 0.45071131E+03</rscale>
<asrwt>0</asrwt>
<pdfrwt beam="1">  1       21 0.27510491E-01 0.45071131E+03</pdfrwt>
<pdfrwt beam="2">  1       21 0.39922778E-01 0.45071131E+03</pdfrwt>
<totfact> 0.70670689E+04</totfact>
</mgrwt>
</event>
<event>
 7    0  0.4788920E-002  0.4519566E+03  0.7546771E-02  0.1027140E+00
         21   -1    0    0  502  501  0.00000000000E+00  0.00000000000E+00  0.35289277742E+03  0.35289277742E+03  0.00000000000E+00 0. -1.
         21   -1    0    0  501  502 -0.00000000000E+00 -0.00000000000E+00 -0.14470737201E+03  0.14470737201E+03  0.00000000000E+00 0. -1.
      99926    2    1    2    0    0  0.00000000000E+00  0.10824674490E-14  0.20818540541E+03  0.49760014944E+03  0.45195657501E+03 0.  0.
      99925    2    3    3    0    0  0.79138457456E+02  0.16844721875E+00  0.46868601207E+02  0.27866284508E+03  0.26304636782E+03 0.  0.
         25    1    4    4    0    0 -0.28531277467E+00  0.11099342354E+02  0.30132194954E+02  0.12914617330E+03  0.12509000000E+03 0.  0.
         25    1    3    3    0    0 -0.79138457456E+02 -0.16844721875E+00  0.16131680420E+03  0.21893730436E+03  0.12509000000E+03 0.  0.
         25    1    4    4    0    0  0.79423770231E+02 -0.10930895135E+02  0.16736406254E+02  0.14951667178E+03  0.12509000000E+03 0.  0.
<mgrwt>
<rscale>  2 0.45195658E+03</rscale>
<asrwt>0</asrwt>
<pdfrwt beam="1">  1       21 0.51895997E-01 0.45195658E+03</pdfrwt>
<pdfrwt beam="2">  1       21 0.21280496E-01 0.45195658E+03</pdfrwt>
<totfact> 0.67044746E+04</totfact>
</mgrwt>
</event>
<event>
 7    0  0.4788920E-002  0.4482512E+03  0.7546771E-02  0.1028245E+00
         21   -1    0    0  502  501  0.00000000000E+00  0.00000000000E+00  0.72448879696E+02  0.72448879696E+02  0.00000000000E+00 0.  1.
         21   -1    0    0  501  502 -0.00000000000E+00 -0.00000000000E+00 -0.69334789321E+03  0.69334789321E+03  0.00000000000E+00 0.  1.
      99926    2    1    2    0    0  0.00000000000E+00  0.00000000000E+00 -0.62089901351E+03  0.76579677291E+03  0.44825117112E+03 0.  0.
      99925    2    3    3    0    0  0.59085142606E+02  0.88684373068E+02 -0.40332527251E+03  0.49313982181E+03  0.26298219771E+03 0.  0.
         25    1    4    4    0    0  0.15967686776E+02  0.32771584092E+02 -0.25673149402E+03  0.28790191362E+03  0.12509000000E+03 0.  0.
         25    1    4    4    0    0  0.43117455831E+02  0.55912788976E+02 -0.14659377849E+03  0.20523790819E+03  0.12509000000E+03 0.  0.
         25    1    3    3    0    0 -0.59085142606E+02 -0.88684373068E+02 -0.21757374101E+03  0.27265695109E+03  0.12509000000E+03 0.  0.
<mgrwt>
<rscale>  2 0.44825117E+03</rscale>
<asrwt>0</asrwt>
<pdfrwt beam="1">  1       21 0.10654247E-01 0.44825117E+03</pdfrwt>
<pdfrwt beam="2">  1       21 0.10196292E+00 0.44825117E+03</pdfrwt>
<totfact> 0.52173367E+04</totfact>
</mgrwt>
</event>
<event>
 7    0  0.4788920E-002  0.4505977E+03  0.7546771E-02  0.1027544E+00
         21   -1    0    0  502  501  0.00000000000E+00  0.00000000000E+00  0.14492653146E+04  0.14492653146E+04  0.00000000000E+00 0.  1.
         21   -1    0    0  501  502 -0.00000000000E+00 -0.00000000000E+00 -0.35024352348E+02  0.35024352348E+02  0.00000000000E+00 0.  1.
      99926    2    1    2    0    0 -0.71054273576E-14  0.00000000000E+00  0.14142409622E+04  0.14842896669E+04  0.45059773202E+03 0.  0.
      99925    2    3    3    0    0 -0.33158792014E+02 -0.52360948663E+02  0.11889396523E+04  0.12192437034E+04  0.26293827605E+03 0.  0.
         25    1    3    3    0    0  0.33158792014E+02  0.52360948663E+02  0.22530130997E+03  0.26504596357E+03  0.12509000000E+03 0.  0.
         25    1    4    4    0    0 -0.29707658572E+02  0.51448201666E+01  0.47362730854E+03  0.49079461045E+03  0.12509000000E+03 0.  0.
         25    1    4    4    0    0 -0.34511334411E+01 -0.57505768830E+02  0.71531234374E+03  0.72844909292E+03  0.12509000000E+03 0.  0.
<mgrwt>
<rscale>  2 0.45059773E+03</rscale>
<asrwt>0</asrwt>
<pdfrwt beam="1">  1       21 0.21312721E+00 0.45059773E+03</pdfrwt>
<pdfrwt beam="2">  1       21 0.51506410E-02 0.45059773E+03</pdfrwt>
<totfact> 0.25011216E+04</totfact>
</mgrwt>
</event>
<event>
 7    0  0.4788920E-002  0.4558230E+03  0.7546771E-02  0.1026000E+00
         21   -1    0    0  502  501  0.00000000000E+00  0.00000000000E+00  0.28055277566E+03  0.28055277566E+03  0.00000000000E+00 0. -1.
         21   -1    0    0  501  502 -0.00000000000E+00 -0.00000000000E+00 -0.18514755727E+03  0.18514755727E+03  0.00000000000E+00 0. -1.
      99926    2    1    2    0    0  0.00000000000E+00 -0.35527136788E-14  0.95405218390E+02  0.46570033293E+03  0.45582304065E+03 0.  0.
      99925    2    3    3    0    0  0.34710179122E+02  0.28030389624E+02 -0.47111783353E+02  0.27089503741E+03  0.26300969922E+03 0.  0.
         25    1    4    4    0    0  0.13110368345E+02 -0.20201339493E+02 -0.70492396891E+00  0.12738909252E+03  0.12509000000E+03 0.  0.
         25    1    4    4    0    0  0.21599810778E+02  0.48231729117E+02 -0.46406859385E+02  0.14350594488E+03  0.12509000000E+03 0.  0.
         25    1    3    3    0    0 -0.34710179122E+02 -0.28030389624E+02  0.14251700174E+03  0.19480529552E+03  0.12509000000E+03 0.  0.
<mgrwt>
<rscale>  2 0.45582304E+03</rscale>
<asrwt>0</asrwt>
<pdfrwt beam="1">  1       21 0.41257761E-01 0.45582304E+03</pdfrwt>
<pdfrwt beam="2">  1       21 0.27227582E-01 0.45582304E+03</pdfrwt>
<totfact> 0.67316851E+04</totfact>
</mgrwt>
</event>
<event>
 7    0  0.4788920E-002  0.4582369E+03  0.7546771E-02  0.1025294E+00
         21   -1    0    0  502  501  0.00000000000E+00  0.00000000000E+00  0.50641796868E+02  0.50641796868E+02  0.00000000000E+00 0.  1.
         21   -1    0    0  501  502 -0.00000000000E+00 -0.00000000000E+00 -0.10365995065E+04  0.10365995065E+04  0.00000000000E+00 0.  1.
      99926    2    1    2    0    0  0.17763568394E-14  0.17763568394E-14 -0.98595770962E+03  0.10872413034E+04  0.45823688913E+03 0.  0.
      99925    2    3    3    0    0  0.10483642300E+02  0.29172238053E+01 -0.89309286537E+03  0.93106894874E+03  0.26297548206E+03 0.  0.
         25    1    4    4    0    0 -0.17183434933E+02 -0.25528511260E+02 -0.51428132055E+03  0.53016955787E+03  0.12509000000E+03 0.  0.
         25    1    4    4    0    0  0.27667077233E+02  0.28445735066E+02 -0.37881154482E+03  0.40089939086E+03  0.12509000000E+03 0.  0.
         25    1    3    3    0    0 -0.10483642300E+02 -0.29172238053E+01 -0.92864844245E+02  0.15617235462E+03  0.12509000000E+03 0.  0.
<mgrwt>
<rscale>  2 0.45823689E+03</rscale>
<asrwt>0</asrwt>
<pdfrwt beam="1">  1       21 0.74473234E-02 0.45823689E+03</pdfrwt>
<pdfrwt beam="2">  1       21 0.15244110E+00 0.45823689E+03</pdfrwt>
<totfact> 0.35046325E+04</totfact>
</mgrwt>
</event>
<event>
 7    0  0.4788920E-002  0.4629909E+03  0.7546771E-02  0.1023917E+00
         21   -1    0    0  502  501  0.00000000000E+00  0.00000000000E+00  0.16479408034E+03  0.16479408034E+03  0.00000000000E+00 0. -1.
         21   -1    0    0  501  502 -0.00000000000E+00 -0.00000000000E+00 -0.32519454942E+03  0.32519454942E+03  0.00000000000E+00 0. -1.
      99926    2    1    2    0    0  0.00000000000E+00  0.88817841970E-15 -0.16040046907E+03  0.48998862976E+03  0.46299087120E+03 0.  0.
      99925    2    3    3    0    0 -0.12025497066E+03 -0.17598424287E+01 -0.84662930200E+02  0.30065284891E+03  0.26222122110E+03 0.  0.
         25    1    3    3    0    0  0.12025497066E+03  0.17598424287E+01 -0.75737538874E+02  0.18933578085E+03  0.12509000000E+03 0.  0.
         25    1    4    4    0    0 -0.59968370962E+02 -0.18131905797E+02 -0.55727619363E+01  0.14001262550E+03  0.12509000000E+03 0.  0.
         25    1    4    4    0    0 -0.60286599703E+02  0.16372063369E+02 -0.79090168264E+02  0.16064022341E+03  0.12509000000E+03 0.  0.
<mgrwt>
<rscale>  2 0.46299087E+03</rscale>
<asrwt>0</asrwt>
<pdfrwt beam="1">  1       21 0.24234424E-01 0.46299087E+03</pdfrwt>
<pdfrwt beam="2">  1       21 0.47822728E-01 0.46299087E+03</pdfrwt>
<totfact> 0.61955510E+04</totfact>
</mgrwt>
</event>
<event>
 7    0  0.4788920E-002  0.4548688E+03  0.7546771E-02  0.1026280E+00
         21   -1    0    0  502  501  0.00000000000E+00  0.00000000000E+00  0.46707021625E+03  0.46707021625E+03  0.00000000000E+00 0. -1.
         21   -1    0    0  501  502 -0.00000000000E+00 -0.00000000000E+00 -0.11074654396E+03  0.11074654396E+03  0.00000000000E+00 0. -1.
      99926    2    1    2    0    0  0.00000000000E+00  0.00000000000E+00  0.35632367230E+03  0.57781676021E+03  0.45486882608E+03 0.  0.
      99925    2    3    3    0    0 -0.10369030531E+02  0.11193989861E+03  0.23931854842E+03  0.37293688123E+03  0.26300283662E+03 0.  0.
         25    1    3    3    0    0  0.10369030531E+02 -0.11193989861E+03  0.11700512388E+03  0.20487987898E+03  0.12509000000E+03 0.  0.
         25    1    4    4    0    0 -0.31511465954E+02  0.86817252351E+02  0.11355100240E+03  0.19253972587E+03  0.12509000000E+03 0.  0.
         25    1    4    4    0    0  0.21142435423E+02  0.25122646261E+02  0.12576754602E+03  0.18039715536E+03  0.12509000000E+03 0.  0.
<mgrwt>
<rscale>  2 0.45486883E+03</rscale>
<asrwt>0</asrwt>
<pdfrwt beam="1">  1       21 0.68686796E-01 0.45486883E+03</pdfrwt>
<pdfrwt beam="2">  1       21 0.16286257E-01 0.45486883E+03</pdfrwt>
<totfact> 0.60127243E+04</totfact>
</mgrwt>
</event>
<event>
 7    0  0.4788920E-002  0.4500218E+03  0.7546771E-02  0.1027716E+00
         21   -1    0    0  502  501  0.00000000000E+00  0.00000000000E+00  0.84324982503E+02  0.84324982503E+02  0.00000000000E+00 0. -1.
         21   -1    0    0  501  502 -0.00000000000E+00 -0.00000000000E+00 -0.60041412564E+03  0.60041412564E+03  0.00000000000E+00 0. -1.
      99926    2    1    2    0    0  0.00000000000E+00  0.00000000000E+00 -0.51608914314E+03  0.68473910814E+03  0.45002182453E+03 0.  0.
      99925    2    3    3    0    0  0.70942573564E+02  0.26478946949E+02 -0.44440480980E+03  0.52188906939E+03  0.26294216551E+03 0.  0.
         25    1    3    3    0    0 -0.70942573564E+02 -0.26478946949E+02 -0.71684333336E+02  0.16285003875E+03  0.12509000000E+03 0.  0.
         25    1    4    4    0    0  0.54093385479E+01  0.40383021729E+02 -0.20459435328E+03  0.24324145798E+03  0.12509000000E+03 0.  0.
         25    1    4    4    0    0  0.65533235016E+02 -0.13904074779E+02 -0.23981045652E+03  0.27864761141E+03  0.12509000000E+03 0.  0.
<mgrwt>
<rscale>  2 0.45002182E+03</rscale>
<asrwt>0</asrwt>
<pdfrwt beam="1">  1       21 0.12400733E-01 0.45002182E+03</pdfrwt>
<pdfrwt beam="2">  1       21 0.88296196E-01 0.45002182E+03</pdfrwt>
<totfact> 0.55898453E+04</totfact>
</mgrwt>
</event>
<event>
 7    0  0.4788920E-002  0.4561205E+03  0.7546771E-02  0.1025912E+00
         21   -1    0    0  502  501  0.00000000000E+00  0.00000000000E+00  0.30602178662E+02  0.30602178662E+02  0.00000000000E+00 0.  1.
         21   -1    0    0  501  502 -0.00000000000E+00 -0.00000000000E+00 -0.16996008200E+04  0.16996008200E+04  0.00000000000E+00 0.  1.
      99926    2    1    2    0    0 -0.14210854715E-13  0.35527136788E-14 -0.16689986414E+04  0.17302029987E+04  0.45612054524E+03 0.  0.
      99925    2    3    3    0    0  0.75011983686E+02 -0.89032089078E+01 -0.13742641356E+04  0.14012318725E+04  0.26295015026E+03 0.  0.
         25    1    3    3    0    0 -0.75011983686E+02  0.89032089078E+01 -0.29473450581E+03  0.32897112615E+03  0.12509000000E+03 0.  0.
         25    1    4    4    0    0  0.14158839516E+02  0.27310333782E+02 -0.71028997827E+03  0.72187650495E+03  0.12509000000E+03 0.  0.
         25    1    4    4    0    0  0.60853144170E+02 -0.36213542690E+02 -0.66397415729E+03  0.67935536759E+03  0.12509000000E+03 0.  0.
<mgrwt>
<rscale>  2 0.45612055E+03</rscale>
<asrwt>0</asrwt>
<pdfrwt beam="1">  1       21 0.45003198E-02 0.45612055E+03</pdfrwt>
<pdfrwt beam="2">  1       21 0.24994133E+00 0.45612055E+03</pdfrwt>
<totfact> 0.18478685E+04</totfact>
</mgrwt>
</event>
<event>
 7    0  0.4788920E-002  0.4129644E+03  0.7546771E-02  0.1039381E+00
         21   -1    0    0  502  501  0.00000000000E+00  0.00000000000E+00  0.13477987930E+03  0.13477987930E+03  0.00000000000E+00 0.  1.
         21   -1    0    0  501  502 -0.00000000000E+00 -0.00000000000E+00 -0.31632982289E+03  0.31632982289E+03  0.00000000000E+00 0.  1.
      99926    2    1    2    0    0  0.00000000000E+00  0.00000000000E+00 -0.18154994359E+03  0.45110970219E+03  0.41296438272E+03 0.  0.
      99925    2    3    3    0    0  0.32356728660E+02 -0.33138644970E+02 -0.68075182705E+02  0.27598358439E+03  0.26341522483E+03 0.  0.
         25    1    4    4    0    0 -0.63339135937E+01  0.17128480078E+01 -0.21009845986E+01  0.12527958551E+03  0.12509000000E+03 0.  0.
         25    1    3    3    0    0 -0.32356728660E+02  0.33138644970E+02 -0.11347476088E+03  0.17512611780E+03  0.12509000000E+03 0.  0.
         25    1    4    4    0    0  0.38690642253E+02 -0.34851492978E+02 -0.65974198106E+02  0.15070399887E+03  0.12509000000E+03 0.  0.
<mgrwt>
<rscale>  2 0.41296438E+03</rscale>
<asrwt>0</asrwt>
<pdfrwt beam="1">  1       21 0.19820571E-01 0.41296438E+03</pdfrwt>
<pdfrwt beam="2">  1       21 0.46519091E-01 0.41296438E+03</pdfrwt>
<totfact> 0.97576711E+04</totfact>
</mgrwt>
</event>
<event>
 7    0  0.4788920E-002  0.4575373E+03  0.7546771E-02  0.1025498E+00
         21   -1    0    0  502  501  0.00000000000E+00  0.00000000000E+00  0.10680854923E+03  0.10680854923E+03  0.00000000000E+00 0.  1.
         21   -1    0    0  501  502 -0.00000000000E+00 -0.00000000000E+00 -0.48998967620E+03  0.48998967620E+03  0.00000000000E+00 0.  1.
      99926    2    1    2    0    0  0.00000000000E+00  0.00000000000E+00 -0.38318112697E+03  0.59679822544E+03  0.45753726167E+03 0.  0.
      99925    2    3    3    0    0  0.37770402641E+01 -0.11414073951E+03 -0.21716484937E+03  0.35962468775E+03  0.26292008252E+03 0.  0.
         25    1    3    3    0    0 -0.37770402641E+01  0.11414073951E+03 -0.16601627760E+03  0.23717353768E+03  0.12509000000E+03 0.  0.
         25    1    4    4    0    0  0.35259711140E+02 -0.76502292954E+02 -0.96602811193E+02  0.17909622913E+03  0.12509000000E+03 0.  0.
         25    1    4    4    0    0 -0.31482670876E+02 -0.37638446559E+02 -0.12056203818E+03  0.18052845863E+03  0.12509000000E+03 0.  0.
<mgrwt>
<rscale>  2 0.45753726E+03</rscale>
<asrwt>0</asrwt>
<pdfrwt beam="1">  1       21 0.15707139E-01 0.45753726E+03</pdfrwt>
<pdfrwt beam="2">  1       21 0.72057306E-01 0.45753726E+03</pdfrwt>
<totfact> 0.57709980E+04</totfact>
</mgrwt>
</event>
<event>
 7    0  0.4788920E-002  0.4510769E+03  0.7546771E-02  0.1027401E+00
         21   -1    0    0  502  501  0.00000000000E+00  0.00000000000E+00  0.78831803861E+03  0.78831803861E+03  0.00000000000E+00 0. -1.
         21   -1    0    0  501  502 -0.00000000000E+00 -0.00000000000E+00 -0.64526741844E+02  0.64526741844E+02  0.00000000000E+00 0. -1.
      99926    2    1    2    0    0  0.00000000000E+00  0.00000000000E+00  0.72379129676E+03  0.85284478045E+03  0.45107690949E+03 0.  0.
      99925    2    3    3    0    0 -0.97360991209E+02 -0.32687481935E+02  0.38590094984E+03  0.47819156917E+03  0.26305892809E+03 0.  0.
         25    1    4    4    0    0 -0.91808821119E+01 -0.88970869383E+00  0.15575902581E+03  0.19998365533E+03  0.12509000000E+03 0.  0.
         25    1    3    3    0    0  0.97360991209E+02  0.32687481935E+02  0.33789034692E+03  0.37465321129E+03  0.12509000000E+03 0.  0.
         25    1    4    4    0    0 -0.88180109097E+02 -0.31797773241E+02  0.23014192403E+03  0.27820791383E+03  0.12509000000E+03 0.  0.
<mgrwt>
<rscale>  2 0.45107691E+03</rscale>
<asrwt>0</asrwt>
<pdfrwt beam="1">  1       21 0.11592912E+00 0.45107691E+03</pdfrwt>
<pdfrwt beam="2">  1       21 0.94892272E-02 0.45107691E+03</pdfrwt>
<totfact> 0.46734040E+04</totfact>
</mgrwt>
</event>
<event>
 7    0  0.4788920E-002  0.4561010E+03  0.7546771E-02  0.1025918E+00
         21   -1    0    0  502  501  0.00000000000E+00  0.00000000000E+00  0.76146481366E+02  0.76146481366E+02  0.00000000000E+00 0. -1.
         21   -1    0    0  501  502 -0.00000000000E+00 -0.00000000000E+00 -0.68298680340E+03  0.68298680340E+03  0.00000000000E+00 0. -1.
      99926    2    1    2    0    0 -0.71054273576E-14  0.00000000000E+00 -0.60684032203E+03  0.75913328477E+03  0.45610104976E+03 0.  0.
      99925    2    3    3    0    0 -0.37117492121E+02  0.10777814942E+03 -0.36752150441E+03  0.46602094746E+03  0.26288710420E+03 0.  0.
         25    1    4    4    0    0 -0.44820697062E+01  0.69795571266E+02 -0.13284941819E+03  0.19541746782E+03  0.12509000000E+03 0.  0.
         25    1    3    3    0    0  0.37117492121E+02 -0.10777814942E+03 -0.23931881762E+03  0.29311233731E+03  0.12509000000E+03 0.  0.
         25    1    4    4    0    0 -0.32635422414E+02  0.37982578150E+02 -0.23467208623E+03  0.27060347964E+03  0.12509000000E+03 0.  0.
<mgrwt>
<rscale>  2 0.45610105E+03</rscale>
<asrwt>0</asrwt>
<pdfrwt beam="1">  1       21 0.11198012E-01 0.45610105E+03</pdfrwt>
<pdfrwt beam="2">  1       21 0.10043923E+00 0.45610105E+03</pdfrwt>
<totfact> 0.49376255E+04</totfact>
</mgrwt>
</event>
<event>
 7    0  0.4788920E-002  0.4503772E+03  0.7546771E-02  0.1027610E+00
         21   -1    0    0  502  501  0.00000000000E+00  0.00000000000E+00  0.35666889505E+03  0.35666889505E+03  0.00000000000E+00 0. -1.
         21   -1    0    0  501  502 -0.00000000000E+00 -0.00000000000E+00 -0.14217641984E+03  0.14217641984E+03  0.00000000000E+00 0. -1.
      99926    2    1    2    0    0  0.00000000000E+00  0.00000000000E+00  0.21449247521E+03  0.49884531489E+03  0.45037720442E+03 0.  0.
      99925    2    3    3    0    0  0.60611669530E+02 -0.10163747079E+02  0.35983386980E+02  0.27237218421E+03  0.26289679792E+03 0.  0.
         25    1    4    4    0    0  0.54844794445E+02 -0.35214534386E+02  0.59116244432E+01  0.14117531765E+03  0.12509000000E+03 0.  0.
         25    1    4    4    0    0  0.57668750841E+01  0.25050787307E+02  0.30071762537E+02  0.13119686656E+03  0.12509000000E+03 0.  0.
         25    1    3    3    0    0 -0.60611669530E+02  0.10163747079E+02  0.17850908823E+03  0.22647313068E+03  0.12509000000E+03 0.  0.
<mgrwt>
<rscale>  2 0.45037720E+03</rscale>
<asrwt>0</asrwt>
<pdfrwt beam="1">  1       21 0.52451308E-01 0.45037720E+03</pdfrwt>
<pdfrwt beam="2">  1       21 0.20908297E-01 0.45037720E+03</pdfrwt>
<totfact> 0.67806051E+04</totfact>
</mgrwt>
</event>
<event>
 7    0  0.4788920E-002  0.4763809E+03  0.7546771E-02  0.1020135E+00
         21   -1    0    0  502  501  0.00000000000E+00  0.00000000000E+00  0.10251313782E+04  0.10251313782E+04  0.00000000000E+00 0.  1.
         21   -1    0    0  501  502 -0.00000000000E+00 -0.00000000000E+00 -0.55343820104E+02  0.55343820104E+02  0.00000000000E+00 0.  1.
      99926    2    1    2    0    0  0.00000000000E+00  0.00000000000E+00  0.96978755811E+03  0.10804751983E+04  0.47638088366E+03 0.  0.
      99925    2    3    3    0    0 -0.35638338756E+02 -0.17649829862E+02  0.31314707010E+03  0.41084407130E+03  0.26296417194E+03 0.  0.
         25    1    3    3    0    0  0.35638338756E+02  0.17649829862E+02  0.65664048800E+03  0.66963112702E+03  0.12509000000E+03 0.  0.
         25    1    4    4    0    0 -0.57594040447E+02 -0.18502566290E+02  0.16359191913E+03  0.21463746774E+03  0.12509000000E+03 0.  0.
         25    1    4    4    0    0  0.21955701692E+02  0.85273642788E+00  0.14955515097E+03  0.19620660356E+03  0.12509000000E+03 0.  0.
<mgrwt>
<rscale>  2 0.47638088E+03</rscale>
<asrwt>0</asrwt>
<pdfrwt beam="1">  1       21 0.15075460E+00 0.47638088E+03</pdfrwt>
<pdfrwt beam="2">  1       21 0.81387977E-02 0.47638088E+03</pdfrwt>
<totfact> 0.30723712E+04</totfact>
</mgrwt>
</event>
<event>
 7    0  0.4788920E-002  0.4557457E+03  0.7546771E-02  0.1026022E+00
         21   -1    0    0  502  501  0.00000000000E+00  0.00000000000E+00  0.42961354070E+03  0.42961354070E+03  0.00000000000E+00 0. -1.
         21   -1    0    0  501  502 -0.00000000000E+00 -0.00000000000E+00 -0.12086686146E+03  0.12086686146E+03  0.00000000000E+00 0. -1.
      99926    2    1    2    0    0 -0.71054273576E-14  0.00000000000E+00  0.30874667924E+03  0.55048040216E+03  0.45574571992E+03 0.  0.
      99925    2    3    3    0    0  0.55512697590E+02  0.92511743526E+02  0.15418646467E+03  0.32425827612E+03  0.26406416163E+03 0.  0.
         25    1    4    4    0    0  0.14894804219E+02  0.44524959625E+02  0.29600462451E+02  0.13685036609E+03  0.12509000000E+03 0.  0.
         25    1    3    3    0    0 -0.55512697590E+02 -0.92511743526E+02  0.15456021457E+03  0.22622212604E+03  0.12509000000E+03 0.  0.
         25    1    4    4    0    0  0.40617893371E+02  0.47986783901E+02  0.12458600222E+03  0.18740791002E+03  0.12509000000E+03 0.  0.
<mgrwt>
<rscale>  2 0.45574572E+03</rscale>
<asrwt>0</asrwt>
<pdfrwt beam="1">  1       21 0.63178461E-01 0.45574572E+03</pdfrwt>
<pdfrwt beam="2">  1       21 0.17774539E-01 0.45574572E+03</pdfrwt>
<totfact> 0.61471294E+04</totfact>
</mgrwt>
</event>
<event>
 6    0  0.4788920E-002  0.4536021E+03  0.7546771E-02  0.1026653E+00
         21   -1    0    0  502  501  0.00000000000E+00  0.00000000000E+00  0.69871064892E+03  0.69871064892E+03  0.00000000000E+00 0. -1.
         21   -1    0    0  501  502 -0.00000000000E+00 -0.00000000000E+00 -0.73619482645E+02  0.73619482645E+02  0.00000000000E+00 0. -1.
      99926    2    1    2    0    0  0.35527136788E-14  0.00000000000E+00  0.62509116627E+03  0.77233013156E+03  0.45360210093E+03 0.  0.
         25    1    3    3    0    0 -0.32485022137E+02 -0.47429537165E+02  0.28121595355E+03  0.31310502757E+03  0.12509000000E+03 0.  0.
         25    1    3    3    0    0  0.20774769585E+02 -0.56425579883E+02  0.18804701647E+03  0.23371911693E+03  0.12509000000E+03 0.  0.
         25    1    3    3    0    0  0.11710252552E+02  0.10385511705E+03  0.15582819625E+03  0.22550598706E+03  0.12509000000E+03 0.  0.
<mgrwt>
<rscale>  2 0.45360210E+03</rscale>
<asrwt>0</asrwt>
<pdfrwt beam="1">  1       21 0.10275156E+00 0.45360210E+03</pdfrwt>
<pdfrwt beam="2">  1       21 0.10826395E-01 0.45360210E+03</pdfrwt>
<totfact> 0.49675141E+04</totfact>
</mgrwt>
</event>
<event>
 7    0  0.4788920E-002  0.4539731E+03  0.7546771E-02  0.1026544E+00
         21   -1    0    0  502  501  0.00000000000E+00  0.00000000000E+00  0.20767443001E+03  0.20767443001E+03  0.00000000000E+00 0. -1.
         21   -1    0    0  501  502 -0.00000000000E+00 -0.00000000000E+00 -0.24809457588E+03  0.24809457588E+03  0.00000000000E+00 0. -1.
      99926    2    1    2    0    0  0.00000000000E+00  0.00000000000E+00 -0.40420145865E+02  0.45576900589E+03  0.45397312535E+03 0.  0.
      99925    2    3    3    0    0  0.90506955601E+02 -0.61523547571E+02 -0.50352624907E+02  0.28926729972E+03  0.26298959663E+03 0.  0.
         25    1    3    3    0    0 -0.90506955601E+02  0.61523547571E+02  0.99324790418E+01  0.16650170617E+03  0.12509000000E+03 0.  0.
         25    1    4    4    0    0  0.38726631532E+02  0.61818631501E+01 -0.47569189053E+01  0.13117966229E+03  0.12509000000E+03 0.  0.
         25    1    4    4    0    0  0.51780324069E+02 -0.67705410721E+02 -0.45595706001E+02  0.15808763743E+03  0.12509000000E+03 0.  0.
<mgrwt>
<rscale>  2 0.45397313E+03</rscale>
<asrwt>0</asrwt>
<pdfrwt beam="1">  1       21 0.30540357E-01 0.45397313E+03</pdfrwt>
<pdfrwt beam="2">  1       21 0.36484496E-01 0.45397313E+03</pdfrwt>
<totfact> 0.69053541E+04</totfact>
</mgrwt>
</event>
<event>
 7    0  0.4788920E-002  0.4525111E+03  0.7546771E-02  0.1026976E+00
         21   -1    0    0  502  501  0.00000000000E+00  0.00000000000E+00  0.10051087798E+04  0.10051087798E+04  0.00000000000E+00 0.  1.
         21   -1    0    0  501  502 -0.00000000000E+00 -0.00000000000E+00 -0.50931368156E+02  0.50931368156E+02  0.00000000000E+00 0.  1.
      99926    2    1    2    0    0  0.14210854715E-13  0.00000000000E+00  0.95417741164E+03  0.10560401480E+04  0.45251106197E+03 0.  0.
      99925    2    3    3    0    0  0.66434936608E+02 -0.84344831584E+02  0.66549070438E+03  0.72360192141E+03  0.26304792650E+03 0.  0.
         25    1    4    4    0    0  0.68600885125E+02 -0.23089510601E+02  0.32240789614E+03  0.35331793973E+03  0.12509000000E+03 0.  0.
         25    1    3    3    0    0 -0.66434936608E+02  0.84344831584E+02  0.28868670727E+03  0.33243822655E+03  0.12509000000E+03 0.  0.
         25    1    4    4    0    0 -0.21659485169E+01 -0.61255320983E+02  0.34308280823E+03  0.37028398168E+03  0.12509000000E+03 0.  0.
<mgrwt>
<rscale>  2 0.45251106E+03</rscale>
<asrwt>0</asrwt>
<pdfrwt beam="1">  1       21 0.14781010E+00 0.45251106E+03</pdfrwt>
<pdfrwt beam="2">  1       21 0.74899077E-02 0.45251106E+03</pdfrwt>
<totfact> 0.37785212E+04</totfact>
</mgrwt>
</event>
<event>
 7    0  0.4788920E-002  0.4598389E+03  0.7546771E-02  0.1024828E+00
         21   -1    0    0  502  501  0.00000000000E+00  0.00000000000E+00  0.32613072205E+02  0.32613072205E+02  0.00000000000E+00 0. -1.
         21   -1    0    0  501  502 -0.00000000000E+00 -0.00000000000E+00 -0.16209127447E+04  0.16209127447E+04  0.00000000000E+00 0. -1.
      99926    2    1    2    0    0  0.17763568394E-14  0.00000000000E+00 -0.15882996725E+04  0.16535258169E+04  0.45983886039E+03 0.  0.
      99925    2    3    3    0    0 -0.89764584319E+01  0.11740444484E+03 -0.98004674562E+03  0.10214787367E+04  0.26279803159E+03 0.  0.
         25    1    4    4    0    0  0.69188043333E+01  0.10077647611E+03 -0.54717584359E+03  0.57030928443E+03  0.12509000000E+03 0.  0.
         25    1    4    4    0    0 -0.15895262765E+02  0.16627968738E+02 -0.43287090202E+03  0.45116945225E+03  0.12509000000E+03 0.  0.
         25    1    3    3    0    0  0.89764584319E+01 -0.11740444484E+03 -0.60825292692E+03  0.63204708027E+03  0.12509000000E+03 0.  0.
<mgrwt>
<rscale>  2 0.45983886E+03</rscale>
<asrwt>0</asrwt>
<pdfrwt beam="1">  1       21 0.47960399E-02 0.45983886E+03</pdfrwt>
<pdfrwt beam="2">  1       21 0.23836953E+00 0.45983886E+03</pdfrwt>
<totfact> 0.19503699E+04</totfact>
</mgrwt>
</event>
<event>
 7    0  0.4788920E-002  0.4581172E+03  0.7546771E-02  0.1025329E+00
         21   -1    0    0  502  501  0.00000000000E+00  0.00000000000E+00  0.70327041623E+02  0.70327041623E+02  0.00000000000E+00 0. -1.
         21   -1    0    0  501  502 -0.00000000000E+00 -0.00000000000E+00 -0.74605516625E+03  0.74605516625E+03  0.00000000000E+00 0. -1.
      99926    2    1    2    0    0 -0.35527136788E-14  0.71054273576E-14 -0.67572812463E+03  0.81638220787E+03  0.45811724582E+03 0.  0.
      99925    2    3    3    0    0 -0.17362690526E+02 -0.55861933209E+02 -0.24524235087E+03  0.36428981896E+03  0.26294722462E+03 0.  0.
         25    1    4    4    0    0 -0.33396299357E+02  0.22064374151E+01 -0.10235781046E+03  0.16506002132E+03  0.12509000000E+03 0.  0.
         25    1    4    4    0    0  0.16033608831E+02 -0.58068370624E+02 -0.14288454041E+03  0.19922979764E+03  0.12509000000E+03 0.  0.
         25    1    3    3    0    0  0.17362690526E+02  0.55861933209E+02 -0.43048577376E+03  0.45209238891E+03  0.12509000000E+03 0.  0.
<mgrwt>
<rscale>  2 0.45811725E+03</rscale>
<asrwt>0</asrwt>
<pdfrwt beam="1">  1       21 0.10342211E-01 0.45811725E+03</pdfrwt>
<pdfrwt beam="2">  1       21 0.10971400E+00 0.45811725E+03</pdfrwt>
<totfact> 0.45850743E+04</totfact>
</mgrwt>
</event>
<event>
 7    0  0.4788920E-002  0.4538017E+03  0.7546771E-02  0.1026594E+00
         21   -1    0    0  502  501  0.00000000000E+00  0.00000000000E+00  0.13589301414E+04  0.13589301414E+04  0.00000000000E+00 0.  1.
         21   -1    0    0  501  502 -0.00000000000E+00 -0.00000000000E+00 -0.37885686710E+02  0.37885686710E+02  0.00000000000E+00 0.  1.
      99926    2    1    2    0    0  0.00000000000E+00  0.00000000000E+00  0.13210444547E+04  0.13968158281E+04  0.45380172586E+03 0.  0.
      99925    2    3    3    0    0  0.47739190662E+02 -0.49916320374E+02  0.55998302425E+03  0.62245630026E+03  0.26286914791E+03 0.  0.
         25    1    4    4    0    0 -0.80370614723E+01 -0.49227081609E+02  0.26692525139E+03  0.29897240316E+03  0.12509000000E+03 0.  0.
         25    1    3    3    0    0 -0.47739190662E+02  0.49916320374E+02  0.76106143045E+03  0.77435952786E+03  0.12509000000E+03 0.  0.
         25    1    4    4    0    0  0.55776252134E+02 -0.68923876555E+00  0.29305777286E+03  0.32348389710E+03  0.12509000000E+03 0.  0.
<mgrwt>
<rscale>  2 0.45380173E+03</rscale>
<asrwt>0</asrwt>
<pdfrwt beam="1">  1       21 0.19984264E+00 0.45380173E+03</pdfrwt>
<pdfrwt beam="2">  1       21 0.55714254E-02 0.45380173E+03</pdfrwt>
<totfact> 0.26664420E+04</totfact>
</mgrwt>
</event>
<event>
 7    0  0.4788920E-002  0.4532792E+03  0.7546771E-02  0.1026749E+00
         21   -1    0    0  502  501  0.00000000000E+00  0.00000000000E+00  0.85762953149E+03  0.85762953149E+03  0.00000000000E+00 0. -1.
         21   -1    0    0  501  502 -0.00000000000E+00 -0.00000000000E+00 -0.59892433401E+02  0.59892433401E+02  0.00000000000E+00 0. -1.
      99926    2    1    2    0    0  0.00000000000E+00 -0.35527136788E-14  0.79773709809E+03  0.91752196489E+03  0.45327924990E+03 0.  0.
      99925    2    3    3    0    0 -0.24396303491E+02 -0.27235836945E+02  0.28869814853E+03  0.39206489652E+03  0.26273806667E+03 0.  0.
         25    1    4    4    0    0  0.64907156298E+01  0.17149170131E+02  0.11185939132E+03  0.16880833792E+03  0.12509000000E+03 0.  0.
         25    1    4    4    0    0 -0.30887019121E+02 -0.44385007076E+02  0.17683875721E+03  0.22325655859E+03  0.12509000000E+03 0.  0.
         25    1    3    3    0    0  0.24396303491E+02  0.27235836945E+02  0.50903894956E+03  0.52545706838E+03  0.12509000000E+03 0.  0.
<mgrwt>
<rscale>  2 0.45327925E+03</rscale>
<asrwt>0</asrwt>
<pdfrwt beam="1">  1       21 0.12612198E+00 0.45327925E+03</pdfrwt>
<pdfrwt beam="2">  1       21 0.88077113E-02 0.45327925E+03</pdfrwt>
<totfact> 0.43061508E+04</totfact>
</mgrwt>
</event>
<event>
 7    0  0.4788920E-002  0.4534078E+03  0.7546771E-02  0.1026711E+00
         21   -1    0    0  502  501  0.00000000000E+00  0.00000000000E+00  0.16114368039E+03  0.16114368039E+03  0.00000000000E+00 0.  1.
         21   -1    0    0  501  502 -0.00000000000E+00 -0.00000000000E+00 -0.31893685756E+03  0.31893685756E+03  0.00000000000E+00 0.  1.
      99926    2    1    2    0    0  0.00000000000E+00 -0.71054273576E-14 -0.15779317717E+03  0.48008053795E+03  0.45340780336E+03 0.  0.
      99925    2    3    3    0    0  0.47807971245E+02 -0.39997344700E+02 -0.19772889648E+03  0.33472662684E+03  0.26279232963E+03 0.  0.
         25    1    4    4    0    0  0.42112803057E+02 -0.54849704960E+02 -0.11974958286E+03  0.18646567784E+03  0.12509000000E+03 0.  0.
         25    1    3    3    0    0 -0.47807971245E+02  0.39997344700E+02  0.39935719310E+02  0.14535391111E+03  0.12509000000E+03 0.  0.
         25    1    4    4    0    0  0.56951681888E+01  0.14852360260E+02 -0.77979313619E+02  0.14826094900E+03  0.12509000000E+03 0.  0.
<mgrwt>
<rscale>  2 0.45340780E+03</rscale>
<asrwt>0</asrwt>
<pdfrwt beam="1">  1       21 0.23697600E-01 0.45340780E+03</pdfrwt>
<pdfrwt beam="2">  1       21 0.46902479E-01 0.45340780E+03</pdfrwt>
<totfact> 0.67543851E+04</totfact>
</mgrwt>
</event>
<event>
 7    0  0.4788920E-002  0.4475140E+03  0.7546771E-02  0.1028466E+00
         21   -1    0    0  502  501  0.00000000000E+00  0.00000000000E+00  0.21286075920E+03  0.21286075920E+03  0.00000000000E+00 0.  1.
         21   -1    0    0  501  502 -0.00000000000E+00 -0.00000000000E+00 -0.23521105895E+03  0.23521105895E+03  0.00000000000E+00 0.  1.
      99926    2    1    2    0    0  0.88817841970E-15  0.00000000000E+00 -0.22350299746E+02  0.44807181815E+03  0.44751404260E+03 0.  0.
      99925    2    3    3    0    0  0.61151255145E+01  0.72134760358E+02 -0.91670768293E+02  0.28777941698E+03  0.26300692893E+03 0.  0.
         25    1    4    4    0    0  0.29161492377E+02  0.50389831082E+02 -0.17875040462E+02  0.13912782930E+03  0.12509000000E+03 0.  0.
         25    1    4    4    0    0 -0.23046366862E+02  0.21744929276E+02 -0.73795727831E+02  0.14865158768E+03  0.12509000000E+03 0.  0.
         25    1    3    3    0    0 -0.61151255145E+01 -0.72134760358E+02  0.69320468546E+02  0.16029240117E+03  0.12509000000E+03 0.  0.
<mgrwt>
<rscale>  2 0.44751404E+03</rscale>
<asrwt>0</asrwt>
<pdfrwt beam="1">  1       21 0.31303053E-01 0.44751404E+03</pdfrwt>
<pdfrwt beam="2">  1       21 0.34589862E-01 0.44751404E+03</pdfrwt>
<totfact> 0.73340017E+04</totfact>
</mgrwt>
</event>
<event>
 7    0  0.4788920E-002  0.4516458E+03  0.7546771E-02  0.1027232E+00
         21   -1    0    0  502  501  0.00000000000E+00  0.00000000000E+00  0.63271808435E+02  0.63271808435E+02  0.00000000000E+00 0. -1.
         21   -1    0    0  501  502 -0.00000000000E+00 -0.00000000000E+00 -0.80598275111E+03  0.80598275111E+03  0.00000000000E+00 0. -1.
      99926    2    1    2    0    0  0.00000000000E+00  0.00000000000E+00 -0.74271094268E+03  0.86925455955E+03  0.45164581800E+03 0.  0.
      99925    2    3    3    0    0  0.65586459546E+02  0.82663146540E+02 -0.40937723816E+03  0.49791422220E+03  0.26304765742E+03 0.  0.
         25    1    4    4    0    0  0.71994897719E+02  0.47193007902E+02 -0.19565868613E+03  0.24766968901E+03  0.12509000000E+03 0.  0.
         25    1    3    3    0    0 -0.65586459546E+02 -0.82663146540E+02 -0.33333370452E+03  0.37134033735E+03  0.12509000000E+03 0.  0.
         25    1    4    4    0    0 -0.64084381733E+01  0.35470138638E+02 -0.21371855203E+03  0.25024453320E+03  0.12509000000E+03 0.  0.
<mgrwt>
<rscale>  2 0.45164582E+03</rscale>
<asrwt>0</asrwt>
<pdfrwt beam="1">  1       21 0.93046778E-02 0.45164582E+03</pdfrwt>
<pdfrwt beam="2">  1       21 0.11852687E+00 0.45164582E+03</pdfrwt>
<totfact> 0.45780783E+04</totfact>
</mgrwt>
</event>
<event>
 7    0  0.4788920E-002  0.4614690E+03  0.7546771E-02  0.1024356E+00
         21   -1    0    0  502  501  0.00000000000E+00  0.00000000000E+00  0.73187235897E+02  0.73187235897E+02  0.00000000000E+00 0. -1.
         21   -1    0    0  501  502 -0.00000000000E+00 -0.00000000000E+00 -0.72742751015E+03  0.72742751015E+03  0.00000000000E+00 0. -1.
      99926    2    1    2    0    0  0.00000000000E+00 -0.14210854715E-13 -0.65424027425E+03  0.80061474604E+03  0.46146899693E+03 0.  0.
      99925    2    3    3    0    0 -0.65507576879E+02 -0.93774260385E+02 -0.46755027710E+03  0.54845305650E+03  0.26289282802E+03 0.  0.
         25    1    3    3    0    0  0.65507576879E+02  0.93774260385E+02 -0.18668999715E+03  0.25216168954E+03  0.12509000000E+03 0.  0.
         25    1    4    4    0    0 -0.40692769973E+02 -0.16811057314E+02 -0.16909602875E+03  0.21489413257E+03  0.12509000000E+03 0.  0.
         25    1    4    4    0    0 -0.24814806906E+02 -0.76963203071E+02 -0.29845424836E+03  0.33355892393E+03  0.12509000000E+03 0.  0.
<mgrwt>
<rscale>  2 0.46146900E+03</rscale>
<asrwt>0</asrwt>
<pdfrwt beam="1">  1       21 0.10762829E-01 0.46146900E+03</pdfrwt>
<pdfrwt beam="2">  1       21 0.10697463E+00 0.46146900E+03</pdfrwt>
<totfact> 0.45386702E+04</totfact>
</mgrwt>
</event>
<event>
 7    0  0.4788920E-002  0.4544939E+03  0.7546771E-02  0.1026390E+00
         21   -1    0    0  502  501  0.00000000000E+00  0.00000000000E+00  0.33399139922E+02  0.33399139922E+02  0.00000000000E+00 0.  1.
         21   -1    0    0  501  502 -0.00000000000E+00 -0.00000000000E+00 -0.15461829794E+04  0.15461829794E+04  0.00000000000E+00 0.  1.
      99926    2    1    2    0    0  0.00000000000E+00  0.53290705182E-14 -0.15127838394E+04  0.15795821193E+04  0.45449392371E+03 0.  0.
      99925    2    3    3    0    0  0.54302905850E+02  0.14805318469E+02 -0.12913773998E+04  0.13191280491E+04  0.26320185847E+03 0.  0.
         25    1    4    4    0    0  0.22526386891E+02  0.47529079614E+02 -0.62026751145E+03  0.63493759172E+03  0.12509000000E+03 0.  0.
         25    1    3    3    0    0 -0.54302905850E+02 -0.14805318469E+02 -0.22140643968E+03  0.26045407018E+03  0.12509000000E+03 0.  0.
         25    1    4    4    0    0  0.31776518959E+02 -0.32723761145E+02 -0.67110988830E+03  0.68419045739E+03  0.12509000000E+03 0.  0.
<mgrwt>
<rscale>  2 0.45449392E+03</rscale>
<asrwt>0</asrwt>
<pdfrwt beam="1">  1       21 0.49116396E-02 0.45449392E+03</pdfrwt>
<pdfrwt beam="2">  1       21 0.22737979E+00 0.45449392E+03</pdfrwt>
<totfact> 0.21980587E+04</totfact>
</mgrwt>
</event>
<event>
 7    0  0.4788920E-002  0.4198523E+03  0.7546771E-02  0.1037114E+00
         21   -1    0    0  502  501  0.00000000000E+00  0.00000000000E+00  0.13988173842E+03  0.13988173842E+03  0.00000000000E+00 0. -1.
         21   -1    0    0  501  502 -0.00000000000E+00 -0.00000000000E+00 -0.31504464362E+03  0.31504464362E+03  0.00000000000E+00 0. -1.
      99926    2    1    2    0    0  0.00000000000E+00  0.00000000000E+00 -0.17516290520E+03  0.45492638204E+03  0.41985231894E+03 0.  0.
      99925    2    3    3    0    0 -0.17000377597E+02  0.52584744904E+02 -0.57296711145E+02  0.27438797606E+03  0.26258651919E+03 0.  0.
         25    1    4    4    0    0 -0.45602916250E+02  0.22997584283E+02 -0.14341480054E+02  0.13587384223E+03  0.12509000000E+03 0.  0.
         25    1    4    4    0    0  0.28602538653E+02  0.29587160621E+02 -0.42955231091E+02  0.13851413382E+03  0.12509000000E+03 0.  0.
         25    1    3    3    0    0  0.17000377597E+02 -0.52584744904E+02 -0.11786619405E+03  0.18053840599E+03  0.12509000000E+03 0.  0.
<mgrwt>
<rscale>  2 0.41985232E+03</rscale>
<asrwt>0</asrwt>
<pdfrwt beam="1">  1       21 0.20570844E-01 0.41985232E+03</pdfrwt>
<pdfrwt beam="2">  1       21 0.46330094E-01 0.41985232E+03</pdfrwt>
<totfact> 0.91571854E+04</totfact>
</mgrwt>
</event>
<event>
 7    0  0.4788920E-002  0.4525250E+03  0.7546771E-02  0.1026972E+00
         21   -1    0    0  502  501  0.00000000000E+00  0.00000000000E+00  0.32591661795E+03  0.32591661795E+03  0.00000000000E+00 0. -1.
         21   -1    0    0  501  502 -0.00000000000E+00 -0.00000000000E+00 -0.15707918064E+03  0.15707918064E+03  0.00000000000E+00 0. -1.
      99926    2    1    2    0    0  0.00000000000E+00 -0.35527136788E-14  0.16883743731E+03  0.48299579858E+03  0.45252498408E+03 0.  0.
      99925    2    3    3    0    0  0.10704718282E+03 -0.20604784846E+02  0.84679593503E+02  0.29694820445E+03  0.26291433217E+03 0.  0.
         25    1    3    3    0    0 -0.10704718282E+03  0.20604784846E+02  0.84157843805E+02  0.18604759413E+03  0.12509000000E+03 0.  0.
         25    1    4    4    0    0  0.55528642773E+02  0.24752566162E+01  0.82238988757E+02  0.15968818502E+03  0.12509000000E+03 0.  0.
         25    1    4    4    0    0  0.51518540048E+02 -0.23080041463E+02  0.24406047454E+01  0.13726001943E+03  0.12509000000E+03 0.  0.
<mgrwt>
<rscale>  2 0.45252498E+03</rscale>
<asrwt>0</asrwt>
<pdfrwt beam="1">  1       21 0.47928914E-01 0.45252498E+03</pdfrwt>
<pdfrwt beam="2">  1       21 0.23099879E-01 0.45252498E+03</pdfrwt>
<totfact> 0.67805102E+04</totfact>
</mgrwt>
</event>
<event>
 7    0  0.4788920E-002  0.4547243E+03  0.7546771E-02  0.1026322E+00
         21   -1    0    0  502  501  0.00000000000E+00  0.00000000000E+00  0.49401482504E+02  0.49401482504E+02  0.00000000000E+00 0.  1.
         21   -1    0    0  501  502 -0.00000000000E+00 -0.00000000000E+00 -0.10463968642E+04  0.10463968642E+04  0.00000000000E+00 0.  1.
      99926    2    1    2    0    0 -0.44408920985E-15 -0.35527136788E-14 -0.99699538170E+03  0.10957983467E+04  0.45472434014E+03 0.  0.
      99925    2    3    3    0    0  0.11561914967E+01  0.23185886548E+02 -0.89382113650E+03  0.93199555343E+03  0.26298396423E+03 0.  0.
         25    1    3    3    0    0 -0.11561914967E+01 -0.23185886548E+02 -0.10317424520E+03  0.16380279328E+03  0.12509000000E+03 0.  0.
         25    1    4    4    0    0 -0.57556607249E+01  0.13655310581E+02 -0.58856217242E+03  0.60189079910E+03  0.12509000000E+03 0.  0.
         25    1    4    4    0    0  0.69118522216E+01  0.95305759669E+01 -0.30525896408E+03  0.33010475433E+03  0.12509000000E+03 0.  0.
<mgrwt>
<rscale>  2 0.45472434E+03</rscale>
<asrwt>0</asrwt>
<pdfrwt beam="1">  1       21 0.72649237E-02 0.45472434E+03</pdfrwt>
<pdfrwt beam="2">  1       21 0.15388190E+00 0.45472434E+03</pdfrwt>
<totfact> 0.35717041E+04</totfact>
</mgrwt>
</event>
<event>
 7    0  0.4788920E-002  0.4527243E+03  0.7546771E-02  0.1026913E+00
         21   -1    0    0  502  501  0.00000000000E+00  0.00000000000E+00  0.50540738032E+02  0.50540738032E+02  0.00000000000E+00 0. -1.
         21   -1    0    0  501  502 -0.00000000000E+00 -0.00000000000E+00 -0.10138321133E+04  0.10138321133E+04  0.00000000000E+00 0. -1.
      99926    2    1    2    0    0  0.00000000000E+00  0.00000000000E+00 -0.96329137529E+03  0.10643728513E+04  0.45272430130E+03 0.  0.
      99925    2    3    3    0    0 -0.14236504765E+02 -0.10990219558E+03 -0.61465444569E+03  0.67775108859E+03  0.26318297783E+03 0.  0.
         25    1    3    3    0    0  0.14236504765E+02  0.10990219558E+03 -0.34863692960E+03  0.38662176276E+03  0.12509000000E+03 0.  0.
         25    1    4    4    0    0 -0.26072765781E+02 -0.49923645640E+02 -0.39028294410E+03  0.41369124243E+03  0.12509000000E+03 0.  0.
         25    1    4    4    0    0  0.11836261016E+02 -0.59978549938E+02 -0.22437150159E+03  0.26405984616E+03  0.12509000000E+03 0.  0.
<mgrwt>
<rscale>  2 0.45272430E+03</rscale>
<asrwt>0</asrwt>
<pdfrwt beam="1">  1       21 0.74324614E-02 0.45272430E+03</pdfrwt>
<pdfrwt beam="2">  1       21 0.14909296E+00 0.45272430E+03</pdfrwt>
<totfact> 0.37414453E+04</totfact>
</mgrwt>
</event>
<event>
 7    0  0.4788920E-002  0.4347937E+03  0.7546771E-02  0.1032356E+00
         21   -1    0    0  502  501  0.00000000000E+00  0.00000000000E+00  0.22487759240E+03  0.22487759240E+03  0.00000000000E+00 0. -1.
         21   -1    0    0  501  502 -0.00000000000E+00 -0.00000000000E+00 -0.21016499368E+03  0.21016499368E+03  0.00000000000E+00 0. -1.
      99926    2    1    2    0    0  0.00000000000E+00  0.14210854715E-13  0.14712598723E+02  0.43504258607E+03  0.43479373401E+03 0.  0.
      99925    2    3    3    0    0  0.33660118988E+02 -0.69807776444E+02  0.60672137258E+02  0.28088060456E+03  0.26307161861E+03 0.  0.
         25    1    3    3    0    0 -0.33660118988E+02  0.69807776444E+02 -0.45959538535E+02  0.15416198151E+03  0.12509000000E+03 0.  0.
         25    1    4    4    0    0 -0.18065803950E+02 -0.36594672805E+02  0.51171786829E+02  0.14117932999E+03  0.12509000000E+03 0.  0.
         25    1    4    4    0    0  0.51725922938E+02 -0.33213103639E+02  0.95003504280E+01  0.13970127457E+03  0.12509000000E+03 0.  0.
<mgrwt>
<rscale>  2 0.43479373E+03</rscale>
<asrwt>0</asrwt>
<pdfrwt beam="1">  1       21 0.33070234E-01 0.43479373E+03</pdfrwt>
<pdfrwt beam="2">  1       21 0.30906617E-01 0.43479373E+03</pdfrwt>
<totfact> 0.82562906E+04</totfact>
</mgrwt>
</event>
<event>
 7    0  0.4788920E-002  0.4544244E+03  0.7546771E-02  0.1026411E+00
         21   -1    0    0  502  501  0.00000000000E+00  0.00000000000E+00  0.29723191949E+03  0.29723191949E+03  0.00000000000E+00 0.  1.
         21   -1    0    0  501  502 -0.00000000000E+00 -0.00000000000E+00 -0.17368724453E+03  0.17368724453E+03  0.00000000000E+00 0.  1.
      99926    2    1    2    0    0  0.00000000000E+00  0.00000000000E+00  0.12354467496E+03  0.47091916402E+03  0.45442444073E+03 0.  0.
      99925    2    3    3    0    0 -0.21691566875E+02 -0.32804717256E+02 -0.31551809012E+02  0.26782041713E+03  0.26303152973E+03 0.  0.
         25    1    3    3    0    0  0.21691566875E+02  0.32804717256E+02  0.15509648397E+03  0.20309874689E+03  0.12509000000E+03 0.  0.
         25    1    4    4    0    0 -0.33032931476E+01 -0.49074829371E+02 -0.39498757691E+02  0.14009607626E+03  0.12509000000E+03 0.  0.
         25    1    4    4    0    0 -0.18388273727E+02  0.16270112114E+02  0.79469486787E+01  0.12772434088E+03  0.12509000000E+03 0.  0.
<mgrwt>
<rscale>  2 0.45442444E+03</rscale>
<asrwt>0</asrwt>
<pdfrwt beam="1">  1       21 0.43710576E-01 0.45442444E+03</pdfrwt>
<pdfrwt beam="2">  1       21 0.25542242E-01 0.45442444E+03</pdfrwt>
<totfact> 0.67675911E+04</totfact>
</mgrwt>
</event>
<event>
 7    0  0.4788920E-002  0.4508497E+03  0.7546771E-02  0.1027469E+00
         21   -1    0    0  502  501  0.00000000000E+00  0.00000000000E+00  0.59159568888E+02  0.59159568888E+02  0.00000000000E+00 0. -1.
         21   -1    0    0  501  502 -0.00000000000E+00 -0.00000000000E+00 -0.85897119955E+03  0.85897119955E+03  0.00000000000E+00 0. -1.
      99926    2    1    2    0    0  0.35527136788E-14  0.00000000000E+00 -0.79981163066E+03  0.91813076843E+03  0.45084971266E+03 0.  0.
      99925    2    3    3    0    0  0.31724230551E+02  0.10091837737E+03 -0.45121127430E+03  0.53295462399E+03  0.26316928294E+03 0.  0.
         25    1    4    4    0    0 -0.16891937739E+02  0.33490052568E+02 -0.17257650321E+03  0.21641875783E+03  0.12509000000E+03 0.  0.
         25    1    3    3    0    0 -0.31724230551E+02 -0.10091837737E+03 -0.34860035636E+03  0.38517614445E+03  0.12509000000E+03 0.  0.
         25    1    4    4    0    0  0.48616168290E+02  0.67428324800E+02 -0.27863477109E+03  0.31653586616E+03  0.12509000000E+03 0.  0.
<mgrwt>
<rscale>  2 0.45084971E+03</rscale>
<asrwt>0</asrwt>
<pdfrwt beam="1">  1       21 0.86999373E-02 0.45084971E+03</pdfrwt>
<pdfrwt beam="2">  1       21 0.12631928E+00 0.45084971E+03</pdfrwt>
<totfact> 0.43865960E+04</totfact>
</mgrwt>
</event>
<event>
 7    0  0.4788920E-002  0.4611951E+03  0.7546771E-02  0.1024435E+00
         21   -1    0    0  502  501  0.00000000000E+00  0.00000000000E+00  0.16025620981E+03  0.16025620981E+03  0.00000000000E+00 0.  1.
         21   -1    0    0  501  502 -0.00000000000E+00 -0.00000000000E+00 -0.33181383656E+03  0.33181383656E+03  0.00000000000E+00 0.  1.
      99926    2    1    2    0    0  0.00000000000E+00  0.00000000000E+00 -0.17155762676E+03  0.49207004637E+03  0.46119509021E+03 0.  0.
      99925    2    3    3    0    0 -0.68285220088E+02 -0.61947744613E+02 -0.18742799606E+03  0.33586578565E+03  0.26301364588E+03 0.  0.
         25    1    4    4    0    0 -0.10729488382E+02 -0.60129601054E+02 -0.11322502200E+03  0.17943830291E+03  0.12509000000E+03 0.  0.
         25    1    3    3    0    0  0.68285220088E+02  0.61947744613E+02  0.15870369299E+02  0.15620426072E+03  0.12509000000E+03 0.  0.
         25    1    4    4    0    0 -0.57555731706E+02 -0.18181435585E+01 -0.74202974061E+02  0.15642748274E+03  0.12509000000E+03 0.  0.
<mgrwt>
<rscale>  2 0.46119509E+03</rscale>
<asrwt>0</asrwt>
<pdfrwt beam="1">  1       21 0.23567090E-01 0.46119509E+03</pdfrwt>
<pdfrwt beam="2">  1       21 0.48796152E-01 0.46119509E+03</pdfrwt>
<totfact> 0.62691068E+04</totfact>
</mgrwt>
</event>
<event>
 7    0  0.4788920E-002  0.4550733E+03  0.7546771E-02  0.1026220E+00
         21   -1    0    0  502  501  0.00000000000E+00  0.00000000000E+00  0.14698230904E+04  0.14698230904E+04  0.00000000000E+00 0. -1.
         21   -1    0    0  501  502 -0.00000000000E+00 -0.00000000000E+00 -0.35223919469E+02  0.35223919469E+02  0.00000000000E+00 0. -1.
      99926    2    1    2    0    0  0.14210854715E-13  0.00000000000E+00  0.14345991710E+04  0.15050470099E+04  0.45507331353E+03 0.  0.
      99925    2    3    3    0    0  0.11149341231E+03  0.17929809747E+02  0.92671668700E+03  0.96993544706E+03  0.26309445916E+03 0.  0.
         25    1    4    4    0    0  0.94625801022E+02  0.17329377592E+02  0.57475531696E+03  0.59602477467E+03  0.12509000000E+03 0.  0.
         25    1    3    3    0    0 -0.11149341231E+03 -0.17929809747E+02  0.50788248398E+03  0.53511156285E+03  0.12509000000E+03 0.  0.
         25    1    4    4    0    0  0.16867611288E+02  0.60043215491E+00  0.35196137004E+03  0.37391067239E+03  0.12509000000E+03 0.  0.
<mgrwt>
<rscale>  2 0.45507331E+03</rscale>
<asrwt>0</asrwt>
<pdfrwt beam="1">  1       21 0.21615041E+00 0.45507331E+03</pdfrwt>
<pdfrwt beam="2">  1       21 0.51799891E-02 0.45507331E+03</pdfrwt>
<totfact> 0.23642234E+04</totfact>
</mgrwt>
</event>
<event>
 7    0  0.4788920E-002  0.4108561E+03  0.7546771E-02  0.1040084E+00
         21   -1    0    0  502  501  0.00000000000E+00  0.00000000000E+00  0.12577904209E+03  0.12577904209E+03  0.00000000000E+00 0.  1.
         21   -1    0    0  501  502 -0.00000000000E+00 -0.00000000000E+00 -0.33551450886E+03  0.33551450886E+03  0.00000000000E+00 0.  1.
      99926    2    1    2    0    0 -0.71054273576E-14  0.00000000000E+00 -0.20973546677E+03  0.46129355095E+03  0.41085614773E+03 0.  0.
      99925    2    3    3    0    0 -0.58634055680E+02 -0.20039638166E+02 -0.12253758105E+03  0.29670157375E+03  0.26301487699E+03 0.  0.
         25    1    4    4    0    0 -0.28646855843E+02 -0.18384212129E+02 -0.17886974144E+02  0.13086662504E+03  0.12509000000E+03 0.  0.
         25    1    3    3    0    0  0.58634055680E+02  0.20039638166E+02 -0.87197885720E+02  0.16459197720E+03  0.12509000000E+03 0.  0.
         25    1    4    4    0    0 -0.29987199837E+02 -0.16554260365E+01 -0.10465060691E+03  0.16583494872E+03  0.12509000000E+03 0.  0.
<mgrwt>
<rscale>  2 0.41085615E+03</rscale>
<asrwt>0</asrwt>
<pdfrwt beam="1">  1       21 0.18496918E-01 0.41085615E+03</pdfrwt>
<pdfrwt beam="2">  1       21 0.49340369E-01 0.41085615E+03</pdfrwt>
<totfact> 0.98260385E+04</totfact>
</mgrwt>
</event>
<event>
 7    0  0.4788920E-002  0.4594832E+03  0.7546771E-02  0.1024931E+00
         21   -1    0    0  502  501  0.00000000000E+00  0.00000000000E+00  0.30013282609E+03  0.30013282609E+03  0.00000000000E+00 0.  1.
         21   -1    0    0  501  502 -0.00000000000E+00 -0.00000000000E+00 -0.17585950688E+03  0.17585950688E+03  0.00000000000E+00 0.  1.
      99926    2    1    2    0    0  0.00000000000E+00  0.00000000000E+00  0.12427331921E+03  0.47599233297E+03  0.45948323493E+03 0.  0.
      99925    2    3    3    0    0 -0.44594160161E+02  0.10823316499E+03  0.81373324205E+02  0.29938266508E+03  0.26325900769E+03 0.  0.
         25    1    4    4    0    0 -0.24190193660E+02  0.94783756681E+02  0.61963055023E+02  0.17045836526E+03  0.12509000000E+03 0.  0.
         25    1    4    4    0    0 -0.20403966500E+02  0.13449408307E+02  0.19410269182E+02  0.12892429981E+03  0.12509000000E+03 0.  0.
         25    1    3    3    0    0  0.44594160161E+02 -0.10823316499E+03  0.42899995000E+02  0.17660966790E+03  0.12509000000E+03 0.  0.
<mgrwt>
<rscale>  2 0.45948323E+03</rscale>
<asrwt>0</asrwt>
<pdfrwt beam="1">  1       21 0.44137180E-01 0.45948323E+03</pdfrwt>
<pdfrwt beam="2">  1       21 0.25861692E-01 0.45948323E+03</pdfrwt>
<totfact> 0.64661904E+04</totfact>
</mgrwt>
</event>
<event>
 7    0  0.4788920E-002  0.4559978E+03  0.7546771E-02  0.1025948E+00
         21   -1    0    0  502  501  0.00000000000E+00  0.00000000000E+00  0.23485627636E+03  0.23485627636E+03  0.00000000000E+00 0.  1.
         21   -1    0    0  501  502 -0.00000000000E+00 -0.00000000000E+00 -0.22134174228E+03  0.22134174228E+03  0.00000000000E+00 0.  1.
      99926    2    1    2    0    0  0.00000000000E+00  0.00000000000E+00  0.13514534079E+02  0.45619801864E+03  0.45599779559E+03 0.  0.
      99925    2    3    3    0    0 -0.81374566190E+02  0.31723580067E+02 -0.64963880263E+02  0.28463294302E+03  0.26299695998E+03 0.  0.
         25    1    4    4    0    0 -0.67015718075E+02  0.15385139500E+02 -0.16417428013E+01  0.14275157584E+03  0.12509000000E+03 0.  0.
         25    1    3    3    0    0  0.81374566190E+02 -0.31723580067E+02  0.78478414342E+02  0.17156507562E+03  0.12509000000E+03 0.  0.
         25    1    4    4    0    0 -0.14358848115E+02  0.16338440567E+02 -0.63322137462E+02  0.14188136718E+03  0.12509000000E+03 0.  0.
<mgrwt>
<rscale>  2 0.45599780E+03</rscale>
<asrwt>0</asrwt>
<pdfrwt beam="1">  1       21 0.34537688E-01 0.45599780E+03</pdfrwt>
<pdfrwt beam="2">  1       21 0.32550256E-01 0.45599780E+03</pdfrwt>
<totfact> 0.67915812E+04</totfact>
</mgrwt>
</event>
<event>
 7    0  0.4788920E-002  0.4544214E+03  0.7546771E-02  0.1026412E+00
         21   -1    0    0  502  501  0.00000000000E+00  0.00000000000E+00  0.16853025788E+04  0.16853025788E+04  0.00000000000E+00 0. -1.
         21   -1    0    0  501  502 -0.00000000000E+00 -0.00000000000E+00 -0.30632304770E+02  0.30632304770E+02  0.00000000000E+00 0. -1.
      99926    2    1    2    0    0  0.35527136788E-14 -0.14210854715E-13  0.16546702740E+04  0.17159348836E+04  0.45442140013E+03 0.  0.
      99925    2    3    3    0    0  0.16591782706E+02 -0.11121194103E+03  0.10445539489E+04  0.10830582594E+04  0.26320877283E+03 0.  0.
         25    1    4    4    0    0 -0.29552324779E+02 -0.38165071828E+02  0.47439886932E+03  0.49298246208E+03  0.12509000000E+03 0.  0.
         25    1    3    3    0    0 -0.16591782706E+02  0.11121194103E+03  0.61011632518E+03  0.63287662418E+03  0.12509000000E+03 0.  0.
         25    1    4    4    0    0  0.46144107485E+02 -0.73046869204E+02  0.57015507954E+03  0.59007579732E+03  0.12509000000E+03 0.  0.
<mgrwt>
<rscale>  2 0.45442140E+03</rscale>
<asrwt>0</asrwt>
<pdfrwt beam="1">  1       21 0.24783855E+00 0.45442140E+03</pdfrwt>
<pdfrwt beam="2">  1       21 0.45047518E-02 0.45442140E+03</pdfrwt>
<totfact> 0.19017352E+04</totfact>
</mgrwt>
</event>
<event>
 7    0  0.4788920E-002  0.4535960E+03  0.7546771E-02  0.1026655E+00
         21   -1    0    0  502  501  0.00000000000E+00  0.00000000000E+00  0.11487544767E+03  0.11487544767E+03  0.00000000000E+00 0.  1.
         21   -1    0    0  501  502 -0.00000000000E+00 -0.00000000000E+00 -0.44776602442E+03  0.44776602442E+03  0.00000000000E+00 0.  1.
      99926    2    1    2    0    0  0.00000000000E+00  0.00000000000E+00 -0.33289057675E+03  0.56264147209E+03  0.45359595460E+03 0.  0.
      99925    2    3    3    0    0 -0.62017874153E+02  0.89858356817E+02 -0.23973388385E+03  0.37225655006E+03  0.26302445322E+03 0.  0.
         25    1    3    3    0    0  0.62017874153E+02 -0.89858356817E+02 -0.93156692899E+02  0.19038492203E+03  0.12509000000E+03 0.  0.
         25    1    4    4    0    0 -0.29109233025E+02  0.37347626107E+02 -0.65304951730E+02  0.14884366780E+03  0.12509000000E+03 0.  0.
         25    1    4    4    0    0 -0.32908641129E+02  0.52510730710E+02 -0.17442893212E+03  0.22341288227E+03  0.12509000000E+03 0.  0.
<mgrwt>
<rscale>  2 0.45359595E+03</rscale>
<asrwt>0</asrwt>
<pdfrwt beam="1">  1       21 0.16893448E-01 0.45359595E+03</pdfrwt>
<pdfrwt beam="2">  1       21 0.65847944E-01 0.45359595E+03</pdfrwt>
<totfact> 0.61721371E+04</totfact>
</mgrwt>
</event>
<event>
 7    0  0.4788920E-002  0.4509024E+03  0.7546771E-02  0.1027453E+00
         21   -1    0    0  502  501  0.00000000000E+00  0.00000000000E+00  0.18926261212E+04  0.18926261212E+04  0.00000000000E+00 0.  1.
         21   -1    0    0  501  502 -0.00000000000E+00 -0.00000000000E+00 -0.26855928880E+02  0.26855928880E+02  0.00000000000E+00 0.  1.
      99926    2    1    2    0    0  0.00000000000E+00  0.00000000000E+00  0.18657701923E+04  0.19194820501E+04  0.45090235088E+03 0.  0.
      99925    2    3    3    0    0  0.25653820784E+01 -0.21894693124E+02  0.72337365904E+03  0.77004596829E+03  0.26308816757E+03 0.  0.
         25    1    4    4    0    0 -0.90396790113E+01  0.13014262087E+02  0.26465989636E+03  0.29316114281E+03  0.12509000000E+03 0.  0.
         25    1    3    3    0    0 -0.25653820784E+01  0.21894693124E+02  0.11423965333E+04  0.11494360818E+04  0.12509000000E+03 0.  0.
         25    1    4    4    0    0  0.11605061090E+02 -0.34908955211E+02  0.45871376268E+03  0.47688482547E+03  0.12509000000E+03 0.  0.
<mgrwt>
<rscale>  2 0.45090235E+03</rscale>
<asrwt>0</asrwt>
<pdfrwt beam="1">  1       21 0.27832728E+00 0.45090235E+03</pdfrwt>
<pdfrwt beam="2">  1       21 0.39494026E-02 0.45090235E+03</pdfrwt>
<totfact> 0.15558128E+04</totfact>
</mgrwt>
</event>
<event>
 7    0  0.4788920E-002  0.4639998E+03  0.7546771E-02  0.1023628E+00
         21   -1    0    0  502  501  0.00000000000E+00  0.00000000000E+00  0.22514175413E+03  0.22514175413E+03  0.00000000000E+00 0. -1.
         21   -1    0    0  501  502 -0.00000000000E+00 -0.00000000000E+00 -0.23906695872E+03  0.23906695872E+03  0.00000000000E+00 0. -1.
      99926    2    1    2    0    0  0.00000000000E+00  0.14210854715E-13 -0.13925204592E+02  0.46420871285E+03  0.46399980362E+03 0.  0.
      99925    2    3    3    0    0 -0.68077606442E+02 -0.80080730921E+02 -0.69598407833E+02  0.29159788577E+03  0.26294087672E+03 0.  0.
         25    1    4    4    0    0 -0.63325248970E+02 -0.71284731663E+02 -0.46347574982E+02  0.16397318663E+03  0.12509000000E+03 0.  0.
         25    1    3    3    0    0  0.68077606442E+02  0.80080730921E+02  0.55673203240E+02  0.17261082707E+03  0.12509000000E+03 0.  0.
         25    1    4    4    0    0 -0.47523574720E+01 -0.87959992577E+01 -0.23250832851E+02  0.12762469915E+03  0.12509000000E+03 0.  0.
<mgrwt>
<rscale>  2 0.46399980E+03</rscale>
<asrwt>0</asrwt>
<pdfrwt beam="1">  1       21 0.33109082E-01 0.46399980E+03</pdfrwt>
<pdfrwt beam="2">  1       21 0.35156906E-01 0.46399980E+03</pdfrwt>
<totfact> 0.63213665E+04</totfact>
</mgrwt>
</event>
<event>
 7    0  0.4788920E-002  0.4558121E+03  0.7546771E-02  0.1026003E+00
         21   -1    0    0  502  501  0.00000000000E+00  0.00000000000E+00  0.34905294755E+03  0.34905294755E+03  0.00000000000E+00 0.  1.
         21   -1    0    0  501  502 -0.00000000000E+00 -0.00000000000E+00 -0.14880599273E+03  0.14880599273E+03  0.00000000000E+00 0.  1.
      99926    2    1    2    0    0 -0.88817841970E-15  0.14210854715E-13  0.20024695482E+03  0.49785894028E+03  0.45581211206E+03 0.  0.
      99925    2    3    3    0    0  0.44628494027E+01 -0.10576660475E+03  0.79805146295E+02  0.29448679606E+03  0.26295839969E+03 0.  0.
         25    1    4    4    0    0  0.34026569218E+02 -0.80104864108E+02  0.41913090741E+02  0.15804686628E+03  0.12509000000E+03 0.  0.
         25    1    4    4    0    0 -0.29563719815E+02 -0.25661740647E+02  0.37892055554E+02  0.13643992977E+03  0.12509000000E+03 0.  0.
         25    1    3    3    0    0 -0.44628494027E+01  0.10576660475E+03  0.12044180852E+03  0.20337214422E+03  0.12509000000E+03 0.  0.
<mgrwt>
<rscale>  2 0.45581211E+03</rscale>
<asrwt>0</asrwt>
<pdfrwt beam="1">  1       21 0.51331316E-01 0.45581211E+03</pdfrwt>
<pdfrwt beam="2">  1       21 0.21883234E-01 0.45581211E+03</pdfrwt>
<totfact> 0.65001274E+04</totfact>
</mgrwt>
</event>
<event>
 7    0  0.4788920E-002  0.4559073E+03  0.7546771E-02  0.1025975E+00
         21   -1    0    0  502  501  0.00000000000E+00  0.00000000000E+00  0.32443368611E+03  0.32443368611E+03  0.00000000000E+00 0.  1.
         21   -1    0    0  501  502 -0.00000000000E+00 -0.00000000000E+00 -0.16016485799E+03  0.16016485799E+03  0.00000000000E+00 0.  1.
      99926    2    1    2    0    0  0.00000000000E+00  0.00000000000E+00  0.16426882812E+03  0.48459854410E+03  0.45590733823E+03 0.  0.
      99925    2    3    3    0    0 -0.54067562936E+02  0.99393003447E+02  0.89348267207E+02  0.30003725606E+03  0.26312919198E+03 0.  0.
         25    1    4    4    0    0 -0.46846864237E+02  0.26436321254E+02  0.71951299579E+02  0.15400651084E+03  0.12509000000E+03 0.  0.
         25    1    4    4    0    0 -0.72206986986E+01  0.72956682193E+02  0.17396967628E+02  0.14603074522E+03  0.12509000000E+03 0.  0.
         25    1    3    3    0    0  0.54067562936E+02 -0.99393003447E+02  0.74920560914E+02  0.18456128804E+03  0.12509000000E+03 0.  0.
<mgrwt>
<rscale>  2 0.45590734E+03</rscale>
<asrwt>0</asrwt>
<pdfrwt beam="1">  1       21 0.47710836E-01 0.45590734E+03</pdfrwt>
<pdfrwt beam="2">  1       21 0.23553656E-01 0.45590734E+03</pdfrwt>
<totfact> 0.65890986E+04</totfact>
</mgrwt>
</event>
<event>
 7    0  0.4788920E-002  0.4526297E+03  0.7546771E-02  0.1026941E+00
         21   -1    0    0  502  501  0.00000000000E+00  0.00000000000E+00  0.64268471704E+02  0.64268471704E+02  0.00000000000E+00 0. -1.
         21   -1    0    0  501  502 -0.00000000000E+00 -0.00000000000E+00 -0.79694475329E+03  0.79694475329E+03  0.00000000000E+00 0. -1.
      99926    2    1    2    0    0  0.00000000000E+00 -0.71054273576E-14 -0.73267628159E+03  0.86121322499E+03  0.45262974417E+03 0.  0.
      99925    2    3    3    0    0  0.63839037477E+02  0.63216945281E+02 -0.58575272076E+03  0.64836152615E+03  0.26304869099E+03 0.  0.
         25    1    4    4    0    0  0.71707590518E+02  0.41793038283E+02 -0.29421596283E+03  0.33030164618E+03  0.12509000000E+03 0.  0.
         25    1    4    4    0    0 -0.78685530405E+01  0.21423906998E+02 -0.29153675793E+03  0.31805987997E+03  0.12509000000E+03 0.  0.
         25    1    3    3    0    0 -0.63839037477E+02 -0.63216945281E+02 -0.14692356082E+03  0.21285169885E+03  0.12509000000E+03 0.  0.
<mgrwt>
<rscale>  2 0.45262974E+03</rscale>
<asrwt>0</asrwt>
<pdfrwt beam="1">  1       21 0.94512460E-02 0.45262974E+03</pdfrwt>
<pdfrwt beam="2">  1       21 0.11719776E+00 0.45262974E+03</pdfrwt>
<totfact> 0.45787121E+04</totfact>
</mgrwt>
</event>
<event>
 7    0  0.4788920E-002  0.4519350E+03  0.7546771E-02  0.1027147E+00
         21   -1    0    0  502  501  0.00000000000E+00  0.00000000000E+00  0.29122008553E+03  0.29122008553E+03  0.00000000000E+00 0.  1.
         21   -1    0    0  501  502 -0.00000000000E+00 -0.00000000000E+00 -0.17533584063E+03  0.17533584063E+03  0.00000000000E+00 0.  1.
      99926    2    1    2    0    0  0.00000000000E+00  0.00000000000E+00  0.11588424489E+03  0.46655592616E+03  0.45193503297E+03 0.  0.
      99925    2    3    3    0    0 -0.33841220451E+02  0.69177254876E+02 -0.84141272558E+01  0.27412850033E+03  0.26295420963E+03 0.  0.
         25    1    4    4    0    0 -0.48052879674E+02  0.17588650104E+02  0.15327478302E+02  0.13601793833E+03  0.12509000000E+03 0.  0.
         25    1    3    3    0    0  0.33841220451E+02 -0.69177254876E+02  0.12429837215E+03  0.19242742583E+03  0.12509000000E+03 0.  0.
         25    1    4    4    0    0  0.14211659223E+02  0.51588604772E+02 -0.23741605558E+02  0.13811056200E+03  0.12509000000E+03 0.  0.
<mgrwt>
<rscale>  2 0.45193503E+03</rscale>
<asrwt>0</asrwt>
<pdfrwt beam="1">  1       21 0.42826483E-01 0.45193503E+03</pdfrwt>
<pdfrwt beam="2">  1       21 0.25784682E-01 0.45193503E+03</pdfrwt>
<totfact> 0.69363956E+04</totfact>
</mgrwt>
</event>
<event>
 7    0  0.4788920E-002  0.4535564E+03  0.7546771E-02  0.1026667E+00
         21   -1    0    0  502  501  0.00000000000E+00  0.00000000000E+00  0.70672089387E+03  0.70672089387E+03  0.00000000000E+00 0. -1.
         21   -1    0    0  501  502 -0.00000000000E+00 -0.00000000000E+00 -0.72770384894E+02  0.72770384894E+02  0.00000000000E+00 0. -1.
      99926    2    1    2    0    0  0.00000000000E+00  0.00000000000E+00  0.63395050897E+03  0.77949127876E+03  0.45355639764E+03 0.  0.
      99925    2    3    3    0    0 -0.40917254675E+02 -0.10173937816E+03  0.36248918228E+03  0.46111432798E+03  0.26306442823E+03 0.  0.
         25    1    4    4    0    0 -0.42255676735E+02 -0.23479713522E+02  0.20794250413E+03  0.24743571345E+03  0.12509000000E+03 0.  0.
         25    1    4    4    0    0  0.13384220602E+01 -0.78259664639E+02  0.15454667814E+03  0.21367861453E+03  0.12509000000E+03 0.  0.
         25    1    3    3    0    0  0.40917254675E+02  0.10173937816E+03  0.27146132669E+03  0.31837695078E+03  0.12509000000E+03 0.  0.
<mgrwt>
<rscale>  2 0.45355640E+03</rscale>
<asrwt>0</asrwt>
<pdfrwt beam="1">  1       21 0.10392954E+00 0.45355640E+03</pdfrwt>
<pdfrwt beam="2">  1       21 0.10701528E-01 0.45355640E+03</pdfrwt>
<totfact> 0.49329419E+04</totfact>
</mgrwt>
</event>
<event>
 7    0  0.4788920E-002  0.4511062E+03  0.7546771E-02  0.1027393E+00
         21   -1    0    0  502  501  0.00000000000E+00  0.00000000000E+00  0.11005190778E+03  0.11005190778E+03  0.00000000000E+00 0. -1.
         21   -1    0    0  501  502 -0.00000000000E+00 -0.00000000000E+00 -0.46227465868E+03  0.46227465868E+03  0.00000000000E+00 0. -1.
      99926    2    1    2    0    0 -0.14210854715E-13  0.00000000000E+00 -0.35222275090E+03  0.57232656646E+03  0.45110623186E+03 0.  0.
      99925    2    3    3    0    0  0.85571121399E+02 -0.20600804921E+02 -0.13966909440E+03  0.31046138173E+03  0.26292965530E+03 0.  0.
         25    1    3    3    0    0 -0.85571121399E+02  0.20600804921E+02 -0.21255365650E+03  0.26186518473E+03  0.12509000000E+03 0.  0.
         25    1    4    4    0    0  0.28586157615E+02 -0.19399300664E+02 -0.10933341759E+03  0.16969032257E+03  0.12509000000E+03 0.  0.
         25    1    4    4    0    0  0.56984963784E+02 -0.12015042569E+01 -0.30335676818E+02  0.14077105916E+03  0.12509000000E+03 0.  0.
<mgrwt>
<rscale>  2 0.45110623E+03</rscale>
<asrwt>0</asrwt>
<pdfrwt beam="1">  1       21 0.16184105E-01 0.45110623E+03</pdfrwt>
<pdfrwt beam="2">  1       21 0.67981566E-01 0.45110623E+03</pdfrwt>
<totfact> 0.62311271E+04</totfact>
</mgrwt>
</event>
<event>
 7    0  0.4788920E-002  0.4551938E+03  0.7546771E-02  0.1026184E+00
         21   -1    0    0  502  501  0.00000000000E+00  0.00000000000E+00  0.86637751574E+02  0.86637751574E+02  0.00000000000E+00 0.  1.
         21   -1    0    0  501  502 -0.00000000000E+00 -0.00000000000E+00 -0.59789572679E+03  0.59789572679E+03  0.00000000000E+00 0.  1.
      99926    2    1    2    0    0  0.00000000000E+00  0.00000000000E+00 -0.51125797521E+03  0.68453347836E+03  0.45519376729E+03 0.  0.
      99925    2    3    3    0    0 -0.20115928134E+02  0.10061477760E+03 -0.24916579116E+03  0.37652730135E+03  0.26298523370E+03 0.  0.
         25    1    3    3    0    0  0.20115928134E+02 -0.10061477760E+03 -0.26209218405E+03  0.30800617701E+03  0.12509000000E+03 0.  0.
         25    1    4    4    0    0  0.20508745853E+01  0.10947382090E+02 -0.12876436119E+03  0.17986611708E+03  0.12509000000E+03 0.  0.
         25    1    4    4    0    0 -0.22166802719E+02  0.89667395506E+02 -0.12040142997E+03  0.19666118427E+03  0.12509000000E+03 0.  0.
<mgrwt>
<rscale>  2 0.45519377E+03</rscale>
<asrwt>0</asrwt>
<pdfrwt beam="1">  1       21 0.12740846E-01 0.45519377E+03</pdfrwt>
<pdfrwt beam="2">  1       21 0.87925840E-01 0.45519377E+03</pdfrwt>
<totfact> 0.53669085E+04</totfact>
</mgrwt>
</event>
<event>
 7    0  0.4788920E-002  0.4588431E+03  0.7546771E-02  0.1025117E+00
         21   -1    0    0  502  501  0.00000000000E+00  0.00000000000E+00  0.42379296174E+03  0.42379296174E+03  0.00000000000E+00 0.  1.
         21   -1    0    0  501  502 -0.00000000000E+00 -0.00000000000E+00 -0.12419801722E+03  0.12419801722E+03  0.00000000000E+00 0.  1.
      99926    2    1    2    0    0  0.00000000000E+00 -0.14210854715E-13  0.29959494451E+03  0.54799097896E+03  0.45884309109E+03 0.  0.
      99925    2    3    3    0    0 -0.69162955695E+02  0.94001852876E+02  0.19098643280E+03  0.34535046055E+03  0.26300429712E+03 0.  0.
         25    1    4    4    0    0 -0.30688104248E+02  0.41385788309E+01  0.90398826515E+02  0.15741138305E+03  0.12509000000E+03 0.  0.
         25    1    3    3    0    0  0.69162955695E+02 -0.94001852876E+02  0.10860851171E+03  0.20264051841E+03  0.12509000000E+03 0.  0.
         25    1    4    4    0    0 -0.38474851447E+02  0.89863274045E+02  0.10058760629E+03  0.18793907751E+03  0.12509000000E+03 0.  0.
<mgrwt>
<rscale>  2 0.45884309E+03</rscale>
<asrwt>0</asrwt>
<pdfrwt beam="1">  1       21 0.62322494E-01 0.45884309E+03</pdfrwt>
<pdfrwt beam="2">  1       21 0.18264414E-01 0.45884309E+03</pdfrwt>
<totfact> 0.60149467E+04</totfact>
</mgrwt>
</event>
<event>
 7    0  0.4788920E-002  0.4560961E+03  0.7546771E-02  0.1025920E+00
         21   -1    0    0  502  501  0.00000000000E+00  0.00000000000E+00  0.22825359046E+03  0.22825359046E+03  0.00000000000E+00 0.  1.
         21   -1    0    0  501  502 -0.00000000000E+00 -0.00000000000E+00 -0.22784268530E+03  0.22784268530E+03  0.00000000000E+00 0.  1.
      99926    2    1    2    0    0  0.00000000000E+00  0.00000000000E+00  0.41090515890E+00  0.45609627577E+03  0.45609609067E+03 0.  0.
      99925    2    3    3    0    0  0.36702689894E+02 -0.10722084992E+03  0.15358307982E+02  0.28664324081E+03  0.26284039221E+03 0.  0.
         25    1    4    4    0    0  0.23949466884E+02 -0.52906046612E+02  0.47662425234E+02  0.14591724234E+03  0.12509000000E+03 0.  0.
         25    1    4    4    0    0  0.12753223009E+02 -0.54314803309E+02 -0.32304117252E+02  0.14072599848E+03  0.12509000000E+03 0.  0.
         25    1    3    3    0    0 -0.36702689894E+02  0.10722084992E+03 -0.14947402823E+02  0.16945303495E+03  0.12509000000E+03 0.  0.
<mgrwt>
<rscale>  2 0.45609609E+03</rscale>
<asrwt>0</asrwt>
<pdfrwt beam="1">  1       21 0.33566705E-01 0.45609609E+03</pdfrwt>
<pdfrwt beam="2">  1       21 0.33506277E-01 0.45609609E+03</pdfrwt>
<totfact> 0.67870038E+04</totfact>
</mgrwt>
</event>
<event>
 7    0  0.4788920E-002  0.4569005E+03  0.7546771E-02  0.1025684E+00
         21   -1    0    0  502  501  0.00000000000E+00  0.00000000000E+00  0.52479885901E+03  0.52479885901E+03  0.00000000000E+00 0. -1.
         21   -1    0    0  501  502 -0.00000000000E+00 -0.00000000000E+00 -0.99446700005E+02  0.99446700005E+02  0.00000000000E+00 0. -1.
      99926    2    1    2    0    0  0.71054273576E-14  0.14210854715E-13  0.42535215900E+03  0.62424555901E+03  0.45690049111E+03 0.  0.
      99925    2    3    3    0    0  0.41931727514E+02  0.81039714119E+02  0.17157720008E+03  0.32696632511E+03  0.26294968555E+03 0.  0.
         25    1    4    4    0    0  0.22565152872E+02 -0.83641771248E+00  0.69081249825E+02  0.14467070504E+03  0.12509000000E+03 0.  0.
         25    1    4    4    0    0  0.19366574642E+02  0.81876131832E+02  0.10249595026E+03  0.18229562007E+03  0.12509000000E+03 0.  0.
         25    1    3    3    0    0 -0.41931727514E+02 -0.81039714119E+02  0.25377495892E+03  0.29727923391E+03  0.12509000000E+03 0.  0.
<mgrwt>
<rscale>  2 0.45690049E+03</rscale>
<asrwt>0</asrwt>
<pdfrwt beam="1">  1       21 0.77176302E-01 0.45690049E+03</pdfrwt>
<pdfrwt beam="2">  1       21 0.14624515E-01 0.45690049E+03</pdfrwt>
<totfact> 0.56359690E+04</totfact>
</mgrwt>
</event>
<event>
 7    0  0.4788920E-002  0.4555406E+03  0.7546771E-02  0.1026083E+00
         21   -1    0    0  502  501  0.00000000000E+00  0.00000000000E+00  0.14721471378E+03  0.14721471378E+03  0.00000000000E+00 0.  1.
         21   -1    0    0  501  502 -0.00000000000E+00 -0.00000000000E+00 -0.35240567826E+03  0.35240567826E+03  0.00000000000E+00 0.  1.
      99926    2    1    2    0    0  0.00000000000E+00  0.00000000000E+00 -0.20519096448E+03  0.49962039204E+03  0.45554056267E+03 0.  0.
      99925    2    3    3    0    0 -0.43218425355E+02 -0.48431623731E+02 -0.26922680030E+02  0.27237483365E+03  0.26315350053E+03 0.  0.
         25    1    3    3    0    0  0.43218425355E+02  0.48431623731E+02 -0.17826828445E+03  0.22724555839E+03  0.12509000000E+03 0.  0.
         25    1    4    4    0    0  0.13107328658E+02 -0.53039011508E+01 -0.26114733769E+02  0.12856679529E+03  0.12509000000E+03 0.  0.
         25    1    4    4    0    0 -0.56325754012E+02 -0.43127722580E+02 -0.80794626074E+00  0.14380803836E+03  0.12509000000E+03 0.  0.
<mgrwt>
<rscale>  2 0.45554056E+03</rscale>
<asrwt>0</asrwt>
<pdfrwt beam="1">  1       21 0.21649223E-01 0.45554056E+03</pdfrwt>
<pdfrwt beam="2">  1       21 0.51824364E-01 0.45554056E+03</pdfrwt>
<totfact> 0.65017894E+04</totfact>
</mgrwt>
</event>
<event>
 7    0  0.4788920E-002  0.4332988E+03  0.7546771E-02  0.1032823E+00
         21   -1    0    0  502  501  0.00000000000E+00  0.00000000000E+00  0.24833146858E+03  0.24833146858E+03  0.00000000000E+00 0. -1.
         21   -1    0    0  501  502 -0.00000000000E+00 -0.00000000000E+00 -0.18900929564E+03  0.18900929564E+03  0.00000000000E+00 0. -1.
      99926    2    1    2    0    0  0.00000000000E+00  0.00000000000E+00  0.59322172939E+02  0.43734076421E+03  0.43329876972E+03 0.  0.
      99925    2    3    3    0    0  0.52795598576E+02 -0.72942744336E+02  0.22998863045E+02  0.27899017179E+03  0.26305617094E+03 0.  0.
         25    1    3    3    0    0 -0.52795598576E+02  0.72942744336E+02  0.36323309894E+02  0.15835059243E+03  0.12509000000E+03 0.  0.
         25    1    4    4    0    0  0.63289651348E+02 -0.20930162800E+02  0.40890155403E+01  0.14180225608E+03  0.12509000000E+03 0.  0.
         25    1    4    4    0    0 -0.10494052772E+02 -0.52012581537E+02  0.18909847505E+02  0.13718791570E+03  0.12509000000E+03 0.  0.
<mgrwt>
<rscale>  2 0.43329877E+03</rscale>
<asrwt>0</asrwt>
<pdfrwt beam="1">  1       21 0.36519334E-01 0.43329877E+03</pdfrwt>
<pdfrwt beam="2">  1       21 0.27795484E-01 0.43329877E+03</pdfrwt>
<totfact> 0.83388032E+04</totfact>
</mgrwt>
</event>
<event>
 7    0  0.4788920E-002  0.4535708E+03  0.7546771E-02  0.1026663E+00
         21   -1    0    0  502  501  0.00000000000E+00  0.00000000000E+00  0.78423936917E+02  0.78423936917E+02  0.00000000000E+00 0.  1.
         21   -1    0    0  501  502 -0.00000000000E+00 -0.00000000000E+00 -0.65581528775E+03  0.65581528775E+03  0.00000000000E+00 0.  1.
      99926    2    1    2    0    0  0.00000000000E+00  0.00000000000E+00 -0.57739135083E+03  0.73423922467E+03  0.45357079604E+03 0.  0.
      99925    2    3    3    0    0  0.85332048891E+02 -0.18148049868E+02 -0.25092435600E+03  0.37390727063E+03  0.26312108300E+03 0.  0.
         25    1    3    3    0    0 -0.85332048891E+02  0.18148049868E+02 -0.32646699483E+03  0.36033195403E+03  0.12509000000E+03 0.  0.
         25    1    4    4    0    0  0.13483803130E+02  0.21538784592E+01 -0.79056186144E+02  0.14860632829E+03  0.12509000000E+03 0.  0.
         25    1    4    4    0    0  0.71848245761E+02 -0.20301928328E+02 -0.17186816985E+03  0.22530094235E+03  0.12509000000E+03 0.  0.
<mgrwt>
<rscale>  2 0.45357080E+03</rscale>
<asrwt>0</asrwt>
<pdfrwt beam="1">  1       21 0.11532932E-01 0.45357080E+03</pdfrwt>
<pdfrwt beam="2">  1       21 0.96443422E-01 0.45357080E+03</pdfrwt>
<totfact> 0.51661215E+04</totfact>
</mgrwt>
</event>
<event>
 7    0  0.4788920E-002  0.4184583E+03  0.7546771E-02  0.1037569E+00
         21   -1    0    0  502  501  0.00000000000E+00  0.00000000000E+00  0.42264205053E+03  0.42264205053E+03  0.00000000000E+00 0. -1.
         21   -1    0    0  501  502 -0.00000000000E+00 -0.00000000000E+00 -0.10357900333E+03  0.10357900333E+03  0.00000000000E+00 0. -1.
      99926    2    1    2    0    0  0.71054273576E-14  0.00000000000E+00  0.31906304720E+03  0.52622105386E+03  0.41845832462E+03 0.  0.
      99925    2    3    3    0    0  0.47460004498E+02 -0.53322008157E+02  0.23224281766E+03  0.35805164839E+03  0.26299917867E+03 0.  0.
         25    1    3    3    0    0 -0.47460004498E+02  0.53322008157E+02  0.86820229531E+02  0.16816940547E+03  0.12509000000E+03 0.  0.
         25    1    4    4    0    0  0.64733865081E+02 -0.24776734086E+02  0.11877498336E+03  0.18590149169E+03  0.12509000000E+03 0.  0.
         25    1    4    4    0    0 -0.17273860583E+02 -0.28545274070E+02  0.11346783431E+03  0.17215015671E+03  0.12509000000E+03 0.  0.
<mgrwt>
<rscale>  2 0.41845832E+03</rscale>
<asrwt>0</asrwt>
<pdfrwt beam="1">  1       21 0.62153242E-01 0.41845832E+03</pdfrwt>
<pdfrwt beam="2">  1       21 0.15232207E-01 0.41845832E+03</pdfrwt>
<totfact> 0.85693625E+04</totfact>
</mgrwt>
</event>
<event>
 7    0  0.4788920E-002  0.4500907E+03  0.7546771E-02  0.1027695E+00
         21   -1    0    0  502  501  0.00000000000E+00  0.00000000000E+00  0.11338968168E+03  0.11338968168E+03  0.00000000000E+00 0. -1.
         21   -1    0    0  501  502 -0.00000000000E+00 -0.00000000000E+00 -0.44664923080E+03  0.44664923080E+03  0.00000000000E+00 0. -1.
      99926    2    1    2    0    0 -0.17763568394E-14  0.14210854715E-13 -0.33325954913E+03  0.56003891248E+03  0.45009072020E+03 0.  0.
      99925    2    3    3    0    0 -0.15190976141E+02  0.64217853169E+02 -0.31787546484E+03  0.41777550689E+03  0.26293889896E+03 0.  0.
         25    1    4    4    0    0  0.89168766245E+01  0.61653384410E+02 -0.20147241449E+03  0.24519235796E+03  0.12509000000E+03 0.  0.
         25    1    3    3    0    0  0.15190976141E+02 -0.64217853169E+02 -0.15384084282E+02  0.14226340559E+03  0.12509000000E+03 0.  0.
         25    1    4    4    0    0 -0.24107852765E+02  0.25644687581E+01 -0.11640305035E+03  0.17258314893E+03  0.12509000000E+03 0.  0.
<mgrwt>
<rscale>  2 0.45009072E+03</rscale>
<asrwt>0</asrwt>
<pdfrwt beam="1">  1       21 0.16674953E-01 0.45009072E+03</pdfrwt>
<pdfrwt beam="2">  1       21 0.65683710E-01 0.45009072E+03</pdfrwt>
<totfact> 0.63643565E+04</totfact>
</mgrwt>
</event>
<event>
 7    0  0.4788920E-002  0.4242802E+03  0.7546771E-02  0.1035682E+00
         21   -1    0    0  502  501  0.00000000000E+00  0.00000000000E+00  0.21686323252E+03  0.21686323252E+03  0.00000000000E+00 0.  1.
         21   -1    0    0  501  502 -0.00000000000E+00 -0.00000000000E+00 -0.20751981557E+03  0.20751981557E+03  0.00000000000E+00 0.  1.
      99926    2    1    2    0    0  0.00000000000E+00  0.00000000000E+00  0.93434169530E+01  0.42438304809E+03  0.42428018109E+03 0.  0.
      99925    2    3    3    0    0  0.38893548673E+02 -0.52044179366E+02  0.54386669441E+02  0.27640430831E+03  0.26309718186E+03 0.  0.
         25    1    4    4    0    0  0.25320925203E+02 -0.67248792841E+02  0.28595699351E+02  0.14706723467E+03  0.12509000000E+03 0.  0.
         25    1    3    3    0    0 -0.38893548673E+02  0.52044179366E+02 -0.45043252488E+02  0.14797873979E+03  0.12509000000E+03 0.  0.
         25    1    4    4    0    0  0.13572623470E+02  0.15204613474E+02  0.25790970091E+02  0.12933707364E+03  0.12509000000E+03 0.  0.
<mgrwt>
<rscale>  2 0.42428018E+03</rscale>
<asrwt>0</asrwt>
<pdfrwt beam="1">  1       21 0.31891652E-01 0.42428018E+03</pdfrwt>
<pdfrwt beam="2">  1       21 0.30517620E-01 0.42428018E+03</pdfrwt>
<totfact> 0.91246822E+04</totfact>
</mgrwt>
</event>
<event>
 7    0  0.4788920E-002  0.4385859E+03  0.7546771E-02  0.1031182E+00
         21   -1    0    0  502  501  0.00000000000E+00  0.00000000000E+00  0.28537495454E+03  0.28537495454E+03  0.00000000000E+00 0.  1.
         21   -1    0    0  501  502 -0.00000000000E+00 -0.00000000000E+00 -0.16851301190E+03  0.16851301190E+03  0.00000000000E+00 0.  1.
      99926    2    1    2    0    0  0.71054273576E-14  0.00000000000E+00  0.11686194264E+03  0.45388796644E+03  0.43858587807E+03 0.  0.
      99925    2    3    3    0    0 -0.47219552567E+02  0.40964623503E+02 -0.20317870505E+01  0.27033684663E+03  0.26300208357E+03 0.  0.
         25    1    4    4    0    0 -0.55829653415E+02  0.45984368967E+02 -0.79173189536E+01  0.14471248885E+03  0.12509000000E+03 0.  0.
         25    1    4    4    0    0  0.86101008480E+01 -0.50197454644E+01  0.58855319030E+01  0.12562435778E+03  0.12509000000E+03 0.  0.
         25    1    3    3    0    0  0.47219552567E+02 -0.40964623503E+02  0.11889372969E+03  0.18355111981E+03  0.12509000000E+03 0.  0.
<mgrwt>
<rscale>  2 0.43858588E+03</rscale>
<asrwt>0</asrwt>
<pdfrwt beam="1">  1       21 0.41966905E-01 0.43858588E+03</pdfrwt>
<pdfrwt beam="2">  1       21 0.24781325E-01 0.43858588E+03</pdfrwt>
<totfact> 0.78370658E+04</totfact>
</mgrwt>
</event>
<event>
 7    0  0.4788920E-002  0.4529594E+03  0.7546771E-02  0.1026843E+00
         21   -1    0    0  502  501  0.00000000000E+00  0.00000000000E+00  0.67352166249E+02  0.67352166249E+02  0.00000000000E+00 0. -1.
         21   -1    0    0  501  502 -0.00000000000E+00 -0.00000000000E+00 -0.76156494522E+03  0.76156494522E+03  0.00000000000E+00 0. -1.
      99926    2    1    2    0    0  0.14210854715E-13 -0.71054273576E-14 -0.69421277897E+03  0.82891711147E+03  0.45295937478E+03 0.  0.
      99925    2    3    3    0    0 -0.97201024719E+02  0.46340042684E+02 -0.48929121390E+03  0.56579015600E+03  0.26290144516E+03 0.  0.
         25    1    4    4    0    0 -0.81001942345E+02  0.20768084252E+02 -0.31539604964E+03  0.34944928705E+03  0.12509000000E+03 0.  0.
         25    1    3    3    0    0  0.97201024719E+02 -0.46340042684E+02 -0.20492156506E+03  0.26312695546E+03  0.12509000000E+03 0.  0.
         25    1    4    4    0    0 -0.16199082374E+02  0.25571958432E+02 -0.17389516426E+03  0.21634086896E+03  0.12509000000E+03 0.  0.
<mgrwt>
<rscale>  2 0.45295937E+03</rscale>
<asrwt>0</asrwt>
<pdfrwt beam="1">  1       21 0.99047301E-02 0.45295937E+03</pdfrwt>
<pdfrwt beam="2">  1       21 0.11199485E+00 0.45295937E+03</pdfrwt>
<totfact> 0.47148082E+04</totfact>
</mgrwt>
</event>
<event>
 7    0  0.4788920E-002  0.4521829E+03  0.7546771E-02  0.1027073E+00
         21   -1    0    0  502  501  0.00000000000E+00  0.00000000000E+00  0.82598232502E+03  0.82598232502E+03  0.00000000000E+00 0. -1.
         21   -1    0    0  501  502 -0.00000000000E+00 -0.00000000000E+00 -0.61886716957E+02  0.61886716957E+02  0.00000000000E+00 0. -1.
      99926    2    1    2    0    0  0.00000000000E+00  0.71054273576E-14  0.76409560807E+03  0.88786904198E+03  0.45218285841E+03 0.  0.
      99925    2    3    3    0    0 -0.66238253807E+02  0.47444418335E+02  0.63049052726E+03  0.68752856974E+03  0.26179906446E+03 0.  0.
         25    1    4    4    0    0 -0.58233417263E+02  0.32838130093E+02  0.26050465389E+03  0.29661364850E+03  0.12509000000E+03 0.  0.
         25    1    3    3    0    0  0.66238253807E+02 -0.47444418335E+02  0.13360508081E+03  0.20034047224E+03  0.12509000000E+03 0.  0.
         25    1    4    4    0    0 -0.80048365438E+01  0.14606288242E+02  0.36998587336E+03  0.39091492125E+03  0.12509000000E+03 0.  0.
<mgrwt>
<rscale>  2 0.45218286E+03</rscale>
<asrwt>0</asrwt>
<pdfrwt beam="1">  1       21 0.12146798E+00 0.45218286E+03</pdfrwt>
<pdfrwt beam="2">  1       21 0.91009883E-02 0.45218286E+03</pdfrwt>
<totfact> 0.44741241E+04</totfact>
</mgrwt>
</event>
<event>
 7    0  0.4788920E-002  0.4438753E+03  0.7546771E-02  0.1029564E+00
         21   -1    0    0  502  501  0.00000000000E+00  0.00000000000E+00  0.15127420405E+03  0.15127420405E+03  0.00000000000E+00 0.  1.
         21   -1    0    0  501  502 -0.00000000000E+00 -0.00000000000E+00 -0.32560952338E+03  0.32560952338E+03  0.00000000000E+00 0.  1.
      99926    2    1    2    0    0  0.00000000000E+00  0.35527136788E-14 -0.17433531932E+03  0.47688372743E+03  0.44387530448E+03 0.  0.
      99925    2    3    3    0    0 -0.47244843970E+02 -0.27045659030E+02 -0.20378189766E+03  0.33731957720E+03  0.26323733092E+03 0.  0.
         25    1    4    4    0    0  0.57180104737E+01  0.69278046094E+01 -0.69833699202E+02  0.14354422233E+03  0.12509000000E+03 0.  0.
         25    1    3    3    0    0  0.47244843970E+02  0.27045659030E+02  0.29446578342E+02  0.13956415023E+03  0.12509000000E+03 0.  0.
         25    1    4    4    0    0 -0.52962854443E+02 -0.33973463640E+02 -0.13394819846E+03  0.19377535487E+03  0.12509000000E+03 0.  0.
<mgrwt>
<rscale>  2 0.44387530E+03</rscale>
<asrwt>0</asrwt>
<pdfrwt beam="1">  1       21 0.22246207E-01 0.44387530E+03</pdfrwt>
<pdfrwt beam="2">  1       21 0.47883753E-01 0.44387530E+03</pdfrwt>
<totfact> 0.73179617E+04</totfact>
</mgrwt>
</event>
<event>
 7    0  0.4788920E-002  0.4530356E+03  0.7546771E-02  0.1026821E+00
         21   -1    0    0  502  501  0.00000000000E+00  0.00000000000E+00  0.83909045228E+03  0.83909045228E+03  0.00000000000E+00 0. -1.
         21   -1    0    0  501  502 -0.00000000000E+00 -0.00000000000E+00 -0.61149909896E+02  0.61149909896E+02  0.00000000000E+00 0. -1.
      99926    2    1    2    0    0  0.00000000000E+00  0.00000000000E+00  0.77794054238E+03  0.90024036217E+03  0.45303556395E+03 0.  0.
      99925    2    3    3    0    0 -0.82458896573E+02 -0.69301998699E+02  0.54543645927E+03  0.61509497222E+03  0.26313239463E+03 0.  0.
         25    1    4    4    0    0 -0.14261219996E+02 -0.22389998798E+02  0.31693187554E+03  0.34175724758E+03  0.12509000000E+03 0.  0.
         25    1    4    4    0    0 -0.68197676577E+02 -0.46911999901E+02  0.22850458373E+03  0.27333772464E+03  0.12509000000E+03 0.  0.
         25    1    3    3    0    0  0.82458896573E+02  0.69301998699E+02  0.23250408311E+03  0.28514538995E+03  0.12509000000E+03 0.  0.
<mgrwt>
<rscale>  2 0.45303556E+03</rscale>
<asrwt>0</asrwt>
<pdfrwt beam="1">  1       21 0.12339565E+00 0.45303556E+03</pdfrwt>
<pdfrwt beam="2">  1       21 0.89926343E-02 0.45303556E+03</pdfrwt>
<totfact> 0.43894530E+04</totfact>
</mgrwt>
</event>
<event>
 7    0  0.4788920E-002  0.4576133E+03  0.7546771E-02  0.1025476E+00
         21   -1    0    0  502  501  0.00000000000E+00  0.00000000000E+00  0.20880374251E+03  0.20880374251E+03  0.00000000000E+00 0.  1.
         21   -1    0    0  501  502 -0.00000000000E+00 -0.00000000000E+00 -0.25072584250E+03  0.25072584250E+03  0.00000000000E+00 0.  1.
      99926    2    1    2    0    0  0.00000000000E+00 -0.14210854715E-13 -0.41922099994E+02  0.45952958501E+03  0.45761334883E+03 0.  0.
      99925    2    3    3    0    0 -0.28929580857E+02  0.89984140703E+02  0.40679148526E+02  0.28231632201E+03  0.26289474381E+03 0.  0.
         25    1    4    4    0    0 -0.25317057896E+02  0.78307198171E+02 -0.14989170583E+01  0.14974219699E+03  0.12509000000E+03 0.  0.
         25    1    3    3    0    0  0.28929580857E+02 -0.89984140703E+02 -0.82601248520E+02  0.17721326300E+03  0.12509000000E+03 0.  0.
         25    1    4    4    0    0 -0.36125229607E+01  0.11676942532E+02  0.42178065584E+02  0.13257412502E+03  0.12509000000E+03 0.  0.
<mgrwt>
<rscale>  2 0.45761335E+03</rscale>
<asrwt>0</asrwt>
<pdfrwt beam="1">  1       21 0.30706433E-01 0.45761335E+03</pdfrwt>
<pdfrwt beam="2">  1       21 0.36871447E-01 0.45761335E+03</pdfrwt>
<totfact> 0.66811257E+04</totfact>
</mgrwt>
</event>
<event>
 7    0  0.4788920E-002  0.4550121E+03  0.7546771E-02  0.1026238E+00
         21   -1    0    0  502  501  0.00000000000E+00  0.00000000000E+00  0.14499650856E+03  0.14499650856E+03  0.00000000000E+00 0. -1.
         21   -1    0    0  501  502 -0.00000000000E+00 -0.00000000000E+00 -0.35696724957E+03  0.35696724957E+03  0.00000000000E+00 0. -1.
      99926    2    1    2    0    0 -0.14210854715E-13  0.00000000000E+00 -0.21197074101E+03  0.50196375812E+03  0.45501210910E+03 0.  0.
      99925    2    3    3    0    0  0.91812820644E+02 -0.62313080105E+02 -0.10852275041E+03  0.30533845750E+03  0.26294842134E+03 0.  0.
         25    1    4    4    0    0  0.54591734821E+01 -0.15776012524E+02 -0.54219020598E+02  0.13735317776E+03  0.12509000000E+03 0.  0.
         25    1    3    3    0    0 -0.91812820644E+02  0.62313080105E+02 -0.10344799060E+03  0.19662530063E+03  0.12509000000E+03 0.  0.
         25    1    4    4    0    0  0.86353647162E+02 -0.46537067581E+02 -0.54303729810E+02  0.16798527974E+03  0.12509000000E+03 0.  0.
<mgrwt>
<rscale>  2 0.45501211E+03</rscale>
<asrwt>0</asrwt>
<pdfrwt beam="1">  1       21 0.21323016E-01 0.45501211E+03</pdfrwt>
<pdfrwt beam="2">  1       21 0.52495183E-01 0.45501211E+03</pdfrwt>
<totfact> 0.65126662E+04</totfact>
</mgrwt>
</event>
<event>
 7    0  0.4788920E-002  0.4538118E+03  0.7546771E-02  0.1026591E+00
         21   -1    0    0  502  501  0.00000000000E+00  0.00000000000E+00  0.11680963946E+03  0.11680963946E+03  0.00000000000E+00 0. -1.
         21   -1    0    0  501  502 -0.00000000000E+00 -0.00000000000E+00 -0.44077094654E+03  0.44077094654E+03  0.00000000000E+00 0. -1.
      99926    2    1    2    0    0  0.14210854715E-13  0.00000000000E+00 -0.32396130708E+03  0.55758058600E+03  0.45381183479E+03 0.  0.
      99925    2    3    3    0    0  0.11180887586E+03  0.86044175668E+01 -0.21039161764E+03  0.35479783727E+03  0.26275770557E+03 0.  0.
         25    1    4    4    0    0  0.74580208463E+02  0.36893956371E+02 -0.90871152681E+02  0.17558031211E+03  0.12509000000E+03 0.  0.
         25    1    4    4    0    0  0.37228667394E+02 -0.28289538804E+02 -0.11952046495E+03  0.17921752516E+03  0.12509000000E+03 0.  0.
         25    1    3    3    0    0 -0.11180887586E+03 -0.86044175668E+01 -0.11356968944E+03  0.20278274873E+03  0.12509000000E+03 0.  0.
<mgrwt>
<rscale>  2 0.45381183E+03</rscale>
<asrwt>0</asrwt>
<pdfrwt beam="1">  1       21 0.17177889E-01 0.45381183E+03</pdfrwt>
<pdfrwt beam="2">  1       21 0.64819255E-01 0.45381183E+03</pdfrwt>
<totfact> 0.61948536E+04</totfact>
</mgrwt>
</event>
<event>
 7    0  0.4788920E-002  0.4786493E+03  0.7546771E-02  0.1019507E+00
         21   -1    0    0  502  501  0.00000000000E+00  0.00000000000E+00  0.10683224447E+03  0.10683224447E+03  0.00000000000E+00 0. -1.
         21   -1    0    0  501  502 -0.00000000000E+00 -0.00000000000E+00 -0.53613296748E+03  0.53613296748E+03  0.00000000000E+00 0. -1.
      99926    2    1    2    0    0  0.14210854715E-13  0.00000000000E+00 -0.42930072302E+03  0.64296521195E+03  0.47864930063E+03 0.  0.
      99925    2    3    3    0    0 -0.95283305099E+02  0.35068043642E+02 -0.14725535487E+03  0.31814868880E+03  0.26310791081E+03 0.  0.
         25    1    4    4    0    0 -0.84096152961E+02  0.11444788392E+02 -0.56364505739E+02  0.16133075259E+03  0.12509000000E+03 0.  0.
         25    1    3    3    0    0  0.95283305099E+02 -0.35068043642E+02 -0.28204536815E+03  0.32481652315E+03  0.12509000000E+03 0.  0.
         25    1    4    4    0    0 -0.11187152137E+02  0.23623255249E+02 -0.90890849127E+02  0.15681793621E+03  0.12509000000E+03 0.  0.
<mgrwt>
<rscale>  2 0.47864930E+03</rscale>
<asrwt>0</asrwt>
<pdfrwt beam="1">  1       21 0.15710624E-01 0.47864930E+03</pdfrwt>
<pdfrwt beam="2">  1       21 0.78843084E-01 0.47864930E+03</pdfrwt>
<totfact> 0.46752047E+04</totfact>
</mgrwt>
</event>
<event>
 7    0  0.4788920E-002  0.4565117E+03  0.7546771E-02  0.1025798E+00
         21   -1    0    0  502  501  0.00000000000E+00  0.00000000000E+00  0.13271503859E+04  0.13271503859E+04  0.00000000000E+00 0. -1.
         21   -1    0    0  501  502 -0.00000000000E+00 -0.00000000000E+00 -0.39257598907E+02  0.39257598907E+02  0.00000000000E+00 0. -1.
      99926    2    1    2    0    0  0.35527136788E-14  0.00000000000E+00  0.12878927870E+04  0.13664079848E+04  0.45651171963E+03 0.  0.
      99925    2    3    3    0    0 -0.14220384092E+02 -0.62041713618E+02  0.52438507217E+03  0.59010718470E+03  0.26305017006E+03 0.  0.
         25    1    3    3    0    0  0.14220384092E+02  0.62041713618E+02  0.76350771482E+03  0.77630080011E+03  0.12509000000E+03 0.  0.
         25    1    4    4    0    0  0.31894777145E+02 -0.39631300060E+02  0.27833620390E+03  0.30936461862E+03  0.12509000000E+03 0.  0.
         25    1    4    4    0    0 -0.46115161237E+02 -0.22410413558E+02  0.24604886828E+03  0.28074256609E+03  0.12509000000E+03 0.  0.
<mgrwt>
<rscale>  2 0.45651172E+03</rscale>
<asrwt>0</asrwt>
<pdfrwt beam="1">  1       21 0.19516914E+00 0.45651172E+03</pdfrwt>
<pdfrwt beam="2">  1       21 0.57731772E-02 0.45651172E+03</pdfrwt>
<totfact> 0.26923362E+04</totfact>
</mgrwt>
</event>
<event>
 7    0  0.4788920E-002  0.4574579E+03  0.7546771E-02  0.1025521E+00
         21   -1    0    0  502  501  0.00000000000E+00  0.00000000000E+00  0.46895549789E+02  0.46895549789E+02  0.00000000000E+00 0. -1.
         21   -1    0    0  501  502 -0.00000000000E+00 -0.00000000000E+00 -0.11156056367E+04  0.11156056367E+04  0.00000000000E+00 0. -1.
      99926    2    1    2    0    0  0.14210854715E-13  0.00000000000E+00 -0.10687100869E+04  0.11625011865E+04  0.45745793110E+03 0.  0.
      99925    2    3    3    0    0  0.10117689496E+03 -0.38103028212E+02 -0.56826283938E+03  0.63544942386E+03  0.26302986680E+03 0.  0.
         25    1    3    3    0    0 -0.10117689496E+03  0.38103028212E+02 -0.50044724753E+03  0.52705176263E+03  0.12509000000E+03 0.  0.
         25    1    4    4    0    0  0.45729952888E+02  0.15248965015E+02 -0.22210525624E+03  0.25942631416E+03  0.12509000000E+03 0.  0.
         25    1    4    4    0    0  0.55446942074E+02 -0.53351993227E+02 -0.34615758314E+03  0.37602310970E+03  0.12509000000E+03 0.  0.
<mgrwt>
<rscale>  2 0.45745793E+03</rscale>
<asrwt>0</asrwt>
<pdfrwt beam="1">  1       21 0.68964038E-02 0.45745793E+03</pdfrwt>
<pdfrwt beam="2">  1       21 0.16405967E+00 0.45745793E+03</pdfrwt>
<totfact> 0.32736169E+04</totfact>
</mgrwt>
</event>
<event>
 7    0  0.4788920E-002  0.4788391E+03  0.7546771E-02  0.1019455E+00
         21   -1    0    0  502  501  0.00000000000E+00  0.00000000000E+00  0.55846575299E+03  0.55846575299E+03  0.00000000000E+00 0.  1.
         21   -1    0    0  501  502 -0.00000000000E+00 -0.00000000000E+00 -0.10264144001E+03  0.10264144001E+03  0.00000000000E+00 0.  1.
      99926    2    1    2    0    0  0.00000000000E+00  0.00000000000E+00  0.45582431298E+03  0.66110719301E+03  0.47883913410E+03 0.  0.
      99925    2    3    3    0    0  0.60398195955E+02  0.83342834544E+02  0.16099775815E+03  0.32470835877E+03  0.26252860793E+03 0.  0.
         25    1    3    3    0    0 -0.60398195955E+02 -0.83342834544E+02  0.29482655482E+03  0.33639883423E+03  0.12509000000E+03 0.  0.
         25    1    4    4    0    0  0.65195751578E+01  0.82518058314E+01  0.85027172143E+02  0.15161703487E+03  0.12509000000E+03 0.  0.
         25    1    4    4    0    0  0.53878620797E+02  0.75091028712E+02  0.75970586011E+02  0.17309132390E+03  0.12509000000E+03 0.  0.
<mgrwt>
<rscale>  2 0.47883913E+03</rscale>
<asrwt>0</asrwt>
<pdfrwt beam="1">  1       21 0.82127315E-01 0.47883913E+03</pdfrwt>
<pdfrwt beam="2">  1       21 0.15094330E-01 0.47883913E+03</pdfrwt>
<totfact> 0.45822485E+04</totfact>
</mgrwt>
</event>
<event>
 6    0  0.4788920E-002  0.4558028E+03  0.7546771E-02  0.1026006E+00
         21   -1    0    0  502  501  0.00000000000E+00  0.00000000000E+00  0.91998396762E+03  0.91998396762E+03  0.00000000000E+00 0. -1.
         21   -1    0    0  501  502 -0.00000000000E+00 -0.00000000000E+00 -0.56456477920E+02  0.56456477920E+02  0.00000000000E+00 0. -1.
      99926    2    1    2    0    0  0.71054273576E-14  0.00000000000E+00  0.86352748970E+03  0.97644044554E+03  0.45580282823E+03 0.  0.
         25    1    3    3    0    0  0.52119362462E+02 -0.85967179751E+01  0.12547171632E+03  0.18488101903E+03  0.12509000000E+03 0.  0.
         25    1    3    3    0    0 -0.62538006668E+02  0.48113365842E+02  0.47385519680E+03  0.49639918804E+03  0.12509000000E+03 0.  0.
         25    1    3    3    0    0  0.10418644205E+02 -0.39516647867E+02  0.26420057658E+03  0.29516023847E+03  0.12509000000E+03 0.  0.
<mgrwt>
<rscale>  2 0.45580283E+03</rscale>
<asrwt>0</asrwt>
<pdfrwt beam="1">  1       21 0.13529175E+00 0.45580283E+03</pdfrwt>
<pdfrwt beam="2">  1       21 0.83024238E-02 0.45580283E+03</pdfrwt>
<totfact> 0.39837633E+04</totfact>
</mgrwt>
</event>
<event>
 7    0  0.4788920E-002  0.4567594E+03  0.7546771E-02  0.1025725E+00
         21   -1    0    0  502  501  0.00000000000E+00  0.00000000000E+00  0.77403108576E+02  0.77403108576E+02  0.00000000000E+00 0. -1.
         21   -1    0    0  501  502 -0.00000000000E+00 -0.00000000000E+00 -0.67383979595E+03  0.67383979595E+03  0.00000000000E+00 0. -1.
      99926    2    1    2    0    0  0.14210854715E-13 -0.35527136788E-14 -0.59643668737E+03  0.75124290453E+03  0.45675943291E+03 0.  0.
      99925    2    3    3    0    0 -0.11170782673E+03  0.25297017902E+02 -0.38447610738E+03  0.47977767058E+03  0.26314664804E+03 0.  0.
         25    1    4    4    0    0 -0.81243316873E+02  0.31702182479E+02 -0.16073835983E+03  0.22156225611E+03  0.12509000000E+03 0.  0.
         25    1    4    4    0    0 -0.30464509861E+02 -0.64051645770E+01 -0.22373774755E+03  0.25821541448E+03  0.12509000000E+03 0.  0.
         25    1    3    3    0    0  0.11170782673E+03 -0.25297017902E+02 -0.21196057999E+03  0.27146523394E+03  0.12509000000E+03 0.  0.
<mgrwt>
<rscale>  2 0.45675943E+03</rscale>
<asrwt>0</asrwt>
<pdfrwt beam="1">  1       21 0.11382811E-01 0.45675943E+03</pdfrwt>
<pdfrwt beam="2">  1       21 0.99094081E-01 0.45675943E+03</pdfrwt>
<totfact> 0.49519237E+04</totfact>
</mgrwt>
</event>
<event>
 7    0  0.4788920E-002  0.4565511E+03  0.7546771E-02  0.1025786E+00
         21   -1    0    0  502  501  0.00000000000E+00  0.00000000000E+00  0.77183327995E+02  0.77183327995E+02  0.00000000000E+00 0. -1.
         21   -1    0    0  501  502 -0.00000000000E+00 -0.00000000000E+00 -0.67514231916E+03  0.67514231916E+03  0.00000000000E+00 0. -1.
      99926    2    1    2    0    0  0.24424906542E-14  0.00000000000E+00 -0.59795899116E+03  0.75232564715E+03  0.45655111899E+03 0.  0.
      99925    2    3    3    0    0  0.16187749503E+01  0.41430320313E+02 -0.55182782401E+03  0.61270228035E+03  0.26300388804E+03 0.  0.
         25    1    4    4    0    0 -0.19268805136E+02  0.50784818683E+02 -0.24177495582E+03  0.27758426112E+03  0.12509000000E+03 0.  0.
         25    1    3    3    0    0 -0.16187749503E+01 -0.41430320313E+02 -0.46131167154E+02  0.13962336680E+03  0.12509000000E+03 0.  0.
         25    1    4    4    0    0  0.20887580086E+02 -0.93544983699E+01 -0.31005286819E+03  0.33511801923E+03  0.12509000000E+03 0.  0.
<mgrwt>
<rscale>  2 0.45655112E+03</rscale>
<asrwt>0</asrwt>
<pdfrwt beam="1">  1       21 0.11350490E-01 0.45655112E+03</pdfrwt>
<pdfrwt beam="2">  1       21 0.99285634E-01 0.45655112E+03</pdfrwt>
<totfact> 0.49545651E+04</totfact>
</mgrwt>
</event>
<event>
 7    0  0.4788920E-002  0.4533699E+03  0.7546771E-02  0.1026722E+00
         21   -1    0    0  502  501  0.00000000000E+00  0.00000000000E+00  0.11809227913E+03  0.11809227913E+03  0.00000000000E+00 0.  1.
         21   -1    0    0  501  502 -0.00000000000E+00 -0.00000000000E+00 -0.43513492244E+03  0.43513492244E+03  0.00000000000E+00 0.  1.
      99926    2    1    2    0    0  0.71054273576E-14  0.00000000000E+00 -0.31704264331E+03  0.55322720157E+03  0.45336993601E+03 0.  0.
      99925    2    3    3    0    0  0.57649517735E+02 -0.70429518658E+02 -0.27848833787E+03  0.39379782359E+03  0.26312960218E+03 0.  0.
         25    1    4    4    0    0  0.65110053201E+02 -0.58058348911E+02 -0.15255434591E+03  0.21570912698E+03  0.12509000000E+03 0.  0.
         25    1    3    3    0    0 -0.57649517735E+02  0.70429518658E+02 -0.38554305443E+02  0.15942937798E+03  0.12509000000E+03 0.  0.
         25    1    4    4    0    0 -0.74605354662E+01 -0.12371169747E+02 -0.12593399196E+03  0.17808869661E+03  0.12509000000E+03 0.  0.
<mgrwt>
<rscale>  2 0.45336994E+03</rscale>
<asrwt>0</asrwt>
<pdfrwt beam="1">  1       21 0.17366512E-01 0.45336994E+03</pdfrwt>
<pdfrwt beam="2">  1       21 0.63990428E-01 0.45336994E+03</pdfrwt>
<totfact> 0.62455282E+04</totfact>
</mgrwt>
</event>
<event>
 7    0  0.4788920E-002  0.4467135E+03  0.7546771E-02  0.1028707E+00
         21   -1    0    0  502  501  0.00000000000E+00  0.00000000000E+00  0.38841224357E+02  0.38841224357E+02  0.00000000000E+00 0.  1.
         21   -1    0    0  501  502 -0.00000000000E+00 -0.00000000000E+00 -0.12844145838E+04  0.12844145838E+04  0.00000000000E+00 0.  1.
      99926    2    1    2    0    0 -0.71054273576E-14  0.71054273576E-14 -0.12455733595E+04  0.13232558082E+04  0.44671348768E+03 0.  0.
      99925    2    3    3    0    0  0.54446835068E+02 -0.41804867648E+02 -0.10259701359E+04  0.10613680675E+04  0.26301207235E+03 0.  0.
         25    1    4    4    0    0  0.29503617802E+02 -0.46380740450E+02 -0.65365931174E+03  0.66778712212E+03  0.12509000000E+03 0.  0.
         25    1    4    4    0    0  0.24943217266E+02  0.45758728019E+01 -0.37231082412E+03  0.39358094537E+03  0.12509000000E+03 0.  0.
         25    1    3    3    0    0 -0.54446835068E+02  0.41804867648E+02 -0.21960322363E+03  0.26188774072E+03  0.12509000000E+03 0.  0.
<mgrwt>
<rscale>  2 0.44671349E+03</rscale>
<asrwt>0</asrwt>
<pdfrwt beam="1">  1       21 0.57119456E-02 0.44671349E+03</pdfrwt>
<pdfrwt beam="2">  1       21 0.18888447E+00 0.44671349E+03</pdfrwt>
<totfact> 0.30356109E+04</totfact>
</mgrwt>
</event>
<event>
 7    0  0.4788920E-002  0.4402557E+03  0.7546771E-02  0.1030668E+00
         21   -1    0    0  502  501  0.00000000000E+00  0.00000000000E+00  0.30292909834E+03  0.30292909834E+03  0.00000000000E+00 0.  1.
         21   -1    0    0  501  502 -0.00000000000E+00 -0.00000000000E+00 -0.15995908990E+03  0.15995908990E+03  0.00000000000E+00 0.  1.
      99926    2    1    2    0    0  0.00000000000E+00  0.14210854715E-13  0.14297000844E+03  0.46288818824E+03  0.44025566606E+03 0.  0.
      99925    2    3    3    0    0 -0.61815463592E+01  0.82439437946E+02  0.14792536700E+03  0.31286640275E+03  0.26299999871E+03 0.  0.
         25    1    4    4    0    0 -0.75358442305E+01  0.88324044806E+01  0.39490061807E+02  0.13168816727E+03  0.12509000000E+03 0.  0.
         25    1    4    4    0    0  0.13542978714E+01  0.73607033466E+02  0.10843530519E+03  0.18117823548E+03  0.12509000000E+03 0.  0.
         25    1    3    3    0    0  0.61815463592E+01 -0.82439437946E+02 -0.49553585609E+01  0.15002178549E+03  0.12509000000E+03 0.  0.
<mgrwt>
<rscale>  2 0.44025567E+03</rscale>
<asrwt>0</asrwt>
<pdfrwt beam="1">  1       21 0.44548397E-01 0.44025567E+03</pdfrwt>
<pdfrwt beam="2">  1       21 0.23523395E-01 0.44025567E+03</pdfrwt>
<totfact> 0.76537934E+04</totfact>
</mgrwt>
</event>
<event>
 7    0  0.4788920E-002  0.4557937E+03  0.7546771E-02  0.1026008E+00
         21   -1    0    0  502  501  0.00000000000E+00  0.00000000000E+00  0.63512068751E+02  0.63512068751E+02  0.00000000000E+00 0.  1.
         21   -1    0    0  501  502 -0.00000000000E+00 -0.00000000000E+00 -0.81774961763E+03  0.81774961763E+03  0.00000000000E+00 0.  1.
      99926    2    1    2    0    0  0.00000000000E+00  0.00000000000E+00 -0.75423754888E+03  0.88126168638E+03  0.45579368111E+03 0.  0.
      99925    2    3    3    0    0  0.50967332790E+02 -0.10141288978E+03 -0.49254040691E+03  0.56978914274E+03  0.26302351896E+03 0.  0.
         25    1    3    3    0    0 -0.50967332790E+02  0.10141288978E+03 -0.26169714197E+03  0.31147254364E+03  0.12509000000E+03 0.  0.
         25    1    4    4    0    0 -0.70580111020E+01 -0.49328198602E+02 -0.28525716905E+03  0.31543976809E+03  0.12509000000E+03 0.  0.
         25    1    4    4    0    0  0.58025343892E+02 -0.52084691178E+02 -0.20728323786E+03  0.25434937465E+03  0.12509000000E+03 0.  0.
<mgrwt>
<rscale>  2 0.45579368E+03</rscale>
<asrwt>0</asrwt>
<pdfrwt beam="1">  1       21 0.93400111E-02 0.45579368E+03</pdfrwt>
<pdfrwt beam="2">  1       21 0.12025728E+00 0.45579368E+03</pdfrwt>
<totfact> 0.43781041E+04</totfact>
</mgrwt>
</event>
<event>
 7    0  0.4788920E-002  0.4479642E+03  0.7546771E-02  0.1028331E+00
         21   -1    0    0  502  501  0.00000000000E+00  0.00000000000E+00  0.86476930851E+03  0.86476930851E+03  0.00000000000E+00 0. -1.
         21   -1    0    0  501  502 -0.00000000000E+00 -0.00000000000E+00 -0.58013145706E+02  0.58013145706E+02  0.00000000000E+00 0. -1.
      99926    2    1    2    0    0  0.00000000000E+00  0.00000000000E+00  0.80675616280E+03  0.92278245422E+03  0.44796423026E+03 0.  0.
      99925    2    3    3    0    0  0.97386817498E+02 -0.41603290860E+02  0.53303211867E+03  0.60374109880E+03  0.26299248812E+03 0.  0.
         25    1    3    3    0    0 -0.97386817498E+02  0.41603290860E+02  0.27372404413E+03  0.31904135542E+03  0.12509000000E+03 0.  0.
         25    1    4    4    0    0  0.86394146152E+02 -0.41127305460E+02  0.27955139933E+03  0.32086117981E+03  0.12509000000E+03 0.  0.
         25    1    4    4    0    0  0.10992671346E+02 -0.47598539946E+00  0.25348071934E+03  0.28287991898E+03  0.12509000000E+03 0.  0.
<mgrwt>
<rscale>  2 0.44796423E+03</rscale>
<asrwt>0</asrwt>
<pdfrwt beam="1">  1       21 0.12717195E+00 0.44796423E+03</pdfrwt>
<pdfrwt beam="2">  1       21 0.85313455E-02 0.44796423E+03</pdfrwt>
<totfact> 0.44671334E+04</totfact>
</mgrwt>
</event>
<event>
 7    0  0.4788920E-002  0.4542971E+03  0.7546771E-02  0.1026448E+00
         21   -1    0    0  502  501  0.00000000000E+00  0.00000000000E+00  0.10467204429E+03  0.10467204429E+03  0.00000000000E+00 0. -1.
         21   -1    0    0  501  502 -0.00000000000E+00 -0.00000000000E+00 -0.49293447542E+03  0.49293447542E+03  0.00000000000E+00 0. -1.
      99926    2    1    2    0    0  0.00000000000E+00  0.00000000000E+00 -0.38826243113E+03  0.59760651971E+03  0.45429708008E+03 0.  0.
      99925    2    3    3    0    0 -0.11161744885E+03 -0.51574229878E+01 -0.22677208897E+03  0.36477247449E+03  0.26296068890E+03 0.  0.
         25    1    4    4    0    0 -0.77874346089E+02 -0.23391016097E+02 -0.84405300061E+02  0.17141562412E+03  0.12509000000E+03 0.  0.
         25    1    3    3    0    0  0.11161744885E+03  0.51574229878E+01 -0.16149034216E+03  0.23283404522E+03  0.12509000000E+03 0.  0.
         25    1    4    4    0    0 -0.33743102765E+02  0.18233593109E+02 -0.14236678891E+03  0.19335685037E+03  0.12509000000E+03 0.  0.
<mgrwt>
<rscale>  2 0.45429708E+03</rscale>
<asrwt>0</asrwt>
<pdfrwt beam="1">  1       21 0.15392948E-01 0.45429708E+03</pdfrwt>
<pdfrwt beam="2">  1       21 0.72490363E-01 0.45429708E+03</pdfrwt>
<totfact> 0.59153709E+04</totfact>
</mgrwt>
</event>
<event>
 7    0  0.4788920E-002  0.4577899E+03  0.7546771E-02  0.1025424E+00
         21   -1    0    0  502  501  0.00000000000E+00  0.00000000000E+00  0.48143329529E+03  0.48143329529E+03  0.00000000000E+00 0.  1.
         21   -1    0    0  501  502 -0.00000000000E+00 -0.00000000000E+00 -0.10882691621E+03  0.10882691621E+03  0.00000000000E+00 0.  1.
      99926    2    1    2    0    0  0.00000000000E+00  0.00000000000E+00  0.37260637908E+03  0.59026021149E+03  0.45778991201E+03 0.  0.
      99925    2    3    3    0    0 -0.76997485275E+01  0.64563127829E+02  0.11031717632E+03  0.29248375577E+03  0.26296232504E+03 0.  0.
         25    1    4    4    0    0 -0.17677292787E+02  0.15174116359E+02  0.16732936174E+02  0.12833643185E+03  0.12509000000E+03 0.  0.
         25    1    3    3    0    0  0.76997485275E+01 -0.64563127829E+02  0.26228920276E+03  0.29777645573E+03  0.12509000000E+03 0.  0.
         25    1    4    4    0    0  0.99775442595E+01  0.49389011471E+02  0.93584240151E+02  0.16414732391E+03  0.12509000000E+03 0.  0.
<mgrwt>
<rscale>  2 0.45778991E+03</rscale>
<asrwt>0</asrwt>
<pdfrwt beam="1">  1       21 0.70799013E-01 0.45778991E+03</pdfrwt>
<pdfrwt beam="2">  1       21 0.16003958E-01 0.45778991E+03</pdfrwt>
<totfact> 0.57992452E+04</totfact>
</mgrwt>
</event>
<event>
 7    0  0.4788920E-002  0.4580575E+03  0.7546771E-02  0.1025346E+00
         21   -1    0    0  502  501  0.00000000000E+00  0.00000000000E+00  0.45824335979E+03  0.45824335979E+03  0.00000000000E+00 0.  1.
         21   -1    0    0  501  502 -0.00000000000E+00 -0.00000000000E+00 -0.11446794966E+03  0.11446794966E+03  0.00000000000E+00 0.  1.
      99926    2    1    2    0    0  0.00000000000E+00  0.00000000000E+00  0.34377541014E+03  0.57271130945E+03  0.45805754154E+03 0.  0.
      99925    2    3    3    0    0 -0.29861976163E+02 -0.47836773443E+02  0.34254786374E+03  0.43549210714E+03  0.26293391168E+03 0.  0.
         25    1    4    4    0    0 -0.24552113938E+02  0.15449564271E+02  0.17241585491E+03  0.21497960475E+03  0.12509000000E+03 0.  0.
         25    1    3    3    0    0  0.29861976163E+02  0.47836773443E+02  0.12275463935E+01  0.13721920231E+03  0.12509000000E+03 0.  0.
         25    1    4    4    0    0 -0.53098622250E+01 -0.63286337714E+02  0.17013200884E+03  0.22051250239E+03  0.12509000000E+03 0.  0.
<mgrwt>
<rscale>  2 0.45805754E+03</rscale>
<asrwt>0</asrwt>
<pdfrwt beam="1">  1       21 0.67388729E-01 0.45805754E+03</pdfrwt>
<pdfrwt beam="2">  1       21 0.16833522E-01 0.45805754E+03</pdfrwt>
<totfact> 0.58951945E+04</totfact>
</mgrwt>
</event>
<event>
 7    0  0.4788920E-002  0.4560167E+03  0.7546771E-02  0.1025943E+00
         21   -1    0    0  502  501  0.00000000000E+00  0.00000000000E+00  0.47400031874E+03  0.47400031874E+03  0.00000000000E+00 0.  1.
         21   -1    0    0  501  502 -0.00000000000E+00 -0.00000000000E+00 -0.10967883389E+03  0.10967883389E+03  0.00000000000E+00 0.  1.
      99926    2    1    2    0    0 -0.17763568394E-14  0.00000000000E+00  0.36432148485E+03  0.58367915263E+03  0.45601667612E+03 0.  0.
      99925    2    3    3    0    0 -0.15249941296E+02  0.60406745535E+02  0.10666796493E+03  0.29056760383E+03  0.26300179094E+03 0.  0.
         25    1    3    3    0    0  0.15249941296E+02 -0.60406745535E+02  0.25765351992E+03  0.29311154880E+03  0.12509000000E+03 0.  0.
         25    1    4    4    0    0  0.17028219091E+02  0.37595681534E+02  0.19737398710E+02  0.13319335015E+03  0.12509000000E+03 0.  0.
         25    1    4    4    0    0 -0.32278160387E+02  0.22811064001E+02  0.86930566221E+02  0.15737425368E+03  0.12509000000E+03 0.  0.
<mgrwt>
<rscale>  2 0.45601668E+03</rscale>
<asrwt>0</asrwt>
<pdfrwt beam="1">  1       21 0.69705928E-01 0.45601668E+03</pdfrwt>
<pdfrwt beam="2">  1       21 0.16129240E-01 0.45601668E+03</pdfrwt>
<totfact> 0.59216924E+04</totfact>
</mgrwt>
</event>
<event>
 7    0  0.4788920E-002  0.4526980E+03  0.7546771E-02  0.1026921E+00
         21   -1    0    0  502  501  0.00000000000E+00  0.00000000000E+00  0.26952092223E+03  0.26952092223E+03  0.00000000000E+00 0.  1.
         21   -1    0    0  501  502 -0.00000000000E+00 -0.00000000000E+00 -0.19009240383E+03  0.19009240383E+03  0.00000000000E+00 0.  1.
      99926    2    1    2    0    0  0.00000000000E+00  0.00000000000E+00  0.79428518397E+02  0.45961332607E+03  0.45269804502E+03 0.  0.
      99925    2    3    3    0    0 -0.14791146871E+02 -0.67469808562E+02 -0.38210380831E+02  0.27452585538E+03  0.26293242283E+03 0.  0.
         25    1    3    3    0    0  0.14791146871E+02  0.67469808562E+02  0.11763889923E+03  0.18508747069E+03  0.12509000000E+03 0.  0.
         25    1    4    4    0    0 -0.12396202261E+02 -0.32455417060E+02  0.21410539408E+02  0.13157864274E+03  0.12509000000E+03 0.  0.
         25    1    4    4    0    0 -0.23949446101E+01 -0.35014391502E+02 -0.59620920239E+02  0.14294721264E+03  0.12509000000E+03 0.  0.
<mgrwt>
<rscale>  2 0.45269805E+03</rscale>
<asrwt>0</asrwt>
<pdfrwt beam="1">  1       21 0.39635430E-01 0.45269805E+03</pdfrwt>
<pdfrwt beam="2">  1       21 0.27954765E-01 0.45269805E+03</pdfrwt>
<totfact> 0.69474482E+04</totfact>
</mgrwt>
</event>
<event>
 7    0  0.4788920E-002  0.4556866E+03  0.7546771E-02  0.1026040E+00
         21   -1    0    0  502  501  0.00000000000E+00  0.00000000000E+00  0.11379739601E+04  0.11379739601E+04  0.00000000000E+00 0. -1.
         21   -1    0    0  501  502 -0.00000000000E+00 -0.00000000000E+00 -0.45618408108E+02  0.45618408108E+02  0.00000000000E+00 0. -1.
      99926    2    1    2    0    0  0.00000000000E+00  0.00000000000E+00  0.10923555520E+04  0.11835923682E+04  0.45568656125E+03 0.  0.
      99925    2    3    3    0    0  0.32570616268E+02  0.36044679615E+02  0.41959645541E+03  0.49758043383E+03  0.26299246903E+03 0.  0.
         25    1    3    3    0    0 -0.32570616268E+02 -0.36044679615E+02  0.67275909656E+03  0.68601193435E+03  0.12509000000E+03 0.  0.
         25    1    4    4    0    0  0.32519179762E+02 -0.18891294592E+02  0.19550167902E+03  0.23512293096E+03  0.12509000000E+03 0.  0.
         25    1    4    4    0    0  0.51436506061E-01  0.54935974207E+02  0.22409477639E+03  0.26245750287E+03  0.12509000000E+03 0.  0.
<mgrwt>
<rscale>  2 0.45568656E+03</rscale>
<asrwt>0</asrwt>
<pdfrwt beam="1">  1       21 0.16734909E+00 0.45568656E+03</pdfrwt>
<pdfrwt beam="2">  1       21 0.67085902E-02 0.45568656E+03</pdfrwt>
<totfact> 0.32506128E+04</totfact>
</mgrwt>
</event>
<event>
 7    0  0.4788920E-002  0.4563169E+03  0.7546771E-02  0.1025855E+00
         21   -1    0    0  502  501  0.00000000000E+00  0.00000000000E+00  0.35296551738E+03  0.35296551738E+03  0.00000000000E+00 0.  1.
         21   -1    0    0  501  502 -0.00000000000E+00 -0.00000000000E+00 -0.14748259903E+03  0.14748259903E+03  0.00000000000E+00 0.  1.
      99926    2    1    2    0    0  0.00000000000E+00  0.00000000000E+00  0.20548291835E+03  0.50044811641E+03  0.45631687180E+03 0.  0.
      99925    2    3    3    0    0  0.83123376014E+02 -0.42694449635E+02  0.56689799777E+02  0.28476498795E+03  0.26295447000E+03 0.  0.
         25    1    4    4    0    0  0.48378898044E+02 -0.18511179622E+02 -0.11978847312E+02  0.13591976468E+03  0.12509000000E+03 0.  0.
         25    1    3    3    0    0 -0.83123376014E+02  0.42694449635E+02  0.14879311857E+03  0.21568312846E+03  0.12509000000E+03 0.  0.
         25    1    4    4    0    0  0.34744477970E+02 -0.24183270013E+02  0.68668647089E+02  0.14884522327E+03  0.12509000000E+03 0.  0.
<mgrwt>
<rscale>  2 0.45631687E+03</rscale>
<asrwt>0</asrwt>
<pdfrwt beam="1">  1       21 0.51906694E-01 0.45631687E+03</pdfrwt>
<pdfrwt beam="2">  1       21 0.21688617E-01 0.45631687E+03</pdfrwt>
<totfact> 0.64561655E+04</totfact>
</mgrwt>
</event>
<event>
 7    0  0.4788920E-002  0.4543238E+03  0.7546771E-02  0.1026440E+00
         21   -1    0    0  502  501  0.00000000000E+00  0.00000000000E+00  0.41699377226E+03  0.41699377226E+03  0.00000000000E+00 0. -1.
         21   -1    0    0  501  502 -0.00000000000E+00 -0.00000000000E+00 -0.12374891149E+03  0.12374891149E+03  0.00000000000E+00 0. -1.
      99926    2    1    2    0    0  0.00000000000E+00  0.35527136788E-14  0.29324486077E+03  0.54074268376E+03  0.45432378505E+03 0.  0.
      99925    2    3    3    0    0 -0.11167926799E+03  0.73521972951E+01  0.17077528864E+03  0.33296246838E+03  0.26300854061E+03 0.  0.
         25    1    4    4    0    0 -0.23778077777E+02  0.27672376973E+02  0.62473090282E+02  0.14450450699E+03  0.12509000000E+03 0.  0.
         25    1    4    4    0    0 -0.87901190213E+02 -0.20320179677E+02  0.10830219836E+03  0.18845796139E+03  0.12509000000E+03 0.  0.
         25    1    3    3    0    0  0.11167926799E+03 -0.73521972951E+01  0.12246957213E+03  0.20778021538E+03  0.12509000000E+03 0.  0.
<mgrwt>
<rscale>  2 0.45432379E+03</rscale>
<asrwt>0</asrwt>
<pdfrwt beam="1">  1       21 0.61322613E-01 0.45432379E+03</pdfrwt>
<pdfrwt beam="2">  1       21 0.18198369E-01 0.45432379E+03</pdfrwt>
<totfact> 0.62817909E+04</totfact>
</mgrwt>
</event>
<event>
 7    0  0.4788920E-002  0.4504686E+03  0.7546771E-02  0.1027582E+00
         21   -1    0    0  502  501  0.00000000000E+00  0.00000000000E+00  0.34132054009E+03  0.34132054009E+03  0.00000000000E+00 0. -1.
         21   -1    0    0  501  502 -0.00000000000E+00 -0.00000000000E+00 -0.14863007321E+03  0.14863007321E+03  0.00000000000E+00 0. -1.
      99926    2    1    2    0    0  0.14210854715E-13 -0.88817841970E-15  0.19269046688E+03  0.48995061331E+03  0.45046863093E+03 0.  0.
      99925    2    3    3    0    0  0.66781551082E+02 -0.49709926073E+01  0.28427807553E+02  0.27289252044E+03  0.26301654156E+03 0.  0.
         25    1    4    4    0    0  0.54587664089E+02 -0.12269801436E+02 -0.19035059341E+02  0.13834812135E+03  0.12509000000E+03 0.  0.
         25    1    3    3    0    0 -0.66781551082E+02  0.49709926073E+01  0.16426265933E+03  0.21705809287E+03  0.12509000000E+03 0.  0.
         25    1    4    4    0    0  0.12193886993E+02  0.72988088286E+01  0.47462866895E+02  0.13454439908E+03  0.12509000000E+03 0.  0.
<mgrwt>
<rscale>  2 0.45046863E+03</rscale>
<asrwt>0</asrwt>
<pdfrwt beam="1">  1       21 0.50194197E-01 0.45046863E+03</pdfrwt>
<pdfrwt beam="2">  1       21 0.21857364E-01 0.45046863E+03</pdfrwt>
<totfact> 0.68410598E+04</totfact>
</mgrwt>
</event>
<event>
 7    0  0.4788920E-002  0.4502512E+03  0.7546771E-02  0.1027647E+00
         21   -1    0    0  502  501  0.00000000000E+00  0.00000000000E+00  0.12867007258E+04  0.12867007258E+04  0.00000000000E+00 0. -1.
         21   -1    0    0  501  502 -0.00000000000E+00 -0.00000000000E+00 -0.39388750375E+02  0.39388750375E+02  0.00000000000E+00 0. -1.
      99926    2    1    2    0    0  0.00000000000E+00 -0.17763568394E-14  0.12473119755E+04  0.13260894762E+04  0.45025119077E+03 0.  0.
      99925    2    3    3    0    0 -0.10666855895E+03  0.96904267455E+01  0.84247866567E+03  0.88904302256E+03  0.26297358803E+03 0.  0.
         25    1    4    4    0    0 -0.32218406791E+02  0.40038998267E+02  0.39673327536E+03  0.41914907491E+03  0.12509000000E+03 0.  0.
         25    1    3    3    0    0  0.10666855895E+03 -0.96904267455E+01  0.40483330980E+03  0.43704645367E+03  0.12509000000E+03 0.  0.
         25    1    4    4    0    0 -0.74450152161E+02 -0.30348571521E+02  0.44574539032E+03  0.46989394765E+03  0.12509000000E+03 0.  0.
<mgrwt>
<rscale>  2 0.45025119E+03</rscale>
<asrwt>0</asrwt>
<pdfrwt beam="1">  1       21 0.18922067E+00 0.45025119E+03</pdfrwt>
<pdfrwt beam="2">  1       21 0.57924641E-02 0.45025119E+03</pdfrwt>
<totfact> 0.29438464E+04</totfact>
</mgrwt>
</event>
<event>
 7    0  0.4788920E-002  0.4466577E+03  0.7546771E-02  0.1028723E+00
         21   -1    0    0  502  501  0.00000000000E+00  0.00000000000E+00  0.24134666230E+03  0.24134666230E+03  0.00000000000E+00 0.  1.
         21   -1    0    0  501  502 -0.00000000000E+00 -0.00000000000E+00 -0.20665614050E+03  0.20665614050E+03  0.00000000000E+00 0.  1.
      99926    2    1    2    0    0  0.71054273576E-14  0.00000000000E+00  0.34690521797E+02  0.44800280279E+03  0.44665767542E+03 0.  0.
      99925    2    3    3    0    0  0.44605404257E+02  0.12287750990E+02 -0.72602533867E+02  0.27683055385E+03  0.26310339548E+03 0.  0.
         25    1    4    4    0    0 -0.17521349942E+02  0.65218652841E+01 -0.45670806859E+02  0.13447253671E+03  0.12509000000E+03 0.  0.
         25    1    4    4    0    0  0.62126754199E+02  0.57658857055E+01 -0.26931727007E+02  0.14235801714E+03  0.12509000000E+03 0.  0.
         25    1    3    3    0    0 -0.44605404257E+02 -0.12287750990E+02  0.10729305566E+03  0.17117224894E+03  0.12509000000E+03 0.  0.
<mgrwt>
<rscale>  2 0.44665768E+03</rscale>
<asrwt>0</asrwt>
<pdfrwt beam="1">  1       21 0.35492156E-01 0.44665768E+03</pdfrwt>
<pdfrwt beam="2">  1       21 0.30390609E-01 0.44665768E+03</pdfrwt>
<totfact> 0.73856392E+04</totfact>
</mgrwt>
</event>
<event>
 7    0  0.4788920E-002  0.4522599E+03  0.7546771E-02  0.1027050E+00
         21   -1    0    0  502  501  0.00000000000E+00  0.00000000000E+00  0.16540818586E+03  0.16540818586E+03  0.00000000000E+00 0.  1.
         21   -1    0    0  501  502 -0.00000000000E+00 -0.00000000000E+00 -0.30914285151E+03  0.30914285151E+03  0.00000000000E+00 0.  1.
      99926    2    1    2    0    0 -0.17763568394E-14  0.14210854715E-13 -0.14373466565E+03  0.47455103737E+03  0.45225991748E+03 0.  0.
      99925    2    3    3    0    0 -0.10570197409E+02  0.10067929369E+03 -0.13718030949E+03  0.31349664613E+03  0.26308489233E+03 0.  0.
         25    1    4    4    0    0  0.42181180152E+01  0.30010953499E+02 -0.10357448975E+03  0.16520784750E+03  0.12509000000E+03 0.  0.
         25    1    4    4    0    0 -0.14788315424E+02  0.70668340195E+02 -0.33605819744E+02  0.14828879863E+03  0.12509000000E+03 0.  0.
         25    1    3    3    0    0  0.10570197409E+02 -0.10067929369E+03 -0.65543561570E+01  0.16105439124E+03  0.12509000000E+03 0.  0.
<mgrwt>
<rscale>  2 0.45225992E+03</rscale>
<asrwt>0</asrwt>
<pdfrwt beam="1">  1       21 0.24324733E-01 0.45225992E+03</pdfrwt>
<pdfrwt beam="2">  1       21 0.45462184E-01 0.45225992E+03</pdfrwt>
<totfact> 0.68578144E+04</totfact>
</mgrwt>
</event>
<event>
 7    0  0.4788920E-002  0.4585754E+03  0.7546771E-02  0.1025195E+00
         21   -1    0    0  502  501  0.00000000000E+00  0.00000000000E+00  0.15419731377E+03  0.15419731377E+03  0.00000000000E+00 0. -1.
         21   -1    0    0  501  502 -0.00000000000E+00 -0.00000000000E+00 -0.34094530282E+03  0.34094530282E+03  0.00000000000E+00 0. -1.
      99926    2    1    2    0    0  0.00000000000E+00  0.00000000000E+00 -0.18674798905E+03  0.49514261658E+03  0.45857540203E+03 0.  0.
      99925    2    3    3    0    0 -0.70773577948E+02  0.45834348056E+02 -0.30362277277E+02  0.27785551217E+03  0.26300595234E+03 0.  0.
         25    1    4    4    0    0 -0.90743541897E+01  0.53666646528E+02 -0.18235640408E+02  0.13763175337E+03  0.12509000000E+03 0.  0.
         25    1    4    4    0    0 -0.61699223759E+02 -0.78322984718E+01 -0.12126636869E+02  0.14022375881E+03  0.12509000000E+03 0.  0.
         25    1    3    3    0    0  0.70773577948E+02 -0.45834348056E+02 -0.15638571177E+03  0.21728710441E+03  0.12509000000E+03 0.  0.
<mgrwt>
<rscale>  2 0.45857540E+03</rscale>
<asrwt>0</asrwt>
<pdfrwt beam="1">  1       21 0.22676076E-01 0.45857540E+03</pdfrwt>
<pdfrwt beam="2">  1       21 0.50139014E-01 0.45857540E+03</pdfrwt>
<totfact> 0.63783534E+04</totfact>
</mgrwt>
</event>
<event>
 7    0  0.4788920E-002  0.4565282E+03  0.7546771E-02  0.1025793E+00
         21   -1    0    0  502  501  0.00000000000E+00  0.00000000000E+00  0.31431737598E+03  0.31431737598E+03  0.00000000000E+00 0.  1.
         21   -1    0    0  501  502 -0.00000000000E+00 -0.00000000000E+00 -0.16577036191E+03  0.16577036191E+03  0.00000000000E+00 0.  1.
      99926    2    1    2    0    0 -0.71054273576E-14  0.00000000000E+00  0.14854701407E+03  0.48008773789E+03  0.45652822551E+03 0.  0.
      99925    2    3    3    0    0 -0.50303756255E+02 -0.23764149359E+02  0.19882400728E+03  0.33424368819E+03  0.26285481646E+03 0.  0.
         25    1    3    3    0    0  0.50303756255E+02  0.23764149359E+02 -0.50276993200E+02  0.14584404970E+03  0.12509000000E+03 0.  0.
         25    1    4    4    0    0 -0.27454177612E+02 -0.70240984409E+01  0.49702272497E+02  0.13755323994E+03  0.12509000000E+03 0.  0.
         25    1    4    4    0    0 -0.22849578643E+02 -0.16740050918E+02  0.14912173478E+03  0.19669044825E+03  0.12509000000E+03 0.  0.
<mgrwt>
<rscale>  2 0.45652823E+03</rscale>
<asrwt>0</asrwt>
<pdfrwt beam="1">  1       21 0.46223144E-01 0.45652823E+03</pdfrwt>
<pdfrwt beam="2">  1       21 0.24377994E-01 0.45652823E+03</pdfrwt>
<totfact> 0.65890827E+04</totfact>
</mgrwt>
</event>
<event>
 7    0  0.4788920E-002  0.4546809E+03  0.7546771E-02  0.1026335E+00
         21   -1    0    0  502  501  0.00000000000E+00  0.00000000000E+00  0.95501076829E+02  0.95501076829E+02  0.00000000000E+00 0. -1.
         21   -1    0    0  501  502 -0.00000000000E+00 -0.00000000000E+00 -0.54118419116E+03  0.54118419116E+03  0.00000000000E+00 0. -1.
      99926    2    1    2    0    0  0.14210854715E-13  0.71054273576E-14 -0.44568311434E+03  0.63668526799E+03  0.45468086839E+03 0.  0.
      99925    2    3    3    0    0 -0.91084718212E+02 -0.53536943316E+02 -0.22626760783E+03  0.36290925958E+03  0.26333148338E+03 0.  0.
         25    1    4    4    0    0 -0.62480802588E+02 -0.65667264767E+02 -0.13250992162E+03  0.20352500530E+03  0.12509000000E+03 0.  0.
         25    1    3    3    0    0  0.91084718212E+02  0.53536943316E+02 -0.21941550650E+03  0.27377600842E+03  0.12509000000E+03 0.  0.
         25    1    4    4    0    0 -0.28603915624E+02  0.12130321451E+02 -0.93757686218E+02  0.15938425428E+03  0.12509000000E+03 0.  0.
<mgrwt>
<rscale>  2 0.45468087E+03</rscale>
<asrwt>0</asrwt>
<pdfrwt beam="1">  1       21 0.14044276E-01 0.45468087E+03</pdfrwt>
<pdfrwt beam="2">  1       21 0.79585908E-01 0.45468087E+03</pdfrwt>
<totfact> 0.56617612E+04</totfact>
</mgrwt>
</event>
<event>
 7    0  0.4788920E-002  0.4547243E+03  0.7546771E-02  0.1026323E+00
         21   -1    0    0  502  501  0.00000000000E+00  0.00000000000E+00  0.11340794284E+03  0.11340794284E+03  0.00000000000E+00 0.  1.
         21   -1    0    0  501  502 -0.00000000000E+00 -0.00000000000E+00 -0.45581945305E+03  0.45581945305E+03  0.00000000000E+00 0.  1.
      99926    2    1    2    0    0  0.00000000000E+00  0.00000000000E+00 -0.34241151021E+03  0.56922739588E+03  0.45472429658E+03 0.  0.
      99925    2    3    3    0    0 -0.76273614261E+02  0.49512882706E+02 -0.30046196286E+03  0.40898862901E+03  0.26215475915E+03 0.  0.
         25    1    4    4    0    0 -0.71496512744E+02  0.46990035819E+02 -0.17913364052E+03  0.23464054225E+03  0.12509000000E+03 0.  0.
         25    1    3    3    0    0  0.76273614261E+02 -0.49512882706E+02 -0.41949547346E+02  0.16023876687E+03  0.12509000000E+03 0.  0.
         25    1    4    4    0    0 -0.47771015176E+01  0.25228468868E+01 -0.12132832235E+03  0.17434808677E+03  0.12509000000E+03 0.  0.
<mgrwt>
<rscale>  2 0.45472430E+03</rscale>
<asrwt>0</asrwt>
<pdfrwt beam="1">  1       21 0.16677638E-01 0.45472430E+03</pdfrwt>
<pdfrwt beam="2">  1       21 0.67032274E-01 0.45472430E+03</pdfrwt>
<totfact> 0.60745879E+04</totfact>
</mgrwt>
</event>
<event>
 7    0  0.4788920E-002  0.4564154E+03  0.7546771E-02  0.1025826E+00
         21   -1    0    0  502  501  0.00000000000E+00  0.00000000000E+00  0.23577469857E+03  0.23577469857E+03  0.00000000000E+00 0. -1.
         21   -1    0    0  501  502 -0.00000000000E+00 -0.00000000000E+00 -0.22088354329E+03  0.22088354329E+03  0.00000000000E+00 0. -1.
      99926    2    1    2    0    0  0.14210854715E-13  0.71054273576E-14  0.14891155279E+02  0.45665824186E+03  0.45641538466E+03 0.  0.
      99925    2    3    3    0    0 -0.10522107774E+03 -0.44950729825E+02  0.45325891068E+01  0.28681463348E+03  0.26296396388E+03 0.  0.
         25    1    3    3    0    0  0.10522107774E+03  0.44950729825E+02  0.10358566172E+02  0.16984360838E+03  0.12509000000E+03 0.  0.
         25    1    4    4    0    0 -0.52170950782E+02  0.11297646764E+02  0.25181881008E+02  0.13831514797E+03  0.12509000000E+03 0.  0.
         25    1    4    4    0    0 -0.53050126962E+02 -0.56248376589E+02 -0.20649291901E+02  0.14849948551E+03  0.12509000000E+03 0.  0.
<mgrwt>
<rscale>  2 0.45641538E+03</rscale>
<asrwt>0</asrwt>
<pdfrwt beam="1">  1       21 0.34672750E-01 0.45641538E+03</pdfrwt>
<pdfrwt beam="2">  1       21 0.32482874E-01 0.45641538E+03</pdfrwt>
<totfact> 0.67657191E+04</totfact>
</mgrwt>
</event>
<event>
 7    0  0.4788920E-002  0.4297524E+03  0.7546771E-02  0.1033938E+00
         21   -1    0    0  502  501  0.00000000000E+00  0.00000000000E+00  0.63723978153E+03  0.63723978153E+03  0.00000000000E+00 0.  1.
         21   -1    0    0  501  502 -0.00000000000E+00 -0.00000000000E+00 -0.72455914327E+02  0.72455914327E+02  0.00000000000E+00 0.  1.
      99926    2    1    2    0    0  0.00000000000E+00  0.17763568394E-14  0.56478386720E+03  0.70969569586E+03  0.42975244510E+03 0.  0.
      99925    2    3    3    0    0  0.36868284550E+02 -0.10411745156E+02  0.23461885363E+03  0.35455611888E+03  0.26305201029E+03 0.  0.
         25    1    3    3    0    0 -0.36868284550E+02  0.10411745156E+02  0.33016501358E+03  0.35513957697E+03  0.12509000000E+03 0.  0.
         25    1    4    4    0    0  0.32911049591E+02 -0.77882070174E+01  0.16978053262E+03  0.21358073581E+03  0.12509000000E+03 0.  0.
         25    1    4    4    0    0  0.39572349588E+01 -0.26235381383E+01  0.64838321005E+02  0.14097538307E+03  0.12509000000E+03 0.  0.
<mgrwt>
<rscale>  2 0.42975245E+03</rscale>
<asrwt>0</asrwt>
<pdfrwt beam="1">  1       21 0.93711730E-01 0.42975245E+03</pdfrwt>
<pdfrwt beam="2">  1       21 0.10655282E-01 0.42975245E+03</pdfrwt>
<totfact> 0.64216097E+04</totfact>
</mgrwt>
</event>
<event>
 7    0  0.4788920E-002  0.4521368E+03  0.7546771E-02  0.1027087E+00
         21   -1    0    0  502  501  0.00000000000E+00  0.00000000000E+00  0.69352359452E+02  0.69352359452E+02  0.00000000000E+00 0.  1.
         21   -1    0    0  501  502 -0.00000000000E+00 -0.00000000000E+00 -0.73691694531E+03  0.73691694531E+03  0.00000000000E+00 0.  1.
      99926    2    1    2    0    0  0.00000000000E+00  0.00000000000E+00 -0.66756458585E+03  0.80626930476E+03  0.45213683273E+03 0.  0.
      99925    2    3    3    0    0 -0.37157268416E+02  0.11318809245E+02 -0.23644967193E+03  0.35569594209E+03  0.26287331136E+03 0.  0.
         25    1    3    3    0    0  0.37157268416E+02 -0.11318809245E+02 -0.43111491392E+03  0.45057336267E+03  0.12509000000E+03 0.  0.
         25    1    4    4    0    0  0.10530284405E+02  0.30626970428E+02 -0.98281206290E+02  0.16234408464E+03  0.12509000000E+03 0.  0.
         25    1    4    4    0    0 -0.47687552821E+02 -0.19308161183E+02 -0.13816846564E+03  0.19335185745E+03  0.12509000000E+03 0.  0.
<mgrwt>
<rscale>  2 0.45213683E+03</rscale>
<asrwt>0</asrwt>
<pdfrwt beam="1">  1       21 0.10198876E-01 0.45213683E+03</pdfrwt>
<pdfrwt beam="2">  1       21 0.10837014E+00 0.45213683E+03</pdfrwt>
<totfact> 0.48544634E+04</totfact>
</mgrwt>
</event>
<event>
 7    0  0.4788920E-002  0.4668729E+03  0.7546771E-02  0.1022807E+00
         21   -1    0    0  502  501  0.00000000000E+00  0.00000000000E+00  0.39550762311E+03  0.39550762311E+03  0.00000000000E+00 0. -1.
         21   -1    0    0  501  502 -0.00000000000E+00 -0.00000000000E+00 -0.13777884329E+03  0.13777884329E+03  0.00000000000E+00 0. -1.
      99926    2    1    2    0    0  0.44408920985E-15  0.00000000000E+00  0.25772877981E+03  0.53328646640E+03  0.46687292843E+03 0.  0.
      99925    2    3    3    0    0 -0.32638594246E+01 -0.11640740875E+03  0.20846869756E+03  0.35542303172E+03  0.26325842062E+03 0.  0.
         25    1    4    4    0    0 -0.35583585928E+02 -0.59765041080E+02  0.13325035835E+03  0.19555361879E+03  0.12509000000E+03 0.  0.
         25    1    4    4    0    0  0.32319726504E+02 -0.56642367675E+02  0.75218339208E+02  0.15986941293E+03  0.12509000000E+03 0.  0.
         25    1    3    3    0    0  0.32638594246E+01  0.11640740875E+03  0.49260082252E+02  0.17786343468E+03  0.12509000000E+03 0.  0.
<mgrwt>
<rscale>  2 0.46687293E+03</rscale>
<asrwt>0</asrwt>
<pdfrwt beam="1">  1       21 0.58162886E-01 0.46687293E+03</pdfrwt>
<pdfrwt beam="2">  1       21 0.20261595E-01 0.46687293E+03</pdfrwt>
<totfact> 0.57390089E+04</totfact>
</mgrwt>
</event>
<event>
 7    0  0.4788920E-002  0.4569627E+03  0.7546771E-02  0.1025666E+00
         21   -1    0    0  502  501  0.00000000000E+00  0.00000000000E+00  0.13990717953E+03  0.13990717953E+03  0.00000000000E+00 0.  1.
         21   -1    0    0  501  502 -0.00000000000E+00 -0.00000000000E+00 -0.37313119079E+03  0.37313119079E+03  0.00000000000E+00 0.  1.
      99926    2    1    2    0    0  0.00000000000E+00  0.00000000000E+00 -0.23322401126E+03  0.51303837032E+03  0.45696272276E+03 0.  0.
      99925    2    3    3    0    0 -0.19813259763E+02 -0.55213940054E+02 -0.35303879782E+02  0.27166515104E+03  0.26289626457E+03 0.  0.
         25    1    4    4    0    0  0.29299514067E+02 -0.17271798247E+02 -0.20517529600E+02  0.13124501385E+03  0.12509000000E+03 0.  0.
         25    1    3    3    0    0  0.19813259763E+02  0.55213940054E+02 -0.19792013148E+03  0.24137321927E+03  0.12509000000E+03 0.  0.
         25    1    4    4    0    0 -0.49112773831E+02 -0.37942141807E+02 -0.14786350182E+02  0.14042013720E+03  0.12509000000E+03 0.  0.
<mgrwt>
<rscale>  2 0.45696272E+03</rscale>
<asrwt>0</asrwt>
<pdfrwt beam="1">  1       21 0.20574585E-01 0.45696272E+03</pdfrwt>
<pdfrwt beam="2">  1       21 0.54872234E-01 0.45696272E+03</pdfrwt>
<totfact> 0.63371214E+04</totfact>
</mgrwt>
</event>
<event>
 7    0  0.4788920E-002  0.4504754E+03  0.7546771E-02  0.1027580E+00
         21   -1    0    0  502  501  0.00000000000E+00  0.00000000000E+00  0.33346463827E+03  0.33346463827E+03  0.00000000000E+00 0.  1.
         21   -1    0    0  501  502 -0.00000000000E+00 -0.00000000000E+00 -0.15213615827E+03  0.15213615827E+03  0.00000000000E+00 0.  1.
      99926    2    1    2    0    0  0.71054273576E-14  0.71054273576E-14  0.18132848000E+03  0.48560079653E+03  0.45047543322E+03 0.  0.
      99925    2    3    3    0    0  0.36213006973E+02  0.52780209426E+02  0.20962011342E+03  0.34226532639E+03  0.26288368020E+03 0.  0.
         25    1    4    4    0    0  0.11650170933E+02  0.55521148420E+02  0.14347133245E+03  0.19861987750E+03  0.12509000000E+03 0.  0.
         25    1    3    3    0    0 -0.36213006973E+02 -0.52780209426E+02 -0.28291633420E+02  0.14333547015E+03  0.12509000000E+03 0.  0.
         25    1    4    4    0    0  0.24562836040E+02 -0.27409389936E+01  0.66148780974E+02  0.14364544888E+03  0.12509000000E+03 0.  0.
<mgrwt>
<rscale>  2 0.45047543E+03</rscale>
<asrwt>0</asrwt>
<pdfrwt beam="1">  1       21 0.49038917E-01 0.45047543E+03</pdfrwt>
<pdfrwt beam="2">  1       21 0.22372964E-01 0.45047543E+03</pdfrwt>
<totfact> 0.68730345E+04</totfact>
</mgrwt>
</event>
<event>
 7    0  0.4788920E-002  0.4563317E+03  0.7546771E-02  0.1025851E+00
         21   -1    0    0  502  501  0.00000000000E+00  0.00000000000E+00  0.16626811861E+03  0.16626811861E+03  0.00000000000E+00 0.  1.
         21   -1    0    0  501  502 -0.00000000000E+00 -0.00000000000E+00 -0.31310669464E+03  0.31310669464E+03  0.00000000000E+00 0.  1.
      99926    2    1    2    0    0  0.00000000000E+00  0.00000000000E+00 -0.14683857602E+03  0.47937481325E+03  0.45633172602E+03 0.  0.
      99925    2    3    3    0    0  0.65376983660E+02 -0.90426424655E+02 -0.11993782842E+03  0.30960365377E+03  0.26271324952E+03 0.  0.
         25    1    3    3    0    0 -0.65376983660E+02  0.90426424655E+02 -0.26900747600E+02  0.16977115948E+03  0.12509000000E+03 0.  0.
         25    1    4    4    0    0  0.73138092472E+02 -0.40670436107E+02 -0.59580542605E+02  0.16186603751E+03  0.12509000000E+03 0.  0.
         25    1    4    4    0    0 -0.77611088122E+01 -0.49755988548E+02 -0.60357285816E+02  0.14773761626E+03  0.12509000000E+03 0.  0.
<mgrwt>
<rscale>  2 0.45633173E+03</rscale>
<asrwt>0</asrwt>
<pdfrwt beam="1">  1       21 0.24451194E-01 0.45633173E+03</pdfrwt>
<pdfrwt beam="2">  1       21 0.46045102E-01 0.45633173E+03</pdfrwt>
<totfact> 0.66044774E+04</totfact>
</mgrwt>
</event>
<event>
 7    0  0.4788920E-002  0.4552244E+03  0.7546771E-02  0.1026175E+00
         21   -1    0    0  502  501  0.00000000000E+00  0.00000000000E+00  0.89089092391E+02  0.89089092391E+02  0.00000000000E+00 0.  1.
         21   -1    0    0  501  502 -0.00000000000E+00 -0.00000000000E+00 -0.58152247244E+03  0.58152247244E+03  0.00000000000E+00 0.  1.
      99926    2    1    2    0    0  0.00000000000E+00 -0.14210854715E-13 -0.49243338004E+03  0.67061156483E+03  0.45522438104E+03 0.  0.
      99925    2    3    3    0    0 -0.38009238335E+02 -0.77512961095E+02 -0.20205111021E+03  0.34285810249E+03  0.26319966940E+03 0.  0.
         25    1    3    3    0    0  0.38009238335E+02  0.77512961095E+02 -0.29038226984E+03  0.32775346233E+03  0.12509000000E+03 0.  0.
         25    1    4    4    0    0 -0.55160128779E+02 -0.60308452378E+02 -0.10349042466E+03  0.18176227698E+03  0.12509000000E+03 0.  0.
         25    1    4    4    0    0  0.17150890444E+02 -0.17204508716E+02 -0.98560685544E+02  0.16109582551E+03  0.12509000000E+03 0.  0.
<mgrwt>
<rscale>  2 0.45522438E+03</rscale>
<asrwt>0</asrwt>
<pdfrwt beam="1">  1       21 0.13101337E-01 0.45522438E+03</pdfrwt>
<pdfrwt beam="2">  1       21 0.85518014E-01 0.45522438E+03</pdfrwt>
<totfact> 0.54431556E+04</totfact>
</mgrwt>
</event>
<event>
 7    0  0.4788920E-002  0.4515062E+03  0.7546771E-02  0.1027274E+00
         21   -1    0    0  502  501  0.00000000000E+00  0.00000000000E+00  0.10864537262E+04  0.10864537262E+04  0.00000000000E+00 0.  1.
         21   -1    0    0  501  502 -0.00000000000E+00 -0.00000000000E+00 -0.46908994447E+02  0.46908994447E+02  0.00000000000E+00 0.  1.
      99926    2    1    2    0    0  0.00000000000E+00  0.00000000000E+00  0.10395447317E+04  0.11333627206E+04  0.45150615415E+03 0.  0.
      99925    2    3    3    0    0  0.48079131061E+02  0.86668060247E+02  0.53743500104E+03  0.60649969738E+03  0.26302575362E+03 0.  0.
         25    1    4    4    0    0 -0.14277798477E+02  0.29104752408E+02  0.26906510145E+03  0.29848698306E+03  0.12509000000E+03 0.  0.
         25    1    3    3    0    0 -0.48079131061E+02 -0.86668060247E+02  0.50210973070E+03  0.52686302325E+03  0.12509000000E+03 0.  0.
         25    1    4    4    0    0  0.62356929538E+02  0.57563307839E+02  0.26836989959E+03  0.30801271431E+03  0.12509000000E+03 0.  0.
<mgrwt>
<rscale>  2 0.45150615E+03</rscale>
<asrwt>0</asrwt>
<pdfrwt beam="1">  1       21 0.15977259E+00 0.45150615E+03</pdfrwt>
<pdfrwt beam="2">  1       21 0.68983822E-02 0.45150615E+03</pdfrwt>
<totfact> 0.35294206E+04</totfact>
</mgrwt>
</event>
<event>
 7    0  0.4788920E-002  0.4482554E+03  0.7546771E-02  0.1028244E+00
         21   -1    0    0  502  501  0.00000000000E+00  0.00000000000E+00  0.13315688938E+04  0.13315688938E+04  0.00000000000E+00 0.  1.
         21   -1    0    0  501  502 -0.00000000000E+00 -0.00000000000E+00 -0.37724845515E+02  0.37724845515E+02  0.00000000000E+00 0.  1.
      99926    2    1    2    0    0  0.00000000000E+00  0.35527136788E-14  0.12938440483E+04  0.13692937393E+04  0.44825542188E+03 0.  0.
      99925    2    3    3    0    0 -0.93966411841E+02  0.12407161691E+02  0.96977024360E+03  0.10092174096E+04  0.26283422592E+03 0.  0.
         25    1    4    4    0    0 -0.51992110795E+02 -0.32410214041E+02  0.44744569836E+03  0.46862432997E+03  0.12509000000E+03 0.  0.
         25    1    4    4    0    0 -0.41974301046E+02  0.44817375733E+02  0.52232454525E+03  0.54059307967E+03  0.12509000000E+03 0.  0.
         25    1    3    3    0    0  0.93966411841E+02 -0.12407161691E+02  0.32407380467E+03  0.36007632967E+03  0.12509000000E+03 0.  0.
<mgrwt>
<rscale>  2 0.44825542E+03</rscale>
<asrwt>0</asrwt>
<pdfrwt beam="1">  1       21 0.19581892E+00 0.44825542E+03</pdfrwt>
<pdfrwt beam="2">  1       21 0.55477723E-02 0.44825542E+03</pdfrwt>
<totfact> 0.28633781E+04</totfact>
</mgrwt>
</event>
<event>
 7    0  0.4788920E-002  0.4728749E+03  0.7546771E-02  0.1021112E+00
         21   -1    0    0  502  501  0.00000000000E+00  0.00000000000E+00  0.55066925051E+02  0.55066925051E+02  0.00000000000E+00 0.  1.
         21   -1    0    0  501  502 -0.00000000000E+00 -0.00000000000E+00 -0.10151770118E+04  0.10151770118E+04  0.00000000000E+00 0.  1.
      99926    2    1    2    0    0 -0.14210854715E-13  0.00000000000E+00 -0.96011008670E+03  0.10702439368E+04  0.47287493661E+03 0.  0.
      99925    2    3    3    0    0  0.12687930345E+03 -0.93424909272E+01 -0.64619285327E+03  0.70916613725E+03  0.26299385322E+03 0.  0.
         25    1    3    3    0    0 -0.12687930345E+03  0.93424909272E+01 -0.31391723343E+03  0.36107779955E+03  0.12509000000E+03 0.  0.
         25    1    4    4    0    0  0.24905113062E+02 -0.12307098334E+02 -0.33348094924E+03  0.35725170529E+03  0.12509000000E+03 0.  0.
         25    1    4    4    0    0  0.10197419039E+03  0.29646074063E+01 -0.31271190403E+03  0.35191443196E+03  0.12509000000E+03 0.  0.
<mgrwt>
<rscale>  2 0.47287494E+03</rscale>
<asrwt>0</asrwt>
<pdfrwt beam="1">  1       21 0.80980768E-02 0.47287494E+03</pdfrwt>
<pdfrwt beam="2">  1       21 0.14929074E+00 0.47287494E+03</pdfrwt>
<totfact> 0.31861306E+04</totfact>
</mgrwt>
</event>
<event>
 7    0  0.4788920E-002  0.4598315E+03  0.7546771E-02  0.1024830E+00
         21   -1    0    0  502  501  0.00000000000E+00  0.00000000000E+00  0.23115830593E+03  0.23115830593E+03  0.00000000000E+00 0.  1.
         21   -1    0    0  501  502 -0.00000000000E+00 -0.00000000000E+00 -0.22867989455E+03  0.22867989455E+03  0.00000000000E+00 0.  1.
      99926    2    1    2    0    0  0.00000000000E+00 -0.35527136788E-14  0.24784113846E+01  0.45983820048E+03  0.45983152143E+03 0.  0.
      99925    2    3    3    0    0 -0.11206084666E+03 -0.29566586321E+02 -0.18845955768E+02  0.28798345625E+03  0.26295909310E+03 0.  0.
         25    1    3    3    0    0  0.11206084666E+03  0.29566586321E+02  0.21324367153E+02  0.17185474423E+03  0.12509000000E+03 0.  0.
         25    1    4    4    0    0 -0.51698919452E+02  0.11701136785E+02  0.21569873674E+02  0.13755894164E+03  0.12509000000E+03 0.  0.
         25    1    4    4    0    0 -0.60361927206E+02 -0.41267723106E+02 -0.40415829442E+02  0.15042451461E+03  0.12509000000E+03 0.  0.
<mgrwt>
<rscale>  2 0.45983152E+03</rscale>
<asrwt>0</asrwt>
<pdfrwt beam="1">  1       21 0.33993869E-01 0.45983152E+03</pdfrwt>
<pdfrwt beam="2">  1       21 0.33629396E-01 0.45983152E+03</pdfrwt>
<totfact> 0.65626145E+04</totfact>
</mgrwt>
</event>
<event>
 7    0  0.4788920E-002  0.4201104E+03  0.7546771E-02  0.1037030E+00
         21   -1    0    0  502  501  0.00000000000E+00  0.00000000000E+00  0.16301801718E+03  0.16301801718E+03  0.00000000000E+00 0.  1.
         21   -1    0    0  501  502 -0.00000000000E+00 -0.00000000000E+00 -0.27066447845E+03  0.27066447845E+03  0.00000000000E+00 0.  1.
      99926    2    1    2    0    0  0.35527136788E-14  0.00000000000E+00 -0.10764646127E+03  0.43368249562E+03  0.42011039785E+03 0.  0.
      99925    2    3    3    0    0  0.96215048030E+01  0.60314839071E+02 -0.11677663272E+03  0.29417865590E+03  0.26300921366E+03 0.  0.
         25    1    4    4    0    0  0.37607460439E+02  0.53808861258E+02 -0.53279420616E+02  0.15098317586E+03  0.12509000000E+03 0.  0.
         25    1    4    4    0    0 -0.27985955636E+02  0.65059778130E+01 -0.63497212101E+02  0.14319548004E+03  0.12509000000E+03 0.  0.
         25    1    3    3    0    0 -0.96215048030E+01 -0.60314839071E+02  0.91301714477E+01  0.13950383972E+03  0.12509000000E+03 0.  0.
<mgrwt>
<rscale>  2 0.42011040E+03</rscale>
<asrwt>0</asrwt>
<pdfrwt beam="1">  1       21 0.23973238E-01 0.42011040E+03</pdfrwt>
<pdfrwt beam="2">  1       21 0.39803599E-01 0.42011040E+03</pdfrwt>
<totfact> 0.93569104E+04</totfact>
</mgrwt>
</event>
<event>
 7    0  0.4788920E-002  0.4731682E+03  0.7546771E-02  0.1021030E+00
         21   -1    0    0  502  501  0.00000000000E+00  0.00000000000E+00  0.95882743289E+02  0.95882743289E+02  0.00000000000E+00 0.  1.
         21   -1    0    0  501  502 -0.00000000000E+00 -0.00000000000E+00 -0.58375503200E+03  0.58375503200E+03  0.00000000000E+00 0.  1.
      99926    2    1    2    0    0 -0.71054273576E-14  0.14210854715E-13 -0.48787228871E+03  0.67963777529E+03  0.47316818945E+03 0.  0.
      99925    2    3    3    0    0 -0.63616441019E+02  0.70329474435E+02 -0.42883925377E+03  0.51193060831E+03  0.26301436388E+03 0.  0.
         25    1    3    3    0    0  0.63616441019E+02 -0.70329474435E+02 -0.59033034945E+02  0.16770716698E+03  0.12509000000E+03 0.  0.
         25    1    4    4    0    0 -0.20500575098E+01  0.24705347891E+02 -0.15018680721E+03  0.19702320196E+03  0.12509000000E+03 0.  0.
         25    1    4    4    0    0 -0.61566383509E+02  0.45624126544E+02 -0.27865244656E+03  0.31490740635E+03  0.12509000000E+03 0.  0.
<mgrwt>
<rscale>  2 0.47316819E+03</rscale>
<asrwt>0</asrwt>
<pdfrwt beam="1">  1       21 0.14100404E-01 0.47316819E+03</pdfrwt>
<pdfrwt beam="2">  1       21 0.85846326E-01 0.47316819E+03</pdfrwt>
<totfact> 0.46932656E+04</totfact>
</mgrwt>
</event>
<event>
 7    0  0.4788920E-002  0.4520693E+03  0.7546771E-02  0.1027107E+00
         21   -1    0    0  502  501  0.00000000000E+00  0.00000000000E+00  0.43056764742E+02  0.43056764742E+02  0.00000000000E+00 0.  1.
         21   -1    0    0  501  502 -0.00000000000E+00 -0.00000000000E+00 -0.11866119141E+04  0.11866119141E+04  0.00000000000E+00 0.  1.
      99926    2    1    2    0    0 -0.13877787808E-14  0.00000000000E+00 -0.11435551494E+04  0.12296686789E+04  0.45206933108E+03 0.  0.
      99925    2    3    3    0    0  0.43680855874E+00  0.84093987113E+02 -0.91621615377E+03  0.95690043200E+03  0.26293422536E+03 0.  0.
         25    1    4    4    0    0  0.31210981266E+02  0.38088538706E+02 -0.54340296267E+03  0.55978491411E+03  0.12509000000E+03 0.  0.
         25    1    4    4    0    0 -0.30774172707E+02  0.46005448407E+02 -0.37281319111E+03  0.39711551789E+03  0.12509000000E+03 0.  0.
         25    1    3    3    0    0 -0.43680855874E+00 -0.84093987113E+02 -0.22733899560E+03  0.27276824685E+03  0.12509000000E+03 0.  0.
<mgrwt>
<rscale>  2 0.45206933E+03</rscale>
<asrwt>0</asrwt>
<pdfrwt beam="1">  1       21 0.63318784E-02 0.45206933E+03</pdfrwt>
<pdfrwt beam="2">  1       21 0.17450172E+00 0.45206933E+03</pdfrwt>
<totfact> 0.31950457E+04</totfact>
</mgrwt>
</event>
<event>
 7    0  0.4788920E-002  0.4572259E+03  0.7546771E-02  0.1025589E+00
         21   -1    0    0  502  501  0.00000000000E+00  0.00000000000E+00  0.18423456450E+03  0.18423456450E+03  0.00000000000E+00 0.  1.
         21   -1    0    0  501  502 -0.00000000000E+00 -0.00000000000E+00 -0.28368124615E+03  0.28368124615E+03  0.00000000000E+00 0.  1.
      99926    2    1    2    0    0  0.00000000000E+00 -0.14210854715E-13 -0.99446681654E+02  0.46791581065E+03  0.45722594346E+03 0.  0.
      99925    2    3    3    0    0 -0.68972298485E+02  0.79578925054E+02 -0.14713953909E+02  0.28374978088E+03  0.26307309714E+03 0.  0.
         25    1    4    4    0    0 -0.21116937062E+02  0.18839172287E+02 -0.40396997767E+02  0.13446287581E+03  0.12509000000E+03 0.  0.
         25    1    3    3    0    0  0.68972298485E+02 -0.79578925054E+02 -0.84732727746E+02  0.18416602977E+03  0.12509000000E+03 0.  0.
         25    1    4    4    0    0 -0.47855361423E+02  0.60739752767E+02  0.25683043859E+02  0.14928690507E+03  0.12509000000E+03 0.  0.
<mgrwt>
<rscale>  2 0.45722594E+03</rscale>
<asrwt>0</asrwt>
<pdfrwt beam="1">  1       21 0.27093319E-01 0.45722594E+03</pdfrwt>
<pdfrwt beam="2">  1       21 0.41717830E-01 0.45722594E+03</pdfrwt>
<totfact> 0.66411173E+04</totfact>
</mgrwt>
</event>
<event>
 7    0  0.4788920E-002  0.4616610E+03  0.7546771E-02  0.1024301E+00
         21   -1    0    0  502  501  0.00000000000E+00  0.00000000000E+00  0.25310678524E+04  0.25310678524E+04  0.00000000000E+00 0.  1.
         21   -1    0    0  501  502 -0.00000000000E+00 -0.00000000000E+00 -0.21051475427E+02  0.21051475427E+02  0.00000000000E+00 0.  1.
      99926    2    1    2    0    0  0.00000000000E+00  0.00000000000E+00  0.25100163769E+04  0.25521193278E+04  0.46166096953E+03 0.  0.
      99925    2    3    3    0    0 -0.40098942138E+02  0.60579295491E+02  0.20936976874E+04  0.21113852406E+04  0.26286850715E+03 0.  0.
         25    1    3    3    0    0  0.40098942138E+02 -0.60579295491E+02  0.41631868959E+03  0.44073408718E+03  0.12509000000E+03 0.  0.
         25    1    4    4    0    0 -0.31893769822E+02  0.83771603813E+01  0.77598600888E+03  0.78669510196E+03  0.12509000000E+03 0.  0.
         25    1    4    4    0    0 -0.82051723153E+01  0.52202135110E+02  0.13177116785E+04  0.13246901387E+04  0.12509000000E+03 0.  0.
<mgrwt>
<rscale>  2 0.46166097E+03</rscale>
<asrwt>0</asrwt>
<pdfrwt beam="1">  1       21 0.37221565E+00 0.46166097E+03</pdfrwt>
<pdfrwt beam="2">  1       21 0.30958070E-02 0.46166097E+03</pdfrwt>
<totfact> 0.62814804E+03</totfact>
</mgrwt>
</event>
<event>
 7    0  0.4788920E-002  0.4532077E+03  0.7546771E-02  0.1026770E+00
         21   -1    0    0  502  501  0.00000000000E+00  0.00000000000E+00  0.66027757247E+03  0.66027757247E+03  0.00000000000E+00 0.  1.
         21   -1    0    0  501  502 -0.00000000000E+00 -0.00000000000E+00 -0.77769252995E+02  0.77769252995E+02  0.00000000000E+00 0.  1.
      99926    2    1    2    0    0  0.00000000000E+00  0.00000000000E+00  0.58250831948E+03  0.73804682547E+03  0.45320765034E+03 0.  0.
      99925    2    3    3    0    0  0.39308293213E+02  0.92663504395E+02  0.44470683737E+03  0.52646132612E+03  0.26318375660E+03 0.  0.
         25    1    3    3    0    0 -0.39308293213E+02 -0.92663504395E+02  0.13780148210E+03  0.21158549934E+03  0.12509000000E+03 0.  0.
         25    1    4    4    0    0  0.59751860585E+02  0.42093680073E+02  0.21441750638E+03  0.25877507200E+03  0.12509000000E+03 0.  0.
         25    1    4    4    0    0 -0.20443567372E+02  0.50569824322E+02  0.23028933100E+03  0.26768625413E+03  0.12509000000E+03 0.  0.
<mgrwt>
<rscale>  2 0.45320765E+03</rscale>
<asrwt>0</asrwt>
<pdfrwt beam="1">  1       21 0.97099640E-01 0.45320765E+03</pdfrwt>
<pdfrwt beam="2">  1       21 0.11436655E-01 0.45320765E+03</pdfrwt>
<totfact> 0.51608870E+04</totfact>
</mgrwt>
</event>
<event>
 7    0  0.4788920E-002  0.4712335E+03  0.7546771E-02  0.1021573E+00
         21   -1    0    0  502  501  0.00000000000E+00  0.00000000000E+00  0.42852522541E+03  0.42852522541E+03  0.00000000000E+00 0.  1.
         21   -1    0    0  501  502 -0.00000000000E+00 -0.00000000000E+00 -0.12954955796E+03  0.12954955796E+03  0.00000000000E+00 0.  1.
      99926    2    1    2    0    0  0.35527136788E-14  0.27755575616E-16  0.29897566745E+03  0.55807478336E+03  0.47123350274E+03 0.  0.
      99925    2    3    3    0    0 -0.16240942582E+02 -0.16800299500E+00  0.35474229377E+02  0.26593729449E+03  0.26305974076E+03 0.  0.
         25    1    3    3    0    0  0.16240942582E+02  0.16800299500E+00  0.26350143807E+03  0.29213748888E+03  0.12509000000E+03 0.  0.
         25    1    4    4    0    0  0.15049789782E+02 -0.33467525010E+02  0.19368601309E+02  0.13179234507E+03  0.12509000000E+03 0.  0.
         25    1    4    4    0    0 -0.31290732364E+02  0.33299522015E+02  0.16105628067E+02  0.13414494942E+03  0.12509000000E+03 0.  0.
<mgrwt>
<rscale>  2 0.47123350E+03</rscale>
<asrwt>0</asrwt>
<pdfrwt beam="1">  1       21 0.63018415E-01 0.47123350E+03</pdfrwt>
<pdfrwt beam="2">  1       21 0.19051406E-01 0.47123350E+03</pdfrwt>
<totfact> 0.54051584E+04</totfact>
</mgrwt>
</event>
<event>
 7    0  0.4788920E-002  0.4485674E+03  0.7546771E-02  0.1028150E+00
         21   -1    0    0  502  501  0.00000000000E+00  0.00000000000E+00  0.51832581026E+03  0.51832581026E+03  0.00000000000E+00 0.  1.
         21   -1    0    0  501  502 -0.00000000000E+00 -0.00000000000E+00 -0.97049325150E+02  0.97049325150E+02  0.00000000000E+00 0.  1.
      99926    2    1    2    0    0  0.71054273576E-14  0.71054273576E-14  0.42127648511E+03  0.61537513541E+03  0.44856736437E+03 0.  0.
      99925    2    3    3    0    0  0.45831642812E+02  0.37004298614E+02  0.14405192786E+03  0.30558355896E+03  0.26298383218E+03 0.  0.
         25    1    4    4    0    0 -0.10954725302E+02 -0.38751757937E+01  0.57638547812E+02  0.13821987298E+03  0.12509000000E+03 0.  0.
         25    1    4    4    0    0  0.56786368114E+02  0.40879474408E+02  0.86413380050E+02  0.16736368598E+03  0.12509000000E+03 0.  0.
         25    1    3    3    0    0 -0.45831642812E+02 -0.37004298614E+02  0.27722455725E+03  0.30979157645E+03  0.12509000000E+03 0.  0.
<mgrwt>
<rscale>  2 0.44856736E+03</rscale>
<asrwt>0</asrwt>
<pdfrwt beam="1">  1       21 0.76224383E-01 0.44856736E+03</pdfrwt>
<pdfrwt beam="2">  1       21 0.14271960E-01 0.44856736E+03</pdfrwt>
<totfact> 0.60770579E+04</totfact>
</mgrwt>
</event>
<event>
 7    0  0.4788920E-002  0.4505560E+03  0.7546771E-02  0.1027556E+00
         21   -1    0    0  502  501  0.00000000000E+00  0.00000000000E+00  0.13293853279E+03  0.13293853279E+03  0.00000000000E+00 0.  1.
         21   -1    0    0  501  502 -0.00000000000E+00 -0.00000000000E+00 -0.38175679253E+03  0.38175679253E+03  0.00000000000E+00 0.  1.
      99926    2    1    2    0    0 -0.71054273576E-14  0.00000000000E+00 -0.24881825974E+03  0.51469532532E+03  0.45055604704E+03 0.  0.
      99925    2    3    3    0    0 -0.37320084713E+02  0.99265913349E+02 -0.12841777869E+03  0.31124927789E+03  0.26294196475E+03 0.  0.
         25    1    4    4    0    0 -0.47289055317E+02  0.37256745812E+02 -0.92254908513E+02  0.16668172097E+03  0.12509000000E+03 0.  0.
         25    1    4    4    0    0  0.99689706043E+01  0.62009167537E+02 -0.36162870179E+02  0.14456755692E+03  0.12509000000E+03 0.  0.
         25    1    3    3    0    0  0.37320084713E+02 -0.99265913349E+02 -0.12040048105E+03  0.20344604743E+03  0.12509000000E+03 0.  0.
<mgrwt>
<rscale>  2 0.45055605E+03</rscale>
<asrwt>0</asrwt>
<pdfrwt beam="1">  1       21 0.19549785E-01 0.45055605E+03</pdfrwt>
<pdfrwt beam="2">  1       21 0.56140703E-01 0.45055605E+03</pdfrwt>
<totfact> 0.66566502E+04</totfact>
</mgrwt>
</event>
<event>
 7    0  0.4788920E-002  0.3981722E+03  0.7546771E-02  0.1044414E+00
         21   -1    0    0  502  501  0.00000000000E+00  0.00000000000E+00  0.31111565781E+02  0.31111565781E+02  0.00000000000E+00 0.  1.
         21   -1    0    0  501  502 -0.00000000000E+00 -0.00000000000E+00 -0.12739721843E+04  0.12739721843E+04  0.00000000000E+00 0.  1.
      99926    2    1    2    0    0  0.35527136788E-14  0.00000000000E+00 -0.12428606185E+04  0.13050837501E+04  0.39817217088E+03 0.  0.
      99925    2    3    3    0    0 -0.31216748939E+01 -0.39082397797E+02 -0.78921919760E+03  0.83288122410E+03  0.26322426355E+03 0.  0.
         25    1    4    4    0    0 -0.39150294980E+02 -0.33069968585E+01 -0.38500847409E+03  0.40672191365E+03  0.12509000000E+03 0.  0.
         25    1    4    4    0    0  0.36028620086E+02 -0.35775400938E+02 -0.40421072352E+03  0.42615931045E+03  0.12509000000E+03 0.  0.
         25    1    3    3    0    0  0.31216748939E+01  0.39082397797E+02 -0.45364142094E+03  0.47220252601E+03  0.12509000000E+03 0.  0.
<mgrwt>
<rscale>  2 0.39817217E+03</rscale>
<asrwt>0</asrwt>
<pdfrwt beam="1">  1       21 0.45752301E-02 0.39817217E+03</pdfrwt>
<pdfrwt beam="2">  1       21 0.18734886E+00 0.39817217E+03</pdfrwt>
<totfact> 0.46294939E+04</totfact>
</mgrwt>
</event>
<event>
 7    0  0.4788920E-002  0.4487621E+03  0.7546771E-02  0.1028092E+00
         21   -1    0    0  502  501  0.00000000000E+00  0.00000000000E+00  0.47239110018E+02  0.47239110018E+02  0.00000000000E+00 0.  1.
         21   -1    0    0  501  502 -0.00000000000E+00 -0.00000000000E+00 -0.10657875490E+04  0.10657875490E+04  0.00000000000E+00 0.  1.
      99926    2    1    2    0    0  0.14210854715E-13  0.00000000000E+00 -0.10185484390E+04  0.11130266591E+04  0.44876209860E+03 0.  0.
      99925    2    3    3    0    0  0.67681404541E+02 -0.67395023193E+02 -0.52419071192E+03  0.59422040224E+03  0.26305726049E+03 0.  0.
         25    1    4    4    0    0  0.35730036692E+02 -0.44979422976E+02 -0.18494718505E+03  0.23054880908E+03  0.12509000000E+03 0.  0.
         25    1    4    4    0    0  0.31951367848E+02 -0.22415600217E+02 -0.33924352687E+03  0.36367159315E+03  0.12509000000E+03 0.  0.
         25    1    3    3    0    0 -0.67681404541E+02  0.67395023193E+02 -0.49435772711E+03  0.51880625683E+03  0.12509000000E+03 0.  0.
<mgrwt>
<rscale>  2 0.44876210E+03</rscale>
<asrwt>0</asrwt>
<pdfrwt beam="1">  1       21 0.69469279E-02 0.44876210E+03</pdfrwt>
<pdfrwt beam="2">  1       21 0.15673346E+00 0.44876210E+03</pdfrwt>
<totfact> 0.36798422E+04</totfact>
</mgrwt>
</event>
<event>
 7    0  0.4788920E-002  0.4487589E+03  0.7546771E-02  0.1028093E+00
         21   -1    0    0  502  501  0.00000000000E+00  0.00000000000E+00  0.55450020618E+03  0.55450020618E+03  0.00000000000E+00 0. -1.
         21   -1    0    0  501  502 -0.00000000000E+00 -0.00000000000E+00 -0.90795534803E+02  0.90795534803E+02  0.00000000000E+00 0. -1.
      99926    2    1    2    0    0  0.00000000000E+00 -0.71054273576E-14  0.46370467138E+03  0.64529574098E+03  0.44875892311E+03 0.  0.
      99925    2    3    3    0    0  0.95638047289E+02  0.45702717441E+02  0.30946425583E+03  0.42018912545E+03  0.26373357965E+03 0.  0.
         25    1    4    4    0    0  0.19040753732E+02 -0.68117568265E+01  0.11599344209E+03  0.17178747638E+03  0.12509000000E+03 0.  0.
         25    1    3    3    0    0 -0.95638047289E+02 -0.45702717441E+02  0.15424041554E+03  0.22510661553E+03  0.12509000000E+03 0.  0.
         25    1    4    4    0    0  0.76597293558E+02  0.52514474268E+02  0.19347081374E+03  0.24840164907E+03  0.12509000000E+03 0.  0.
<mgrwt>
<rscale>  2 0.44875892E+03</rscale>
<asrwt>0</asrwt>
<pdfrwt beam="1">  1       21 0.81544146E-01 0.44875892E+03</pdfrwt>
<pdfrwt beam="2">  1       21 0.13352285E-01 0.44875892E+03</pdfrwt>
<totfact> 0.58816410E+04</totfact>
</mgrwt>
</event>
<event>
 7    0  0.4788920E-002  0.4274461E+03  0.7546771E-02  0.1034670E+00
         21   -1    0    0  502  501  0.00000000000E+00  0.00000000000E+00  0.14318157746E+03  0.14318157746E+03  0.00000000000E+00 0.  1.
         21   -1    0    0  501  502 -0.00000000000E+00 -0.00000000000E+00 -0.31901832465E+03  0.31901832465E+03  0.00000000000E+00 0.  1.
      99926    2    1    2    0    0  0.00000000000E+00  0.00000000000E+00 -0.17583674719E+03  0.46219990212E+03  0.42744612275E+03 0.  0.
      99925    2    3    3    0    0  0.58528739847E+02 -0.50799604833E+02 -0.76956933058E+02  0.28491217275E+03  0.26314703760E+03 0.  0.
         25    1    4    4    0    0  0.37416571998E+02  0.10726950629E+02 -0.55581206232E+02  0.14230898045E+03  0.12509000000E+03 0.  0.
         25    1    3    3    0    0 -0.58528739847E+02  0.50799604833E+02 -0.98879814135E+02  0.17728772936E+03  0.12509000000E+03 0.  0.
         25    1    4    4    0    0  0.21112167850E+02 -0.61526555462E+02 -0.21375726826E+02  0.14260319231E+03  0.12509000000E+03 0.  0.
<mgrwt>
<rscale>  2 0.42744612E+03</rscale>
<asrwt>0</asrwt>
<pdfrwt beam="1">  1       21 0.21056115E-01 0.42744612E+03</pdfrwt>
<pdfrwt beam="2">  1       21 0.46914459E-01 0.42744612E+03</pdfrwt>
<totfact> 0.85177762E+04</totfact>
</mgrwt>
</event>
<event>
 7    0  0.4788920E-002  0.4540252E+03  0.7546771E-02  0.1026528E+00
         21   -1    0    0  502  501  0.00000000000E+00  0.00000000000E+00  0.12378252249E+03  0.12378252249E+03  0.00000000000E+00 0. -1.
         21   -1    0    0  501  502 -0.00000000000E+00 -0.00000000000E+00 -0.41633284501E+03  0.41633284501E+03  0.00000000000E+00 0. -1.
      99926    2    1    2    0    0 -0.14210854715E-13  0.00000000000E+00 -0.29255032252E+03  0.54011536751E+03  0.45402524050E+03 0.  0.
      99925    2    3    3    0    0 -0.11125193052E+03  0.10283318766E+02 -0.19717661214E+03  0.34717394784E+03  0.26299884980E+03 0.  0.
         25    1    4    4    0    0 -0.76742590040E+02  0.12183931331E+01 -0.14709532814E+03  0.20778703826E+03  0.12509000000E+03 0.  0.
         25    1    3    3    0    0  0.11125193052E+03 -0.10283318766E+02 -0.95373710385E+02  0.19294141966E+03  0.12509000000E+03 0.  0.
         25    1    4    4    0    0 -0.34509340478E+02  0.90649256329E+01 -0.50081284001E+02  0.13938690959E+03  0.12509000000E+03 0.  0.
<mgrwt>
<rscale>  2 0.45402524E+03</rscale>
<asrwt>0</asrwt>
<pdfrwt beam="1">  1       21 0.18203312E-01 0.45402524E+03</pdfrwt>
<pdfrwt beam="2">  1       21 0.61225419E-01 0.45402524E+03</pdfrwt>
<totfact> 0.63009116E+04</totfact>
</mgrwt>
</event>
<event>
 7    0  0.4788920E-002  0.4512285E+03  0.7546771E-02  0.1027356E+00
         21   -1    0    0  502  501  0.00000000000E+00  0.00000000000E+00  0.14383852018E+03  0.14383852018E+03  0.00000000000E+00 0.  1.
         21   -1    0    0  501  502 -0.00000000000E+00 -0.00000000000E+00 -0.35388151883E+03  0.35388151883E+03  0.00000000000E+00 0.  1.
      99926    2    1    2    0    0  0.00000000000E+00 -0.88817841970E-15 -0.21004299866E+03  0.49772003901E+03  0.45122851854E+03 0.  0.
      99925    2    3    3    0    0  0.94058728162E+02 -0.56096154495E+01 -0.19422090649E+03  0.34031496022E+03  0.26308553647E+03 0.  0.
         25    1    3    3    0    0 -0.94058728162E+02  0.56096154495E+01 -0.15822092165E+02  0.15740507879E+03  0.12509000000E+03 0.  0.
         25    1    4    4    0    0  0.31738373433E+02  0.34506075514E+02 -0.83207177474E+02  0.15738149853E+03  0.12509000000E+03 0.  0.
         25    1    4    4    0    0  0.62320354729E+02 -0.40115690963E+02 -0.11101372902E+03  0.18293346169E+03  0.12509000000E+03 0.  0.
<mgrwt>
<rscale>  2 0.45122852E+03</rscale>
<asrwt>0</asrwt>
<pdfrwt beam="1">  1       21 0.21152724E-01 0.45122852E+03</pdfrwt>
<pdfrwt beam="2">  1       21 0.52041398E-01 0.45122852E+03</pdfrwt>
<totfact> 0.67427290E+04</totfact>
</mgrwt>
</event>
<event>
 7    0  0.4788920E-002  0.4528330E+03  0.7546771E-02  0.1026881E+00
         21   -1    0    0  502  501  0.00000000000E+00  0.00000000000E+00  0.78344936170E+03  0.78344936170E+03  0.00000000000E+00 0.  1.
         21   -1    0    0  501  502 -0.00000000000E+00 -0.00000000000E+00 -0.65434268921E+02  0.65434268921E+02  0.00000000000E+00 0.  1.
      99926    2    1    2    0    0  0.00000000000E+00  0.88817841970E-15  0.71801509278E+03  0.84888363063E+03  0.45283302097E+03 0.  0.
      99925    2    3    3    0    0 -0.55845718515E+02  0.66970021871E+01  0.63229677657E+03  0.68714701774E+03  0.26307454496E+03 0.  0.
         25    1    4    4    0    0 -0.46715889404E+02 -0.37696515856E+01  0.23406982863E+03  0.26950468896E+03  0.12509000000E+03 0.  0.
         25    1    4    4    0    0 -0.91298291105E+01  0.10466653773E+02  0.39822694794E+03  0.41764232878E+03  0.12509000000E+03 0.  0.
         25    1    3    3    0    0  0.55845718515E+02 -0.66970021871E+01  0.85718316213E+02  0.16173661289E+03  0.12509000000E+03 0.  0.
<mgrwt>
<rscale>  2 0.45283302E+03</rscale>
<asrwt>0</asrwt>
<pdfrwt beam="1">  1       21 0.11521314E+00 0.45283302E+03</pdfrwt>
<pdfrwt beam="2">  1       21 0.96226870E-02 0.45283302E+03</pdfrwt>
<totfact> 0.46270921E+04</totfact>
</mgrwt>
</event>
<event>
 7    0  0.4788920E-002  0.4498505E+03  0.7546771E-02  0.1027767E+00
         21   -1    0    0  502  501  0.00000000000E+00  0.00000000000E+00  0.56740723475E+03  0.56740723475E+03  0.00000000000E+00 0.  1.
         21   -1    0    0  501  502 -0.00000000000E+00 -0.00000000000E+00 -0.89162349026E+02  0.89162349026E+02  0.00000000000E+00 0.  1.
      99926    2    1    2    0    0  0.00000000000E+00  0.00000000000E+00  0.47824488573E+03  0.65656958378E+03  0.44985047251E+03 0.  0.
      99925    2    3    3    0    0 -0.95363058630E+01  0.85208884874E+02  0.39882916535E+03  0.48538003990E+03  0.26301632042E+03 0.  0.
         25    1    4    4    0    0 -0.14362037907E+02  0.41436345140E+02  0.26852738122E+03  0.29946235389E+03  0.12509000000E+03 0.  0.
         25    1    3    3    0    0  0.95363058630E+01 -0.85208884874E+02  0.79415720382E+02  0.17118954388E+03  0.12509000000E+03 0.  0.
         25    1    4    4    0    0  0.48257320436E+01  0.43772539733E+02  0.13030178412E+03  0.18591768601E+03  0.12509000000E+03 0.  0.
<mgrwt>
<rscale>  2 0.44985047E+03</rscale>
<asrwt>0</asrwt>
<pdfrwt beam="1">  1       21 0.83442239E-01 0.44985047E+03</pdfrwt>
<pdfrwt beam="2">  1       21 0.13112110E-01 0.44985047E+03</pdfrwt>
<totfact> 0.57629447E+04</totfact>
</mgrwt>
</event>
<event>
 7    0  0.4788920E-002  0.4355110E+03  0.7546771E-02  0.1032133E+00
         21   -1    0    0  502  501  0.00000000000E+00  0.00000000000E+00  0.19796979811E+03  0.19796979811E+03  0.00000000000E+00 0. -1.
         21   -1    0    0  501  502 -0.00000000000E+00 -0.00000000000E+00 -0.23951864978E+03  0.23951864978E+03  0.00000000000E+00 0. -1.
      99926    2    1    2    0    0  0.35527136788E-14  0.00000000000E+00 -0.41548851668E+02  0.43748844789E+03  0.43551100441E+03 0.  0.
      99925    2    3    3    0    0 -0.17965278989E+02 -0.56915316725E+02  0.46154345930E+02  0.27347179174E+03  0.26285831298E+03 0.  0.
         25    1    4    4    0    0 -0.23169095855E+02 -0.40993854787E+02  0.59998734189E+02  0.14650822276E+03  0.12509000000E+03 0.  0.
         25    1    4    4    0    0  0.52038168660E+01 -0.15921461937E+02 -0.13844388259E+02  0.12696356897E+03  0.12509000000E+03 0.  0.
         25    1    3    3    0    0  0.17965278989E+02  0.56915316725E+02 -0.87703197598E+02  0.16401665615E+03  0.12509000000E+03 0.  0.
<mgrwt>
<rscale>  2 0.43551100E+03</rscale>
<asrwt>0</asrwt>
<pdfrwt beam="1">  1       21 0.29113206E-01 0.43551100E+03</pdfrwt>
<pdfrwt beam="2">  1       21 0.35223331E-01 0.43551100E+03</pdfrwt>
<totfact> 0.81854702E+04</totfact>
</mgrwt>
</event>
<event>
 7    0  0.4788920E-002  0.4713102E+03  0.7546771E-02  0.1021551E+00
         21   -1    0    0  502  501  0.00000000000E+00  0.00000000000E+00  0.44469559481E+03  0.44469559481E+03  0.00000000000E+00 0.  1.
         21   -1    0    0  501  502 -0.00000000000E+00 -0.00000000000E+00 -0.12487940364E+03  0.12487940364E+03  0.00000000000E+00 0.  1.
      99926    2    1    2    0    0 -0.14210854715E-13  0.71054273576E-14  0.31981619117E+03  0.56957499846E+03  0.47131017677E+03 0.  0.
      99925    2    3    3    0    0  0.92281454008E+02 -0.37535861805E+02  0.29532724421E+03  0.40779729821E+03  0.26297461393E+03 0.  0.
         25    1    4    4    0    0  0.82390893098E+01 -0.21202419610E+02  0.10798207564E+03  0.16680845887E+03  0.12509000000E+03 0.  0.
         25    1    4    4    0    0  0.84042364698E+02 -0.16333442195E+02  0.18734516857E+03  0.24098883934E+03  0.12509000000E+03 0.  0.
         25    1    3    3    0    0 -0.92281454008E+02  0.37535861805E+02  0.24488946958E+02  0.16177770025E+03  0.12509000000E+03 0.  0.
<mgrwt>
<rscale>  2 0.47131018E+03</rscale>
<asrwt>0</asrwt>
<pdfrwt beam="1">  1       21 0.65396410E-01 0.47131018E+03</pdfrwt>
<pdfrwt beam="2">  1       21 0.18364618E-01 0.47131018E+03</pdfrwt>
<totfact> 0.53367169E+04</totfact>
</mgrwt>
</event>
<event>
 7    0  0.4788920E-002  0.4540529E+03  0.7546771E-02  0.1026520E+00
         21   -1    0    0  502  501  0.00000000000E+00  0.00000000000E+00  0.39809901471E+03  0.39809901471E+03  0.00000000000E+00 0.  1.
         21   -1    0    0  501  502 -0.00000000000E+00 -0.00000000000E+00 -0.12946782354E+03  0.12946782354E+03  0.00000000000E+00 0.  1.
      99926    2    1    2    0    0  0.00000000000E+00  0.00000000000E+00  0.26863119117E+03  0.52756683824E+03  0.45405291756E+03 0.  0.
      99925    2    3    3    0    0 -0.81772072958E+02 -0.94819681369E+01  0.80457413854E+02  0.28708095881E+03  0.26299334941E+03 0.  0.
         25    1    4    4    0    0 -0.46118714323E+02  0.36580472704E+01  0.81578800469E+02  0.15634233562E+03  0.12509000000E+03 0.  0.
         25    1    3    3    0    0  0.81772072958E+02  0.94819681369E+01  0.18817377732E+03  0.24048587943E+03  0.12509000000E+03 0.  0.
         25    1    4    4    0    0 -0.35653358634E+02 -0.13140015407E+02 -0.11213866151E+01  0.13073862319E+03  0.12509000000E+03 0.  0.
<mgrwt>
<rscale>  2 0.45405292E+03</rscale>
<asrwt>0</asrwt>
<pdfrwt beam="1">  1       21 0.58543972E-01 0.45405292E+03</pdfrwt>
<pdfrwt beam="2">  1       21 0.19039386E-01 0.45405292E+03</pdfrwt>
<totfact> 0.63849525E+04</totfact>
</mgrwt>
</event>
<event>
 7    0  0.4788920E-002  0.4506155E+03  0.7546771E-02  0.1027539E+00
         21   -1    0    0  502  501  0.00000000000E+00  0.00000000000E+00  0.10790422907E+03  0.10790422907E+03  0.00000000000E+00 0. -1.
         21   -1    0    0  501  502 -0.00000000000E+00 -0.00000000000E+00 -0.47045024818E+03  0.47045024818E+03  0.00000000000E+00 0. -1.
      99926    2    1    2    0    0  0.00000000000E+00 -0.71054273576E-14 -0.36254601912E+03  0.57835447725E+03  0.45061545178E+03 0.  0.
      99925    2    3    3    0    0 -0.98948855039E+02 -0.45385522536E+02 -0.22071308018E+03  0.36014629171E+03  0.26294555730E+03 0.  0.
         25    1    4    4    0    0 -0.39238432807E+02 -0.17138347381E+02 -0.15627525946E+03  0.20470183775E+03  0.12509000000E+03 0.  0.
         25    1    3    3    0    0  0.98948855039E+02  0.45385522536E+02 -0.14183293894E+03  0.21820818554E+03  0.12509000000E+03 0.  0.
         25    1    4    4    0    0 -0.59710422232E+02 -0.28247175155E+02 -0.64437820718E+02  0.15544445396E+03  0.12509000000E+03 0.  0.
<mgrwt>
<rscale>  2 0.45061545E+03</rscale>
<asrwt>0</asrwt>
<pdfrwt beam="1">  1       21 0.15868269E-01 0.45061545E+03</pdfrwt>
<pdfrwt beam="2">  1       21 0.69183860E-01 0.45061545E+03</pdfrwt>
<totfact> 0.62157559E+04</totfact>
</mgrwt>
</event>
<event>
 7    0  0.4788920E-002  0.4524356E+03  0.7546771E-02  0.1026998E+00
         21   -1    0    0  502  501  0.00000000000E+00  0.00000000000E+00  0.70395426926E+03  0.70395426926E+03  0.00000000000E+00 0.  1.
         21   -1    0    0  501  502 -0.00000000000E+00 -0.00000000000E+00 -0.72695762199E+02  0.72695762199E+02  0.00000000000E+00 0.  1.
      99926    2    1    2    0    0  0.35527136788E-14  0.00000000000E+00  0.63125850706E+03  0.77665003146E+03  0.45243559611E+03 0.  0.
      99925    2    3    3    0    0  0.25674827693E+02 -0.70844227216E+02  0.25633499438E+03  0.37429042891E+03  0.26212133549E+03 0.  0.
         25    1    4    4    0    0  0.38805635870E+02 -0.33184441960E+02  0.17001168319E+03  0.21716022906E+03  0.12509000000E+03 0.  0.
         25    1    3    3    0    0 -0.25674827693E+02  0.70844227216E+02  0.37492351268E+03  0.40235960255E+03  0.12509000000E+03 0.  0.
         25    1    4    4    0    0 -0.13130808178E+02 -0.37659785256E+02  0.86323311187E+02  0.15713019984E+03  0.12509000000E+03 0.  0.
<mgrwt>
<rscale>  2 0.45243560E+03</rscale>
<asrwt>0</asrwt>
<pdfrwt beam="1">  1       21 0.10352268E+00 0.45243560E+03</pdfrwt>
<pdfrwt beam="2">  1       21 0.10690554E-01 0.45243560E+03</pdfrwt>
<totfact> 0.49912125E+04</totfact>
</mgrwt>
</event>
<event>
 7    0  0.4788920E-002  0.4299392E+03  0.7546771E-02  0.1033879E+00
         21   -1    0    0  502  501  0.00000000000E+00  0.00000000000E+00  0.47538487927E+03  0.47538487927E+03  0.00000000000E+00 0. -1.
         21   -1    0    0  501  502 -0.00000000000E+00 -0.00000000000E+00 -0.97209516685E+02  0.97209516685E+02  0.00000000000E+00 0. -1.
      99926    2    1    2    0    0  0.00000000000E+00  0.35527136788E-14  0.37817536259E+03  0.57259439596E+03  0.42993922526E+03 0.  0.
      99925    2    3    3    0    0 -0.86245978787E+02  0.72122006899E+01  0.26243892689E+03  0.38145880183E+03  0.26295673113E+03 0.  0.
         25    1    3    3    0    0  0.86245978787E+02 -0.72122006899E+01  0.11573643570E+03  0.19113559413E+03  0.12509000000E+03 0.  0.
         25    1    4    4    0    0 -0.56529632741E+02 -0.31986292108E+02  0.15393525896E+03  0.20871582190E+03  0.12509000000E+03 0.  0.
         25    1    4    4    0    0 -0.29716346046E+02  0.39198492798E+02  0.10850366793E+03  0.17274297993E+03  0.12509000000E+03 0.  0.
<mgrwt>
<rscale>  2 0.42993923E+03</rscale>
<asrwt>0</asrwt>
<pdfrwt beam="1">  1       21 0.69909540E-01 0.42993923E+03</pdfrwt>
<pdfrwt beam="2">  1       21 0.14295517E-01 0.42993923E+03</pdfrwt>
<totfact> 0.74007927E+04</totfact>
</mgrwt>
</event>
<event>
 7    0  0.4788920E-002  0.4521024E+03  0.7546771E-02  0.1027097E+00
         21   -1    0    0  502  501  0.00000000000E+00  0.00000000000E+00  0.10534710955E+04  0.10534710955E+04  0.00000000000E+00 0. -1.
         21   -1    0    0  501  502 -0.00000000000E+00 -0.00000000000E+00 -0.48505508812E+02  0.48505508812E+02  0.00000000000E+00 0. -1.
      99926    2    1    2    0    0  0.00000000000E+00  0.00000000000E+00  0.10049655866E+04  0.11019766043E+04  0.45210242868E+03 0.  0.
      99925    2    3    3    0    0  0.73554259362E+02 -0.14454406999E+02  0.43665041846E+03  0.51524941260E+03  0.26305742775E+03 0.  0.
         25    1    4    4    0    0  0.77764643926E+02 -0.17453831808E+02  0.23453748999E+03  0.27750192504E+03  0.12509000000E+03 0.  0.
         25    1    3    3    0    0 -0.73554259362E+02  0.14454406999E+02  0.56831516819E+03  0.58672719167E+03  0.12509000000E+03 0.  0.
         25    1    4    4    0    0 -0.42103845635E+01  0.29994248093E+01  0.20211292846E+03  0.23774748756E+03  0.12509000000E+03 0.  0.
<mgrwt>
<rscale>  2 0.45210243E+03</rscale>
<asrwt>0</asrwt>
<pdfrwt beam="1">  1       21 0.15492220E+00 0.45210243E+03</pdfrwt>
<pdfrwt beam="2">  1       21 0.71331638E-02 0.45210243E+03</pdfrwt>
<totfact> 0.36237941E+04</totfact>
</mgrwt>
</event>
<event>
 7    0  0.4788920E-002  0.4534055E+03  0.7546771E-02  0.1026711E+00
         21   -1    0    0  502  501  0.00000000000E+00  0.00000000000E+00  0.80883552900E+02  0.80883552900E+02  0.00000000000E+00 0. -1.
         21   -1    0    0  501  502 -0.00000000000E+00 -0.00000000000E+00 -0.63540912394E+03  0.63540912394E+03  0.00000000000E+00 0. -1.
      99926    2    1    2    0    0  0.00000000000E+00  0.00000000000E+00 -0.55452557104E+03  0.71629267684E+03  0.45340554690E+03 0.  0.
      99925    2    3    3    0    0  0.89999441463E+02 -0.10418012297E+02 -0.45230965513E+03  0.53107918919E+03  0.26315897594E+03 0.  0.
         25    1    3    3    0    0 -0.89999441463E+02  0.10418012297E+02 -0.10221591591E+03  0.18521348766E+03  0.12509000000E+03 0.  0.
         25    1    4    4    0    0  0.20693525864E+02  0.14739107469E+02 -0.15987530381E+03  0.20458026339E+03  0.12509000000E+03 0.  0.
         25    1    4    4    0    0  0.69305915600E+02 -0.25157119766E+02 -0.29243435132E+03  0.32649892579E+03  0.12509000000E+03 0.  0.
<mgrwt>
<rscale>  2 0.45340555E+03</rscale>
<asrwt>0</asrwt>
<pdfrwt beam="1">  1       21 0.11894640E-01 0.45340555E+03</pdfrwt>
<pdfrwt beam="2">  1       21 0.93442516E-01 0.45340555E+03</pdfrwt>
<totfact> 0.52685012E+04</totfact>
</mgrwt>
</event>
<event>
 7    0  0.4788920E-002  0.4411221E+03  0.7546771E-02  0.1030403E+00
         21   -1    0    0  502  501  0.00000000000E+00  0.00000000000E+00  0.10647181660E+03  0.10647181660E+03  0.00000000000E+00 0.  1.
         21   -1    0    0  501  502 -0.00000000000E+00 -0.00000000000E+00 -0.45690192042E+03  0.45690192042E+03  0.00000000000E+00 0.  1.
      99926    2    1    2    0    0  0.00000000000E+00  0.00000000000E+00 -0.35043010381E+03  0.56337373702E+03  0.44112210317E+03 0.  0.
      99925    2    3    3    0    0  0.47274157220E+02 -0.39110905992E+02 -0.32262685431E+03  0.42129967995E+03  0.26389547988E+03 0.  0.
         25    1    3    3    0    0 -0.47274157220E+02  0.39110905992E+02 -0.27803249504E+02  0.14207405707E+03  0.12509000000E+03 0.  0.
         25    1    4    4    0    0  0.54722302200E+02 -0.24133628420E+02 -0.21288243520E+03  0.25405393462E+03  0.12509000000E+03 0.  0.
         25    1    4    4    0    0 -0.74481449796E+01 -0.14977277572E+02 -0.10974441911E+03  0.16724574534E+03  0.12509000000E+03 0.  0.
<mgrwt>
<rscale>  2 0.44112210E+03</rscale>
<asrwt>0</asrwt>
<pdfrwt beam="1">  1       21 0.15657620E-01 0.44112210E+03</pdfrwt>
<pdfrwt beam="2">  1       21 0.67191459E-01 0.44112210E+03</pdfrwt>
<totfact> 0.68171314E+04</totfact>
</mgrwt>
</event>
<event>
 7    0  0.4788920E-002  0.4524808E+03  0.7546771E-02  0.1026985E+00
         21   -1    0    0  502  501  0.00000000000E+00  0.00000000000E+00  0.33420280447E+02  0.33420280447E+02  0.00000000000E+00 0. -1.
         21   -1    0    0  501  502 -0.00000000000E+00 -0.00000000000E+00 -0.15315469256E+04  0.15315469256E+04  0.00000000000E+00 0. -1.
      99926    2    1    2    0    0 -0.17763568394E-14 -0.14210854715E-13 -0.14981266452E+04  0.15649672061E+04  0.45248084057E+03 0.  0.
      99925    2    3    3    0    0 -0.82621702629E+01 -0.10925320642E+03 -0.10010935401E+04  0.10408546779E+04  0.26303166701E+03 0.  0.
         25    1    4    4    0    0  0.18213901279E+02 -0.76252685884E+02 -0.62679667950E+03  0.64394705049E+03  0.12509000000E+03 0.  0.
         25    1    3    3    0    0  0.82621702629E+01  0.10925320642E+03 -0.49703310504E+03  0.52411252816E+03  0.12509000000E+03 0.  0.
         25    1    4    4    0    0 -0.26476071542E+02 -0.33000520532E+02 -0.37429686062E+03  0.39690762740E+03  0.12509000000E+03 0.  0.
<mgrwt>
<rscale>  2 0.45248084E+03</rscale>
<asrwt>0</asrwt>
<pdfrwt beam="1">  1       21 0.49147473E-02 0.45248084E+03</pdfrwt>
<pdfrwt beam="2">  1       21 0.22522748E+00 0.45248084E+03</pdfrwt>
<totfact> 0.22671187E+04</totfact>
</mgrwt>
</event>
<event>
 7    0  0.4788920E-002  0.4780533E+03  0.7546771E-02  0.1019672E+00
         21   -1    0    0  502  501  0.00000000000E+00  0.00000000000E+00  0.21438844628E+02  0.21438844628E+02  0.00000000000E+00 0.  1.
         21   -1    0    0  501  502 -0.00000000000E+00 -0.00000000000E+00 -0.26649635274E+04  0.26649635274E+04  0.00000000000E+00 0.  1.
      99926    2    1    2    0    0  0.00000000000E+00  0.00000000000E+00 -0.26435246828E+04  0.26864023721E+04  0.47805329830E+03 0.  0.
      99925    2    3    3    0    0 -0.11213298484E+03 -0.29024264524E+02 -0.20059430108E+04  0.20264219854E+04  0.26298761578E+03 0.  0.
         25    1    4    4    0    0 -0.66967795194E+02  0.24077089774E+02 -0.10473397640E+04  0.10571813852E+04  0.12509000000E+03 0.  0.
         25    1    3    3    0    0  0.11213298484E+03  0.29024264524E+02 -0.63758167198E+03  0.65998038665E+03  0.12509000000E+03 0.  0.
         25    1    4    4    0    0 -0.45165189643E+02 -0.53101354297E+02 -0.95860324680E+03  0.96924060019E+03  0.12509000000E+03 0.  0.
<mgrwt>
<rscale>  2 0.47805330E+03</rscale>
<asrwt>0</asrwt>
<pdfrwt beam="1">  1       21 0.31527703E-02 0.47805330E+03</pdfrwt>
<pdfrwt beam="2">  1       21 0.39190652E+00 0.47805330E+03</pdfrwt>
<totfact> 0.45370119E+03</totfact>
</mgrwt>
</event>
<event>
 7    0  0.4788920E-002  0.4519130E+03  0.7546771E-02  0.1027153E+00
         21   -1    0    0  502  501  0.00000000000E+00  0.00000000000E+00  0.16488131666E+04  0.16488131666E+04  0.00000000000E+00 0.  1.
         21   -1    0    0  501  502 -0.00000000000E+00 -0.00000000000E+00 -0.30965506109E+02  0.30965506109E+02  0.00000000000E+00 0.  1.
      99926    2    1    2    0    0  0.00000000000E+00  0.00000000000E+00  0.16178476605E+04  0.16797786727E+04  0.45191297474E+03 0.  0.
      99925    2    3    3    0    0  0.10279638626E+02 -0.10908578609E+03  0.97467445292E+03  0.10154559629E+04  0.26297365604E+03 0.  0.
         25    1    4    4    0    0 -0.23564060802E+02 -0.85047028564E+02  0.52228559610E+03  0.54425914234E+03  0.12509000000E+03 0.  0.
         25    1    4    4    0    0  0.33843699427E+02 -0.24038757526E+02  0.45238885682E+03  0.47119682058E+03  0.12509000000E+03 0.  0.
         25    1    3    3    0    0 -0.10279638626E+02  0.10908578609E+03  0.64317320759E+03  0.66432270980E+03  0.12509000000E+03 0.  0.
<mgrwt>
<rscale>  2 0.45191297E+03</rscale>
<asrwt>0</asrwt>
<pdfrwt beam="1">  1       21 0.24247247E+00 0.45191297E+03</pdfrwt>
<pdfrwt beam="2">  1       21 0.45537520E-02 0.45191297E+03</pdfrwt>
<totfact> 0.20164649E+04</totfact>
</mgrwt>
</event>
<event>
 7    0  0.4788920E-002  0.4505682E+03  0.7546771E-02  0.1027553E+00
         21   -1    0    0  502  501  0.00000000000E+00  0.00000000000E+00  0.66635583553E+02  0.66635583553E+02  0.00000000000E+00 0.  1.
         21   -1    0    0  501  502 -0.00000000000E+00 -0.00000000000E+00 -0.76164904397E+03  0.76164904397E+03  0.00000000000E+00 0.  1.
      99926    2    1    2    0    0 -0.14210854715E-13  0.28865798640E-14 -0.69501346042E+03  0.82828462753E+03  0.45056821241E+03 0.  0.
      99925    2    3    3    0    0  0.10443472541E+03  0.13483075735E+01 -0.49593245442E+03  0.57101203891E+03  0.26305383370E+03 0.  0.
         25    1    4    4    0    0  0.74105514137E+02  0.35883091134E+02 -0.26036609574E+03  0.30036184073E+03  0.12509000000E+03 0.  0.
         25    1    4    4    0    0  0.30329211273E+02 -0.34534783560E+02 -0.23556635868E+03  0.27065019818E+03  0.12509000000E+03 0.  0.
         25    1    3    3    0    0 -0.10443472541E+03 -0.13483075735E+01 -0.19908100600E+03  0.25727258862E+03  0.12509000000E+03 0.  0.
<mgrwt>
<rscale>  2 0.45056821E+03</rscale>
<asrwt>0</asrwt>
<pdfrwt beam="1">  1       21 0.97993504E-02 0.45056821E+03</pdfrwt>
<pdfrwt beam="2">  1       21 0.11200721E+00 0.45056821E+03</pdfrwt>
<totfact> 0.48077033E+04</totfact>
</mgrwt>
</event>
<event>
 7    0  0.4788920E-002  0.4886276E+03  0.7546771E-02  0.1016791E+00
         21   -1    0    0  502  501  0.00000000000E+00  0.00000000000E+00  0.59640448739E+02  0.59640448739E+02  0.00000000000E+00 0.  1.
         21   -1    0    0  501  502 -0.00000000000E+00 -0.00000000000E+00 -0.10008180856E+04  0.10008180856E+04  0.00000000000E+00 0.  1.
      99926    2    1    2    0    0 -0.17763568394E-14  0.00000000000E+00 -0.94117763683E+03  0.10604585343E+04  0.48862762807E+03 0.  0.
      99925    2    3    3    0    0 -0.99000780311E+01  0.32836452867E+01 -0.26672133803E+03  0.37442092531E+03  0.26256801648E+03 0.  0.
         25    1    3    3    0    0  0.99000780311E+01 -0.32836452867E+01 -0.67445629879E+03  0.68603760899E+03  0.12509000000E+03 0.  0.
         25    1    4    4    0    0  0.43901043456E+01  0.12996197556E+00 -0.18814354872E+03  0.22597520424E+03  0.12509000000E+03 0.  0.
         25    1    4    4    0    0 -0.14290182377E+02  0.31536833111E+01 -0.78577789311E+02  0.14844572107E+03  0.12509000000E+03 0.  0.
<mgrwt>
<rscale>  2 0.48862763E+03</rscale>
<asrwt>0</asrwt>
<pdfrwt beam="1">  1       21 0.87706546E-02 0.48862763E+03</pdfrwt>
<pdfrwt beam="2">  1       21 0.14717912E+00 0.48862763E+03</pdfrwt>
<totfact> 0.28614822E+04</totfact>
</mgrwt>
</event>
<event>
 7    0  0.4788920E-002  0.4573889E+03  0.7546771E-02  0.1025541E+00
         21   -1    0    0  502  501  0.00000000000E+00  0.00000000000E+00  0.82823258780E+03  0.82823258780E+03  0.00000000000E+00 0. -1.
         21   -1    0    0  501  502 -0.00000000000E+00 -0.00000000000E+00 -0.63147911658E+02  0.63147911658E+02  0.00000000000E+00 0. -1.
      99926    2    1    2    0    0  0.00000000000E+00  0.00000000000E+00  0.76508467615E+03  0.89138049946E+03  0.45738892985E+03 0.  0.
      99925    2    3    3    0    0 -0.52929547660E+02  0.10132734904E+03  0.44971500157E+03  0.53336610252E+03  0.26299628894E+03 0.  0.
         25    1    4    4    0    0 -0.57850680995E+02  0.43660672484E+02  0.27641628313E+03  0.31193977831E+03  0.12509000000E+03 0.  0.
         25    1    3    3    0    0  0.52929547660E+02 -0.10132734904E+03  0.31536967458E+03  0.35801439695E+03  0.12509000000E+03 0.  0.
         25    1    4    4    0    0  0.49211333345E+01  0.57666676552E+02  0.17329871844E+03  0.22142632420E+03  0.12509000000E+03 0.  0.
<mgrwt>
<rscale>  2 0.45738893E+03</rscale>
<asrwt>0</asrwt>
<pdfrwt beam="1">  1       21 0.12179890E+00 0.45738893E+03</pdfrwt>
<pdfrwt beam="2">  1       21 0.92864581E-02 0.45738893E+03</pdfrwt>
<totfact> 0.42802151E+04</totfact>
</mgrwt>
</event>
<event>
 6    0  0.4788920E-002  0.4512582E+03  0.7546771E-02  0.1027347E+00
         21   -1    0    0  502  501  0.00000000000E+00  0.00000000000E+00  0.32790217579E+03  0.32790217579E+03  0.00000000000E+00 0.  1.
         21   -1    0    0  501  502 -0.00000000000E+00 -0.00000000000E+00 -0.15525515112E+03  0.15525515112E+03  0.00000000000E+00 0.  1.
      99926    2    1    2    0    0  0.35527136788E-14  0.00000000000E+00  0.17264702467E+03  0.48315732691E+03  0.45125824915E+03 0.  0.
         25    1    3    3    0    0 -0.49862775697E+02 -0.59071059960E+02  0.74528773579E+02  0.16485670358E+03  0.12509000000E+03 0.  0.
         25    1    3    3    0    0  0.19407593104E+02  0.10468450356E+03  0.71471210113E+02  0.17914000650E+03  0.12509000000E+03 0.  0.
         25    1    3    3    0    0  0.30455182593E+02 -0.45613443595E+02  0.26647040975E+02  0.13916061683E+03  0.12509000000E+03 0.  0.
<mgrwt>
<rscale>  2 0.45125825E+03</rscale>
<asrwt>0</asrwt>
<pdfrwt beam="1">  1       21 0.48220908E-01 0.45125825E+03</pdfrwt>
<pdfrwt beam="2">  1       21 0.22831640E-01 0.45125825E+03</pdfrwt>
<totfact> 0.68482661E+04</totfact>
</mgrwt>
</event>
<event>
 7    0  0.4788920E-002  0.4402620E+03  0.7546771E-02  0.1030666E+00
         21   -1    0    0  502  501  0.00000000000E+00  0.00000000000E+00  0.28268612802E+02  0.28268612802E+02  0.00000000000E+00 0.  1.
         21   -1    0    0  501  502 -0.00000000000E+00 -0.00000000000E+00 -0.17141856790E+04  0.17141856790E+04  0.00000000000E+00 0.  1.
      99926    2    1    2    0    0  0.14210854715E-13  0.00000000000E+00 -0.16859170662E+04  0.17424542918E+04  0.44026197307E+03 0.  0.
      99925    2    3    3    0    0  0.81563844261E+02 -0.44157928230E+02 -0.93816329182E+03  0.97865733023E+03  0.26271129510E+03 0.  0.
         25    1    4    4    0    0 -0.11851312984E+01 -0.20528419780E+02 -0.42849844854E+03  0.44685707900E+03  0.12509000000E+03 0.  0.
         25    1    3    3    0    0 -0.81563844261E+02  0.44157928230E+02 -0.74775377441E+03  0.76379696161E+03  0.12509000000E+03 0.  0.
         25    1    4    4    0    0  0.82748975560E+02 -0.23629508450E+02 -0.50966484328E+03  0.53180025122E+03  0.12509000000E+03 0.  0.
<mgrwt>
<rscale>  2 0.44026197E+03</rscale>
<asrwt>0</asrwt>
<pdfrwt beam="1">  1       21 0.41571480E-02 0.44026197E+03</pdfrwt>
<pdfrwt beam="2">  1       21 0.25208619E+00 0.44026197E+03</pdfrwt>
<totfact> 0.20655918E+04</totfact>
</mgrwt>
</event>
<event>
 7    0  0.4788920E-002  0.4477482E+03  0.7546771E-02  0.1028396E+00
         21   -1    0    0  502  501  0.00000000000E+00  0.00000000000E+00  0.38225795349E+02  0.38225795349E+02  0.00000000000E+00 0. -1.
         21   -1    0    0  501  502 -0.00000000000E+00 -0.00000000000E+00 -0.13111465959E+04  0.13111465959E+04  0.00000000000E+00 0. -1.
      99926    2    1    2    0    0  0.00000000000E+00  0.00000000000E+00 -0.12729208005E+04  0.13493723912E+04  0.44774823929E+03 0.  0.
      99925    2    3    3    0    0  0.94150370203E+02 -0.49005264200E+02 -0.79236692695E+03  0.84158765175E+03  0.26298026644E+03 0.  0.
         25    1    3    3    0    0 -0.94150370203E+02  0.49005264200E+02 -0.48055387359E+03  0.50778473948E+03  0.12509000000E+03 0.  0.
         25    1    4    4    0    0  0.69159776761E+02 -0.13531643204E+02 -0.50815443294E+03  0.52804792956E+03  0.12509000000E+03 0.  0.
         25    1    4    4    0    0  0.24990593442E+02 -0.35473620997E+02 -0.28421249400E+03  0.31353972220E+03  0.12509000000E+03 0.  0.
<mgrwt>
<rscale>  2 0.44774824E+03</rscale>
<asrwt>0</asrwt>
<pdfrwt beam="1">  1       21 0.56214400E-02 0.44774824E+03</pdfrwt>
<pdfrwt beam="2">  1       21 0.19281569E+00 0.44774824E+03</pdfrwt>
<totfact> 0.29331842E+04</totfact>
</mgrwt>
</event>
<event>
 7    0  0.4788920E-002  0.4489974E+03  0.7546771E-02  0.1028021E+00
         21   -1    0    0  502  501  0.00000000000E+00  0.00000000000E+00  0.10094954945E+04  0.10094954945E+04  0.00000000000E+00 0. -1.
         21   -1    0    0  501  502 -0.00000000000E+00 -0.00000000000E+00 -0.49925595832E+02  0.49925595832E+02  0.00000000000E+00 0. -1.
      99926    2    1    2    0    0  0.00000000000E+00  0.00000000000E+00  0.95956989864E+03  0.10594210903E+04  0.44899738998E+03 0.  0.
      99925    2    3    3    0    0  0.52033614273E+02 -0.63751811526E+01  0.82841528585E+03  0.87074893946E+03  0.26302792587E+03 0.  0.
         25    1    3    3    0    0 -0.52033614273E+02  0.63751811526E+01  0.13115461279E+03  0.18867215084E+03  0.12509000000E+03 0.  0.
         25    1    4    4    0    0 -0.84024339531E+01 -0.21605336559E+02  0.43644171762E+03  0.45460562298E+03  0.12509000000E+03 0.  0.
         25    1    4    4    0    0  0.60436048226E+02  0.15230155406E+02  0.39197356824E+03  0.41614331648E+03  0.12509000000E+03 0.  0.
<mgrwt>
<rscale>  2 0.44899739E+03</rscale>
<asrwt>0</asrwt>
<pdfrwt beam="1">  1       21 0.14845521E+00 0.44899739E+03</pdfrwt>
<pdfrwt beam="2">  1       21 0.73420000E-02 0.44899739E+03</pdfrwt>
<totfact> 0.38715752E+04</totfact>
</mgrwt>
</event>
<event>
 7    0  0.4788920E-002  0.4723315E+03  0.7546771E-02  0.1021264E+00
         21   -1    0    0  502  501  0.00000000000E+00  0.00000000000E+00  0.11849220724E+03  0.11849220724E+03  0.00000000000E+00 0.  1.
         21   -1    0    0  501  502 -0.00000000000E+00 -0.00000000000E+00 -0.47069974885E+03  0.47069974885E+03  0.00000000000E+00 0.  1.
      99926    2    1    2    0    0  0.00000000000E+00  0.17763568394E-14 -0.35220754160E+03  0.58919195609E+03  0.47233146069E+03 0.  0.
      99925    2    3    3    0    0  0.12825894688E+03 -0.11233542939E+02 -0.21016300731E+03  0.36027994731E+03  0.26278622652E+03 0.  0.
         25    1    3    3    0    0 -0.12825894688E+03  0.11233542939E+02 -0.14204453429E+03  0.22891200878E+03  0.12509000000E+03 0.  0.
         25    1    4    4    0    0  0.73242328727E+02  0.11023762278E+02 -0.63651297105E+02  0.15869769304E+03  0.12509000000E+03 0.  0.
         25    1    4    4    0    0  0.55016618155E+02 -0.22257305217E+02 -0.14651171021E+03  0.20158225427E+03  0.12509000000E+03 0.  0.
<mgrwt>
<rscale>  2 0.47233146E+03</rscale>
<asrwt>0</asrwt>
<pdfrwt beam="1">  1       21 0.17425325E-01 0.47233146E+03</pdfrwt>
<pdfrwt beam="2">  1       21 0.69220551E-01 0.47233146E+03</pdfrwt>
<totfact> 0.51869131E+04</totfact>
</mgrwt>
</event>
<event>
 7    0  0.4788920E-002  0.4533348E+03  0.7546771E-02  0.1026732E+00
         21   -1    0    0  502  501  0.00000000000E+00  0.00000000000E+00  0.62140550324E+02  0.62140550324E+02  0.00000000000E+00 0. -1.
         21   -1    0    0  501  502 -0.00000000000E+00 -0.00000000000E+00 -0.82680477979E+03  0.82680477979E+03  0.00000000000E+00 0. -1.
      99926    2    1    2    0    0  0.00000000000E+00  0.00000000000E+00 -0.76466422946E+03  0.88894533011E+03  0.45333477267E+03 0.  0.
      99925    2    3    3    0    0 -0.74115208609E+02  0.70210874378E+02 -0.39325432868E+03  0.48395711605E+03  0.26295036057E+03 0.  0.
         25    1    4    4    0    0 -0.61204782583E+02  0.70395001974E+02 -0.20705230936E+03  0.25926752328E+03  0.12509000000E+03 0.  0.
         25    1    3    3    0    0  0.74115208609E+02 -0.70210874378E+02 -0.37140990078E+03  0.40498821406E+03  0.12509000000E+03 0.  0.
         25    1    4    4    0    0 -0.12910426026E+02 -0.18412759584E+00 -0.18620201932E+03  0.22468959277E+03  0.12509000000E+03 0.  0.
<mgrwt>
<rscale>  2 0.45333477E+03</rscale>
<asrwt>0</asrwt>
<pdfrwt beam="1">  1       21 0.91383162E-02 0.45333477E+03</pdfrwt>
<pdfrwt beam="2">  1       21 0.12158894E+00 0.45333477E+03</pdfrwt>
<totfact> 0.44289830E+04</totfact>
</mgrwt>
</event>
<event>
 7    0  0.4788920E-002  0.4600926E+03  0.7546771E-02  0.1024754E+00
         21   -1    0    0  502  501  0.00000000000E+00  0.00000000000E+00  0.16369260002E+03  0.16369260002E+03  0.00000000000E+00 0. -1.
         21   -1    0    0  501  502 -0.00000000000E+00 -0.00000000000E+00 -0.32329686817E+03  0.32329686817E+03  0.00000000000E+00 0. -1.
      99926    2    1    2    0    0  0.00000000000E+00  0.00000000000E+00 -0.15960426815E+03  0.48698946820E+03  0.46009262081E+03 0.  0.
      99925    2    3    3    0    0 -0.10408192438E+03 -0.46206041830E+02 -0.13220359651E+03  0.31562333913E+03  0.26300619002E+03 0.  0.
         25    1    4    4    0    0 -0.16913264929E+02 -0.10472029615E+01 -0.73806700407E+02  0.14622616828E+03  0.12509000000E+03 0.  0.
         25    1    3    3    0    0  0.10408192438E+03  0.46206041830E+02 -0.27400671640E+02  0.17136612907E+03  0.12509000000E+03 0.  0.
         25    1    4    4    0    0 -0.87168659452E+02 -0.45158838869E+02 -0.58396896102E+02  0.16939717085E+03  0.12509000000E+03 0.  0.
<mgrwt>
<rscale>  2 0.46009262E+03</rscale>
<asrwt>0</asrwt>
<pdfrwt beam="1">  1       21 0.24072442E-01 0.46009262E+03</pdfrwt>
<pdfrwt beam="2">  1       21 0.47543656E-01 0.46009262E+03</pdfrwt>
<totfact> 0.63585083E+04</totfact>
</mgrwt>
</event>
<event>
 7    0  0.4788920E-002  0.4526425E+03  0.7546771E-02  0.1026937E+00
         21   -1    0    0  502  501  0.00000000000E+00  0.00000000000E+00  0.13785423464E+03  0.13785423464E+03  0.00000000000E+00 0.  1.
         21   -1    0    0  501  502 -0.00000000000E+00 -0.00000000000E+00 -0.37156129918E+03  0.37156129918E+03  0.00000000000E+00 0.  1.
      99926    2    1    2    0    0  0.71054273576E-14  0.00000000000E+00 -0.23370706454E+03  0.50941553382E+03  0.45264245723E+03 0.  0.
      99925    2    3    3    0    0  0.51225011780E+02  0.41752343881E+02 -0.47148658902E+02  0.27528136958E+03  0.26303911563E+03 0.  0.
         25    1    4    4    0    0 -0.45674040952E+01  0.27829076036E+02  0.43169388538E+01  0.12830223191E+03  0.12509000000E+03 0.  0.
         25    1    3    3    0    0 -0.51225011780E+02 -0.41752343881E+02 -0.18655840564E+03  0.23413416424E+03  0.12509000000E+03 0.  0.
         25    1    4    4    0    0  0.55792415875E+02  0.13923267846E+02 -0.51465597756E+02  0.14697913767E+03  0.12509000000E+03 0.  0.
<mgrwt>
<rscale>  2 0.45264246E+03</rscale>
<asrwt>0</asrwt>
<pdfrwt beam="1">  1       21 0.20272682E-01 0.45264246E+03</pdfrwt>
<pdfrwt beam="2">  1       21 0.54641366E-01 0.45264246E+03</pdfrwt>
<totfact> 0.65837327E+04</totfact>
</mgrwt>
</event>
<event>
 7    0  0.4788920E-002  0.4529357E+03  0.7546771E-02  0.1026850E+00
         21   -1    0    0  502  501  0.00000000000E+00  0.00000000000E+00  0.96244105002E+02  0.96244105002E+02  0.00000000000E+00 0.  1.
         21   -1    0    0  501  502 -0.00000000000E+00 -0.00000000000E+00 -0.53289174168E+03  0.53289174168E+03  0.00000000000E+00 0.  1.
      99926    2    1    2    0    0  0.00000000000E+00  0.00000000000E+00 -0.43664763668E+03  0.62913584668E+03  0.45293570732E+03 0.  0.
      99925    2    3    3    0    0  0.66724364580E+02 -0.86669017804E+02 -0.30359483626E+03  0.41626448817E+03  0.26294988122E+03 0.  0.
         25    1    4    4    0    0  0.38642827974E+01 -0.44899488982E+02 -0.10341606196E+03  0.16844371987E+03  0.12509000000E+03 0.  0.
         25    1    3    3    0    0 -0.66724364580E+02  0.86669017804E+02 -0.13305280042E+03  0.21287135851E+03  0.12509000000E+03 0.  0.
         25    1    4    4    0    0  0.62860081783E+02 -0.41769528822E+02 -0.20017877430E+03  0.24782076830E+03  0.12509000000E+03 0.  0.
<mgrwt>
<rscale>  2 0.45293571E+03</rscale>
<asrwt>0</asrwt>
<pdfrwt beam="1">  1       21 0.14153545E-01 0.45293571E+03</pdfrwt>
<pdfrwt beam="2">  1       21 0.78366431E-01 0.45293571E+03</pdfrwt>
<totfact> 0.57856860E+04</totfact>
</mgrwt>
</event>
<event>
 7    0  0.4788920E-002  0.4521880E+03  0.7546771E-02  0.1027072E+00
         21   -1    0    0  502  501  0.00000000000E+00  0.00000000000E+00  0.10155217378E+03  0.10155217378E+03  0.00000000000E+00 0.  1.
         21   -1    0    0  501  502 -0.00000000000E+00 -0.00000000000E+00 -0.50337173314E+03  0.50337173314E+03  0.00000000000E+00 0.  1.
      99926    2    1    2    0    0  0.00000000000E+00  0.71054273576E-14 -0.40181955936E+03  0.60492390692E+03  0.45218798622E+03 0.  0.
      99925    2    3    3    0    0 -0.84530909356E+02 -0.61121560351E+02 -0.20470756993E+03  0.34922493498E+03  0.26300484073E+03 0.  0.
         25    1    4    4    0    0 -0.34662574509E+02  0.10191602191E+02 -0.85659124889E+02  0.15585363840E+03  0.12509000000E+03 0.  0.
         25    1    4    4    0    0 -0.49868334847E+02 -0.71313162542E+02 -0.11904844504E+03  0.19337129658E+03  0.12509000000E+03 0.  0.
         25    1    3    3    0    0  0.84530909356E+02  0.61121560351E+02 -0.19711198942E+03  0.25569897194E+03  0.12509000000E+03 0.  0.
<mgrwt>
<rscale>  2 0.45218799E+03</rscale>
<asrwt>0</asrwt>
<pdfrwt beam="1">  1       21 0.14934143E-01 0.45218799E+03</pdfrwt>
<pdfrwt beam="2">  1       21 0.74025254E-01 0.45218799E+03</pdfrwt>
<totfact> 0.59691234E+04</totfact>
</mgrwt>
</event>
<event>
 6    0  0.4788920E-002  0.4231837E+03  0.7546771E-02  0.1036035E+00
         21   -1    0    0  502  501  0.00000000000E+00  0.00000000000E+00  0.36728465383E+02  0.36728465383E+02  0.00000000000E+00 0. -1.
         21   -1    0    0  501  502 -0.00000000000E+00 -0.00000000000E+00 -0.12189760474E+04  0.12189760474E+04  0.00000000000E+00 0. -1.
      99926    2    1    2    0    0  0.00000000000E+00 -0.35527136788E-14 -0.11822475820E+04  0.12557045128E+04  0.42318374052E+03 0.  0.
         25    1    3    3    0    0 -0.27281113196E+02  0.63455228312E+01 -0.29999687402E+03  0.32623635193E+03  0.12509000000E+03 0.  0.
         25    1    3    3    0    0 -0.52854864970E+02 -0.36361720159E+02 -0.44693669893E+03  0.46852506058E+03  0.12509000000E+03 0.  0.
         25    1    3    3    0    0  0.80135978166E+02  0.30016197328E+02 -0.43531400907E+03  0.46094310027E+03  0.12509000000E+03 0.  0.
<mgrwt>
<rscale>  2 0.42318374E+03</rscale>
<asrwt>0</asrwt>
<pdfrwt beam="1">  1       21 0.54012439E-02 0.42318374E+03</pdfrwt>
<pdfrwt beam="2">  1       21 0.17926122E+00 0.42318374E+03</pdfrwt>
<totfact> 0.39291481E+04</totfact>
</mgrwt>
</event>
<event>
 7    0  0.4788920E-002  0.4595363E+03  0.7546771E-02  0.1024916E+00
         21   -1    0    0  502  501  0.00000000000E+00  0.00000000000E+00  0.63992515053E+02  0.63992515053E+02  0.00000000000E+00 0.  1.
         21   -1    0    0  501  502 -0.00000000000E+00 -0.00000000000E+00 -0.82499333800E+03  0.82499333800E+03  0.00000000000E+00 0.  1.
      99926    2    1    2    0    0 -0.46629367034E-14 -0.71054273576E-14 -0.76100082294E+03  0.88898585305E+03  0.45953628192E+03 0.  0.
      99925    2    3    3    0    0 -0.17651190082E+01  0.51119464909E+02 -0.27290590345E+03  0.38252709473E+03  0.26312170327E+03 0.  0.
         25    1    4    4    0    0  0.36696802850E+02  0.34684242120E+02 -0.11950236480E+03  0.18021646785E+03  0.12509000000E+03 0.  0.
         25    1    3    3    0    0  0.17651190082E+01 -0.51119464909E+02 -0.48809491950E+03  0.50645875832E+03  0.12509000000E+03 0.  0.
         25    1    4    4    0    0 -0.38461921858E+02  0.16435222790E+02 -0.15340353864E+03  0.20231062688E+03  0.12509000000E+03 0.  0.
<mgrwt>
<rscale>  2 0.45953628E+03</rscale>
<asrwt>0</asrwt>
<pdfrwt beam="1">  1       21 0.94106647E-02 0.45953628E+03</pdfrwt>
<pdfrwt beam="2">  1       21 0.12132254E+00 0.45953628E+03</pdfrwt>
<totfact> 0.42194388E+04</totfact>
</mgrwt>
</event>
<event>
 7    0  0.4788920E-002  0.4564729E+03  0.7546771E-02  0.1025809E+00
         21   -1    0    0  502  501  0.00000000000E+00  0.00000000000E+00  0.23076025407E+04  0.23076025407E+04  0.00000000000E+00 0. -1.
         21   -1    0    0  501  502 -0.00000000000E+00 -0.00000000000E+00 -0.22574026271E+02  0.22574026271E+02  0.00000000000E+00 0. -1.
      99926    2    1    2    0    0  0.00000000000E+00  0.00000000000E+00  0.22850285145E+04  0.23301765670E+04  0.45647291432E+03 0.  0.
      99925    2    3    3    0    0  0.11135595769E+03 -0.20049050341E+02  0.13395431844E+04  0.13697640873E+04  0.26282237008E+03 0.  0.
         25    1    4    4    0    0  0.86491425737E+02 -0.42054303671E+01  0.59097224733E+03  0.61024106514E+03  0.12509000000E+03 0.  0.
         25    1    3    3    0    0 -0.11135595769E+03  0.20049050341E+02  0.94548533008E+03  0.96041247974E+03  0.12509000000E+03 0.  0.
         25    1    4    4    0    0  0.24864531953E+02 -0.15843619974E+02  0.74857093706E+03  0.75952302214E+03  0.12509000000E+03 0.  0.
<mgrwt>
<rscale>  2 0.45647291E+03</rscale>
<asrwt>0</asrwt>
<pdfrwt beam="1">  1       21 0.33935315E+00 0.45647291E+03</pdfrwt>
<pdfrwt beam="2">  1       21 0.33197113E-02 0.45647291E+03</pdfrwt>
<totfact> 0.89268439E+03</totfact>
</mgrwt>
</event>
<event>
 7    0  0.4788920E-002  0.4533124E+03  0.7546771E-02  0.1026739E+00
         21   -1    0    0  502  501  0.00000000000E+00  0.00000000000E+00  0.13932472443E+04  0.13932472443E+04  0.00000000000E+00 0.  1.
         21   -1    0    0  501  502 -0.00000000000E+00 -0.00000000000E+00 -0.36872881316E+02  0.36872881316E+02  0.00000000000E+00 0.  1.
      99926    2    1    2    0    0  0.00000000000E+00  0.00000000000E+00  0.13563743630E+04  0.14301201256E+04  0.45331243214E+03 0.  0.
      99925    2    3    3    0    0  0.10260632539E+03  0.37532720792E+02  0.78161655303E+03  0.83184693438E+03  0.26288423904E+03 0.  0.
         25    1    3    3    0    0 -0.10260632539E+03 -0.37532720792E+02  0.57475780994E+03  0.59827319121E+03  0.12509000000E+03 0.  0.
         25    1    4    4    0    0  0.27937555292E+02  0.63792812172E+01  0.45703621638E+03  0.47471129479E+03  0.12509000000E+03 0.  0.
         25    1    4    4    0    0  0.74668770100E+02  0.31153439575E+02  0.32458033665E+03  0.35713563959E+03  0.12509000000E+03 0.  0.
<mgrwt>
<rscale>  2 0.45331243E+03</rscale>
<asrwt>0</asrwt>
<pdfrwt beam="1">  1       21 0.20488927E+00 0.45331243E+03</pdfrwt>
<pdfrwt beam="2">  1       21 0.54224835E-02 0.45331243E+03</pdfrwt>
<totfact> 0.25877992E+04</totfact>
</mgrwt>
</event>
<event>
 7    0  0.4788920E-002  0.4507381E+03  0.7546771E-02  0.1027502E+00
         21   -1    0    0  502  501  0.00000000000E+00  0.00000000000E+00  0.20321330026E+03  0.20321330026E+03  0.00000000000E+00 0. -1.
         21   -1    0    0  501  502 -0.00000000000E+00 -0.00000000000E+00 -0.24994035467E+03  0.24994035467E+03  0.00000000000E+00 0. -1.
      99926    2    1    2    0    0  0.00000000000E+00  0.00000000000E+00 -0.46727054413E+02  0.45315365493E+03  0.45073808066E+03 0.  0.
      99925    2    3    3    0    0 -0.17008650475E+02 -0.44360300963E+02 -0.12830961216E+03  0.29643622667E+03  0.26297138517E+03 0.  0.
         25    1    4    4    0    0 -0.10838978611E+02 -0.62469310228E+02 -0.75961864659E+02  0.15949172756E+03  0.12509000000E+03 0.  0.
         25    1    3    3    0    0  0.17008650475E+02  0.44360300963E+02  0.81582557743E+02  0.15671742826E+03  0.12509000000E+03 0.  0.
         25    1    4    4    0    0 -0.61696718648E+01  0.18109009265E+02 -0.52347747497E+02  0.13694449911E+03  0.12509000000E+03 0.  0.
<mgrwt>
<rscale>  2 0.45073808E+03</rscale>
<asrwt>0</asrwt>
<pdfrwt beam="1">  1       21 0.29884309E-01 0.45073808E+03</pdfrwt>
<pdfrwt beam="2">  1       21 0.36755934E-01 0.45073808E+03</pdfrwt>
<totfact> 0.71067232E+04</totfact>
</mgrwt>
</event>
<event>
 7    0  0.4788920E-002  0.4433261E+03  0.7546771E-02  0.1029731E+00
         21   -1    0    0  502  501  0.00000000000E+00  0.00000000000E+00  0.40952057477E+03  0.40952057477E+03  0.00000000000E+00 0. -1.
         21   -1    0    0  501  502 -0.00000000000E+00 -0.00000000000E+00 -0.11998055830E+03  0.11998055830E+03  0.00000000000E+00 0. -1.
      99926    2    1    2    0    0  0.14210854715E-13 -0.35527136788E-14  0.28954001647E+03  0.52950113307E+03  0.44332609757E+03 0.  0.
      99925    2    3    3    0    0  0.76708543149E+02  0.31171044975E+02  0.11331412679E+03  0.29807315955E+03  0.26296707489E+03 0.  0.
         25    1    4    4    0    0  0.60884627701E+02  0.13493125928E+01  0.91928145779E+02  0.16675446207E+03  0.12509000000E+03 0.  0.
         25    1    4    4    0    0  0.15823915448E+02  0.29821732382E+02  0.21385981012E+02  0.13131869747E+03  0.12509000000E+03 0.  0.
         25    1    3    3    0    0 -0.76708543149E+02 -0.31171044975E+02  0.17622588968E+03  0.23142797353E+03  0.12509000000E+03 0.  0.
<mgrwt>
<rscale>  2 0.44332610E+03</rscale>
<asrwt>0</asrwt>
<pdfrwt beam="1">  1       21 0.60223613E-01 0.44332610E+03</pdfrwt>
<pdfrwt beam="2">  1       21 0.17644200E-01 0.44332610E+03</pdfrwt>
<totfact> 0.69439589E+04</totfact>
</mgrwt>
</event>
<event>
 7    0  0.4788920E-002  0.4552983E+03  0.7546771E-02  0.1026154E+00
         21   -1    0    0  502  501  0.00000000000E+00  0.00000000000E+00  0.19547565640E+04  0.19547565640E+04  0.00000000000E+00 0. -1.
         21   -1    0    0  501  502 -0.00000000000E+00 -0.00000000000E+00 -0.26511814767E+02  0.26511814767E+02  0.00000000000E+00 0. -1.
      99926    2    1    2    0    0  0.14210854715E-13  0.00000000000E+00  0.19282447493E+04  0.19812683788E+04  0.45529833709E+03 0.  0.
      99925    2    3    3    0    0 -0.97181276701E+02  0.38919810474E+02  0.10207797391E+04  0.10592601332E+04  0.26283417173E+03 0.  0.
         25    1    3    3    0    0  0.97181276701E+02 -0.38919810474E+02  0.90746501014E+03  0.92200824558E+03  0.12509000000E+03 0.  0.
         25    1    4    4    0    0 -0.73325018180E+02  0.61189466233E+01  0.64533577956E+03  0.66145277706E+03  0.12509000000E+03 0.  0.
         25    1    4    4    0    0 -0.23856258521E+02  0.32800863851E+02  0.37544395955E+03  0.39780735614E+03  0.12509000000E+03 0.  0.
<mgrwt>
<rscale>  2 0.45529834E+03</rscale>
<asrwt>0</asrwt>
<pdfrwt beam="1">  1       21 0.28746410E+00 0.45529834E+03</pdfrwt>
<pdfrwt beam="2">  1       21 0.38987976E-02 0.45529834E+03</pdfrwt>
<totfact> 0.13985608E+04</totfact>
</mgrwt>
</event>
<event>
 7    0  0.4788920E-002  0.4570201E+03  0.7546771E-02  0.1025649E+00
         21   -1    0    0  502  501  0.00000000000E+00  0.00000000000E+00  0.62264000770E+02  0.62264000770E+02  0.00000000000E+00 0.  1.
         21   -1    0    0  501  502 -0.00000000000E+00 -0.00000000000E+00 -0.83863617738E+03  0.83863617738E+03  0.00000000000E+00 0.  1.
      99926    2    1    2    0    0  0.00000000000E+00  0.17763568394E-14 -0.77637217661E+03  0.90090017815E+03  0.45702010281E+03 0.  0.
      99925    2    3    3    0    0 -0.76593091492E+02 -0.10654889084E+02 -0.65534543603E+03  0.71044018665E+03  0.26318736664E+03 0.  0.
         25    1    3    3    0    0  0.76593091492E+02  0.10654889084E+02 -0.12102674057E+03  0.19045999149E+03  0.12509000000E+03 0.  0.
         25    1    4    4    0    0 -0.22340606500E+02  0.30436585105E+02 -0.27995348181E+03  0.30894489556E+03  0.12509000000E+03 0.  0.
         25    1    4    4    0    0 -0.54252484993E+02 -0.41091474189E+02 -0.37539195422E+03  0.40149529110E+03  0.12509000000E+03 0.  0.
<mgrwt>
<rscale>  2 0.45702010E+03</rscale>
<asrwt>0</asrwt>
<pdfrwt beam="1">  1       21 0.91564707E-02 0.45702010E+03</pdfrwt>
<pdfrwt beam="2">  1       21 0.12332885E+00 0.45702010E+03</pdfrwt>
<totfact> 0.42518314E+04</totfact>
</mgrwt>
</event>
<event>
 7    0  0.4788920E-002  0.4535492E+03  0.7546771E-02  0.1026669E+00
         21   -1    0    0  502  501  0.00000000000E+00  0.00000000000E+00  0.10883043268E+04  0.10883043268E+04  0.00000000000E+00 0. -1.
         21   -1    0    0  501  502 -0.00000000000E+00 -0.00000000000E+00 -0.47253978583E+02  0.47253978583E+02  0.00000000000E+00 0. -1.
      99926    2    1    2    0    0  0.00000000000E+00  0.00000000000E+00  0.10410503482E+04  0.11355583053E+04  0.45354915653E+03 0.  0.
      99925    2    3    3    0    0 -0.10636893130E+03 -0.30434180520E+02  0.69696931078E+03  0.75309280717E+03  0.26294860175E+03 0.  0.
         25    1    4    4    0    0 -0.30431757989E+02 -0.45008024642E+02  0.29287869198E+03  0.32307468253E+03  0.12509000000E+03 0.  0.
         25    1    3    3    0    0  0.10636893130E+03  0.30434180520E+02  0.34408103740E+03  0.38246549817E+03  0.12509000000E+03 0.  0.
         25    1    4    4    0    0 -0.75937173312E+02  0.14573844121E+02  0.40409061879E+03  0.43001812464E+03  0.12509000000E+03 0.  0.
<mgrwt>
<rscale>  2 0.45354916E+03</rscale>
<asrwt>0</asrwt>
<pdfrwt beam="1">  1       21 0.16004474E+00 0.45354916E+03</pdfrwt>
<pdfrwt beam="2">  1       21 0.69491152E-02 0.45354916E+03</pdfrwt>
<totfact> 0.34658525E+04</totfact>
</mgrwt>
</event>
<event>
 7    0  0.4788920E-002  0.4586723E+03  0.7546771E-02  0.1025167E+00
         21   -1    0    0  502  501  0.00000000000E+00  0.00000000000E+00  0.26580272651E+03  0.26580272651E+03  0.00000000000E+00 0. -1.
         21   -1    0    0  501  502 -0.00000000000E+00 -0.00000000000E+00 -0.19787261494E+03  0.19787261494E+03  0.00000000000E+00 0. -1.
      99926    2    1    2    0    0  0.14210854715E-13  0.00000000000E+00  0.67930111571E+02  0.46367534144E+03  0.45867234733E+03 0.  0.
      99925    2    3    3    0    0 -0.10252876020E+03 -0.54075603322E+02  0.55596405263E+02  0.29269011999E+03  0.26294529568E+03 0.  0.
         25    1    3    3    0    0  0.10252876020E+03  0.54075603322E+02  0.12333706308E+02  0.17098522145E+03  0.12509000000E+03 0.  0.
         25    1    4    4    0    0 -0.93774871821E+01 -0.35020857697E+02  0.25322920655E+02  0.13267688627E+03  0.12509000000E+03 0.  0.
         25    1    4    4    0    0 -0.93151273021E+02 -0.19054745624E+02  0.30273484608E+02  0.16001323372E+03  0.12509000000E+03 0.  0.
<mgrwt>
<rscale>  2 0.45867235E+03</rscale>
<asrwt>0</asrwt>
<pdfrwt beam="1">  1       21 0.39088637E-01 0.45867235E+03</pdfrwt>
<pdfrwt beam="2">  1       21 0.29098914E-01 0.45867235E+03</pdfrwt>
<totfact> 0.65960570E+04</totfact>
</mgrwt>
</event>
<event>
 7    0  0.4788920E-002  0.4446757E+03  0.7546771E-02  0.1029322E+00
         21   -1    0    0  502  501  0.00000000000E+00  0.00000000000E+00  0.62687012936E+03  0.62687012936E+03  0.00000000000E+00 0.  1.
         21   -1    0    0  501  502 -0.00000000000E+00 -0.00000000000E+00 -0.78858616212E+02  0.78858616212E+02  0.00000000000E+00 0.  1.
      99926    2    1    2    0    0  0.00000000000E+00  0.00000000000E+00  0.54801151315E+03  0.70572874557E+03  0.44467566134E+03 0.  0.
      99925    2    3    3    0    0 -0.18404288766E+02 -0.64582402723E+02  0.22426399135E+03  0.35221839133E+03  0.26316126765E+03 0.  0.
         25    1    4    4    0    0  0.31280640607E+02 -0.30502176202E+02  0.11707064359E+03  0.17681036429E+03  0.12509000000E+03 0.  0.
         25    1    3    3    0    0  0.18404288766E+02  0.64582402723E+02  0.32374752180E+03  0.35351035424E+03  0.12509000000E+03 0.  0.
         25    1    4    4    0    0 -0.49684929373E+02 -0.34080226521E+02  0.10719334776E+03  0.17540802704E+03  0.12509000000E+03 0.  0.
<mgrwt>
<rscale>  2 0.44467566E+03</rscale>
<asrwt>0</asrwt>
<pdfrwt beam="1">  1       21 0.92186781E-01 0.44467566E+03</pdfrwt>
<pdfrwt beam="2">  1       21 0.11596856E-01 0.44467566E+03</pdfrwt>
<totfact> 0.57091484E+04</totfact>
</mgrwt>
</event>
<event>
 7    0  0.4788920E-002  0.4518195E+03  0.7546771E-02  0.1027181E+00
         21   -1    0    0  502  501  0.00000000000E+00  0.00000000000E+00  0.22722063883E+04  0.22722063883E+04  0.00000000000E+00 0. -1.
         21   -1    0    0  501  502 -0.00000000000E+00 -0.00000000000E+00 -0.22460645298E+02  0.22460645298E+02  0.00000000000E+00 0. -1.
      99926    2    1    2    0    0  0.00000000000E+00  0.00000000000E+00  0.22497457430E+04  0.22946670336E+04  0.45181952916E+03 0.  0.
      99925    2    3    3    0    0 -0.70235703442E+02  0.69906804589E+02  0.16639913121E+04  0.16875626136E+04  0.26302181030E+03 0.  0.
         25    1    4    4    0    0  0.13378196689E+01  0.21447843098E+02  0.65563894502E+03  0.66781115150E+03  0.12509000000E+03 0.  0.
         25    1    4    4    0    0 -0.71573523111E+02  0.48458961491E+02  0.10083523671E+04  0.10197514621E+04  0.12509000000E+03 0.  0.
         25    1    3    3    0    0  0.70235703442E+02 -0.69906804589E+02  0.58575443093E+03  0.60710442003E+03  0.12509000000E+03 0.  0.
<mgrwt>
<rscale>  2 0.45181953E+03</rscale>
<asrwt>0</asrwt>
<pdfrwt beam="1">  1       21 0.33414784E+00 0.45181953E+03</pdfrwt>
<pdfrwt beam="2">  1       21 0.33030376E-02 0.45181953E+03</pdfrwt>
<totfact> 0.97053913E+03</totfact>
</mgrwt>
</event>
<event>
 7    0  0.4788920E-002  0.4559150E+03  0.7546771E-02  0.1025973E+00
         21   -1    0    0  502  501  0.00000000000E+00  0.00000000000E+00  0.24959968012E+03  0.24959968012E+03  0.00000000000E+00 0. -1.
         21   -1    0    0  501  502 -0.00000000000E+00 -0.00000000000E+00 -0.20819189371E+03  0.20819189371E+03  0.00000000000E+00 0. -1.
      99926    2    1    2    0    0  0.00000000000E+00  0.00000000000E+00  0.41407786405E+02  0.45779157383E+03  0.45591503627E+03 0.  0.
      99925    2    3    3    0    0  0.93390107818E+02 -0.32592338684E+02  0.83479759780E+02  0.29286270486E+03  0.26270843310E+03 0.  0.
         25    1    4    4    0    0  0.29217158742E+02 -0.47622270840E+02  0.59881884727E+02  0.14951545493E+03  0.12509000000E+03 0.  0.
         25    1    4    4    0    0  0.64172949076E+02  0.15029932157E+02  0.23597875053E+02  0.14334724992E+03  0.12509000000E+03 0.  0.
         25    1    3    3    0    0 -0.93390107818E+02  0.32592338684E+02 -0.42071973375E+02  0.16492886898E+03  0.12509000000E+03 0.  0.
<mgrwt>
<rscale>  2 0.45591504E+03</rscale>
<asrwt>0</asrwt>
<pdfrwt beam="1">  1       21 0.36705835E-01 0.45591504E+03</pdfrwt>
<pdfrwt beam="2">  1       21 0.30616455E-01 0.45591504E+03</pdfrwt>
<totfact> 0.67845109E+04</totfact>
</mgrwt>
</event>
<event>
 7    0  0.4788920E-002  0.4539840E+03  0.7546771E-02  0.1026541E+00
         21   -1    0    0  502  501  0.00000000000E+00  0.00000000000E+00  0.32833140762E+02  0.32833140762E+02  0.00000000000E+00 0.  1.
         21   -1    0    0  501  502 -0.00000000000E+00 -0.00000000000E+00 -0.15693099845E+04  0.15693099845E+04  0.00000000000E+00 0.  1.
      99926    2    1    2    0    0 -0.35527136788E-14  0.00000000000E+00 -0.15364768438E+04  0.16021431253E+04  0.45398403330E+03 0.  0.
      99925    2    3    3    0    0 -0.31851746736E+02 -0.10626269927E+03 -0.10264878402E+04  0.10654471342E+04  0.26304755199E+03 0.  0.
         25    1    3    3    0    0  0.31851746736E+02  0.10626269927E+03 -0.50998900358E+03  0.53669599114E+03  0.12509000000E+03 0.  0.
         25    1    4    4    0    0 -0.26938520219E+02 -0.79684538041E+02 -0.66811729024E+03  0.68491133082E+03  0.12509000000E+03 0.  0.
         25    1    4    4    0    0 -0.49132265167E+01 -0.26578161232E+02 -0.35837054997E+03  0.38053580335E+03  0.12509000000E+03 0.  0.
<mgrwt>
<rscale>  2 0.45398403E+03</rscale>
<asrwt>0</asrwt>
<pdfrwt beam="1">  1       21 0.48284014E-02 0.45398403E+03</pdfrwt>
<pdfrwt beam="2">  1       21 0.23078096E+00 0.45398403E+03</pdfrwt>
<totfact> 0.21550900E+04</totfact>
</mgrwt>
</event>
<event>
 7    0  0.4788920E-002  0.4581325E+03  0.7546771E-02  0.1025324E+00
         21   -1    0    0  502  501  0.00000000000E+00  0.00000000000E+00  0.17043347136E+02  0.17043347136E+02  0.00000000000E+00 0. -1.
         21   -1    0    0  501  502 -0.00000000000E+00 -0.00000000000E+00 -0.30786995901E+04  0.30786995901E+04  0.00000000000E+00 0. -1.
      99926    2    1    2    0    0 -0.17763568394E-14  0.00000000000E+00 -0.30616562429E+04  0.30957429372E+04  0.45813249543E+03 0.  0.
      99925    2    3    3    0    0 -0.13123638626E+02  0.10228777057E+03 -0.22831674950E+04  0.23005528614E+04  0.26278249558E+03 0.  0.
         25    1    4    4    0    0  0.18998886175E+02  0.39944679423E+02 -0.85948149253E+03  0.86966227881E+03  0.12509000000E+03 0.  0.
         25    1    4    4    0    0 -0.32122524802E+02  0.62343091144E+02 -0.14236860024E+04  0.14308905826E+04  0.12509000000E+03 0.  0.
         25    1    3    3    0    0  0.13123638626E+02 -0.10228777057E+03 -0.77848874797E+03  0.79519007584E+03  0.12509000000E+03 0.  0.
<mgrwt>
<rscale>  2 0.45813250E+03</rscale>
<asrwt>0</asrwt>
<pdfrwt beam="1">  1       21 0.25063744E-02 0.45813250E+03</pdfrwt>
<pdfrwt beam="2">  1       21 0.45274998E+00 0.45813250E+03</pdfrwt>
<totfact> 0.26829416E+03</totfact>
</mgrwt>
</event>
<event>
 7    0  0.4788920E-002  0.4576153E+03  0.7546771E-02  0.1025475E+00
         21   -1    0    0  502  501  0.00000000000E+00  0.00000000000E+00  0.35652567743E+03  0.35652567743E+03  0.00000000000E+00 0.  1.
         21   -1    0    0  501  502 -0.00000000000E+00 -0.00000000000E+00 -0.14684198188E+03  0.14684198188E+03  0.00000000000E+00 0.  1.
      99926    2    1    2    0    0 -0.35527136788E-14  0.00000000000E+00  0.20968369555E+03  0.50336765931E+03  0.45761528412E+03 0.  0.
      99925    2    3    3    0    0  0.22912526790E+02 -0.95432095979E+02  0.19887661145E+03  0.34400464606E+03  0.26297342280E+03 0.  0.
         25    1    4    4    0    0  0.47457239045E+02 -0.67749241600E+02  0.98701784432E+02  0.17953189027E+03  0.12509000000E+03 0.  0.
         25    1    3    3    0    0 -0.22912526790E+02  0.95432095979E+02  0.10807084095E+02  0.15936301325E+03  0.12509000000E+03 0.  0.
         25    1    4    4    0    0 -0.24544712254E+02 -0.27682854379E+02  0.10017482702E+03  0.16447275578E+03  0.12509000000E+03 0.  0.
<mgrwt>
<rscale>  2 0.45761528E+03</rscale>
<asrwt>0</asrwt>
<pdfrwt beam="1">  1       21 0.52430247E-01 0.45761528E+03</pdfrwt>
<pdfrwt beam="2">  1       21 0.21594409E-01 0.45761528E+03</pdfrwt>
<totfact> 0.63701983E+04</totfact>
</mgrwt>
</event>
<event>
 7    0  0.4788920E-002  0.4353033E+03  0.7546771E-02  0.1032198E+00
         21   -1    0    0  502  501  0.00000000000E+00  0.00000000000E+00  0.45770680461E+03  0.45770680461E+03  0.00000000000E+00 0. -1.
         21   -1    0    0  501  502 -0.00000000000E+00 -0.00000000000E+00 -0.10349908940E+03  0.10349908940E+03  0.00000000000E+00 0. -1.
      99926    2    1    2    0    0  0.17763568394E-14 -0.17763568394E-14  0.35420771520E+03  0.56120589401E+03  0.43530328503E+03 0.  0.
      99925    2    3    3    0    0 -0.11667088650E+02  0.61842769196E+01  0.34648189294E+03  0.43518382186E+03  0.26298458212E+03 0.  0.
         25    1    4    4    0    0  0.13079602532E+02 -0.19708914461E+02  0.21720510218E+03  0.25176394067E+03  0.12509000000E+03 0.  0.
         25    1    4    4    0    0 -0.24746691182E+02  0.25893191381E+02  0.12927679076E+03  0.18341988119E+03  0.12509000000E+03 0.  0.
         25    1    3    3    0    0  0.11667088650E+02 -0.61842769196E+01  0.77258222593E+01  0.12602207215E+03  0.12509000000E+03 0.  0.
<mgrwt>
<rscale>  2 0.43530329E+03</rscale>
<asrwt>0</asrwt>
<pdfrwt beam="1">  1       21 0.67309823E-01 0.43530329E+03</pdfrwt>
<pdfrwt beam="2">  1       21 0.15220455E-01 0.43530329E+03</pdfrwt>
<totfact> 0.71660263E+04</totfact>
</mgrwt>
</event>
<event>
 7    0  0.4788920E-002  0.4520536E+03  0.7546771E-02  0.1027111E+00
         21   -1    0    0  502  501  0.00000000000E+00  0.00000000000E+00  0.24024445718E+03  0.24024445718E+03  0.00000000000E+00 0.  1.
         21   -1    0    0  501  502 -0.00000000000E+00 -0.00000000000E+00 -0.21265055758E+03  0.21265055758E+03  0.00000000000E+00 0.  1.
      99926    2    1    2    0    0 -0.14210854715E-13  0.35527136788E-14  0.27593899604E+02  0.45289501475E+03  0.45205361529E+03 0.  0.
      99925    2    3    3    0    0 -0.10886603867E+03 -0.12693035485E+02  0.10386543941E+02  0.28569295522E+03  0.26362787569E+03 0.  0.
         25    1    4    4    0    0 -0.40474677670E+02  0.26567343483E+02  0.27216360333E+02  0.13686585272E+03  0.12509000000E+03 0.  0.
         25    1    3    3    0    0  0.10886603867E+03  0.12693035485E+02  0.17207355662E+02  0.16720205954E+03  0.12509000000E+03 0.  0.
         25    1    4    4    0    0 -0.68391360999E+02 -0.39260378968E+02 -0.16829816392E+02  0.14882710249E+03  0.12509000000E+03 0.  0.
<mgrwt>
<rscale>  2 0.45205362E+03</rscale>
<asrwt>0</asrwt>
<pdfrwt beam="1">  1       21 0.35330067E-01 0.45205362E+03</pdfrwt>
<pdfrwt beam="2">  1       21 0.31272141E-01 0.45205362E+03</pdfrwt>
<totfact> 0.70339409E+04</totfact>
</mgrwt>
</event>
<event>
 7    0  0.4788920E-002  0.4550451E+03  0.7546771E-02  0.1026228E+00
         21   -1    0    0  502  501  0.00000000000E+00  0.00000000000E+00  0.61367222663E+03  0.61367222663E+03  0.00000000000E+00 0. -1.
         21   -1    0    0  501  502 -0.00000000000E+00 -0.00000000000E+00 -0.84355292074E+02  0.84355292074E+02  0.00000000000E+00 0. -1.
      99926    2    1    2    0    0  0.00000000000E+00  0.00000000000E+00  0.52931693456E+03  0.69802751871E+03  0.45504505234E+03 0.  0.
      99925    2    3    3    0    0  0.94965456629E+02 -0.35736698683E+01  0.42817141693E+03  0.51118765972E+03  0.26258494266E+03 0.  0.
         25    1    4    4    0    0  0.74256083961E+02 -0.56077551249E+01  0.17192002371E+03  0.22527630940E+03  0.12509000000E+03 0.  0.
         25    1    4    4    0    0  0.20709372668E+02  0.20340852566E+01  0.25625139322E+03  0.28591135033E+03  0.12509000000E+03 0.  0.
         25    1    3    3    0    0 -0.94965456629E+02  0.35736698683E+01  0.10114551763E+03  0.18683985899E+03  0.12509000000E+03 0.  0.
<mgrwt>
<rscale>  2 0.45504505E+03</rscale>
<asrwt>0</asrwt>
<pdfrwt beam="1">  1       21 0.90245913E-01 0.45504505E+03</pdfrwt>
<pdfrwt beam="2">  1       21 0.12405190E-01 0.45504505E+03</pdfrwt>
<totfact> 0.52991397E+04</totfact>
</mgrwt>
</event>
<event>
 7    0  0.4788920E-002  0.4573453E+03  0.7546771E-02  0.1025554E+00
         21   -1    0    0  502  501  0.00000000000E+00  0.00000000000E+00  0.34378562174E+03  0.34378562174E+03  0.00000000000E+00 0.  1.
         21   -1    0    0  501  502 -0.00000000000E+00 -0.00000000000E+00 -0.15210403193E+03  0.15210403193E+03  0.00000000000E+00 0.  1.
      99926    2    1    2    0    0  0.00000000000E+00  0.35527136788E-14  0.19168158982E+03  0.49588965367E+03  0.45734529269E+03 0.  0.
      99925    2    3    3    0    0  0.48412421570E+02 -0.31914348753E+02  0.22845203884E+03  0.35319465642E+03  0.26304722590E+03 0.  0.
         25    1    4    4    0    0  0.94764960338E+01  0.57898237700E+01  0.68573214425E+02  0.14308431037E+03  0.12509000000E+03 0.  0.
         25    1    3    3    0    0 -0.48412421570E+02  0.31914348753E+02 -0.36770449023E+02  0.14269499725E+03  0.12509000000E+03 0.  0.
         25    1    4    4    0    0  0.38935925536E+02 -0.37704172523E+02  0.15987882441E+03  0.21011034605E+03  0.12509000000E+03 0.  0.
<mgrwt>
<rscale>  2 0.45734529E+03</rscale>
<asrwt>0</asrwt>
<pdfrwt beam="1">  1       21 0.50556709E-01 0.45734529E+03</pdfrwt>
<pdfrwt beam="2">  1       21 0.22368240E-01 0.45734529E+03</pdfrwt>
<totfact> 0.64353868E+04</totfact>
</mgrwt>
</event>
<event>
 7    0  0.4788920E-002  0.4498663E+03  0.7546771E-02  0.1027762E+00
         21   -1    0    0  502  501  0.00000000000E+00  0.00000000000E+00  0.21213578607E+03  0.21213578607E+03  0.00000000000E+00 0. -1.
         21   -1    0    0  501  502 -0.00000000000E+00 -0.00000000000E+00 -0.23850255481E+03  0.23850255481E+03  0.00000000000E+00 0. -1.
      99926    2    1    2    0    0  0.00000000000E+00  0.00000000000E+00 -0.26366768742E+02  0.45063834088E+03  0.44986632212E+03 0.  0.
      99925    2    3    3    0    0 -0.57109070728E+02 -0.91808466914E+02 -0.23268716176E+02  0.28526800925E+03  0.26295658081E+03 0.  0.
         25    1    3    3    0    0  0.57109070728E+02  0.91808466914E+02 -0.30980525657E+01  0.16537033164E+03  0.12509000000E+03 0.  0.
         25    1    4    4    0    0 -0.38166279118E+02 -0.64591743703E+01 -0.34635659556E+00  0.13094278849E+03  0.12509000000E+03 0.  0.
         25    1    4    4    0    0 -0.18942791609E+02 -0.85349292544E+02 -0.22922359581E+02  0.15432522075E+03  0.12509000000E+03 0.  0.
<mgrwt>
<rscale>  2 0.44986632E+03</rscale>
<asrwt>0</asrwt>
<pdfrwt beam="1">  1       21 0.31196439E-01 0.44986632E+03</pdfrwt>
<pdfrwt beam="2">  1       21 0.35073905E-01 0.44986632E+03</pdfrwt>
<totfact> 0.71761195E+04</totfact>
</mgrwt>
</event>
<event>
 7    0  0.4788920E-002  0.4571697E+03  0.7546771E-02  0.1025605E+00
         21   -1    0    0  502  501  0.00000000000E+00  0.00000000000E+00  0.13244602195E+03  0.13244602195E+03  0.00000000000E+00 0. -1.
         21   -1    0    0  501  502 -0.00000000000E+00 -0.00000000000E+00 -0.39450819765E+03  0.39450819765E+03  0.00000000000E+00 0. -1.
      99926    2    1    2    0    0  0.00000000000E+00  0.14210854715E-13 -0.26206217570E+03  0.52695421960E+03  0.45716973393E+03 0.  0.
      99925    2    3    3    0    0 -0.50886446915E+02 -0.72164986137E+02 -0.77844913031E+02  0.28741148089E+03  0.26219899534E+03 0.  0.
         25    1    4    4    0    0  0.12743676960E+02 -0.39715834498E+02 -0.47860066846E+02  0.14027773491E+03  0.12509000000E+03 0.  0.
         25    1    3    3    0    0  0.50886446915E+02  0.72164986137E+02 -0.18421726267E+03  0.23954273871E+03  0.12509000000E+03 0.  0.
         25    1    4    4    0    0 -0.63630123875E+02 -0.32449151639E+02 -0.29984846185E+02  0.14713374598E+03  0.12509000000E+03 0.  0.
<mgrwt>
<rscale>  2 0.45716973E+03</rscale>
<asrwt>0</asrwt>
<pdfrwt beam="1">  1       21 0.19477356E-01 0.45716973E+03</pdfrwt>
<pdfrwt beam="2">  1       21 0.58015911E-01 0.45716973E+03</pdfrwt>
<totfact> 0.62334135E+04</totfact>
</mgrwt>
</event>
<event>
 7    0  0.4788920E-002  0.4584325E+03  0.7546771E-02  0.1025237E+00
         21   -1    0    0  502  501  0.00000000000E+00  0.00000000000E+00  0.29971754324E+03  0.29971754324E+03  0.00000000000E+00 0. -1.
         21   -1    0    0  501  502 -0.00000000000E+00 -0.00000000000E+00 -0.17529867081E+03  0.17529867081E+03  0.00000000000E+00 0. -1.
      99926    2    1    2    0    0  0.00000000000E+00 -0.14210854715E-13  0.12441887243E+03  0.47501621405E+03  0.45843248990E+03 0.  0.
      99925    2    3    3    0    0 -0.31083702351E+02  0.84455220116E+02  0.15471064798E+03  0.31796851263E+03  0.26281116732E+03 0.  0.
         25    1    3    3    0    0  0.31083702351E+02 -0.84455220116E+02 -0.30291775558E+02  0.15704770143E+03  0.12509000000E+03 0.  0.
         25    1    4    4    0    0  0.36356308618E+00  0.48826223275E+02  0.35840797449E+02  0.13898274396E+03  0.12509000000E+03 0.  0.
         25    1    4    4    0    0 -0.31447265437E+02  0.35628996842E+02  0.11886985053E+03  0.17898576867E+03  0.12509000000E+03 0.  0.
<mgrwt>
<rscale>  2 0.45843249E+03</rscale>
<asrwt>0</asrwt>
<pdfrwt beam="1">  1       21 0.44076110E-01 0.45843249E+03</pdfrwt>
<pdfrwt beam="2">  1       21 0.25779216E-01 0.45843249E+03</pdfrwt>
<totfact> 0.65268856E+04</totfact>
</mgrwt>
</event>
<event>
 7    0  0.4788920E-002  0.4502563E+03  0.7546771E-02  0.1027646E+00
         21   -1    0    0  502  501  0.00000000000E+00  0.00000000000E+00  0.19017198784E+03  0.19017198784E+03  0.00000000000E+00 0.  1.
         21   -1    0    0  501  502 -0.00000000000E+00 -0.00000000000E+00 -0.26650970827E+03  0.26650970827E+03  0.00000000000E+00 0.  1.
      99926    2    1    2    0    0  0.35527136788E-14 -0.14210854715E-13 -0.76337720432E+02  0.45668169611E+03  0.45025628702E+03 0.  0.
      99925    2    3    3    0    0  0.24058926565E+02 -0.96758432293E+02 -0.92155666516E+02  0.29593735971E+03  0.26295480188E+03 0.  0.
         25    1    4    4    0    0 -0.94379722668E+01 -0.84186244493E+02 -0.52026622355E+02  0.15978321757E+03  0.12509000000E+03 0.  0.
         25    1    4    4    0    0  0.33496898831E+02 -0.12572187800E+02 -0.40129044161E+02  0.13615414214E+03  0.12509000000E+03 0.  0.
         25    1    3    3    0    0 -0.24058926565E+02  0.96758432293E+02  0.15817946084E+02  0.16074433640E+03  0.12509000000E+03 0.  0.
<mgrwt>
<rscale>  2 0.45025629E+03</rscale>
<asrwt>0</asrwt>
<pdfrwt beam="1">  1       21 0.27966469E-01 0.45025629E+03</pdfrwt>
<pdfrwt beam="2">  1       21 0.39192604E-01 0.45025629E+03</pdfrwt>
<totfact> 0.71073761E+04</totfact>
</mgrwt>
</event>
<event>
 7    0  0.4788920E-002  0.4648260E+03  0.7546771E-02  0.1023391E+00
         21   -1    0    0  502  501  0.00000000000E+00  0.00000000000E+00  0.86223666755E+03  0.86223666755E+03  0.00000000000E+00 0.  1.
         21   -1    0    0  501  502 -0.00000000000E+00 -0.00000000000E+00 -0.62646141263E+02  0.62646141263E+02  0.00000000000E+00 0.  1.
      99926    2    1    2    0    0  0.00000000000E+00  0.00000000000E+00  0.79959052629E+03  0.92488280881E+03  0.46482598928E+03 0.  0.
      99925    2    3    3    0    0  0.47282029828E+02  0.11262147785E+03  0.49158977363E+03  0.57072019170E+03  0.26294836768E+03 0.  0.
         25    1    3    3    0    0 -0.47282029828E+02 -0.11262147785E+03  0.30800075266E+03  0.35416261711E+03  0.12509000000E+03 0.  0.
         25    1    4    4    0    0  0.26188826051E+02  0.67624076182E+02  0.33086163946E+03  0.36107589625E+03  0.12509000000E+03 0.  0.
         25    1    4    4    0    0  0.21093203777E+02  0.44997401668E+02  0.16072813417E+03  0.20964429545E+03  0.12509000000E+03 0.  0.
<mgrwt>
<rscale>  2 0.46482599E+03</rscale>
<asrwt>0</asrwt>
<pdfrwt beam="1">  1       21 0.12679950E+00 0.46482599E+03</pdfrwt>
<pdfrwt beam="2">  1       21 0.92126683E-02 0.46482599E+03</pdfrwt>
<totfact> 0.39081989E+04</totfact>
</mgrwt>
</event>
<event>
 7    0  0.4788920E-002  0.4544460E+03  0.7546771E-02  0.1026404E+00
         21   -1    0    0  502  501  0.00000000000E+00  0.00000000000E+00  0.54103969058E+03  0.54103969058E+03  0.00000000000E+00 0.  1.
         21   -1    0    0  501  502 -0.00000000000E+00 -0.00000000000E+00 -0.95427913872E+02  0.95427913872E+02  0.00000000000E+00 0.  1.
      99926    2    1    2    0    0  0.00000000000E+00  0.00000000000E+00  0.44561177671E+03  0.63646760445E+03  0.45444598796E+03 0.  0.
      99925    2    3    3    0    0  0.63381252146E+01 -0.49954063057E+02  0.13983118687E+03  0.30227475972E+03  0.26321415102E+03 0.  0.
         25    1    4    4    0    0 -0.91073233017E+01  0.14613620232E+02  0.70075681262E+02  0.14441125454E+03  0.12509000000E+03 0.  0.
         25    1    3    3    0    0 -0.63381252146E+01  0.49954063057E+02  0.30578058984E+03  0.33419284473E+03  0.12509000000E+03 0.  0.
         25    1    4    4    0    0  0.15445448516E+02 -0.64567683288E+02  0.69755505609E+02  0.15786350518E+03  0.12509000000E+03 0.  0.
<mgrwt>
<rscale>  2 0.45444599E+03</rscale>
<asrwt>0</asrwt>
<pdfrwt beam="1">  1       21 0.79564659E-01 0.45444599E+03</pdfrwt>
<pdfrwt beam="2">  1       21 0.14033517E-01 0.45444599E+03</pdfrwt>
<totfact> 0.56735571E+04</totfact>
</mgrwt>
</event>
<event>
 7    0  0.4788920E-002  0.4527848E+03  0.7546771E-02  0.1026895E+00
         21   -1    0    0  502  501  0.00000000000E+00  0.00000000000E+00  0.79118106620E+02  0.79118106620E+02  0.00000000000E+00 0. -1.
         21   -1    0    0  501  502 -0.00000000000E+00 -0.00000000000E+00 -0.64781023995E+03  0.64781023995E+03  0.00000000000E+00 0. -1.
      99926    2    1    2    0    0  0.35527136788E-14  0.00000000000E+00 -0.56869213333E+03  0.72692834657E+03  0.45278480378E+03 0.  0.
      99925    2    3    3    0    0 -0.17414250216E+02  0.69556441255E+02 -0.22237844423E+03  0.35179899023E+03  0.26300000463E+03 0.  0.
         25    1    4    4    0    0 -0.48892269700E+02  0.41494966227E+02 -0.11240612303E+03  0.17998591848E+03  0.12509000000E+03 0.  0.
         25    1    4    4    0    0  0.31478019484E+02  0.28061475028E+02 -0.10997232120E+03  0.17181307174E+03  0.12509000000E+03 0.  0.
         25    1    3    3    0    0  0.17414250216E+02 -0.69556441255E+02 -0.34631368911E+03  0.37512935635E+03  0.12509000000E+03 0.  0.
<mgrwt>
<rscale>  2 0.45278480E+03</rscale>
<asrwt>0</asrwt>
<pdfrwt beam="1">  1       21 0.11635016E-01 0.45278480E+03</pdfrwt>
<pdfrwt beam="2">  1       21 0.95266213E-01 0.45278480E+03</pdfrwt>
<totfact> 0.52371628E+04</totfact>
</mgrwt>
</event>
<event>
 7    0  0.4788920E-002  0.4586134E+03  0.7546771E-02  0.1025184E+00
         21   -1    0    0  502  501  0.00000000000E+00  0.00000000000E+00  0.11339813762E+03  0.11339813762E+03  0.00000000000E+00 0. -1.
         21   -1    0    0  501  502 -0.00000000000E+00 -0.00000000000E+00 -0.46368984148E+03  0.46368984148E+03  0.00000000000E+00 0. -1.
      99926    2    1    2    0    0 -0.35527136788E-14  0.00000000000E+00 -0.35029170387E+03  0.57708797910E+03  0.45861340781E+03 0.  0.
      99925    2    3    3    0    0 -0.26608646516E+02 -0.84028522969E+02 -0.12389214899E+03  0.30382422503E+03  0.26304197838E+03 0.  0.
         25    1    4    4    0    0  0.13746995425E+02 -0.14470427962E+02 -0.75369703687E+02  0.14739902816E+03  0.12509000000E+03 0.  0.
         25    1    3    3    0    0  0.26608646516E+02  0.84028522969E+02 -0.22639955487E+03  0.27326375407E+03  0.12509000000E+03 0.  0.
         25    1    4    4    0    0 -0.40355641940E+02 -0.69558095007E+02 -0.48522445307E+02  0.15642519687E+03  0.12509000000E+03 0.  0.
<mgrwt>
<rscale>  2 0.45861341E+03</rscale>
<asrwt>0</asrwt>
<pdfrwt beam="1">  1       21 0.16676197E-01 0.45861341E+03</pdfrwt>
<pdfrwt beam="2">  1       21 0.68189681E-01 0.45861341E+03</pdfrwt>
<totfact> 0.58424100E+04</totfact>
</mgrwt>
</event>
<event>
 7    0  0.4788920E-002  0.4540986E+03  0.7546771E-02  0.1026507E+00
         21   -1    0    0  502  501  0.00000000000E+00  0.00000000000E+00  0.21808383829E+04  0.21808383829E+04  0.00000000000E+00 0. -1.
         21   -1    0    0  501  502 -0.00000000000E+00 -0.00000000000E+00 -0.23638337599E+02  0.23638337599E+02  0.00000000000E+00 0. -1.
      99926    2    1    2    0    0  0.00000000000E+00  0.00000000000E+00  0.21572000454E+04  0.22044767205E+04  0.45409864102E+03 0.  0.
      99925    2    3    3    0    0 -0.59514999399E+02 -0.60418487489E+02  0.10019994275E+04  0.10394323418E+04  0.26310513443E+03 0.  0.
         25    1    4    4    0    0 -0.51203853129E+02 -0.99212298022E+01  0.60715157978E+03  0.62209389509E+03  0.12509000000E+03 0.  0.
         25    1    3    3    0    0  0.59514999399E+02  0.60418487489E+02  0.11552006178E+04  0.11650443787E+04  0.12509000000E+03 0.  0.
         25    1    4    4    0    0 -0.83111462701E+01 -0.50497257687E+02  0.39484784773E+03  0.41733844676E+03  0.12509000000E+03 0.  0.
<mgrwt>
<rscale>  2 0.45409864E+03</rscale>
<asrwt>0</asrwt>
<pdfrwt beam="1">  1       21 0.32071139E+00 0.45409864E+03</pdfrwt>
<pdfrwt beam="2">  1       21 0.34762276E-02 0.45409864E+03</pdfrwt>
<totfact> 0.10724562E+04</totfact>
</mgrwt>
</event>
<event>
 7    0  0.4788920E-002  0.4543826E+03  0.7546771E-02  0.1026423E+00
         21   -1    0    0  502  501  0.00000000000E+00  0.00000000000E+00  0.15823715986E+03  0.15823715986E+03  0.00000000000E+00 0. -1.
         21   -1    0    0  501  502 -0.00000000000E+00 -0.00000000000E+00 -0.32619319094E+03  0.32619319094E+03  0.00000000000E+00 0. -1.
      99926    2    1    2    0    0  0.00000000000E+00  0.13322676296E-14 -0.16795603108E+03  0.48443035080E+03  0.45438258814E+03 0.  0.
      99925    2    3    3    0    0 -0.95609628176E+02 -0.75800518682E+00 -0.16903844533E+03  0.32698050072E+03  0.26305983403E+03 0.  0.
         25    1    4    4    0    0 -0.56761464137E+02 -0.18248670050E+02 -0.44883763021E+02  0.14566035168E+03  0.12509000000E+03 0.  0.
         25    1    4    4    0    0 -0.38848164039E+02  0.17490664863E+02 -0.12415468231E+03  0.18132014903E+03  0.12509000000E+03 0.  0.
         25    1    3    3    0    0  0.95609628176E+02  0.75800518682E+00  0.10824142514E+01  0.15744985009E+03  0.12509000000E+03 0.  0.
<mgrwt>
<rscale>  2 0.45438259E+03</rscale>
<asrwt>0</asrwt>
<pdfrwt beam="1">  1       21 0.23270171E-01 0.45438259E+03</pdfrwt>
<pdfrwt beam="2">  1       21 0.47969586E-01 0.45438259E+03</pdfrwt>
<totfact> 0.66705333E+04</totfact>
</mgrwt>
</event>
<event>
 7    0  0.4788920E-002  0.4584316E+03  0.7546771E-02  0.1025237E+00
         21   -1    0    0  502  501  0.00000000000E+00  0.00000000000E+00  0.10038804251E+03  0.10038804251E+03  0.00000000000E+00 0. -1.
         21   -1    0    0  501  502 -0.00000000000E+00 -0.00000000000E+00 -0.52336791994E+03  0.52336791994E+03  0.00000000000E+00 0. -1.
      99926    2    1    2    0    0  0.00000000000E+00 -0.14210854715E-13 -0.42297987743E+03  0.62375596246E+03  0.45843159139E+03 0.  0.
      99925    2    3    3    0    0  0.50109093869E+02  0.10472081270E+03 -0.27606869041E+03  0.39857209342E+03  0.26299890100E+03 0.  0.
         25    1    4    4    0    0  0.29998269791E+02  0.14877412987E+02 -0.98765500603E+02  0.16285995768E+03  0.12509000000E+03 0.  0.
         25    1    4    4    0    0  0.20110824078E+02  0.89843399717E+02 -0.17730318981E+03  0.23571213574E+03  0.12509000000E+03 0.  0.
         25    1    3    3    0    0 -0.50109093869E+02 -0.10472081270E+03 -0.14691118702E+03  0.22518386903E+03  0.12509000000E+03 0.  0.
<mgrwt>
<rscale>  2 0.45843159E+03</rscale>
<asrwt>0</asrwt>
<pdfrwt beam="1">  1       21 0.14762948E-01 0.45843159E+03</pdfrwt>
<pdfrwt beam="2">  1       21 0.76965870E-01 0.45843159E+03</pdfrwt>
<totfact> 0.55714341E+04</totfact>
</mgrwt>
</event>
<event>
 7    0  0.4788920E-002  0.4748075E+03  0.7546771E-02  0.1020572E+00
         21   -1    0    0  502  501  0.00000000000E+00  0.00000000000E+00  0.10768862331E+03  0.10768862331E+03  0.00000000000E+00 0.  1.
         21   -1    0    0  501  502 -0.00000000000E+00 -0.00000000000E+00 -0.52336568192E+03  0.52336568192E+03  0.00000000000E+00 0.  1.
      99926    2    1    2    0    0  0.14210854715E-13 -0.71054273576E-14 -0.41567705861E+03  0.63105430523E+03  0.47480745476E+03 0.  0.
      99925    2    3    3    0    0  0.98420966631E+02 -0.62268102155E+02 -0.17761945274E+03  0.33799640134E+03  0.26292374200E+03 0.  0.
         25    1    3    3    0    0 -0.98420966631E+02  0.62268102155E+02 -0.23805760587E+03  0.29305790389E+03  0.12509000000E+03 0.  0.
         25    1    4    4    0    0  0.85293731153E+02 -0.42736358855E+02 -0.73930671065E+02  0.17382367263E+03  0.12509000000E+03 0.  0.
         25    1    4    4    0    0  0.13127235478E+02 -0.19531743301E+02 -0.10368878167E+03  0.16417272871E+03  0.12509000000E+03 0.  0.
<mgrwt>
<rscale>  2 0.47480745E+03</rscale>
<asrwt>0</asrwt>
<pdfrwt beam="1">  1       21 0.15836563E-01 0.47480745E+03</pdfrwt>
<pdfrwt beam="2">  1       21 0.76965539E-01 0.47480745E+03</pdfrwt>
<totfact> 0.48727532E+04</totfact>
</mgrwt>
</event>
<event>
 7    0  0.4788920E-002  0.4512942E+03  0.7546771E-02  0.1027337E+00
         21   -1    0    0  502  501  0.00000000000E+00  0.00000000000E+00  0.15034172917E+04  0.15034172917E+04  0.00000000000E+00 0.  1.
         21   -1    0    0  501  502 -0.00000000000E+00 -0.00000000000E+00 -0.33867247713E+02  0.33867247713E+02  0.00000000000E+00 0.  1.
      99926    2    1    2    0    0  0.88817841970E-15  0.71054273576E-14  0.14695500440E+04  0.15372845394E+04  0.45129416497E+03 0.  0.
      99925    2    3    3    0    0  0.34359301005E+01  0.63709196867E+02  0.62479942357E+03  0.68094244295E+03  0.26313043065E+03 0.  0.
         25    1    3    3    0    0 -0.34359301005E+01 -0.63709196867E+02  0.84475062040E+03  0.85634209645E+03  0.12509000000E+03 0.  0.
         25    1    4    4    0    0 -0.18832796891E+02  0.64271798584E+02  0.29019846816E+03  0.32302971590E+03  0.12509000000E+03 0.  0.
         25    1    4    4    0    0  0.22268726991E+02 -0.56260171705E+00  0.33460095541E+03  0.35791272705E+03  0.12509000000E+03 0.  0.
<mgrwt>
<rscale>  2 0.45129416E+03</rscale>
<asrwt>0</asrwt>
<pdfrwt beam="1">  1       21 0.22109073E+00 0.45129416E+03</pdfrwt>
<pdfrwt beam="2">  1       21 0.49804786E-02 0.45129416E+03</pdfrwt>
<totfact> 0.23550543E+04</totfact>
</mgrwt>
</event>
<event>
 7    0  0.4788920E-002  0.4555480E+03  0.7546771E-02  0.1026080E+00
         21   -1    0    0  502  501  0.00000000000E+00  0.00000000000E+00  0.83556665758E+02  0.83556665758E+02  0.00000000000E+00 0.  1.
         21   -1    0    0  501  502 -0.00000000000E+00 -0.00000000000E+00 -0.62090798210E+03  0.62090798210E+03  0.00000000000E+00 0.  1.
      99926    2    1    2    0    0  0.00000000000E+00 -0.44408920985E-15 -0.53735131634E+03  0.70446464785E+03  0.45554802481E+03 0.  0.
      99925    2    3    3    0    0 -0.10659362525E+03 -0.34450129560E+01 -0.27740311455E+03  0.39690222366E+03  0.26306808649E+03 0.  0.
         25    1    4    4    0    0 -0.44201156993E+02  0.34610459625E+02 -0.11213933026E+03  0.17712809965E+03  0.12509000000E+03 0.  0.
         25    1    4    4    0    0 -0.62392468257E+02 -0.38055472581E+02 -0.16526378429E+03  0.21977412401E+03  0.12509000000E+03 0.  0.
         25    1    3    3    0    0  0.10659362525E+03  0.34450129560E+01 -0.25994820179E+03  0.30756242419E+03  0.12509000000E+03 0.  0.
<mgrwt>
<rscale>  2 0.45554802E+03</rscale>
<asrwt>0</asrwt>
<pdfrwt beam="1">  1       21 0.12287745E-01 0.45554802E+03</pdfrwt>
<pdfrwt beam="2">  1       21 0.91309998E-01 0.45554802E+03</pdfrwt>
<totfact> 0.52434741E+04</totfact>
</mgrwt>
</event>
<event>
 7    0  0.4788920E-002  0.4492235E+03  0.7546771E-02  0.1027954E+00
         21   -1    0    0  502  501  0.00000000000E+00  0.00000000000E+00  0.27436631482E+03  0.27436631482E+03  0.00000000000E+00 0. -1.
         21   -1    0    0  501  502 -0.00000000000E+00 -0.00000000000E+00 -0.18387989081E+03  0.18387989081E+03  0.00000000000E+00 0. -1.
      99926    2    1    2    0    0  0.22204460493E-15  0.00000000000E+00  0.90486424010E+02  0.45824620562E+03  0.44922354350E+03 0.  0.
      99925    2    3    3    0    0  0.44113056136E+00 -0.37635529273E+02 -0.45625346193E+02  0.26959162776E+03  0.26302347022E+03 0.  0.
         25    1    4    4    0    0 -0.82246664866E+01 -0.15243524961E+02  0.17402952429E+02  0.12747698241E+03  0.12509000000E+03 0.  0.
         25    1    4    4    0    0  0.86657970480E+01 -0.22392004312E+02 -0.63028298622E+02  0.14211464535E+03  0.12509000000E+03 0.  0.
         25    1    3    3    0    0 -0.44113056136E+00  0.37635529273E+02  0.13611177020E+03  0.18865457786E+03  0.12509000000E+03 0.  0.
<mgrwt>
<rscale>  2 0.44922354E+03</rscale>
<asrwt>0</asrwt>
<pdfrwt beam="1">  1       21 0.40347987E-01 0.44922354E+03</pdfrwt>
<pdfrwt beam="2">  1       21 0.27041160E-01 0.44922354E+03</pdfrwt>
<totfact> 0.71543052E+04</totfact>
</mgrwt>
</event>
<event>
 7    0  0.4788920E-002  0.4485321E+03  0.7546771E-02  0.1028161E+00
         21   -1    0    0  502  501  0.00000000000E+00  0.00000000000E+00  0.79549654046E+03  0.79549654046E+03  0.00000000000E+00 0. -1.
         21   -1    0    0  501  502 -0.00000000000E+00 -0.00000000000E+00 -0.63224978468E+02  0.63224978468E+02  0.00000000000E+00 0. -1.
      99926    2    1    2    0    0  0.00000000000E+00  0.00000000000E+00  0.73227156199E+03  0.85872151893E+03  0.44853205746E+03 0.  0.
      99925    2    3    3    0    0 -0.43265607934E+02  0.58720005761E+02  0.61137342083E+03  0.67008477664E+03  0.26441670952E+03 0.  0.
         25    1    4    4    0    0 -0.26681281858E+02  0.13758101063E+02  0.20324662486E+03  0.24053663913E+03  0.12509000000E+03 0.  0.
         25    1    3    3    0    0  0.43265607934E+02 -0.58720005761E+02  0.12089814116E+03  0.18863674229E+03  0.12509000000E+03 0.  0.
         25    1    4    4    0    0 -0.16584326076E+02  0.44961904697E+02  0.40812679597E+03  0.42954813751E+03  0.12509000000E+03 0.  0.
<mgrwt>
<rscale>  2 0.44853206E+03</rscale>
<asrwt>0</asrwt>
<pdfrwt beam="1">  1       21 0.11698478E+00 0.44853206E+03</pdfrwt>
<pdfrwt beam="2">  1       21 0.92977914E-02 0.44853206E+03</pdfrwt>
<totfact> 0.47411574E+04</totfact>
</mgrwt>
</event>
<event>
 7    0  0.4788920E-002  0.4353594E+03  0.7546771E-02  0.1032180E+00
         21   -1    0    0  502  501  0.00000000000E+00  0.00000000000E+00  0.76415735413E+02  0.76415735413E+02  0.00000000000E+00 0. -1.
         21   -1    0    0  501  502 -0.00000000000E+00 -0.00000000000E+00 -0.62008774034E+03  0.62008774034E+03  0.00000000000E+00 0. -1.
      99926    2    1    2    0    0  0.00000000000E+00  0.00000000000E+00 -0.54367200493E+03  0.69650347575E+03  0.43535944091E+03 0.  0.
      99925    2    3    3    0    0  0.76049240298E+02 -0.45512597110E+02 -0.39645755810E+03  0.48396057444E+03  0.26302919759E+03 0.  0.
         25    1    4    4    0    0  0.72192630933E+02 -0.25729439001E+02 -0.17069431231E+03  0.22507295783E+03  0.12509000000E+03 0.  0.
         25    1    4    4    0    0  0.38566093654E+01 -0.19783158109E+02 -0.22576324580E+03  0.25888761661E+03  0.12509000000E+03 0.  0.
         25    1    3    3    0    0 -0.76049240298E+02  0.45512597110E+02 -0.14721444682E+03  0.21254290131E+03  0.12509000000E+03 0.  0.
<mgrwt>
<rscale>  2 0.43535944E+03</rscale>
<asrwt>0</asrwt>
<pdfrwt beam="1">  1       21 0.11237608E-01 0.43535944E+03</pdfrwt>
<pdfrwt beam="2">  1       21 0.91189375E-01 0.43535944E+03</pdfrwt>
<totfact> 0.62158619E+04</totfact>
</mgrwt>
</event>
<event>
 7    0  0.4788920E-002  0.4405003E+03  0.7546771E-02  0.1030593E+00
         21   -1    0    0  502  501  0.00000000000E+00  0.00000000000E+00  0.52569005140E+02  0.52569005140E+02  0.00000000000E+00 0. -1.
         21   -1    0    0  501  502 -0.00000000000E+00 -0.00000000000E+00 -0.92278967899E+03  0.92278967899E+03  0.00000000000E+00 0. -1.
      99926    2    1    2    0    0  0.00000000000E+00  0.00000000000E+00 -0.87022067385E+03  0.97535868413E+03  0.44050033089E+03 0.  0.
      99925    2    3    3    0    0 -0.45011624787E+02  0.49560817156E+01 -0.75001011111E+03  0.79605810799E+03  0.26295006257E+03 0.  0.
         25    1    3    3    0    0  0.45011624787E+02 -0.49560817156E+01 -0.12021056273E+03  0.17930057614E+03  0.12509000000E+03 0.  0.
         25    1    4    4    0    0  0.15414887936E+02  0.31668642864E+01 -0.31079305048E+03  0.33539152662E+03  0.12509000000E+03 0.  0.
         25    1    4    4    0    0 -0.60426512723E+02  0.17892174292E+01 -0.43921706063E+03  0.46066658137E+03  0.12509000000E+03 0.  0.
<mgrwt>
<rscale>  2 0.44050033E+03</rscale>
<asrwt>0</asrwt>
<pdfrwt beam="1">  1       21 0.77307362E-02 0.44050033E+03</pdfrwt>
<pdfrwt beam="2">  1       21 0.13570436E+00 0.44050033E+03</pdfrwt>
<totfact> 0.45021125E+04</totfact>
</mgrwt>
</event>
<event>
 7    0  0.4788920E-002  0.4544998E+03  0.7546771E-02  0.1026389E+00
         21   -1    0    0  502  501  0.00000000000E+00  0.00000000000E+00  0.15852464305E+03  0.15852464305E+03  0.00000000000E+00 0.  1.
         21   -1    0    0  501  502 -0.00000000000E+00 -0.00000000000E+00 -0.32576963885E+03  0.32576963885E+03  0.00000000000E+00 0.  1.
      99926    2    1    2    0    0 -0.14210854715E-13  0.26645352591E-14 -0.16724499580E+03  0.48429428190E+03  0.45449979413E+03 0.  0.
      99925    2    3    3    0    0  0.92863820925E+02  0.27532534712E+01 -0.37331862611E+02  0.28142437306E+03  0.26301091259E+03 0.  0.
         25    1    4    4    0    0  0.19599752093E+02  0.28748572341E+02 -0.33523627254E+02  0.13409687684E+03  0.12509000000E+03 0.  0.
         25    1    4    4    0    0  0.73264068832E+02 -0.25995318869E+02 -0.38082353568E+01  0.14732749622E+03  0.12509000000E+03 0.  0.
         25    1    3    3    0    0 -0.92863820925E+02 -0.27532534712E+01 -0.12991313319E+03  0.20286990885E+03  0.12509000000E+03 0.  0.
<mgrwt>
<rscale>  2 0.45449979E+03</rscale>
<asrwt>0</asrwt>
<pdfrwt beam="1">  1       21 0.23312448E-01 0.45449979E+03</pdfrwt>
<pdfrwt beam="2">  1       21 0.47907299E-01 0.45449979E+03</pdfrwt>
<totfact> 0.66653088E+04</totfact>
</mgrwt>
</event>
<event>
 7    0  0.4788920E-002  0.4528577E+03  0.7546771E-02  0.1026873E+00
         21   -1    0    0  502  501  0.00000000000E+00  0.00000000000E+00  0.28590161989E+03  0.28590161989E+03  0.00000000000E+00 0.  1.
         21   -1    0    0  501  502 -0.00000000000E+00 -0.00000000000E+00 -0.17932747931E+03  0.17932747931E+03  0.00000000000E+00 0.  1.
      99926    2    1    2    0    0  0.14210854715E-13 -0.44408920985E-15  0.10657414058E+03  0.46522909920E+03  0.45285766782E+03 0.  0.
      99925    2    3    3    0    0  0.10357431620E+03 -0.17432404826E+01  0.10858975395E+03  0.30280296627E+03  0.26299662328E+03 0.  0.
         25    1    3    3    0    0 -0.10357431620E+03  0.17432404826E+01 -0.20156133643E+01  0.16242613294E+03  0.12509000000E+03 0.  0.
         25    1    4    4    0    0  0.78114533124E+02  0.23023526579E+02  0.81179233184E+02  0.16991038538E+03  0.12509000000E+03 0.  0.
         25    1    4    4    0    0  0.25459783073E+02 -0.24766767061E+02  0.27410520764E+02  0.13289258088E+03  0.12509000000E+03 0.  0.
<mgrwt>
<rscale>  2 0.45285767E+03</rscale>
<asrwt>0</asrwt>
<pdfrwt beam="1">  1       21 0.42044356E-01 0.45285767E+03</pdfrwt>
<pdfrwt beam="2">  1       21 0.26371688E-01 0.45285767E+03</pdfrwt>
<totfact> 0.68956808E+04</totfact>
</mgrwt>
</event>
<event>
 7    0  0.4788920E-002  0.4494515E+03  0.7546771E-02  0.1027886E+00
         21   -1    0    0  502  501  0.00000000000E+00  0.00000000000E+00  0.16350277082E+04  0.16350277082E+04  0.00000000000E+00 0. -1.
         21   -1    0    0  501  502 -0.00000000000E+00 -0.00000000000E+00 -0.30887338053E+02  0.30887338053E+02  0.00000000000E+00 0. -1.
      99926    2    1    2    0    0  0.00000000000E+00  0.00000000000E+00  0.16041403702E+04  0.16659150463E+04  0.44945145923E+03 0.  0.
      99925    2    3    3    0    0  0.50354139245E+02  0.75759573402E+02  0.80836490734E+03  0.85524794589E+03  0.26404577867E+03 0.  0.
         25    1    4    4    0    0  0.59725761797E+02  0.13616566524E+02  0.40136641003E+03  0.42484712627E+03  0.12509000000E+03 0.  0.
         25    1    3    3    0    0 -0.50354139245E+02 -0.75759573402E+02  0.79577546284E+03  0.81066710039E+03  0.12509000000E+03 0.  0.
         25    1    4    4    0    0 -0.93716225522E+01  0.62143006879E+02  0.40699849731E+03  0.43040081962E+03  0.12509000000E+03 0.  0.
<mgrwt>
<rscale>  2 0.44945146E+03</rscale>
<asrwt>0</asrwt>
<pdfrwt beam="1">  1       21 0.24044519E+00 0.44945146E+03</pdfrwt>
<pdfrwt beam="2">  1       21 0.45422567E-02 0.44945146E+03</pdfrwt>
<totfact> 0.20864976E+04</totfact>
</mgrwt>
</event>
<event>
 7    0  0.4788920E-002  0.4548809E+03  0.7546771E-02  0.1026276E+00
         21   -1    0    0  502  501  0.00000000000E+00  0.00000000000E+00  0.46271035884E+02  0.46271035884E+02  0.00000000000E+00 0. -1.
         21   -1    0    0  501  502 -0.00000000000E+00 -0.00000000000E+00 -0.11179599120E+04  0.11179599120E+04  0.00000000000E+00 0. -1.
      99926    2    1    2    0    0 -0.14210854715E-13 -0.35527136788E-14 -0.10716888761E+04  0.11642309479E+04  0.45488092158E+03 0.  0.
      99925    2    3    3    0    0 -0.10351531901E+03 -0.24852164468E+02 -0.57733047114E+03  0.64329833034E+03  0.26303843362E+03 0.  0.
         25    1    3    3    0    0  0.10351531901E+03  0.24852164468E+02 -0.49435840495E+03  0.52093261752E+03  0.12509000000E+03 0.  0.
         25    1    4    4    0    0 -0.48850639385E+02  0.62135773206E+01 -0.20141149636E+03  0.24215510005E+03  0.12509000000E+03 0.  0.
         25    1    4    4    0    0 -0.54664679629E+02 -0.31065741789E+02 -0.37591897478E+03  0.40114323029E+03  0.12509000000E+03 0.  0.
<mgrwt>
<rscale>  2 0.45488092E+03</rscale>
<asrwt>0</asrwt>
<pdfrwt beam="1">  1       21 0.68045634E-02 0.45488092E+03</pdfrwt>
<pdfrwt beam="2">  1       21 0.16440589E+00 0.45488092E+03</pdfrwt>
<totfact> 0.33341687E+04</totfact>
</mgrwt>
</event>
<event>
 7    0  0.4788920E-002  0.4486350E+03  0.7546771E-02  0.1028130E+00
         21   -1    0    0  502  501  0.00000000000E+00  0.00000000000E+00  0.59597309455E+03  0.59597309455E+03  0.00000000000E+00 0. -1.
         21   -1    0    0  501  502 -0.00000000000E+00 -0.00000000000E+00 -0.84430547841E+02  0.84430547841E+02  0.00000000000E+00 0. -1.
      99926    2    1    2    0    0  0.00000000000E+00  0.00000000000E+00  0.51154254671E+03  0.68040364239E+03  0.44863497354E+03 0.  0.
      99925    2    3    3    0    0  0.41556875010E+02  0.57884421884E+02  0.20233320091E+03  0.33932372832E+03  0.26291498293E+03 0.  0.
         25    1    3    3    0    0 -0.41556875010E+02 -0.57884421884E+02  0.30920934580E+03  0.34107991407E+03  0.12509000000E+03 0.  0.
         25    1    4    4    0    0  0.46243644432E+02  0.33549712483E+02  0.14392473193E+03  0.19906253897E+03  0.12509000000E+03 0.  0.
         25    1    4    4    0    0 -0.46867694215E+01  0.24334709402E+02  0.58408468979E+02  0.14026118935E+03  0.12509000000E+03 0.  0.
<mgrwt>
<rscale>  2 0.44863497E+03</rscale>
<asrwt>0</asrwt>
<pdfrwt beam="1">  1       21 0.87643100E-01 0.44863497E+03</pdfrwt>
<pdfrwt beam="2">  1       21 0.12416257E-01 0.44863497E+03</pdfrwt>
<totfact> 0.56772543E+04</totfact>
</mgrwt>
</event>
<event>
 7    0  0.4788920E-002  0.4774289E+03  0.7546771E-02  0.1019844E+00
         21   -1    0    0  502  501  0.00000000000E+00  0.00000000000E+00  0.40366826887E+03  0.40366826887E+03  0.00000000000E+00 0. -1.
         21   -1    0    0  501  502 -0.00000000000E+00 -0.00000000000E+00 -0.14116685889E+03  0.14116685889E+03  0.00000000000E+00 0. -1.
      99926    2    1    2    0    0 -0.14210854715E-13  0.00000000000E+00  0.26250140998E+03  0.54483512776E+03  0.47742887031E+03 0.  0.
      99925    2    3    3    0    0 -0.70036724211E+02  0.22054540697E+02  0.35395517711E+02  0.27536130731E+03  0.26301988782E+03 0.  0.
         25    1    3    3    0    0  0.70036724211E+02 -0.22054540697E+02  0.22710589227E+03  0.26947382045E+03  0.12509000000E+03 0.  0.
         25    1    4    4    0    0 -0.17203288352E+01  0.18188847924E+02 -0.69974667862E+01  0.12661068818E+03  0.12509000000E+03 0.  0.
         25    1    4    4    0    0 -0.68316395376E+02  0.38656927731E+01  0.42392984497E+02  0.14875061913E+03  0.12509000000E+03 0.  0.
<mgrwt>
<rscale>  2 0.47742887E+03</rscale>
<asrwt>0</asrwt>
<pdfrwt beam="1">  1       21 0.59362980E-01 0.47742887E+03</pdfrwt>
<pdfrwt beam="2">  1       21 0.20759832E-01 0.47742887E+03</pdfrwt>
<totfact> 0.52282535E+04</totfact>
</mgrwt>
</event>
<event>
 7    0  0.4788920E-002  0.4574071E+03  0.7546771E-02  0.1025536E+00
         21   -1    0    0  502  501  0.00000000000E+00  0.00000000000E+00  0.14541200262E+03  0.14541200262E+03  0.00000000000E+00 0.  1.
         21   -1    0    0  501  502 -0.00000000000E+00 -0.00000000000E+00 -0.35970421236E+03  0.35970421236E+03  0.00000000000E+00 0.  1.
      99926    2    1    2    0    0  0.00000000000E+00  0.00000000000E+00 -0.21429220974E+03  0.50511621498E+03  0.45740708289E+03 0.  0.
      99925    2    3    3    0    0  0.58669542917E+02  0.98907404676E+02 -0.12261596218E+03  0.31204412370E+03  0.26289174766E+03 0.  0.
         25    1    3    3    0    0 -0.58669542917E+02 -0.98907404676E+02 -0.91676247556E+02  0.19307209128E+03  0.12509000000E+03 0.  0.
         25    1    4    4    0    0  0.11790844114E+02  0.91361437464E+01 -0.51980446728E+02  0.13627900818E+03  0.12509000000E+03 0.  0.
         25    1    4    4    0    0  0.46878698803E+02  0.89771260930E+02 -0.70635515457E+02  0.17576511552E+03  0.12509000000E+03 0.  0.
<mgrwt>
<rscale>  2 0.45740708E+03</rscale>
<asrwt>0</asrwt>
<pdfrwt beam="1">  1       21 0.21384118E-01 0.45740708E+03</pdfrwt>
<pdfrwt beam="2">  1       21 0.52897679E-01 0.45740708E+03</pdfrwt>
<totfact> 0.63687159E+04</totfact>
</mgrwt>
</event>
<event>
 7    0  0.4788920E-002  0.4494227E+03  0.7546771E-02  0.1027894E+00
         21   -1    0    0  502  501  0.00000000000E+00  0.00000000000E+00  0.39404920113E+02  0.39404920113E+02  0.00000000000E+00 0.  1.
         21   -1    0    0  501  502 -0.00000000000E+00 -0.00000000000E+00 -0.12814438030E+04  0.12814438030E+04  0.00000000000E+00 0.  1.
      99926    2    1    2    0    0  0.88817841970E-15  0.00000000000E+00 -0.12420388828E+04  0.13208487231E+04  0.44942269940E+03 0.  0.
      99925    2    3    3    0    0  0.36090824932E+01 -0.79273444906E+02 -0.57134203387E+03  0.63398696414E+03  0.26307878383E+03 0.  0.
         25    1    3    3    0    0 -0.36090824932E+01  0.79273444906E+02 -0.67069684898E+03  0.68686175892E+03  0.12509000000E+03 0.  0.
         25    1    4    4    0    0  0.22532395607E+02 -0.32220977593E+01 -0.25969425074E+03  0.28914823660E+03  0.12509000000E+03 0.  0.
         25    1    4    4    0    0 -0.18923313114E+02 -0.76051347147E+02 -0.31164778313E+03  0.34483872754E+03  0.12509000000E+03 0.  0.
<mgrwt>
<rscale>  2 0.44942270E+03</rscale>
<asrwt>0</asrwt>
<pdfrwt beam="1">  1       21 0.57948412E-02 0.44942270E+03</pdfrwt>
<pdfrwt beam="2">  1       21 0.18844762E+00 0.44942270E+03</pdfrwt>
<totfact> 0.29786181E+04</totfact>
</mgrwt>
</event>
<event>
 7    0  0.4788920E-002  0.4552054E+03  0.7546771E-02  0.1026181E+00
         21   -1    0    0  502  501  0.00000000000E+00  0.00000000000E+00  0.28046453325E+03  0.28046453325E+03  0.00000000000E+00 0. -1.
         21   -1    0    0  501  502 -0.00000000000E+00 -0.00000000000E+00 -0.18470427735E+03  0.18470427735E+03  0.00000000000E+00 0. -1.
      99926    2    1    2    0    0  0.00000000000E+00  0.71054273576E-14  0.95760255893E+02  0.46516881060E+03  0.45520544345E+03 0.  0.
      99925    2    3    3    0    0  0.67450931501E+02 -0.43502563244E+02 -0.21504788583E+02  0.27585240897E+03  0.26303991035E+03 0.  0.
         25    1    3    3    0    0 -0.67450931501E+02  0.43502563244E+02  0.11726504448E+03  0.18931640163E+03  0.12509000000E+03 0.  0.
         25    1    4    4    0    0  0.63954066088E+02 -0.48763586917E+02 -0.23666957649E+02  0.15058433837E+03  0.12509000000E+03 0.  0.
         25    1    4    4    0    0  0.34968654133E+01  0.52610236727E+01  0.21621690657E+01  0.12526807060E+03  0.12509000000E+03 0.  0.
<mgrwt>
<rscale>  2 0.45520544E+03</rscale>
<asrwt>0</asrwt>
<pdfrwt beam="1">  1       21 0.41244784E-01 0.45520544E+03</pdfrwt>
<pdfrwt beam="2">  1       21 0.27162394E-01 0.45520544E+03</pdfrwt>
<totfact> 0.67687071E+04</totfact>
</mgrwt>
</event>
<event>
 7    0  0.4788920E-002  0.4462385E+03  0.7546771E-02  0.1028850E+00
         21   -1    0    0  502  501  0.00000000000E+00  0.00000000000E+00  0.19601747679E+04  0.19601747679E+04  0.00000000000E+00 0.  1.
         21   -1    0    0  501  502 -0.00000000000E+00 -0.00000000000E+00 -0.25396813544E+02  0.25396813544E+02  0.00000000000E+00 0.  1.
      99926    2    1    2    0    0  0.00000000000E+00  0.22204460493E-15  0.19347779544E+04  0.19855715815E+04  0.44623847030E+03 0.  0.
      99925    2    3    3    0    0 -0.73237533258E+02  0.16822577111E+01  0.15605979969E+04  0.15842927321E+04  0.26296537183E+03 0.  0.
         25    1    4    4    0    0 -0.53575241015E+02 -0.28063686173E+02  0.93969004078E+03  0.94990671004E+03  0.12509000000E+03 0.  0.
         25    1    4    4    0    0 -0.19662292244E+02  0.29745943884E+02  0.62090795616E+03  0.63438602210E+03  0.12509000000E+03 0.  0.
         25    1    3    3    0    0  0.73237533258E+02 -0.16822577111E+01  0.37417995742E+03  0.40127884931E+03  0.12509000000E+03 0.  0.
<mgrwt>
<rscale>  2 0.44623847E+03</rscale>
<asrwt>0</asrwt>
<pdfrwt beam="1">  1       21 0.28826089E+00 0.44623847E+03</pdfrwt>
<pdfrwt beam="2">  1       21 0.37348268E-02 0.44623847E+03</pdfrwt>
<totfact> 0.14937044E+04</totfact>
</mgrwt>
</event>
<event>
 7    0  0.4788920E-002  0.4780679E+03  0.7546771E-02  0.1019668E+00
         21   -1    0    0  502  501  0.00000000000E+00  0.00000000000E+00  0.23198110518E+03  0.23198110518E+03  0.00000000000E+00 0. -1.
         21   -1    0    0  501  502 -0.00000000000E+00 -0.00000000000E+00 -0.24630119177E+03  0.24630119177E+03  0.00000000000E+00 0. -1.
      99926    2    1    2    0    0  0.00000000000E+00 -0.71054273576E-14 -0.14320086597E+02  0.47828229695E+03  0.47806787248E+03 0.  0.
      99925    2    3    3    0    0  0.37046651920E+02 -0.34369145918E+02 -0.13256674071E+03  0.29888477211E+03  0.26306743175E+03 0.  0.
         25    1    3    3    0    0 -0.37046651920E+02  0.34369145918E+02  0.11824665411E+03  0.17939752484E+03  0.12509000000E+03 0.  0.
         25    1    4    4    0    0  0.12059216200E+02  0.10535669108E+02 -0.31299376122E+02  0.12993684645E+03  0.12509000000E+03 0.  0.
         25    1    4    4    0    0  0.24987435720E+02 -0.44904815026E+02 -0.10126736459E+03  0.16894792566E+03  0.12509000000E+03 0.  0.
<mgrwt>
<rscale>  2 0.47806787E+03</rscale>
<asrwt>0</asrwt>
<pdfrwt beam="1">  1       21 0.34114868E-01 0.47806787E+03</pdfrwt>
<pdfrwt beam="2">  1       21 0.36220763E-01 0.47806787E+03</pdfrwt>
<totfact> 0.55861129E+04</totfact>
</mgrwt>
</event>
<event>
 7    0  0.4788920E-002  0.4540935E+03  0.7546771E-02  0.1026508E+00
         21   -1    0    0  502  501  0.00000000000E+00  0.00000000000E+00  0.95429370417E+03  0.95429370417E+03  0.00000000000E+00 0. -1.
         21   -1    0    0  501  502 -0.00000000000E+00 -0.00000000000E+00 -0.54019236990E+02  0.54019236990E+02  0.00000000000E+00 0. -1.
      99926    2    1    2    0    0  0.00000000000E+00  0.00000000000E+00  0.90027446718E+03  0.10083129412E+04  0.45409346070E+03 0.  0.
      99925    2    3    3    0    0  0.81682930570E+02 -0.76125579404E+02  0.54066846014E+03  0.61153694216E+03  0.26303582046E+03 0.  0.
         25    1    4    4    0    0  0.56117047238E+02 -0.47431068805E+02  0.36268727907E+03  0.39062565172E+03  0.12509000000E+03 0.  0.
         25    1    3    3    0    0 -0.81682930570E+02  0.76125579404E+02  0.35960600704E+03  0.39677599900E+03  0.12509000000E+03 0.  0.
         25    1    4    4    0    0  0.25565883332E+02 -0.28694510599E+02  0.17798118107E+03  0.22091129044E+03  0.12509000000E+03 0.  0.
<mgrwt>
<rscale>  2 0.45409346E+03</rscale>
<asrwt>0</asrwt>
<pdfrwt beam="1">  1       21 0.14033730E+00 0.45409346E+03</pdfrwt>
<pdfrwt beam="2">  1       21 0.79440060E-02 0.45409346E+03</pdfrwt>
<totfact> 0.39121211E+04</totfact>
</mgrwt>
</event>
<event>
 7    0  0.4788920E-002  0.4338204E+03  0.7546771E-02  0.1032660E+00
         21   -1    0    0  502  501  0.00000000000E+00  0.00000000000E+00  0.16699439349E+03  0.16699439349E+03  0.00000000000E+00 0. -1.
         21   -1    0    0  501  502 -0.00000000000E+00 -0.00000000000E+00 -0.28174625447E+03  0.28174625447E+03  0.00000000000E+00 0. -1.
      99926    2    1    2    0    0  0.00000000000E+00  0.00000000000E+00 -0.11475186097E+03  0.44874064796E+03  0.43382044619E+03 0.  0.
      99925    2    3    3    0    0  0.68882778941E+02 -0.43789190335E+02 -0.11714504977E+03  0.29935669341E+03  0.26311430363E+03 0.  0.
         25    1    4    4    0    0  0.66576744612E+02 -0.30156019657E+02 -0.90171879488E+02  0.17064678255E+03  0.12509000000E+03 0.  0.
         25    1    4    4    0    0  0.23060343286E+01 -0.13633170678E+02 -0.26973170286E+02  0.12870991086E+03  0.12509000000E+03 0.  0.
         25    1    3    3    0    0 -0.68882778941E+02  0.43789190335E+02  0.23931887997E+01  0.14938395455E+03  0.12509000000E+03 0.  0.
<mgrwt>
<rscale>  2 0.43382045E+03</rscale>
<asrwt>0</asrwt>
<pdfrwt beam="1">  1       21 0.24557999E-01 0.43382045E+03</pdfrwt>
<pdfrwt beam="2">  1       21 0.41433273E-01 0.43382045E+03</pdfrwt>
<totfact> 0.81981035E+04</totfact>
</mgrwt>
</event>
<event>
 7    0  0.4788920E-002  0.4605868E+03  0.7546771E-02  0.1024611E+00
         21   -1    0    0  502  501  0.00000000000E+00  0.00000000000E+00  0.12869749685E+03  0.12869749685E+03  0.00000000000E+00 0.  1.
         21   -1    0    0  501  502 -0.00000000000E+00 -0.00000000000E+00 -0.41209077515E+03  0.41209077515E+03  0.00000000000E+00 0.  1.
      99926    2    1    2    0    0  0.00000000000E+00  0.14210854715E-13 -0.28339327830E+03  0.54078827200E+03  0.46058680501E+03 0.  0.
      99925    2    3    3    0    0 -0.54396464914E+02  0.99899789896E+02 -0.21570237532E+03  0.35866603321E+03  0.26301115041E+03 0.  0.
         25    1    3    3    0    0  0.54396464914E+02 -0.99899789896E+02 -0.67690902975E+02  0.18212223879E+03  0.12509000000E+03 0.  0.
         25    1    4    4    0    0 -0.14708399625E+02  0.66870918792E+02 -0.66854430667E+02  0.15749628503E+03  0.12509000000E+03 0.  0.
         25    1    4    4    0    0 -0.39688065289E+02  0.33028871103E+02 -0.14884794465E+03  0.20116974817E+03  0.12509000000E+03 0.  0.
<mgrwt>
<rscale>  2 0.46058681E+03</rscale>
<asrwt>0</asrwt>
<pdfrwt beam="1">  1       21 0.18926103E-01 0.46058681E+03</pdfrwt>
<pdfrwt beam="2">  1       21 0.60601584E-01 0.46058681E+03</pdfrwt>
<totfact> 0.59790695E+04</totfact>
</mgrwt>
</event>
<event>
 7    0  0.4788920E-002  0.4502872E+03  0.7546771E-02  0.1027636E+00
         21   -1    0    0  502  501  0.00000000000E+00  0.00000000000E+00  0.10254135640E+04  0.10254135640E+04  0.00000000000E+00 0.  1.
         21   -1    0    0  501  502 -0.00000000000E+00 -0.00000000000E+00 -0.49433368549E+02  0.49433368549E+02  0.00000000000E+00 0.  1.
      99926    2    1    2    0    0  0.88817841970E-15  0.00000000000E+00  0.97598019548E+03  0.10748469326E+04  0.45028722667E+03 0.  0.
      99925    2    3    3    0    0 -0.79603701752E+01  0.10817545344E+03  0.63723063931E+03  0.69780042865E+03  0.26286356600E+03 0.  0.
         25    1    4    4    0    0  0.31560633206E+02  0.39280269695E+02  0.33743809526E+03  0.36338820756E+03  0.12509000000E+03 0.  0.
         25    1    4    4    0    0 -0.39521003381E+02  0.68895183742E+02  0.29979254405E+03  0.33441222110E+03  0.12509000000E+03 0.  0.
         25    1    3    3    0    0  0.79603701752E+01 -0.10817545344E+03  0.33874955616E+03  0.37704650392E+03  0.12509000000E+03 0.  0.
<mgrwt>
<rscale>  2 0.45028723E+03</rscale>
<asrwt>0</asrwt>
<pdfrwt beam="1">  1       21 0.15079610E+00 0.45028723E+03</pdfrwt>
<pdfrwt beam="2">  1       21 0.72696137E-02 0.45028723E+03</pdfrwt>
<totfact> 0.37747859E+04</totfact>
</mgrwt>
</event>
<event>
 7    0  0.4788920E-002  0.4553782E+03  0.7546771E-02  0.1026130E+00
         21   -1    0    0  502  501  0.00000000000E+00  0.00000000000E+00  0.11211075898E+03  0.11211075898E+03  0.00000000000E+00 0. -1.
         21   -1    0    0  501  502 -0.00000000000E+00 -0.00000000000E+00 -0.46242067419E+03  0.46242067419E+03  0.00000000000E+00 0. -1.
      99926    2    1    2    0    0  0.00000000000E+00  0.00000000000E+00 -0.35030991522E+03  0.57453143317E+03  0.45537822851E+03 0.  0.
      99925    2    3    3    0    0 -0.84776032238E+02  0.70623999772E+02 -0.18673891397E+03  0.34091271489E+03  0.26301203811E+03 0.  0.
         25    1    4    4    0    0 -0.71240070277E+02  0.71639537089E+01 -0.88546983842E+02  0.16915834680E+03  0.12509000000E+03 0.  0.
         25    1    4    4    0    0 -0.13535961961E+02  0.63460046063E+02 -0.98191930132E+02  0.17175436808E+03  0.12509000000E+03 0.  0.
         25    1    3    3    0    0  0.84776032238E+02 -0.70623999772E+02 -0.16357100124E+03  0.23361871829E+03  0.12509000000E+03 0.  0.
<mgrwt>
<rscale>  2 0.45537823E+03</rscale>
<asrwt>0</asrwt>
<pdfrwt beam="1">  1       21 0.16486876E-01 0.45537823E+03</pdfrwt>
<pdfrwt beam="2">  1       21 0.68003040E-01 0.45537823E+03</pdfrwt>
<totfact> 0.60094046E+04</totfact>
</mgrwt>
</event>
<event>
 7    0  0.4788920E-002  0.4569362E+03  0.7546771E-02  0.1025674E+00
         21   -1    0    0  502  501  0.00000000000E+00  0.00000000000E+00  0.57657715959E+03  0.57657715959E+03  0.00000000000E+00 0. -1.
         21   -1    0    0  501  502 -0.00000000000E+00 -0.00000000000E+00 -0.90530251613E+02  0.90530251613E+02  0.00000000000E+00 0. -1.
      99926    2    1    2    0    0  0.00000000000E+00  0.00000000000E+00  0.48604690797E+03  0.66710741120E+03  0.45693621144E+03 0.  0.
      99925    2    3    3    0    0 -0.97802786200E+02  0.53608921961E+02  0.34616615154E+03  0.44881074237E+03  0.26298436549E+03 0.  0.
         25    1    3    3    0    0  0.97802786200E+02 -0.53608921961E+02  0.13988075643E+03  0.21829666883E+03  0.12509000000E+03 0.  0.
         25    1    4    4    0    0 -0.72379282706E+02  0.46506685357E+02  0.14174070633E+03  0.20770066990E+03  0.12509000000E+03 0.  0.
         25    1    4    4    0    0 -0.25423503494E+02  0.71022366041E+01  0.20442544521E+03  0.24111007246E+03  0.12509000000E+03 0.  0.
<mgrwt>
<rscale>  2 0.45693621E+03</rscale>
<asrwt>0</asrwt>
<pdfrwt beam="1">  1       21 0.84790757E-01 0.45693621E+03</pdfrwt>
<pdfrwt beam="2">  1       21 0.13313273E-01 0.45693621E+03</pdfrwt>
<totfact> 0.53897902E+04</totfact>
</mgrwt>
</event>
<event>
 7    0  0.4788920E-002  0.4595138E+03  0.7546771E-02  0.1024922E+00
         21   -1    0    0  502  501  0.00000000000E+00  0.00000000000E+00  0.40282391686E+02  0.40282391686E+02  0.00000000000E+00 0.  1.
         21   -1    0    0  501  502 -0.00000000000E+00 -0.00000000000E+00 -0.13104543373E+04  0.13104543373E+04  0.00000000000E+00 0.  1.
      99926    2    1    2    0    0  0.00000000000E+00  0.00000000000E+00 -0.12701719456E+04  0.13507367290E+04  0.45951380785E+03 0.  0.
      99925    2    3    3    0    0 -0.20192922640E+02  0.10282729796E+03 -0.64091442963E+03  0.70066462771E+03  0.26301788359E+03 0.  0.
         25    1    3    3    0    0  0.20192922640E+02 -0.10282729796E+03 -0.62925751597E+03  0.65007210126E+03  0.12509000000E+03 0.  0.
         25    1    4    4    0    0  0.13658145646E+01  0.44742957412E+02 -0.21786150097E+03  0.25517629081E+03  0.12509000000E+03 0.  0.
         25    1    4    4    0    0 -0.21558737204E+02  0.58084340550E+02 -0.42305292865E+03  0.44548833690E+03  0.12509000000E+03 0.  0.
<mgrwt>
<rscale>  2 0.45951381E+03</rscale>
<asrwt>0</asrwt>
<pdfrwt beam="1">  1       21 0.59238802E-02 0.45951381E+03</pdfrwt>
<pdfrwt beam="2">  1       21 0.19271390E+00 0.45951381E+03</pdfrwt>
<totfact> 0.26724778E+04</totfact>
</mgrwt>
</event>
<event>
 7    0  0.4788920E-002  0.4505475E+03  0.7546771E-02  0.1027559E+00
         21   -1    0    0  502  501  0.00000000000E+00  0.00000000000E+00  0.22846628250E+03  0.22846628250E+03  0.00000000000E+00 0.  1.
         21   -1    0    0  501  502 -0.00000000000E+00 -0.00000000000E+00 -0.22212583015E+03  0.22212583015E+03  0.00000000000E+00 0.  1.
      99926    2    1    2    0    0  0.14210854715E-13  0.00000000000E+00  0.63404523454E+01  0.45059211265E+03  0.45054750099E+03 0.  0.
      99925    2    3    3    0    0  0.10098325332E+03 -0.24526145477E+02  0.36613044909E+02  0.28517419577E+03  0.26302976564E+03 0.  0.
         25    1    3    3    0    0 -0.10098325332E+03  0.24526145477E+02 -0.30272592563E+02  0.16541791688E+03  0.12509000000E+03 0.  0.
         25    1    4    4    0    0  0.57283186604E+02 -0.48631383590E+02  0.12463631680E+01  0.14592955992E+03  0.12509000000E+03 0.  0.
         25    1    4    4    0    0  0.43700066720E+02  0.24105238112E+02  0.35366681741E+02  0.13924463585E+03  0.12509000000E+03 0.  0.
<mgrwt>
<rscale>  2 0.45054750E+03</rscale>
<asrwt>0</asrwt>
<pdfrwt beam="1">  1       21 0.33597983E-01 0.45054750E+03</pdfrwt>
<pdfrwt beam="2">  1       21 0.32665563E-01 0.45054750E+03</pdfrwt>
<totfact> 0.71372004E+04</totfact>
</mgrwt>
</event>
<event>
 7    0  0.4788920E-002  0.4581187E+03  0.7546771E-02  0.1025328E+00
         21   -1    0    0  502  501  0.00000000000E+00  0.00000000000E+00  0.16160357557E+03  0.16160357557E+03  0.00000000000E+00 0. -1.
         21   -1    0    0  501  502 -0.00000000000E+00 -0.00000000000E+00 -0.32467221507E+03  0.32467221507E+03  0.00000000000E+00 0. -1.
      99926    2    1    2    0    0 -0.71054273576E-14  0.00000000000E+00 -0.16306863950E+03  0.48627579064E+03  0.45811872192E+03 0.  0.
      99925    2    3    3    0    0  0.42044114912E+02 -0.71225419893E+02 -0.18852516297E+03  0.33416954250E+03  0.26322381735E+03 0.  0.
         25    1    3    3    0    0 -0.42044114912E+02  0.71225419893E+02  0.25456523473E+02  0.15210624815E+03  0.12509000000E+03 0.  0.
         25    1    4    4    0    0  0.28005010425E+02 -0.39878314142E+02 -0.14436790206E+03  0.19713994976E+03  0.12509000000E+03 0.  0.
         25    1    4    4    0    0  0.14039104486E+02 -0.31347105751E+02 -0.44157260912E+02  0.13702959273E+03  0.12509000000E+03 0.  0.
<mgrwt>
<rscale>  2 0.45811872E+03</rscale>
<asrwt>0</asrwt>
<pdfrwt beam="1">  1       21 0.23765232E-01 0.45811872E+03</pdfrwt>
<pdfrwt beam="2">  1       21 0.47745913E-01 0.45811872E+03</pdfrwt>
<totfact> 0.64631060E+04</totfact>
</mgrwt>
</event>
<event>
 7    0  0.4788920E-002  0.4535025E+03  0.7546771E-02  0.1026683E+00
         21   -1    0    0  502  501  0.00000000000E+00  0.00000000000E+00  0.40715671188E+03  0.40715671188E+03  0.00000000000E+00 0. -1.
         21   -1    0    0  501  502 -0.00000000000E+00 -0.00000000000E+00 -0.12628092657E+03  0.12628092657E+03  0.00000000000E+00 0. -1.
      99926    2    1    2    0    0  0.71054273576E-14  0.00000000000E+00  0.28087578532E+03  0.53343763845E+03  0.45350248879E+03 0.  0.
      99925    2    3    3    0    0 -0.52838503044E+02 -0.38459951084E+02  0.70516466391E+02  0.28012039387E+03  0.26310413868E+03 0.  0.
         25    1    4    4    0    0 -0.44669768521E+02 -0.31309894292E+02  0.72530412235E+02  0.15454406006E+03  0.12509000000E+03 0.  0.
         25    1    4    4    0    0 -0.81687345232E+01 -0.71500567920E+01 -0.20139458445E+01  0.12557633381E+03  0.12509000000E+03 0.  0.
         25    1    3    3    0    0  0.52838503044E+02  0.38459951084E+02  0.21035931892E+03  0.25331724458E+03  0.12509000000E+03 0.  0.
<mgrwt>
<rscale>  2 0.45350249E+03</rscale>
<asrwt>0</asrwt>
<pdfrwt beam="1">  1       21 0.59875987E-01 0.45350249E+03</pdfrwt>
<pdfrwt beam="2">  1       21 0.18570725E-01 0.45350249E+03</pdfrwt>
<totfact> 0.63726417E+04</totfact>
</mgrwt>
</event>
<event>
 6    0  0.4788920E-002  0.4569652E+03  0.7546771E-02  0.1025665E+00
         21   -1    0    0  502  501  0.00000000000E+00  0.00000000000E+00  0.20400216484E+02  0.20400216484E+02  0.00000000000E+00 0.  1.
         21   -1    0    0  501  502 -0.00000000000E+00 -0.00000000000E+00 -0.25590065455E+04  0.25590065455E+04  0.00000000000E+00 0.  1.
      99926    2    1    2    0    0 -0.17763568394E-14  0.14210854715E-13 -0.25386063290E+04  0.25794067620E+04  0.45696515189E+03 0.  0.
         25    1    3    3    0    0 -0.13445196552E+02  0.62085379766E+01 -0.74375821845E+03  0.75434946468E+03  0.12509000000E+03 0.  0.
         25    1    3    3    0    0  0.16710454890E+01  0.77697971569E+02 -0.12816176907E+04  0.12900508441E+04  0.12509000000E+03 0.  0.
         25    1    3    3    0    0  0.11774151063E+02 -0.83906509546E+02 -0.51323041984E+03  0.53500645316E+03  0.12509000000E+03 0.  0.
<mgrwt>
<rscale>  2 0.45696515E+03</rscale>
<asrwt>0</asrwt>
<pdfrwt beam="1">  1       21 0.30000325E-02 0.45696515E+03</pdfrwt>
<pdfrwt beam="2">  1       21 0.37632441E+00 0.45696515E+03</pdfrwt>
<totfact> 0.62569476E+03</totfact>
</mgrwt>
</event>
<event>
 7    0  0.4788920E-002  0.4354875E+03  0.7546771E-02  0.1032140E+00
         21   -1    0    0  502  501  0.00000000000E+00  0.00000000000E+00  0.18341134593E+03  0.18341134593E+03  0.00000000000E+00 0. -1.
         21   -1    0    0  501  502 -0.00000000000E+00 -0.00000000000E+00 -0.25850271272E+03  0.25850271272E+03  0.00000000000E+00 0. -1.
      99926    2    1    2    0    0  0.71054273576E-14 -0.35527136788E-14 -0.75091366788E+02  0.44191405866E+03  0.43548745318E+03 0.  0.
      99925    2    3    3    0    0  0.62251898272E+02 -0.18040619990E+02  0.20539751708E+02  0.27163904072E+03  0.26299263152E+03 0.  0.
         25    1    4    4    0    0  0.39650461358E+02  0.16350947739E+02  0.40832252042E+02  0.13839903715E+03  0.12509000000E+03 0.  0.
         25    1    3    3    0    0 -0.62251898272E+02  0.18040619990E+02 -0.95631118496E+02  0.17027501794E+03  0.12509000000E+03 0.  0.
         25    1    4    4    0    0  0.22601436914E+02 -0.34391567729E+02 -0.20292500334E+02  0.13324000357E+03  0.12509000000E+03 0.  0.
<mgrwt>
<rscale>  2 0.43548745E+03</rscale>
<asrwt>0</asrwt>
<pdfrwt beam="1">  1       21 0.26972257E-01 0.43548745E+03</pdfrwt>
<pdfrwt beam="2">  1       21 0.38015105E-01 0.43548745E+03</pdfrwt>
<totfact> 0.81476819E+04</totfact>
</mgrwt>
</event>
<event>
 7    0  0.4788920E-002  0.4918305E+03  0.7546771E-02  0.1015934E+00
         21   -1    0    0  502  501  0.00000000000E+00  0.00000000000E+00  0.85454618627E+03  0.85454618627E+03  0.00000000000E+00 0. -1.
         21   -1    0    0  501  502 -0.00000000000E+00 -0.00000000000E+00 -0.70767761613E+02  0.70767761613E+02  0.00000000000E+00 0. -1.
      99926    2    1    2    0    0  0.35527136788E-14  0.00000000000E+00  0.78377842466E+03  0.92531394788E+03  0.49183054316E+03 0.  0.
      99925    2    3    3    0    0 -0.21576076137E+02 -0.67271927158E+00  0.74830525498E+03  0.79351169646E+03  0.26312369369E+03 0.  0.
         25    1    3    3    0    0  0.21576076137E+02  0.67271927158E+00  0.35473169679E+02  0.13180225142E+03  0.12509000000E+03 0.  0.
         25    1    4    4    0    0 -0.49172678431E+02  0.65448632934E+01  0.34618173277E+03  0.37141632671E+03  0.12509000000E+03 0.  0.
         25    1    4    4    0    0  0.27596602294E+02 -0.72175825650E+01  0.40212352221E+03  0.42209536975E+03  0.12509000000E+03 0.  0.
<mgrwt>
<rscale>  2 0.49183054E+03</rscale>
<asrwt>0</asrwt>
<pdfrwt beam="1">  1       21 0.12566855E+00 0.49183054E+03</pdfrwt>
<pdfrwt beam="2">  1       21 0.10407024E-01 0.49183054E+03</pdfrwt>
<totfact> 0.31913310E+04</totfact>
</mgrwt>
</event>
<event>
 7    0  0.4788920E-002  0.4556916E+03  0.7546771E-02  0.1026038E+00
         21   -1    0    0  502  501  0.00000000000E+00  0.00000000000E+00  0.69258921628E+02  0.69258921628E+02  0.00000000000E+00 0.  1.
         21   -1    0    0  501  502 -0.00000000000E+00 -0.00000000000E+00 -0.74955979182E+03  0.74955979182E+03  0.00000000000E+00 0.  1.
      99926    2    1    2    0    0  0.00000000000E+00  0.00000000000E+00 -0.68030087019E+03  0.81881871345E+03  0.45569157498E+03 0.  0.
      99925    2    3    3    0    0  0.42611726475E+02 -0.76724069024E+02 -0.29742239704E+03  0.40657391323E+03  0.26294471408E+03 0.  0.
         25    1    4    4    0    0  0.15705857170E+02 -0.74841684068E+02 -0.13076708551E+03  0.19645735002E+03  0.12509000000E+03 0.  0.
         25    1    3    3    0    0 -0.42611726475E+02  0.76724069024E+02 -0.38287847315E+03  0.41224480021E+03  0.12509000000E+03 0.  0.
         25    1    4    4    0    0  0.26905869305E+02 -0.18823849560E+01 -0.16665531153E+03  0.21011656321E+03  0.12509000000E+03 0.  0.
<mgrwt>
<rscale>  2 0.45569157E+03</rscale>
<asrwt>0</asrwt>
<pdfrwt beam="1">  1       21 0.10185136E-01 0.45569157E+03</pdfrwt>
<pdfrwt beam="2">  1       21 0.11022938E+00 0.45569157E+03</pdfrwt>
<totfact> 0.46614537E+04</totfact>
</mgrwt>
</event>
<event>
 7    0  0.4788920E-002  0.4495830E+03  0.7546771E-02  0.1027846E+00
         21   -1    0    0  502  501  0.00000000000E+00  0.00000000000E+00  0.12584483136E+04  0.12584483136E+04  0.00000000000E+00 0. -1.
         21   -1    0    0  501  502 -0.00000000000E+00 -0.00000000000E+00 -0.40153594652E+02  0.40153594652E+02  0.00000000000E+00 0. -1.
      99926    2    1    2    0    0  0.00000000000E+00  0.66613381478E-15  0.12182947190E+04  0.12986019083E+04  0.44958302226E+03 0.  0.
      99925    2    3    3    0    0  0.30962025553E+02 -0.16392417051E+01  0.10689054969E+04  0.11013052233E+04  0.26334938650E+03 0.  0.
         25    1    4    4    0    0  0.54520699850E+02 -0.10244042483E+02  0.51171496549E+03  0.52969534746E+03  0.12509000000E+03 0.  0.
         25    1    3    3    0    0 -0.30962025553E+02  0.16392417051E+01  0.14938922205E+03  0.19729668498E+03  0.12509000000E+03 0.  0.
         25    1    4    4    0    0 -0.23558674297E+02  0.86048007775E+01  0.55719053145E+03  0.57160987585E+03  0.12509000000E+03 0.  0.
<mgrwt>
<rscale>  2 0.44958302E+03</rscale>
<asrwt>0</asrwt>
<pdfrwt beam="1">  1       21 0.18506590E+00 0.44958302E+03</pdfrwt>
<pdfrwt beam="2">  1       21 0.59049412E-02 0.44958302E+03</pdfrwt>
<totfact> 0.30416695E+04</totfact>
</mgrwt>
</event>
<event>
 7    0  0.4788920E-002  0.4587706E+03  0.7546771E-02  0.1025138E+00
         21   -1    0    0  502  501  0.00000000000E+00  0.00000000000E+00  0.16484868122E+04  0.16484868122E+04  0.00000000000E+00 0. -1.
         21   -1    0    0  501  502 -0.00000000000E+00 -0.00000000000E+00 -0.31918736125E+02  0.31918736125E+02  0.00000000000E+00 0. -1.
      99926    2    1    2    0    0  0.00000000000E+00  0.17763568394E-14  0.16165680760E+04  0.16804055483E+04  0.45877059872E+03 0.  0.
      99925    2    3    3    0    0 -0.11225680938E+03  0.64549008672E+01  0.11280309475E+04  0.11637245141E+04  0.26297845780E+03 0.  0.
         25    1    4    4    0    0 -0.73077494726E+02 -0.29886506107E+02  0.65694960839E+03  0.67339722271E+03  0.12509000000E+03 0.  0.
         25    1    3    3    0    0  0.11225680938E+03 -0.64549008672E+01  0.48853712854E+03  0.51668103416E+03  0.12509000000E+03 0.  0.
         25    1    4    4    0    0 -0.39179314658E+02  0.36341406974E+02  0.47108133910E+03  0.49032729142E+03  0.12509000000E+03 0.  0.
<mgrwt>
<rscale>  2 0.45877060E+03</rscale>
<asrwt>0</asrwt>
<pdfrwt beam="1">  1       21 0.24242447E+00 0.45877060E+03</pdfrwt>
<pdfrwt beam="2">  1       21 0.46939329E-02 0.45877060E+03</pdfrwt>
<totfact> 0.19106881E+04</totfact>
</mgrwt>
</event>
<event>
 7    0  0.4788920E-002  0.4531815E+03  0.7546771E-02  0.1026778E+00
         21   -1    0    0  502  501  0.00000000000E+00  0.00000000000E+00  0.77311842550E+03  0.77311842550E+03  0.00000000000E+00 0.  1.
         21   -1    0    0  501  502 -0.00000000000E+00 -0.00000000000E+00 -0.66410743151E+02  0.66410743151E+02  0.00000000000E+00 0.  1.
      99926    2    1    2    0    0 -0.17763568394E-14  0.00000000000E+00  0.70670768235E+03  0.83952916865E+03  0.45318150527E+03 0.  0.
      99925    2    3    3    0    0 -0.43969249868E+01  0.19225219707E+02  0.64866626915E+03  0.70022642005E+03  0.26298320968E+03 0.  0.
         25    1    3    3    0    0  0.43969249868E+01 -0.19225219707E+02  0.58041413194E+02  0.13930274860E+03  0.12509000000E+03 0.  0.
         25    1    4    4    0    0 -0.25702939562E+02  0.31689261539E+02  0.26385526245E+03  0.29484225956E+03  0.12509000000E+03 0.  0.
         25    1    4    4    0    0  0.21306014576E+02 -0.12464041832E+02  0.38481100670E+03  0.40538416049E+03  0.12509000000E+03 0.  0.
<mgrwt>
<rscale>  2 0.45318151E+03</rscale>
<asrwt>0</asrwt>
<pdfrwt beam="1">  1       21 0.11369388E+00 0.45318151E+03</pdfrwt>
<pdfrwt beam="2">  1       21 0.97662862E-02 0.45318151E+03</pdfrwt>
<totfact> 0.46572361E+04</totfact>
</mgrwt>
</event>
<event>
 7    0  0.4788920E-002  0.4599728E+03  0.7546771E-02  0.1024789E+00
         21   -1    0    0  502  501  0.00000000000E+00  0.00000000000E+00  0.72646333479E+02  0.72646333479E+02  0.00000000000E+00 0. -1.
         21   -1    0    0  501  502 -0.00000000000E+00 -0.00000000000E+00 -0.72809921454E+03  0.72809921454E+03  0.00000000000E+00 0. -1.
      99926    2    1    2    0    0  0.00000000000E+00  0.00000000000E+00 -0.65545288106E+03  0.80074554802E+03  0.45997277461E+03 0.  0.
      99925    2    3    3    0    0  0.11538056490E+03  0.21008383977E+02 -0.39553342995E+03  0.48936209291E+03  0.26320056385E+03 0.  0.
         25    1    4    4    0    0  0.70587277819E+02 -0.13548936544E+02 -0.15043814392E+03  0.20843531543E+03  0.12509000000E+03 0.  0.
         25    1    4    4    0    0  0.44793287081E+02  0.34557320521E+02 -0.24509528603E+03  0.28092677748E+03  0.12509000000E+03 0.  0.
         25    1    3    3    0    0 -0.11538056490E+03 -0.21008383977E+02 -0.25991945111E+03  0.31138345511E+03  0.12509000000E+03 0.  0.
<mgrwt>
<rscale>  2 0.45997277E+03</rscale>
<asrwt>0</asrwt>
<pdfrwt beam="1">  1       21 0.10683284E-01 0.45997277E+03</pdfrwt>
<pdfrwt beam="2">  1       21 0.10707341E+00 0.45997277E+03</pdfrwt>
<totfact> 0.45910709E+04</totfact>
</mgrwt>
</event>
<event>
 7    0  0.4788920E-002  0.4562288E+03  0.7546771E-02  0.1025881E+00
         21   -1    0    0  502  501  0.00000000000E+00  0.00000000000E+00  0.15353481069E+03  0.15353481069E+03  0.00000000000E+00 0. -1.
         21   -1    0    0  501  502 -0.00000000000E+00 -0.00000000000E+00 -0.33892102248E+03  0.33892102248E+03  0.00000000000E+00 0. -1.
      99926    2    1    2    0    0  0.00000000000E+00  0.17763568394E-14 -0.18538621179E+03  0.49245583317E+03  0.45622878044E+03 0.  0.
      99925    2    3    3    0    0  0.92259371961E+02 -0.14620820154E+02 -0.18761537348E+03  0.33632115618E+03  0.26303389825E+03 0.  0.
         25    1    4    4    0    0  0.86802653951E+02 -0.19176927415E+02 -0.94579367830E+02  0.18026430650E+03  0.12509000000E+03 0.  0.
         25    1    3    3    0    0 -0.92259371961E+02  0.14620820154E+02  0.22291616928E+01  0.15613467699E+03  0.12509000000E+03 0.  0.
         25    1    4    4    0    0  0.54567180098E+01  0.45561072612E+01 -0.93036005655E+02  0.15605684968E+03  0.12509000000E+03 0.  0.
<mgrwt>
<rscale>  2 0.45622878E+03</rscale>
<asrwt>0</asrwt>
<pdfrwt beam="1">  1       21 0.22578649E-01 0.45622878E+03</pdfrwt>
<pdfrwt beam="2">  1       21 0.49841326E-01 0.45622878E+03</pdfrwt>
<totfact> 0.65165964E+04</totfact>
</mgrwt>
</event>
<event>
 7    0  0.4788920E-002  0.4590068E+03  0.7546771E-02  0.1025070E+00
         21   -1    0    0  502  501  0.00000000000E+00  0.00000000000E+00  0.59259370020E+02  0.59259370020E+02  0.00000000000E+00 0.  1.
         21   -1    0    0  501  502 -0.00000000000E+00 -0.00000000000E+00 -0.88883509198E+03  0.88883509198E+03  0.00000000000E+00 0.  1.
      99926    2    1    2    0    0  0.14210854715E-13  0.35527136788E-14 -0.82957572196E+03  0.94809446200E+03  0.45900678689E+03 0.  0.
      99925    2    3    3    0    0  0.11278738522E+03  0.19590722095E+02 -0.47711160857E+03  0.55696372940E+03  0.26356843168E+03 0.  0.
         25    1    4    4    0    0  0.59916071006E+02 -0.31330042093E+02 -0.24439310402E+03  0.28274901325E+03  0.12509000000E+03 0.  0.
         25    1    3    3    0    0 -0.11278738522E+03 -0.19590722095E+02 -0.35246411339E+03  0.39113073260E+03  0.12509000000E+03 0.  0.
         25    1    4    4    0    0  0.52871314211E+02  0.50920764188E+02 -0.23271850455E+03  0.27421471615E+03  0.12509000000E+03 0.  0.
<mgrwt>
<rscale>  2 0.45900679E+03</rscale>
<asrwt>0</asrwt>
<pdfrwt beam="1">  1       21 0.87146137E-02 0.45900679E+03</pdfrwt>
<pdfrwt beam="2">  1       21 0.13071104E+00 0.45900679E+03</pdfrwt>
<totfact> 0.39951488E+04</totfact>
</mgrwt>
</event>
<event>
 7    0  0.4788920E-002  0.4542766E+03  0.7546771E-02  0.1026454E+00
         21   -1    0    0  502  501  0.00000000000E+00  0.00000000000E+00  0.97148350646E+02  0.97148350646E+02  0.00000000000E+00 0.  1.
         21   -1    0    0  501  502 -0.00000000000E+00 -0.00000000000E+00 -0.53106217177E+03  0.53106217177E+03  0.00000000000E+00 0.  1.
      99926    2    1    2    0    0  0.71054273576E-14  0.00000000000E+00 -0.43391382113E+03  0.62821052242E+03  0.45427662972E+03 0.  0.
      99925    2    3    3    0    0 -0.32091806464E+02  0.70866607553E+02 -0.16153146917E+03  0.31854681150E+03  0.26330152957E+03 0.  0.
         25    1    4    4    0    0  0.62973861146E+00  0.67290542618E+02 -0.60374884727E+02  0.15434068972E+03  0.12509000000E+03 0.  0.
         25    1    3    3    0    0  0.32091806464E+02 -0.70866607553E+02 -0.27238235195E+03  0.30966371092E+03  0.12509000000E+03 0.  0.
         25    1    4    4    0    0 -0.32721545076E+02  0.35760649347E+01 -0.10115658445E+03  0.16420612178E+03  0.12509000000E+03 0.  0.
<mgrwt>
<rscale>  2 0.45427663E+03</rscale>
<asrwt>0</asrwt>
<pdfrwt beam="1">  1       21 0.14286522E-01 0.45427663E+03</pdfrwt>
<pdfrwt beam="2">  1       21 0.78097379E-01 0.45427663E+03</pdfrwt>
<totfact> 0.57301108E+04</totfact>
</mgrwt>
</event>
<event>
 7    0  0.4788920E-002  0.4517275E+03  0.7546771E-02  0.1027208E+00
         21   -1    0    0  502  501  0.00000000000E+00  0.00000000000E+00  0.39191790862E+03  0.39191790862E+03  0.00000000000E+00 0. -1.
         21   -1    0    0  501  502 -0.00000000000E+00 -0.00000000000E+00 -0.13016609975E+03  0.13016609975E+03  0.00000000000E+00 0. -1.
      99926    2    1    2    0    0 -0.14210854715E-13  0.71054273576E-14  0.26175180887E+03  0.52208400837E+03  0.45172746468E+03 0.  0.
      99925    2    3    3    0    0 -0.93694702126E+02  0.43182270181E+02  0.20968973114E+03  0.35178611143E+03  0.26294539202E+03 0.  0.
         25    1    3    3    0    0  0.93694702126E+02 -0.43182270181E+02  0.52062077729E+02  0.17029789694E+03  0.12509000000E+03 0.  0.
         25    1    4    4    0    0 -0.48731727287E+02  0.55833243213E+02  0.13692751518E+03  0.19972176848E+03  0.12509000000E+03 0.  0.
         25    1    4    4    0    0 -0.44962974839E+02 -0.12650973033E+02  0.72762215961E+02  0.15206434295E+03  0.12509000000E+03 0.  0.
<mgrwt>
<rscale>  2 0.45172746E+03</rscale>
<asrwt>0</asrwt>
<pdfrwt beam="1">  1       21 0.57634986E-01 0.45172746E+03</pdfrwt>
<pdfrwt beam="2">  1       21 0.19142074E-01 0.45172746E+03</pdfrwt>
<totfact> 0.65426500E+04</totfact>
</mgrwt>
</event>
<event>
 6    0  0.4788920E-002  0.4488609E+03  0.7546771E-02  0.1028062E+00
         21   -1    0    0  502  501  0.00000000000E+00  0.00000000000E+00  0.12140031193E+03  0.12140031193E+03  0.00000000000E+00 0.  1.
         21   -1    0    0  501  502 -0.00000000000E+00 -0.00000000000E+00 -0.41490038617E+03  0.41490038617E+03  0.00000000000E+00 0.  1.
      99926    2    1    2    0    0  0.00000000000E+00  0.71054273576E-14 -0.29350007424E+03  0.53630069810E+03  0.44886094194E+03 0.  0.
         25    1    3    3    0    0 -0.52512106861E+02 -0.37505646983E+02 -0.15487047255E+03  0.20927629175E+03  0.12509000000E+03 0.  0.
         25    1    3    3    0    0  0.36001478810E+02  0.57591460363E+02 -0.54110417462E+01  0.14244181358E+03  0.12509000000E+03 0.  0.
         25    1    3    3    0    0  0.16510628051E+02 -0.20085813380E+02 -0.13321855995E+03  0.18458259277E+03  0.12509000000E+03 0.  0.
<mgrwt>
<rscale>  2 0.44886094E+03</rscale>
<asrwt>0</asrwt>
<pdfrwt beam="1">  1       21 0.17852987E-01 0.44886094E+03</pdfrwt>
<pdfrwt beam="2">  1       21 0.61014762E-01 0.44886094E+03</pdfrwt>
<totfact> 0.65926263E+04</totfact>
</mgrwt>
</event>
<event>
 7    0  0.4788920E-002  0.4839451E+03  0.7546771E-02  0.1018057E+00
         21   -1    0    0  502  501  0.00000000000E+00  0.00000000000E+00  0.14342919331E+04  0.14342919331E+04  0.00000000000E+00 0. -1.
         21   -1    0    0  501  502 -0.00000000000E+00 -0.00000000000E+00 -0.40822032045E+02  0.40822032045E+02  0.00000000000E+00 0. -1.
      99926    2    1    2    0    0  0.00000000000E+00  0.17763568394E-14  0.13934699011E+04  0.14751139652E+04  0.48394508472E+03 0.  0.
      99925    2    3    3    0    0 -0.45151816338E+02 -0.13431468945E+02  0.12531484417E+04  0.12813184261E+04  0.26301483122E+03 0.  0.
         25    1    3    3    0    0  0.45151816338E+02  0.13431468945E+02  0.14032145942E+03  0.19379553904E+03  0.12509000000E+03 0.  0.
         25    1    4    4    0    0 -0.48058752520E+02  0.23160807964E+02  0.58884726567E+03  0.60434648762E+03  0.12509000000E+03 0.  0.
         25    1    4    4    0    0  0.29069361821E+01 -0.36592276908E+02  0.66430117601E+03  0.67697193853E+03  0.12509000000E+03 0.  0.
<mgrwt>
<rscale>  2 0.48394508E+03</rscale>
<asrwt>0</asrwt>
<pdfrwt beam="1">  1       21 0.21092525E+00 0.48394508E+03</pdfrwt>
<pdfrwt beam="2">  1       21 0.60032409E-02 0.48394508E+03</pdfrwt>
<totfact> 0.19603499E+04</totfact>
</mgrwt>
</event>
<event>
 7    0  0.4788920E-002  0.4535121E+03  0.7546771E-02  0.1026680E+00
         21   -1    0    0  502  501  0.00000000000E+00  0.00000000000E+00  0.18737136134E+04  0.18737136134E+04  0.00000000000E+00 0.  1.
         21   -1    0    0  501  502 -0.00000000000E+00 -0.00000000000E+00 -0.27441927738E+02  0.27441927738E+02  0.00000000000E+00 0.  1.
      99926    2    1    2    0    0 -0.71054273576E-14  0.00000000000E+00  0.18462716856E+04  0.19011555411E+04  0.45351213249E+03 0.  0.
      99925    2    3    3    0    0  0.46232208493E+02  0.10157401338E+03  0.11902502339E+04  0.12240541082E+04  0.26297935861E+03 0.  0.
         25    1    4    4    0    0 -0.42258777201E+01  0.25919299031E+02  0.63094997373E+03  0.64376629731E+03  0.12509000000E+03 0.  0.
         25    1    4    4    0    0  0.50458086213E+02  0.75654714350E+02  0.55930026020E+03  0.58028781086E+03  0.12509000000E+03 0.  0.
         25    1    3    3    0    0 -0.46232208493E+02 -0.10157401338E+03  0.65602145168E+03  0.67710143292E+03  0.12509000000E+03 0.  0.
<mgrwt>
<rscale>  2 0.45351213E+03</rscale>
<asrwt>0</asrwt>
<pdfrwt beam="1">  1       21 0.27554603E+00 0.45351213E+03</pdfrwt>
<pdfrwt beam="2">  1       21 0.40355789E-02 0.45351213E+03</pdfrwt>
<totfact> 0.15570415E+04</totfact>
</mgrwt>
</event>
<event>
 7    0  0.4788920E-002  0.4564743E+03  0.7546771E-02  0.1025809E+00
         21   -1    0    0  502  501  0.00000000000E+00  0.00000000000E+00  0.18485894446E+04  0.18485894446E+04  0.00000000000E+00 0. -1.
         21   -1    0    0  501  502 -0.00000000000E+00 -0.00000000000E+00 -0.28179431429E+02  0.28179431429E+02  0.00000000000E+00 0. -1.
      99926    2    1    2    0    0  0.71054273576E-14  0.00000000000E+00  0.18204100132E+04  0.18767688760E+04  0.45647431251E+03 0.  0.
      99925    2    3    3    0    0 -0.57829903431E+02 -0.58833967467E+02  0.14709902351E+04  0.14965749480E+04  0.26290410789E+03 0.  0.
         25    1    3    3    0    0  0.57829903431E+02  0.58833967467E+02  0.34941977811E+03  0.38019392801E+03  0.12509000000E+03 0.  0.
         25    1    4    4    0    0 -0.90406075535E+01  0.76865209491E+01  0.65684744168E+03  0.66875771766E+03  0.12509000000E+03 0.  0.
         25    1    4    4    0    0 -0.48789295877E+02 -0.66520488416E+02  0.81414279338E+03  0.82781723036E+03  0.12509000000E+03 0.  0.
<mgrwt>
<rscale>  2 0.45647431E+03</rscale>
<asrwt>0</asrwt>
<pdfrwt beam="1">  1       21 0.27185131E+00 0.45647431E+03</pdfrwt>
<pdfrwt beam="2">  1       21 0.41440353E-02 0.45647431E+03</pdfrwt>
<totfact> 0.15648115E+04</totfact>
</mgrwt>
</event>
<event>
 7    0  0.4788920E-002  0.4409920E+03  0.7546771E-02  0.1030443E+00
         21   -1    0    0  502  501  0.00000000000E+00  0.00000000000E+00  0.68334587094E+02  0.68334587094E+02  0.00000000000E+00 0.  1.
         21   -1    0    0  501  502 -0.00000000000E+00 -0.00000000000E+00 -0.71147694486E+03  0.71147694486E+03  0.00000000000E+00 0.  1.
      99926    2    1    2    0    0 -0.71054273576E-14  0.00000000000E+00 -0.64314235777E+03  0.77981153196E+03  0.44099198747E+03 0.  0.
      99925    2    3    3    0    0  0.54526422924E+02  0.82523227423E+02 -0.39560478872E+03  0.48535343638E+03  0.26321397281E+03 0.  0.
         25    1    3    3    0    0 -0.54526422924E+02 -0.82523227423E+02 -0.24753756905E+03  0.29445809558E+03  0.12509000000E+03 0.  0.
         25    1    4    4    0    0  0.46224375493E+02  0.44929412156E+01 -0.18180385536E+03  0.22551503129E+03  0.12509000000E+03 0.  0.
         25    1    4    4    0    0  0.83020474307E+01  0.78030286207E+02 -0.21380093336E+03  0.25983840510E+03  0.12509000000E+03 0.  0.
<mgrwt>
<rscale>  2 0.44099199E+03</rscale>
<asrwt>0</asrwt>
<pdfrwt beam="1">  1       21 0.10049203E-01 0.44099199E+03</pdfrwt>
<pdfrwt beam="2">  1       21 0.10462897E+00 0.44099199E+03</pdfrwt>
<totfact> 0.54507612E+04</totfact>
</mgrwt>
</event>
<event>
 7    0  0.4788920E-002  0.4671543E+03  0.7546771E-02  0.1022726E+00
         21   -1    0    0  502  501  0.00000000000E+00  0.00000000000E+00  0.19644304278E+03  0.19644304278E+03  0.00000000000E+00 0. -1.
         21   -1    0    0  501  502 -0.00000000000E+00 -0.00000000000E+00 -0.27773082200E+03  0.27773082200E+03  0.00000000000E+00 0. -1.
      99926    2    1    2    0    0 -0.71054273576E-14  0.35527136788E-14 -0.81287779212E+02  0.47417386478E+03  0.46715431175E+03 0.  0.
      99925    2    3    3    0    0 -0.60215358184E+02  0.13693621932E+02 -0.15995075837E+03  0.31402150909E+03  0.26308146728E+03 0.  0.
         25    1    3    3    0    0  0.60215358184E+02 -0.13693621932E+02  0.78662979159E+02  0.16015235569E+03  0.12509000000E+03 0.  0.
         25    1    4    4    0    0 -0.39716111240E+02 -0.32689912436E+02 -0.80092889592E+02  0.15718899112E+03  0.12509000000E+03 0.  0.
         25    1    4    4    0    0 -0.20499246944E+02  0.46383534368E+02 -0.79857868778E+02  0.15683251797E+03  0.12509000000E+03 0.  0.
<mgrwt>
<rscale>  2 0.46715431E+03</rscale>
<asrwt>0</asrwt>
<pdfrwt beam="1">  1       21 0.28888683E-01 0.46715431E+03</pdfrwt>
<pdfrwt beam="2">  1       21 0.40842768E-01 0.46715431E+03</pdfrwt>
<totfact> 0.61022080E+04</totfact>
</mgrwt>
</event>
<event>
 7    0  0.4788920E-002  0.4536005E+03  0.7546771E-02  0.1026654E+00
         21   -1    0    0  502  501  0.00000000000E+00  0.00000000000E+00  0.22831124528E+03  0.22831124528E+03  0.00000000000E+00 0. -1.
         21   -1    0    0  501  502 -0.00000000000E+00 -0.00000000000E+00 -0.22529921151E+03  0.22529921151E+03  0.00000000000E+00 0. -1.
      99926    2    1    2    0    0  0.00000000000E+00  0.00000000000E+00  0.30120337660E+01  0.45361045679E+03  0.45360045653E+03 0.  0.
      99925    2    3    3    0    0  0.73541828524E+02 -0.72226371184E+02  0.45418341783E+02  0.28606687352E+03  0.26295699480E+03 0.  0.
         25    1    4    4    0    0  0.69440419460E+02 -0.20562246755E+02  0.42399164446E+02  0.15063191923E+03  0.12509000000E+03 0.  0.
         25    1    3    3    0    0 -0.73541828524E+02  0.72226371184E+02 -0.42406308017E+02  0.16754358328E+03  0.12509000000E+03 0.  0.
         25    1    4    4    0    0  0.41014090642E+01 -0.51664124429E+02  0.30191773368E+01  0.13543495428E+03  0.12509000000E+03 0.  0.
<mgrwt>
<rscale>  2 0.45360046E+03</rscale>
<asrwt>0</asrwt>
<pdfrwt beam="1">  1       21 0.33575183E-01 0.45360046E+03</pdfrwt>
<pdfrwt beam="2">  1       21 0.33132237E-01 0.45360046E+03</pdfrwt>
<totfact> 0.69419677E+04</totfact>
</mgrwt>
</event>
<event>
 7    0  0.4788920E-002  0.4477728E+03  0.7546771E-02  0.1028388E+00
         21   -1    0    0  502  501  0.00000000000E+00  0.00000000000E+00  0.10126541866E+03  0.10126541866E+03  0.00000000000E+00 0. -1.
         21   -1    0    0  501  502 -0.00000000000E+00 -0.00000000000E+00 -0.49498743801E+03  0.49498743801E+03  0.00000000000E+00 0. -1.
      99926    2    1    2    0    0  0.00000000000E+00  0.14210854715E-13 -0.39372201934E+03  0.59625285667E+03  0.44777275550E+03 0.  0.
      99925    2    3    3    0    0  0.52467918461E+02  0.87857015513E+02 -0.28766159233E+03  0.40294465736E+03  0.26295145474E+03 0.  0.
         25    1    4    4    0    0  0.59181590632E+02  0.33026948322E+02 -0.17662027657E+03  0.22679389362E+03  0.12509000000E+03 0.  0.
         25    1    3    3    0    0 -0.52467918461E+02 -0.87857015513E+02 -0.10606042701E+03  0.19330819931E+03  0.12509000000E+03 0.  0.
         25    1    4    4    0    0 -0.67136721705E+01  0.54830067192E+02 -0.11104131576E+03  0.17615076374E+03  0.12509000000E+03 0.  0.
<mgrwt>
<rscale>  2 0.44777276E+03</rscale>
<asrwt>0</asrwt>
<pdfrwt beam="1">  1       21 0.14891973E-01 0.44777276E+03</pdfrwt>
<pdfrwt beam="2">  1       21 0.72792270E-01 0.44777276E+03</pdfrwt>
<totfact> 0.62397312E+04</totfact>
</mgrwt>
</event>
<event>
 7    0  0.4788920E-002  0.4568201E+03  0.7546771E-02  0.1025708E+00
         21   -1    0    0  502  501  0.00000000000E+00  0.00000000000E+00  0.14281463122E+04  0.14281463122E+04  0.00000000000E+00 0.  1.
         21   -1    0    0  501  502 -0.00000000000E+00 -0.00000000000E+00 -0.36530671196E+02  0.36530671196E+02  0.00000000000E+00 0.  1.
      99926    2    1    2    0    0  0.00000000000E+00  0.00000000000E+00  0.13916156410E+04  0.14646769834E+04  0.45682006677E+03 0.  0.
      99925    2    3    3    0    0  0.33899725853E+02  0.59375637145E+02  0.11702241690E+04  0.12013590203E+04  0.26299093579E+03 0.  0.
         25    1    4    4    0    0  0.26475229983E+02  0.64647826713E+02  0.71248777241E+03  0.72675072290E+03  0.12509000000E+03 0.  0.
         25    1    4    4    0    0  0.74244958707E+01 -0.52721895680E+01  0.45773639659E+03  0.47460829742E+03  0.12509000000E+03 0.  0.
         25    1    3    3    0    0 -0.33899725853E+02 -0.59375637145E+02  0.22139147200E+03  0.26331796307E+03  0.12509000000E+03 0.  0.
<mgrwt>
<rscale>  2 0.45682007E+03</rscale>
<asrwt>0</asrwt>
<pdfrwt beam="1">  1       21 0.21002148E+00 0.45682007E+03</pdfrwt>
<pdfrwt beam="2">  1       21 0.53721585E-02 0.45682007E+03</pdfrwt>
<totfact> 0.24312508E+04</totfact>
</mgrwt>
</event>
<event>
 7    0  0.4788920E-002  0.4414596E+03  0.7546771E-02  0.1030300E+00
         21   -1    0    0  502  501  0.00000000000E+00  0.00000000000E+00  0.30608726287E+03  0.30608726287E+03  0.00000000000E+00 0. -1.
         21   -1    0    0  501  502 -0.00000000000E+00 -0.00000000000E+00 -0.15917563671E+03  0.15917563671E+03  0.00000000000E+00 0. -1.
      99926    2    1    2    0    0  0.00000000000E+00  0.00000000000E+00  0.14691162616E+03  0.46526289959E+03  0.44145955628E+03 0.  0.
      99925    2    3    3    0    0  0.93021831965E+02  0.35790810365E+02  0.10042529064E+03  0.29870200736E+03  0.26306578430E+03 0.  0.
         25    1    4    4    0    0  0.21808710808E+02  0.24722328257E+02  0.82011237934E+02  0.15316711341E+03  0.12509000000E+03 0.  0.
         25    1    4    4    0    0  0.71213121157E+02  0.11068482108E+02  0.18414052706E+02  0.14553489395E+03  0.12509000000E+03 0.  0.
         25    1    3    3    0    0 -0.93021831965E+02 -0.35790810365E+02  0.46486335522E+02  0.16656089223E+03  0.12509000000E+03 0.  0.
<mgrwt>
<rscale>  2 0.44145956E+03</rscale>
<asrwt>0</asrwt>
<pdfrwt beam="1">  1       21 0.45012833E-01 0.44145956E+03</pdfrwt>
<pdfrwt beam="2">  1       21 0.23408182E-01 0.44145956E+03</pdfrwt>
<totfact> 0.75590572E+04</totfact>
</mgrwt>
</event>
<event>
 7    0  0.4788920E-002  0.4610777E+03  0.7546771E-02  0.1024469E+00
         21   -1    0    0  502  501  0.00000000000E+00  0.00000000000E+00  0.92656812870E+02  0.92656812870E+02  0.00000000000E+00 0.  1.
         21   -1    0    0  501  502 -0.00000000000E+00 -0.00000000000E+00 -0.57360220765E+03  0.57360220765E+03  0.00000000000E+00 0.  1.
      99926    2    1    2    0    0  0.11102230246E-15  0.00000000000E+00 -0.48094539478E+03  0.66625902052E+03  0.46107766121E+03 0.  0.
      99925    2    3    3    0    0  0.65889014645E+00  0.99672010937E+02 -0.39439576914E+03  0.48439838789E+03  0.26298066769E+03 0.  0.
         25    1    3    3    0    0 -0.65889014645E+00 -0.99672010937E+02 -0.86549625645E+02  0.18186063263E+03  0.12509000000E+03 0.  0.
         25    1    4    4    0    0  0.29742180423E+01  0.66316297286E+01 -0.17282479837E+03  0.21346836655E+03  0.12509000000E+03 0.  0.
         25    1    4    4    0    0 -0.23153278959E+01  0.93040381209E+02 -0.22157097077E+03  0.27093002134E+03  0.12509000000E+03 0.  0.
<mgrwt>
<rscale>  2 0.46107766E+03</rscale>
<asrwt>0</asrwt>
<pdfrwt beam="1">  1       21 0.13626002E-01 0.46107766E+03</pdfrwt>
<pdfrwt beam="2">  1       21 0.84353265E-01 0.46107766E+03</pdfrwt>
<totfact> 0.52225389E+04</totfact>
</mgrwt>
</event>
<event>
 7    0  0.4788920E-002  0.4530213E+03  0.7546771E-02  0.1026825E+00
         21   -1    0    0  502  501  0.00000000000E+00  0.00000000000E+00  0.13706909804E+03  0.13706909804E+03  0.00000000000E+00 0.  1.
         21   -1    0    0  501  502 -0.00000000000E+00 -0.00000000000E+00 -0.37431532778E+03  0.37431532778E+03  0.00000000000E+00 0.  1.
      99926    2    1    2    0    0  0.00000000000E+00  0.00000000000E+00 -0.23724622974E+03  0.51138442582E+03  0.45302125496E+03 0.  0.
      99925    2    3    3    0    0  0.44841467769E+02 -0.97223040201E+02 -0.18364798833E+03  0.33822739778E+03  0.26307434732E+03 0.  0.
         25    1    3    3    0    0 -0.44841467769E+02  0.97223040201E+02 -0.53598241414E+02  0.17315702804E+03  0.12509000000E+03 0.  0.
         25    1    4    4    0    0  0.99598126222E+01 -0.86716866625E+02 -0.83463288662E+02  0.17387536191E+03  0.12509000000E+03 0.  0.
         25    1    4    4    0    0  0.34881655146E+02 -0.10506173576E+02 -0.10018469966E+03  0.16435203587E+03  0.12509000000E+03 0.  0.
<mgrwt>
<rscale>  2 0.45302125E+03</rscale>
<asrwt>0</asrwt>
<pdfrwt beam="1">  1       21 0.20157221E-01 0.45302125E+03</pdfrwt>
<pdfrwt beam="2">  1       21 0.55046371E-01 0.45302125E+03</pdfrwt>
<totfact> 0.65500555E+04</totfact>
</mgrwt>
</event>
<event>
 7    0  0.4788920E-002  0.4436820E+03  0.7546771E-02  0.1029623E+00
         21   -1    0    0  502  501  0.00000000000E+00  0.00000000000E+00  0.67122223299E+03  0.67122223299E+03  0.00000000000E+00 0.  1.
         21   -1    0    0  501  502 -0.00000000000E+00 -0.00000000000E+00 -0.73319115287E+02  0.73319115287E+02  0.00000000000E+00 0.  1.
      99926    2    1    2    0    0  0.35527136788E-14  0.00000000000E+00  0.59790311771E+03  0.74454134828E+03  0.44368195944E+03 0.  0.
      99925    2    3    3    0    0 -0.26319761292E+02 -0.98713312812E+02  0.38538525902E+03  0.47761739596E+03  0.26298199766E+03 0.  0.
         25    1    3    3    0    0  0.26319761292E+02  0.98713312812E+02  0.21251785869E+03  0.26692395232E+03  0.12509000000E+03 0.  0.
         25    1    4    4    0    0 -0.13600683519E+02 -0.92490036783E+02  0.21890129971E+03  0.26889528187E+03  0.12509000000E+03 0.  0.
         25    1    4    4    0    0 -0.12719077773E+02 -0.62232760289E+01  0.16648395931E+03  0.20872211409E+03  0.12509000000E+03 0.  0.
<mgrwt>
<rscale>  2 0.44368196E+03</rscale>
<asrwt>0</asrwt>
<pdfrwt beam="1">  1       21 0.98709149E-01 0.44368196E+03</pdfrwt>
<pdfrwt beam="2">  1       21 0.10782223E-01 0.44368196E+03</pdfrwt>
<totfact> 0.55309267E+04</totfact>
</mgrwt>
</event>
<event>
 7    0  0.4788920E-002  0.4525451E+03  0.7546771E-02  0.1026966E+00
         21   -1    0    0  502  501  0.00000000000E+00  0.00000000000E+00  0.36086221485E+03  0.36086221485E+03  0.00000000000E+00 0.  1.
         21   -1    0    0  501  502 -0.00000000000E+00 -0.00000000000E+00 -0.14188036148E+03  0.14188036148E+03  0.00000000000E+00 0.  1.
      99926    2    1    2    0    0 -0.71054273576E-14  0.00000000000E+00  0.21898185337E+03  0.50274257632E+03  0.45254507615E+03 0.  0.
      99925    2    3    3    0    0  0.58534798891E+02  0.92732383281E+02  0.12047414964E+03  0.30941153023E+03  0.26305105344E+03 0.  0.
         25    1    3    3    0    0 -0.58534798891E+02 -0.92732383281E+02  0.98507703725E+02  0.19333104609E+03  0.12509000000E+03 0.  0.
         25    1    4    4    0    0  0.44198246744E+02  0.76483760900E+01  0.51315524274E+02  0.14245270725E+03  0.12509000000E+03 0.  0.
         25    1    4    4    0    0  0.14336552146E+02  0.85084007191E+02  0.69158625369E+02  0.16695882298E+03  0.12509000000E+03 0.  0.
<mgrwt>
<rscale>  2 0.45254508E+03</rscale>
<asrwt>0</asrwt>
<pdfrwt beam="1">  1       21 0.53067973E-01 0.45254508E+03</pdfrwt>
<pdfrwt beam="2">  1       21 0.20864759E-01 0.45254508E+03</pdfrwt>
<totfact> 0.66362137E+04</totfact>
</mgrwt>
</event>
<event>
 7    0  0.4788920E-002  0.4402802E+03  0.7546771E-02  0.1030661E+00
         21   -1    0    0  502  501  0.00000000000E+00  0.00000000000E+00  0.22830518126E+03  0.22830518126E+03  0.00000000000E+00 0.  1.
         21   -1    0    0  501  502 -0.00000000000E+00 -0.00000000000E+00 -0.21226706194E+03  0.21226706194E+03  0.00000000000E+00 0.  1.
      99926    2    1    2    0    0  0.00000000000E+00  0.00000000000E+00  0.16038119315E+02  0.44057224320E+03  0.44028022918E+03 0.  0.
      99925    2    3    3    0    0 -0.62846353909E+02 -0.25788006924E+02 -0.61488640585E+02  0.27848402000E+03  0.26297872722E+03 0.  0.
         25    1    3    3    0    0  0.62846353909E+02  0.25788006924E+02  0.77526759900E+02  0.16208822320E+03  0.12509000000E+03 0.  0.
         25    1    4    4    0    0 -0.30850802623E+02 -0.16305113437E+02  0.10607472124E+02  0.13029833196E+03  0.12509000000E+03 0.  0.
         25    1    4    4    0    0 -0.31995551286E+02 -0.94828934864E+01 -0.72096112709E+02  0.14818568804E+03  0.12509000000E+03 0.  0.
<mgrwt>
<rscale>  2 0.44028023E+03</rscale>
<asrwt>0</asrwt>
<pdfrwt beam="1">  1       21 0.33574292E-01 0.44028023E+03</pdfrwt>
<pdfrwt beam="2">  1       21 0.31215744E-01 0.44028023E+03</pdfrwt>
<totfact> 0.78430565E+04</totfact>
</mgrwt>
</event>
<event>
 7    0  0.4788920E-002  0.4417459E+03  0.7546771E-02  0.1030212E+00
         21   -1    0    0  502  501  0.00000000000E+00  0.00000000000E+00  0.66988903873E+03  0.66988903873E+03  0.00000000000E+00 0.  1.
         21   -1    0    0  501  502 -0.00000000000E+00 -0.00000000000E+00 -0.72825289730E+02  0.72825289730E+02  0.00000000000E+00 0.  1.
      99926    2    1    2    0    0  0.88817841970E-15  0.00000000000E+00  0.59706374900E+03  0.74271432846E+03  0.44174591490E+03 0.  0.
      99925    2    3    3    0    0 -0.10665282748E+00 -0.50349954118E+02  0.23438402440E+03  0.35577864906E+03  0.26288295300E+03 0.  0.
         25    1    3    3    0    0  0.10665282748E+00  0.50349954118E+02  0.36267972460E+03  0.38693567939E+03  0.12509000000E+03 0.  0.
         25    1    4    4    0    0 -0.17593824967E+02 -0.54962067116E+02  0.93414447160E+02  0.16644560234E+03  0.12509000000E+03 0.  0.
         25    1    4    4    0    0  0.17487172139E+02  0.46121129975E+01  0.14096957724E+03  0.18933304673E+03  0.12509000000E+03 0.  0.
<mgrwt>
<rscale>  2 0.44174591E+03</rscale>
<asrwt>0</asrwt>
<pdfrwt beam="1">  1       21 0.98513091E-01 0.44174591E+03</pdfrwt>
<pdfrwt beam="2">  1       21 0.10709602E-01 0.44174591E+03</pdfrwt>
<totfact> 0.56283259E+04</totfact>
</mgrwt>
</event>
<event>
 7    0  0.4788920E-002  0.4613092E+03  0.7546771E-02  0.1024402E+00
         21   -1    0    0  502  501  0.00000000000E+00  0.00000000000E+00  0.42583924202E+02  0.42583924202E+02  0.00000000000E+00 0.  1.
         21   -1    0    0  501  502 -0.00000000000E+00 -0.00000000000E+00 -0.12493338313E+04  0.12493338313E+04  0.00000000000E+00 0.  1.
      99926    2    1    2    0    0  0.00000000000E+00  0.00000000000E+00 -0.12067499070E+04  0.12919177555E+04  0.46130916823E+03 0.  0.
      99925    2    3    3    0    0 -0.96317111934E+02 -0.69628272565E+02 -0.77430446986E+03  0.82631959541E+03  0.26292884840E+03 0.  0.
         25    1    3    3    0    0  0.96317111934E+02  0.69628272565E+02 -0.43244543719E+03  0.46559816004E+03  0.12509000000E+03 0.  0.
         25    1    4    4    0    0 -0.80435333181E+02 -0.11845036838E+02 -0.42886535624E+03  0.45407394728E+03  0.12509000000E+03 0.  0.
         25    1    4    4    0    0 -0.15881778753E+02 -0.57783235727E+02 -0.34543911362E+03  0.37224564813E+03  0.12509000000E+03 0.  0.
<mgrwt>
<rscale>  2 0.46130917E+03</rscale>
<asrwt>0</asrwt>
<pdfrwt beam="1">  1       21 0.62623411E-02 0.46130917E+03</pdfrwt>
<pdfrwt beam="2">  1       21 0.18372558E+00 0.46130917E+03</pdfrwt>
<totfact> 0.27952780E+04</totfact>
</mgrwt>
</event>
<event>
 7    0  0.4788920E-002  0.4476674E+03  0.7546771E-02  0.1028420E+00
         21   -1    0    0  502  501  0.00000000000E+00  0.00000000000E+00  0.25090496200E+03  0.25090496200E+03  0.00000000000E+00 0. -1.
         21   -1    0    0  501  502 -0.00000000000E+00 -0.00000000000E+00 -0.19968326761E+03  0.19968326761E+03  0.00000000000E+00 0. -1.
      99926    2    1    2    0    0  0.00000000000E+00  0.00000000000E+00  0.51221694390E+02  0.45058822962E+03  0.44766738846E+03 0.  0.
      99925    2    3    3    0    0  0.90581009762E+02 -0.39676763263E+02 -0.47400718930E+01  0.28159594501E+03  0.26361836638E+03 0.  0.
         25    1    4    4    0    0  0.94560373537E+01  0.55229374436E+01  0.30743797985E+01  0.12560604839E+03  0.12509000000E+03 0.  0.
         25    1    3    3    0    0 -0.90581009762E+02  0.39676763263E+02  0.55961766283E+02  0.16899228461E+03  0.12509000000E+03 0.  0.
         25    1    4    4    0    0  0.81124972408E+02 -0.45199700706E+02 -0.78144516915E+01  0.15598989662E+03  0.12509000000E+03 0.  0.
<mgrwt>
<rscale>  2 0.44766739E+03</rscale>
<asrwt>0</asrwt>
<pdfrwt beam="1">  1       21 0.36897789E-01 0.44766739E+03</pdfrwt>
<pdfrwt beam="2">  1       21 0.29365186E-01 0.44766739E+03</pdfrwt>
<totfact> 0.73051190E+04</totfact>
</mgrwt>
</event>
<event>
 7    0  0.4788920E-002  0.4541991E+03  0.7546771E-02  0.1026477E+00
         21   -1    0    0  502  501  0.00000000000E+00  0.00000000000E+00  0.68948611170E+03  0.68948611170E+03  0.00000000000E+00 0. -1.
         21   -1    0    0  501  502 -0.00000000000E+00 -0.00000000000E+00 -0.74800929246E+02  0.74800929246E+02  0.00000000000E+00 0. -1.
      99926    2    1    2    0    0 -0.14210854715E-13  0.00000000000E+00  0.61468518245E+03  0.76428704095E+03  0.45419908348E+03 0.  0.
      99925    2    3    3    0    0 -0.78916442651E+02 -0.29192660281E+02  0.51237548903E+03  0.58209264531E+03  0.26310300193E+03 0.  0.
         25    1    3    3    0    0  0.78916442651E+02  0.29192660281E+02  0.10230969342E+03  0.18219439564E+03  0.12509000000E+03 0.  0.
         25    1    4    4    0    0 -0.48178255039E+02 -0.42467324217E+02  0.32716529909E+03  0.35610287687E+03  0.12509000000E+03 0.  0.
         25    1    4    4    0    0 -0.30738187612E+02  0.13274663936E+02  0.18521018994E+03  0.22598976844E+03  0.12509000000E+03 0.  0.
<mgrwt>
<rscale>  2 0.45419908E+03</rscale>
<asrwt>0</asrwt>
<pdfrwt beam="1">  1       21 0.10139501E+00 0.45419908E+03</pdfrwt>
<pdfrwt beam="2">  1       21 0.11000137E-01 0.45419908E+03</pdfrwt>
<totfact> 0.49853213E+04</totfact>
</mgrwt>
</event>
<event>
 7    0  0.4788920E-002  0.4515571E+03  0.7546771E-02  0.1027259E+00
         21   -1    0    0  502  501  0.00000000000E+00  0.00000000000E+00  0.40303510602E+03  0.40303510602E+03  0.00000000000E+00 0.  1.
         21   -1    0    0  501  502 -0.00000000000E+00 -0.00000000000E+00 -0.12648015681E+03  0.12648015681E+03  0.00000000000E+00 0.  1.
      99926    2    1    2    0    0  0.00000000000E+00  0.00000000000E+00  0.27655494920E+03  0.52951526283E+03  0.45155705469E+03 0.  0.
      99925    2    3    3    0    0  0.68120810069E+02  0.85541786289E+02  0.16064693691E+03  0.32693190375E+03  0.26290528595E+03 0.  0.
         25    1    3    3    0    0 -0.68120810069E+02 -0.85541786289E+02  0.11590801229E+03  0.20258335909E+03  0.12509000000E+03 0.  0.
         25    1    4    4    0    0 -0.64956696916E+01  0.38814156776E+02  0.85098972605E+02  0.15632682345E+03  0.12509000000E+03 0.  0.
         25    1    4    4    0    0  0.74616479760E+02  0.46727629513E+02  0.75547964310E+02  0.17060508030E+03  0.12509000000E+03 0.  0.
<mgrwt>
<rscale>  2 0.45155705E+03</rscale>
<asrwt>0</asrwt>
<pdfrwt beam="1">  1       21 0.59269868E-01 0.45155705E+03</pdfrwt>
<pdfrwt beam="2">  1       21 0.18600023E-01 0.45155705E+03</pdfrwt>
<totfact> 0.64994132E+04</totfact>
</mgrwt>
</event>
<event>
 7    0  0.4788920E-002  0.4510533E+03  0.7546771E-02  0.1027408E+00
         21   -1    0    0  502  501  0.00000000000E+00  0.00000000000E+00  0.24331728201E+02  0.24331728201E+02  0.00000000000E+00 0. -1.
         21   -1    0    0  501  502 -0.00000000000E+00 -0.00000000000E+00 -0.20903683792E+04  0.20903683792E+04  0.00000000000E+00 0. -1.
      99926    2    1    2    0    0 -0.17763568394E-14  0.00000000000E+00 -0.20660366510E+04  0.21147001074E+04  0.45105332386E+03 0.  0.
      99925    2    3    3    0    0  0.11454906263E+02 -0.92304000056E+01 -0.79357955621E+03  0.83602462810E+03  0.26258760749E+03 0.  0.
         25    1    3    3    0    0 -0.11454906263E+02  0.92304000056E+01 -0.12724570948E+04  0.12786754793E+04  0.12509000000E+03 0.  0.
         25    1    4    4    0    0 -0.43249171677E+00 -0.20712567232E+02 -0.51201484005E+03  0.52748071246E+03  0.12509000000E+03 0.  0.
         25    1    4    4    0    0  0.11887397980E+02  0.11482167226E+02 -0.28156471616E+03  0.30854391564E+03  0.12509000000E+03 0.  0.
<mgrwt>
<rscale>  2 0.45105332E+03</rscale>
<asrwt>0</asrwt>
<pdfrwt beam="1">  1       21 0.35781948E-02 0.45105332E+03</pdfrwt>
<pdfrwt beam="2">  1       21 0.30740716E+00 0.45105332E+03</pdfrwt>
<totfact> 0.12298560E+04</totfact>
</mgrwt>
</event>
<event>
 7    0  0.4788920E-002  0.4578953E+03  0.7546771E-02  0.1025393E+00
         21   -1    0    0  502  501  0.00000000000E+00  0.00000000000E+00  0.44169437415E+02  0.44169437415E+02  0.00000000000E+00 0.  1.
         21   -1    0    0  501  502 -0.00000000000E+00 -0.00000000000E+00 -0.11867259750E+04  0.11867259750E+04  0.00000000000E+00 0.  1.
      99926    2    1    2    0    0  0.14210854715E-13  0.00000000000E+00 -0.11425565375E+04  0.12308954124E+04  0.45789526610E+03 0.  0.
      99925    2    3    3    0    0  0.74728653404E+02  0.88286116189E+02 -0.73454884755E+03  0.78874544557E+03  0.26301817146E+03 0.  0.
         25    1    4    4    0    0  0.49736069536E+02  0.37734229544E+02 -0.26577144072E+03  0.30029904344E+03  0.12509000000E+03 0.  0.
         25    1    3    3    0    0 -0.74728653404E+02 -0.88286116189E+02 -0.40800768999E+03  0.44214996680E+03  0.12509000000E+03 0.  0.
         25    1    4    4    0    0  0.24992583869E+02  0.50551886645E+02 -0.46877740683E+03  0.48844640212E+03  0.12509000000E+03 0.  0.
<mgrwt>
<rscale>  2 0.45789527E+03</rscale>
<asrwt>0</asrwt>
<pdfrwt beam="1">  1       21 0.64955050E-02 0.45789527E+03</pdfrwt>
<pdfrwt beam="2">  1       21 0.17451854E+00 0.45789527E+03</pdfrwt>
<totfact> 0.30496254E+04</totfact>
</mgrwt>
</event>
<event>
 7    0  0.4788920E-002  0.4549679E+03  0.7546771E-02  0.1026251E+00
         21   -1    0    0  502  501  0.00000000000E+00  0.00000000000E+00  0.87584246114E+02  0.87584246114E+02  0.00000000000E+00 0. -1.
         21   -1    0    0  501  502 -0.00000000000E+00 -0.00000000000E+00 -0.59084762527E+03  0.59084762527E+03  0.00000000000E+00 0. -1.
      99926    2    1    2    0    0  0.14210854715E-13  0.00000000000E+00 -0.50326337915E+03  0.67843187138E+03  0.45496788382E+03 0.  0.
      99925    2    3    3    0    0  0.10617477401E+03  0.53453804871E+01 -0.37467618050E+03  0.46990409988E+03  0.26291817572E+03 0.  0.
         25    1    3    3    0    0 -0.10617477401E+03 -0.53453804871E+01 -0.12858719865E+03  0.20852777150E+03  0.12509000000E+03 0.  0.
         25    1    4    4    0    0  0.70345958540E+02 -0.24091156984E+02 -0.15279215279E+03  0.21100210374E+03  0.12509000000E+03 0.  0.
         25    1    4    4    0    0  0.35828815467E+02  0.29436537471E+02 -0.22188402771E+03  0.25890199614E+03  0.12509000000E+03 0.  0.
<mgrwt>
<rscale>  2 0.45496788E+03</rscale>
<asrwt>0</asrwt>
<pdfrwt beam="1">  1       21 0.12880036E-01 0.45496788E+03</pdfrwt>
<pdfrwt beam="2">  1       21 0.86889360E-01 0.45496788E+03</pdfrwt>
<totfact> 0.54103862E+04</totfact>
</mgrwt>
</event>
<event>
 7    0  0.4788920E-002  0.4570210E+03  0.7546771E-02  0.1025649E+00
         21   -1    0    0  502  501  0.00000000000E+00  0.00000000000E+00  0.33089041990E+04  0.33089041990E+04  0.00000000000E+00 0.  1.
         21   -1    0    0  501  502 -0.00000000000E+00 -0.00000000000E+00 -0.15780769267E+02  0.15780769267E+02  0.00000000000E+00 0.  1.
      99926    2    1    2    0    0 -0.14210854715E-13  0.00000000000E+00  0.32931234298E+04  0.33246849683E+04  0.45702102224E+03 0.  0.
      99925    2    3    3    0    0 -0.81376043830E+02 -0.64109602050E+02  0.17037912138E+04  0.17270753469E+04  0.26296891843E+03 0.  0.
         25    1    3    3    0    0  0.81376043830E+02  0.64109602050E+02  0.15893322159E+04  0.15976096214E+04  0.12509000000E+03 0.  0.
         25    1    4    4    0    0 -0.10132575865E+02 -0.11977372700E+01  0.76947720744E+03  0.77964529405E+03  0.12509000000E+03 0.  0.
         25    1    4    4    0    0 -0.71243467965E+02 -0.62911864780E+02  0.93431400640E+03  0.94743005289E+03  0.12509000000E+03 0.  0.
<mgrwt>
<rscale>  2 0.45702102E+03</rscale>
<asrwt>0</asrwt>
<pdfrwt beam="1">  1       21 0.48660308E+00 0.45702102E+03</pdfrwt>
<pdfrwt beam="2">  1       21 0.23207037E-02 0.45702102E+03</pdfrwt>
<totfact> 0.17804181E+03</totfact>
</mgrwt>
</event>
<event>
 7    0  0.4788920E-002  0.4428480E+03  0.7546771E-02  0.1029877E+00
         21   -1    0    0  502  501  0.00000000000E+00  0.00000000000E+00  0.83524969486E+02  0.83524969486E+02  0.00000000000E+00 0.  1.
         21   -1    0    0  501  502 -0.00000000000E+00 -0.00000000000E+00 -0.58699311566E+03  0.58699311566E+03  0.00000000000E+00 0.  1.
      99926    2    1    2    0    0 -0.35527136788E-14  0.00000000000E+00 -0.50346814618E+03  0.67051808515E+03  0.44284797425E+03 0.  0.
      99925    2    3    3    0    0  0.23412943229E+02 -0.91554157050E+02 -0.37548197423E+03  0.46813652005E+03  0.26312498712E+03 0.  0.
         25    1    4    4    0    0  0.49312935001E+02 -0.43604119671E+02 -0.16463767937E+03  0.21699345239E+03  0.12509000000E+03 0.  0.
         25    1    4    4    0    0 -0.25899991772E+02 -0.47950037379E+02 -0.21084429486E+03  0.25114306766E+03  0.12509000000E+03 0.  0.
         25    1    3    3    0    0 -0.23412943229E+02  0.91554157050E+02 -0.12798617195E+03  0.20238156510E+03  0.12509000000E+03 0.  0.
<mgrwt>
<rscale>  2 0.44284797E+03</rscale>
<asrwt>0</asrwt>
<pdfrwt beam="1">  1       21 0.12283084E-01 0.44284797E+03</pdfrwt>
<pdfrwt beam="2">  1       21 0.86322518E-01 0.44284797E+03</pdfrwt>
<totfact> 0.60081198E+04</totfact>
</mgrwt>
</event>
<event>
 7    0  0.4788920E-002  0.4575208E+03  0.7546771E-02  0.1025503E+00
         21   -1    0    0  502  501  0.00000000000E+00  0.00000000000E+00  0.56454038086E+02  0.56454038086E+02  0.00000000000E+00 0.  1.
         21   -1    0    0  501  502 -0.00000000000E+00 -0.00000000000E+00 -0.92697204257E+03  0.92697204257E+03  0.00000000000E+00 0.  1.
      99926    2    1    2    0    0  0.00000000000E+00  0.00000000000E+00 -0.87051800449E+03  0.98342608066E+03  0.45752077547E+03 0.  0.
      99925    2    3    3    0    0  0.11359493140E+03  0.15823263282E+02 -0.57727537604E+03  0.64461502515E+03  0.26292106565E+03 0.  0.
         25    1    4    4    0    0  0.99360670440E+02 -0.14181891358E+01 -0.31782054928E+03  0.35571331678E+03  0.12509000000E+03 0.  0.
         25    1    4    4    0    0  0.14234260956E+02  0.17241452418E+02 -0.25945482676E+03  0.28890170836E+03  0.12509000000E+03 0.  0.
         25    1    3    3    0    0 -0.11359493140E+03 -0.15823263282E+02 -0.29324262844E+03  0.33881105551E+03  0.12509000000E+03 0.  0.
<mgrwt>
<rscale>  2 0.45752078E+03</rscale>
<asrwt>0</asrwt>
<pdfrwt beam="1">  1       21 0.83020650E-02 0.45752078E+03</pdfrwt>
<pdfrwt beam="2">  1       21 0.13631941E+00 0.45752078E+03</pdfrwt>
<totfact> 0.39040923E+04</totfact>
</mgrwt>
</event>
<event>
 7    0  0.4788920E-002  0.4481469E+03  0.7546771E-02  0.1028276E+00
         21   -1    0    0  502  501  0.00000000000E+00  0.00000000000E+00  0.24260110542E+03  0.24260110542E+03  0.00000000000E+00 0. -1.
         21   -1    0    0  501  502 -0.00000000000E+00 -0.00000000000E+00 -0.20696076277E+03  0.20696076277E+03  0.00000000000E+00 0. -1.
      99926    2    1    2    0    0  0.00000000000E+00  0.00000000000E+00  0.35640342649E+02  0.44956186820E+03  0.44814689479E+03 0.  0.
      99925    2    3    3    0    0 -0.61600476221E+02  0.58720873146E+02  0.87552264495E+02  0.28960838951E+03  0.26261161559E+03 0.  0.
         25    1    3    3    0    0  0.61600476221E+02 -0.58720873146E+02 -0.51911921846E+02  0.15995347868E+03  0.12509000000E+03 0.  0.
         25    1    4    4    0    0 -0.11427192875E+02 -0.72600286099E+01  0.45079298246E+02  0.13365231005E+03  0.12509000000E+03 0.  0.
         25    1    4    4    0    0 -0.50173283346E+02  0.65980901756E+02  0.42472966248E+02  0.15595607946E+03  0.12509000000E+03 0.  0.
<mgrwt>
<rscale>  2 0.44814689E+03</rscale>
<asrwt>0</asrwt>
<pdfrwt beam="1">  1       21 0.35676633E-01 0.44814689E+03</pdfrwt>
<pdfrwt beam="2">  1       21 0.30435406E-01 0.44814689E+03</pdfrwt>
<totfact> 0.72848601E+04</totfact>
</mgrwt>
</event>
<event>
 7    0  0.4788920E-002  0.4485903E+03  0.7546771E-02  0.1028143E+00
         21   -1    0    0  502  501  0.00000000000E+00  0.00000000000E+00  0.45532932563E+03  0.45532932563E+03  0.00000000000E+00 0. -1.
         21   -1    0    0  501  502 -0.00000000000E+00 -0.00000000000E+00 -0.11048777283E+03  0.11048777283E+03  0.00000000000E+00 0. -1.
      99926    2    1    2    0    0 -0.35527136788E-14  0.00000000000E+00  0.34484155280E+03  0.56581709846E+03  0.44859033914E+03 0.  0.
      99925    2    3    3    0    0  0.28154056067E+02 -0.10283380182E+03  0.20533146172E+03  0.35022949380E+03  0.26293011901E+03 0.  0.
         25    1    4    4    0    0 -0.18865023276E+02 -0.73651931673E+02  0.11709854555E+03  0.18745685800E+03  0.12509000000E+03 0.  0.
         25    1    4    4    0    0  0.47019079343E+02 -0.29181870149E+02  0.88232916168E+02  0.16277263579E+03  0.12509000000E+03 0.  0.
         25    1    3    3    0    0 -0.28154056067E+02  0.10283380182E+03  0.13951009108E+03  0.21558760466E+03  0.12509000000E+03 0.  0.
<mgrwt>
<rscale>  2 0.44859034E+03</rscale>
<asrwt>0</asrwt>
<pdfrwt beam="1">  1       21 0.66960194E-01 0.44859034E+03</pdfrwt>
<pdfrwt beam="2">  1       21 0.16248202E-01 0.44859034E+03</pdfrwt>
<totfact> 0.64017168E+04</totfact>
</mgrwt>
</event>
<event>
 7    0  0.4788920E-002  0.4573200E+03  0.7546771E-02  0.1025561E+00
         21   -1    0    0  502  501  0.00000000000E+00  0.00000000000E+00  0.22322420759E+03  0.22322420759E+03  0.00000000000E+00 0.  1.
         21   -1    0    0  501  502 -0.00000000000E+00 -0.00000000000E+00 -0.23422815387E+03  0.23422815387E+03  0.00000000000E+00 0.  1.
      99926    2    1    2    0    0  0.00000000000E+00  0.00000000000E+00 -0.11003946281E+02  0.45745236147E+03  0.45731999320E+03 0.  0.
      99925    2    3    3    0    0 -0.91592323538E+02 -0.48529273092E+02 -0.57641977826E+02  0.28843503051E+03  0.26292189932E+03 0.  0.
         25    1    4    4    0    0 -0.78378909103E+02  0.24816311957E+00 -0.33693886805E+02  0.15141367536E+03  0.12509000000E+03 0.  0.
         25    1    3    3    0    0  0.91592323538E+02  0.48529273092E+02  0.46638031546E+02  0.16901733096E+03  0.12509000000E+03 0.  0.
         25    1    4    4    0    0 -0.13213414435E+02 -0.48777436211E+02 -0.23948091021E+02  0.13702135515E+03  0.12509000000E+03 0.  0.
<mgrwt>
<rscale>  2 0.45731999E+03</rscale>
<asrwt>0</asrwt>
<pdfrwt beam="1">  1       21 0.32827090E-01 0.45731999E+03</pdfrwt>
<pdfrwt beam="2">  1       21 0.34445317E-01 0.45731999E+03</pdfrwt>
<totfact> 0.67115501E+04</totfact>
</mgrwt>
</event>
<event>
 7    0  0.4788920E-002  0.4580737E+03  0.7546771E-02  0.1025341E+00
         21   -1    0    0  502  501  0.00000000000E+00  0.00000000000E+00  0.16265383831E+03  0.16265383831E+03  0.00000000000E+00 0. -1.
         21   -1    0    0  501  502 -0.00000000000E+00 -0.00000000000E+00 -0.32251243789E+03  0.32251243789E+03  0.00000000000E+00 0. -1.
      99926    2    1    2    0    0  0.00000000000E+00  0.00000000000E+00 -0.15985859958E+03  0.48516627620E+03  0.45807373174E+03 0.  0.
      99925    2    3    3    0    0 -0.60068059772E+02  0.28865405313E+02 -0.20084603276E+03  0.33762353254E+03  0.26307629581E+03 0.  0.
         25    1    4    4    0    0 -0.20381877460E+02  0.11524899518E+02 -0.14773629084E+03  0.19499170231E+03  0.12509000000E+03 0.  0.
         25    1    4    4    0    0 -0.39686182312E+02  0.17340505795E+02 -0.53109741923E+02  0.14263183023E+03  0.12509000000E+03 0.  0.
         25    1    3    3    0    0  0.60068059772E+02 -0.28865405313E+02  0.40987433187E+02  0.14754274366E+03  0.12509000000E+03 0.  0.
<mgrwt>
<rscale>  2 0.45807373E+03</rscale>
<asrwt>0</asrwt>
<pdfrwt beam="1">  1       21 0.23919682E-01 0.45807373E+03</pdfrwt>
<pdfrwt beam="2">  1       21 0.47428299E-01 0.45807373E+03</pdfrwt>
<totfact> 0.64732000E+04</totfact>
</mgrwt>
</event>
<event>
 7    0  0.4788920E-002  0.4546049E+03  0.7546771E-02  0.1026358E+00
         21   -1    0    0  502  501  0.00000000000E+00  0.00000000000E+00  0.10012417459E+03  0.10012417459E+03  0.00000000000E+00 0. -1.
         21   -1    0    0  501  502 -0.00000000000E+00 -0.00000000000E+00 -0.51602316364E+03  0.51602316364E+03  0.00000000000E+00 0. -1.
      99926    2    1    2    0    0  0.00000000000E+00  0.00000000000E+00 -0.41589898904E+03  0.61614733823E+03  0.45460485405E+03 0.  0.
      99925    2    3    3    0    0 -0.69011742776E+02 -0.74370313079E+02 -0.32830409007E+03  0.43280629390E+03  0.26314282886E+03 0.  0.
         25    1    4    4    0    0 -0.19329634256E+02 -0.39159210753E+02 -0.21866062634E+03  0.25566981863E+03  0.12509000000E+03 0.  0.
         25    1    3    3    0    0  0.69011742776E+02  0.74370313079E+02 -0.87594898971E+02  0.18334104433E+03  0.12509000000E+03 0.  0.
         25    1    4    4    0    0 -0.49682108520E+02 -0.35211102326E+02 -0.10964346373E+03  0.17713647527E+03  0.12509000000E+03 0.  0.
<mgrwt>
<rscale>  2 0.45460485E+03</rscale>
<asrwt>0</asrwt>
<pdfrwt beam="1">  1       21 0.14724143E-01 0.45460485E+03</pdfrwt>
<pdfrwt beam="2">  1       21 0.75885760E-01 0.45460485E+03</pdfrwt>
<totfact> 0.57875604E+04</totfact>
</mgrwt>
</event>
<event>
 7    0  0.4788920E-002  0.4544219E+03  0.7546771E-02  0.1026412E+00
         21   -1    0    0  502  501  0.00000000000E+00  0.00000000000E+00  0.98912180374E+02  0.98912180374E+02  0.00000000000E+00 0. -1.
         21   -1    0    0  501  502 -0.00000000000E+00 -0.00000000000E+00 -0.52192567951E+03  0.52192567951E+03  0.00000000000E+00 0. -1.
      99926    2    1    2    0    0  0.00000000000E+00  0.14210854715E-13 -0.42301349914E+03  0.62083785989E+03  0.45442186107E+03 0.  0.
      99925    2    3    3    0    0 -0.37225638978E+02 -0.10501037313E+03 -0.28880844040E+03  0.40619529059E+03  0.26300450983E+03 0.  0.
         25    1    4    4    0    0  0.11542624894E+02 -0.22698575358E+02 -0.14118131241E+03  0.19033688184E+03  0.12509000000E+03 0.  0.
         25    1    4    4    0    0 -0.48768263872E+02 -0.82311797769E+02 -0.14762712799E+03  0.21585840876E+03  0.12509000000E+03 0.  0.
         25    1    3    3    0    0  0.37225638978E+02  0.10501037313E+03 -0.13420505874E+03  0.21464256929E+03  0.12509000000E+03 0.  0.
<mgrwt>
<rscale>  2 0.45442186E+03</rscale>
<asrwt>0</asrwt>
<pdfrwt beam="1">  1       21 0.14545909E-01 0.45442186E+03</pdfrwt>
<pdfrwt beam="2">  1       21 0.76753775E-01 0.45442186E+03</pdfrwt>
<totfact> 0.57676484E+04</totfact>
</mgrwt>
</event>
<event>
 7    0  0.4788920E-002  0.4507714E+03  0.7546771E-02  0.1027492E+00
         21   -1    0    0  502  501  0.00000000000E+00  0.00000000000E+00  0.26671162826E+03  0.26671162826E+03  0.00000000000E+00 0. -1.
         21   -1    0    0  501  502 -0.00000000000E+00 -0.00000000000E+00 -0.19046302944E+03  0.19046302944E+03  0.00000000000E+00 0. -1.
      99926    2    1    2    0    0 -0.35527136788E-14  0.00000000000E+00  0.76248598826E+02  0.45717465770E+03  0.45077135980E+03 0.  0.
      99925    2    3    3    0    0 -0.30942779318E+02 -0.77209554709E+02 -0.23733594209E+02  0.27672322946E+03  0.26285678857E+03 0.  0.
         25    1    4    4    0    0  0.40646146076E+01 -0.21514953211E+01 -0.19149034091E+02  0.12663073731E+03  0.12509000000E+03 0.  0.
         25    1    4    4    0    0 -0.35007393925E+02 -0.75058059387E+02 -0.45845601175E+01  0.15009249215E+03  0.12509000000E+03 0.  0.
         25    1    3    3    0    0  0.30942779318E+02  0.77209554709E+02  0.99982193035E+02  0.18045142824E+03  0.12509000000E+03 0.  0.
<mgrwt>
<rscale>  2 0.45077136E+03</rscale>
<asrwt>0</asrwt>
<pdfrwt beam="1">  1       21 0.39222299E-01 0.45077136E+03</pdfrwt>
<pdfrwt beam="2">  1       21 0.28009269E-01 0.45077136E+03</pdfrwt>
<totfact> 0.70742437E+04</totfact>
</mgrwt>
</event>
<event>
 7    0  0.4788920E-002  0.4573991E+03  0.7546771E-02  0.1025538E+00
         21   -1    0    0  502  501  0.00000000000E+00  0.00000000000E+00  0.47469576301E+02  0.47469576301E+02  0.00000000000E+00 0.  1.
         21   -1    0    0  501  502 -0.00000000000E+00 -0.00000000000E+00 -0.11018316369E+04  0.11018316369E+04  0.00000000000E+00 0.  1.
      99926    2    1    2    0    0 -0.35527136788E-14  0.71054273576E-14 -0.10543620606E+04  0.11493012132E+04  0.45739908596E+03 0.  0.
      99925    2    3    3    0    0 -0.28617686569E+02 -0.48406968068E+02 -0.40868416482E+03  0.48921814287E+03  0.26296280763E+03 0.  0.
         25    1    4    4    0    0 -0.50645093051E+02 -0.13121309729E+02 -0.23292965669E+03  0.26951962319E+03  0.12509000000E+03 0.  0.
         25    1    3    3    0    0  0.28617686569E+02  0.48406968068E+02 -0.64567789581E+03  0.66008307036E+03  0.12509000000E+03 0.  0.
         25    1    4    4    0    0  0.22027406482E+02 -0.35285658339E+02 -0.17575450812E+03  0.21969851967E+03  0.12509000000E+03 0.  0.
<mgrwt>
<rscale>  2 0.45739909E+03</rscale>
<asrwt>0</asrwt>
<pdfrwt beam="1">  1       21 0.69808210E-02 0.45739909E+03</pdfrwt>
<pdfrwt beam="2">  1       21 0.16203404E+00 0.45739909E+03</pdfrwt>
<totfact> 0.33180942E+04</totfact>
</mgrwt>
</event>
<event>
 7    0  0.4788920E-002  0.4614226E+03  0.7546771E-02  0.1024369E+00
         21   -1    0    0  502  501  0.00000000000E+00  0.00000000000E+00  0.10752831011E+03  0.10752831011E+03  0.00000000000E+00 0. -1.
         21   -1    0    0  501  502 -0.00000000000E+00 -0.00000000000E+00 -0.49501113776E+03  0.49501113776E+03  0.00000000000E+00 0. -1.
      99926    2    1    2    0    0  0.00000000000E+00  0.00000000000E+00 -0.38748282765E+03  0.60253944788E+03  0.46142263114E+03 0.  0.
      99925    2    3    3    0    0 -0.86847174303E+02  0.34774712569E+02 -0.14603520882E+03  0.31497002485E+03  0.26292227373E+03 0.  0.
         25    1    3    3    0    0  0.86847174303E+02 -0.34774712569E+02 -0.24144761883E+03  0.28756942302E+03  0.12509000000E+03 0.  0.
         25    1    4    4    0    0 -0.63592689991E+01  0.29450443046E+02 -0.84350821136E+02  0.15385167540E+03  0.12509000000E+03 0.  0.
         25    1    4    4    0    0 -0.80487905304E+02  0.53242695236E+01 -0.61684387684E+02  0.16111834945E+03  0.12509000000E+03 0.  0.
<mgrwt>
<rscale>  2 0.46142263E+03</rscale>
<asrwt>0</asrwt>
<pdfrwt beam="1">  1       21 0.15812987E-01 0.46142263E+03</pdfrwt>
<pdfrwt beam="2">  1       21 0.72795756E-01 0.46142263E+03</pdfrwt>
<totfact> 0.55644354E+04</totfact>
</mgrwt>
</event>
<event>
 7    0  0.4788920E-002  0.4625327E+03  0.7546771E-02  0.1024049E+00
         21   -1    0    0  502  501  0.00000000000E+00  0.00000000000E+00  0.17958034306E+03  0.17958034306E+03  0.00000000000E+00 0.  1.
         21   -1    0    0  501  502 -0.00000000000E+00 -0.00000000000E+00 -0.29782837167E+03  0.29782837167E+03  0.00000000000E+00 0.  1.
      99926    2    1    2    0    0  0.00000000000E+00  0.00000000000E+00 -0.11824802861E+03  0.47740871473E+03  0.46253268494E+03 0.  0.
      99925    2    3    3    0    0 -0.93656296573E+02 -0.96831933489E+01  0.34542251187E+01  0.27910537945E+03  0.26272155421E+03 0.  0.
         25    1    3    3    0    0  0.93656296573E+02  0.96831933489E+01 -0.12170225372E+03  0.19830333528E+03  0.12509000000E+03 0.  0.
         25    1    4    4    0    0 -0.13535103766E+02 -0.21945287757E+02 -0.16268621561E+02  0.12875158576E+03  0.12509000000E+03 0.  0.
         25    1    4    4    0    0 -0.80121192808E+02  0.12262094408E+02  0.19722846680E+02  0.15035379369E+03  0.12509000000E+03 0.  0.
<mgrwt>
<rscale>  2 0.46253268E+03</rscale>
<asrwt>0</asrwt>
<pdfrwt beam="1">  1       21 0.26408874E-01 0.46253268E+03</pdfrwt>
<pdfrwt beam="2">  1       21 0.43798289E-01 0.46253268E+03</pdfrwt>
<totfact> 0.63036430E+04</totfact>
</mgrwt>
</event>
<event>
 7    0  0.4788920E-002  0.4584288E+03  0.7546771E-02  0.1025238E+00
         21   -1    0    0  502  501  0.00000000000E+00  0.00000000000E+00  0.41069379965E+02  0.41069379965E+02  0.00000000000E+00 0.  1.
         21   -1    0    0  501  502 -0.00000000000E+00 -0.00000000000E+00 -0.12792801427E+04  0.12792801427E+04  0.00000000000E+00 0.  1.
      99926    2    1    2    0    0  0.00000000000E+00  0.00000000000E+00 -0.12382107627E+04  0.13203495226E+04  0.45842880477E+03 0.  0.
      99925    2    3    3    0    0 -0.31615220933E+02  0.77132785194E+02 -0.54290157810E+03  0.60897665343E+03  0.26298565013E+03 0.  0.
         25    1    4    4    0    0  0.77249289562E+01  0.14297116558E+02 -0.19917437632E+03  0.23575839827E+03  0.12509000000E+03 0.  0.
         25    1    3    3    0    0  0.31615220933E+02 -0.77132785194E+02 -0.69530918460E+03  0.71137286920E+03  0.12509000000E+03 0.  0.
         25    1    4    4    0    0 -0.39340149889E+02  0.62835668636E+02 -0.34372720178E+03  0.37321825517E+03  0.12509000000E+03 0.  0.
<mgrwt>
<rscale>  2 0.45842880E+03</rscale>
<asrwt>0</asrwt>
<pdfrwt beam="1">  1       21 0.60396152E-02 0.45842880E+03</pdfrwt>
<pdfrwt beam="2">  1       21 0.18812942E+00 0.45842880E+03</pdfrwt>
<totfact> 0.27781267E+04</totfact>
</mgrwt>
</event>
<event>
 7    0  0.4788920E-002  0.4554186E+03  0.7546771E-02  0.1026118E+00
         21   -1    0    0  502  501  0.00000000000E+00  0.00000000000E+00  0.13811401353E+03  0.13811401353E+03  0.00000000000E+00 0. -1.
         21   -1    0    0  501  502 -0.00000000000E+00 -0.00000000000E+00 -0.37542558832E+03  0.37542558832E+03  0.00000000000E+00 0. -1.
      99926    2    1    2    0    0  0.00000000000E+00  0.00000000000E+00 -0.23731157479E+03  0.51353960184E+03  0.45541864162E+03 0.  0.
      99925    2    3    3    0    0  0.10287901878E+03 -0.15464827522E+02 -0.20093654030E+03  0.34682456165E+03  0.26284697057E+03 0.  0.
         25    1    4    4    0    0  0.11147835423E+02 -0.10110642679E+02 -0.72495876601E+02  0.14536044701E+03  0.12509000000E+03 0.  0.
         25    1    4    4    0    0  0.91731183352E+02 -0.53541848432E+01 -0.12844066370E+03  0.20146411464E+03  0.12509000000E+03 0.  0.
         25    1    3    3    0    0 -0.10287901878E+03  0.15464827522E+02 -0.36375034487E+02  0.16671504020E+03  0.12509000000E+03 0.  0.
<mgrwt>
<rscale>  2 0.45541864E+03</rscale>
<asrwt>0</asrwt>
<pdfrwt beam="1">  1       21 0.20310885E-01 0.45541864E+03</pdfrwt>
<pdfrwt beam="2">  1       21 0.55209645E-01 0.45541864E+03</pdfrwt>
<totfact> 0.64116284E+04</totfact>
</mgrwt>
</event>
<event>
 7    0  0.4788920E-002  0.4514860E+03  0.7546771E-02  0.1027280E+00
         21   -1    0    0  502  501  0.00000000000E+00  0.00000000000E+00  0.38331683671E+03  0.38331683671E+03  0.00000000000E+00 0.  1.
         21   -1    0    0  501  502 -0.00000000000E+00 -0.00000000000E+00 -0.13294459563E+03  0.13294459563E+03  0.00000000000E+00 0.  1.
      99926    2    1    2    0    0  0.00000000000E+00  0.00000000000E+00  0.25037224108E+03  0.51626143235E+03  0.45148599914E+03 0.  0.
      99925    2    3    3    0    0 -0.90101337656E+01 -0.10883635130E+03  0.14519384669E+03  0.31969964404E+03  0.26305907209E+03 0.  0.
         25    1    4    4    0    0  0.22857560579E+01 -0.62279704488E+02  0.29794708563E+02  0.14289583280E+03  0.12509000000E+03 0.  0.
         25    1    3    3    0    0  0.90101337656E+01  0.10883635130E+03  0.10517839439E+03  0.19656178830E+03  0.12509000000E+03 0.  0.
         25    1    4    4    0    0 -0.11295889824E+02 -0.46556646813E+02  0.11539913813E+03  0.17680381125E+03  0.12509000000E+03 0.  0.
<mgrwt>
<rscale>  2 0.45148600E+03</rscale>
<asrwt>0</asrwt>
<pdfrwt beam="1">  1       21 0.56370123E-01 0.45148600E+03</pdfrwt>
<pdfrwt beam="2">  1       21 0.19550676E-01 0.45148600E+03</pdfrwt>
<totfact> 0.65962697E+04</totfact>
</mgrwt>
</event>
<event>
 7    0  0.4788920E-002  0.4562731E+03  0.7546771E-02  0.1025868E+00
         21   -1    0    0  502  501  0.00000000000E+00  0.00000000000E+00  0.45045021280E+03  0.45045021280E+03  0.00000000000E+00 0. -1.
         21   -1    0    0  501  502 -0.00000000000E+00 -0.00000000000E+00 -0.11554282274E+03  0.11554282274E+03  0.00000000000E+00 0. -1.
      99926    2    1    2    0    0  0.00000000000E+00  0.00000000000E+00  0.33490739006E+03  0.56599303554E+03  0.45627311598E+03 0.  0.
      99925    2    3    3    0    0 -0.18677474111E+02  0.52131952685E+02  0.33459968759E+03  0.42919321350E+03  0.26302713748E+03 0.  0.
         25    1    3    3    0    0  0.18677474111E+02 -0.52131952685E+02  0.30770247469E+00  0.13679982204E+03  0.12509000000E+03 0.  0.
         25    1    4    4    0    0  0.76773498083E+01 -0.77823311364E+01  0.13126987514E+03  0.18165570345E+03  0.12509000000E+03 0.  0.
         25    1    4    4    0    0 -0.26354823919E+02  0.59914283821E+02  0.20332981245E+03  0.24753751005E+03  0.12509000000E+03 0.  0.
<mgrwt>
<rscale>  2 0.45627312E+03</rscale>
<asrwt>0</asrwt>
<pdfrwt beam="1">  1       21 0.66242678E-01 0.45627312E+03</pdfrwt>
<pdfrwt beam="2">  1       21 0.16991592E-01 0.45627312E+03</pdfrwt>
<totfact> 0.60213325E+04</totfact>
</mgrwt>
</event>
<event>
 7    0  0.4788920E-002  0.4584427E+03  0.7546771E-02  0.1025234E+00
         21   -1    0    0  502  501  0.00000000000E+00  0.00000000000E+00  0.12798763735E+03  0.12798763735E+03  0.00000000000E+00 0.  1.
         21   -1    0    0  501  502 -0.00000000000E+00 -0.00000000000E+00 -0.41052730438E+03  0.41052730438E+03  0.00000000000E+00 0.  1.
      99926    2    1    2    0    0  0.14210854715E-13  0.00000000000E+00 -0.28253966703E+03  0.53851494173E+03  0.45844266711E+03 0.  0.
      99925    2    3    3    0    0  0.93787921141E+02  0.36837505543E+02 -0.10871383981E+03  0.30183773059E+03  0.26293371916E+03 0.  0.
         25    1    4    4    0    0  0.32005558125E+02  0.22645875182E+02 -0.92991479418E+02  0.16072372183E+03  0.12509000000E+03 0.  0.
         25    1    4    4    0    0  0.61782363015E+02  0.14191630360E+02 -0.15722360393E+02  0.14111400876E+03  0.12509000000E+03 0.  0.
         25    1    3    3    0    0 -0.93787921141E+02 -0.36837505543E+02 -0.17382582722E+03  0.23667721115E+03  0.12509000000E+03 0.  0.
<mgrwt>
<rscale>  2 0.45844267E+03</rscale>
<asrwt>0</asrwt>
<pdfrwt beam="1">  1       21 0.18821711E-01 0.45844267E+03</pdfrwt>
<pdfrwt beam="2">  1       21 0.60371662E-01 0.45844267E+03</pdfrwt>
<totfact> 0.60953656E+04</totfact>
</mgrwt>
</event>
<event>
 7    0  0.4788920E-002  0.4601901E+03  0.7546771E-02  0.1024726E+00
         21   -1    0    0  502  501  0.00000000000E+00  0.00000000000E+00  0.70548881205E+03  0.70548881205E+03  0.00000000000E+00 0. -1.
         21   -1    0    0  501  502 -0.00000000000E+00 -0.00000000000E+00 -0.75045457728E+02  0.75045457728E+02  0.00000000000E+00 0. -1.
      99926    2    1    2    0    0  0.00000000000E+00  0.00000000000E+00  0.63044335432E+03  0.78053426978E+03  0.46019009473E+03 0.  0.
      99925    2    3    3    0    0  0.49254082400E+02  0.66832421200E+02  0.53708589193E+03  0.60374156336E+03  0.26296403341E+03 0.  0.
         25    1    3    3    0    0 -0.49254082400E+02 -0.66832421200E+02  0.93357462392E+02  0.17679270641E+03  0.12509000000E+03 0.  0.
         25    1    4    4    0    0  0.16550478661E+02 -0.77396062075E+01  0.25367565960E+03  0.28343018227E+03  0.12509000000E+03 0.  0.
         25    1    4    4    0    0  0.32703603739E+02  0.74572027408E+02  0.28341023233E+03  0.32031138109E+03  0.12509000000E+03 0.  0.
<mgrwt>
<rscale>  2 0.46019009E+03</rscale>
<asrwt>0</asrwt>
<pdfrwt beam="1">  1       21 0.10374835E+00 0.46019009E+03</pdfrwt>
<pdfrwt beam="2">  1       21 0.11036097E-01 0.46019009E+03</pdfrwt>
<totfact> 0.46785552E+04</totfact>
</mgrwt>
</event>
<event>
 7    0  0.4788920E-002  0.4495649E+03  0.7546771E-02  0.1027852E+00
         21   -1    0    0  502  501  0.00000000000E+00  0.00000000000E+00  0.49691331471E+03  0.49691331471E+03  0.00000000000E+00 0.  1.
         21   -1    0    0  501  502 -0.00000000000E+00 -0.00000000000E+00 -0.10168201203E+03  0.10168201203E+03  0.00000000000E+00 0.  1.
      99926    2    1    2    0    0  0.00000000000E+00  0.00000000000E+00  0.39523130268E+03  0.59859532674E+03  0.44956488138E+03 0.  0.
      99925    2    3    3    0    0 -0.46185972641E+02 -0.58840492743E+02  0.35390446340E+03  0.44710023309E+03  0.26278299328E+03 0.  0.
         25    1    3    3    0    0  0.46185972641E+02  0.58840492743E+02  0.41326839277E+02  0.15149509365E+03  0.12509000000E+03 0.  0.
         25    1    4    4    0    0 -0.22452803488E+02 -0.19988272524E+02  0.23821883769E+03  0.27073858637E+03  0.12509000000E+03 0.  0.
         25    1    4    4    0    0 -0.23733169153E+02 -0.38852220218E+02  0.11568562572E+03  0.17636164671E+03  0.12509000000E+03 0.  0.
<mgrwt>
<rscale>  2 0.44956488E+03</rscale>
<asrwt>0</asrwt>
<pdfrwt beam="1">  1       21 0.73075486E-01 0.44956488E+03</pdfrwt>
<pdfrwt beam="2">  1       21 0.14953237E-01 0.44956488E+03</pdfrwt>
<totfact> 0.61357662E+04</totfact>
</mgrwt>
</event>
<event>
 7    0  0.4788920E-002  0.4561606E+03  0.7546771E-02  0.1025901E+00
         21   -1    0    0  502  501  0.00000000000E+00  0.00000000000E+00  0.14170463449E+04  0.14170463449E+04  0.00000000000E+00 0.  1.
         21   -1    0    0  501  502 -0.00000000000E+00 -0.00000000000E+00 -0.36710600874E+02  0.36710600874E+02  0.00000000000E+00 0.  1.
      99926    2    1    2    0    0 -0.14210854715E-13  0.14210854715E-13  0.13803357440E+04  0.14537569457E+04  0.45616059798E+03 0.  0.
      99925    2    3    3    0    0 -0.71166707646E+02  0.84576306988E+02  0.78048904370E+03  0.83111625968E+03  0.26338799858E+03 0.  0.
         25    1    4    4    0    0 -0.15816038290E+02  0.72553829707E+02  0.34269395537E+03  0.37229136496E+03  0.12509000000E+03 0.  0.
         25    1    4    4    0    0 -0.55350669356E+02  0.12022477281E+02  0.43779508833E+03  0.45882489473E+03  0.12509000000E+03 0.  0.
         25    1    3    3    0    0  0.71166707646E+02 -0.84576306988E+02  0.59984670029E+03  0.62264068605E+03  0.12509000000E+03 0.  0.
<mgrwt>
<rscale>  2 0.45616060E+03</rscale>
<asrwt>0</asrwt>
<pdfrwt beam="1">  1       21 0.20838913E+00 0.45616060E+03</pdfrwt>
<pdfrwt beam="2">  1       21 0.53986187E-02 0.45616060E+03</pdfrwt>
<totfact> 0.24710409E+04</totfact>
</mgrwt>
</event>
<event>
 7    0  0.4788920E-002  0.4564733E+03  0.7546771E-02  0.1025809E+00
         21   -1    0    0  502  501  0.00000000000E+00  0.00000000000E+00  0.10330570005E+03  0.10330570005E+03  0.00000000000E+00 0.  1.
         21   -1    0    0  501  502 -0.00000000000E+00 -0.00000000000E+00 -0.50425076209E+03  0.50425076209E+03  0.00000000000E+00 0.  1.
      99926    2    1    2    0    0  0.71054273576E-14  0.00000000000E+00 -0.40094506205E+03  0.60755646214E+03  0.45647334195E+03 0.  0.
      99925    2    3    3    0    0 -0.61081091979E+02 -0.76041023542E+02 -0.33189124543E+03  0.43455624611E+03  0.26300987657E+03 0.  0.
         25    1    4    4    0    0  0.75818907111E+01 -0.18614151427E+02 -0.15018770982E+03  0.19648874772E+03  0.12509000000E+03 0.  0.
         25    1    4    4    0    0 -0.68662982690E+02 -0.57426872115E+02 -0.18170353561E+03  0.23806749838E+03  0.12509000000E+03 0.  0.
         25    1    3    3    0    0  0.61081091979E+02  0.76041023542E+02 -0.69053816614E+02  0.17300021603E+03  0.12509000000E+03 0.  0.
<mgrwt>
<rscale>  2 0.45647334E+03</rscale>
<asrwt>0</asrwt>
<pdfrwt beam="1">  1       21 0.15192015E-01 0.45647334E+03</pdfrwt>
<pdfrwt beam="2">  1       21 0.74154523E-01 0.45647334E+03</pdfrwt>
<totfact> 0.57542886E+04</totfact>
</mgrwt>
</event>
<event>
 7    0  0.4788920E-002  0.4586608E+03  0.7546771E-02  0.1025170E+00
         21   -1    0    0  502  501  0.00000000000E+00  0.00000000000E+00  0.16275911414E+03  0.16275911414E+03  0.00000000000E+00 0. -1.
         21   -1    0    0  501  502 -0.00000000000E+00 -0.00000000000E+00 -0.32313050030E+03  0.32313050030E+03  0.00000000000E+00 0. -1.
      99926    2    1    2    0    0  0.35527136788E-14  0.00000000000E+00 -0.16037138616E+03  0.48588961443E+03  0.45866080704E+03 0.  0.
      99925    2    3    3    0    0  0.92025459714E+01  0.79881785080E+02 -0.19002466012E+03  0.33425646767E+03  0.26296811268E+03 0.  0.
         25    1    4    4    0    0 -0.31399999792E+02  0.39981554817E+02 -0.11679422772E+03  0.17852978586E+03  0.12509000000E+03 0.  0.
         25    1    3    3    0    0 -0.92025459714E+01 -0.79881785080E+02  0.29653273963E+02  0.15163314676E+03  0.12509000000E+03 0.  0.
         25    1    4    4    0    0  0.40602545764E+02  0.39900230263E+02 -0.73230432403E+02  0.15572668181E+03  0.12509000000E+03 0.  0.
<mgrwt>
<rscale>  2 0.45866081E+03</rscale>
<asrwt>0</asrwt>
<pdfrwt beam="1">  1       21 0.23935164E-01 0.45866081E+03</pdfrwt>
<pdfrwt beam="2">  1       21 0.47519191E-01 0.45866081E+03</pdfrwt>
<totfact> 0.64382415E+04</totfact>
</mgrwt>
</event>
<event>
 7    0  0.4788920E-002  0.4534428E+03  0.7546771E-02  0.1026700E+00
         21   -1    0    0  502  501  0.00000000000E+00  0.00000000000E+00  0.19194226476E+04  0.19194226476E+04  0.00000000000E+00 0.  1.
         21   -1    0    0  501  502 -0.00000000000E+00 -0.00000000000E+00 -0.26780242216E+02  0.26780242216E+02  0.00000000000E+00 0.  1.
      99926    2    1    2    0    0  0.00000000000E+00  0.00000000000E+00  0.18926424054E+04  0.19462028899E+04  0.45344284499E+03 0.  0.
      99925    2    3    3    0    0  0.97627785368E+02  0.51613595792E+02  0.11323720520E+04  0.11678368666E+04  0.26340336960E+03 0.  0.
         25    1    4    4    0    0  0.83094808756E+02  0.12028183982E+02  0.51918006169E+03  0.54059677118E+03  0.12509000000E+03 0.  0.
         25    1    3    3    0    0 -0.97627785368E+02 -0.51613595792E+02  0.76027035343E+03  0.77836602325E+03  0.12509000000E+03 0.  0.
         25    1    4    4    0    0  0.14532976612E+02  0.39585411810E+02  0.61319199031E+03  0.62724009543E+03  0.12509000000E+03 0.  0.
<mgrwt>
<rscale>  2 0.45344284E+03</rscale>
<asrwt>0</asrwt>
<pdfrwt beam="1">  1       21 0.28226794E+00 0.45344284E+03</pdfrwt>
<pdfrwt beam="2">  1       21 0.39382722E-02 0.45344284E+03</pdfrwt>
<totfact> 0.14786143E+04</totfact>
</mgrwt>
</event>
<event>
 7    0  0.4788920E-002  0.4615563E+03  0.7546771E-02  0.1024331E+00
         21   -1    0    0  502  501  0.00000000000E+00  0.00000000000E+00  0.65162075861E+03  0.65162075861E+03  0.00000000000E+00 0.  1.
         21   -1    0    0  501  502 -0.00000000000E+00 -0.00000000000E+00 -0.81732451354E+02  0.81732451354E+02  0.00000000000E+00 0.  1.
      99926    2    1    2    0    0  0.13322676296E-14  0.00000000000E+00  0.56988830725E+03  0.73335320996E+03  0.46155633222E+03 0.  0.
      99925    2    3    3    0    0  0.54878165203E+00 -0.35213524158E+02  0.17563242231E+03  0.31823213804E+03  0.26302975586E+03 0.  0.
         25    1    4    4    0    0  0.21341808405E+02 -0.23289132138E+01  0.49052735318E+02  0.13606827538E+03  0.12509000000E+03 0.  0.
         25    1    4    4    0    0 -0.20793026753E+02 -0.32884610944E+02  0.12657968699E+03  0.18216386266E+03  0.12509000000E+03 0.  0.
         25    1    3    3    0    0 -0.54878165203E+00  0.35213524158E+02  0.39425588494E+03  0.41512107192E+03  0.12509000000E+03 0.  0.
<mgrwt>
<rscale>  2 0.46155633E+03</rscale>
<asrwt>0</asrwt>
<pdfrwt beam="1">  1       21 0.95826580E-01 0.46155633E+03</pdfrwt>
<pdfrwt beam="2">  1       21 0.12019478E-01 0.46155633E+03</pdfrwt>
<totfact> 0.48576190E+04</totfact>
</mgrwt>
</event>
<event>
 7    0  0.4788920E-002  0.4544213E+03  0.7546771E-02  0.1026412E+00
         21   -1    0    0  502  501  0.00000000000E+00  0.00000000000E+00  0.35280394411E+03  0.35280394411E+03  0.00000000000E+00 0. -1.
         21   -1    0    0  501  502 -0.00000000000E+00 -0.00000000000E+00 -0.14632683617E+03  0.14632683617E+03  0.00000000000E+00 0. -1.
      99926    2    1    2    0    0  0.00000000000E+00  0.00000000000E+00  0.20647710794E+03  0.49913078028E+03  0.45442132401E+03 0.  0.
      99925    2    3    3    0    0 -0.61212864874E+02 -0.71509175026E+02  0.19796512841E+03  0.34234896107E+03  0.26296775875E+03 0.  0.
         25    1    4    4    0    0 -0.46961525050E+02 -0.14915697600E+02  0.60125788301E+02  0.14727688681E+03  0.12509000000E+03 0.  0.
         25    1    3    3    0    0  0.61212864874E+02  0.71509175026E+02  0.85119795331E+01  0.15678181921E+03  0.12509000000E+03 0.  0.
         25    1    4    4    0    0 -0.14251339824E+02 -0.56593477426E+02  0.13783934011E+03  0.19507207426E+03  0.12509000000E+03 0.  0.
<mgrwt>
<rscale>  2 0.45442132E+03</rscale>
<asrwt>0</asrwt>
<pdfrwt beam="1">  1       21 0.51882933E-01 0.45442132E+03</pdfrwt>
<pdfrwt beam="2">  1       21 0.21518652E-01 0.45442132E+03</pdfrwt>
<totfact> 0.65632742E+04</totfact>
</mgrwt>
</event>
<event>
 7    0  0.4788920E-002  0.4522717E+03  0.7546771E-02  0.1027047E+00
         21   -1    0    0  502  501  0.00000000000E+00  0.00000000000E+00  0.75416750195E+02  0.75416750195E+02  0.00000000000E+00 0.  1.
         21   -1    0    0  501  502 -0.00000000000E+00 -0.00000000000E+00 -0.67806456182E+03  0.67806456182E+03  0.00000000000E+00 0.  1.
      99926    2    1    2    0    0  0.00000000000E+00  0.00000000000E+00 -0.60264781163E+03  0.75348131202E+03  0.45227171336E+03 0.  0.
      99925    2    3    3    0    0  0.88840332390E+02  0.62459912235E+02 -0.41500495770E+03  0.50317910663E+03  0.26299477776E+03 0.  0.
         25    1    4    4    0    0  0.29130839329E+02  0.34133737132E+02 -0.13485420285E+03  0.18933272812E+03  0.12509000000E+03 0.  0.
         25    1    4    4    0    0  0.59709493061E+02  0.28326175103E+02 -0.28015075485E+03  0.31384637850E+03  0.12509000000E+03 0.  0.
         25    1    3    3    0    0 -0.88840332390E+02 -0.62459912235E+02 -0.18764285393E+03  0.25030220539E+03  0.12509000000E+03 0.  0.
<mgrwt>
<rscale>  2 0.45227171E+03</rscale>
<asrwt>0</asrwt>
<pdfrwt beam="1">  1       21 0.11090700E-01 0.45227171E+03</pdfrwt>
<pdfrwt beam="2">  1       21 0.99715368E-01 0.45227171E+03</pdfrwt>
<totfact> 0.51182216E+04</totfact>
</mgrwt>
</event>
<event>
 7    0  0.4788920E-002  0.4505347E+03  0.7546771E-02  0.1027563E+00
         21   -1    0    0  502  501  0.00000000000E+00  0.00000000000E+00  0.91086877865E+03  0.91086877865E+03  0.00000000000E+00 0. -1.
         21   -1    0    0  501  502 -0.00000000000E+00 -0.00000000000E+00 -0.55710968438E+02  0.55710968438E+02  0.00000000000E+00 0. -1.
      99926    2    1    2    0    0  0.88817841970E-15  0.00000000000E+00  0.85515781022E+03  0.96657974709E+03  0.45053471244E+03 0.  0.
      99925    2    3    3    0    0 -0.58915627121E+01 -0.11006143363E+03  0.53503046358E+03  0.60564033965E+03  0.26152321955E+03 0.  0.
         25    1    3    3    0    0  0.58915627121E+01  0.11006143363E+03  0.32012734663E+03  0.36093940744E+03  0.12509000000E+03 0.  0.
         25    1    4    4    0    0 -0.20824437359E+02 -0.73170728802E+02  0.34395897319E+03  0.37382201123E+03  0.12509000000E+03 0.  0.
         25    1    4    4    0    0  0.14932874647E+02 -0.36890704827E+02  0.19107149040E+03  0.23181832842E+03  0.12509000000E+03 0.  0.
<mgrwt>
<rscale>  2 0.45053471E+03</rscale>
<asrwt>0</asrwt>
<pdfrwt beam="1">  1       21 0.13395128E+00 0.45053471E+03</pdfrwt>
<pdfrwt beam="2">  1       21 0.81927901E-02 0.45053471E+03</pdfrwt>
<totfact> 0.41921135E+04</totfact>
</mgrwt>
</event>
<event>
 7    0  0.4788920E-002  0.4633857E+03  0.7546771E-02  0.1023804E+00
         21   -1    0    0  502  501  0.00000000000E+00  0.00000000000E+00  0.50730245369E+02  0.50730245369E+02  0.00000000000E+00 0. -1.
         21   -1    0    0  501  502 -0.00000000000E+00 -0.00000000000E+00 -0.10581768822E+04  0.10581768822E+04  0.00000000000E+00 0. -1.
      99926    2    1    2    0    0  0.00000000000E+00  0.00000000000E+00 -0.10074466368E+04  0.11089071276E+04  0.46338568332E+03 0.  0.
      99925    2    3    3    0    0  0.61866435010E+02  0.98057198261E+02 -0.55005422838E+03  0.62074937303E+03  0.26330108249E+03 0.  0.
         25    1    3    3    0    0 -0.61866435010E+02 -0.98057198261E+02 -0.45739240845E+03  0.48815775454E+03  0.12509000000E+03 0.  0.
         25    1    4    4    0    0 -0.33196113607E+01  0.20747508290E+02 -0.24395604764E+03  0.27496097941E+03  0.12509000000E+03 0.  0.
         25    1    4    4    0    0  0.65186046371E+02  0.77309689971E+02 -0.30609818074E+03  0.34578839361E+03  0.12509000000E+03 0.  0.
<mgrwt>
<rscale>  2 0.46338568E+03</rscale>
<asrwt>0</asrwt>
<pdfrwt beam="1">  1       21 0.74603309E-02 0.46338568E+03</pdfrwt>
<pdfrwt beam="2">  1       21 0.15561423E+00 0.46338568E+03</pdfrwt>
<totfact> 0.32974853E+04</totfact>
</mgrwt>
</event>
<event>
 7    0  0.4788920E-002  0.4560749E+03  0.7546771E-02  0.1025926E+00
         21   -1    0    0  502  501  0.00000000000E+00  0.00000000000E+00  0.51481158245E+03  0.51481158245E+03  0.00000000000E+00 0.  1.
         21   -1    0    0  501  502 -0.00000000000E+00 -0.00000000000E+00 -0.10100992521E+03  0.10100992521E+03  0.00000000000E+00 0.  1.
      99926    2    1    2    0    0  0.00000000000E+00  0.00000000000E+00  0.41380165724E+03  0.61582150766E+03  0.45607490368E+03 0.  0.
      99925    2    3    3    0    0 -0.24226424247E+02 -0.72530349938E+02  0.14585871944E+03  0.31038985032E+03  0.26309603161E+03 0.  0.
         25    1    4    4    0    0  0.25031358647E+02 -0.43775625836E+02  0.55324624897E+02  0.14577790146E+03  0.12509000000E+03 0.  0.
         25    1    3    3    0    0  0.24226424247E+02  0.72530349938E+02  0.26794293779E+03  0.30543165734E+03  0.12509000000E+03 0.  0.
         25    1    4    4    0    0 -0.49257782894E+02 -0.28754724102E+02  0.90534094547E+02  0.16461194887E+03  0.12509000000E+03 0.  0.
<mgrwt>
<rscale>  2 0.45607490E+03</rscale>
<asrwt>0</asrwt>
<pdfrwt beam="1">  1       21 0.75707585E-01 0.45607490E+03</pdfrwt>
<pdfrwt beam="2">  1       21 0.14854401E-01 0.45607490E+03</pdfrwt>
<totfact> 0.57227471E+04</totfact>
</mgrwt>
</event>
<event>
 7    0  0.4788920E-002  0.4531788E+03  0.7546771E-02  0.1026778E+00
         21   -1    0    0  502  501  0.00000000000E+00  0.00000000000E+00  0.17387960403E+03  0.17387960403E+03  0.00000000000E+00 0. -1.
         21   -1    0    0  501  502 -0.00000000000E+00 -0.00000000000E+00 -0.29527764853E+03  0.29527764853E+03  0.00000000000E+00 0. -1.
      99926    2    1    2    0    0 -0.71054273576E-14  0.00000000000E+00 -0.12139804449E+03  0.46915725256E+03  0.45317881948E+03 0.  0.
      99925    2    3    3    0    0  0.39422308854E+02 -0.76776005370E+02 -0.14960418767E+03  0.31458763055E+03  0.26293590643E+03 0.  0.
         25    1    4    4    0    0  0.10428968855E+02 -0.59848475877E+02 -0.39414513258E+02  0.14453932133E+03  0.12509000000E+03 0.  0.
         25    1    3    3    0    0 -0.39422308854E+02  0.76776005370E+02  0.28206143179E+02  0.15456962201E+03  0.12509000000E+03 0.  0.
         25    1    4    4    0    0  0.28993339999E+02 -0.16927529493E+02 -0.11018967441E+03  0.17004830921E+03  0.12509000000E+03 0.  0.
<mgrwt>
<rscale>  2 0.45317882E+03</rscale>
<asrwt>0</asrwt>
<pdfrwt beam="1">  1       21 0.25570530E-01 0.45317882E+03</pdfrwt>
<pdfrwt beam="2">  1       21 0.43423183E-01 0.45317882E+03</pdfrwt>
<totfact> 0.68482523E+04</totfact>
</mgrwt>
</event>
<event>
 7    0  0.4788920E-002  0.4457513E+03  0.7546771E-02  0.1028997E+00
         21   -1    0    0  502  501  0.00000000000E+00  0.00000000000E+00  0.13136288771E+03  0.13136288771E+03  0.00000000000E+00 0.  1.
         21   -1    0    0  501  502 -0.00000000000E+00 -0.00000000000E+00 -0.37813987898E+03  0.37813987898E+03  0.00000000000E+00 0.  1.
      99926    2    1    2    0    0  0.00000000000E+00  0.00000000000E+00 -0.24677699128E+03  0.50950276669E+03  0.44575126006E+03 0.  0.
      99925    2    3    3    0    0  0.72699324225E+02  0.35484868415E+02 -0.23187885845E+03  0.35979027526E+03  0.26293890839E+03 0.  0.
         25    1    3    3    0    0 -0.72699324225E+02 -0.35484868415E+02 -0.14898132822E+02  0.14971249143E+03  0.12509000000E+03 0.  0.
         25    1    4    4    0    0  0.26197777305E+02  0.27225426294E+02 -0.16443903341E+03  0.21003630920E+03  0.12509000000E+03 0.  0.
         25    1    4    4    0    0  0.46501546919E+02  0.82594421201E+01 -0.67439825043E+02  0.14975396606E+03  0.12509000000E+03 0.  0.
<mgrwt>
<rscale>  2 0.44575126E+03</rscale>
<asrwt>0</asrwt>
<pdfrwt beam="1">  1       21 0.19318072E-01 0.44575126E+03</pdfrwt>
<pdfrwt beam="2">  1       21 0.55608805E-01 0.44575126E+03</pdfrwt>
<totfact> 0.69575719E+04</totfact>
</mgrwt>
</event>
<event>
 7    0  0.4788920E-002  0.4572862E+03  0.7546771E-02  0.1025571E+00
         21   -1    0    0  502  501  0.00000000000E+00  0.00000000000E+00  0.31371535821E+03  0.31371535821E+03  0.00000000000E+00 0. -1.
         21   -1    0    0  501  502 -0.00000000000E+00 -0.00000000000E+00 -0.16664041031E+03  0.16664041031E+03  0.00000000000E+00 0. -1.
      99926    2    1    2    0    0  0.00000000000E+00  0.00000000000E+00  0.14707494790E+03  0.48035576852E+03  0.45728615117E+03 0.  0.
      99925    2    3    3    0    0 -0.10264951763E+03 -0.19775136007E+02  0.41480719745E+02  0.28612490436E+03  0.26309471927E+03 0.  0.
         25    1    3    3    0    0  0.10264951763E+03  0.19775136007E+02  0.10559422816E+03  0.19423086417E+03  0.12509000000E+03 0.  0.
         25    1    4    4    0    0 -0.32490778785E+02 -0.43085857134E+02  0.50651179038E+01  0.13632756622E+03  0.12509000000E+03 0.  0.
         25    1    4    4    0    0 -0.70158738848E+02  0.23310721127E+02  0.36415601841E+02  0.14979733814E+03  0.12509000000E+03 0.  0.
<mgrwt>
<rscale>  2 0.45728615E+03</rscale>
<asrwt>0</asrwt>
<pdfrwt beam="1">  1       21 0.46134612E-01 0.45728615E+03</pdfrwt>
<pdfrwt beam="2">  1       21 0.24505943E-01 0.45728615E+03</pdfrwt>
<totfact> 0.65477980E+04</totfact>
</mgrwt>
</event>
<event>
 7    0  0.4788920E-002  0.4484621E+03  0.7546771E-02  0.1028182E+00
         21   -1    0    0  502  501  0.00000000000E+00  0.00000000000E+00  0.75789112955E+02  0.75789112955E+02  0.00000000000E+00 0.  1.
         21   -1    0    0  501  502 -0.00000000000E+00 -0.00000000000E+00 -0.66341409222E+03  0.66341409222E+03  0.00000000000E+00 0.  1.
      99926    2    1    2    0    0  0.00000000000E+00  0.00000000000E+00 -0.58762497927E+03  0.73920320518E+03  0.44846210797E+03 0.  0.
      99925    2    3    3    0    0 -0.42431412485E+02  0.97112807352E+02 -0.34842396555E+03  0.44921017909E+03  0.26298137407E+03 0.  0.
         25    1    4    4    0    0  0.11585556826E+02  0.57063927735E+02 -0.13640564980E+03  0.19402197395E+03  0.12509000000E+03 0.  0.
         25    1    3    3    0    0  0.42431412485E+02 -0.97112807352E+02 -0.23920101372E+03  0.28999302609E+03  0.12509000000E+03 0.  0.
         25    1    4    4    0    0 -0.54016969310E+02  0.40048879618E+02 -0.21201831575E+03  0.25518820514E+03  0.12509000000E+03 0.  0.
<mgrwt>
<rscale>  2 0.44846211E+03</rscale>
<asrwt>0</asrwt>
<pdfrwt beam="1">  1       21 0.11145457E-01 0.44846211E+03</pdfrwt>
<pdfrwt beam="2">  1       21 0.97560899E-01 0.44846211E+03</pdfrwt>
<totfact> 0.53524073E+04</totfact>
</mgrwt>
</event>
<event>
 7    0  0.4788920E-002  0.4323029E+03  0.7546771E-02  0.1033135E+00
         21   -1    0    0  502  501  0.00000000000E+00  0.00000000000E+00  0.20544821951E+03  0.20544821951E+03  0.00000000000E+00 0. -1.
         21   -1    0    0  501  502 -0.00000000000E+00 -0.00000000000E+00 -0.22741227115E+03  0.22741227115E+03  0.00000000000E+00 0. -1.
      99926    2    1    2    0    0  0.00000000000E+00  0.00000000000E+00 -0.21964051642E+02  0.43286049066E+03  0.43230288550E+03 0.  0.
      99925    2    3    3    0    0  0.67687925022E+02  0.17464033800E+02  0.42008214317E+02  0.27593182349E+03  0.26360393296E+03 0.  0.
         25    1    4    4    0    0  0.58107171869E+02  0.33512167209E+02 -0.21781937602E+01  0.14195689980E+03  0.12509000000E+03 0.  0.
         25    1    4    4    0    0  0.95807531537E+01 -0.16048133409E+02  0.44186408077E+02  0.13397492368E+03  0.12509000000E+03 0.  0.
         25    1    3    3    0    0 -0.67687925022E+02 -0.17464033800E+02 -0.63972265959E+02  0.15692866718E+03  0.12509000000E+03 0.  0.
<mgrwt>
<rscale>  2 0.43230289E+03</rscale>
<asrwt>0</asrwt>
<pdfrwt beam="1">  1       21 0.30212974E-01 0.43230289E+03</pdfrwt>
<pdfrwt beam="2">  1       21 0.33442981E-01 0.43230289E+03</pdfrwt>
<totfact> 0.84495174E+04</totfact>
</mgrwt>
</event>
<event>
 7    0  0.4788920E-002  0.4587621E+03  0.7546771E-02  0.1025141E+00
         21   -1    0    0  502  501  0.00000000000E+00  0.00000000000E+00  0.21530169141E+03  0.21530169141E+03  0.00000000000E+00 0.  1.
         21   -1    0    0  501  502 -0.00000000000E+00 -0.00000000000E+00 -0.24438113385E+03  0.24438113385E+03  0.00000000000E+00 0.  1.
      99926    2    1    2    0    0  0.71054273576E-14 -0.71054273576E-14 -0.29079442440E+02  0.45968282527E+03  0.45876212341E+03 0.  0.
      99925    2    3    3    0    0  0.41583997153E+02 -0.47616303856E+02  0.80329775987E+02  0.28187836416E+03  0.26268992759E+03 0.  0.
         25    1    4    4    0    0  0.49266551967E+02 -0.50889988646E+02  0.30385856302E+02  0.14692784777E+03  0.12509000000E+03 0.  0.
         25    1    3    3    0    0 -0.41583997153E+02  0.47616303856E+02 -0.10940921843E+03  0.17780446111E+03  0.12509000000E+03 0.  0.
         25    1    4    4    0    0 -0.76825548134E+01  0.32736847902E+01  0.49943919685E+02  0.13495051639E+03  0.12509000000E+03 0.  0.
<mgrwt>
<rscale>  2 0.45876212E+03</rscale>
<asrwt>0</asrwt>
<pdfrwt beam="1">  1       21 0.31662014E-01 0.45876212E+03</pdfrwt>
<pdfrwt beam="2">  1       21 0.35938402E-01 0.45876212E+03</pdfrwt>
<totfact> 0.66194712E+04</totfact>
</mgrwt>
</event>
<event>
 7    0  0.4788920E-002  0.4537233E+03  0.7546771E-02  0.1026618E+00
         21   -1    0    0  502  501  0.00000000000E+00  0.00000000000E+00  0.20131760873E+03  0.20131760873E+03  0.00000000000E+00 0. -1.
         21   -1    0    0  501  502 -0.00000000000E+00 -0.00000000000E+00 -0.25564678528E+03  0.25564678528E+03  0.00000000000E+00 0. -1.
      99926    2    1    2    0    0  0.00000000000E+00  0.00000000000E+00 -0.54329176558E+02  0.45696439401E+03  0.45372326144E+03 0.  0.
      99925    2    3    3    0    0 -0.53803205200E+02  0.72442100897E+02  0.32702353867E+02  0.27986374957E+03  0.26289091180E+03 0.  0.
         25    1    3    3    0    0  0.53803205200E+02 -0.72442100897E+02 -0.87031530425E+02  0.17710064444E+03  0.12509000000E+03 0.  0.
         25    1    4    4    0    0 -0.62050735426E+02  0.46548622386E+02 -0.21194973537E+01  0.14720417243E+03  0.12509000000E+03 0.  0.
         25    1    4    4    0    0  0.82475302264E+01  0.25893478511E+02  0.34821851221E+02  0.13265957714E+03  0.12509000000E+03 0.  0.
<mgrwt>
<rscale>  2 0.45372326E+03</rscale>
<asrwt>0</asrwt>
<pdfrwt beam="1">  1       21 0.29605531E-01 0.45372326E+03</pdfrwt>
<pdfrwt beam="2">  1       21 0.37595115E-01 0.45372326E+03</pdfrwt>
<totfact> 0.69103234E+04</totfact>
</mgrwt>
</event>
<event>
 7    0  0.4788920E-002  0.4494789E+03  0.7546771E-02  0.1027878E+00
         21   -1    0    0  502  501  0.00000000000E+00  0.00000000000E+00  0.43508801846E+02  0.43508801846E+02  0.00000000000E+00 0. -1.
         21   -1    0    0  501  502 -0.00000000000E+00 -0.00000000000E+00 -0.11608643354E+04  0.11608643354E+04  0.00000000000E+00 0. -1.
      99926    2    1    2    0    0  0.00000000000E+00  0.14210854715E-13 -0.11173555335E+04  0.12043731372E+04  0.44947888199E+03 0.  0.
      99925    2    3    3    0    0  0.23623591945E+02 -0.10443277872E+03 -0.66903025702E+03  0.72676729447E+03  0.26291621506E+03 0.  0.
         25    1    4    4    0    0  0.13140093799E+02 -0.99363916174E+01 -0.27481687491E+03  0.30239579491E+03  0.12509000000E+03 0.  0.
         25    1    4    4    0    0  0.10483498146E+02 -0.94496387105E+02 -0.39421338210E+03  0.42437149956E+03  0.12509000000E+03 0.  0.
         25    1    3    3    0    0 -0.23623591945E+02  0.10443277872E+03 -0.44832527653E+03  0.47760584276E+03  0.12509000000E+03 0.  0.
<mgrwt>
<rscale>  2 0.44947888E+03</rscale>
<asrwt>0</asrwt>
<pdfrwt beam="1">  1       21 0.63983522E-02 0.44947888E+03</pdfrwt>
<pdfrwt beam="2">  1       21 0.17071537E+00 0.44947888E+03</pdfrwt>
<totfact> 0.33432505E+04</totfact>
</mgrwt>
</event>
<event>
 7    0  0.4788920E-002  0.4406192E+03  0.7546771E-02  0.1030557E+00
         21   -1    0    0  502  501  0.00000000000E+00  0.00000000000E+00  0.16873625296E+03  0.16873625296E+03  0.00000000000E+00 0. -1.
         21   -1    0    0  501  502 -0.00000000000E+00 -0.00000000000E+00 -0.28764606937E+03  0.28764606937E+03  0.00000000000E+00 0. -1.
      99926    2    1    2    0    0 -0.35527136788E-14  0.00000000000E+00 -0.11890981641E+03  0.45638232233E+03  0.44061920033E+03 0.  0.
      99925    2    3    3    0    0 -0.16117390601E+02  0.37061283854E+02  0.17955886501E+02  0.26661130828E+03  0.26291798493E+03 0.  0.
         25    1    3    3    0    0  0.16117390601E+02 -0.37061283854E+02 -0.13686570291E+03  0.18977101405E+03  0.12509000000E+03 0.  0.
         25    1    4    4    0    0  0.27184059232E+02  0.22756211888E+02 -0.10572762951E+02  0.13044581125E+03  0.12509000000E+03 0.  0.
         25    1    4    4    0    0 -0.43301449833E+02  0.14305071966E+02  0.28528649452E+02  0.13616549703E+03  0.12509000000E+03 0.  0.
<mgrwt>
<rscale>  2 0.44061920E+03</rscale>
<asrwt>0</asrwt>
<pdfrwt beam="1">  1       21 0.24814155E-01 0.44061920E+03</pdfrwt>
<pdfrwt beam="2">  1       21 0.42300892E-01 0.44061920E+03</pdfrwt>
<totfact> 0.76863076E+04</totfact>
</mgrwt>
</event>
<event>
 7    0  0.4788920E-002  0.4520347E+03  0.7546771E-02  0.1027117E+00
         21   -1    0    0  502  501  0.00000000000E+00  0.00000000000E+00  0.11478345572E+04  0.11478345572E+04  0.00000000000E+00 0.  1.
         21   -1    0    0  501  502 -0.00000000000E+00 -0.00000000000E+00 -0.44504542643E+02  0.44504542643E+02  0.00000000000E+00 0.  1.
      99926    2    1    2    0    0  0.00000000000E+00  0.00000000000E+00  0.11033300145E+04  0.11923390998E+04  0.45203474201E+03 0.  0.
      99925    2    3    3    0    0 -0.10149258635E+03  0.31982932376E+02  0.76946582164E+03  0.82026859515E+03  0.26351330985E+03 0.  0.
         25    1    4    4    0    0 -0.71416521932E+02  0.21702824352E+02  0.30172024023E+03  0.33504319669E+03  0.12509000000E+03 0.  0.
         25    1    3    3    0    0  0.10149258635E+03 -0.31982932376E+02  0.33386419288E+03  0.37207050466E+03  0.12509000000E+03 0.  0.
         25    1    4    4    0    0 -0.30076064423E+02  0.10280108024E+02  0.46774558141E+03  0.48522539845E+03  0.12509000000E+03 0.  0.
<mgrwt>
<rscale>  2 0.45203474E+03</rscale>
<asrwt>0</asrwt>
<pdfrwt beam="1">  1       21 0.16879918E+00 0.45203474E+03</pdfrwt>
<pdfrwt beam="2">  1       21 0.65447864E-02 0.45203474E+03</pdfrwt>
<totfact> 0.33159104E+04</totfact>
</mgrwt>
</event>
<event>
 7    0  0.4788920E-002  0.4477680E+03  0.7546771E-02  0.1028390E+00
         21   -1    0    0  502  501  0.00000000000E+00  0.00000000000E+00  0.38111213940E+03  0.38111213940E+03  0.00000000000E+00 0.  1.
         21   -1    0    0  501  502 -0.00000000000E+00 -0.00000000000E+00 -0.13152045219E+03  0.13152045219E+03  0.00000000000E+00 0.  1.
      99926    2    1    2    0    0  0.00000000000E+00  0.71054273576E-14  0.24959168721E+03  0.51263259159E+03  0.44776797969E+03 0.  0.
      99925    2    3    3    0    0 -0.80322575410E+02  0.52738513533E+02  0.21020004863E+03  0.35005253064E+03  0.26290615594E+03 0.  0.
         25    1    3    3    0    0  0.80322575410E+02 -0.52738513533E+02  0.39391638581E+02  0.16258006096E+03  0.12509000000E+03 0.  0.
         25    1    4    4    0    0 -0.50727666956E+02  0.42787221141E+02  0.64805988799E+02  0.15572850340E+03  0.12509000000E+03 0.  0.
         25    1    4    4    0    0 -0.29594908454E+02  0.99512923923E+01  0.14539405983E+03  0.19432402723E+03  0.12509000000E+03 0.  0.
<mgrwt>
<rscale>  2 0.44776798E+03</rscale>
<asrwt>0</asrwt>
<pdfrwt beam="1">  1       21 0.56045903E-01 0.44776798E+03</pdfrwt>
<pdfrwt beam="2">  1       21 0.19341243E-01 0.44776798E+03</pdfrwt>
<totfact> 0.68223618E+04</totfact>
</mgrwt>
</event>
<event>
 7    0  0.4788920E-002  0.4589056E+03  0.7546771E-02  0.1025099E+00
         21   -1    0    0  502  501  0.00000000000E+00  0.00000000000E+00  0.57781807569E+03  0.57781807569E+03  0.00000000000E+00 0. -1.
         21   -1    0    0  501  502 -0.00000000000E+00 -0.00000000000E+00 -0.91116194063E+02  0.91116194063E+02  0.00000000000E+00 0. -1.
      99926    2    1    2    0    0  0.00000000000E+00  0.00000000000E+00  0.48670188163E+03  0.66893426976E+03  0.45890558470E+03 0.  0.
      99925    2    3    3    0    0 -0.11473091242E+03 -0.17571524656E+02  0.28576893789E+03  0.40531807768E+03  0.26295801469E+03 0.  0.
         25    1    4    4    0    0 -0.39491148151E+02 -0.25105763379E+01  0.83851122323E+02  0.15570604545E+03  0.12509000000E+03 0.  0.
         25    1    4    4    0    0 -0.75239764266E+02 -0.15060948318E+02  0.20191781556E+03  0.24961203223E+03  0.12509000000E+03 0.  0.
         25    1    3    3    0    0  0.11473091242E+03  0.17571524656E+02  0.20093294374E+03  0.26361619208E+03  0.12509000000E+03 0.  0.
<mgrwt>
<rscale>  2 0.45890558E+03</rscale>
<asrwt>0</asrwt>
<pdfrwt beam="1">  1       21 0.84973244E-01 0.45890558E+03</pdfrwt>
<pdfrwt beam="2">  1       21 0.13399441E-01 0.45890558E+03</pdfrwt>
<totfact> 0.52972357E+04</totfact>
</mgrwt>
</event>
<event>
 7    0  0.4788920E-002  0.4420582E+03  0.7546771E-02  0.1030117E+00
         21   -1    0    0  502  501  0.00000000000E+00  0.00000000000E+00  0.23674055169E+03  0.23674055169E+03  0.00000000000E+00 0.  1.
         21   -1    0    0  501  502 -0.00000000000E+00 -0.00000000000E+00 -0.20636039029E+03  0.20636039029E+03  0.00000000000E+00 0.  1.
      99926    2    1    2    0    0  0.71054273576E-14  0.00000000000E+00  0.30380161403E+02  0.44310094199E+03  0.44205824343E+03 0.  0.
      99925    2    3    3    0    0 -0.59614478838E+02  0.66731715221E+02  0.65344911048E+02  0.28537634111E+03  0.26298800498E+03 0.  0.
         25    1    4    4    0    0 -0.74511319347E+01  0.27493768931E+02  0.66010376592E+02  0.14427856603E+03  0.12509000000E+03 0.  0.
         25    1    4    4    0    0 -0.52163346903E+02  0.39237946291E+02 -0.66546554416E+00  0.14109777508E+03  0.12509000000E+03 0.  0.
         25    1    3    3    0    0  0.59614478838E+02 -0.66731715221E+02 -0.34964749645E+02  0.15772460088E+03  0.12509000000E+03 0.  0.
<mgrwt>
<rscale>  2 0.44205824E+03</rscale>
<asrwt>0</asrwt>
<pdfrwt beam="1">  1       21 0.34814787E-01 0.44205824E+03</pdfrwt>
<pdfrwt beam="2">  1       21 0.30347116E-01 0.44205824E+03</pdfrwt>
<totfact> 0.77083863E+04</totfact>
</mgrwt>
</event>
<event>
 7    0  0.4788920E-002  0.4576646E+03  0.7546771E-02  0.1025461E+00
         21   -1    0    0  502  501  0.00000000000E+00  0.00000000000E+00  0.34954827153E+03  0.34954827153E+03  0.00000000000E+00 0. -1.
         21   -1    0    0  501  502 -0.00000000000E+00 -0.00000000000E+00 -0.14980544012E+03  0.14980544012E+03  0.00000000000E+00 0. -1.
      99926    2    1    2    0    0  0.00000000000E+00  0.00000000000E+00  0.19974283141E+03  0.49935371164E+03  0.45766464866E+03 0.  0.
      99925    2    3    3    0    0  0.38805823561E+02  0.19575765455E+02  0.84234731049E+01  0.26667430238E+03  0.26297362247E+03 0.  0.
         25    1    4    4    0    0  0.45025716934E+02  0.76168681796E+01  0.35848794212E+02  0.13790567796E+03  0.12509000000E+03 0.  0.
         25    1    3    3    0    0 -0.38805823561E+02 -0.19575765455E+02  0.19131935830E+03  0.23267940927E+03  0.12509000000E+03 0.  0.
         25    1    4    4    0    0 -0.62198933733E+01  0.11958897275E+02 -0.27425321108E+02  0.12876862442E+03  0.12509000000E+03 0.  0.
<mgrwt>
<rscale>  2 0.45766465E+03</rscale>
<asrwt>0</asrwt>
<pdfrwt beam="1">  1       21 0.51404158E-01 0.45766465E+03</pdfrwt>
<pdfrwt beam="2">  1       21 0.22030212E-01 0.45766465E+03</pdfrwt>
<totfact> 0.63952570E+04</totfact>
</mgrwt>
</event>
<event>
 7    0  0.4788920E-002  0.4587145E+03  0.7546771E-02  0.1025155E+00
         21   -1    0    0  502  501  0.00000000000E+00  0.00000000000E+00  0.47889479320E+03  0.47889479320E+03  0.00000000000E+00 0.  1.
         21   -1    0    0  501  502 -0.00000000000E+00 -0.00000000000E+00 -0.10984613449E+03  0.10984613449E+03  0.00000000000E+00 0.  1.
      99926    2    1    2    0    0 -0.35527136788E-14  0.71054273576E-14  0.36904865871E+03  0.58874092768E+03  0.45871447267E+03 0.  0.
      99925    2    3    3    0    0  0.27333748032E+02 -0.48438180042E+02  0.99889916580E+02  0.28676853220E+03  0.26299202376E+03 0.  0.
         25    1    3    3    0    0 -0.27333748032E+02  0.48438180042E+02  0.26915874213E+03  0.30197239548E+03  0.12509000000E+03 0.  0.
         25    1    4    4    0    0 -0.18877799990E+02 -0.47927052007E+02  0.55462913362E+02  0.14620881131E+03  0.12509000000E+03 0.  0.
         25    1    4    4    0    0  0.46211548021E+02 -0.51112803520E+00  0.44427003218E+02  0.14055972089E+03  0.12509000000E+03 0.  0.
<mgrwt>
<rscale>  2 0.45871447E+03</rscale>
<asrwt>0</asrwt>
<pdfrwt beam="1">  1       21 0.70425704E-01 0.45871447E+03</pdfrwt>
<pdfrwt beam="2">  1       21 0.16153844E-01 0.45871447E+03</pdfrwt>
<totfact> 0.57664980E+04</totfact>
</mgrwt>
</event>
<event>
 7    0  0.4788920E-002  0.4567294E+03  0.7546771E-02  0.1025734E+00
         21   -1    0    0  502  501  0.00000000000E+00  0.00000000000E+00  0.86421621170E+02  0.86421621170E+02  0.00000000000E+00 0. -1.
         21   -1    0    0  501  502 -0.00000000000E+00 -0.00000000000E+00 -0.60344208811E+03  0.60344208811E+03  0.00000000000E+00 0. -1.
      99926    2    1    2    0    0  0.35527136788E-14 -0.71054273576E-14 -0.51702046694E+03  0.68986370928E+03  0.45672943210E+03 0.  0.
      99925    2    3    3    0    0 -0.25813673540E+02  0.56097664899E+02 -0.47092560565E+03  0.54294353338E+03  0.26306550637E+03 0.  0.
         25    1    4    4    0    0  0.42234320294E+01  0.54451877752E+02 -0.29446598971E+03  0.32456212282E+03  0.12509000000E+03 0.  0.
         25    1    3    3    0    0  0.25813673540E+02 -0.56097664899E+02 -0.46094861299E+02  0.14692017590E+03  0.12509000000E+03 0.  0.
         25    1    4    4    0    0 -0.30037105569E+02  0.16457871465E+01 -0.17645961593E+03  0.21838141057E+03  0.12509000000E+03 0.  0.
<mgrwt>
<rscale>  2 0.45672943E+03</rscale>
<asrwt>0</asrwt>
<pdfrwt beam="1">  1       21 0.12709062E-01 0.45672943E+03</pdfrwt>
<pdfrwt beam="2">  1       21 0.88741484E-01 0.45672943E+03</pdfrwt>
<totfact> 0.52735239E+04</totfact>
</mgrwt>
</event>
<event>
 7    0  0.4788920E-002  0.4543633E+03  0.7546771E-02  0.1026429E+00
         21   -1    0    0  502  501  0.00000000000E+00  0.00000000000E+00  0.15731481146E+03  0.15731481146E+03  0.00000000000E+00 0. -1.
         21   -1    0    0  501  502 -0.00000000000E+00 -0.00000000000E+00 -0.32807780002E+03  0.32807780002E+03  0.00000000000E+00 0. -1.
      99926    2    1    2    0    0  0.00000000000E+00  0.00000000000E+00 -0.17076298856E+03  0.48539261148E+03  0.45436327868E+03 0.  0.
      99925    2    3    3    0    0 -0.65782473628E+02  0.30235028676E+02 -0.19952961004E+03  0.33802735978E+03  0.26307592038E+03 0.  0.
         25    1    3    3    0    0  0.65782473628E+02 -0.30235028676E+02  0.28766621481E+02  0.14736525169E+03  0.12509000000E+03 0.  0.
         25    1    4    4    0    0 -0.37037371139E+02 -0.17130890868E+02 -0.67431117630E+02  0.14785025535E+03  0.12509000000E+03 0.  0.
         25    1    4    4    0    0 -0.28745102489E+02  0.47365919545E+02 -0.13209849242E+03  0.19017710443E+03  0.12509000000E+03 0.  0.
<mgrwt>
<rscale>  2 0.45436328E+03</rscale>
<asrwt>0</asrwt>
<pdfrwt beam="1">  1       21 0.23134531E-01 0.45436328E+03</pdfrwt>
<pdfrwt beam="2">  1       21 0.48246735E-01 0.45436328E+03</pdfrwt>
<totfact> 0.66645837E+04</totfact>
</mgrwt>
</event>
<event>
 7    0  0.4788920E-002  0.4132159E+03  0.7546771E-02  0.1039297E+00
         21   -1    0    0  502  501  0.00000000000E+00  0.00000000000E+00  0.11569992578E+03  0.11569992578E+03  0.00000000000E+00 0.  1.
         21   -1    0    0  501  502 -0.00000000000E+00 -0.00000000000E+00 -0.36894442524E+03  0.36894442524E+03  0.00000000000E+00 0.  1.
      99926    2    1    2    0    0 -0.17763568394E-14  0.00000000000E+00 -0.25324449947E+03  0.48464435102E+03  0.41321588845E+03 0.  0.
      99925    2    3    3    0    0  0.11491128691E+02 -0.64911674308E+02 -0.17966012534E+03  0.32524629671E+03  0.26298635210E+03 0.  0.
         25    1    3    3    0    0 -0.11491128691E+02  0.64911674308E+02 -0.73584374130E+02  0.15939805430E+03  0.12509000000E+03 0.  0.
         25    1    4    4    0    0  0.15837214121E+02 -0.69984397606E+02 -0.78221068804E+02  0.16405693208E+03  0.12509000000E+03 0.  0.
         25    1    4    4    0    0 -0.43460854299E+01  0.50727232979E+01 -0.10143905653E+03  0.16118936463E+03  0.12509000000E+03 0.  0.
<mgrwt>
<rscale>  2 0.41321589E+03</rscale>
<asrwt>0</asrwt>
<pdfrwt beam="1">  1       21 0.17014695E-01 0.41321589E+03</pdfrwt>
<pdfrwt beam="2">  1       21 0.54256532E-01 0.41321589E+03</pdfrwt>
<totfact> 0.93812473E+04</totfact>
</mgrwt>
</event>
<event>
 7    0  0.4788920E-002  0.4564553E+03  0.7546771E-02  0.1025814E+00
         21   -1    0    0  502  501  0.00000000000E+00  0.00000000000E+00  0.10613208167E+04  0.10613208167E+04  0.00000000000E+00 0.  1.
         21   -1    0    0  501  502 -0.00000000000E+00 -0.00000000000E+00 -0.49078337835E+02  0.49078337835E+02  0.00000000000E+00 0.  1.
      99926    2    1    2    0    0  0.14210854715E-13  0.00000000000E+00  0.10122424789E+04  0.11103991545E+04  0.45645530600E+03 0.  0.
      99925    2    3    3    0    0 -0.10775401238E+03 -0.32319866961E+02  0.69130264453E+03  0.74803830352E+03  0.26269079964E+03 0.  0.
         25    1    4    4    0    0 -0.80362664596E+02  0.74722533861E+01  0.41554345402E+03  0.44140442081E+03  0.12509000000E+03 0.  0.
         25    1    3    3    0    0  0.10775401238E+03  0.32319866961E+02  0.32093983432E+03  0.36236085100E+03  0.12509000000E+03 0.  0.
         25    1    4    4    0    0 -0.27391347785E+02 -0.39792120347E+02  0.27575919051E+03  0.30663388271E+03  0.12509000000E+03 0.  0.
<mgrwt>
<rscale>  2 0.45645531E+03</rscale>
<asrwt>0</asrwt>
<pdfrwt beam="1">  1       21 0.15607658E+00 0.45645531E+03</pdfrwt>
<pdfrwt beam="2">  1       21 0.72174033E-02 0.45645531E+03</pdfrwt>
<totfact> 0.34736477E+04</totfact>
</mgrwt>
</event>
<event>
 7    0  0.4788920E-002  0.4571120E+03  0.7546771E-02  0.1025622E+00
         21   -1    0    0  502  501  0.00000000000E+00  0.00000000000E+00  0.23094664847E+04  0.23094664847E+04  0.00000000000E+00 0. -1.
         21   -1    0    0  501  502 -0.00000000000E+00 -0.00000000000E+00 -0.22619010801E+02  0.22619010801E+02  0.00000000000E+00 0. -1.
      99926    2    1    2    0    0  0.00000000000E+00 -0.35527136788E-14  0.22868474739E+04  0.23320854955E+04  0.45711200974E+03 0.  0.
      99925    2    3    3    0    0 -0.11284569147E+03 -0.22734120327E+02  0.14245828419E+04  0.14532232799E+04  0.26300311311E+03 0.  0.
         25    1    4    4    0    0 -0.77049855491E+02 -0.47966787052E+02  0.77260859221E+03  0.78791435940E+03  0.12509000000E+03 0.  0.
         25    1    3    3    0    0  0.11284569147E+03  0.22734120327E+02  0.86226463204E+03  0.87886221563E+03  0.12509000000E+03 0.  0.
         25    1    4    4    0    0 -0.35795835978E+02  0.25232666725E+02  0.65197424966E+03  0.66530892047E+03  0.12509000000E+03 0.  0.
<mgrwt>
<rscale>  2 0.45711201E+03</rscale>
<asrwt>0</asrwt>
<pdfrwt beam="1">  1       21 0.33962726E+00 0.45711201E+03</pdfrwt>
<pdfrwt beam="2">  1       21 0.33263267E-02 0.45711201E+03</pdfrwt>
<totfact> 0.88599893E+03</totfact>
</mgrwt>
</event>
<event>
 7    0  0.4788920E-002  0.4534407E+03  0.7546771E-02  0.1026701E+00
         21   -1    0    0  502  501  0.00000000000E+00  0.00000000000E+00  0.16883818069E+03  0.16883818069E+03  0.00000000000E+00 0. -1.
         21   -1    0    0  501  502 -0.00000000000E+00 -0.00000000000E+00 -0.30444599623E+03  0.30444599623E+03  0.00000000000E+00 0. -1.
      99926    2    1    2    0    0  0.00000000000E+00  0.00000000000E+00 -0.13560781554E+03  0.47328417692E+03  0.45344066038E+03 0.  0.
      99925    2    3    3    0    0 -0.96459404391E+02 -0.42154868032E+02 -0.46554448337E+02  0.28711366394E+03  0.26303134750E+03 0.  0.
         25    1    3    3    0    0  0.96459404391E+02  0.42154868032E+02 -0.89053367200E+02  0.18617051298E+03  0.12509000000E+03 0.  0.
         25    1    4    4    0    0 -0.72245896898E+02  0.11828273471E+02 -0.23560426826E+02  0.14683997918E+03  0.12509000000E+03 0.  0.
         25    1    4    4    0    0 -0.24213507493E+02 -0.53983141503E+02 -0.22994021511E+02  0.14027368476E+03  0.12509000000E+03 0.  0.
<mgrwt>
<rscale>  2 0.45344066E+03</rscale>
<asrwt>0</asrwt>
<pdfrwt beam="1">  1       21 0.24829144E-01 0.45344066E+03</pdfrwt>
<pdfrwt beam="2">  1       21 0.44771470E-01 0.45344066E+03</pdfrwt>
<totfact> 0.68030249E+04</totfact>
</mgrwt>
</event>
<event>
 7    0  0.4788920E-002  0.3955824E+03  0.7546771E-02  0.1045320E+00
         21   -1    0    0  502  501  0.00000000000E+00  0.00000000000E+00  0.10975565681E+03  0.10975565681E+03  0.00000000000E+00 0.  1.
         21   -1    0    0  501  502 -0.00000000000E+00 -0.00000000000E+00 -0.35644054039E+03  0.35644054039E+03  0.00000000000E+00 0.  1.
      99926    2    1    2    0    0 -0.35527136788E-14 -0.88817841970E-15 -0.24668488358E+03  0.46619619720E+03  0.39558243451E+03 0.  0.
      99925    2    3    3    0    0 -0.23960460249E+02 -0.71089948810E+01 -0.13513991589E+03  0.29674287212E+03  0.26299979814E+03 0.  0.
         25    1    4    4    0    0  0.14364495218E+02 -0.12535921218E+02 -0.33252713553E+02  0.13083095621E+03  0.12509000000E+03 0.  0.
         25    1    3    3    0    0  0.23960460249E+02  0.71089948810E+01 -0.11154496769E+03  0.16945332508E+03  0.12509000000E+03 0.  0.
         25    1    4    4    0    0 -0.38324955467E+02  0.54269263365E+01 -0.10188720233E+03  0.16591191591E+03  0.12509000000E+03 0.  0.
<mgrwt>
<rscale>  2 0.39558243E+03</rscale>
<asrwt>0</asrwt>
<pdfrwt beam="1">  1       21 0.16140538E-01 0.39558243E+03</pdfrwt>
<pdfrwt beam="2">  1       21 0.52417726E-01 0.39558243E+03</pdfrwt>
<totfact> 0.11186023E+05</totfact>
</mgrwt>
</event>
<event>
 7    0  0.4788920E-002  0.4513809E+03  0.7546771E-02  0.1027311E+00
         21   -1    0    0  502  501  0.00000000000E+00  0.00000000000E+00  0.31926125724E+03  0.31926125724E+03  0.00000000000E+00 0. -1.
         21   -1    0    0  501  502 -0.00000000000E+00 -0.00000000000E+00 -0.15954391152E+03  0.15954391152E+03  0.00000000000E+00 0. -1.
      99926    2    1    2    0    0  0.00000000000E+00  0.00000000000E+00  0.15971734572E+03  0.47880516876E+03  0.45138094677E+03 0.  0.
      99925    2    3    3    0    0  0.77592363132E+02  0.61602133356E+02  0.50829330140E+02  0.28562259789E+03  0.26302328789E+03 0.  0.
         25    1    4    4    0    0  0.63095491847E+02  0.64091761242E+02  0.15701583768E+02  0.15486394927E+03  0.12509000000E+03 0.  0.
         25    1    3    3    0    0 -0.77592363132E+02 -0.61602133356E+02  0.10888801558E+03  0.19318257087E+03  0.12509000000E+03 0.  0.
         25    1    4    4    0    0  0.14496871285E+02 -0.24896278860E+01  0.35127746372E+02  0.13075864862E+03  0.12509000000E+03 0.  0.
<mgrwt>
<rscale>  2 0.45138095E+03</rscale>
<asrwt>0</asrwt>
<pdfrwt beam="1">  1       21 0.46950185E-01 0.45138095E+03</pdfrwt>
<pdfrwt beam="2">  1       21 0.23462340E-01 0.45138095E+03</pdfrwt>
<totfact> 0.68740753E+04</totfact>
</mgrwt>
</event>
<event>
 7    0  0.4788920E-002  0.4576566E+03  0.7546771E-02  0.1025463E+00
         21   -1    0    0  502  501  0.00000000000E+00  0.00000000000E+00  0.85302255081E+02  0.85302255081E+02  0.00000000000E+00 0. -1.
         21   -1    0    0  501  502 -0.00000000000E+00 -0.00000000000E+00 -0.61384538322E+03  0.61384538322E+03  0.00000000000E+00 0. -1.
      99926    2    1    2    0    0 -0.35527136788E-14  0.00000000000E+00 -0.52854312814E+03  0.69914763830E+03  0.45765662001E+03 0.  0.
      99925    2    3    3    0    0  0.21663548175E+02 -0.10719698700E+03 -0.27411245087E+03  0.39526775911E+03  0.26294193718E+03 0.  0.
         25    1    3    3    0    0 -0.21663548175E+02  0.10719698700E+03 -0.25443067727E+03  0.30387987919E+03  0.12509000000E+03 0.  0.
         25    1    4    4    0    0  0.39034287984E+02 -0.23424453485E+02 -0.12261443361E+03  0.18098118159E+03  0.12509000000E+03 0.  0.
         25    1    4    4    0    0 -0.17370739809E+02 -0.83772533514E+02 -0.15149801726E+03  0.21428657752E+03  0.12509000000E+03 0.  0.
<mgrwt>
<rscale>  2 0.45765662E+03</rscale>
<asrwt>0</asrwt>
<pdfrwt beam="1">  1       21 0.12544449E-01 0.45765662E+03</pdfrwt>
<pdfrwt beam="2">  1       21 0.90271381E-01 0.45765662E+03</pdfrwt>
<totfact> 0.51856525E+04</totfact>
</mgrwt>
</event>
<event>
 7    0  0.4788920E-002  0.4541468E+03  0.7546771E-02  0.1026493E+00
         21   -1    0    0  502  501  0.00000000000E+00  0.00000000000E+00  0.88335846287E+02  0.88335846287E+02  0.00000000000E+00 0.  1.
         21   -1    0    0  501  502 -0.00000000000E+00 -0.00000000000E+00 -0.58370796468E+03  0.58370796468E+03  0.00000000000E+00 0.  1.
      99926    2    1    2    0    0  0.00000000000E+00  0.00000000000E+00 -0.49537211839E+03  0.67204381097E+03  0.45414683548E+03 0.  0.
      99925    2    3    3    0    0 -0.16137181366E+02  0.86222714840E+02 -0.41628948401E+03  0.50000795326E+03  0.26270944720E+03 0.  0.
         25    1    3    3    0    0  0.16137181366E+02 -0.86222714840E+02 -0.79082634387E+02  0.17203585771E+03  0.12509000000E+03 0.  0.
         25    1    4    4    0    0  0.31203491837E+02  0.35353370176E+02 -0.19183620310E+03  0.23382077668E+03  0.12509000000E+03 0.  0.
         25    1    4    4    0    0 -0.47340673203E+02  0.50869344664E+02 -0.22445328090E+03  0.26618717658E+03  0.12509000000E+03 0.  0.
<mgrwt>
<rscale>  2 0.45414684E+03</rscale>
<asrwt>0</asrwt>
<pdfrwt beam="1">  1       21 0.12990566E-01 0.45414684E+03</pdfrwt>
<pdfrwt beam="2">  1       21 0.85839407E-01 0.45414684E+03</pdfrwt>
<totfact> 0.54815142E+04</totfact>
</mgrwt>
</event>
<event>
 7    0  0.4788920E-002  0.4474680E+03  0.7546771E-02  0.1028480E+00
         21   -1    0    0  502  501  0.00000000000E+00  0.00000000000E+00  0.19628192012E+04  0.19628192012E+04  0.00000000000E+00 0.  1.
         21   -1    0    0  501  502 -0.00000000000E+00 -0.00000000000E+00 -0.25502555413E+02  0.25502555413E+02  0.00000000000E+00 0.  1.
      99926    2    1    2    0    0  0.71054273576E-14  0.00000000000E+00  0.19373166458E+04  0.19883217566E+04  0.44746801202E+03 0.  0.
      99925    2    3    3    0    0 -0.63437255022E+02 -0.55726212491E+02  0.94208960559E+03  0.98171653820E+03  0.26287799517E+03 0.  0.
         25    1    4    4    0    0 -0.67050168245E+02 -0.35194485321E+02  0.43103285947E+03  0.45516064296E+03  0.12509000000E+03 0.  0.
         25    1    3    3    0    0  0.63437255022E+02  0.55726212491E+02  0.99522704020E+03  0.10066052184E+04  0.12509000000E+03 0.  0.
         25    1    4    4    0    0  0.36129132223E+01 -0.20531727170E+02  0.51105674612E+03  0.52655589524E+03  0.12509000000E+03 0.  0.
<mgrwt>
<rscale>  2 0.44746801E+03</rscale>
<asrwt>0</asrwt>
<pdfrwt beam="1">  1       21 0.28864978E+00 0.44746801E+03</pdfrwt>
<pdfrwt beam="2">  1       21 0.37503771E-02 0.44746801E+03</pdfrwt>
<totfact> 0.14744706E+04</totfact>
</mgrwt>
</event>
<event>
 7    0  0.4788920E-002  0.4696564E+03  0.7546771E-02  0.1022017E+00
         21   -1    0    0  502  501  0.00000000000E+00  0.00000000000E+00  0.35676886563E+03  0.35676886563E+03  0.00000000000E+00 0.  1.
         21   -1    0    0  501  502 -0.00000000000E+00 -0.00000000000E+00 -0.15456582717E+03  0.15456582717E+03  0.00000000000E+00 0.  1.
      99926    2    1    2    0    0  0.14210854715E-13  0.00000000000E+00  0.20220303845E+03  0.51133469280E+03  0.46965636300E+03 0.  0.
      99925    2    3    3    0    0 -0.12403734446E+03  0.16425605938E+02  0.10646921899E+03  0.31016924935E+03  0.26308592759E+03 0.  0.
         25    1    3    3    0    0  0.12403734446E+03 -0.16425605938E+02  0.95733819469E+02  0.20116544346E+03  0.12509000000E+03 0.  0.
         25    1    4    4    0    0 -0.53175972676E+02 -0.14116189680E+02  0.16014469955E+02  0.13758968795E+03  0.12509000000E+03 0.  0.
         25    1    4    4    0    0 -0.70861371784E+02  0.30541795618E+02  0.90454749030E+02  0.17257956140E+03  0.12509000000E+03 0.  0.
<mgrwt>
<rscale>  2 0.46965636E+03</rscale>
<asrwt>0</asrwt>
<pdfrwt beam="1">  1       21 0.52466009E-01 0.46965636E+03</pdfrwt>
<pdfrwt beam="2">  1       21 0.22730269E-01 0.46965636E+03</pdfrwt>
<totfact> 0.57495838E+04</totfact>
</mgrwt>
</event>
<event>
 7    0  0.4788920E-002  0.4478247E+03  0.7546771E-02  0.1028373E+00
         21   -1    0    0  502  501  0.00000000000E+00  0.00000000000E+00  0.93756074147E+02  0.93756074147E+02  0.00000000000E+00 0. -1.
         21   -1    0    0  501  502 -0.00000000000E+00 -0.00000000000E+00 -0.53475715978E+03  0.53475715978E+03  0.00000000000E+00 0. -1.
      99926    2    1    2    0    0  0.00000000000E+00  0.00000000000E+00 -0.44100108563E+03  0.62851323392E+03  0.44782466177E+03 0.  0.
      99925    2    3    3    0    0  0.10404083433E+03  0.20784665181E+02 -0.27230183742E+03  0.39321886093E+03  0.26308987897E+03 0.  0.
         25    1    4    4    0    0  0.60737938937E+02  0.11124913384E+02 -0.83988624855E+02  0.16283260770E+03  0.12509000000E+03 0.  0.
         25    1    4    4    0    0  0.43302895390E+02  0.96597517963E+01 -0.18831321257E+03  0.23038625324E+03  0.12509000000E+03 0.  0.
         25    1    3    3    0    0 -0.10404083433E+03 -0.20784665181E+02 -0.16869924821E+03  0.23529437299E+03  0.12509000000E+03 0.  0.
<mgrwt>
<rscale>  2 0.44782466E+03</rscale>
<asrwt>0</asrwt>
<pdfrwt beam="1">  1       21 0.13787658E-01 0.44782466E+03</pdfrwt>
<pdfrwt beam="2">  1       21 0.78640757E-01 0.44782466E+03</pdfrwt>
<totfact> 0.60300299E+04</totfact>
</mgrwt>
</event>
<event>
 7    0  0.4788920E-002  0.4646026E+03  0.7546771E-02  0.1023455E+00
         21   -1    0    0  502  501  0.00000000000E+00  0.00000000000E+00  0.12063088833E+04  0.12063088833E+04  0.00000000000E+00 0.  1.
         21   -1    0    0  501  502 -0.00000000000E+00 -0.00000000000E+00 -0.44734722313E+02  0.44734722313E+02  0.00000000000E+00 0.  1.
      99926    2    1    2    0    0  0.00000000000E+00  0.00000000000E+00  0.11615741610E+04  0.12510436056E+04  0.46460259542E+03 0.  0.
      99925    2    3    3    0    0  0.97062020990E+02 -0.70864176041E+02  0.78049373575E+03  0.83234017123E+03  0.26301505991E+03 0.  0.
         25    1    3    3    0    0 -0.97062020990E+02  0.70864176041E+02  0.38108042526E+03  0.41870343440E+03  0.12509000000E+03 0.  0.
         25    1    4    4    0    0  0.32211808512E+02  0.47239213275E+01  0.34430477789E+03  0.36776786730E+03  0.12509000000E+03 0.  0.
         25    1    4    4    0    0  0.64850212478E+02 -0.75588097368E+02  0.43618895786E+03  0.46457230393E+03  0.12509000000E+03 0.  0.
<mgrwt>
<rscale>  2 0.46460260E+03</rscale>
<asrwt>0</asrwt>
<pdfrwt beam="1">  1       21 0.17739834E+00 0.46460260E+03</pdfrwt>
<pdfrwt beam="2">  1       21 0.65786364E-02 0.46460260E+03</pdfrwt>
<totfact> 0.28388163E+04</totfact>
</mgrwt>
</event>
<event>
 7    0  0.4788920E-002  0.4567435E+03  0.7546771E-02  0.1025730E+00
         21   -1    0    0  502  501  0.00000000000E+00  0.00000000000E+00  0.19196905465E+04  0.19196905465E+04  0.00000000000E+00 0.  1.
         21   -1    0    0  501  502 -0.00000000000E+00 -0.00000000000E+00 -0.27167742893E+02  0.27167742893E+02  0.00000000000E+00 0.  1.
      99926    2    1    2    0    0  0.00000000000E+00  0.88817841970E-15  0.18925228036E+04  0.19468582894E+04  0.45674351315E+03 0.  0.
      99925    2    3    3    0    0  0.10511659069E+03 -0.69727664357E+01  0.99330324384E+03  0.10328881357E+04  0.26288485977E+03 0.  0.
         25    1    4    4    0    0  0.50959157376E+02  0.11026699213E+02  0.35601283029E+03  0.38093446582E+03  0.12509000000E+03 0.  0.
         25    1    4    4    0    0  0.54157433313E+02 -0.17999465648E+02  0.63729041355E+03  0.65195366986E+03  0.12509000000E+03 0.  0.
         25    1    3    3    0    0 -0.10511659069E+03  0.69727664357E+01  0.89921955977E+03  0.91397015372E+03  0.12509000000E+03 0.  0.
<mgrwt>
<rscale>  2 0.45674351E+03</rscale>
<asrwt>0</asrwt>
<pdfrwt beam="1">  1       21 0.28230734E+00 0.45674351E+03</pdfrwt>
<pdfrwt beam="2">  1       21 0.39952576E-02 0.45674351E+03</pdfrwt>
<totfact> 0.14401212E+04</totfact>
</mgrwt>
</event>
<event>
 7    0  0.4788920E-002  0.4546551E+03  0.7546771E-02  0.1026343E+00
         21   -1    0    0  502  501  0.00000000000E+00  0.00000000000E+00  0.55578717574E+03  0.55578717574E+03  0.00000000000E+00 0. -1.
         21   -1    0    0  501  502 -0.00000000000E+00 -0.00000000000E+00 -0.92981297950E+02  0.92981297950E+02  0.00000000000E+00 0. -1.
      99926    2    1    2    0    0  0.71054273576E-14  0.00000000000E+00  0.46280587779E+03  0.64876847369E+03  0.45465509118E+03 0.  0.
      99925    2    3    3    0    0  0.54880163035E+02  0.51446261589E+02  0.17142038665E+03  0.32286731893E+03  0.26305856106E+03 0.  0.
         25    1    4    4    0    0  0.49653461700E+00 -0.53319979407E+01  0.89766389431E+02  0.15405904556E+03  0.12509000000E+03 0.  0.
         25    1    4    4    0    0  0.54383628418E+02  0.56778259530E+02  0.81653997219E+02  0.16880827337E+03  0.12509000000E+03 0.  0.
         25    1    3    3    0    0 -0.54880163035E+02 -0.51446261589E+02  0.29138549114E+03  0.32590115476E+03  0.12509000000E+03 0.  0.
<mgrwt>
<rscale>  2 0.45465509E+03</rscale>
<asrwt>0</asrwt>
<pdfrwt beam="1">  1       21 0.81733407E-01 0.45465509E+03</pdfrwt>
<pdfrwt beam="2">  1       21 0.13673721E-01 0.45465509E+03</pdfrwt>
<totfact> 0.55924513E+04</totfact>
</mgrwt>
</event>
<event>
 7    0  0.4788920E-002  0.4510643E+03  0.7546771E-02  0.1027405E+00
         21   -1    0    0  502  501  0.00000000000E+00  0.00000000000E+00  0.23292707393E+03  0.23292707393E+03  0.00000000000E+00 0. -1.
         21   -1    0    0  501  502 -0.00000000000E+00 -0.00000000000E+00 -0.21837198830E+03  0.21837198830E+03  0.00000000000E+00 0. -1.
      99926    2    1    2    0    0  0.00000000000E+00  0.00000000000E+00  0.14555085624E+02  0.45129906223E+03  0.45106428927E+03 0.  0.
      99925    2    3    3    0    0 -0.58358590220E+02  0.69417747141E+02 -0.51849762324E+02  0.28312754086E+03  0.26315063722E+03 0.  0.
         25    1    3    3    0    0  0.58358590220E+02 -0.69417747141E+02  0.66404847948E+02  0.16817152138E+03  0.12509000000E+03 0.  0.
         25    1    4    4    0    0  0.51011302852E+01  0.88056947148E+01 -0.21178628520E+02  0.12727766574E+03  0.12509000000E+03 0.  0.
         25    1    4    4    0    0 -0.63459720505E+02  0.60612052426E+02 -0.30671133804E+02  0.15584987512E+03  0.12509000000E+03 0.  0.
<mgrwt>
<rscale>  2 0.45106429E+03</rscale>
<asrwt>0</asrwt>
<pdfrwt beam="1">  1       21 0.34253981E-01 0.45106429E+03</pdfrwt>
<pdfrwt beam="2">  1       21 0.32113528E-01 0.45106429E+03</pdfrwt>
<totfact> 0.71022005E+04</totfact>
</mgrwt>
</event>
<event>
 7    0  0.4788920E-002  0.4450090E+03  0.7546771E-02  0.1029221E+00
         21   -1    0    0  502  501  0.00000000000E+00  0.00000000000E+00  0.39384807356E+03  0.39384807356E+03  0.00000000000E+00 0. -1.
         21   -1    0    0  501  502 -0.00000000000E+00 -0.00000000000E+00 -0.12570392686E+03  0.12570392686E+03  0.00000000000E+00 0. -1.
      99926    2    1    2    0    0 -0.35527136788E-14  0.00000000000E+00  0.26814414670E+03  0.51955200043E+03  0.44500898613E+03 0.  0.
      99925    2    3    3    0    0  0.18537100551E+02 -0.99325903798E+02  0.14280325459E+03  0.31567187241E+03  0.26276739191E+03 0.  0.
         25    1    4    4    0    0  0.62240742501E+01 -0.83320665858E+02  0.10497997051E+03  0.18343765908E+03  0.12509000000E+03 0.  0.
         25    1    4    4    0    0  0.12313026301E+02 -0.16005237940E+02  0.37823284075E+02  0.13223421334E+03  0.12509000000E+03 0.  0.
         25    1    3    3    0    0 -0.18537100551E+02  0.99325903798E+02  0.12534089211E+03  0.20388012801E+03  0.12509000000E+03 0.  0.
<mgrwt>
<rscale>  2 0.44500899E+03</rscale>
<asrwt>0</asrwt>
<pdfrwt beam="1">  1       21 0.57918834E-01 0.44500899E+03</pdfrwt>
<pdfrwt beam="2">  1       21 0.18485872E-01 0.44500899E+03</pdfrwt>
<totfact> 0.69241633E+04</totfact>
</mgrwt>
</event>
<event>
 7    0  0.4788920E-002  0.4493716E+03  0.7546771E-02  0.1027910E+00
         21   -1    0    0  502  501  0.00000000000E+00  0.00000000000E+00  0.79733756276E+02  0.79733756276E+02  0.00000000000E+00 0.  1.
         21   -1    0    0  501  502 -0.00000000000E+00 -0.00000000000E+00 -0.63315352426E+03  0.63315352426E+03  0.00000000000E+00 0.  1.
      99926    2    1    2    0    0  0.00000000000E+00 -0.17763568394E-14 -0.55341976799E+03  0.71288728054E+03  0.44937160030E+03 0.  0.
      99925    2    3    3    0    0  0.10040584387E+03  0.14087137275E+02 -0.29183080325E+03  0.40571294000E+03  0.26297906957E+03 0.  0.
         25    1    3    3    0    0 -0.10040584387E+03 -0.14087137275E+02 -0.26158896473E+03  0.30717434055E+03  0.12509000000E+03 0.  0.
         25    1    4    4    0    0  0.15124833192E+02  0.12663098498E+02 -0.10015441206E+03  0.16145441771E+03  0.12509000000E+03 0.  0.
         25    1    4    4    0    0  0.85281010674E+02  0.14240387772E+01 -0.19167639120E+03  0.24425852229E+03  0.12509000000E+03 0.  0.
<mgrwt>
<rscale>  2 0.44937160E+03</rscale>
<asrwt>0</asrwt>
<pdfrwt beam="1">  1       21 0.11725553E-01 0.44937160E+03</pdfrwt>
<pdfrwt beam="2">  1       21 0.93110811E-01 0.44937160E+03</pdfrwt>
<totfact> 0.54585991E+04</totfact>
</mgrwt>
</event>
<event>
 7    0  0.4788920E-002  0.4595031E+03  0.7546771E-02  0.1024925E+00
         21   -1    0    0  502  501  0.00000000000E+00  0.00000000000E+00  0.29549224990E+03  0.29549224990E+03  0.00000000000E+00 0. -1.
         21   -1    0    0  501  502 -0.00000000000E+00 -0.00000000000E+00 -0.17863677014E+03  0.17863677014E+03  0.00000000000E+00 0. -1.
      99926    2    1    2    0    0 -0.14210854715E-13  0.00000000000E+00  0.11685547976E+03  0.47412902004E+03  0.45950312783E+03 0.  0.
      99925    2    3    3    0    0 -0.10969457182E+03 -0.33998526423E+02  0.98144837093E+02  0.30328875800E+03  0.26298833205E+03 0.  0.
         25    1    3    3    0    0  0.10969457182E+03  0.33998526423E+02  0.18710642672E+02  0.17084026204E+03  0.12509000000E+03 0.  0.
         25    1    4    4    0    0 -0.65552681115E+02  0.17986182564E+02  0.30608403721E+02  0.14561950159E+03  0.12509000000E+03 0.  0.
         25    1    4    4    0    0 -0.44141890702E+02 -0.51984708987E+02  0.67536433372E+02  0.15766925641E+03  0.12509000000E+03 0.  0.
<mgrwt>
<rscale>  2 0.45950313E+03</rscale>
<asrwt>0</asrwt>
<pdfrwt beam="1">  1       21 0.43454743E-01 0.45950313E+03</pdfrwt>
<pdfrwt beam="2">  1       21 0.26270113E-01 0.45950313E+03</pdfrwt>
<totfact> 0.64784338E+04</totfact>
</mgrwt>
</event>
<event>
 7    0  0.4788920E-002  0.4180533E+03  0.7546771E-02  0.1037702E+00
         21   -1    0    0  502  501  0.00000000000E+00  0.00000000000E+00  0.16927293262E+04  0.16927293262E+04  0.00000000000E+00 0. -1.
         21   -1    0    0  501  502 -0.00000000000E+00 -0.00000000000E+00 -0.25811655349E+02  0.25811655349E+02  0.00000000000E+00 0. -1.
      99926    2    1    2    0    0  0.00000000000E+00  0.00000000000E+00  0.16669176709E+04  0.17185409816E+04  0.41805332659E+03 0.  0.
      99925    2    3    3    0    0 -0.38366670101E+02 -0.44082537444E+02  0.90656482624E+03  0.94575431766E+03  0.26301363788E+03 0.  0.
         25    1    3    3    0    0  0.38366670101E+02  0.44082537444E+02  0.76035284465E+03  0.77278666393E+03  0.12509000000E+03 0.  0.
         25    1    4    4    0    0 -0.42926583989E+02 -0.47848857473E+01  0.35678949265E+03  0.38054150484E+03  0.12509000000E+03 0.  0.
         25    1    4    4    0    0  0.45599138881E+01 -0.39297651697E+02  0.54977533359E+03  0.56521281281E+03  0.12509000000E+03 0.  0.
<mgrwt>
<rscale>  2 0.41805333E+03</rscale>
<asrwt>0</asrwt>
<pdfrwt beam="1">  1       21 0.24893071E+00 0.41805333E+03</pdfrwt>
<pdfrwt beam="2">  1       21 0.37958328E-02 0.41805333E+03</pdfrwt>
<totfact> 0.25425312E+04</totfact>
</mgrwt>
</event>
<event>
 7    0  0.4788920E-002  0.4624946E+03  0.7546771E-02  0.1024060E+00
         21   -1    0    0  502  501  0.00000000000E+00  0.00000000000E+00  0.66208547166E+03  0.66208547166E+03  0.00000000000E+00 0. -1.
         21   -1    0    0  501  502 -0.00000000000E+00 -0.00000000000E+00 -0.80767977545E+02  0.80767977545E+02  0.00000000000E+00 0. -1.
      99926    2    1    2    0    0 -0.14210854715E-13  0.00000000000E+00  0.58131749411E+03  0.74285344920E+03  0.46249456000E+03 0.  0.
      99925    2    3    3    0    0  0.68981782502E+02 -0.94915331716E+02  0.32320295427E+03  0.43295341646E+03  0.26309903966E+03 0.  0.
         25    1    4    4    0    0  0.55186861745E+02 -0.60881391605E+02  0.12144184467E+03  0.19273755028E+03  0.12509000000E+03 0.  0.
         25    1    4    4    0    0  0.13794920756E+02 -0.34033940111E+02  0.20176110960E+03  0.24021586618E+03  0.12509000000E+03 0.  0.
         25    1    3    3    0    0 -0.68981782502E+02  0.94915331716E+02  0.25811453984E+03  0.30990003274E+03  0.12509000000E+03 0.  0.
<mgrwt>
<rscale>  2 0.46249456E+03</rscale>
<asrwt>0</asrwt>
<pdfrwt beam="1">  1       21 0.97365508E-01 0.46249456E+03</pdfrwt>
<pdfrwt beam="2">  1       21 0.11877644E-01 0.46249456E+03</pdfrwt>
<totfact> 0.47760647E+04</totfact>
</mgrwt>
</event>
<event>
 7    0  0.4788920E-002  0.4554663E+03  0.7546771E-02  0.1026104E+00
         21   -1    0    0  502  501  0.00000000000E+00  0.00000000000E+00  0.10042166590E+03  0.10042166590E+03  0.00000000000E+00 0.  1.
         21   -1    0    0  501  502 -0.00000000000E+00 -0.00000000000E+00 -0.51644610619E+03  0.51644610619E+03  0.00000000000E+00 0.  1.
      99926    2    1    2    0    0  0.71054273576E-14  0.00000000000E+00 -0.41602444029E+03  0.61686777208E+03  0.45546625925E+03 0.  0.
      99925    2    3    3    0    0  0.57498443096E+02  0.90216494416E+02 -0.20997652525E+03  0.35314758284E+03  0.26301708554E+03 0.  0.
         25    1    4    4    0    0  0.34880441366E+02  0.53670856402E+02 -0.15691211585E+03  0.21063268079E+03  0.12509000000E+03 0.  0.
         25    1    3    3    0    0 -0.57498443096E+02 -0.90216494416E+02 -0.20604791504E+03  0.26372018925E+03  0.12509000000E+03 0.  0.
         25    1    4    4    0    0  0.22618001729E+02  0.36545638014E+02 -0.53064409396E+02  0.14251490204E+03  0.12509000000E+03 0.  0.
<mgrwt>
<rscale>  2 0.45546626E+03</rscale>
<asrwt>0</asrwt>
<pdfrwt beam="1">  1       21 0.14767892E-01 0.45546626E+03</pdfrwt>
<pdfrwt beam="2">  1       21 0.75947956E-01 0.45546626E+03</pdfrwt>
<totfact> 0.57440047E+04</totfact>
</mgrwt>
</event>
<event>
 7    0  0.4788920E-002  0.4548492E+03  0.7546771E-02  0.1026286E+00
         21   -1    0    0  502  501  0.00000000000E+00  0.00000000000E+00  0.10828818740E+03  0.10828818740E+03  0.00000000000E+00 0.  1.
         21   -1    0    0  501  502 -0.00000000000E+00 -0.00000000000E+00 -0.47763231784E+03  0.47763231784E+03  0.00000000000E+00 0.  1.
      99926    2    1    2    0    0 -0.14210854715E-13  0.71054273576E-14 -0.36934413044E+03  0.58592050523E+03  0.45484915275E+03 0.  0.
      99925    2    3    3    0    0 -0.77498055480E+02  0.38189694544E+02 -0.13873182277E+03  0.30970691773E+03  0.26307309795E+03 0.  0.
         25    1    3    3    0    0  0.77498055480E+02 -0.38189694544E+02 -0.23061230767E+03  0.27621358750E+03  0.12509000000E+03 0.  0.
         25    1    4    4    0    0 -0.75865263058E+02  0.36053128463E+02 -0.89492801835E+02  0.17524792692E+03  0.12509000000E+03 0.  0.
         25    1    4    4    0    0 -0.16327924220E+01  0.21365660807E+01 -0.49239020935E+02  0.13445899081E+03  0.12509000000E+03 0.  0.
<mgrwt>
<rscale>  2 0.45484915E+03</rscale>
<asrwt>0</asrwt>
<pdfrwt beam="1">  1       21 0.15924734E-01 0.45484915E+03</pdfrwt>
<pdfrwt beam="2">  1       21 0.70240045E-01 0.45484915E+03</pdfrwt>
<totfact> 0.59624436E+04</totfact>
</mgrwt>
</event>
<event>
 7    0  0.4788920E-002  0.4517828E+03  0.7546771E-02  0.1027192E+00
         21   -1    0    0  502  501  0.00000000000E+00  0.00000000000E+00  0.73488936223E+02  0.73488936223E+02  0.00000000000E+00 0. -1.
         21   -1    0    0  501  502 -0.00000000000E+00 -0.00000000000E+00 -0.69434853549E+03  0.69434853549E+03  0.00000000000E+00 0. -1.
      99926    2    1    2    0    0  0.00000000000E+00  0.00000000000E+00 -0.62085959927E+03  0.76783747171E+03  0.45178284713E+03 0.  0.
      99925    2    3    3    0    0  0.29153036539E+02 -0.10182340647E+03 -0.34062023990E+03  0.44318456123E+03  0.26300665741E+03 0.  0.
         25    1    4    4    0    0  0.46837781850E+02 -0.38566854581E+02 -0.13567587186E+03  0.19425918353E+03  0.12509000000E+03 0.  0.
         25    1    3    3    0    0 -0.29153036539E+02  0.10182340647E+03 -0.28023935937E+03  0.32465291048E+03  0.12509000000E+03 0.  0.
         25    1    4    4    0    0 -0.17684745312E+02 -0.63256551887E+02 -0.20494436804E+03  0.24892537770E+03  0.12509000000E+03 0.  0.
<mgrwt>
<rscale>  2 0.45178285E+03</rscale>
<asrwt>0</asrwt>
<pdfrwt beam="1">  1       21 0.10807197E-01 0.45178285E+03</pdfrwt>
<pdfrwt beam="2">  1       21 0.10211008E+00 0.45178285E+03</pdfrwt>
<totfact> 0.50626267E+04</totfact>
</mgrwt>
</event>
<event>
 7    0  0.4788920E-002  0.4568742E+03  0.7546771E-02  0.1025692E+00
         21   -1    0    0  502  501  0.00000000000E+00  0.00000000000E+00  0.47554052045E+03  0.47554052045E+03  0.00000000000E+00 0. -1.
         21   -1    0    0  501  502 -0.00000000000E+00 -0.00000000000E+00 -0.10973515712E+03  0.10973515712E+03  0.00000000000E+00 0. -1.
      99926    2    1    2    0    0  0.18873791419E-14  0.00000000000E+00  0.36580536333E+03  0.58527567757E+03  0.45687422221E+03 0.  0.
      99925    2    3    3    0    0  0.65778901980E+00 -0.83862512926E+02  0.33079335652E+03  0.43065775338E+03  0.26269469365E+03 0.  0.
         25    1    4    4    0    0 -0.29370031963E+02 -0.20092515407E+02  0.13071646254E+03  0.18439254223E+03  0.12509000000E+03 0.  0.
         25    1    3    3    0    0 -0.65778901980E+00  0.83862512926E+02  0.35012006810E+02  0.15461792419E+03  0.12509000000E+03 0.  0.
         25    1    4    4    0    0  0.30027820983E+02 -0.63769997519E+02  0.20007689398E+03  0.24626521115E+03  0.12509000000E+03 0.  0.
<mgrwt>
<rscale>  2 0.45687422E+03</rscale>
<asrwt>0</asrwt>
<pdfrwt beam="1">  1       21 0.69932429E-01 0.45687422E+03</pdfrwt>
<pdfrwt beam="2">  1       21 0.16137523E-01 0.45687422E+03</pdfrwt>
<totfact> 0.58719093E+04</totfact>
</mgrwt>
</event>
<event>
 7    0  0.4788920E-002  0.4379977E+03  0.7546771E-02  0.1031363E+00
         21   -1    0    0  502  501  0.00000000000E+00  0.00000000000E+00  0.29160817419E+03  0.29160817419E+03  0.00000000000E+00 0. -1.
         21   -1    0    0  501  502 -0.00000000000E+00 -0.00000000000E+00 -0.16446900640E+03  0.16446900640E+03  0.00000000000E+00 0. -1.
      99926    2    1    2    0    0  0.00000000000E+00  0.00000000000E+00  0.12713916780E+03  0.45607718059E+03  0.43799774733E+03 0.  0.
      99925    2    3    3    0    0 -0.43178600857E+02  0.47238683277E+02  0.80799359073E+01  0.27190743940E+03  0.26414481912E+03 0.  0.
         25    1    4    4    0    0 -0.90001370337E+01  0.15672162423E+02  0.43774141447E+02  0.13375463619E+03  0.12509000000E+03 0.  0.
         25    1    4    4    0    0 -0.34178463824E+02  0.31566520854E+02 -0.35694205539E+02  0.13815280322E+03  0.12509000000E+03 0.  0.
         25    1    3    3    0    0  0.43178600857E+02 -0.47238683277E+02  0.11905923189E+03  0.18416974118E+03  0.12509000000E+03 0.  0.
<mgrwt>
<rscale>  2 0.43799775E+03</rscale>
<asrwt>0</asrwt>
<pdfrwt beam="1">  1       21 0.42883555E-01 0.43799775E+03</pdfrwt>
<pdfrwt beam="2">  1       21 0.24186619E-01 0.43799775E+03</pdfrwt>
<totfact> 0.78558331E+04</totfact>
</mgrwt>
</event>
<event>
 7    0  0.4788920E-002  0.4323130E+03  0.7546771E-02  0.1033132E+00
         21   -1    0    0  502  501  0.00000000000E+00  0.00000000000E+00  0.52912328430E+03  0.52912328430E+03  0.00000000000E+00 0.  1.
         21   -1    0    0  501  502 -0.00000000000E+00 -0.00000000000E+00 -0.88303847865E+02  0.88303847865E+02  0.00000000000E+00 0.  1.
      99926    2    1    2    0    0  0.00000000000E+00  0.00000000000E+00  0.44081943644E+03  0.61742713217E+03  0.43231295145E+03 0.  0.
      99925    2    3    3    0    0  0.33904255621E+02  0.81906627184E+02  0.30758141573E+03  0.41430630017E+03  0.26303077565E+03 0.  0.
         25    1    4    4    0    0  0.26020335192E+02  0.15444233152E+02  0.19285343779E+03  0.23185240725E+03  0.12509000000E+03 0.  0.
         25    1    3    3    0    0 -0.33904255621E+02 -0.81906627184E+02  0.13323802071E+03  0.20312083199E+03  0.12509000000E+03 0.  0.
         25    1    4    4    0    0  0.78839204288E+01  0.66462394032E+02  0.11472797794E+03  0.18245389293E+03  0.12509000000E+03 0.  0.
<mgrwt>
<rscale>  2 0.43231295E+03</rscale>
<asrwt>0</asrwt>
<pdfrwt beam="1">  1       21 0.77812246E-01 0.43231295E+03</pdfrwt>
<pdfrwt beam="2">  1       21 0.12985860E-01 0.43231295E+03</pdfrwt>
<totfact> 0.69207297E+04</totfact>
</mgrwt>
</event>
<event>
 7    0  0.4788920E-002  0.4578433E+03  0.7546771E-02  0.1025409E+00
         21   -1    0    0  502  501  0.00000000000E+00  0.00000000000E+00  0.40801990754E+03  0.40801990754E+03  0.00000000000E+00 0. -1.
         21   -1    0    0  501  502 -0.00000000000E+00 -0.00000000000E+00 -0.12843764332E+03  0.12843764332E+03  0.00000000000E+00 0. -1.
      99926    2    1    2    0    0  0.26645352591E-14  0.14210854715E-13  0.27958226422E+03  0.53645755086E+03  0.45784327167E+03 0.  0.
      99925    2    3    3    0    0 -0.24651698337E+01  0.97803478349E+02  0.24831547239E+03  0.37460354933E+03  0.26286051035E+03 0.  0.
         25    1    3    3    0    0  0.24651698337E+01 -0.97803478349E+02  0.31266791823E+02  0.16185400153E+03  0.12509000000E+03 0.  0.
         25    1    4    4    0    0  0.17759494301E+02  0.67867238979E+02  0.88751817349E+02  0.16865869366E+03  0.12509000000E+03 0.  0.
         25    1    4    4    0    0 -0.20224664134E+02  0.29936239370E+02  0.15956365505E+03  0.20594485567E+03  0.12509000000E+03 0.  0.
<mgrwt>
<rscale>  2 0.45784327E+03</rscale>
<asrwt>0</asrwt>
<pdfrwt beam="1">  1       21 0.60002927E-01 0.45784327E+03</pdfrwt>
<pdfrwt beam="2">  1       21 0.18887889E-01 0.45784327E+03</pdfrwt>
<totfact> 0.61376714E+04</totfact>
</mgrwt>
</event>
<event>
 7    0  0.4788920E-002  0.4520802E+03  0.7546771E-02  0.1027104E+00
         21   -1    0    0  502  501  0.00000000000E+00  0.00000000000E+00  0.13551695544E+03  0.13551695544E+03  0.00000000000E+00 0.  1.
         21   -1    0    0  501  502 -0.00000000000E+00 -0.00000000000E+00 -0.37703118865E+03  0.37703118865E+03  0.00000000000E+00 0.  1.
      99926    2    1    2    0    0 -0.14210854715E-13  0.00000000000E+00 -0.24151423320E+03  0.51254814409E+03  0.45208016454E+03 0.  0.
      99925    2    3    3    0    0 -0.87114608263E+02  0.67762592893E+02 -0.14872867381E+03  0.32166233503E+03  0.26299375543E+03 0.  0.
         25    1    4    4    0    0 -0.66441035038E+02  0.68444914148E+02 -0.68173865558E+02  0.17144766389E+03  0.12509000000E+03 0.  0.
         25    1    3    3    0    0  0.87114608263E+02 -0.67762592893E+02 -0.92785559396E+02  0.19088580906E+03  0.12509000000E+03 0.  0.
         25    1    4    4    0    0 -0.20673573225E+02 -0.68232125514E+00 -0.80554808250E+02  0.15021467114E+03  0.12509000000E+03 0.  0.
<mgrwt>
<rscale>  2 0.45208016E+03</rscale>
<asrwt>0</asrwt>
<pdfrwt beam="1">  1       21 0.19928965E-01 0.45208016E+03</pdfrwt>
<pdfrwt beam="2">  1       21 0.55445762E-01 0.45208016E+03</pdfrwt>
<totfact> 0.65911774E+04</totfact>
</mgrwt>
</event>
<event>
 7    0  0.4788920E-002  0.4555883E+03  0.7546771E-02  0.1026069E+00
         21   -1    0    0  502  501  0.00000000000E+00  0.00000000000E+00  0.37626976671E+03  0.37626976671E+03  0.00000000000E+00 0.  1.
         21   -1    0    0  501  502 -0.00000000000E+00 -0.00000000000E+00 -0.13790682103E+03  0.13790682103E+03  0.00000000000E+00 0.  1.
      99926    2    1    2    0    0 -0.35527136788E-14  0.00000000000E+00  0.23836294569E+03  0.51417658774E+03  0.45558826752E+03 0.  0.
      99925    2    3    3    0    0 -0.25552990723E+02 -0.10878042630E+03  0.16683654842E+03  0.33183166709E+03  0.26418115927E+03 0.  0.
         25    1    4    4    0    0 -0.53875810812E+02 -0.45687840124E+02  0.90536355713E+02  0.16980671816E+03  0.12509000000E+03 0.  0.
         25    1    3    3    0    0  0.25552990723E+02  0.10878042630E+03  0.71526397270E+02  0.18234492065E+03  0.12509000000E+03 0.  0.
         25    1    4    4    0    0  0.28322820090E+02 -0.63092586181E+02  0.76300192705E+02  0.16202494893E+03  0.12509000000E+03 0.  0.
<mgrwt>
<rscale>  2 0.45558827E+03</rscale>
<asrwt>0</asrwt>
<pdfrwt beam="1">  1       21 0.55333789E-01 0.45558827E+03</pdfrwt>
<pdfrwt beam="2">  1       21 0.20280415E-01 0.45558827E+03</pdfrwt>
<totfact> 0.63986536E+04</totfact>
</mgrwt>
</event>
<event>
 7    0  0.4788920E-002  0.4423445E+03  0.7546771E-02  0.1030030E+00
         21   -1    0    0  502  501  0.00000000000E+00  0.00000000000E+00  0.10909937715E+04  0.10909937715E+04  0.00000000000E+00 0.  1.
         21   -1    0    0  501  502 -0.00000000000E+00 -0.00000000000E+00 -0.44837243573E+02  0.44837243573E+02  0.00000000000E+00 0.  1.
      99926    2    1    2    0    0  0.00000000000E+00  0.00000000000E+00  0.10461565279E+04  0.11358310151E+04  0.44234445162E+03 0.  0.
      99925    2    3    3    0    0 -0.10048460503E+03  0.30470008965E+01  0.68757430242E+03  0.74297587560E+03  0.26296062502E+03 0.  0.
         25    1    4    4    0    0 -0.70302816131E+02  0.35233808176E+01  0.26673322705E+03  0.30290101135E+03  0.12509000000E+03 0.  0.
         25    1    4    4    0    0 -0.30181788897E+02 -0.47637992109E+00  0.42084107538E+03  0.44007486425E+03  0.12509000000E+03 0.  0.
         25    1    3    3    0    0  0.10048460503E+03 -0.30470008965E+01  0.35858222551E+03  0.39285513948E+03  0.12509000000E+03 0.  0.
<mgrwt>
<rscale>  2 0.44234445E+03</rscale>
<asrwt>0</asrwt>
<pdfrwt beam="1">  1       21 0.16044024E+00 0.44234445E+03</pdfrwt>
<pdfrwt beam="2">  1       21 0.65937130E-02 0.44234445E+03</pdfrwt>
<totfact> 0.37857957E+04</totfact>
</mgrwt>
</event>
<event>
 7    0  0.4788920E-002  0.4640682E+03  0.7546771E-02  0.1023608E+00
         21   -1    0    0  502  501  0.00000000000E+00  0.00000000000E+00  0.40150659375E+02  0.40150659375E+02  0.00000000000E+00 0.  1.
         21   -1    0    0  501  502 -0.00000000000E+00 -0.00000000000E+00 -0.13409448579E+04  0.13409448579E+04  0.00000000000E+00 0.  1.
      99926    2    1    2    0    0  0.00000000000E+00  0.00000000000E+00 -0.13007941985E+04  0.13810955173E+04  0.46406818564E+03 0.  0.
      99925    2    3    3    0    0  0.26256869105E+02  0.76741732091E+02 -0.10812422180E+04  0.11157103314E+04  0.26295644700E+03 0.  0.
         25    1    3    3    0    0 -0.26256869105E+02 -0.76741732091E+02 -0.21955198049E+03  0.26538518583E+03  0.12509000000E+03 0.  0.
         25    1    4    4    0    0 -0.44522439786E+01  0.26404172695E+01 -0.55058836853E+03  0.56464312086E+03  0.12509000000E+03 0.  0.
         25    1    4    4    0    0  0.30709113083E+02  0.74101314821E+02 -0.53065384949E+03  0.55106721057E+03  0.12509000000E+03 0.  0.
<mgrwt>
<rscale>  2 0.46406819E+03</rscale>
<asrwt>0</asrwt>
<pdfrwt beam="1">  1       21 0.59045087E-02 0.46406819E+03</pdfrwt>
<pdfrwt beam="2">  1       21 0.19719777E+00 0.46406819E+03</pdfrwt>
<totfact> 0.25029162E+04</totfact>
</mgrwt>
</event>
<event>
 7    0  0.4788920E-002  0.4508190E+03  0.7546771E-02  0.1027478E+00
         21   -1    0    0  502  501  0.00000000000E+00  0.00000000000E+00  0.25678439870E+03  0.25678439870E+03  0.00000000000E+00 0. -1.
         21   -1    0    0  501  502 -0.00000000000E+00 -0.00000000000E+00 -0.19786808386E+03  0.19786808386E+03  0.00000000000E+00 0. -1.
      99926    2    1    2    0    0 -0.17763568394E-14  0.00000000000E+00  0.58916314843E+02  0.45465248256E+03  0.45081897447E+03 0.  0.
      99925    2    3    3    0    0 -0.10056157228E+02  0.65680524870E+02 -0.50120805993E+02  0.27590221133E+03  0.26304919193E+03 0.  0.
         25    1    3    3    0    0  0.10056157228E+02 -0.65680524870E+02  0.10903712084E+03  0.17875027123E+03  0.12509000000E+03 0.  0.
         25    1    4    4    0    0 -0.25503292850E+02  0.66356401453E+02 -0.12779583279E+02  0.14444520002E+03  0.12509000000E+03 0.  0.
         25    1    4    4    0    0  0.15447135621E+02 -0.67587658330E+00 -0.37341222714E+02  0.13145701131E+03  0.12509000000E+03 0.  0.
<mgrwt>
<rscale>  2 0.45081897E+03</rscale>
<asrwt>0</asrwt>
<pdfrwt beam="1">  1       21 0.37762411E-01 0.45081897E+03</pdfrwt>
<pdfrwt beam="2">  1       21 0.29098248E-01 0.45081897E+03</pdfrwt>
<totfact> 0.70906957E+04</totfact>
</mgrwt>
</event>
<event>
 7    0  0.4788920E-002  0.4592688E+03  0.7546771E-02  0.1024994E+00
         21   -1    0    0  502  501  0.00000000000E+00  0.00000000000E+00  0.86053050785E+03  0.86053050785E+03  0.00000000000E+00 0. -1.
         21   -1    0    0  501  502 -0.00000000000E+00 -0.00000000000E+00 -0.61278415863E+02  0.61278415863E+02  0.00000000000E+00 0. -1.
      99926    2    1    2    0    0  0.00000000000E+00  0.00000000000E+00  0.79925209199E+03  0.92180892371E+03  0.45926875061E+03 0.  0.
      99925    2    3    3    0    0  0.83757207205E+02  0.79889169143E+02  0.46500596684E+03  0.54662159799E+03  0.26299633665E+03 0.  0.
         25    1    4    4    0    0  0.47015538122E+02  0.43865330145E+02  0.31300250376E+03  0.34315113795E+03  0.12509000000E+03 0.  0.
         25    1    3    3    0    0 -0.83757207205E+02 -0.79889169143E+02  0.33424612515E+03  0.37518732572E+03  0.12509000000E+03 0.  0.
         25    1    4    4    0    0  0.36741669082E+02  0.36023838998E+02  0.15200346308E+03  0.20347046004E+03  0.12509000000E+03 0.  0.
<mgrwt>
<rscale>  2 0.45926875E+03</rscale>
<asrwt>0</asrwt>
<pdfrwt beam="1">  1       21 0.12654860E+00 0.45926875E+03</pdfrwt>
<pdfrwt beam="2">  1       21 0.90115323E-02 0.45926875E+03</pdfrwt>
<totfact> 0.40919891E+04</totfact>
</mgrwt>
</event>
<event>
 7    0  0.4788920E-002  0.4543840E+03  0.7546771E-02  0.1026423E+00
         21   -1    0    0  502  501  0.00000000000E+00  0.00000000000E+00  0.12879991075E+04  0.12879991075E+04  0.00000000000E+00 0.  1.
         21   -1    0    0  501  502 -0.00000000000E+00 -0.00000000000E+00 -0.40074719805E+02  0.40074719805E+02  0.00000000000E+00 0.  1.
      99926    2    1    2    0    0 -0.14210854715E-13  0.00000000000E+00  0.12479243877E+04  0.13280738273E+04  0.45438399330E+03 0.  0.
      99925    2    3    3    0    0  0.75255492931E+02 -0.20472604217E+02  0.54783617339E+03  0.61263442899E+03  0.26289532894E+03 0.  0.
         25    1    4    4    0    0  0.48392948131E+02  0.15553903578E+02  0.34114717274E+03  0.36689603830E+03  0.12509000000E+03 0.  0.
         25    1    3    3    0    0 -0.75255492931E+02  0.20472604217E+02  0.70008821430E+03  0.71543939831E+03  0.12509000000E+03 0.  0.
         25    1    4    4    0    0  0.26862544800E+02 -0.36026507795E+02  0.20668900064E+03  0.24573839070E+03  0.12509000000E+03 0.  0.
<mgrwt>
<rscale>  2 0.45438399E+03</rscale>
<asrwt>0</asrwt>
<pdfrwt beam="1">  1       21 0.18941161E+00 0.45438399E+03</pdfrwt>
<pdfrwt beam="2">  1       21 0.58933420E-02 0.45438399E+03</pdfrwt>
<totfact> 0.28446201E+04</totfact>
</mgrwt>
</event>
<event>
 7    0  0.4788920E-002  0.4549038E+03  0.7546771E-02  0.1026270E+00
         21   -1    0    0  502  501  0.00000000000E+00  0.00000000000E+00  0.55979753175E+03  0.55979753175E+03  0.00000000000E+00 0.  1.
         21   -1    0    0  501  502 -0.00000000000E+00 -0.00000000000E+00 -0.92416214009E+02  0.92416214009E+02  0.00000000000E+00 0.  1.
      99926    2    1    2    0    0  0.00000000000E+00  0.00000000000E+00  0.46738131774E+03  0.65221374576E+03  0.45490380740E+03 0.  0.
      99925    2    3    3    0    0  0.86262915277E+02  0.35025831559E+02  0.20216672525E+03  0.34455421381E+03  0.26301734169E+03 0.  0.
         25    1    4    4    0    0  0.41288323592E+02 -0.20394887196E+02  0.11615398433E+03  0.17680478858E+03  0.12509000000E+03 0.  0.
         25    1    4    4    0    0  0.44974591684E+02  0.55420718755E+02  0.86012740915E+02  0.16774942523E+03  0.12509000000E+03 0.  0.
         25    1    3    3    0    0 -0.86262915277E+02 -0.35025831559E+02  0.26521459249E+03  0.30765953195E+03  0.12509000000E+03 0.  0.
<mgrwt>
<rscale>  2 0.45490381E+03</rscale>
<asrwt>0</asrwt>
<pdfrwt beam="1">  1       21 0.82323165E-01 0.45490381E+03</pdfrwt>
<pdfrwt beam="2">  1       21 0.13590620E-01 0.45490381E+03</pdfrwt>
<totfact> 0.55616329E+04</totfact>
</mgrwt>
</event>
<event>
 7    0  0.4788920E-002  0.4541355E+03  0.7546771E-02  0.1026496E+00
         21   -1    0    0  502  501  0.00000000000E+00  0.00000000000E+00  0.10941193287E+03  0.10941193287E+03  0.00000000000E+00 0. -1.
         21   -1    0    0  501  502 -0.00000000000E+00 -0.00000000000E+00 -0.47124442836E+03  0.47124442836E+03  0.00000000000E+00 0. -1.
      99926    2    1    2    0    0  0.35527136788E-14 -0.17763568394E-14 -0.36183249549E+03  0.58065636123E+03  0.45413550296E+03 0.  0.
      99925    2    3    3    0    0  0.28629447999E+02 -0.15012924194E+02 -0.36540245052E+03  0.45140743139E+03  0.26306783362E+03 0.  0.
         25    1    3    3    0    0 -0.28629447999E+02  0.15012924194E+02  0.35699550296E+01  0.12924892984E+03  0.12509000000E+03 0.  0.
         25    1    4    4    0    0  0.22700498746E+02 -0.26989792327E+02 -0.12628254440E+03  0.18121410169E+03  0.12509000000E+03 0.  0.
         25    1    4    4    0    0  0.59289492528E+01  0.11976868133E+02 -0.23911990612E+03  0.27019332970E+03  0.12509000000E+03 0.  0.
<mgrwt>
<rscale>  2 0.45413550E+03</rscale>
<asrwt>0</asrwt>
<pdfrwt beam="1">  1       21 0.16089990E-01 0.45413550E+03</pdfrwt>
<pdfrwt beam="2">  1       21 0.69300651E-01 0.45413550E+03</pdfrwt>
<totfact> 0.60296027E+04</totfact>
</mgrwt>
</event>
<event>
 7    0  0.4788920E-002  0.4574200E+03  0.7546771E-02  0.1025532E+00
         21   -1    0    0  502  501  0.00000000000E+00  0.00000000000E+00  0.25827051917E+03  0.25827051917E+03  0.00000000000E+00 0. -1.
         21   -1    0    0  501  502 -0.00000000000E+00 -0.00000000000E+00 -0.20253285824E+03  0.20253285824E+03  0.00000000000E+00 0. -1.
      99926    2    1    2    0    0  0.00000000000E+00 -0.35527136788E-14  0.55737660929E+02  0.46080337741E+03  0.45742001026E+03 0.  0.
      99925    2    3    3    0    0  0.24359397896E+02 -0.89081506558E+01 -0.78275573430E+02  0.27565535420E+03  0.26303245711E+03 0.  0.
         25    1    4    4    0    0  0.35598658223E+02 -0.37757015050E+02 -0.38548344009E+02  0.14080603531E+03  0.12509000000E+03 0.  0.
         25    1    4    4    0    0 -0.11239260327E+02  0.28848864394E+02 -0.39727229421E+02  0.13484931890E+03  0.12509000000E+03 0.  0.
         25    1    3    3    0    0 -0.24359397896E+02  0.89081506558E+01  0.13401323436E+03  0.18514802321E+03  0.12509000000E+03 0.  0.
<mgrwt>
<rscale>  2 0.45742001E+03</rscale>
<asrwt>0</asrwt>
<pdfrwt beam="1">  1       21 0.37980959E-01 0.45742001E+03</pdfrwt>
<pdfrwt beam="2">  1       21 0.29784244E-01 0.45742001E+03</pdfrwt>
<totfact> 0.66823028E+04</totfact>
</mgrwt>
</event>
<event>
 7    0  0.4788920E-002  0.4595804E+03  0.7546771E-02  0.1024903E+00
         21   -1    0    0  502  501  0.00000000000E+00  0.00000000000E+00  0.12431666543E+03  0.12431666543E+03  0.00000000000E+00 0. -1.
         21   -1    0    0  501  502 -0.00000000000E+00 -0.00000000000E+00 -0.42475022424E+03  0.42475022424E+03  0.00000000000E+00 0. -1.
      99926    2    1    2    0    0  0.00000000000E+00  0.00000000000E+00 -0.30043355881E+03  0.54906688967E+03  0.45958038042E+03 0.  0.
      99925    2    3    3    0    0  0.59539655566E+02  0.43015767767E+02 -0.78565322916E+02  0.28398511161E+03  0.26283018622E+03 0.  0.
         25    1    4    4    0    0  0.17978004275E+02  0.35317042832E+02 -0.76585043046E+02  0.15193182376E+03  0.12509000000E+03 0.  0.
         25    1    3    3    0    0 -0.59539655566E+02 -0.43015767767E+02 -0.22186823589E+03  0.26508177806E+03  0.12509000000E+03 0.  0.
         25    1    4    4    0    0  0.41561651290E+02  0.76987249354E+01 -0.19802798695E+01  0.13205328785E+03  0.12509000000E+03 0.  0.
<mgrwt>
<rscale>  2 0.45958038E+03</rscale>
<asrwt>0</asrwt>
<pdfrwt beam="1">  1       21 0.18281863E-01 0.45958038E+03</pdfrwt>
<pdfrwt beam="2">  1       21 0.62463268E-01 0.45958038E+03</pdfrwt>
<totfact> 0.59733800E+04</totfact>
</mgrwt>
</event>
<event>
 7    0  0.4788920E-002  0.4420993E+03  0.7546771E-02  0.1030105E+00
         21   -1    0    0  502  501  0.00000000000E+00  0.00000000000E+00  0.19669023503E+03  0.19669023503E+03  0.00000000000E+00 0.  1.
         21   -1    0    0  501  502 -0.00000000000E+00 -0.00000000000E+00 -0.24842589490E+03  0.24842589490E+03  0.00000000000E+00 0.  1.
      99926    2    1    2    0    0  0.00000000000E+00 -0.35527136788E-14 -0.51735659865E+02  0.44511612993E+03  0.44209929950E+03 0.  0.
      99925    2    3    3    0    0 -0.23949973156E+02  0.16546486987E+02 -0.12979645096E+03  0.29482180984E+03  0.26310719000E+03 0.  0.
         25    1    4    4    0    0 -0.15648896547E+01 -0.23908838762E+02 -0.37967312901E+02  0.13290261999E+03  0.12509000000E+03 0.  0.
         25    1    3    3    0    0  0.23949973156E+02 -0.16546486987E+02  0.78060791092E+02  0.15029432009E+03  0.12509000000E+03 0.  0.
         25    1    4    4    0    0 -0.22385083501E+02  0.40455325749E+02 -0.91829138056E+02  0.16191918985E+03  0.12509000000E+03 0.  0.
<mgrwt>
<rscale>  2 0.44209930E+03</rscale>
<asrwt>0</asrwt>
<pdfrwt beam="1">  1       21 0.28925035E-01 0.44209930E+03</pdfrwt>
<pdfrwt beam="2">  1       21 0.36533220E-01 0.44209930E+03</pdfrwt>
<totfact> 0.76890459E+04</totfact>
</mgrwt>
</event>
<event>
 7    0  0.4788920E-002  0.4411562E+03  0.7546771E-02  0.1030393E+00
         21   -1    0    0  502  501  0.00000000000E+00  0.00000000000E+00  0.60129350114E+02  0.60129350114E+02  0.00000000000E+00 0.  1.
         21   -1    0    0  501  502 -0.00000000000E+00 -0.00000000000E+00 -0.80916716408E+03  0.80916716408E+03  0.00000000000E+00 0.  1.
      99926    2    1    2    0    0  0.00000000000E+00  0.00000000000E+00 -0.74903781397E+03  0.86929651419E+03  0.44115618871E+03 0.  0.
      99925    2    3    3    0    0  0.49296265857E+02  0.53819227612E+02 -0.61101842128E+03  0.66923779295E+03  0.26307618912E+03 0.  0.
         25    1    4    4    0    0 -0.85036559479E+01  0.43523014562E+02 -0.25790923009E+03  0.29005386401E+03  0.12509000000E+03 0.  0.
         25    1    3    3    0    0 -0.49296265857E+02 -0.53819227612E+02 -0.13801939268E+03  0.20005872124E+03  0.12509000000E+03 0.  0.
         25    1    4    4    0    0  0.57799921805E+02  0.10296213049E+02 -0.35310919119E+03  0.37918392894E+03  0.12509000000E+03 0.  0.
<mgrwt>
<rscale>  2 0.44115619E+03</rscale>
<asrwt>0</asrwt>
<pdfrwt beam="1">  1       21 0.88425513E-02 0.44115619E+03</pdfrwt>
<pdfrwt beam="2">  1       21 0.11899517E+00 0.44115619E+03</pdfrwt>
<totfact> 0.49769081E+04</totfact>
</mgrwt>
</event>
<event>
 7    0  0.4788920E-002  0.4498971E+03  0.7546771E-02  0.1027753E+00
         21   -1    0    0  502  501  0.00000000000E+00  0.00000000000E+00  0.57872176420E+02  0.57872176420E+02  0.00000000000E+00 0.  1.
         21   -1    0    0  501  502 -0.00000000000E+00 -0.00000000000E+00 -0.87437272790E+03  0.87437272790E+03  0.00000000000E+00 0.  1.
      99926    2    1    2    0    0 -0.71054273576E-14  0.00000000000E+00 -0.81650055148E+03  0.93224490432E+03  0.44989711164E+03 0.  0.
      99925    2    3    3    0    0 -0.46345125309E+02  0.17794738216E+02 -0.31666991958E+03  0.41461309306E+03  0.26298223441E+03 0.  0.
         25    1    3    3    0    0  0.46345125309E+02 -0.17794738216E+02 -0.49983063189E+03  0.51763181126E+03  0.12509000000E+03 0.  0.
         25    1    4    4    0    0  0.33670088065E+01 -0.48035706697E+01 -0.19510481594E+03  0.23183573569E+03  0.12509000000E+03 0.  0.
         25    1    4    4    0    0 -0.49712134116E+02  0.22598308885E+02 -0.12156510364E+03  0.18277735737E+03  0.12509000000E+03 0.  0.
<mgrwt>
<rscale>  2 0.44989711E+03</rscale>
<asrwt>0</asrwt>
<pdfrwt beam="1">  1       21 0.85106141E-02 0.44989711E+03</pdfrwt>
<pdfrwt beam="2">  1       21 0.12858423E+00 0.44989711E+03</pdfrwt>
<totfact> 0.43581828E+04</totfact>
</mgrwt>
</event>
<event>
 7    0  0.4788920E-002  0.4518338E+03  0.7546771E-02  0.1027177E+00
         21   -1    0    0  502  501  0.00000000000E+00  0.00000000000E+00  0.11960303690E+03  0.11960303690E+03  0.00000000000E+00 0. -1.
         21   -1    0    0  501  502 -0.00000000000E+00 -0.00000000000E+00 -0.42673208329E+03  0.42673208329E+03  0.00000000000E+00 0. -1.
      99926    2    1    2    0    0 -0.17763568394E-14  0.00000000000E+00 -0.30712904639E+03  0.54633512018E+03  0.45183383275E+03 0.  0.
      99925    2    3    3    0    0 -0.12845620656E+02  0.82053184438E+02 -0.10639094696E+03  0.29565399264E+03  0.26304850260E+03 0.  0.
         25    1    4    4    0    0  0.17494471342E+02  0.32428699747E+02 -0.17571827958E+02  0.13158250010E+03  0.12509000000E+03 0.  0.
         25    1    3    3    0    0  0.12845620656E+02 -0.82053184438E+02 -0.20073809943E+03  0.25068112755E+03  0.12509000000E+03 0.  0.
         25    1    4    4    0    0 -0.30340091998E+02  0.49624484691E+02 -0.88819118998E+02  0.16407149254E+03  0.12509000000E+03 0.  0.
<mgrwt>
<rscale>  2 0.45183383E+03</rscale>
<asrwt>0</asrwt>
<pdfrwt beam="1">  1       21 0.17588682E-01 0.45183383E+03</pdfrwt>
<pdfrwt beam="2">  1       21 0.62754718E-01 0.45183383E+03</pdfrwt>
<totfact> 0.63690007E+04</totfact>
</mgrwt>
</event>
<event>
 7    0  0.4788920E-002  0.4635803E+03  0.7546771E-02  0.1023748E+00
         21   -1    0    0  502  501  0.00000000000E+00  0.00000000000E+00  0.43335908015E+02  0.43335908015E+02  0.00000000000E+00 0. -1.
         21   -1    0    0  501  502 -0.00000000000E+00 -0.00000000000E+00 -0.12397727657E+04  0.12397727657E+04  0.00000000000E+00 0. -1.
      99926    2    1    2    0    0  0.71054273576E-14  0.00000000000E+00 -0.11964368577E+04  0.12831086737E+04  0.46358032113E+03 0.  0.
      99925    2    3    3    0    0 -0.38273271826E+02 -0.11237683937E+03 -0.81253949712E+03  0.86225467419E+03  0.26300055405E+03 0.  0.
         25    1    4    4    0    0 -0.59624747880E+02 -0.58726310590E+02 -0.40539003822E+03  0.43242627268E+03  0.12509000000E+03 0.  0.
         25    1    3    3    0    0  0.38273271826E+02  0.11237683937E+03 -0.38389736057E+03  0.42085399953E+03  0.12509000000E+03 0.  0.
         25    1    4    4    0    0  0.21351476055E+02 -0.53650528778E+02 -0.40714945890E+03  0.42982840152E+03  0.12509000000E+03 0.  0.
<mgrwt>
<rscale>  2 0.46358032E+03</rscale>
<asrwt>0</asrwt>
<pdfrwt beam="1">  1       21 0.63729266E-02 0.46358032E+03</pdfrwt>
<pdfrwt beam="2">  1       21 0.18231955E+00 0.46358032E+03</pdfrwt>
<totfact> 0.27712138E+04</totfact>
</mgrwt>
</event>
<event>
 7    0  0.4788920E-002  0.4564197E+03  0.7546771E-02  0.1025825E+00
         21   -1    0    0  502  501  0.00000000000E+00  0.00000000000E+00  0.42935500409E+03  0.42935500409E+03  0.00000000000E+00 0.  1.
         21   -1    0    0  501  502 -0.00000000000E+00 -0.00000000000E+00 -0.12129762546E+03  0.12129762546E+03  0.00000000000E+00 0.  1.
      99926    2    1    2    0    0  0.00000000000E+00  0.00000000000E+00  0.30805737863E+03  0.55065262955E+03  0.45641972996E+03 0.  0.
      99925    2    3    3    0    0 -0.59016506262E+02 -0.97382898743E+02  0.20566075390E+03  0.35291807558E+03  0.26322698455E+03 0.  0.
         25    1    4    4    0    0 -0.48847927909E+02 -0.39455808676E+02  0.14634542139E+03  0.20250276877E+03  0.12509000000E+03 0.  0.
         25    1    3    3    0    0  0.59016506262E+02  0.97382898743E+02  0.10239662473E+03  0.19773455397E+03  0.12509000000E+03 0.  0.
         25    1    4    4    0    0 -0.10168578353E+02 -0.57927090067E+02  0.59315332515E+02  0.15041530680E+03  0.12509000000E+03 0.  0.
<mgrwt>
<rscale>  2 0.45641973E+03</rscale>
<asrwt>0</asrwt>
<pdfrwt beam="1">  1       21 0.63140441E-01 0.45641973E+03</pdfrwt>
<pdfrwt beam="2">  1       21 0.17837886E-01 0.45641973E+03</pdfrwt>
<totfact> 0.61133814E+04</totfact>
</mgrwt>
</event>
<event>
 7    0  0.4788920E-002  0.4466015E+03  0.7546771E-02  0.1028740E+00
         21   -1    0    0  502  501  0.00000000000E+00  0.00000000000E+00  0.21305439039E+03  0.21305439039E+03  0.00000000000E+00 0. -1.
         21   -1    0    0  501  502 -0.00000000000E+00 -0.00000000000E+00 -0.23403987580E+03  0.23403987580E+03  0.00000000000E+00 0. -1.
      99926    2    1    2    0    0  0.00000000000E+00 -0.35527136788E-14 -0.20985485414E+02  0.44709426619E+03  0.44660149156E+03 0.  0.
      99925    2    3    3    0    0 -0.71601826263E+02  0.77398858531E+01  0.63294222081E+02  0.27994970435E+03  0.26301891768E+03 0.  0.
         25    1    4    4    0    0 -0.67181370892E+02 -0.20943501546E+02  0.43843404060E+02  0.15007237931E+03  0.12509000000E+03 0.  0.
         25    1    4    4    0    0 -0.44204553709E+01  0.28683387399E+02  0.19450818021E+02  0.12987732504E+03  0.12509000000E+03 0.  0.
         25    1    3    3    0    0  0.71601826263E+02 -0.77398858531E+01 -0.84279707495E+02  0.16714456184E+03  0.12509000000E+03 0.  0.
<mgrwt>
<rscale>  2 0.44660149E+03</rscale>
<asrwt>0</asrwt>
<pdfrwt beam="1">  1       21 0.31331528E-01 0.44660149E+03</pdfrwt>
<pdfrwt beam="2">  1       21 0.34417629E-01 0.44660149E+03</pdfrwt>
<totfact> 0.73962292E+04</totfact>
</mgrwt>
</event>
<event>
 7    0  0.4788920E-002  0.4364557E+03  0.7546771E-02  0.1031840E+00
         21   -1    0    0  502  501  0.00000000000E+00  0.00000000000E+00  0.10367603166E+03  0.10367603166E+03  0.00000000000E+00 0.  1.
         21   -1    0    0  501  502 -0.00000000000E+00 -0.00000000000E+00 -0.45934818686E+03  0.45934818686E+03  0.00000000000E+00 0.  1.
      99926    2    1    2    0    0  0.00000000000E+00  0.00000000000E+00 -0.35567215520E+03  0.56302421852E+03  0.43645571214E+03 0.  0.
      99925    2    3    3    0    0 -0.90215743714E+02 -0.24257365261E+02 -0.24796716536E+03  0.37335299478E+03  0.26301605165E+03 0.  0.
         25    1    4    4    0    0 -0.30859904707E+02  0.26166664095E+02 -0.10844868739E+03  0.17042785548E+03  0.12509000000E+03 0.  0.
         25    1    3    3    0    0  0.90215743714E+02  0.24257365261E+02 -0.10770498984E+03  0.18967122375E+03  0.12509000000E+03 0.  0.
         25    1    4    4    0    0 -0.59355839007E+02 -0.50424029356E+02 -0.13951847797E+03  0.20292513929E+03  0.12509000000E+03 0.  0.
<mgrwt>
<rscale>  2 0.43645571E+03</rscale>
<asrwt>0</asrwt>
<pdfrwt beam="1">  1       21 0.15246475E-01 0.43645571E+03</pdfrwt>
<pdfrwt beam="2">  1       21 0.67551204E-01 0.43645571E+03</pdfrwt>
<totfact> 0.70847044E+04</totfact>
</mgrwt>
</event>
<event>
 7    0  0.4788920E-002  0.4522237E+03  0.7546771E-02  0.1027061E+00
         21   -1    0    0  502  501  0.00000000000E+00  0.00000000000E+00  0.10518401894E+03  0.10518401894E+03  0.00000000000E+00 0. -1.
         21   -1    0    0  501  502 -0.00000000000E+00 -0.00000000000E+00 -0.48606774636E+03  0.48606774636E+03  0.00000000000E+00 0. -1.
      99926    2    1    2    0    0 -0.22204460493E-14  0.14210854715E-13 -0.38088372742E+03  0.59125176530E+03  0.45222365723E+03 0.  0.
      99925    2    3    3    0    0  0.26778168259E+01 -0.10555458264E+03 -0.19820202510E+03  0.34595795559E+03  0.26316140230E+03 0.  0.
         25    1    3    3    0    0 -0.26778168259E+01  0.10555458264E+03 -0.18268170232E+03  0.24529380971E+03  0.12509000000E+03 0.  0.
         25    1    4    4    0    0  0.39934715742E+02 -0.38743624791E+02 -0.97820440120E+02  0.16826228510E+03  0.12509000000E+03 0.  0.
         25    1    4    4    0    0 -0.37256898916E+02 -0.66810957848E+02 -0.10038158498E+03  0.17769567048E+03  0.12509000000E+03 0.  0.
<mgrwt>
<rscale>  2 0.45222366E+03</rscale>
<asrwt>0</asrwt>
<pdfrwt beam="1">  1       21 0.15468238E-01 0.45222366E+03</pdfrwt>
<pdfrwt beam="2">  1       21 0.71480551E-01 0.45222366E+03</pdfrwt>
<totfact> 0.60537407E+04</totfact>
</mgrwt>
</event>
<event>
 7    0  0.4788920E-002  0.4554852E+03  0.7546771E-02  0.1026099E+00
         21   -1    0    0  502  501  0.00000000000E+00  0.00000000000E+00  0.12915465418E+03  0.12915465418E+03  0.00000000000E+00 0.  1.
         21   -1    0    0  501  502 -0.00000000000E+00 -0.00000000000E+00 -0.40158589109E+03  0.40158589109E+03  0.00000000000E+00 0.  1.
      99926    2    1    2    0    0  0.00000000000E+00 -0.66613381478E-15 -0.27243123691E+03  0.53074054527E+03  0.45548517819E+03 0.  0.
      99925    2    3    3    0    0 -0.80940933899E+02 -0.10849656030E+01 -0.78498894094E+02  0.28617997277E+03  0.26302906400E+03 0.  0.
         25    1    4    4    0    0 -0.21630860219E+02  0.23313463942E+02 -0.90446885382E+01  0.12938595830E+03  0.12509000000E+03 0.  0.
         25    1    4    4    0    0 -0.59310073680E+02 -0.24398429545E+02 -0.69454205556E+02  0.15679401447E+03  0.12509000000E+03 0.  0.
         25    1    3    3    0    0  0.80940933899E+02  0.10849656030E+01 -0.19393234281E+03  0.24456057250E+03  0.12509000000E+03 0.  0.
<mgrwt>
<rscale>  2 0.45548518E+03</rscale>
<asrwt>0</asrwt>
<pdfrwt beam="1">  1       21 0.18993332E-01 0.45548518E+03</pdfrwt>
<pdfrwt beam="2">  1       21 0.59056747E-01 0.45548518E+03</pdfrwt>
<totfact> 0.62914140E+04</totfact>
</mgrwt>
</event>
<event>
 7    0  0.4788920E-002  0.4421322E+03  0.7546771E-02  0.1030095E+00
         21   -1    0    0  502  501  0.00000000000E+00  0.00000000000E+00  0.32172781067E+03  0.32172781067E+03  0.00000000000E+00 0. -1.
         21   -1    0    0  501  502 -0.00000000000E+00 -0.00000000000E+00 -0.15189929957E+03  0.15189929957E+03  0.00000000000E+00 0. -1.
      99926    2    1    2    0    0  0.71054273576E-14 -0.35527136788E-14  0.16982851110E+03  0.47362711023E+03  0.44213223855E+03 0.  0.
      99925    2    3    3    0    0  0.39123904923E+02 -0.23789657026E+02  0.12264790713E+02  0.26730100476E+03  0.26306420193E+03 0.  0.
         25    1    4    4    0    0  0.41158665601E+02  0.19749165896E+02  0.19784068117E+02  0.13462162812E+03  0.12509000000E+03 0.  0.
         25    1    4    4    0    0 -0.20347606779E+01 -0.43538822922E+02 -0.75192774042E+01  0.13267937664E+03  0.12509000000E+03 0.  0.
         25    1    3    3    0    0 -0.39123904923E+02  0.23789657026E+02  0.15756372038E+03  0.20632610547E+03  0.12509000000E+03 0.  0.
<mgrwt>
<rscale>  2 0.44213224E+03</rscale>
<asrwt>0</asrwt>
<pdfrwt beam="1">  1       21 0.47312913E-01 0.44213224E+03</pdfrwt>
<pdfrwt beam="2">  1       21 0.22338132E-01 0.44213224E+03</pdfrwt>
<totfact> 0.74489429E+04</totfact>
</mgrwt>
</event>
<event>
 7    0  0.4788920E-002  0.4562875E+03  0.7546771E-02  0.1025863E+00
         21   -1    0    0  502  501  0.00000000000E+00  0.00000000000E+00  0.10311628942E+03  0.10311628942E+03  0.00000000000E+00 0. -1.
         21   -1    0    0  501  502 -0.00000000000E+00 -0.00000000000E+00 -0.50476567533E+03  0.50476567533E+03  0.00000000000E+00 0. -1.
      99926    2    1    2    0    0  0.00000000000E+00  0.00000000000E+00 -0.40164938591E+03  0.60788196475E+03  0.45628746845E+03 0.  0.
      99925    2    3    3    0    0 -0.21477781742E+01  0.89687863757E+02 -0.15797287340E+03  0.31965587866E+03  0.26301316730E+03 0.  0.
         25    1    4    4    0    0 -0.84998404297E+01  0.44482678373E+02 -0.33068084775E+02  0.13708377837E+03  0.12509000000E+03 0.  0.
         25    1    3    3    0    0  0.21477781742E+01 -0.89687863757E+02 -0.24367651250E+03  0.28822608609E+03  0.12509000000E+03 0.  0.
         25    1    4    4    0    0  0.63520622556E+01  0.45205185384E+02 -0.12490478863E+03  0.18257210029E+03  0.12509000000E+03 0.  0.
<mgrwt>
<rscale>  2 0.45628747E+03</rscale>
<asrwt>0</asrwt>
<pdfrwt beam="1">  1       21 0.15164160E-01 0.45628747E+03</pdfrwt>
<pdfrwt beam="2">  1       21 0.74230248E-01 0.45628747E+03</pdfrwt>
<totfact> 0.57607590E+04</totfact>
</mgrwt>
</event>
<event>
 7    0  0.4788920E-002  0.4477150E+03  0.7546771E-02  0.1028406E+00
         21   -1    0    0  502  501  0.00000000000E+00  0.00000000000E+00  0.44594726009E+02  0.44594726009E+02  0.00000000000E+00 0. -1.
         21   -1    0    0  501  502 -0.00000000000E+00 -0.00000000000E+00 -0.11237245393E+04  0.11237245393E+04  0.00000000000E+00 0. -1.
      99926    2    1    2    0    0  0.88817841970E-15 -0.14210854715E-13 -0.10791298133E+04  0.11683192653E+04  0.44771503410E+03 0.  0.
      99925    2    3    3    0    0  0.74203772125E+01  0.82810737113E+02 -0.51132183225E+03  0.58098112453E+03  0.26301401245E+03 0.  0.
         25    1    4    4    0    0  0.20342138576E+02  0.77134750151E+02 -0.24525945997E+03  0.28664138412E+03  0.12509000000E+03 0.  0.
         25    1    4    4    0    0 -0.12921761364E+02  0.56759869623E+01 -0.26606237228E+03  0.29433974041E+03  0.12509000000E+03 0.  0.
         25    1    3    3    0    0 -0.74203772125E+01 -0.82810737113E+02 -0.56780798102E+03  0.58733814076E+03  0.12509000000E+03 0.  0.
<mgrwt>
<rscale>  2 0.44771503E+03</rscale>
<asrwt>0</asrwt>
<pdfrwt beam="1">  1       21 0.65580474E-02 0.44771503E+03</pdfrwt>
<pdfrwt beam="2">  1       21 0.16525362E+00 0.44771503E+03</pdfrwt>
<totfact> 0.35128741E+04</totfact>
</mgrwt>
</event>
<event>
 7    0  0.4788920E-002  0.4395856E+03  0.7546771E-02  0.1030874E+00
         21   -1    0    0  502  501  0.00000000000E+00  0.00000000000E+00  0.77450593754E+02  0.77450593754E+02  0.00000000000E+00 0. -1.
         21   -1    0    0  501  502 -0.00000000000E+00 -0.00000000000E+00 -0.62373797050E+03  0.62373797050E+03  0.00000000000E+00 0. -1.
      99926    2    1    2    0    0  0.00000000000E+00  0.00000000000E+00 -0.54628737674E+03  0.70118856425E+03  0.43958560560E+03 0.  0.
      99925    2    3    3    0    0  0.78527501612E+02 -0.13749181601E+02 -0.43992829776E+03  0.51866357887E+03  0.26290567202E+03 0.  0.
         25    1    4    4    0    0  0.69398369084E+02  0.41893221194E+01 -0.18412000338E+03  0.23319812991E+03  0.12509000000E+03 0.  0.
         25    1    3    3    0    0 -0.78527501612E+02  0.13749181601E+02 -0.10635907898E+03  0.18252498538E+03  0.12509000000E+03 0.  0.
         25    1    4    4    0    0  0.91291325282E+01 -0.17938503720E+02 -0.25580829438E+03  0.28546544896E+03  0.12509000000E+03 0.  0.
<mgrwt>
<rscale>  2 0.43958561E+03</rscale>
<asrwt>0</asrwt>
<pdfrwt beam="1">  1       21 0.11389793E-01 0.43958561E+03</pdfrwt>
<pdfrwt beam="2">  1       21 0.91726173E-01 0.43958561E+03</pdfrwt>
<totfact> 0.59764735E+04</totfact>
</mgrwt>
</event>
<event>
 6    0  0.4788920E-002  0.4601091E+03  0.7546771E-02  0.1024750E+00
         21   -1    0    0  502  501  0.00000000000E+00  0.00000000000E+00  0.11953845565E+03  0.11953845565E+03  0.00000000000E+00 0. -1.
         21   -1    0    0  501  502 -0.00000000000E+00 -0.00000000000E+00 -0.44274531723E+03  0.44274531723E+03  0.00000000000E+00 0. -1.
      99926    2    1    2    0    0  0.14210854715E-13  0.00000000000E+00 -0.32320686158E+03  0.56228377288E+03  0.46010908040E+03 0.  0.
         25    1    3    3    0    0  0.12179532498E+03 -0.17364562967E+02 -0.14087885045E+03  0.22501108381E+03  0.12509000000E+03 0.  0.
         25    1    3    3    0    0 -0.82070568367E+02 -0.76412565666E+01 -0.10447770800E+03  0.18263917040E+03  0.12509000000E+03 0.  0.
         25    1    3    3    0    0 -0.39724756612E+02  0.25005819534E+02 -0.77850303125E+02  0.15463351867E+03  0.12509000000E+03 0.  0.
<mgrwt>
<rscale>  2 0.46010908E+03</rscale>
<asrwt>0</asrwt>
<pdfrwt beam="1">  1       21 0.17579185E-01 0.46010908E+03</pdfrwt>
<pdfrwt beam="2">  1       21 0.65109604E-01 0.46010908E+03</pdfrwt>
<totfact> 0.58655543E+04</totfact>
</mgrwt>
</event>
<event>
 7    0  0.4788920E-002  0.4529588E+03  0.7546771E-02  0.1026843E+00
         21   -1    0    0  502  501  0.00000000000E+00  0.00000000000E+00  0.73559312827E+03  0.73559312827E+03  0.00000000000E+00 0. -1.
         21   -1    0    0  501  502 -0.00000000000E+00 -0.00000000000E+00 -0.69730001440E+02  0.69730001440E+02  0.00000000000E+00 0. -1.
      99926    2    1    2    0    0  0.00000000000E+00  0.00000000000E+00  0.66586312683E+03  0.80532312971E+03  0.45295876145E+03 0.  0.
      99925    2    3    3    0    0 -0.18754781039E+02 -0.51624896655E+02  0.59188222758E+03  0.64996047873E+03  0.26288244676E+03 0.  0.
         25    1    4    4    0    0  0.16293064797E+02 -0.55222313571E+02  0.27790726050E+03  0.31015306127E+03  0.12509000000E+03 0.  0.
         25    1    4    4    0    0 -0.35047845836E+02  0.35974169155E+01  0.31397496708E+03  0.33980741746E+03  0.12509000000E+03 0.  0.
         25    1    3    3    0    0  0.18754781039E+02  0.51624896655E+02  0.73980899250E+02  0.15536265098E+03  0.12509000000E+03 0.  0.
<mgrwt>
<rscale>  2 0.45295876E+03</rscale>
<asrwt>0</asrwt>
<pdfrwt beam="1">  1       21 0.10817546E+00 0.45295876E+03</pdfrwt>
<pdfrwt beam="2">  1       21 0.10254412E-01 0.45295876E+03</pdfrwt>
<totfact> 0.48277111E+04</totfact>
</mgrwt>
</event>
<event>
 7    0  0.4788920E-002  0.4515718E+03  0.7546771E-02  0.1027254E+00
         21   -1    0    0  502  501  0.00000000000E+00  0.00000000000E+00  0.10668748059E+03  0.10668748059E+03  0.00000000000E+00 0.  1.
         21   -1    0    0  501  502 -0.00000000000E+00 -0.00000000000E+00 -0.47783749489E+03  0.47783749489E+03  0.00000000000E+00 0.  1.
      99926    2    1    2    0    0  0.00000000000E+00  0.00000000000E+00 -0.37115001431E+03  0.58452497548E+03  0.45157182579E+03 0.  0.
      99925    2    3    3    0    0 -0.92003246399E+02 -0.51175850048E+02 -0.27416493831E+03  0.39442716371E+03  0.26329225035E+03 0.  0.
         25    1    4    4    0    0 -0.27951962613E+01 -0.19694373154E+02 -0.12670531127E+03  0.17915754369E+03  0.12509000000E+03 0.  0.
         25    1    4    4    0    0 -0.89208050138E+02 -0.31481476894E+02 -0.14745962704E+03  0.21526962002E+03  0.12509000000E+03 0.  0.
         25    1    3    3    0    0  0.92003246399E+02  0.51175850048E+02 -0.96985075994E+02  0.19009781178E+03  0.12509000000E+03 0.  0.
<mgrwt>
<rscale>  2 0.45157183E+03</rscale>
<asrwt>0</asrwt>
<pdfrwt beam="1">  1       21 0.15689336E-01 0.45157183E+03</pdfrwt>
<pdfrwt beam="2">  1       21 0.70270219E-01 0.45157183E+03</pdfrwt>
<totfact> 0.61284969E+04</totfact>
</mgrwt>
</event>
<event>
 7    0  0.4788920E-002  0.4606718E+03  0.7546771E-02  0.1024587E+00
         21   -1    0    0  502  501  0.00000000000E+00  0.00000000000E+00  0.98606760538E+03  0.98606760538E+03  0.00000000000E+00 0. -1.
         21   -1    0    0  501  502 -0.00000000000E+00 -0.00000000000E+00 -0.53804253002E+02  0.53804253002E+02  0.00000000000E+00 0. -1.
      99926    2    1    2    0    0  0.00000000000E+00  0.00000000000E+00  0.93226335237E+03  0.10398718584E+04  0.46067181775E+03 0.  0.
      99925    2    3    3    0    0  0.23706020434E+02 -0.71364418159E+02  0.37709754010E+03  0.46584098568E+03  0.26296466229E+03 0.  0.
         25    1    3    3    0    0 -0.23706020434E+02  0.71364418159E+02  0.55516581228E+03  0.57403087269E+03  0.12509000000E+03 0.  0.
         25    1    4    4    0    0 -0.15881780338E+02 -0.10388920985E+02  0.14604096167E+03  0.19322430285E+03  0.12509000000E+03 0.  0.
         25    1    4    4    0    0  0.39587800772E+02 -0.60975497174E+02  0.23105657843E+03  0.27261668284E+03  0.12509000000E+03 0.  0.
<mgrwt>
<rscale>  2 0.46067182E+03</rscale>
<asrwt>0</asrwt>
<pdfrwt beam="1">  1       21 0.14500993E+00 0.46067182E+03</pdfrwt>
<pdfrwt beam="2">  1       21 0.79123907E-02 0.46067182E+03</pdfrwt>
<totfact> 0.36029403E+04</totfact>
</mgrwt>
</event>
<event>
 7    0  0.4788920E-002  0.4544963E+03  0.7546771E-02  0.1026390E+00
         21   -1    0    0  502  501  0.00000000000E+00  0.00000000000E+00  0.14327088656E+03  0.14327088656E+03  0.00000000000E+00 0.  1.
         21   -1    0    0  501  502 -0.00000000000E+00 -0.00000000000E+00 -0.36044807430E+03  0.36044807430E+03  0.00000000000E+00 0.  1.
      99926    2    1    2    0    0  0.00000000000E+00  0.00000000000E+00 -0.21717718774E+03  0.50371896086E+03  0.45449627133E+03 0.  0.
      99925    2    3    3    0    0 -0.90087262785E+02  0.37453536903E+02 -0.75629022397E+02  0.29111163842E+03  0.26364323366E+03 0.  0.
         25    1    3    3    0    0  0.90087262785E+02 -0.37453536903E+02 -0.14154816534E+03  0.21260732244E+03  0.12509000000E+03 0.  0.
         25    1    4    4    0    0 -0.57675989601E+02  0.44696974357E+02 -0.71782297334E+02  0.16163089310E+03  0.12509000000E+03 0.  0.
         25    1    4    4    0    0 -0.32411273185E+02 -0.72434374548E+01 -0.38467250634E+01  0.12948074532E+03  0.12509000000E+03 0.  0.
<mgrwt>
<rscale>  2 0.45449627E+03</rscale>
<asrwt>0</asrwt>
<pdfrwt beam="1">  1       21 0.21069248E-01 0.45449627E+03</pdfrwt>
<pdfrwt beam="2">  1       21 0.53007070E-01 0.45449627E+03</pdfrwt>
<totfact> 0.65270760E+04</totfact>
</mgrwt>
</event>
<event>
 7    0  0.4788920E-002  0.4597947E+03  0.7546771E-02  0.1024841E+00
         21   -1    0    0  502  501  0.00000000000E+00  0.00000000000E+00  0.19532942378E+03  0.19532942378E+03  0.00000000000E+00 0. -1.
         21   -1    0    0  501  502 -0.00000000000E+00 -0.00000000000E+00 -0.27058286571E+03  0.27058286571E+03  0.00000000000E+00 0. -1.
      99926    2    1    2    0    0  0.14210854715E-13  0.00000000000E+00 -0.75253441926E+02  0.46591228949E+03  0.45979471612E+03 0.  0.
      99925    2    3    3    0    0  0.85470200347E+02  0.52539539996E+02  0.15379402330E+02  0.28171842703E+03  0.26279875894E+03 0.  0.
         25    1    4    4    0    0  0.17992520731E+02  0.33723533429E+02  0.38835137786E+02  0.13644296807E+03  0.12509000000E+03 0.  0.
         25    1    4    4    0    0  0.67477679616E+02  0.18816006567E+02 -0.23455735457E+02  0.14527545896E+03  0.12509000000E+03 0.  0.
         25    1    3    3    0    0 -0.85470200347E+02 -0.52539539996E+02 -0.90632844255E+02  0.18419386246E+03  0.12509000000E+03 0.  0.
<mgrwt>
<rscale>  2 0.45979472E+03</rscale>
<asrwt>0</asrwt>
<pdfrwt beam="1">  1       21 0.28724916E-01 0.45979472E+03</pdfrwt>
<pdfrwt beam="2">  1       21 0.39791597E-01 0.45979472E+03</pdfrwt>
<totfact> 0.65220859E+04</totfact>
</mgrwt>
</event>
<event>
 7    0  0.4788920E-002  0.4316975E+03  0.7546771E-02  0.1033325E+00
         21   -1    0    0  502  501  0.00000000000E+00  0.00000000000E+00  0.42266128278E+02  0.42266128278E+02  0.00000000000E+00 0. -1.
         21   -1    0    0  501  502 -0.00000000000E+00 -0.00000000000E+00 -0.11023173888E+04  0.11023173888E+04  0.00000000000E+00 0. -1.
      99926    2    1    2    0    0  0.00000000000E+00  0.00000000000E+00 -0.10600512605E+04  0.11445835171E+04  0.43169752447E+03 0.  0.
      99925    2    3    3    0    0  0.77705021439E+02  0.13425479572E+02 -0.79501504695E+03  0.84108719674E+03  0.26298371390E+03 0.  0.
         25    1    3    3    0    0 -0.77705021439E+02 -0.13425479572E+02 -0.26503621359E+03  0.30349632036E+03  0.12509000000E+03 0.  0.
         25    1    4    4    0    0  0.62119130813E+02 -0.95050062114E+01 -0.50473253377E+03  0.52378580575E+03  0.12509000000E+03 0.  0.
         25    1    4    4    0    0  0.15585890627E+02  0.22930485784E+02 -0.29028251319E+03  0.31730139099E+03  0.12509000000E+03 0.  0.
<mgrwt>
<rscale>  2 0.43169752E+03</rscale>
<asrwt>0</asrwt>
<pdfrwt beam="1">  1       21 0.62156073E-02 0.43169752E+03</pdfrwt>
<pdfrwt beam="2">  1       21 0.16210549E+00 0.43169752E+03</pdfrwt>
<totfact> 0.40902771E+04</totfact>
</mgrwt>
</event>
<event>
 7    0  0.4788920E-002  0.4623037E+03  0.7546771E-02  0.1024115E+00
         21   -1    0    0  502  501  0.00000000000E+00  0.00000000000E+00  0.14034589677E+03  0.14034589677E+03  0.00000000000E+00 0.  1.
         21   -1    0    0  501  502 -0.00000000000E+00 -0.00000000000E+00 -0.38071060629E+03  0.38071060629E+03  0.00000000000E+00 0.  1.
      99926    2    1    2    0    0  0.00000000000E+00  0.00000000000E+00 -0.24036470952E+03  0.52105650306E+03  0.46230367271E+03 0.  0.
      99925    2    3    3    0    0  0.89080414535E+02  0.21151992673E+02 -0.23815758782E+03  0.36602390477E+03  0.26243424924E+03 0.  0.
         25    1    4    4    0    0  0.56550064566E+02 -0.95808756656E+00 -0.74107633589E+02  0.15600729852E+03  0.12509000000E+03 0.  0.
         25    1    3    3    0    0 -0.89080414535E+02 -0.21151992673E+02 -0.22071216996E+01  0.15503259829E+03  0.12509000000E+03 0.  0.
         25    1    4    4    0    0  0.32530349969E+02  0.22110080240E+02 -0.16404995423E+03  0.21001660625E+03  0.12509000000E+03 0.  0.
<mgrwt>
<rscale>  2 0.46230367E+03</rscale>
<asrwt>0</asrwt>
<pdfrwt beam="1">  1       21 0.20639103E-01 0.46230367E+03</pdfrwt>
<pdfrwt beam="2">  1       21 0.55986854E-01 0.46230367E+03</pdfrwt>
<totfact> 0.60247446E+04</totfact>
</mgrwt>
</event>
<event>
 7    0  0.4788920E-002  0.4509521E+03  0.7546771E-02  0.1027438E+00
         21   -1    0    0  502  501  0.00000000000E+00  0.00000000000E+00  0.84394833102E+03  0.84394833102E+03  0.00000000000E+00 0.  1.
         21   -1    0    0  501  502 -0.00000000000E+00 -0.00000000000E+00 -0.60240004031E+02  0.60240004031E+02  0.00000000000E+00 0.  1.
      99926    2    1    2    0    0  0.24424906542E-14  0.00000000000E+00  0.78370832699E+03  0.90418833505E+03  0.45095210771E+03 0.  0.
      99925    2    3    3    0    0  0.86695903661E+00 -0.95934286804E+02  0.38988534962E+03  0.47998533576E+03  0.26300417810E+03 0.  0.
         25    1    4    4    0    0 -0.37848370826E+02 -0.58595293703E+02  0.21511247243E+03  0.25843140581E+03  0.12509000000E+03 0.  0.
         25    1    4    4    0    0  0.38715329863E+02 -0.37338993101E+02  0.17477287720E+03  0.22155392995E+03  0.12509000000E+03 0.  0.
         25    1    3    3    0    0 -0.86695903661E+00  0.95934286804E+02  0.39382297737E+03  0.42420299929E+03  0.12509000000E+03 0.  0.
<mgrwt>
<rscale>  2 0.45095211E+03</rscale>
<asrwt>0</asrwt>
<pdfrwt beam="1">  1       21 0.12411004E+00 0.45095211E+03</pdfrwt>
<pdfrwt beam="2">  1       21 0.88588246E-02 0.45095211E+03</pdfrwt>
<totfact> 0.44444727E+04</totfact>
</mgrwt>
</event>
<event>
 7    0  0.4788920E-002  0.4797636E+03  0.7546771E-02  0.1019200E+00
         21   -1    0    0  502  501  0.00000000000E+00  0.00000000000E+00  0.24245544421E+04  0.24245544421E+04  0.00000000000E+00 0. -1.
         21   -1    0    0  501  502 -0.00000000000E+00 -0.00000000000E+00 -0.23733548372E+02  0.23733548372E+02  0.00000000000E+00 0. -1.
      99926    2    1    2    0    0  0.00000000000E+00  0.00000000000E+00  0.24008208937E+04  0.24482879905E+04  0.47976360901E+03 0.  0.
      99925    2    3    3    0    0  0.86301621473E+02  0.10166513315E+03  0.13690325670E+04  0.14004242453E+04  0.26297172501E+03 0.  0.
         25    1    4    4    0    0  0.22078827901E+02  0.18906362179E+02  0.50150097143E+03  0.51768297018E+03  0.12509000000E+03 0.  0.
         25    1    4    4    0    0  0.64222793572E+02  0.82758770974E+02  0.86753159552E+03  0.88274127507E+03  0.12509000000E+03 0.  0.
         25    1    3    3    0    0 -0.86301621473E+02 -0.10166513315E+03  0.10317883268E+04  0.10478637452E+04  0.12509000000E+03 0.  0.
<mgrwt>
<rscale>  2 0.47976361E+03</rscale>
<asrwt>0</asrwt>
<pdfrwt beam="1">  1       21 0.35655195E+00 0.47976361E+03</pdfrwt>
<pdfrwt beam="2">  1       21 0.34902294E-02 0.47976361E+03</pdfrwt>
<totfact> 0.63603657E+03</totfact>
</mgrwt>
</event>
<event>
 7    0  0.4788920E-002  0.4646724E+03  0.7546771E-02  0.1023435E+00
         21   -1    0    0  502  501  0.00000000000E+00  0.00000000000E+00  0.11387952231E+03  0.11387952231E+03  0.00000000000E+00 0. -1.
         21   -1    0    0  501  502 -0.00000000000E+00 -0.00000000000E+00 -0.47401069592E+03  0.47401069592E+03  0.00000000000E+00 0. -1.
      99926    2    1    2    0    0  0.00000000000E+00  0.14210854715E-13 -0.36013117361E+03  0.58789021823E+03  0.46467240771E+03 0.  0.
      99925    2    3    3    0    0  0.46332906383E+02  0.81558256205E+02 -0.32326725767E+03  0.42725104565E+03  0.26314111947E+03 0.  0.
         25    1    3    3    0    0 -0.46332906383E+02 -0.81558256205E+02 -0.36863915936E+02  0.16063917258E+03  0.12509000000E+03 0.  0.
         25    1    4    4    0    0  0.48482812657E+02  0.23501879884E+02 -0.20182433527E+03  0.24348201554E+03  0.12509000000E+03 0.  0.
         25    1    4    4    0    0 -0.21499062740E+01  0.58056376321E+02 -0.12144292240E+03  0.18376903011E+03  0.12509000000E+03 0.  0.
<mgrwt>
<rscale>  2 0.46467241E+03</rscale>
<asrwt>0</asrwt>
<pdfrwt beam="1">  1       21 0.16746989E-01 0.46467241E+03</pdfrwt>
<pdfrwt beam="2">  1       21 0.69707455E-01 0.46467241E+03</pdfrwt>
<totfact> 0.55095303E+04</totfact>
</mgrwt>
</event>
<event>
 7    0  0.4788920E-002  0.4479510E+03  0.7546771E-02  0.1028335E+00
         21   -1    0    0  502  501  0.00000000000E+00  0.00000000000E+00  0.34985844604E+02  0.34985844604E+02  0.00000000000E+00 0.  1.
         21   -1    0    0  501  502 -0.00000000000E+00 -0.00000000000E+00 -0.14338660527E+04  0.14338660527E+04  0.00000000000E+00 0.  1.
      99926    2    1    2    0    0  0.00000000000E+00  0.35527136788E-14 -0.13988802081E+04  0.14688518973E+04  0.44795095669E+03 0.  0.
      99925    2    3    3    0    0  0.98866765900E+02  0.30431197381E+02 -0.80397449011E+03  0.85219882096E+03  0.26299649146E+03 0.  0.
         25    1    4    4    0    0  0.42181399055E+02 -0.23169867569E+02 -0.42147933705E+03  0.44227644392E+03  0.12509000000E+03 0.  0.
         25    1    4    4    0    0  0.56685366846E+02  0.53601064950E+02 -0.38249515306E+03  0.40992237703E+03  0.12509000000E+03 0.  0.
         25    1    3    3    0    0 -0.98866765900E+02 -0.30431197381E+02 -0.59490571795E+03  0.61665307631E+03  0.12509000000E+03 0.  0.
<mgrwt>
<rscale>  2 0.44795096E+03</rscale>
<asrwt>0</asrwt>
<pdfrwt beam="1">  1       21 0.51449768E-02 0.44795096E+03</pdfrwt>
<pdfrwt beam="2">  1       21 0.21086267E+00 0.44795096E+03</pdfrwt>
<totfact> 0.25944810E+04</totfact>
</mgrwt>
</event>
<event>
 7    0  0.4788920E-002  0.4389289E+03  0.7546771E-02  0.1031076E+00
         21   -1    0    0  502  501  0.00000000000E+00  0.00000000000E+00  0.39749574727E+02  0.39749574727E+02  0.00000000000E+00 0.  1.
         21   -1    0    0  501  502 -0.00000000000E+00 -0.00000000000E+00 -0.12117022530E+04  0.12117022530E+04  0.00000000000E+00 0.  1.
      99926    2    1    2    0    0  0.00000000000E+00  0.17763568394E-14 -0.11719526783E+04  0.12514518278E+04  0.43892892023E+03 0.  0.
      99925    2    3    3    0    0 -0.94315342062E+02  0.12987064360E+02 -0.80618302350E+03  0.85333250386E+03  0.26302328256E+03 0.  0.
         25    1    4    4    0    0 -0.58550282063E+02 -0.32026025322E+02 -0.42792939498E+03  0.45080469942E+03  0.12509000000E+03 0.  0.
         25    1    3    3    0    0  0.94315342062E+02 -0.12987064360E+02 -0.36576965482E+03  0.39811932392E+03  0.12509000000E+03 0.  0.
         25    1    4    4    0    0 -0.35765059999E+02  0.45013089682E+02 -0.37825362851E+03  0.40252780444E+03  0.12509000000E+03 0.  0.
<mgrwt>
<rscale>  2 0.43892892E+03</rscale>
<asrwt>0</asrwt>
<pdfrwt beam="1">  1       21 0.58455261E-02 0.43892892E+03</pdfrwt>
<pdfrwt beam="2">  1       21 0.17819150E+00 0.43892892E+03</pdfrwt>
<totfact> 0.34698360E+04</totfact>
</mgrwt>
</event>
<event>
 7    0  0.4788920E-002  0.4576521E+03  0.7546771E-02  0.1025464E+00
         21   -1    0    0  502  501  0.00000000000E+00  0.00000000000E+00  0.11168405933E+04  0.11168405933E+04  0.00000000000E+00 0. -1.
         21   -1    0    0  501  502 -0.00000000000E+00 -0.00000000000E+00 -0.46883467839E+02  0.46883467839E+02  0.00000000000E+00 0. -1.
      99926    2    1    2    0    0  0.00000000000E+00  0.35527136788E-14  0.10699571255E+04  0.11637240612E+04  0.45765209510E+03 0.  0.
      99925    2    3    3    0    0  0.86216357003E+02 -0.31409398270E+02  0.85016617616E+03  0.89469733383E+03  0.26321280661E+03 0.  0.
         25    1    4    4    0    0  0.63762189110E+02  0.18323713449E+02  0.46411355799E+03  0.48523218983E+03  0.12509000000E+03 0.  0.
         25    1    3    3    0    0 -0.86216357003E+02  0.31409398270E+02  0.21979094933E+03  0.26902672733E+03  0.12509000000E+03 0.  0.
         25    1    4    4    0    0  0.22454167893E+02 -0.49733111719E+02  0.38605261817E+03  0.40946514400E+03  0.12509000000E+03 0.  0.
<mgrwt>
<rscale>  2 0.45765210E+03</rscale>
<asrwt>0</asrwt>
<pdfrwt beam="1">  1       21 0.16424125E+00 0.45765210E+03</pdfrwt>
<pdfrwt beam="2">  1       21 0.68946283E-02 0.45765210E+03</pdfrwt>
<totfact> 0.32647487E+04</totfact>
</mgrwt>
</event>
<event>
 7    0  0.4788920E-002  0.4501775E+03  0.7546771E-02  0.1027669E+00
         21   -1    0    0  502  501  0.00000000000E+00  0.00000000000E+00  0.40081069695E+03  0.40081069695E+03  0.00000000000E+00 0. -1.
         21   -1    0    0  501  502 -0.00000000000E+00 -0.00000000000E+00 -0.12640615127E+03  0.12640615127E+03  0.00000000000E+00 0. -1.
      99926    2    1    2    0    0  0.00000000000E+00  0.14210854715E-13  0.27440454568E+03  0.52721684821E+03  0.45017746540E+03 0.  0.
      99925    2    3    3    0    0 -0.25072729953E+02  0.10566309707E+03  0.17506719990E+03  0.33406212206E+03  0.26297460913E+03 0.  0.
         25    1    4    4    0    0 -0.50366083419E+02  0.67707873671E+02  0.83338997106E+02  0.17237747839E+03  0.12509000000E+03 0.  0.
         25    1    4    4    0    0  0.25293353466E+02  0.37955223396E+02  0.91728202789E+02  0.16168464367E+03  0.12509000000E+03 0.  0.
         25    1    3    3    0    0  0.25072729953E+02 -0.10566309707E+03  0.99337345784E+02  0.19315472616E+03  0.12509000000E+03 0.  0.
<mgrwt>
<rscale>  2 0.45017747E+03</rscale>
<asrwt>0</asrwt>
<pdfrwt beam="1">  1       21 0.58942749E-01 0.45017747E+03</pdfrwt>
<pdfrwt beam="2">  1       21 0.18589140E-01 0.45017747E+03</pdfrwt>
<totfact> 0.65876813E+04</totfact>
</mgrwt>
</event>
<event>
 7    0  0.4788920E-002  0.4562823E+03  0.7546771E-02  0.1025865E+00
         21   -1    0    0  502  501  0.00000000000E+00  0.00000000000E+00  0.47126592839E+03  0.47126592839E+03  0.00000000000E+00 0. -1.
         21   -1    0    0  501  502 -0.00000000000E+00 -0.00000000000E+00 -0.11044375270E+03  0.11044375270E+03  0.00000000000E+00 0. -1.
      99926    2    1    2    0    0  0.00000000000E+00  0.35527136788E-14  0.36082217569E+03  0.58170968109E+03  0.45628227076E+03 0.  0.
      99925    2    3    3    0    0  0.81700215412E+02 -0.25007829234E+02  0.13058804041E+03  0.30610927857E+03  0.26334262360E+03 0.  0.
         25    1    4    4    0    0  0.19096950505E+02  0.21442756777E+01  0.25610383742E+02  0.12912277604E+03  0.12509000000E+03 0.  0.
         25    1    3    3    0    0 -0.81700215412E+02  0.25007829234E+02  0.23023413529E+03  0.27560040253E+03  0.12509000000E+03 0.  0.
         25    1    4    4    0    0  0.62603264907E+02 -0.27152104912E+02  0.10497765666E+03  0.17698650253E+03  0.12509000000E+03 0.  0.
<mgrwt>
<rscale>  2 0.45628227E+03</rscale>
<asrwt>0</asrwt>
<pdfrwt beam="1">  1       21 0.69303812E-01 0.45628227E+03</pdfrwt>
<pdfrwt beam="2">  1       21 0.16241728E-01 0.45628227E+03</pdfrwt>
<totfact> 0.59215899E+04</totfact>
</mgrwt>
</event>
<event>
 7    0  0.4788920E-002  0.4546763E+03  0.7546771E-02  0.1026337E+00
         21   -1    0    0  502  501  0.00000000000E+00  0.00000000000E+00  0.49583188935E+03  0.49583188935E+03  0.00000000000E+00 0.  1.
         21   -1    0    0  501  502 -0.00000000000E+00 -0.00000000000E+00 -0.10423416849E+03  0.10423416849E+03  0.00000000000E+00 0.  1.
      99926    2    1    2    0    0  0.00000000000E+00  0.00000000000E+00  0.39159772087E+03  0.60006605784E+03  0.45467625712E+03 0.  0.
      99925    2    3    3    0    0  0.92885128970E+02 -0.51136102851E+02  0.19562368639E+03  0.34453547554E+03  0.26304661000E+03 0.  0.
         25    1    3    3    0    0 -0.92885128970E+02  0.51136102851E+02  0.19597403448E+03  0.25553058230E+03  0.12509000000E+03 0.  0.
         25    1    4    4    0    0  0.49461149051E+02 -0.21170883319E+02  0.14687922337E+03  0.20028885621E+03  0.12509000000E+03 0.  0.
         25    1    4    4    0    0  0.43423979919E+02 -0.29965219532E+02  0.48744463021E+02  0.14424661933E+03  0.12509000000E+03 0.  0.
<mgrwt>
<rscale>  2 0.45467626E+03</rscale>
<asrwt>0</asrwt>
<pdfrwt beam="1">  1       21 0.72916454E-01 0.45467626E+03</pdfrwt>
<pdfrwt beam="2">  1       21 0.15328554E-01 0.45467626E+03</pdfrwt>
<totfact> 0.58824529E+04</totfact>
</mgrwt>
</event>
<event>
 7    0  0.4788920E-002  0.4509790E+03  0.7546771E-02  0.1027430E+00
         21   -1    0    0  502  501  0.00000000000E+00  0.00000000000E+00  0.24493370398E+02  0.24493370398E+02  0.00000000000E+00 0. -1.
         21   -1    0    0  501  502 -0.00000000000E+00 -0.00000000000E+00 -0.20758892371E+04  0.20758892371E+04  0.00000000000E+00 0. -1.
      99926    2    1    2    0    0  0.35527136788E-14  0.00000000000E+00 -0.20513958667E+04  0.21003826075E+04  0.45097904159E+03 0.  0.
      99925    2    3    3    0    0 -0.16414810544E+02 -0.10111763898E+03 -0.11160450912E+04  0.11511603973E+04  0.26290567111E+03 0.  0.
         25    1    4    4    0    0  0.28476776174E+02 -0.31382905112E+02 -0.52274492511E+03  0.53917119577E+03  0.12509000000E+03 0.  0.
         25    1    4    4    0    0 -0.44891586718E+02 -0.69734733868E+02 -0.59330016608E+03  0.61198920156E+03  0.12509000000E+03 0.  0.
         25    1    3    3    0    0  0.16414810544E+02  0.10111763898E+03 -0.93535077548E+03  0.94922221013E+03  0.12509000000E+03 0.  0.
<mgrwt>
<rscale>  2 0.45097904E+03</rscale>
<asrwt>0</asrwt>
<pdfrwt beam="1">  1       21 0.36019656E-02 0.45097904E+03</pdfrwt>
<pdfrwt beam="2">  1       21 0.30527788E+00 0.45097904E+03</pdfrwt>
<totfact> 0.12525709E+04</totfact>
</mgrwt>
</event>
<event>
 7    0  0.4788920E-002  0.4582976E+03  0.7546771E-02  0.1025276E+00
         21   -1    0    0  502  501  0.00000000000E+00  0.00000000000E+00  0.40328516240E+03  0.40328516240E+03  0.00000000000E+00 0.  1.
         21   -1    0    0  501  502 -0.00000000000E+00 -0.00000000000E+00 -0.13020359710E+03  0.13020359710E+03  0.00000000000E+00 0.  1.
      99926    2    1    2    0    0  0.00000000000E+00  0.00000000000E+00  0.27308156530E+03  0.53348875950E+03  0.45829762732E+03 0.  0.
      99925    2    3    3    0    0 -0.24391618026E+02  0.11101521992E+03  0.19989101687E+03  0.34930489874E+03  0.26294136908E+03 0.  0.
         25    1    4    4    0    0  0.24477930095E+02  0.39079859962E+02  0.80404869979E+02  0.15568832883E+03  0.12509000000E+03 0.  0.
         25    1    4    4    0    0 -0.48869548121E+02  0.71935359963E+02  0.11948614689E+03  0.19361656991E+03  0.12509000000E+03 0.  0.
         25    1    3    3    0    0  0.24391618026E+02 -0.11101521992E+03  0.73190548436E+02  0.18418386076E+03  0.12509000000E+03 0.  0.
<mgrwt>
<rscale>  2 0.45829763E+03</rscale>
<asrwt>0</asrwt>
<pdfrwt beam="1">  1       21 0.59306641E-01 0.45829763E+03</pdfrwt>
<pdfrwt beam="2">  1       21 0.19147588E-01 0.45829763E+03</pdfrwt>
<totfact> 0.61351729E+04</totfact>
</mgrwt>
</event>
<event>
 7    0  0.4788920E-002  0.4490766E+03  0.7546771E-02  0.1027998E+00
         21   -1    0    0  502  501  0.00000000000E+00  0.00000000000E+00  0.12118064091E+04  0.12118064091E+04  0.00000000000E+00 0. -1.
         21   -1    0    0  501  502 -0.00000000000E+00 -0.00000000000E+00 -0.41605206124E+02  0.41605206124E+02  0.00000000000E+00 0. -1.
      99926    2    1    2    0    0  0.00000000000E+00  0.00000000000E+00  0.11702012030E+04  0.12534116152E+04  0.44907663236E+03 0.  0.
      99925    2    3    3    0    0  0.23421890959E+02 -0.84182050627E+02  0.91544460372E+03  0.95645431932E+03  0.26292744219E+03 0.  0.
         25    1    4    4    0    0 -0.27827493483E+02 -0.47964732064E+02  0.43078629221E+03  0.45199482583E+03  0.12509000000E+03 0.  0.
         25    1    4    4    0    0  0.51249384441E+02 -0.36217318563E+02  0.48465831150E+03  0.50445949350E+03  0.12509000000E+03 0.  0.
         25    1    3    3    0    0 -0.23421890959E+02  0.84182050627E+02  0.25475659928E+03  0.29695729592E+03  0.12509000000E+03 0.  0.
<mgrwt>
<rscale>  2 0.44907663E+03</rscale>
<asrwt>0</asrwt>
<pdfrwt beam="1">  1       21 0.17820680E+00 0.44907663E+03</pdfrwt>
<pdfrwt beam="2">  1       21 0.61184135E-02 0.44907663E+03</pdfrwt>
<totfact> 0.31945955E+04</totfact>
</mgrwt>
</event>
<event>
 7    0  0.4788920E-002  0.4561980E+03  0.7546771E-02  0.1025890E+00
         21   -1    0    0  502  501  0.00000000000E+00  0.00000000000E+00  0.29794756676E+02  0.29794756676E+02  0.00000000000E+00 0.  1.
         21   -1    0    0  501  502 -0.00000000000E+00 -0.00000000000E+00 -0.17462522146E+04  0.17462522146E+04  0.00000000000E+00 0.  1.
      99926    2    1    2    0    0  0.00000000000E+00  0.00000000000E+00 -0.17164574579E+04  0.17760469712E+04  0.45619802642E+03 0.  0.
      99925    2    3    3    0    0 -0.94252929077E+02  0.39082258478E+02 -0.88061018700E+03  0.92475430363E+03  0.26322078769E+03 0.  0.
         25    1    4    4    0    0 -0.79049890780E+02  0.12850552085E+02 -0.38370892363E+03  0.41145360382E+03  0.12509000000E+03 0.  0.
         25    1    4    4    0    0 -0.15203038297E+02  0.26231706393E+02 -0.49690126336E+03  0.51330069981E+03  0.12509000000E+03 0.  0.
         25    1    3    3    0    0  0.94252929077E+02 -0.39082258478E+02 -0.83584727089E+03  0.85129266761E+03  0.12509000000E+03 0.  0.
<mgrwt>
<rscale>  2 0.45619803E+03</rscale>
<asrwt>0</asrwt>
<pdfrwt beam="1">  1       21 0.43815826E-02 0.45619803E+03</pdfrwt>
<pdfrwt beam="2">  1       21 0.25680175E+00 0.45619803E+03</pdfrwt>
<totfact> 0.17560377E+04</totfact>
</mgrwt>
</event>
<event>
 7    0  0.4788920E-002  0.4558546E+03  0.7546771E-02  0.1025990E+00
         21   -1    0    0  502  501  0.00000000000E+00  0.00000000000E+00  0.17561208691E+03  0.17561208691E+03  0.00000000000E+00 0.  1.
         21   -1    0    0  501  502 -0.00000000000E+00 -0.00000000000E+00 -0.29582726466E+03  0.29582726466E+03  0.00000000000E+00 0.  1.
      99926    2    1    2    0    0  0.00000000000E+00  0.00000000000E+00 -0.12021517776E+03  0.47143935157E+03  0.45585455273E+03 0.  0.
      99925    2    3    3    0    0 -0.81934888662E+02 -0.18070662620E+02  0.40074571231E+01  0.27619938142E+03  0.26311625522E+03 0.  0.
         25    1    4    4    0    0 -0.17911158072E+02 -0.17329852844E+01  0.35496792927E+02  0.13126821104E+03  0.12509000000E+03 0.  0.
         25    1    4    4    0    0 -0.64023730590E+02 -0.16337677336E+02 -0.31489335804E+02  0.14493117038E+03  0.12509000000E+03 0.  0.
         25    1    3    3    0    0  0.81934888662E+02  0.18070662620E+02 -0.12422263488E+03  0.19523997015E+03  0.12509000000E+03 0.  0.
<mgrwt>
<rscale>  2 0.45585455E+03</rscale>
<asrwt>0</asrwt>
<pdfrwt beam="1">  1       21 0.25825307E-01 0.45585455E+03</pdfrwt>
<pdfrwt beam="2">  1       21 0.43504009E-01 0.45585455E+03</pdfrwt>
<totfact> 0.66874290E+04</totfact>
</mgrwt>
</event>
<event>
 7    0  0.4788920E-002  0.4546203E+03  0.7546771E-02  0.1026353E+00
         21   -1    0    0  502  501  0.00000000000E+00  0.00000000000E+00  0.38006723255E+02  0.38006723255E+02  0.00000000000E+00 0. -1.
         21   -1    0    0  501  502 -0.00000000000E+00 -0.00000000000E+00 -0.13594938962E+04  0.13594938962E+04  0.00000000000E+00 0. -1.
      99926    2    1    2    0    0  0.00000000000E+00  0.00000000000E+00 -0.13214871730E+04  0.13975006195E+04  0.45462031754E+03 0.  0.
      99925    2    3    3    0    0 -0.40659011197E+02 -0.91990107587E+02 -0.98876307484E+03  0.10280846363E+04  0.26304042665E+03 0.  0.
         25    1    4    4    0    0 -0.36836135941E+02 -0.67510990648E+02 -0.64305784037E+03  0.65961013404E+03  0.12509000000E+03 0.  0.
         25    1    4    4    0    0 -0.38228752565E+01 -0.24479116939E+02 -0.34570523447E+03  0.36847450221E+03  0.12509000000E+03 0.  0.
         25    1    3    3    0    0  0.40659011197E+02  0.91990107587E+02 -0.33272409812E+03  0.36941598321E+03  0.12509000000E+03 0.  0.
<mgrwt>
<rscale>  2 0.45462032E+03</rscale>
<asrwt>0</asrwt>
<pdfrwt beam="1">  1       21 0.55892242E-02 0.45462032E+03</pdfrwt>
<pdfrwt beam="2">  1       21 0.19992557E+00 0.45462032E+03</pdfrwt>
<totfact> 0.26476715E+04</totfact>
</mgrwt>
</event>
<event>
 7    0  0.4788920E-002  0.4591232E+03  0.7546771E-02  0.1025036E+00
         21   -1    0    0  502  501  0.00000000000E+00  0.00000000000E+00  0.54022640132E+03  0.54022640132E+03  0.00000000000E+00 0.  1.
         21   -1    0    0  501  502 -0.00000000000E+00 -0.00000000000E+00 -0.97548951011E+02  0.97548951011E+02  0.00000000000E+00 0.  1.
      99926    2    1    2    0    0  0.00000000000E+00  0.00000000000E+00  0.44267745031E+03  0.63777535233E+03  0.45912315889E+03 0.  0.
      99925    2    3    3    0    0  0.45059878482E+02  0.10571663479E+03  0.24844983443E+03  0.37974769027E+03  0.26320066208E+03 0.  0.
         25    1    3    3    0    0 -0.45059878482E+02 -0.10571663479E+03  0.19422761588E+03  0.25802766206E+03  0.12509000000E+03 0.  0.
         25    1    4    4    0    0  0.46730700224E+02  0.19636953178E+02  0.12654763242E+03  0.18501670099E+03  0.12509000000E+03 0.  0.
         25    1    4    4    0    0 -0.16708217427E+01  0.86079681610E+02  0.12190220201E+03  0.19473098928E+03  0.12509000000E+03 0.  0.
<mgrwt>
<rscale>  2 0.45912316E+03</rscale>
<asrwt>0</asrwt>
<pdfrwt beam="1">  1       21 0.79445057E-01 0.45912316E+03</pdfrwt>
<pdfrwt beam="2">  1       21 0.14345434E-01 0.45912316E+03</pdfrwt>
<totfact> 0.54612323E+04</totfact>
</mgrwt>
</event>
<event>
 7    0  0.4788920E-002  0.4510521E+03  0.7546771E-02  0.1027409E+00
         21   -1    0    0  502  501  0.00000000000E+00  0.00000000000E+00  0.32416930463E+02  0.32416930463E+02  0.00000000000E+00 0. -1.
         21   -1    0    0  501  502 -0.00000000000E+00 -0.00000000000E+00 -0.15689946698E+04  0.15689946698E+04  0.00000000000E+00 0. -1.
      99926    2    1    2    0    0  0.14210854715E-13  0.00000000000E+00 -0.15365777394E+04  0.16014116003E+04  0.45105206400E+03 0.  0.
      99925    2    3    3    0    0 -0.98072900399E+02  0.34873420936E+02 -0.85197803532E+03  0.89773645354E+03  0.26311540826E+03 0.  0.
         25    1    3    3    0    0  0.98072900399E+02 -0.34873420936E+02 -0.68459970403E+03  0.70367514674E+03  0.12509000000E+03 0.  0.
         25    1    4    4    0    0 -0.57571545168E+02  0.43570545785E+02 -0.34720334480E+03  0.37604593604E+03  0.12509000000E+03 0.  0.
         25    1    4    4    0    0 -0.40501355231E+02 -0.86971248490E+01 -0.50477469052E+03  0.52169051749E+03  0.12509000000E+03 0.  0.
<mgrwt>
<rscale>  2 0.45105206E+03</rscale>
<asrwt>0</asrwt>
<pdfrwt beam="1">  1       21 0.47671960E-02 0.45105206E+03</pdfrwt>
<pdfrwt beam="2">  1       21 0.23073450E+00 0.45105206E+03</pdfrwt>
<totfact> 0.22066664E+04</totfact>
</mgrwt>
</event>
<event>
 7    0  0.4788920E-002  0.4572274E+03  0.7546771E-02  0.1025588E+00
         21   -1    0    0  502  501  0.00000000000E+00  0.00000000000E+00  0.24973340332E+03  0.24973340332E+03  0.00000000000E+00 0. -1.
         21   -1    0    0  501  502 -0.00000000000E+00 -0.00000000000E+00 -0.20928006436E+03  0.20928006436E+03  0.00000000000E+00 0. -1.
      99926    2    1    2    0    0  0.00000000000E+00  0.14210854715E-13  0.40453338953E+02  0.45901346768E+03  0.45722739515E+03 0.  0.
      99925    2    3    3    0    0  0.82608984613E+02  0.80177047058E+02  0.28767631942E+02  0.28861197983E+03  0.26309065935E+03 0.  0.
         25    1    3    3    0    0 -0.82608984613E+02 -0.80177047058E+02  0.11685707011E+02  0.17040148785E+03  0.12509000000E+03 0.  0.
         25    1    4    4    0    0  0.14968199731E+02  0.14774458076E+02 -0.10365676565E+02  0.12726856236E+03  0.12509000000E+03 0.  0.
         25    1    4    4    0    0  0.67640784882E+02  0.65402588982E+02  0.39133308507E+02  0.16134341747E+03  0.12509000000E+03 0.  0.
<mgrwt>
<rscale>  2 0.45722740E+03</rscale>
<asrwt>0</asrwt>
<pdfrwt beam="1">  1       21 0.36725501E-01 0.45722740E+03</pdfrwt>
<pdfrwt beam="2">  1       21 0.30776480E-01 0.45722740E+03</pdfrwt>
<totfact> 0.67053195E+04</totfact>
</mgrwt>
</event>
<event>
 7    0  0.4788920E-002  0.4569939E+03  0.7546771E-02  0.1025657E+00
         21   -1    0    0  502  501  0.00000000000E+00  0.00000000000E+00  0.62623481264E+02  0.62623481264E+02  0.00000000000E+00 0. -1.
         21   -1    0    0  501  502 -0.00000000000E+00 -0.00000000000E+00 -0.83372635540E+03  0.83372635540E+03  0.00000000000E+00 0. -1.
      99926    2    1    2    0    0 -0.71054273576E-14 -0.71054273576E-14 -0.77110287414E+03  0.89634983667E+03  0.45699385902E+03 0.  0.
      99925    2    3    3    0    0 -0.48339415277E+02 -0.50092500224E+02 -0.66404003521E+03  0.71758765603E+03  0.26293900066E+03 0.  0.
         25    1    4    4    0    0 -0.39670306656E+02 -0.51924113578E+02 -0.42227600819E+03  0.44523519852E+03  0.12509000000E+03 0.  0.
         25    1    3    3    0    0  0.48339415277E+02  0.50092500224E+02 -0.10706283893E+03  0.17876218064E+03  0.12509000000E+03 0.  0.
         25    1    4    4    0    0 -0.86691086209E+01  0.18316133535E+01 -0.24176402702E+03  0.27235245751E+03  0.12509000000E+03 0.  0.
<mgrwt>
<rscale>  2 0.45699386E+03</rscale>
<asrwt>0</asrwt>
<pdfrwt beam="1">  1       21 0.92093358E-02 0.45699386E+03</pdfrwt>
<pdfrwt beam="2">  1       21 0.12260681E+00 0.45699386E+03</pdfrwt>
<totfact> 0.42721016E+04</totfact>
</mgrwt>
</event>
<event>
 7    0  0.4788920E-002  0.4571883E+03  0.7546771E-02  0.1025600E+00
         21   -1    0    0  502  501  0.00000000000E+00  0.00000000000E+00  0.38153576887E+03  0.38153576887E+03  0.00000000000E+00 0. -1.
         21   -1    0    0  501  502 -0.00000000000E+00 -0.00000000000E+00 -0.13696040142E+03  0.13696040142E+03  0.00000000000E+00 0. -1.
      99926    2    1    2    0    0  0.44408920985E-14  0.00000000000E+00  0.24457536745E+03  0.51849617029E+03  0.45718832907E+03 0.  0.
      99925    2    3    3    0    0 -0.62563909532E+01 -0.40484852557E+02  0.31472833377E+02  0.26801989628E+03  0.26299422018E+03 0.  0.
         25    1    4    4    0    0  0.35493355362E+02 -0.28999702274E+02  0.70168418317E+01  0.13340729057E+03  0.12509000000E+03 0.  0.
         25    1    3    3    0    0  0.62563909532E+01  0.40484852557E+02  0.21310253407E+03  0.25047627401E+03  0.12509000000E+03 0.  0.
         25    1    4    4    0    0 -0.41749746315E+02 -0.11485150283E+02  0.24455991546E+02  0.13461260571E+03  0.12509000000E+03 0.  0.
<mgrwt>
<rscale>  2 0.45718833E+03</rscale>
<asrwt>0</asrwt>
<pdfrwt beam="1">  1       21 0.56108201E-01 0.45718833E+03</pdfrwt>
<pdfrwt beam="2">  1       21 0.20141236E-01 0.45718833E+03</pdfrwt>
<totfact> 0.62890739E+04</totfact>
</mgrwt>
</event>
<event>
 7    0  0.4788920E-002  0.4561805E+03  0.7546771E-02  0.1025895E+00
         21   -1    0    0  502  501  0.00000000000E+00  0.00000000000E+00  0.96635412559E+02  0.96635412559E+02  0.00000000000E+00 0.  1.
         21   -1    0    0  501  502 -0.00000000000E+00 -0.00000000000E+00 -0.53836547210E+03  0.53836547210E+03  0.00000000000E+00 0.  1.
      99926    2    1    2    0    0  0.00000000000E+00  0.00000000000E+00 -0.44173005954E+03  0.63500088466E+03  0.45618053226E+03 0.  0.
      99925    2    3    3    0    0  0.62496869122E+02  0.91419252253E+02 -0.23840482665E+03  0.37184314344E+03  0.26299643272E+03 0.  0.
         25    1    4    4    0    0  0.14792733714E+01  0.69152134592E+02 -0.10116913351E+03  0.17511969519E+03  0.12509000000E+03 0.  0.
         25    1    4    4    0    0  0.61017595751E+02  0.22267117661E+02 -0.13723569313E+03  0.19672344825E+03  0.12509000000E+03 0.  0.
         25    1    3    3    0    0 -0.62496869122E+02 -0.91419252253E+02 -0.20332523289E+03  0.26315774122E+03  0.12509000000E+03 0.  0.
<mgrwt>
<rscale>  2 0.45618053E+03</rscale>
<asrwt>0</asrwt>
<pdfrwt beam="1">  1       21 0.14211090E-01 0.45618053E+03</pdfrwt>
<pdfrwt beam="2">  1       21 0.79171394E-01 0.45618053E+03</pdfrwt>
<totfact> 0.56049878E+04</totfact>
</mgrwt>
</event>
<event>
 7    0  0.4788920E-002  0.4547455E+03  0.7546771E-02  0.1026316E+00
         21   -1    0    0  502  501  0.00000000000E+00  0.00000000000E+00  0.35528193913E+03  0.35528193913E+03  0.00000000000E+00 0. -1.
         21   -1    0    0  501  502 -0.00000000000E+00 -0.00000000000E+00 -0.14551362408E+03  0.14551362408E+03  0.00000000000E+00 0. -1.
      99926    2    1    2    0    0  0.00000000000E+00  0.00000000000E+00  0.20976831505E+03  0.50079556321E+03  0.45474547841E+03 0.  0.
      99925    2    3    3    0    0  0.32560435506E+02 -0.82683449485E+02  0.55004005214E+02  0.28285925491E+03  0.26284440781E+03 0.  0.
         25    1    3    3    0    0 -0.32560435506E+02  0.82683449485E+02  0.15476430984E+03  0.21793630831E+03  0.12509000000E+03 0.  0.
         25    1    4    4    0    0 -0.13121022006E+02 -0.65852452529E+02  0.41710984750E+02  0.14797304170E+03  0.12509000000E+03 0.  0.
         25    1    4    4    0    0  0.45681457512E+02 -0.16830996955E+02  0.13293020464E+02  0.13488621320E+03  0.12509000000E+03 0.  0.
<mgrwt>
<rscale>  2 0.45474548E+03</rscale>
<asrwt>0</asrwt>
<pdfrwt beam="1">  1       21 0.52247344E-01 0.45474548E+03</pdfrwt>
<pdfrwt beam="2">  1       21 0.21399062E-01 0.45474548E+03</pdfrwt>
<totfact> 0.65346732E+04</totfact>
</mgrwt>
</event>
<event>
 7    0  0.4788920E-002  0.4482407E+03  0.7546771E-02  0.1028248E+00
         21   -1    0    0  502  501  0.00000000000E+00  0.00000000000E+00  0.14184960645E+04  0.14184960645E+04  0.00000000000E+00 0.  1.
         21   -1    0    0  501  502 -0.00000000000E+00 -0.00000000000E+00 -0.35410698179E+02  0.35410698179E+02  0.00000000000E+00 0.  1.
      99926    2    1    2    0    0  0.00000000000E+00  0.00000000000E+00  0.13830853663E+04  0.14539067627E+04  0.44824072108E+03 0.  0.
      99925    2    3    3    0    0 -0.54325435582E+02 -0.59670483158E+02  0.64930645193E+03  0.70518062929E+03  0.26300006065E+03 0.  0.
         25    1    3    3    0    0  0.54325435582E+02  0.59670483158E+02  0.73377891440E+03  0.74872613340E+03  0.12509000000E+03 0.  0.
         25    1    4    4    0    0 -0.49862842823E+02 -0.11378882722E+02  0.25378046157E+03  0.28752010859E+03  0.12509000000E+03 0.  0.
         25    1    4    4    0    0 -0.44625927594E+01 -0.48291600436E+02  0.39552599036E+03  0.41766052071E+03  0.12509000000E+03 0.  0.
<mgrwt>
<rscale>  2 0.44824072E+03</rscale>
<asrwt>0</asrwt>
<pdfrwt beam="1">  1       21 0.20860232E+00 0.44824072E+03</pdfrwt>
<pdfrwt beam="2">  1       21 0.52074566E-02 0.44824072E+03</pdfrwt>
<totfact> 0.26283638E+04</totfact>
</mgrwt>
</event>
<event>
 7    0  0.4788920E-002  0.4533839E+03  0.7546771E-02  0.1026718E+00
         21   -1    0    0  502  501  0.00000000000E+00  0.00000000000E+00  0.68866702979E+03  0.68866702979E+03  0.00000000000E+00 0. -1.
         21   -1    0    0  501  502 -0.00000000000E+00 -0.00000000000E+00 -0.74621304938E+02  0.74621304938E+02  0.00000000000E+00 0. -1.
      99926    2    1    2    0    0  0.00000000000E+00  0.00000000000E+00  0.61404572486E+03  0.76328833473E+03  0.45338386575E+03 0.  0.
      99925    2    3    3    0    0 -0.17279453589E+02  0.10769048972E+03  0.35028279737E+03  0.45165680374E+03  0.26343881480E+03 0.  0.
         25    1    4    4    0    0 -0.34061702037E+01  0.55298748337E+02  0.11063316310E+03  0.17594532799E+03  0.12509000000E+03 0.  0.
         25    1    4    4    0    0 -0.13873283386E+02  0.52391741378E+02  0.23964963427E+03  0.27571147576E+03  0.12509000000E+03 0.  0.
         25    1    3    3    0    0  0.17279453589E+02 -0.10769048972E+03  0.26376292748E+03  0.31163153099E+03  0.12509000000E+03 0.  0.
<mgrwt>
<rscale>  2 0.45338387E+03</rscale>
<asrwt>0</asrwt>
<pdfrwt beam="1">  1       21 0.10127456E+00 0.45338387E+03</pdfrwt>
<pdfrwt beam="2">  1       21 0.10973722E-01 0.45338387E+03</pdfrwt>
<totfact> 0.50225741E+04</totfact>
</mgrwt>
</event>
<event>
 7    0  0.4788920E-002  0.4602731E+03  0.7546771E-02  0.1024702E+00
         21   -1    0    0  502  501  0.00000000000E+00  0.00000000000E+00  0.23101924286E+03  0.23101924286E+03  0.00000000000E+00 0.  1.
         21   -1    0    0  501  502 -0.00000000000E+00 -0.00000000000E+00 -0.22925727849E+03  0.22925727849E+03  0.00000000000E+00 0.  1.
      99926    2    1    2    0    0  0.14210854715E-13  0.00000000000E+00  0.17619643682E+01  0.46027652135E+03  0.46027314889E+03 0.  0.
      99925    2    3    3    0    0  0.68836609923E+02 -0.33491522088E+02  0.91016211511E+02  0.28859661673E+03  0.26295226851E+03 0.  0.
         25    1    3    3    0    0 -0.68836609923E+02  0.33491522088E+02 -0.89254247143E+02  0.17167990462E+03  0.12509000000E+03 0.  0.
         25    1    4    4    0    0  0.63305579523E+01  0.71672931300E+00  0.16020221815E+02  0.12627250402E+03  0.12509000000E+03 0.  0.
         25    1    4    4    0    0  0.62506051970E+02 -0.34208251401E+02  0.74995989697E+02  0.16232411271E+03  0.12509000000E+03 0.  0.
<mgrwt>
<rscale>  2 0.46027315E+03</rscale>
<asrwt>0</asrwt>
<pdfrwt beam="1">  1       21 0.33973418E-01 0.46027315E+03</pdfrwt>
<pdfrwt beam="2">  1       21 0.33714305E-01 0.46027315E+03</pdfrwt>
<totfact> 0.65367084E+04</totfact>
</mgrwt>
</event>
<event>
 7    0  0.4788920E-002  0.4497523E+03  0.7546771E-02  0.1027796E+00
         21   -1    0    0  502  501  0.00000000000E+00  0.00000000000E+00  0.13001130676E+03  0.13001130676E+03  0.00000000000E+00 0. -1.
         21   -1    0    0  501  502 -0.00000000000E+00 -0.00000000000E+00 -0.38896061454E+03  0.38896061454E+03  0.00000000000E+00 0. -1.
      99926    2    1    2    0    0  0.00000000000E+00  0.00000000000E+00 -0.25894930778E+03  0.51897192130E+03  0.44975227748E+03 0.  0.
      99925    2    3    3    0    0  0.84917232907E+02  0.15192383437E+02 -0.88587253780E+02  0.29069033531E+03  0.26308064267E+03 0.  0.
         25    1    4    4    0    0  0.58421555070E+02  0.37917396365E+02 -0.70431179397E+02  0.15955834724E+03  0.12509000000E+03 0.  0.
         25    1    3    3    0    0 -0.84917232907E+02 -0.15192383437E+02 -0.17036205400E+03  0.22828158599E+03  0.12509000000E+03 0.  0.
         25    1    4    4    0    0  0.26495677837E+02 -0.22725012928E+02 -0.18156074383E+02  0.13113198806E+03  0.12509000000E+03 0.  0.
<mgrwt>
<rscale>  2 0.44975228E+03</rscale>
<asrwt>0</asrwt>
<pdfrwt beam="1">  1       21 0.19119310E-01 0.44975228E+03</pdfrwt>
<pdfrwt beam="2">  1       21 0.57200090E-01 0.44975228E+03</pdfrwt>
<totfact> 0.66690817E+04</totfact>
</mgrwt>
</event>
<event>
 7    0  0.4788920E-002  0.4149916E+03  0.7546771E-02  0.1038709E+00
         21   -1    0    0  502  501  0.00000000000E+00  0.00000000000E+00  0.86103404120E+03  0.86103404120E+03  0.00000000000E+00 0. -1.
         21   -1    0    0  501  502 -0.00000000000E+00 -0.00000000000E+00 -0.50003247197E+02  0.50003247197E+02  0.00000000000E+00 0. -1.
      99926    2    1    2    0    0 -0.14210854715E-13  0.88817841970E-15  0.81103079401E+03  0.91103728840E+03  0.41499155658E+03 0.  0.
      99925    2    3    3    0    0 -0.67517033632E+02  0.78801227722E+01  0.50033438771E+03  0.56927653707E+03  0.26290802568E+03 0.  0.
         25    1    3    3    0    0  0.67517033632E+02 -0.78801227722E+01  0.31069640630E+03  0.34176075133E+03  0.12509000000E+03 0.  0.
         25    1    4    4    0    0 -0.32322888236E+02 -0.43383760247E+01  0.16620292495E+03  0.21055761913E+03  0.12509000000E+03 0.  0.
         25    1    4    4    0    0 -0.35194145396E+02  0.12218498797E+02  0.33413146276E+03  0.35871891794E+03  0.12509000000E+03 0.  0.
<mgrwt>
<rscale>  2 0.41499156E+03</rscale>
<asrwt>0</asrwt>
<pdfrwt beam="1">  1       21 0.12662264E+00 0.41499156E+03</pdfrwt>
<pdfrwt beam="2">  1       21 0.73534192E-02 0.41499156E+03</pdfrwt>
<totfact> 0.59240399E+04</totfact>
</mgrwt>
</event>
<event>
 7    0  0.4788920E-002  0.4542688E+03  0.7546771E-02  0.1026457E+00
         21   -1    0    0  502  501  0.00000000000E+00  0.00000000000E+00  0.23127754937E+03  0.23127754937E+03  0.00000000000E+00 0. -1.
         21   -1    0    0  501  502 -0.00000000000E+00 -0.00000000000E+00 -0.22306542509E+03  0.22306542509E+03  0.00000000000E+00 0. -1.
      99926    2    1    2    0    0  0.00000000000E+00  0.00000000000E+00  0.82121242784E+01  0.45434297447E+03  0.45426875246E+03 0.  0.
      99925    2    3    3    0    0 -0.31634600126E+02 -0.46131689548E+02  0.10280939567E+03  0.28783461864E+03  0.26296409478E+03 0.  0.
         25    1    4    4    0    0  0.14516409796E+02 -0.28926852180E+02  0.78590262995E+02  0.15123302043E+03  0.12509000000E+03 0.  0.
         25    1    3    3    0    0  0.31634600126E+02  0.46131689548E+02 -0.94597271395E+02  0.16650835583E+03  0.12509000000E+03 0.  0.
         25    1    4    4    0    0 -0.46151009922E+02 -0.17204837368E+02  0.24219132678E+02  0.13660159821E+03  0.12509000000E+03 0.  0.
<mgrwt>
<rscale>  2 0.45426875E+03</rscale>
<asrwt>0</asrwt>
<pdfrwt beam="1">  1       21 0.34011404E-01 0.45426875E+03</pdfrwt>
<pdfrwt beam="2">  1       21 0.32803739E-01 0.45426875E+03</pdfrwt>
<totfact> 0.68995637E+04</totfact>
</mgrwt>
</event>
<event>
 7    0  0.4788920E-002  0.4537093E+03  0.7546771E-02  0.1026622E+00
         21   -1    0    0  502  501  0.00000000000E+00  0.00000000000E+00  0.58283779484E+03  0.58283779484E+03  0.00000000000E+00 0.  1.
         21   -1    0    0  501  502 -0.00000000000E+00 -0.00000000000E+00 -0.88297363916E+02  0.88297363916E+02  0.00000000000E+00 0.  1.
      99926    2    1    2    0    0  0.00000000000E+00  0.00000000000E+00  0.49454043093E+03  0.67113515876E+03  0.45370933812E+03 0.  0.
      99925    2    3    3    0    0  0.65350237122E+02  0.42162274092E+02  0.19240896944E+03  0.33501131407E+03  0.26298870353E+03 0.  0.
         25    1    3    3    0    0 -0.65350237122E+02 -0.42162274092E+02  0.30213146149E+03  0.33612384469E+03  0.12509000000E+03 0.  0.
         25    1    4    4    0    0  0.15872163094E+02  0.39056377862E+02  0.55952154520E+02  0.14337181699E+03  0.12509000000E+03 0.  0.
         25    1    4    4    0    0  0.49478074028E+02  0.31058962300E+01  0.13645681492E+03  0.19163949707E+03  0.12509000000E+03 0.  0.
<mgrwt>
<rscale>  2 0.45370934E+03</rscale>
<asrwt>0</asrwt>
<pdfrwt beam="1">  1       21 0.85711438E-01 0.45370934E+03</pdfrwt>
<pdfrwt beam="2">  1       21 0.12984907E-01 0.45370934E+03</pdfrwt>
<totfact> 0.55056467E+04</totfact>
</mgrwt>
</event>
<event>
 7    0  0.4788920E-002  0.4498687E+03  0.7546771E-02  0.1027761E+00
         21   -1    0    0  502  501  0.00000000000E+00  0.00000000000E+00  0.14453704863E+03  0.14453704863E+03  0.00000000000E+00 0. -1.
         21   -1    0    0  501  502 -0.00000000000E+00 -0.00000000000E+00 -0.35005183428E+03  0.35005183428E+03  0.00000000000E+00 0. -1.
      99926    2    1    2    0    0  0.00000000000E+00  0.00000000000E+00 -0.20551478566E+03  0.49458888291E+03  0.44986868748E+03 0.  0.
      99925    2    3    3    0    0  0.77473204574E+02  0.54172417637E+02 -0.71803773432E+02  0.28852362347E+03  0.26297024767E+03 0.  0.
         25    1    3    3    0    0 -0.77473204574E+02 -0.54172417637E+02 -0.13371101223E+03  0.20606525944E+03  0.12509000000E+03 0.  0.
         25    1    4    4    0    0  0.68365252565E+02  0.12876063900E+02 -0.62401721066E+02  0.15614443209E+03  0.12509000000E+03 0.  0.
         25    1    4    4    0    0  0.91079520089E+01  0.41296353736E+02 -0.94020523657E+01  0.13237919138E+03  0.12509000000E+03 0.  0.
<mgrwt>
<rscale>  2 0.44986869E+03</rscale>
<asrwt>0</asrwt>
<pdfrwt beam="1">  1       21 0.21255449E-01 0.44986869E+03</pdfrwt>
<pdfrwt beam="2">  1       21 0.51478210E-01 0.44986869E+03</pdfrwt>
<totfact> 0.68396388E+04</totfact>
</mgrwt>
</event>
<event>
 7    0  0.4788920E-002  0.4601688E+03  0.7546771E-02  0.1024732E+00
         21   -1    0    0  502  501  0.00000000000E+00  0.00000000000E+00  0.24261946140E+03  0.24261946140E+03  0.00000000000E+00 0. -1.
         21   -1    0    0  501  502 -0.00000000000E+00 -0.00000000000E+00 -0.21819692822E+03  0.21819692822E+03  0.00000000000E+00 0. -1.
      99926    2    1    2    0    0  0.00000000000E+00  0.35527136788E-14  0.24422533183E+02  0.46081638962E+03  0.46016875688E+03 0.  0.
      99925    2    3    3    0    0  0.97984220631E+02  0.21465344883E+02 -0.46811937298E+02  0.28536404165E+03  0.26302017084E+03 0.  0.
         25    1    4    4    0    0  0.54981953324E+02  0.39468691027E+02 -0.52862139070E+02  0.15173235189E+03  0.12509000000E+03 0.  0.
         25    1    4    4    0    0  0.43002267307E+02 -0.18003346144E+02  0.60502017712E+01  0.13363168976E+03  0.12509000000E+03 0.  0.
         25    1    3    3    0    0 -0.97984220631E+02 -0.21465344883E+02  0.71234470481E+02  0.17545234797E+03  0.12509000000E+03 0.  0.
<mgrwt>
<rscale>  2 0.46016876E+03</rscale>
<asrwt>0</asrwt>
<pdfrwt beam="1">  1       21 0.35679333E-01 0.46016876E+03</pdfrwt>
<pdfrwt beam="2">  1       21 0.32087784E-01 0.46016876E+03</pdfrwt>
<totfact> 0.65383449E+04</totfact>
</mgrwt>
</event>
<event>
 7    0  0.4788920E-002  0.4508333E+03  0.7546771E-02  0.1027474E+00
         21   -1    0    0  502  501  0.00000000000E+00  0.00000000000E+00  0.13150126308E+03  0.13150126308E+03  0.00000000000E+00 0.  1.
         21   -1    0    0  501  502 -0.00000000000E+00 -0.00000000000E+00 -0.38640444177E+03  0.38640444177E+03  0.00000000000E+00 0.  1.
      99926    2    1    2    0    0  0.00000000000E+00 -0.71054273576E-14 -0.25490317869E+03  0.51790570485E+03  0.45083332686E+03 0.  0.
      99925    2    3    3    0    0 -0.39375810821E+02 -0.46206750938E+02 -0.26523546739E+03  0.37847908400E+03  0.26307992237E+03 0.  0.
         25    1    4    4    0    0 -0.12968394340E+02 -0.56813329568E+02 -0.10608147226E+03  0.17405953155E+03  0.12509000000E+03 0.  0.
         25    1    4    4    0    0 -0.26407416480E+02  0.10606578630E+02 -0.15915399514E+03  0.20441955245E+03  0.12509000000E+03 0.  0.
         25    1    3    3    0    0  0.39375810821E+02  0.46206750938E+02  0.10332288707E+02  0.13942662084E+03  0.12509000000E+03 0.  0.
<mgrwt>
<rscale>  2 0.45083333E+03</rscale>
<asrwt>0</asrwt>
<pdfrwt beam="1">  1       21 0.19338421E-01 0.45083333E+03</pdfrwt>
<pdfrwt beam="2">  1       21 0.56824183E-01 0.45083333E+03</pdfrwt>
<totfact> 0.66191346E+04</totfact>
</mgrwt>
</event>
<event>
 7    0  0.4788920E-002  0.4510919E+03  0.7546771E-02  0.1027397E+00
         21   -1    0    0  502  501  0.00000000000E+00  0.00000000000E+00  0.18053638164E+03  0.18053638164E+03  0.00000000000E+00 0. -1.
         21   -1    0    0  501  502 -0.00000000000E+00 -0.00000000000E+00 -0.28177689705E+03  0.28177689705E+03  0.00000000000E+00 0. -1.
      99926    2    1    2    0    0  0.00000000000E+00  0.00000000000E+00 -0.10124051542E+03  0.46231327869E+03  0.45109192599E+03 0.  0.
      99925    2    3    3    0    0 -0.26674261010E+02  0.10554562878E+03 -0.74777428501E+02  0.29438710734E+03  0.26309828810E+03 0.  0.
         25    1    4    4    0    0  0.81235936555E+00  0.36575346285E+02  0.10733658239E+01  0.13033447778E+03  0.12509000000E+03 0.  0.
         25    1    3    3    0    0  0.26674261010E+02 -0.10554562878E+03 -0.26463086915E+02  0.16792617135E+03  0.12509000000E+03 0.  0.
         25    1    4    4    0    0 -0.27486620375E+02  0.68970282496E+02 -0.75850794325E+02  0.16405262956E+03  0.12509000000E+03 0.  0.
<mgrwt>
<rscale>  2 0.45109193E+03</rscale>
<asrwt>0</asrwt>
<pdfrwt beam="1">  1       21 0.26549468E-01 0.45109193E+03</pdfrwt>
<pdfrwt beam="2">  1       21 0.41437778E-01 0.45109193E+03</pdfrwt>
<totfact> 0.70161961E+04</totfact>
</mgrwt>
</event>
<event>
 7    0  0.4788920E-002  0.4679933E+03  0.7546771E-02  0.1022488E+00
         21   -1    0    0  502  501  0.00000000000E+00  0.00000000000E+00  0.45402260493E+02  0.45402260493E+02  0.00000000000E+00 0.  1.
         21   -1    0    0  501  502 -0.00000000000E+00 -0.00000000000E+00 -0.12059847686E+04  0.12059847686E+04  0.00000000000E+00 0.  1.
      99926    2    1    2    0    0  0.00000000000E+00  0.17763568394E-14 -0.11605825081E+04  0.12513870291E+04  0.46799331028E+03 0.  0.
      99925    2    3    3    0    0 -0.46042473634E+02  0.10892769742E+02 -0.41175011498E+03  0.49070574044E+03  0.26270783145E+03 0.  0.
         25    1    4    4    0    0 -0.19866394484E+02  0.41082584228E+02 -0.24053526293E+03  0.27493121534E+03  0.12509000000E+03 0.  0.
         25    1    4    4    0    0 -0.26176079150E+02 -0.30189814486E+02 -0.17121485205E+03  0.21577452509E+03  0.12509000000E+03 0.  0.
         25    1    3    3    0    0  0.46042473634E+02 -0.10892769742E+02 -0.74883239316E+03  0.76068128868E+03  0.12509000000E+03 0.  0.
<mgrwt>
<rscale>  2 0.46799331E+03</rscale>
<asrwt>0</asrwt>
<pdfrwt beam="1">  1       21 0.66768018E-02 0.46799331E+03</pdfrwt>
<pdfrwt beam="2">  1       21 0.17735073E+00 0.46799331E+03</pdfrwt>
<totfact> 0.27654992E+04</totfact>
</mgrwt>
</event>
<event>
 7    0  0.4788920E-002  0.4631579E+03  0.7546771E-02  0.1023869E+00
         21   -1    0    0  502  501  0.00000000000E+00  0.00000000000E+00  0.81557702076E+02  0.81557702076E+02  0.00000000000E+00 0. -1.
         21   -1    0    0  501  502 -0.00000000000E+00 -0.00000000000E+00 -0.65755656362E+03  0.65755656362E+03  0.00000000000E+00 0. -1.
      99926    2    1    2    0    0  0.00000000000E+00  0.00000000000E+00 -0.57599886155E+03  0.73911426570E+03  0.46315786645E+03 0.  0.
      99925    2    3    3    0    0  0.93337791363E+01  0.11241002560E+03 -0.29065012906E+03  0.40776167325E+03  0.26280972463E+03 0.  0.
         25    1    4    4    0    0  0.35980097117E+02  0.48141526404E+02 -0.10884090137E+03  0.17636899916E+03  0.12509000000E+03 0.  0.
         25    1    3    3    0    0 -0.93337791363E+01 -0.11241002560E+03 -0.28534873249E+03  0.33135259245E+03  0.12509000000E+03 0.  0.
         25    1    4    4    0    0 -0.26646317981E+02  0.64268499198E+02 -0.18180922769E+03  0.23139267409E+03  0.12509000000E+03 0.  0.
<mgrwt>
<rscale>  2 0.46315787E+03</rscale>
<asrwt>0</asrwt>
<pdfrwt beam="1">  1       21 0.11993780E-01 0.46315787E+03</pdfrwt>
<pdfrwt beam="2">  1       21 0.96699496E-01 0.46315787E+03</pdfrwt>
<totfact> 0.47696766E+04</totfact>
</mgrwt>
</event>
<event>
 7    0  0.4788920E-002  0.4574501E+03  0.7546771E-02  0.1025523E+00
         21   -1    0    0  502  501  0.00000000000E+00  0.00000000000E+00  0.64683509331E+03  0.64683509331E+03  0.00000000000E+00 0. -1.
         21   -1    0    0  501  502 -0.00000000000E+00 -0.00000000000E+00 -0.80878645045E+02  0.80878645045E+02  0.00000000000E+00 0. -1.
      99926    2    1    2    0    0  0.00000000000E+00  0.71054273576E-14  0.56595644827E+03  0.72771373836E+03  0.45745008871E+03 0.  0.
      99925    2    3    3    0    0  0.50961017529E+01 -0.37359931892E+02  0.18177210170E+03  0.32192209846E+03  0.26300381320E+03 0.  0.
         25    1    4    4    0    0  0.24392869014E+01  0.19749232613E+02  0.70153641494E+02  0.14479303790E+03  0.12509000000E+03 0.  0.
         25    1    4    4    0    0  0.26568148515E+01 -0.57109164505E+02  0.11161846020E+03  0.17712906056E+03  0.12509000000E+03 0.  0.
         25    1    3    3    0    0 -0.50961017529E+01  0.37359931892E+02  0.38418434657E+03  0.40579163990E+03  0.12509000000E+03 0.  0.
<mgrwt>
<rscale>  2 0.45745009E+03</rscale>
<asrwt>0</asrwt>
<pdfrwt beam="1">  1       21 0.95122805E-01 0.45745009E+03</pdfrwt>
<pdfrwt beam="2">  1       21 0.11893919E-01 0.45745009E+03</pdfrwt>
<totfact> 0.50445016E+04</totfact>
</mgrwt>
</event>
<event>
 7    0  0.4788920E-002  0.4209134E+03  0.7546771E-02  0.1036769E+00
         21   -1    0    0  502  501  0.00000000000E+00  0.00000000000E+00  0.93491838589E+03  0.93491838589E+03  0.00000000000E+00 0. -1.
         21   -1    0    0  501  502 -0.00000000000E+00 -0.00000000000E+00 -0.47375289361E+02  0.47375289361E+02  0.00000000000E+00 0. -1.
      99926    2    1    2    0    0 -0.35527136788E-14  0.00000000000E+00  0.88754309653E+03  0.98229367526E+03  0.42091343082E+03 0.  0.
      99925    2    3    3    0    0 -0.25270037299E+02 -0.37929122947E+02  0.43316579505E+03  0.50881354541E+03  0.26302362031E+03 0.  0.
         25    1    4    4    0    0 -0.50349641503E+02 -0.33286081538E+02  0.23939236257E+03  0.27676571496E+03  0.12509000000E+03 0.  0.
         25    1    4    4    0    0  0.25079604203E+02 -0.46430414086E+01  0.19377343248E+03  0.23204783045E+03  0.12509000000E+03 0.  0.
         25    1    3    3    0    0  0.25270037299E+02  0.37929122947E+02  0.45437730148E+03  0.47348012984E+03  0.12509000000E+03 0.  0.
<mgrwt>
<rscale>  2 0.42091343E+03</rscale>
<asrwt>0</asrwt>
<pdfrwt beam="1">  1       21 0.13748799E+00 0.42091343E+03</pdfrwt>
<pdfrwt beam="2">  1       21 0.69669549E-02 0.42091343E+03</pdfrwt>
<totfact> 0.52512601E+04</totfact>
</mgrwt>
</event>
<event>
 7    0  0.4788920E-002  0.4562842E+03  0.7546771E-02  0.1025864E+00
         21   -1    0    0  502  501  0.00000000000E+00  0.00000000000E+00  0.39446717021E+03  0.39446717021E+03  0.00000000000E+00 0. -1.
         21   -1    0    0  501  502 -0.00000000000E+00 -0.00000000000E+00 -0.13194713762E+03  0.13194713762E+03  0.00000000000E+00 0. -1.
      99926    2    1    2    0    0  0.00000000000E+00  0.00000000000E+00  0.26252003259E+03  0.52641430784E+03  0.45628418336E+03 0.  0.
      99925    2    3    3    0    0  0.88083591443E+02 -0.23685793282E+02  0.85021370895E+02  0.29088719923E+03  0.26280599932E+03 0.  0.
         25    1    4    4    0    0  0.23173186915E+02 -0.37837556371E+02  0.65179851309E+02  0.14786682650E+03  0.12509000000E+03 0.  0.
         25    1    3    3    0    0 -0.88083591443E+02  0.23685793282E+02  0.17749866170E+03  0.23552710861E+03  0.12509000000E+03 0.  0.
         25    1    4    4    0    0  0.64910404529E+02  0.14151763088E+02  0.19841519586E+02  0.14302037272E+03  0.12509000000E+03 0.  0.
<mgrwt>
<rscale>  2 0.45628418E+03</rscale>
<asrwt>0</asrwt>
<pdfrwt beam="1">  1       21 0.58009878E-01 0.45628418E+03</pdfrwt>
<pdfrwt beam="2">  1       21 0.19403991E-01 0.45628418E+03</pdfrwt>
<totfact> 0.62808094E+04</totfact>
</mgrwt>
</event>
<event>
 7    0  0.4788920E-002  0.4484253E+03  0.7546771E-02  0.1028193E+00
         21   -1    0    0  502  501  0.00000000000E+00  0.00000000000E+00  0.20795310099E+03  0.20795310099E+03  0.00000000000E+00 0. -1.
         21   -1    0    0  501  502 -0.00000000000E+00 -0.00000000000E+00 -0.24174352263E+03  0.24174352263E+03  0.00000000000E+00 0. -1.
      99926    2    1    2    0    0  0.88817841970E-15 -0.71054273576E-14 -0.33790421642E+02  0.44969662363E+03  0.44842531229E+03 0.  0.
      99925    2    3    3    0    0  0.48826406456E+01  0.55453026377E+02  0.70062124197E+02  0.27784861610E+03  0.26304424325E+03 0.  0.
         25    1    4    4    0    0  0.31403807350E+02  0.34263039982E+02  0.67970087217E+01  0.13361834624E+03  0.12509000000E+03 0.  0.
         25    1    4    4    0    0 -0.26521166704E+02  0.21189986395E+02  0.63265115476E+02  0.14423026986E+03  0.12509000000E+03 0.  0.
         25    1    3    3    0    0 -0.48826406456E+01 -0.55453026377E+02 -0.10385254584E+03  0.17184800753E+03  0.12509000000E+03 0.  0.
<mgrwt>
<rscale>  2 0.44842531E+03</rscale>
<asrwt>0</asrwt>
<pdfrwt beam="1">  1       21 0.30581339E-01 0.44842531E+03</pdfrwt>
<pdfrwt beam="2">  1       21 0.35550518E-01 0.44842531E+03</pdfrwt>
<totfact> 0.72674259E+04</totfact>
</mgrwt>
</event>
<event>
 7    0  0.4788920E-002  0.4526957E+03  0.7546771E-02  0.1026921E+00
         21   -1    0    0  502  501  0.00000000000E+00  0.00000000000E+00  0.64364600679E+03  0.64364600679E+03  0.00000000000E+00 0. -1.
         21   -1    0    0  501  502 -0.00000000000E+00 -0.00000000000E+00 -0.79598640618E+02  0.79598640618E+02  0.00000000000E+00 0. -1.
      99926    2    1    2    0    0  0.35527136788E-14  0.00000000000E+00  0.56404736617E+03  0.72324464741E+03  0.45269569108E+03 0.  0.
      99925    2    3    3    0    0 -0.19702278160E+02  0.88788917034E+02  0.25424787077E+03  0.37698623667E+03  0.26306841562E+03 0.  0.
         25    1    4    4    0    0  0.18353655456E+02  0.22778595139E+02  0.89638508937E+02  0.15664702822E+03  0.12509000000E+03 0.  0.
         25    1    4    4    0    0 -0.38055933616E+02  0.66010321894E+02  0.16460936183E+03  0.22033920845E+03  0.12509000000E+03 0.  0.
         25    1    3    3    0    0  0.19702278160E+02 -0.88788917034E+02  0.30979949541E+03  0.34625841074E+03  0.12509000000E+03 0.  0.
<mgrwt>
<rscale>  2 0.45269569E+03</rscale>
<asrwt>0</asrwt>
<pdfrwt beam="1">  1       21 0.94653822E-01 0.45269569E+03</pdfrwt>
<pdfrwt beam="2">  1       21 0.11705683E-01 0.45269569E+03</pdfrwt>
<totfact> 0.52605993E+04</totfact>
</mgrwt>
</event>
<event>
 7    0  0.4788920E-002  0.4569299E+03  0.7546771E-02  0.1025675E+00
         21   -1    0    0  502  501  0.00000000000E+00  0.00000000000E+00  0.38466000380E+03  0.38466000380E+03  0.00000000000E+00 0.  1.
         21   -1    0    0  501  502 -0.00000000000E+00 -0.00000000000E+00 -0.13569444361E+03  0.13569444361E+03  0.00000000000E+00 0.  1.
      99926    2    1    2    0    0  0.00000000000E+00  0.00000000000E+00  0.24896556019E+03  0.52035444741E+03  0.45692986418E+03 0.  0.
      99925    2    3    3    0    0 -0.62770633882E+02  0.81118246463E+02  0.21582329014E+03  0.35522952333E+03  0.26284596116E+03 0.  0.
         25    1    4    4    0    0 -0.65119490324E+02  0.49497009640E+02  0.14399768426E+03  0.20754118424E+03  0.12509000000E+03 0.  0.
         25    1    4    4    0    0  0.23488564426E+01  0.31621236823E+02  0.71825605870E+02  0.14768833909E+03  0.12509000000E+03 0.  0.
         25    1    3    3    0    0  0.62770633882E+02 -0.81118246463E+02  0.33142270056E+02  0.16512492408E+03  0.12509000000E+03 0.  0.
<mgrwt>
<rscale>  2 0.45692986E+03</rscale>
<asrwt>0</asrwt>
<pdfrwt beam="1">  1       21 0.56567647E-01 0.45692986E+03</pdfrwt>
<pdfrwt beam="2">  1       21 0.19955065E-01 0.45692986E+03</pdfrwt>
<totfact> 0.62894582E+04</totfact>
</mgrwt>
</event>
<event>
 7    0  0.4788920E-002  0.4549358E+03  0.7546771E-02  0.1026260E+00
         21   -1    0    0  502  501  0.00000000000E+00  0.00000000000E+00  0.91691558542E+03  0.91691558542E+03  0.00000000000E+00 0. -1.
         21   -1    0    0  501  502 -0.00000000000E+00 -0.00000000000E+00 -0.56430101039E+02  0.56430101039E+02  0.00000000000E+00 0. -1.
      99926    2    1    2    0    0  0.00000000000E+00  0.00000000000E+00  0.86048548439E+03  0.97334568646E+03  0.45493577186E+03 0.  0.
      99925    2    3    3    0    0 -0.90118818284E+02 -0.36194234405E+02  0.66562480167E+03  0.72224885697E+03  0.26297454398E+03 0.  0.
         25    1    4    4    0    0 -0.31181659200E+02 -0.43064631087E+01  0.41079839737E+03  0.43057365558E+03  0.12509000000E+03 0.  0.
         25    1    4    4    0    0 -0.58937159084E+02 -0.31887771296E+02  0.25482640430E+03  0.29167520140E+03  0.12509000000E+03 0.  0.
         25    1    3    3    0    0  0.90118818284E+02  0.36194234405E+02  0.19486068271E+03  0.25109682949E+03  0.12509000000E+03 0.  0.
<mgrwt>
<rscale>  2 0.45493577E+03</rscale>
<asrwt>0</asrwt>
<pdfrwt beam="1">  1       21 0.13484052E+00 0.45493577E+03</pdfrwt>
<pdfrwt beam="2">  1       21 0.82985448E-02 0.45493577E+03</pdfrwt>
<totfact> 0.40229834E+04</totfact>
</mgrwt>
</event>
<event>
 6    0  0.4788920E-002  0.4544682E+03  0.7546771E-02  0.1026398E+00
         21   -1    0    0  502  501  0.00000000000E+00  0.00000000000E+00  0.10750005999E+03  0.10750005999E+03  0.00000000000E+00 0.  1.
         21   -1    0    0  501  502 -0.00000000000E+00 -0.00000000000E+00 -0.48032841585E+03  0.48032841585E+03  0.00000000000E+00 0.  1.
      99926    2    1    2    0    0  0.00000000000E+00  0.35527136788E-14 -0.37282835586E+03  0.58782847584E+03  0.45446818819E+03 0.  0.
         25    1    3    3    0    0 -0.10267609311E+03  0.24569193802E+02 -0.14201924244E+03  0.21670947996E+03  0.12509000000E+03 0.  0.
         25    1    3    3    0    0  0.68333767381E+02  0.15644602005E+02 -0.66828283264E+02  0.15820172212E+03  0.12509000000E+03 0.  0.
         25    1    3    3    0    0  0.34342325730E+02 -0.40213795807E+02 -0.16398083015E+03  0.21291727376E+03  0.12509000000E+03 0.  0.
<mgrwt>
<rscale>  2 0.45446819E+03</rscale>
<asrwt>0</asrwt>
<pdfrwt beam="1">  1       21 0.15808832E-01 0.45446819E+03</pdfrwt>
<pdfrwt beam="2">  1       21 0.70636531E-01 0.45446819E+03</pdfrwt>
<totfact> 0.59684263E+04</totfact>
</mgrwt>
</event>
<event>
 7    0  0.4788920E-002  0.4537558E+03  0.7546771E-02  0.1026608E+00
         21   -1    0    0  502  501  0.00000000000E+00  0.00000000000E+00  0.97733388418E+02  0.97733388418E+02  0.00000000000E+00 0.  1.
         21   -1    0    0  501  502 -0.00000000000E+00 -0.00000000000E+00 -0.52667346603E+03  0.52667346603E+03  0.00000000000E+00 0.  1.
      99926    2    1    2    0    0  0.00000000000E+00 -0.14210854715E-13 -0.42894007761E+03  0.62440685444E+03  0.45375580404E+03 0.  0.
      99925    2    3    3    0    0  0.42532672364E+02  0.74314647450E+02 -0.17108493185E+03  0.32529403403E+03  0.26308641095E+03 0.  0.
         25    1    3    3    0    0 -0.42532672364E+02 -0.74314647450E+02 -0.25785514576E+03  0.29911282042E+03  0.12509000000E+03 0.  0.
         25    1    4    4    0    0  0.15219188875E+02  0.78488449820E+02 -0.96347844623E+02  0.17698156890E+03  0.12509000000E+03 0.  0.
         25    1    4    4    0    0  0.27313483490E+02 -0.41738023709E+01 -0.74737087230E+02  0.14831246513E+03  0.12509000000E+03 0.  0.
<mgrwt>
<rscale>  2 0.45375580E+03</rscale>
<asrwt>0</asrwt>
<pdfrwt beam="1">  1       21 0.14372557E-01 0.45375580E+03</pdfrwt>
<pdfrwt beam="2">  1       21 0.77451981E-01 0.45375580E+03</pdfrwt>
<totfact> 0.57765930E+04</totfact>
</mgrwt>
</event>
<event>
 7    0  0.4788920E-002  0.4572819E+03  0.7546771E-02  0.1025572E+00
         21   -1    0    0  502  501  0.00000000000E+00  0.00000000000E+00  0.17490579294E+03  0.17490579294E+03  0.00000000000E+00 0. -1.
         21   -1    0    0  501  502 -0.00000000000E+00 -0.00000000000E+00 -0.29888479848E+03  0.29888479848E+03  0.00000000000E+00 0. -1.
      99926    2    1    2    0    0  0.00000000000E+00  0.00000000000E+00 -0.12397900555E+03  0.47379059142E+03  0.45728189413E+03 0.  0.
      99925    2    3    3    0    0  0.77180637052E+02 -0.44814782513E+02 -0.15341140541E+03  0.31733296224E+03  0.26305880358E+03 0.  0.
         25    1    3    3    0    0 -0.77180637052E+02  0.44814782513E+02  0.29432399866E+02  0.15645762918E+03  0.12509000000E+03 0.  0.
         25    1    4    4    0    0  0.56989493052E+02  0.13781386456E+02 -0.78819286713E+02  0.15905256046E+03  0.12509000000E+03 0.  0.
         25    1    4    4    0    0  0.20191144001E+02 -0.58596168969E+02 -0.74592118701E+02  0.15828040178E+03  0.12509000000E+03 0.  0.
<mgrwt>
<rscale>  2 0.45728189E+03</rscale>
<asrwt>0</asrwt>
<pdfrwt beam="1">  1       21 0.25721440E-01 0.45728189E+03</pdfrwt>
<pdfrwt beam="2">  1       21 0.43953646E-01 0.45728189E+03</pdfrwt>
<totfact> 0.65952749E+04</totfact>
</mgrwt>
</event>
<event>
 7    0  0.4788920E-002  0.4447577E+03  0.7546771E-02  0.1029297E+00
         21   -1    0    0  502  501  0.00000000000E+00  0.00000000000E+00  0.60716119342E+02  0.60716119342E+02  0.00000000000E+00 0. -1.
         21   -1    0    0  501  502 -0.00000000000E+00 -0.00000000000E+00 -0.81448465985E+03  0.81448465985E+03  0.00000000000E+00 0. -1.
      99926    2    1    2    0    0 -0.35527136788E-14  0.71054273576E-14 -0.75376854051E+03  0.87520077919E+03  0.44475767699E+03 0.  0.
      99925    2    3    3    0    0  0.25647334580E+02  0.63860995868E+02 -0.32756387540E+03  0.42571892503E+03  0.26306367688E+03 0.  0.
         25    1    4    4    0    0  0.42150227681E+02  0.13535979222E+02 -0.12843614174E+03  0.18467055811E+03  0.12509000000E+03 0.  0.
         25    1    3    3    0    0 -0.25647334580E+02 -0.63860995868E+02 -0.42620466511E+03  0.44948185416E+03  0.12509000000E+03 0.  0.
         25    1    4    4    0    0 -0.16502893101E+02  0.50325016646E+02 -0.19912773366E+03  0.24104836692E+03  0.12509000000E+03 0.  0.
<mgrwt>
<rscale>  2 0.44475768E+03</rscale>
<asrwt>0</asrwt>
<pdfrwt beam="1">  1       21 0.89288409E-02 0.44475768E+03</pdfrwt>
<pdfrwt beam="2">  1       21 0.11977716E+00 0.44475768E+03</pdfrwt>
<totfact> 0.48064754E+04</totfact>
</mgrwt>
</event>
<event>
 7    0  0.4788920E-002  0.4554235E+03  0.7546771E-02  0.1026117E+00
         21   -1    0    0  502  501  0.00000000000E+00  0.00000000000E+00  0.13985614374E+04  0.13985614374E+04  0.00000000000E+00 0. -1.
         21   -1    0    0  501  502 -0.00000000000E+00 -0.00000000000E+00 -0.37075694623E+02  0.37075694623E+02  0.00000000000E+00 0. -1.
      99926    2    1    2    0    0 -0.35527136788E-14  0.14210854715E-13  0.13614857428E+04  0.14356371320E+04  0.45542348101E+03 0.  0.
      99925    2    3    3    0    0 -0.21251669842E+02  0.96658444526E+02  0.68045564351E+03  0.73617734577E+03  0.26295002050E+03 0.  0.
         25    1    3    3    0    0  0.21251669842E+02 -0.96658444526E+02  0.68103009926E+03  0.69945978624E+03  0.12509000000E+03 0.  0.
         25    1    4    4    0    0  0.86603192041E+01  0.84166489429E+02  0.34034337917E+03  0.37234409209E+03  0.12509000000E+03 0.  0.
         25    1    4    4    0    0 -0.29911989047E+02  0.12491955097E+02  0.34011226434E+03  0.36383325368E+03  0.12509000000E+03 0.  0.
<mgrwt>
<rscale>  2 0.45542348E+03</rscale>
<asrwt>0</asrwt>
<pdfrwt beam="1">  1       21 0.20567076E+00 0.45542348E+03</pdfrwt>
<pdfrwt beam="2">  1       21 0.54523090E-02 0.45542348E+03</pdfrwt>
<totfact> 0.25314247E+04</totfact>
</mgrwt>
</event>
<event>
 7    0  0.5241497E-002  0.4032063E+03  0.7546771E-02  0.1042675E+00
         21   -1    0    0  502  501  0.00000000000E+00  0.00000000000E+00  0.70780234594E+02  0.70780234594E+02  0.00000000000E+00 0.  1.
         21   -1    0    0  501  502 -0.00000000000E+00 -0.00000000000E+00 -0.57422575721E+03  0.57422575721E+03  0.00000000000E+00 0.  1.
      99926    2    1    2    0    0 -0.17763568394E-14  0.00000000000E+00 -0.50344552261E+03  0.64500599180E+03  0.40320631843E+03 0.  0.
      99925    2    3    3    0    0  0.15070541059E+02  0.18679698105E+02 -0.40611467124E+03  0.48470360549E+03  0.26350029724E+03 0.  0.
         25    1    3    3    0    0 -0.15070541059E+02 -0.18679698105E+02 -0.97330851370E+02  0.16030238631E+03  0.12509000000E+03 0.  0.
         25    1    4    4    0    0  0.41519156191E+02  0.25502450656E+02 -0.17584339703E+03  0.22122979840E+03  0.12509000000E+03 0.  0.
         25    1    4    4    0    0 -0.26448615132E+02 -0.68227525502E+01 -0.23027127421E+03  0.26347380709E+03  0.12509000000E+03 0.  0.
<mgrwt>
<rscale>  2 0.40320632E+03</rscale>
<asrwt>0</asrwt>
<pdfrwt beam="1">  1       21 0.10408858E-01 0.40320632E+03</pdfrwt>
<pdfrwt beam="2">  1       21 0.84444967E-01 0.40320632E+03</pdfrwt>
<totfact> 0.86133140E+04</totfact>
</mgrwt>
</event>
<event>
 7    0  0.4788920E-002  0.4562929E+03  0.7546771E-02  0.1025862E+00
         21   -1    0    0  502  501  0.00000000000E+00  0.00000000000E+00  0.13182069783E+03  0.13182069783E+03  0.00000000000E+00 0. -1.
         21   -1    0    0  501  502 -0.00000000000E+00 -0.00000000000E+00 -0.39486055845E+03  0.39486055845E+03  0.00000000000E+00 0. -1.
      99926    2    1    2    0    0  0.00000000000E+00 -0.71054273576E-14 -0.26303986062E+03  0.52668125628E+03  0.45629286367E+03 0.  0.
      99925    2    3    3    0    0  0.78359767788E+02 -0.36603984190E+02 -0.80339737371E+02  0.28896935502E+03  0.26375881004E+03 0.  0.
         25    1    4    4    0    0  0.39755653632E+02 -0.36896101550E+02 -0.18988222803E+01  0.13635596038E+03  0.12509000000E+03 0.  0.
         25    1    4    4    0    0  0.38604114155E+02  0.29211735971E+00 -0.78440915091E+02  0.15261339464E+03  0.12509000000E+03 0.  0.
         25    1    3    3    0    0 -0.78359767788E+02  0.36603984190E+02 -0.18270012325E+03  0.23771190126E+03  0.12509000000E+03 0.  0.
<mgrwt>
<rscale>  2 0.45629286E+03</rscale>
<asrwt>0</asrwt>
<pdfrwt beam="1">  1       21 0.19385397E-01 0.45629286E+03</pdfrwt>
<pdfrwt beam="2">  1       21 0.58067729E-01 0.45629286E+03</pdfrwt>
<totfact> 0.62785813E+04</totfact>
</mgrwt>
</event>
<event>
 7    0  0.4788920E-002  0.4553732E+03  0.7546771E-02  0.1026132E+00
         21   -1    0    0  502  501  0.00000000000E+00  0.00000000000E+00  0.57422195892E+02  0.57422195892E+02  0.00000000000E+00 0. -1.
         21   -1    0    0  501  502 -0.00000000000E+00 -0.00000000000E+00 -0.90280758864E+03  0.90280758864E+03  0.00000000000E+00 0. -1.
      99926    2    1    2    0    0  0.00000000000E+00  0.00000000000E+00 -0.84538539275E+03  0.96022978453E+03  0.45537322806E+03 0.  0.
      99925    2    3    3    0    0  0.70930760302E+02  0.88645193469E+02 -0.53154705054E+03  0.60381548035E+03  0.26298616750E+03 0.  0.
         25    1    4    4    0    0  0.62016344712E+02  0.30321199590E+02 -0.32754497494E+03  0.35734943803E+03  0.12509000000E+03 0.  0.
         25    1    3    3    0    0 -0.70930760302E+02 -0.88645193469E+02 -0.31383834221E+03  0.35641430418E+03  0.12509000000E+03 0.  0.
         25    1    4    4    0    0  0.89144155895E+01  0.58323993878E+02 -0.20400207560E+03  0.24646604232E+03  0.12509000000E+03 0.  0.
<mgrwt>
<rscale>  2 0.45537323E+03</rscale>
<asrwt>0</asrwt>
<pdfrwt beam="1">  1       21 0.84444413E-02 0.45537323E+03</pdfrwt>
<pdfrwt beam="2">  1       21 0.13276581E+00 0.45537323E+03</pdfrwt>
<totfact> 0.40610715E+04</totfact>
</mgrwt>
</event>
<event>
 7    0  0.4788920E-002  0.4535676E+03  0.7546771E-02  0.1026663E+00
         21   -1    0    0  502  501  0.00000000000E+00  0.00000000000E+00  0.22296075739E+03  0.22296075739E+03  0.00000000000E+00 0.  1.
         21   -1    0    0  501  502 -0.00000000000E+00 -0.00000000000E+00 -0.23067236911E+03  0.23067236911E+03  0.00000000000E+00 0.  1.
      99926    2    1    2    0    0 -0.71054273576E-14 -0.14210854715E-13 -0.77116117177E+01  0.45363312651E+03  0.45356757436E+03 0.  0.
      99925    2    3    3    0    0  0.51651896525E+02  0.96669218353E+02  0.18098058204E+02  0.28532833349E+03  0.26281526209E+03 0.  0.
         25    1    4    4    0    0  0.34327317774E+01  0.76546020650E+02 -0.94409445383E+01  0.14699563415E+03  0.12509000000E+03 0.  0.
         25    1    3    3    0    0 -0.51651896525E+02 -0.96669218353E+02 -0.25809669922E+02  0.16830479302E+03  0.12509000000E+03 0.  0.
         25    1    4    4    0    0  0.48219164748E+02  0.20123197703E+02  0.27539002742E+02  0.13833269934E+03  0.12509000000E+03 0.  0.
<mgrwt>
<rscale>  2 0.45356757E+03</rscale>
<asrwt>0</asrwt>
<pdfrwt beam="1">  1       21 0.32788347E-01 0.45356757E+03</pdfrwt>
<pdfrwt beam="2">  1       21 0.33922407E-01 0.45356757E+03</pdfrwt>
<totfact> 0.69436263E+04</totfact>
</mgrwt>
</event>
<event>
 7    0  0.4788920E-002  0.4624050E+03  0.7546771E-02  0.1024086E+00
         21   -1    0    0  502  501  0.00000000000E+00  0.00000000000E+00  0.39882027579E+02  0.39882027579E+02  0.00000000000E+00 0.  1.
         21   -1    0    0  501  502 -0.00000000000E+00 -0.00000000000E+00 -0.13403179396E+04  0.13403179396E+04  0.00000000000E+00 0.  1.
      99926    2    1    2    0    0  0.00000000000E+00 -0.71054273576E-14 -0.13004359120E+04  0.13801999672E+04  0.46240500444E+03 0.  0.
      99925    2    3    3    0    0 -0.96408571946E+02 -0.38423198377E+02 -0.63327338617E+03  0.69352369780E+03  0.26299996744E+03 0.  0.
         25    1    4    4    0    0 -0.26731592188E+02 -0.11015326025E+02 -0.38227466065E+03  0.40325840315E+03  0.12509000000E+03 0.  0.
         25    1    4    4    0    0 -0.69676979758E+02 -0.27407872352E+02 -0.25099872551E+03  0.29026529466E+03  0.12509000000E+03 0.  0.
         25    1    3    3    0    0  0.96408571946E+02  0.38423198377E+02 -0.66716252584E+03  0.68667626936E+03  0.12509000000E+03 0.  0.
<mgrwt>
<rscale>  2 0.46240500E+03</rscale>
<asrwt>0</asrwt>
<pdfrwt beam="1">  1       21 0.58650044E-02 0.46240500E+03</pdfrwt>
<pdfrwt beam="2">  1       21 0.19710557E+00 0.46240500E+03</pdfrwt>
<totfact> 0.25372521E+04</totfact>
</mgrwt>
</event>
<event>
 7    0  0.4788920E-002  0.4629691E+03  0.7546771E-02  0.1023924E+00
         21   -1    0    0  502  501  0.00000000000E+00  0.00000000000E+00  0.14483740833E+03  0.14483740833E+03  0.00000000000E+00 0.  1.
         21   -1    0    0  501  502 -0.00000000000E+00 -0.00000000000E+00 -0.36996717324E+03  0.36996717324E+03  0.00000000000E+00 0.  1.
      99926    2    1    2    0    0 -0.14210854715E-13  0.00000000000E+00 -0.22512976492E+03  0.51480458157E+03  0.46296905529E+03 0.  0.
      99925    2    3    3    0    0  0.94219826601E+02  0.18335532944E+02 -0.22155590333E+03  0.35709013049E+03  0.26308321022E+03 0.  0.
         25    1    4    4    0    0  0.88717166298E+02  0.17667786130E+02 -0.13250334012E+03  0.20343925262E+03  0.12509000000E+03 0.  0.
         25    1    4    4    0    0  0.55026603030E+01  0.66774681365E+00 -0.89052563204E+02  0.15365087787E+03  0.12509000000E+03 0.  0.
         25    1    3    3    0    0 -0.94219826601E+02 -0.18335532944E+02 -0.35738615878E+01  0.15771445108E+03  0.12509000000E+03 0.  0.
<mgrwt>
<rscale>  2 0.46296906E+03</rscale>
<asrwt>0</asrwt>
<pdfrwt beam="1">  1       21 0.21299619E-01 0.46296906E+03</pdfrwt>
<pdfrwt beam="2">  1       21 0.54406936E-01 0.46296906E+03</pdfrwt>
<totfact> 0.60335496E+04</totfact>
</mgrwt>
</event>
<event>
 7    0  0.4788920E-002  0.4540676E+03  0.7546771E-02  0.1026516E+00
         21   -1    0    0  502  501  0.00000000000E+00  0.00000000000E+00  0.67827486188E+03  0.67827486188E+03  0.00000000000E+00 0. -1.
         21   -1    0    0  501  502 -0.00000000000E+00 -0.00000000000E+00 -0.75993295937E+02  0.75993295937E+02  0.00000000000E+00 0. -1.
      99926    2    1    2    0    0  0.35527136788E-14  0.00000000000E+00  0.60228156594E+03  0.75426815781E+03  0.45406758222E+03 0.  0.
      99925    2    3    3    0    0 -0.19966170483E+02 -0.10541494356E+03  0.32405456639E+03  0.43089727219E+03  0.26296413994E+03 0.  0.
         25    1    3    3    0    0  0.19966170483E+02  0.10541494356E+03  0.27822699955E+03  0.32337088562E+03  0.12509000000E+03 0.  0.
         25    1    4    4    0    0 -0.39651143027E+02 -0.72432419999E+02  0.14024693625E+03  0.20526904257E+03  0.12509000000E+03 0.  0.
         25    1    4    4    0    0  0.19684972544E+02 -0.32982523559E+02  0.18380763015E+03  0.22562822963E+03  0.12509000000E+03 0.  0.
<mgrwt>
<rscale>  2 0.45406758E+03</rscale>
<asrwt>0</asrwt>
<pdfrwt beam="1">  1       21 0.99746300E-01 0.45406758E+03</pdfrwt>
<pdfrwt beam="2">  1       21 0.11175485E-01 0.45406758E+03</pdfrwt>
<totfact> 0.50422098E+04</totfact>
</mgrwt>
</event>
<event>
 7    0  0.4788920E-002  0.4583824E+03  0.7546771E-02  0.1025251E+00
         21   -1    0    0  502  501  0.00000000000E+00  0.00000000000E+00  0.29310478319E+02  0.29310478319E+02  0.00000000000E+00 0.  1.
         21   -1    0    0  501  502 -0.00000000000E+00 -0.00000000000E+00 -0.17921440200E+04  0.17921440200E+04  0.00000000000E+00 0.  1.
      99926    2    1    2    0    0  0.00000000000E+00  0.00000000000E+00 -0.17628335417E+04  0.18214544984E+04  0.45838236634E+03 0.  0.
      99925    2    3    3    0    0 -0.13255940185E+02  0.77429091113E+02 -0.14469551026E+04  0.14727459087E+04  0.26292671707E+03 0.  0.
         25    1    4    4    0    0 -0.41591139147E+02  0.58885846404E+02 -0.72072773918E+03  0.73504649369E+03  0.12509000000E+03 0.  0.
         25    1    4    4    0    0  0.28335198962E+02  0.18543244709E+02 -0.72622736343E+03  0.73769941502E+03  0.12509000000E+03 0.  0.
         25    1    3    3    0    0  0.13255940185E+02 -0.77429091113E+02 -0.31587843911E+03  0.34870858965E+03  0.12509000000E+03 0.  0.
<mgrwt>
<rscale>  2 0.45838237E+03</rscale>
<asrwt>0</asrwt>
<pdfrwt beam="1">  1       21 0.43103633E-02 0.45838237E+03</pdfrwt>
<pdfrwt beam="2">  1       21 0.26355066E+00 0.45838237E+03</pdfrwt>
<totfact> 0.16415547E+04</totfact>
</mgrwt>
</event>
<event>
 7    0  0.4788920E-002  0.4328706E+03  0.7546771E-02  0.1032957E+00
         21   -1    0    0  502  501  0.00000000000E+00  0.00000000000E+00  0.11911062671E+03  0.11911062671E+03  0.00000000000E+00 0. -1.
         21   -1    0    0  501  502 -0.00000000000E+00 -0.00000000000E+00 -0.39328354105E+03  0.39328354105E+03  0.00000000000E+00 0. -1.
      99926    2    1    2    0    0  0.35527136788E-14  0.00000000000E+00 -0.27417291434E+03  0.51239416776E+03  0.43287064603E+03 0.  0.
      99925    2    3    3    0    0 -0.24094091292E+02  0.87234375397E+02 -0.16796016370E+03  0.32499347944E+03  0.26309652905E+03 0.  0.
         25    1    4    4    0    0 -0.25628871529E+02  0.18931812467E+02 -0.44845202452E+02  0.13665230646E+03  0.12509000000E+03 0.  0.
         25    1    3    3    0    0  0.24094091292E+02 -0.87234375397E+02 -0.10621275064E+03  0.18740068832E+03  0.12509000000E+03 0.  0.
         25    1    4    4    0    0  0.15347802368E+01  0.68302562930E+02 -0.12311496125E+03  0.18834117297E+03  0.12509000000E+03 0.  0.
<mgrwt>
<rscale>  2 0.43287065E+03</rscale>
<asrwt>0</asrwt>
<pdfrwt beam="1">  1       21 0.17516269E-01 0.43287065E+03</pdfrwt>
<pdfrwt beam="2">  1       21 0.57835815E-01 0.43287065E+03</pdfrwt>
<totfact> 0.77065617E+04</totfact>
</mgrwt>
</event>
<event>
 7    0  0.4788920E-002  0.4612694E+03  0.7546771E-02  0.1024414E+00
         21   -1    0    0  502  501  0.00000000000E+00  0.00000000000E+00  0.11830489888E+03  0.11830489888E+03  0.00000000000E+00 0.  1.
         21   -1    0    0  501  502 -0.00000000000E+00 -0.00000000000E+00 -0.44962106744E+03  0.44962106744E+03  0.00000000000E+00 0.  1.
      99926    2    1    2    0    0 -0.71054273576E-14  0.14210854715E-13 -0.33131616856E+03  0.56792596633E+03  0.46126944369E+03 0.  0.
      99925    2    3    3    0    0  0.51567942430E+02 -0.96173503763E+02 -0.14896944138E+03  0.32133636289E+03  0.26297636422E+03 0.  0.
         25    1    4    4    0    0  0.55759413352E+02 -0.40619444078E+02 -0.46235265301E+02  0.15014745843E+03  0.12509000000E+03 0.  0.
         25    1    4    4    0    0 -0.41914709216E+01 -0.55554059685E+02 -0.10273417608E+03  0.17118890446E+03  0.12509000000E+03 0.  0.
         25    1    3    3    0    0 -0.51567942430E+02  0.96173503763E+02 -0.18234672717E+03  0.24658960344E+03  0.12509000000E+03 0.  0.
<mgrwt>
<rscale>  2 0.46126944E+03</rscale>
<asrwt>0</asrwt>
<pdfrwt beam="1">  1       21 0.17397780E-01 0.46126944E+03</pdfrwt>
<pdfrwt beam="2">  1       21 0.66120744E-01 0.46126944E+03</pdfrwt>
<totfact> 0.57778784E+04</totfact>
</mgrwt>
</event>
<event>
 7    0  0.4788920E-002  0.4567003E+03  0.7546771E-02  0.1025743E+00
         21   -1    0    0  502  501  0.00000000000E+00  0.00000000000E+00  0.27349606291E+03  0.27349606291E+03  0.00000000000E+00 0.  1.
         21   -1    0    0  501  502 -0.00000000000E+00 -0.00000000000E+00 -0.19065647028E+03  0.19065647028E+03  0.00000000000E+00 0.  1.
      99926    2    1    2    0    0  0.00000000000E+00  0.00000000000E+00  0.82839592636E+02  0.46415253319E+03  0.45670031307E+03 0.  0.
      99925    2    3    3    0    0  0.77660661762E+02  0.58608689170E+02  0.11387612548E+03  0.30266900059E+03  0.26301063692E+03 0.  0.
         25    1    4    4    0    0  0.21736464166E+02  0.58388432233E+02  0.81854952846E+02  0.16195500702E+03  0.12509000000E+03 0.  0.
         25    1    3    3    0    0 -0.77660661762E+02 -0.58608689170E+02 -0.31036532841E+02  0.16148353260E+03  0.12509000000E+03 0.  0.
         25    1    4    4    0    0  0.55924197595E+02  0.22025693646E+00  0.32021172631E+02  0.14071399357E+03  0.12509000000E+03 0.  0.
<mgrwt>
<rscale>  2 0.45670031E+03</rscale>
<asrwt>0</asrwt>
<pdfrwt beam="1">  1       21 0.40220009E-01 0.45670031E+03</pdfrwt>
<pdfrwt beam="2">  1       21 0.28037716E-01 0.45670031E+03</pdfrwt>
<totfact> 0.66963400E+04</totfact>
</mgrwt>
</event>
<event>
 7    0  0.4788920E-002  0.4425635E+03  0.7546771E-02  0.1029963E+00
         21   -1    0    0  502  501  0.00000000000E+00  0.00000000000E+00  0.15032774474E+03  0.15032774474E+03  0.00000000000E+00 0. -1.
         21   -1    0    0  501  502 -0.00000000000E+00 -0.00000000000E+00 -0.32572571822E+03  0.32572571822E+03  0.00000000000E+00 0. -1.
      99926    2    1    2    0    0  0.00000000000E+00 -0.71054273576E-14 -0.17539797348E+03  0.47605346296E+03  0.44256349882E+03 0.  0.
      99925    2    3    3    0    0  0.76080779405E+02  0.62000051609E+02 -0.13185061904E+03  0.31120149429E+03  0.26425270654E+03 0.  0.
         25    1    3    3    0    0 -0.76080779405E+02 -0.62000051609E+02 -0.43547354449E+02  0.16485196867E+03  0.12509000000E+03 0.  0.
         25    1    4    4    0    0  0.65819347906E+01  0.59338938582E+02 -0.59663879125E+02  0.15090300882E+03  0.12509000000E+03 0.  0.
         25    1    4    4    0    0  0.69498844614E+02  0.26611130264E+01 -0.72186739910E+02  0.16029848547E+03  0.12509000000E+03 0.  0.
<mgrwt>
<rscale>  2 0.44256350E+03</rscale>
<asrwt>0</asrwt>
<pdfrwt beam="1">  1       21 0.22107021E-01 0.44256350E+03</pdfrwt>
<pdfrwt beam="2">  1       21 0.47900841E-01 0.44256350E+03</pdfrwt>
<totfact> 0.74031437E+04</totfact>
</mgrwt>
</event>
<event>
 7    0  0.4788920E-002  0.4483514E+03  0.7546771E-02  0.1028215E+00
         21   -1    0    0  502  501  0.00000000000E+00  0.00000000000E+00  0.45376257742E+02  0.45376257742E+02  0.00000000000E+00 0.  1.
         21   -1    0    0  501  502 -0.00000000000E+00 -0.00000000000E+00 -0.11075119074E+04  0.11075119074E+04  0.00000000000E+00 0.  1.
      99926    2    1    2    0    0  0.00000000000E+00  0.00000000000E+00 -0.10621356497E+04  0.11528881652E+04  0.44835140577E+03 0.  0.
      99925    2    3    3    0    0 -0.20917306723E+02 -0.97599675908E+02 -0.57404824067E+03  0.63923452954E+03  0.26291856283E+03 0.  0.
         25    1    3    3    0    0  0.20917306723E+02  0.97599675908E+02 -0.48808740901E+03  0.51365363563E+03  0.12509000000E+03 0.  0.
         25    1    4    4    0    0 -0.45907156034E+02 -0.33304063277E+02 -0.30878369514E+03  0.33795192867E+03  0.12509000000E+03 0.  0.
         25    1    4    4    0    0  0.24989849311E+02 -0.64295612631E+02 -0.26526454553E+03  0.30128260087E+03  0.12509000000E+03 0.  0.
<mgrwt>
<rscale>  2 0.44835141E+03</rscale>
<asrwt>0</asrwt>
<pdfrwt beam="1">  1       21 0.66729783E-02 0.44835141E+03</pdfrwt>
<pdfrwt beam="2">  1       21 0.16286942E+00 0.44835141E+03</pdfrwt>
<totfact> 0.35489633E+04</totfact>
</mgrwt>
</event>
<event>
 7    0  0.4788920E-002  0.4565385E+03  0.7546771E-02  0.1025790E+00
         21   -1    0    0  502  501  0.00000000000E+00  0.00000000000E+00  0.45901919116E+02  0.45901919116E+02  0.00000000000E+00 0.  1.
         21   -1    0    0  501  502 -0.00000000000E+00 -0.00000000000E+00 -0.11351782613E+04  0.11351782613E+04  0.00000000000E+00 0.  1.
      99926    2    1    2    0    0  0.66613381478E-15  0.00000000000E+00 -0.10892763422E+04  0.11810801804E+04  0.45653854484E+03 0.  0.
      99925    2    3    3    0    0 -0.69593216693E+00 -0.10506143237E+03 -0.56963237797E+03  0.63636397308E+03  0.26351408180E+03 0.  0.
         25    1    4    4    0    0 -0.49333888201E+01 -0.22614852907E+02 -0.19459265358E+03  0.23248565295E+03  0.12509000000E+03 0.  0.
         25    1    4    4    0    0  0.42374566532E+01 -0.82446579462E+02 -0.37503972439E+03  0.40387832013E+03  0.12509000000E+03 0.  0.
         25    1    3    3    0    0  0.69593216693E+00  0.10506143237E+03 -0.51964396422E+03  0.54471620734E+03  0.12509000000E+03 0.  0.
<mgrwt>
<rscale>  2 0.45653854E+03</rscale>
<asrwt>0</asrwt>
<pdfrwt beam="1">  1       21 0.67502823E-02 0.45653854E+03</pdfrwt>
<pdfrwt beam="2">  1       21 0.16693798E+00 0.45653854E+03</pdfrwt>
<totfact> 0.32371638E+04</totfact>
</mgrwt>
</event>
<event>
 7    0  0.4788920E-002  0.4553445E+03  0.7546771E-02  0.1026140E+00
         21   -1    0    0  502  501  0.00000000000E+00  0.00000000000E+00  0.24589471019E+03  0.24589471019E+03  0.00000000000E+00 0.  1.
         21   -1    0    0  501  502 -0.00000000000E+00 -0.00000000000E+00 -0.21080021814E+03  0.21080021814E+03  0.00000000000E+00 0.  1.
      99926    2    1    2    0    0  0.00000000000E+00  0.00000000000E+00  0.35094492044E+02  0.45669492833E+03  0.45534452252E+03 0.  0.
      99925    2    3    3    0    0 -0.10953559863E+03 -0.24984927075E+02  0.61035973060E+01  0.28607759619E+03  0.26302251462E+03 0.  0.
         25    1    3    3    0    0  0.10953559863E+03  0.24984927075E+02  0.28990894738E+02  0.17061733214E+03  0.12509000000E+03 0.  0.
         25    1    4    4    0    0 -0.20683890883E+02 -0.14609389506E+02  0.28221196216E+02  0.13071037304E+03  0.12509000000E+03 0.  0.
         25    1    4    4    0    0 -0.88851707745E+02 -0.10375537568E+02 -0.22117598910E+02  0.15536722315E+03  0.12509000000E+03 0.  0.
<mgrwt>
<rscale>  2 0.45534452E+03</rscale>
<asrwt>0</asrwt>
<pdfrwt beam="1">  1       21 0.36160987E-01 0.45534452E+03</pdfrwt>
<pdfrwt beam="2">  1       21 0.31000032E-01 0.45534452E+03</pdfrwt>
<totfact> 0.68234078E+04</totfact>
</mgrwt>
</event>
<event>
 7    0  0.4788920E-002  0.4526721E+03  0.7546771E-02  0.1026928E+00
         21   -1    0    0  502  501  0.00000000000E+00  0.00000000000E+00  0.36754074399E+03  0.36754074399E+03  0.00000000000E+00 0.  1.
         21   -1    0    0  501  502 -0.00000000000E+00 -0.00000000000E+00 -0.13938045525E+03  0.13938045525E+03  0.00000000000E+00 0.  1.
      99926    2    1    2    0    0  0.00000000000E+00  0.14210854715E-13  0.22816028874E+03  0.50692119924E+03  0.45267205003E+03 0.  0.
      99925    2    3    3    0    0 -0.25820842707E+02 -0.66337690372E+02  0.48438736619E+02  0.27667187898E+03  0.26293271446E+03 0.  0.
         25    1    4    4    0    0 -0.27184161428E+02 -0.72183378287E+02  0.20790648597E+02  0.14842229584E+03  0.12509000000E+03 0.  0.
         25    1    3    3    0    0  0.25820842707E+02  0.66337690372E+02  0.17972155212E+03  0.23024932025E+03  0.12509000000E+03 0.  0.
         25    1    4    4    0    0  0.13633187215E+01  0.58456879144E+01  0.27648088021E+02  0.12824958314E+03  0.12509000000E+03 0.  0.
<mgrwt>
<rscale>  2 0.45267205E+03</rscale>
<asrwt>0</asrwt>
<pdfrwt beam="1">  1       21 0.54050109E-01 0.45267205E+03</pdfrwt>
<pdfrwt beam="2">  1       21 0.20497126E-01 0.45267205E+03</pdfrwt>
<totfact> 0.65998097E+04</totfact>
</mgrwt>
</event>
<event>
 7    0  0.4788920E-002  0.4550407E+03  0.7546771E-02  0.1026229E+00
         21   -1    0    0  502  501  0.00000000000E+00  0.00000000000E+00  0.74871200927E+02  0.74871200927E+02  0.00000000000E+00 0.  1.
         21   -1    0    0  501  502 -0.00000000000E+00 -0.00000000000E+00 -0.69139422295E+03  0.69139422295E+03  0.00000000000E+00 0.  1.
      99926    2    1    2    0    0  0.00000000000E+00  0.00000000000E+00 -0.61652302202E+03  0.76626542388E+03  0.45504072691E+03 0.  0.
      99925    2    3    3    0    0 -0.23199634802E+02  0.18531842259E+02 -0.57187932154E+03  0.63016905976E+03  0.26303124006E+03 0.  0.
         25    1    4    4    0    0  0.23253449938E+02  0.32208955159E+01 -0.23024114974E+03  0.26307716024E+03  0.12509000000E+03 0.  0.
         25    1    4    4    0    0 -0.46453084740E+02  0.15310946743E+02 -0.34163817179E+03  0.36709189953E+03  0.12509000000E+03 0.  0.
         25    1    3    3    0    0  0.23199634802E+02 -0.18531842259E+02 -0.44643700485E+02  0.13609636412E+03  0.12509000000E+03 0.  0.
<mgrwt>
<rscale>  2 0.45504073E+03</rscale>
<asrwt>0</asrwt>
<pdfrwt beam="1">  1       21 0.11010471E-01 0.45504073E+03</pdfrwt>
<pdfrwt beam="2">  1       21 0.10167562E+00 0.45504073E+03</pdfrwt>
<totfact> 0.49423836E+04</totfact>
</mgrwt>
</event>
<event>
 7    0  0.4788920E-002  0.4539759E+03  0.7546771E-02  0.1026543E+00
         21   -1    0    0  502  501  0.00000000000E+00  0.00000000000E+00  0.23858029632E+04  0.23858029632E+04  0.00000000000E+00 0. -1.
         21   -1    0    0  501  502 -0.00000000000E+00 -0.00000000000E+00 -0.21595886047E+02  0.21595886047E+02  0.00000000000E+00 0. -1.
      99926    2    1    2    0    0  0.00000000000E+00  0.00000000000E+00  0.23642070771E+04  0.24073988492E+04  0.45397589770E+03 0.  0.
      99925    2    3    3    0    0  0.47495461493E+02  0.76257761956E+02  0.18456584312E+04  0.18664632972E+04  0.26298123527E+03 0.  0.
         25    1    4    4    0    0  0.54092047323E+02  0.18571870511E+02  0.79796193718E+03  0.80972935308E+03  0.12509000000E+03 0.  0.
         25    1    3    3    0    0 -0.47495461493E+02 -0.76257761956E+02  0.51854864593E+03  0.54093555200E+03  0.12509000000E+03 0.  0.
         25    1    4    4    0    0 -0.65965858302E+01  0.57685891445E+02  0.10476964940E+04  0.10567339441E+04  0.12509000000E+03 0.  0.
<mgrwt>
<rscale>  2 0.45397590E+03</rscale>
<asrwt>0</asrwt>
<pdfrwt beam="1">  1       21 0.35085320E+00 0.45397590E+03</pdfrwt>
<pdfrwt beam="2">  1       21 0.31758672E-02 0.45397590E+03</pdfrwt>
<totfact> 0.81911892E+03</totfact>
</mgrwt>
</event>
<event>
 7    0  0.4788920E-002  0.4593867E+03  0.7546771E-02  0.1024959E+00
         21   -1    0    0  502  501  0.00000000000E+00  0.00000000000E+00  0.25642704904E+03  0.25642704904E+03  0.00000000000E+00 0. -1.
         21   -1    0    0  501  502 -0.00000000000E+00 -0.00000000000E+00 -0.20574675808E+03  0.20574675808E+03  0.00000000000E+00 0. -1.
      99926    2    1    2    0    0  0.00000000000E+00  0.22204460493E-14  0.50680290957E+02  0.46217380712E+03  0.45938669561E+03 0.  0.
      99925    2    3    3    0    0  0.96571913977E+02  0.16662471510E+01  0.98584149767E+02  0.29703387029E+03  0.26302352474E+03 0.  0.
         25    1    3    3    0    0 -0.96571913977E+02 -0.16662471510E+01 -0.47903858810E+02  0.16513993683E+03  0.12509000000E+03 0.  0.
         25    1    4    4    0    0  0.45676391170E+02  0.22212159744E+02  0.12534798678E+02  0.13558887133E+03  0.12509000000E+03 0.  0.
         25    1    4    4    0    0  0.50895522807E+02 -0.20545912593E+02  0.86049351089E+02  0.16144499896E+03  0.12509000000E+03 0.  0.
<mgrwt>
<rscale>  2 0.45938670E+03</rscale>
<asrwt>0</asrwt>
<pdfrwt beam="1">  1       21 0.37709860E-01 0.45938670E+03</pdfrwt>
<pdfrwt beam="2">  1       21 0.30256876E-01 0.45938670E+03</pdfrwt>
<totfact> 0.65693838E+04</totfact>
</mgrwt>
</event>
<event>
 7    0  0.4788920E-002  0.4625267E+03  0.7546771E-02  0.1024051E+00
         21   -1    0    0  502  501  0.00000000000E+00  0.00000000000E+00  0.11578826097E+03  0.11578826097E+03  0.00000000000E+00 0.  1.
         21   -1    0    0  501  502 -0.00000000000E+00 -0.00000000000E+00 -0.46190116601E+03  0.46190116601E+03  0.00000000000E+00 0.  1.
      99926    2    1    2    0    0  0.00000000000E+00  0.00000000000E+00 -0.34611290505E+03  0.57768942698E+03  0.46252668140E+03 0.  0.
      99925    2    3    3    0    0  0.64017803344E+02 -0.10008548292E+03 -0.23840426634E+03  0.37430790867E+03  0.26297230510E+03 0.  0.
         25    1    4    4    0    0  0.12554318274E+02 -0.55724194410E+02 -0.71664223519E+02  0.15506793925E+03  0.12509000000E+03 0.  0.
         25    1    4    4    0    0  0.51463485071E+02 -0.44361288510E+02 -0.16674004282E+03  0.21923996942E+03  0.12509000000E+03 0.  0.
         25    1    3    3    0    0 -0.64017803344E+02  0.10008548292E+03 -0.10770863871E+03  0.20338151831E+03  0.12509000000E+03 0.  0.
<mgrwt>
<rscale>  2 0.46252668E+03</rscale>
<asrwt>0</asrwt>
<pdfrwt beam="1">  1       21 0.17027685E-01 0.46252668E+03</pdfrwt>
<pdfrwt beam="2">  1       21 0.67926644E-01 0.46252668E+03</pdfrwt>
<totfact> 0.56627180E+04</totfact>
</mgrwt>
</event>
<event>
 7    0  0.4788920E-002  0.4509361E+03  0.7546771E-02  0.1027443E+00
         21   -1    0    0  502  501  0.00000000000E+00  0.00000000000E+00  0.15729346662E+04  0.15729346662E+04  0.00000000000E+00 0.  1.
         21   -1    0    0  501  502 -0.00000000000E+00 -0.00000000000E+00 -0.32319098640E+02  0.32319098640E+02  0.00000000000E+00 0.  1.
      99926    2    1    2    0    0  0.00000000000E+00  0.00000000000E+00  0.15406155676E+04  0.16052537649E+04  0.45093605148E+03 0.  0.
      99925    2    3    3    0    0 -0.60987245513E+02 -0.48486547109E+02  0.12459129941E+04  0.12757579314E+04  0.26303749018E+03 0.  0.
         25    1    4    4    0    0  0.10265516008E+02 -0.16583539848E+02  0.60438498702E+03  0.61750232003E+03  0.12509000000E+03 0.  0.
         25    1    4    4    0    0 -0.71252761521E+02 -0.31903007261E+02  0.64152800710E+03  0.65825561136E+03  0.12509000000E+03 0.  0.
         25    1    3    3    0    0  0.60987245513E+02  0.48486547109E+02  0.29470257346E+03  0.32949583347E+03  0.12509000000E+03 0.  0.
<mgrwt>
<rscale>  2 0.45093605E+03</rscale>
<asrwt>0</asrwt>
<pdfrwt beam="1">  1       21 0.23131387E+00 0.45093605E+03</pdfrwt>
<pdfrwt beam="2">  1       21 0.47528097E-02 0.45093605E+03</pdfrwt>
<totfact> 0.21997341E+04</totfact>
</mgrwt>
</event>
<event>
 7    0  0.4788920E-002  0.4534839E+03  0.7546771E-02  0.1026688E+00
         21   -1    0    0  502  501  0.00000000000E+00  0.00000000000E+00  0.16469121673E+04  0.16469121673E+04  0.00000000000E+00 0.  1.
         21   -1    0    0  501  502 -0.00000000000E+00 -0.00000000000E+00 -0.31217153050E+02  0.31217153050E+02  0.00000000000E+00 0.  1.
      99926    2    1    2    0    0  0.00000000000E+00  0.00000000000E+00  0.16156950143E+04  0.16781293204E+04  0.45348388808E+03 0.  0.
      99925    2    3    3    0    0  0.11909722358E+02  0.70943096121E+02  0.70202400868E+03  0.75313365609E+03  0.26305480571E+03 0.  0.
         25    1    4    4    0    0 -0.11193891490E+01  0.36034550037E+02  0.24007281117E+03  0.27309742692E+03  0.12509000000E+03 0.  0.
         25    1    3    3    0    0 -0.11909722358E+02 -0.70943096121E+02  0.91367100558E+03  0.92499566427E+03  0.12509000000E+03 0.  0.
         25    1    4    4    0    0  0.13029111507E+02  0.34908546084E+02  0.46195119751E+03  0.48003622917E+03  0.12509000000E+03 0.  0.
<mgrwt>
<rscale>  2 0.45348389E+03</rscale>
<asrwt>0</asrwt>
<pdfrwt beam="1">  1       21 0.24219291E+00 0.45348389E+03</pdfrwt>
<pdfrwt beam="2">  1       21 0.45907589E-02 0.45348389E+03</pdfrwt>
<totfact> 0.19954404E+04</totfact>
</mgrwt>
</event>
<event>
 7    0  0.4788920E-002  0.4450105E+03  0.7546771E-02  0.1029220E+00
         21   -1    0    0  502  501  0.00000000000E+00  0.00000000000E+00  0.36079831430E+03  0.36079831430E+03  0.00000000000E+00 0. -1.
         21   -1    0    0  501  502 -0.00000000000E+00 -0.00000000000E+00 -0.13721957523E+03  0.13721957523E+03  0.00000000000E+00 0. -1.
      99926    2    1    2    0    0 -0.13322676296E-14  0.00000000000E+00  0.22357873907E+03  0.49801788953E+03  0.44501052316E+03 0.  0.
      99925    2    3    3    0    0  0.22212296064E+01  0.56061359765E+02  0.23943206017E+03  0.36000830359E+03  0.26292671470E+03 0.  0.
         25    1    4    4    0    0  0.22813809076E+02 -0.64504382971E+01  0.12007086564E+03  0.17500456827E+03  0.12509000000E+03 0.  0.
         25    1    3    3    0    0 -0.22212296064E+01 -0.56061359765E+02 -0.15853321092E+02  0.13800958593E+03  0.12509000000E+03 0.  0.
         25    1    4    4    0    0 -0.20592579470E+02  0.62511798062E+02  0.11936119452E+03  0.18500373533E+03  0.12509000000E+03 0.  0.
<mgrwt>
<rscale>  2 0.44501052E+03</rscale>
<asrwt>0</asrwt>
<pdfrwt beam="1">  1       21 0.53058575E-01 0.44501052E+03</pdfrwt>
<pdfrwt beam="2">  1       21 0.20179349E-01 0.44501052E+03</pdfrwt>
<totfact> 0.70864565E+04</totfact>
</mgrwt>
</event>
<event>
 7    0  0.4788920E-002  0.4510252E+03  0.7546771E-02  0.1027417E+00
         21   -1    0    0  502  501  0.00000000000E+00  0.00000000000E+00  0.79191445660E+02  0.79191445660E+02  0.00000000000E+00 0.  1.
         21   -1    0    0  501  502 -0.00000000000E+00 -0.00000000000E+00 -0.64218986461E+03  0.64218986461E+03  0.00000000000E+00 0.  1.
      99926    2    1    2    0    0  0.00000000000E+00  0.00000000000E+00 -0.56299841895E+03  0.72138131027E+03  0.45102524881E+03 0.  0.
      99925    2    3    3    0    0 -0.53212530277E+02  0.65081255808E+02 -0.24357064055E+03  0.36818340973E+03  0.26299281934E+03 0.  0.
         25    1    3    3    0    0  0.53212530277E+02 -0.65081255808E+02 -0.31942777840E+03  0.35319790054E+03  0.12509000000E+03 0.  0.
         25    1    4    4    0    0 -0.27794153739E+02  0.20460002124E+02 -0.17117845030E+03  0.21480385615E+03  0.12509000000E+03 0.  0.
         25    1    4    4    0    0 -0.25418376538E+02  0.44621253684E+02 -0.72392190251E+02  0.15337955358E+03  0.12509000000E+03 0.  0.
<mgrwt>
<rscale>  2 0.45102525E+03</rscale>
<asrwt>0</asrwt>
<pdfrwt beam="1">  1       21 0.11645801E-01 0.45102525E+03</pdfrwt>
<pdfrwt beam="2">  1       21 0.94439685E-01 0.45102525E+03</pdfrwt>
<totfact> 0.53407627E+04</totfact>
</mgrwt>
</event>
<event>
 7    0  0.4788920E-002  0.4552125E+03  0.7546771E-02  0.1026179E+00
         21   -1    0    0  502  501  0.00000000000E+00  0.00000000000E+00  0.38236908739E+03  0.38236908739E+03  0.00000000000E+00 0. -1.
         21   -1    0    0  501  502 -0.00000000000E+00 -0.00000000000E+00 -0.13548324527E+03  0.13548324527E+03  0.00000000000E+00 0. -1.
      99926    2    1    2    0    0 -0.14210854715E-13 -0.71054273576E-14  0.24688584212E+03  0.51785233266E+03  0.45521249917E+03 0.  0.
      99925    2    3    3    0    0  0.73517773303E+02  0.42517570781E+02  0.24082739912E+03  0.36653538170E+03  0.26294056943E+03 0.  0.
         25    1    4    4    0    0  0.63612011776E+01  0.48147691677E+02  0.11385993884E+03  0.17598368920E+03  0.12509000000E+03 0.  0.
         25    1    3    3    0    0 -0.73517773303E+02 -0.42517570781E+02  0.60584429961E+01  0.15131695096E+03  0.12509000000E+03 0.  0.
         25    1    4    4    0    0  0.67156572125E+02 -0.56301208966E+01  0.12696746029E+03  0.19055169249E+03  0.12509000000E+03 0.  0.
<mgrwt>
<rscale>  2 0.45521250E+03</rscale>
<asrwt>0</asrwt>
<pdfrwt beam="1">  1       21 0.56230748E-01 0.45521250E+03</pdfrwt>
<pdfrwt beam="2">  1       21 0.19924007E-01 0.45521250E+03</pdfrwt>
<totfact> 0.63925982E+04</totfact>
</mgrwt>
</event>
<event>
 7    0  0.4788920E-002  0.4559719E+03  0.7546771E-02  0.1025956E+00
         21   -1    0    0  502  501  0.00000000000E+00  0.00000000000E+00  0.73987259448E+03  0.73987259448E+03  0.00000000000E+00 0.  1.
         21   -1    0    0  501  502 -0.00000000000E+00 -0.00000000000E+00 -0.70252093213E+02  0.70252093213E+02  0.00000000000E+00 0.  1.
      99926    2    1    2    0    0 -0.14210854715E-13 -0.17763568394E-14  0.66962050127E+03  0.81012468769E+03  0.45597192226E+03 0.  0.
      99925    2    3    3    0    0 -0.98390608036E+02 -0.82532572822E+01  0.52249751116E+03  0.59323413852E+03  0.26301001107E+03 0.  0.
         25    1    3    3    0    0  0.98390608036E+02  0.82532572822E+01  0.14712299010E+03  0.21689054918E+03  0.12509000000E+03 0.  0.
         25    1    4    4    0    0 -0.60882020008E+02 -0.43000317278E+02  0.26027575885E+03  0.29823921002E+03  0.12509000000E+03 0.  0.
         25    1    4    4    0    0 -0.37508588028E+02  0.34747059996E+02  0.26222175231E+03  0.29499492850E+03  0.12509000000E+03 0.  0.
<mgrwt>
<rscale>  2 0.45597192E+03</rscale>
<asrwt>0</asrwt>
<pdfrwt beam="1">  1       21 0.10880479E+00 0.45597192E+03</pdfrwt>
<pdfrwt beam="2">  1       21 0.10331191E-01 0.45597192E+03</pdfrwt>
<totfact> 0.46920108E+04</totfact>
</mgrwt>
</event>
<event>
 7    0  0.4788920E-002  0.4647993E+03  0.7546771E-02  0.1023398E+00
         21   -1    0    0  502  501  0.00000000000E+00  0.00000000000E+00  0.10583548642E+04  0.10583548642E+04  0.00000000000E+00 0. -1.
         21   -1    0    0  501  502 -0.00000000000E+00 -0.00000000000E+00 -0.51031657882E+02  0.51031657882E+02  0.00000000000E+00 0. -1.
      99926    2    1    2    0    0  0.00000000000E+00 -0.71054273576E-14  0.10073232063E+04  0.11093865220E+04  0.46479932593E+03 0.  0.
      99925    2    3    3    0    0  0.93124731710E+02 -0.34271275005E+02  0.79891298321E+03  0.84684306825E+03  0.26274415611E+03 0.  0.
         25    1    3    3    0    0 -0.93124731710E+02  0.34271275005E+02  0.20841022308E+03  0.26254345379E+03  0.12509000000E+03 0.  0.
         25    1    4    4    0    0  0.55128406016E+02 -0.44797337851E+02  0.50301490279E+03  0.52318012496E+03  0.12509000000E+03 0.  0.
         25    1    4    4    0    0  0.37996325694E+02  0.10526062846E+02  0.29589808042E+03  0.32366294329E+03  0.12509000000E+03 0.  0.
<mgrwt>
<rscale>  2 0.46479933E+03</rscale>
<asrwt>0</asrwt>
<pdfrwt beam="1">  1       21 0.15564041E+00 0.46479933E+03</pdfrwt>
<pdfrwt beam="2">  1       21 0.75046563E-02 0.46479933E+03</pdfrwt>
<totfact> 0.32604205E+04</totfact>
</mgrwt>
</event>
<event>
 7    0  0.4788920E-002  0.4360057E+03  0.7546771E-02  0.1031979E+00
         21   -1    0    0  502  501  0.00000000000E+00  0.00000000000E+00  0.86814969084E+02  0.86814969084E+02  0.00000000000E+00 0. -1.
         21   -1    0    0  501  502 -0.00000000000E+00 -0.00000000000E+00 -0.54743141317E+03  0.54743141317E+03  0.00000000000E+00 0. -1.
      99926    2    1    2    0    0 -0.35527136788E-14  0.00000000000E+00 -0.46061644409E+03  0.63424638226E+03  0.43600569359E+03 0.  0.
      99925    2    3    3    0    0 -0.17215262824E+02  0.51481250788E+02 -0.18289258102E+03  0.32485223772E+03  0.26293078120E+03 0.  0.
         25    1    3    3    0    0  0.17215262824E+02 -0.51481250788E+02 -0.27772386306E+03  0.30939414453E+03  0.12509000000E+03 0.  0.
         25    1    4    4    0    0 -0.39812142192E+02  0.51969834563E+02 -0.90385584475E+02  0.16763929238E+03  0.12509000000E+03 0.  0.
         25    1    4    4    0    0  0.22596879368E+02 -0.48858377561E+00 -0.92506996550E+02  0.15721294534E+03  0.12509000000E+03 0.  0.
<mgrwt>
<rscale>  2 0.43600569E+03</rscale>
<asrwt>0</asrwt>
<pdfrwt beam="1">  1       21 0.12766907E-01 0.43600569E+03</pdfrwt>
<pdfrwt beam="2">  1       21 0.80504620E-01 0.43600569E+03</pdfrwt>
<totfact> 0.65963139E+04</totfact>
</mgrwt>
</event>
<event>
 7    0  0.4788920E-002  0.5066514E+03  0.7546771E-02  0.1012057E+00
         21   -1    0    0  502  501  0.00000000000E+00  0.00000000000E+00  0.95821192897E+02  0.95821192897E+02  0.00000000000E+00 0. -1.
         21   -1    0    0  501  502 -0.00000000000E+00 -0.00000000000E+00 -0.66972558869E+03  0.66972558869E+03  0.00000000000E+00 0. -1.
      99926    2    1    2    0    0  0.00000000000E+00  0.00000000000E+00 -0.57390439579E+03  0.76554678159E+03  0.50665137845E+03 0.  0.
      99925    2    3    3    0    0  0.12650655399E+03 -0.30689825273E+02 -0.21500373097E+03  0.36379689809E+03  0.26301293723E+03 0.  0.
         25    1    4    4    0    0  0.28359136724E+02 -0.80537030251E+01 -0.64919672731E+02  0.14398324477E+03  0.12509000000E+03 0.  0.
         25    1    3    3    0    0 -0.12650655399E+03  0.30689825273E+02 -0.35890066483E+03  0.40174988350E+03  0.12509000000E+03 0.  0.
         25    1    4    4    0    0  0.98147417268E+02 -0.22636122248E+02 -0.15008405824E+03  0.21981365331E+03  0.12509000000E+03 0.  0.
<mgrwt>
<rscale>  2 0.50665138E+03</rscale>
<asrwt>0</asrwt>
<pdfrwt beam="1">  1       21 0.14091352E-01 0.50665138E+03</pdfrwt>
<pdfrwt beam="2">  1       21 0.98489057E-01 0.50665138E+03</pdfrwt>
<totfact> 0.33614875E+04</totfact>
</mgrwt>
</event>
<event>
 7    0  0.4788920E-002  0.4547136E+03  0.7546771E-02  0.1026326E+00
         21   -1    0    0  502  501  0.00000000000E+00  0.00000000000E+00  0.14857768793E+03  0.14857768793E+03  0.00000000000E+00 0.  1.
         21   -1    0    0  501  502 -0.00000000000E+00 -0.00000000000E+00 -0.34790632840E+03  0.34790632840E+03  0.00000000000E+00 0.  1.
      99926    2    1    2    0    0  0.00000000000E+00 -0.71054273576E-14 -0.19932864047E+03  0.49648401633E+03  0.45471361488E+03 0.  0.
      99925    2    3    3    0    0 -0.10140306684E+03 -0.48469818321E+02 -0.11290426079E+03  0.30741104957E+03  0.26291115618E+03 0.  0.
         25    1    4    4    0    0 -0.36606268906E+02 -0.35586579627E+02 -0.94225421105E+02  0.16471903853E+03  0.12509000000E+03 0.  0.
         25    1    3    3    0    0  0.10140306684E+03  0.48469818321E+02 -0.86424379686E+02  0.18907296676E+03  0.12509000000E+03 0.  0.
         25    1    4    4    0    0 -0.64796797939E+02 -0.12883238694E+02 -0.18678839680E+02  0.14269201104E+03  0.12509000000E+03 0.  0.
<mgrwt>
<rscale>  2 0.45471361E+03</rscale>
<asrwt>0</asrwt>
<pdfrwt beam="1">  1       21 0.21849660E-01 0.45471361E+03</pdfrwt>
<pdfrwt beam="2">  1       21 0.51162695E-01 0.45471361E+03</pdfrwt>
<totfact> 0.65667543E+04</totfact>
</mgrwt>
</event>
<event>
 7    0  0.4788920E-002  0.4673728E+03  0.7546771E-02  0.1022664E+00
         21   -1    0    0  502  501  0.00000000000E+00  0.00000000000E+00  0.35565803727E+03  0.35565803727E+03  0.00000000000E+00 0.  1.
         21   -1    0    0  501  502 -0.00000000000E+00 -0.00000000000E+00 -0.15354447261E+03  0.15354447261E+03  0.00000000000E+00 0.  1.
      99926    2    1    2    0    0  0.00000000000E+00  0.35527136788E-14  0.20211356466E+03  0.50920250988E+03  0.46737276670E+03 0.  0.
      99925    2    3    3    0    0  0.35787719270E+02  0.20804979823E+02 -0.20328234819E+01  0.26622748251E+03  0.26298161920E+03 0.  0.
         25    1    4    4    0    0  0.11708625621E+02  0.38886560998E+02  0.27163657505E+02  0.13429307104E+03  0.12509000000E+03 0.  0.
         25    1    3    3    0    0 -0.35787719270E+02 -0.20804979823E+02  0.20414638814E+03  0.24297502737E+03  0.12509000000E+03 0.  0.
         25    1    4    4    0    0  0.24079093648E+02 -0.18081581174E+02 -0.29196480987E+02  0.13193441147E+03  0.12509000000E+03 0.  0.
<mgrwt>
<rscale>  2 0.46737277E+03</rscale>
<asrwt>0</asrwt>
<pdfrwt beam="1">  1       21 0.52302653E-01 0.46737277E+03</pdfrwt>
<pdfrwt beam="2">  1       21 0.22580069E-01 0.46737277E+03</pdfrwt>
<totfact> 0.58653304E+04</totfact>
</mgrwt>
</event>
<event>
 7    0  0.4788920E-002  0.4479300E+03  0.7546771E-02  0.1028341E+00
         21   -1    0    0  502  501  0.00000000000E+00  0.00000000000E+00  0.44258987609E+02  0.44258987609E+02  0.00000000000E+00 0.  1.
         21   -1    0    0  501  502 -0.00000000000E+00 -0.00000000000E+00 -0.11333364290E+04  0.11333364290E+04  0.00000000000E+00 0.  1.
      99926    2    1    2    0    0  0.00000000000E+00  0.00000000000E+00 -0.10890774413E+04  0.11775954166E+04  0.44793000777E+03 0.  0.
      99925    2    3    3    0    0 -0.19055480558E+02  0.15980125437E+02 -0.96180985770E+03  0.99742044134E+03  0.26296550856E+03 0.  0.
         25    1    3    3    0    0  0.19055480558E+02 -0.15980125437E+02 -0.12726758365E+03  0.18017497522E+03  0.12509000000E+03 0.  0.
         25    1    4    4    0    0 -0.40117084951E+02  0.33044323929E+02 -0.53041033409E+03  0.54743395808E+03  0.12509000000E+03 0.  0.
         25    1    4    4    0    0  0.21061604393E+02 -0.17064198492E+02 -0.43139952361E+03  0.44998648326E+03  0.12509000000E+03 0.  0.
<mgrwt>
<rscale>  2 0.44793001E+03</rscale>
<asrwt>0</asrwt>
<pdfrwt beam="1">  1       21 0.65086753E-02 0.44793001E+03</pdfrwt>
<pdfrwt beam="2">  1       21 0.16666711E+00 0.44793001E+03</pdfrwt>
<totfact> 0.34749366E+04</totfact>
</mgrwt>
</event>
<event>
 7    0  0.4788920E-002  0.4494965E+03  0.7546771E-02  0.1027872E+00
         21   -1    0    0  502  501  0.00000000000E+00  0.00000000000E+00  0.78913390625E+03  0.78913390625E+03  0.00000000000E+00 0. -1.
         21   -1    0    0  501  502 -0.00000000000E+00 -0.00000000000E+00 -0.64009117195E+02  0.64009117195E+02  0.00000000000E+00 0. -1.
      99926    2    1    2    0    0  0.71054273576E-14 -0.71054273576E-14  0.72512478905E+03  0.85314302344E+03  0.44949645021E+03 0.  0.
      99925    2    3    3    0    0  0.37031601216E+02 -0.36378190755E+02  0.27871676555E+03  0.38664292291E+03  0.26289732251E+03 0.  0.
         25    1    4    4    0    0  0.54018554302E+01 -0.21399516884E+02  0.19288472645E+03  0.23095269031E+03  0.12509000000E+03 0.  0.
         25    1    4    4    0    0  0.31629745786E+02 -0.14978673871E+02  0.85832039097E+02  0.15569023259E+03  0.12509000000E+03 0.  0.
         25    1    3    3    0    0 -0.37031601216E+02  0.36378190755E+02  0.44640802351E+03  0.46650010054E+03  0.12509000000E+03 0.  0.
<mgrwt>
<rscale>  2 0.44949645E+03</rscale>
<asrwt>0</asrwt>
<pdfrwt beam="1">  1       21 0.11604910E+00 0.44949645E+03</pdfrwt>
<pdfrwt beam="2">  1       21 0.94131060E-02 0.44949645E+03</pdfrwt>
<totfact> 0.47308610E+04</totfact>
</mgrwt>
</event>
<event>
 7    0  0.4788920E-002  0.4476432E+03  0.7546771E-02  0.1028427E+00
         21   -1    0    0  502  501  0.00000000000E+00  0.00000000000E+00  0.48385696062E+02  0.48385696062E+02  0.00000000000E+00 0. -1.
         21   -1    0    0  501  502 -0.00000000000E+00 -0.00000000000E+00 -0.10353496006E+04  0.10353496006E+04  0.00000000000E+00 0. -1.
      99926    2    1    2    0    0  0.71054273576E-14  0.00000000000E+00 -0.98696390458E+03  0.10837352967E+04  0.44764321103E+03 0.  0.
      99925    2    3    3    0    0 -0.45564870823E+02  0.19659202107E+02 -0.85237659610E+03  0.89340954074E+03  0.26300590149E+03 0.  0.
         25    1    4    4    0    0 -0.51196395288E+02 -0.25272475038E+01 -0.52707640056E+03  0.54413647001E+03  0.12509000000E+03 0.  0.
         25    1    4    4    0    0  0.56315244651E+01  0.22186449611E+02 -0.32530019554E+03  0.34927307072E+03  0.12509000000E+03 0.  0.
         25    1    3    3    0    0  0.45564870823E+02 -0.19659202107E+02 -0.13458730848E+03  0.19032575596E+03  0.12509000000E+03 0.  0.
<mgrwt>
<rscale>  2 0.44764321E+03</rscale>
<asrwt>0</asrwt>
<pdfrwt beam="1">  1       21 0.71155438E-02 0.44764321E+03</pdfrwt>
<pdfrwt beam="2">  1       21 0.15225729E+00 0.44764321E+03</pdfrwt>
<totfact> 0.38209942E+04</totfact>
</mgrwt>
</event>
<event>
 7    0  0.4788920E-002  0.4533354E+03  0.7546771E-02  0.1026732E+00
         21   -1    0    0  502  501  0.00000000000E+00  0.00000000000E+00  0.11206527229E+04  0.11206527229E+04  0.00000000000E+00 0.  1.
         21   -1    0    0  501  502 -0.00000000000E+00 -0.00000000000E+00 -0.45846712479E+02  0.45846712479E+02  0.00000000000E+00 0.  1.
      99926    2    1    2    0    0 -0.35527136788E-14  0.00000000000E+00  0.10748060105E+04  0.11664994354E+04  0.45333538656E+03 0.  0.
      99925    2    3    3    0    0 -0.27650823903E+02 -0.46416283994E+02  0.92833093595E+03  0.96644570505E+03  0.26324880756E+03 0.  0.
         25    1    3    3    0    0  0.27650823903E+02  0.46416283994E+02  0.14647507451E+03  0.20005373037E+03  0.12509000000E+03 0.  0.
         25    1    4    4    0    0  0.26812783070E+02 -0.15958733051E+02  0.45160546249E+03  0.46964732337E+03  0.12509000000E+03 0.  0.
         25    1    4    4    0    0 -0.54463606973E+02 -0.30457550943E+02  0.47672547347E+03  0.49679838169E+03  0.12509000000E+03 0.  0.
<mgrwt>
<rscale>  2 0.45333539E+03</rscale>
<asrwt>0</asrwt>
<pdfrwt beam="1">  1       21 0.16480185E+00 0.45333539E+03</pdfrwt>
<pdfrwt beam="2">  1       21 0.67421644E-02 0.45333539E+03</pdfrwt>
<totfact> 0.33670882E+04</totfact>
</mgrwt>
</event>
<event>
 7    0  0.4788920E-002  0.4516735E+03  0.7546771E-02  0.1027224E+00
         21   -1    0    0  502  501  0.00000000000E+00  0.00000000000E+00  0.81878208981E+03  0.81878208981E+03  0.00000000000E+00 0.  1.
         21   -1    0    0  501  502 -0.00000000000E+00 -0.00000000000E+00 -0.62290376806E+02  0.62290376806E+02  0.00000000000E+00 0.  1.
      99926    2    1    2    0    0 -0.71054273576E-14  0.00000000000E+00  0.75649171301E+03  0.88107246662E+03  0.45167353208E+03 0.  0.
      99925    2    3    3    0    0  0.58975999706E+02  0.82122573071E+02  0.56202964325E+03  0.62871302015E+03  0.26302177906E+03 0.  0.
         25    1    4    4    0    0  0.30381363326E+01  0.18971367465E+02  0.20232520841E+03  0.23864647728E+03  0.12509000000E+03 0.  0.
         25    1    3    3    0    0 -0.58975999706E+02 -0.82122573071E+02  0.19446206976E+03  0.25235944647E+03  0.12509000000E+03 0.  0.
         25    1    4    4    0    0  0.55937863373E+02  0.63151205606E+02  0.35970443483E+03  0.39006654287E+03  0.12509000000E+03 0.  0.
<mgrwt>
<rscale>  2 0.45167353E+03</rscale>
<asrwt>0</asrwt>
<pdfrwt beam="1">  1       21 0.12040912E+00 0.45167353E+03</pdfrwt>
<pdfrwt beam="2">  1       21 0.91603500E-02 0.45167353E+03</pdfrwt>
<totfact> 0.45229041E+04</totfact>
</mgrwt>
</event>
<event>
 7    0  0.4788920E-002  0.4246642E+03  0.7546771E-02  0.1035559E+00
         21   -1    0    0  502  501  0.00000000000E+00  0.00000000000E+00  0.54429309439E+02  0.54429309439E+02  0.00000000000E+00 0. -1.
         21   -1    0    0  501  502 -0.00000000000E+00 -0.00000000000E+00 -0.82832059228E+03  0.82832059228E+03  0.00000000000E+00 0. -1.
      99926    2    1    2    0    0 -0.35527136788E-14  0.71054273576E-14 -0.77389128284E+03  0.88274990172E+03  0.42466418654E+03 0.  0.
      99925    2    3    3    0    0 -0.20670202769E+02  0.36389666566E+02 -0.35622492570E+03  0.44474972010E+03  0.26297271858E+03 0.  0.
         25    1    4    4    0    0 -0.20309973256E+02  0.36113741862E+01 -0.23740436839E+03  0.26913542923E+03  0.12509000000E+03 0.  0.
         25    1    3    3    0    0  0.20670202769E+02 -0.36389666566E+02 -0.41766635714E+03  0.43800018162E+03  0.12509000000E+03 0.  0.
         25    1    4    4    0    0 -0.36022951318E+00  0.32778292380E+02 -0.11882055732E+03  0.17561429087E+03  0.12509000000E+03 0.  0.
<mgrwt>
<rscale>  2 0.42466419E+03</rscale>
<asrwt>0</asrwt>
<pdfrwt beam="1">  1       21 0.80043105E-02 0.42466419E+03</pdfrwt>
<pdfrwt beam="2">  1       21 0.12181185E+00 0.42466419E+03</pdfrwt>
<totfact> 0.56190292E+04</totfact>
</mgrwt>
</event>
<event>
 7    0  0.4788920E-002  0.4686811E+03  0.7546771E-02  0.1022293E+00
         21   -1    0    0  502  501  0.00000000000E+00  0.00000000000E+00  0.10010467597E+03  0.10010467597E+03  0.00000000000E+00 0. -1.
         21   -1    0    0  501  502 -0.00000000000E+00 -0.00000000000E+00 -0.54858078028E+03  0.54858078028E+03  0.00000000000E+00 0. -1.
      99926    2    1    2    0    0  0.00000000000E+00  0.00000000000E+00 -0.44847610430E+03  0.64868545625E+03  0.46868113363E+03 0.  0.
      99925    2    3    3    0    0 -0.18810435095E+02 -0.73643619580E+02 -0.41729012463E+03  0.49902821920E+03  0.26290853974E+03 0.  0.
         25    1    3    3    0    0  0.18810435095E+02  0.73643619580E+02 -0.31185979676E+02  0.14965723705E+03  0.12509000000E+03 0.  0.
         25    1    4    4    0    0 -0.13197616666E+02 -0.56877951459E+00 -0.15796448462E+03  0.20192767788E+03  0.12509000000E+03 0.  0.
         25    1    4    4    0    0 -0.56128184293E+01 -0.73074840065E+02 -0.25932564001E+03  0.29710054131E+03  0.12509000000E+03 0.  0.
<mgrwt>
<rscale>  2 0.46868113E+03</rscale>
<asrwt>0</asrwt>
<pdfrwt beam="1">  1       21 0.14721275E-01 0.46868113E+03</pdfrwt>
<pdfrwt beam="2">  1       21 0.80673646E-01 0.46868113E+03</pdfrwt>
<totfact> 0.50141453E+04</totfact>
</mgrwt>
</event>
<event>
 7    0  0.4788920E-002  0.4530514E+03  0.7546771E-02  0.1026816E+00
         21   -1    0    0  502  501  0.00000000000E+00  0.00000000000E+00  0.92383214622E+02  0.92383214622E+02  0.00000000000E+00 0. -1.
         21   -1    0    0  501  502 -0.00000000000E+00 -0.00000000000E+00 -0.55544615862E+03  0.55544615862E+03  0.00000000000E+00 0. -1.
      99926    2    1    2    0    0  0.00000000000E+00  0.00000000000E+00 -0.46306294400E+03  0.64782937324E+03  0.45305143939E+03 0.  0.
      99925    2    3    3    0    0 -0.61937066983E+02 -0.52399670097E+02 -0.18290712839E+03  0.33047040486E+03  0.26300902110E+03 0.  0.
         25    1    3    3    0    0  0.61937066983E+02  0.52399670097E+02 -0.28015581561E+03  0.31735896839E+03  0.12509000000E+03 0.  0.
         25    1    4    4    0    0 -0.62011701395E+02 -0.51380627527E+02 -0.11569779964E+03  0.18846460924E+03  0.12509000000E+03 0.  0.
         25    1    4    4    0    0  0.74634411974E-01 -0.10190425701E+01 -0.67209328743E+02  0.14200579561E+03  0.12509000000E+03 0.  0.
<mgrwt>
<rscale>  2 0.45305144E+03</rscale>
<asrwt>0</asrwt>
<pdfrwt beam="1">  1       21 0.13585767E-01 0.45305144E+03</pdfrwt>
<pdfrwt beam="2">  1       21 0.81683258E-01 0.45305144E+03</pdfrwt>
<totfact> 0.56693241E+04</totfact>
</mgrwt>
</event>
<event>
 7    0  0.4788920E-002  0.4831060E+03  0.7546771E-02  0.1018285E+00
         21   -1    0    0  502  501  0.00000000000E+00  0.00000000000E+00  0.43120838003E+03  0.43120838003E+03  0.00000000000E+00 0.  1.
         21   -1    0    0  501  502 -0.00000000000E+00 -0.00000000000E+00 -0.13531240926E+03  0.13531240926E+03  0.00000000000E+00 0.  1.
      99926    2    1    2    0    0 -0.35527136788E-14  0.00000000000E+00  0.29589597077E+03  0.56652078930E+03  0.48310597097E+03 0.  0.
      99925    2    3    3    0    0  0.25531842002E+02  0.13244965820E+02  0.23863884520E+02  0.26572805647E+03  0.26308669851E+03 0.  0.
         25    1    3    3    0    0 -0.25531842002E+02 -0.13244965820E+02  0.27203208625E+03  0.30079273283E+03  0.12509000000E+03 0.  0.
         25    1    4    4    0    0  0.48375581373E+02 -0.12964927099E+02  0.89063947693E+01  0.13503746952E+03  0.12509000000E+03 0.  0.
         25    1    4    4    0    0 -0.22843739370E+02  0.26209892919E+02  0.14957489751E+02  0.13069058694E+03  0.12509000000E+03 0.  0.
<mgrwt>
<rscale>  2 0.48310597E+03</rscale>
<asrwt>0</asrwt>
<pdfrwt beam="1">  1       21 0.63412997E-01 0.48310597E+03</pdfrwt>
<pdfrwt beam="2">  1       21 0.19898884E-01 0.48310597E+03</pdfrwt>
<totfact> 0.48956730E+04</totfact>
</mgrwt>
</event>
<event>
 7    0  0.4788920E-002  0.4531059E+03  0.7546771E-02  0.1026800E+00
         21   -1    0    0  502  501  0.00000000000E+00  0.00000000000E+00  0.23298321923E+03  0.23298321923E+03  0.00000000000E+00 0. -1.
         21   -1    0    0  501  502 -0.00000000000E+00 -0.00000000000E+00 -0.22030016581E+03  0.22030016581E+03  0.00000000000E+00 0. -1.
      99926    2    1    2    0    0  0.00000000000E+00  0.00000000000E+00  0.12683053418E+02  0.45328338503E+03  0.45310591180E+03 0.  0.
      99925    2    3    3    0    0 -0.27626943853E+02  0.10628937137E+02  0.11544434289E+03  0.28871238806E+03  0.26296620388E+03 0.  0.
         25    1    3    3    0    0  0.27626943853E+02 -0.10628937137E+02 -0.10276128947E+03  0.16457099697E+03  0.12509000000E+03 0.  0.
         25    1    4    4    0    0 -0.27499301782E+02  0.20164318730E+02  0.96971321651E+02  0.16190662948E+03  0.12509000000E+03 0.  0.
         25    1    4    4    0    0 -0.12764207123E+00 -0.95353815930E+01  0.18473021235E+02  0.12680575858E+03  0.12509000000E+03 0.  0.
<mgrwt>
<rscale>  2 0.45310591E+03</rscale>
<asrwt>0</asrwt>
<pdfrwt beam="1">  1       21 0.34262238E-01 0.45310591E+03</pdfrwt>
<pdfrwt beam="2">  1       21 0.32397083E-01 0.45310591E+03</pdfrwt>
<totfact> 0.69719455E+04</totfact>
</mgrwt>
</event>
<event>
 7    0  0.4788920E-002  0.4546931E+03  0.7546771E-02  0.1026332E+00
         21   -1    0    0  502  501  0.00000000000E+00  0.00000000000E+00  0.11075411975E+04  0.11075411975E+04  0.00000000000E+00 0. -1.
         21   -1    0    0  501  502 -0.00000000000E+00 -0.00000000000E+00 -0.46667742194E+02  0.46667742194E+02  0.00000000000E+00 0. -1.
      99926    2    1    2    0    0  0.00000000000E+00  0.00000000000E+00  0.10608734553E+04  0.11542089397E+04  0.45469307043E+03 0.  0.
      99925    2    3    3    0    0  0.38503629977E+02 -0.94826823371E+02  0.54654791863E+03  0.61508657721E+03  0.26294907141E+03 0.  0.
         25    1    3    3    0    0 -0.38503629977E+02  0.94826823371E+02  0.51432553669E+03  0.53912236249E+03  0.12509000000E+03 0.  0.
         25    1    4    4    0    0  0.27761613684E+02 -0.92786838803E+01  0.28497270711E+03  0.31259199137E+03  0.12509000000E+03 0.  0.
         25    1    4    4    0    0  0.10742016293E+02 -0.85548139490E+02  0.26157521152E+03  0.30249458585E+03  0.12509000000E+03 0.  0.
<mgrwt>
<rscale>  2 0.45469307E+03</rscale>
<asrwt>0</asrwt>
<pdfrwt beam="1">  1       21 0.16287369E+00 0.45469307E+03</pdfrwt>
<pdfrwt beam="2">  1       21 0.68629040E-02 0.45469307E+03</pdfrwt>
<totfact> 0.33722744E+04</totfact>
</mgrwt>
</event>
<event>
 7    0  0.4788920E-002  0.4387293E+03  0.7546771E-02  0.1031137E+00
         21   -1    0    0  502  501  0.00000000000E+00  0.00000000000E+00  0.41620423251E+03  0.41620423251E+03  0.00000000000E+00 0. -1.
         21   -1    0    0  501  502 -0.00000000000E+00 -0.00000000000E+00 -0.11561833612E+03  0.11561833612E+03  0.00000000000E+00 0. -1.
      99926    2    1    2    0    0 -0.71054273576E-14  0.35527136788E-14  0.30058589639E+03  0.53182256863E+03  0.43872925978E+03 0.  0.
      99925    2    3    3    0    0  0.55714985259E+02 -0.17124419557E+02  0.28614067582E+03  0.39306530638E+03  0.26310918531E+03 0.  0.
         25    1    4    4    0    0  0.65131784828E+02  0.91273121565E+01  0.15059618949E+03  0.20652403640E+03  0.12509000000E+03 0.  0.
         25    1    4    4    0    0 -0.94167995696E+01 -0.26251731714E+02  0.13554448634E+03  0.18654126999E+03  0.12509000000E+03 0.  0.
         25    1    3    3    0    0 -0.55714985259E+02  0.17124419557E+02  0.14445220567E+02  0.13875726224E+03  0.12509000000E+03 0.  0.
<mgrwt>
<rscale>  2 0.43872926E+03</rscale>
<asrwt>0</asrwt>
<pdfrwt beam="1">  1       21 0.61206504E-01 0.43872926E+03</pdfrwt>
<pdfrwt beam="2">  1       21 0.17002697E-01 0.43872926E+03</pdfrwt>
<totfact> 0.71906902E+04</totfact>
</mgrwt>
</event>
<event>
 7    0  0.4788920E-002  0.4512174E+03  0.7546771E-02  0.1027360E+00
         21   -1    0    0  502  501  0.00000000000E+00  0.00000000000E+00  0.12974981344E+03  0.12974981344E+03  0.00000000000E+00 0. -1.
         21   -1    0    0  501  502 -0.00000000000E+00 -0.00000000000E+00 -0.39228788261E+03  0.39228788261E+03  0.00000000000E+00 0. -1.
      99926    2    1    2    0    0 -0.14210854715E-13 -0.22204460493E-15 -0.26253806918E+03  0.52203769605E+03  0.45121737371E+03 0.  0.
      99925    2    3    3    0    0 -0.10412060419E+03  0.10463220735E+01 -0.20521777686E+03  0.34948243239E+03  0.26302364837E+03 0.  0.
         25    1    4    4    0    0 -0.15231638308E+02 -0.64360113215E+01 -0.67212147736E+02  0.14296295307E+03  0.12509000000E+03 0.  0.
         25    1    4    4    0    0 -0.88888965883E+02  0.74823333950E+01 -0.13800562912E+03  0.20651947932E+03  0.12509000000E+03 0.  0.
         25    1    3    3    0    0  0.10412060419E+03 -0.10463220735E+01 -0.57320292317E+02  0.17255526366E+03  0.12509000000E+03 0.  0.
<mgrwt>
<rscale>  2 0.45121737E+03</rscale>
<asrwt>0</asrwt>
<pdfrwt beam="1">  1       21 0.19080855E-01 0.45121737E+03</pdfrwt>
<pdfrwt beam="2">  1       21 0.57689394E-01 0.45121737E+03</pdfrwt>
<totfact> 0.65696745E+04</totfact>
</mgrwt>
</event>
<event>
 7    0  0.4788920E-002  0.4580773E+03  0.7546771E-02  0.1025340E+00
         21   -1    0    0  502  501  0.00000000000E+00  0.00000000000E+00  0.29224816347E+03  0.29224816347E+03  0.00000000000E+00 0.  1.
         21   -1    0    0  501  502 -0.00000000000E+00 -0.00000000000E+00 -0.17950055962E+03  0.17950055962E+03  0.00000000000E+00 0.  1.
      99926    2    1    2    0    0  0.00000000000E+00  0.44408920985E-15  0.11274760385E+03  0.47174872309E+03  0.45807732488E+03 0.  0.
      99925    2    3    3    0    0 -0.20434454182E+02  0.13026795192E+01 -0.46857697377E+02  0.26793355150E+03  0.26300851759E+03 0.  0.
         25    1    3    3    0    0  0.20434454182E+02 -0.13026795192E+01  0.15960530123E+03  0.20381517159E+03  0.12509000000E+03 0.  0.
         25    1    4    4    0    0  0.19431747698E+02 -0.12874972605E+02  0.16490352427E+01  0.12725401823E+03  0.12509000000E+03 0.  0.
         25    1    4    4    0    0 -0.39866201879E+02  0.14177652124E+02 -0.48506732619E+02  0.14067953327E+03  0.12509000000E+03 0.  0.
<mgrwt>
<rscale>  2 0.45807732E+03</rscale>
<asrwt>0</asrwt>
<pdfrwt beam="1">  1       21 0.42977671E-01 0.45807732E+03</pdfrwt>
<pdfrwt beam="2">  1       21 0.26397141E-01 0.45807732E+03</pdfrwt>
<totfact> 0.65687635E+04</totfact>
</mgrwt>
</event>
<event>
 7    0  0.4788920E-002  0.4510186E+03  0.7546771E-02  0.1027419E+00
         21   -1    0    0  502  501  0.00000000000E+00  0.00000000000E+00  0.26458174465E+03  0.26458174465E+03  0.00000000000E+00 0.  1.
         21   -1    0    0  501  502 -0.00000000000E+00 -0.00000000000E+00 -0.19220696496E+03  0.19220696496E+03  0.00000000000E+00 0.  1.
      99926    2    1    2    0    0  0.00000000000E+00 -0.14210854715E-13  0.72374779688E+02  0.45678870960E+03  0.45101864317E+03 0.  0.
      99925    2    3    3    0    0  0.41142913009E+02  0.10096579045E+03  0.55004983678E+02  0.28994732371E+03  0.26297732253E+03 0.  0.
         25    1    3    3    0    0 -0.41142913009E+02 -0.10096579045E+03  0.17369796010E+02  0.16684138589E+03  0.12509000000E+03 0.  0.
         25    1    4    4    0    0 -0.19774583740E+02  0.43495744393E+02  0.31851197422E+02  0.13764054933E+03  0.12509000000E+03 0.  0.
         25    1    4    4    0    0  0.60917496750E+02  0.57470046061E+02  0.23153786257E+02  0.15230677438E+03  0.12509000000E+03 0.  0.
<mgrwt>
<rscale>  2 0.45101864E+03</rscale>
<asrwt>0</asrwt>
<pdfrwt beam="1">  1       21 0.38909080E-01 0.45101864E+03</pdfrwt>
<pdfrwt beam="2">  1       21 0.28265730E-01 0.45101864E+03</pdfrwt>
<totfact> 0.70631198E+04</totfact>
</mgrwt>
</event>
<event>
 7    0  0.4788920E-002  0.4613759E+03  0.7546771E-02  0.1024383E+00
         21   -1    0    0  502  501  0.00000000000E+00  0.00000000000E+00  0.58496150238E+03  0.58496150238E+03  0.00000000000E+00 0.  1.
         21   -1    0    0  501  502 -0.00000000000E+00 -0.00000000000E+00 -0.90975085457E+02  0.90975085457E+02  0.00000000000E+00 0.  1.
      99926    2    1    2    0    0  0.16653345369E-15  0.14210854715E-13  0.49398641692E+03  0.67593658784E+03  0.46137586702E+03 0.  0.
      99925    2    3    3    0    0  0.22147792622E+00 -0.11618526309E+03  0.27091259036E+03  0.39503001153E+03  0.26297531060E+03 0.  0.
         25    1    4    4    0    0 -0.61398121336E+01 -0.15225071199E+02  0.13021200187E+03  0.18130684934E+03  0.12509000000E+03 0.  0.
         25    1    3    3    0    0 -0.22147792622E+00  0.11618526309E+03  0.22307382656E+03  0.28090657630E+03  0.12509000000E+03 0.  0.
         25    1    4    4    0    0  0.63612900598E+01 -0.10096019189E+03  0.14070058848E+03  0.21372316219E+03  0.12509000000E+03 0.  0.
<mgrwt>
<rscale>  2 0.46137587E+03</rscale>
<asrwt>0</asrwt>
<pdfrwt beam="1">  1       21 0.86023748E-01 0.46137587E+03</pdfrwt>
<pdfrwt beam="2">  1       21 0.13378689E-01 0.46137587E+03</pdfrwt>
<totfact> 0.51587689E+04</totfact>
</mgrwt>
</event>
<event>
 7    0  0.4788920E-002  0.4392349E+03  0.7546771E-02  0.1030982E+00
         21   -1    0    0  502  501  0.00000000000E+00  0.00000000000E+00  0.20889261843E+03  0.20889261843E+03  0.00000000000E+00 0.  1.
         21   -1    0    0  501  502 -0.00000000000E+00 -0.00000000000E+00 -0.23089292710E+03  0.23089292710E+03  0.00000000000E+00 0.  1.
      99926    2    1    2    0    0  0.00000000000E+00  0.35527136788E-14 -0.22000308673E+02  0.43978554553E+03  0.43923491719E+03 0.  0.
      99925    2    3    3    0    0 -0.86271845234E+02 -0.21767289071E+02  0.26160316486E+02  0.27890173631E+03  0.26303074004E+03 0.  0.
         25    1    3    3    0    0  0.86271845234E+02  0.21767289071E+02 -0.48160625159E+02  0.16088380922E+03  0.12509000000E+03 0.  0.
         25    1    4    4    0    0 -0.88595624708E+01 -0.33741179076E+02  0.17738654532E+02  0.13106916868E+03  0.12509000000E+03 0.  0.
         25    1    4    4    0    0 -0.77412282763E+02  0.11973890005E+02  0.84216619542E+01  0.14783256764E+03  0.12509000000E+03 0.  0.
<mgrwt>
<rscale>  2 0.43923492E+03</rscale>
<asrwt>0</asrwt>
<pdfrwt beam="1">  1       21 0.30719503E-01 0.43923492E+03</pdfrwt>
<pdfrwt beam="2">  1       21 0.33954842E-01 0.43923492E+03</pdfrwt>
<totfact> 0.79175434E+04</totfact>
</mgrwt>
</event>
<event>
 7    0  0.4788920E-002  0.4220955E+03  0.7546771E-02  0.1036386E+00
         21   -1    0    0  502  501  0.00000000000E+00  0.00000000000E+00  0.29445700141E+02  0.29445700141E+02  0.00000000000E+00 0. -1.
         21   -1    0    0  501  502 -0.00000000000E+00 -0.00000000000E+00 -0.15126538748E+04  0.15126538748E+04  0.00000000000E+00 0. -1.
      99926    2    1    2    0    0  0.71054273576E-14 -0.71054273576E-14 -0.14832081746E+04  0.15420995749E+04  0.42209549826E+03 0.  0.
      99925    2    3    3    0    0 -0.48105138903E+02  0.59677796722E+02 -0.90629010871E+03  0.94682022310E+03  0.26311828122E+03 0.  0.
         25    1    4    4    0    0 -0.34899315729E+02  0.10449150486E+01 -0.34519448631E+03  0.36881675065E+03  0.12509000000E+03 0.  0.
         25    1    3    3    0    0  0.48105138903E+02 -0.59677796722E+02 -0.57691806594E+03  0.59527935183E+03  0.12509000000E+03 0.  0.
         25    1    4    4    0    0 -0.13205823174E+02  0.58632881673E+02 -0.56109562240E+03  0.57800347244E+03  0.12509000000E+03 0.  0.
<mgrwt>
<rscale>  2 0.42209550E+03</rscale>
<asrwt>0</asrwt>
<pdfrwt beam="1">  1       21 0.43302509E-02 0.42209550E+03</pdfrwt>
<pdfrwt beam="2">  1       21 0.22244905E+00 0.42209550E+03</pdfrwt>
<totfact> 0.29650306E+04</totfact>
</mgrwt>
</event>
<event>
 7    0  0.4788920E-002  0.4557239E+03  0.7546771E-02  0.1026029E+00
         21   -1    0    0  502  501  0.00000000000E+00  0.00000000000E+00  0.80300520078E+03  0.80300520078E+03  0.00000000000E+00 0.  1.
         21   -1    0    0  501  502 -0.00000000000E+00 -0.00000000000E+00 -0.64658444335E+02  0.64658444335E+02  0.00000000000E+00 0.  1.
      99926    2    1    2    0    0  0.17763568394E-14  0.00000000000E+00  0.73834675644E+03  0.86766364511E+03  0.45572389481E+03 0.  0.
      99925    2    3    3    0    0  0.15195985510E+02 -0.59532687745E+02  0.64675017852E+03  0.70089284409E+03  0.26303978140E+03 0.  0.
         25    1    4    4    0    0  0.25711542938E+02  0.64871256995E+01  0.28724041822E+03  0.31441649480E+03  0.12509000000E+03 0.  0.
         25    1    4    4    0    0 -0.10515557427E+02 -0.66019813444E+02  0.35950976030E+03  0.38647634929E+03  0.12509000000E+03 0.  0.
         25    1    3    3    0    0 -0.15195985510E+02  0.59532687745E+02  0.91596577921E+02  0.16677080102E+03  0.12509000000E+03 0.  0.
<mgrwt>
<rscale>  2 0.45572389E+03</rscale>
<asrwt>0</asrwt>
<pdfrwt beam="1">  1       21 0.11808899E+00 0.45572389E+03</pdfrwt>
<pdfrwt beam="2">  1       21 0.95085953E-02 0.45572389E+03</pdfrwt>
<totfact> 0.44406493E+04</totfact>
</mgrwt>
</event>
<event>
 7    0  0.4788920E-002  0.4588818E+03  0.7546771E-02  0.1025106E+00
         21   -1    0    0  502  501  0.00000000000E+00  0.00000000000E+00  0.17276185004E+04  0.17276185004E+04  0.00000000000E+00 0. -1.
         21   -1    0    0  501  502 -0.00000000000E+00 -0.00000000000E+00 -0.30471503254E+02  0.30471503254E+02  0.00000000000E+00 0. -1.
      99926    2    1    2    0    0 -0.35527136788E-14  0.00000000000E+00  0.16971469972E+04  0.17580900037E+04  0.45888182687E+03 0.  0.
      99925    2    3    3    0    0 -0.27995278370E+02 -0.64022574952E+02  0.70643154084E+03  0.75706690243E+03  0.26310102081E+03 0.  0.
         25    1    4    4    0    0 -0.89050890798E+01 -0.28234645049E+02  0.46148140959E+03  0.47905020122E+03  0.12509000000E+03 0.  0.
         25    1    3    3    0    0  0.27995278370E+02  0.64022574952E+02  0.99071545635E+03  0.10010231013E+04  0.12509000000E+03 0.  0.
         25    1    4    4    0    0 -0.19090189290E+02 -0.35787929903E+02  0.24495013125E+03  0.27801670121E+03  0.12509000000E+03 0.  0.
<mgrwt>
<rscale>  2 0.45888183E+03</rscale>
<asrwt>0</asrwt>
<pdfrwt beam="1">  1       21 0.25406148E+00 0.45888183E+03</pdfrwt>
<pdfrwt beam="2">  1       21 0.44811046E-02 0.45888183E+03</pdfrwt>
<totfact> 0.17544133E+04</totfact>
</mgrwt>
</event>
<event>
 7    0  0.4788920E-002  0.4557326E+03  0.7546771E-02  0.1026026E+00
         21   -1    0    0  502  501  0.00000000000E+00  0.00000000000E+00  0.87612942445E+02  0.87612942445E+02  0.00000000000E+00 0.  1.
         21   -1    0    0  501  502 -0.00000000000E+00 -0.00000000000E+00 -0.59264129246E+03  0.59264129246E+03  0.00000000000E+00 0.  1.
      99926    2    1    2    0    0  0.00000000000E+00  0.00000000000E+00 -0.50502835001E+03  0.68025423491E+03  0.45573258583E+03 0.  0.
      99925    2    3    3    0    0 -0.48374003232E+02  0.93156169617E+02 -0.38270588999E+03  0.47622382429E+03  0.26326263782E+03 0.  0.
         25    1    4    4    0    0 -0.58893400528E+02  0.72496353795E+02 -0.20513273983E+03  0.25778111450E+03  0.12509000000E+03 0.  0.
         25    1    3    3    0    0  0.48374003232E+02 -0.93156169617E+02 -0.12232246003E+03  0.20403041061E+03  0.12509000000E+03 0.  0.
         25    1    4    4    0    0  0.10519397296E+02  0.20659815822E+02 -0.17757315015E+03  0.21844270980E+03  0.12509000000E+03 0.  0.
<mgrwt>
<rscale>  2 0.45573259E+03</rscale>
<asrwt>0</asrwt>
<pdfrwt beam="1">  1       21 0.12884256E-01 0.45573259E+03</pdfrwt>
<pdfrwt beam="2">  1       21 0.87153133E-01 0.45573259E+03</pdfrwt>
<totfact> 0.53678289E+04</totfact>
</mgrwt>
</event>
<event>
 7    0  0.4788920E-002  0.4565398E+03  0.7546771E-02  0.1025790E+00
         21   -1    0    0  502  501  0.00000000000E+00  0.00000000000E+00  0.69963296091E+02  0.69963296091E+02  0.00000000000E+00 0.  1.
         21   -1    0    0  501  502 -0.00000000000E+00 -0.00000000000E+00 -0.74477836766E+03  0.74477836766E+03  0.00000000000E+00 0.  1.
      99926    2    1    2    0    0  0.00000000000E+00  0.00000000000E+00 -0.67481507157E+03  0.81474166375E+03  0.45653980969E+03 0.  0.
      99925    2    3    3    0    0  0.44795035953E+02 -0.10558066446E+03 -0.42600130296E+03  0.51356120041E+03  0.26289565322E+03 0.  0.
         25    1    4    4    0    0  0.22435275383E+02 -0.17172413451E+02 -0.15215545873E+03  0.19899001253E+03  0.12509000000E+03 0.  0.
         25    1    4    4    0    0  0.22359760570E+02 -0.88408251005E+02 -0.27384584423E+03  0.31457118787E+03  0.12509000000E+03 0.  0.
         25    1    3    3    0    0 -0.44795035953E+02  0.10558066446E+03 -0.24881376861E+03  0.30118046335E+03  0.12509000000E+03 0.  0.
<mgrwt>
<rscale>  2 0.45653981E+03</rscale>
<asrwt>0</asrwt>
<pdfrwt beam="1">  1       21 0.10288720E-01 0.45653981E+03</pdfrwt>
<pdfrwt beam="2">  1       21 0.10952623E+00 0.45653981E+03</pdfrwt>
<totfact> 0.46495679E+04</totfact>
</mgrwt>
</event>
<event>
 7    0  0.4788920E-002  0.4612440E+03  0.7546771E-02  0.1024421E+00
         21   -1    0    0  502  501  0.00000000000E+00  0.00000000000E+00  0.17980605942E+03  0.17980605942E+03  0.00000000000E+00 0. -1.
         21   -1    0    0  501  502 -0.00000000000E+00 -0.00000000000E+00 -0.29579927843E+03  0.29579927843E+03  0.00000000000E+00 0. -1.
      99926    2    1    2    0    0  0.00000000000E+00  0.00000000000E+00 -0.11599321900E+03  0.47560533785E+03  0.46124398157E+03 0.  0.
      99925    2    3    3    0    0 -0.78600661179E+02  0.84641988137E+02 -0.10163631789E+03  0.30473708801E+03  0.26304452399E+03 0.  0.
         25    1    3    3    0    0  0.78600661179E+02 -0.84641988137E+02 -0.14356901114E+02  0.17086824984E+03  0.12509000000E+03 0.  0.
         25    1    4    4    0    0 -0.30400029642E+02  0.65587569066E+00 -0.37979412956E+02  0.13421823976E+03  0.12509000000E+03 0.  0.
         25    1    4    4    0    0 -0.48200631537E+02  0.83986112446E+02 -0.63656904934E+02  0.17051884825E+03  0.12509000000E+03 0.  0.
<mgrwt>
<rscale>  2 0.46124398E+03</rscale>
<asrwt>0</asrwt>
<pdfrwt beam="1">  1       21 0.26442068E-01 0.46124398E+03</pdfrwt>
<pdfrwt beam="2">  1       21 0.43499894E-01 0.46124398E+03</pdfrwt>
<totfact> 0.63801572E+04</totfact>
</mgrwt>
</event>
<event>
 7    0  0.4788920E-002  0.4531299E+03  0.7546771E-02  0.1026793E+00
         21   -1    0    0  502  501  0.00000000000E+00  0.00000000000E+00  0.18614915296E+03  0.18614915296E+03  0.00000000000E+00 0. -1.
         21   -1    0    0  501  502 -0.00000000000E+00 -0.00000000000E+00 -0.27575562643E+03  0.27575562643E+03  0.00000000000E+00 0. -1.
      99926    2    1    2    0    0  0.44408920985E-15 -0.14210854715E-13 -0.89606473472E+02  0.46190477940E+03  0.45312989875E+03 0.  0.
      99925    2    3    3    0    0  0.23730309248E+01  0.10131098865E+03 -0.10336361353E+03  0.30033029286E+03  0.26314387796E+03 0.  0.
         25    1    4    4    0    0 -0.81058995714E+01  0.93056229443E+02 -0.60465470039E+02  0.16741788618E+03  0.12509000000E+03 0.  0.
         25    1    4    4    0    0  0.10478930496E+02  0.82547592109E+01 -0.42898143489E+02  0.13291240668E+03  0.12509000000E+03 0.  0.
         25    1    3    3    0    0 -0.23730309248E+01 -0.10131098865E+03  0.13757140056E+02  0.16157448654E+03  0.12509000000E+03 0.  0.
<mgrwt>
<rscale>  2 0.45312990E+03</rscale>
<asrwt>0</asrwt>
<pdfrwt beam="1">  1       21 0.27374876E-01 0.45312990E+03</pdfrwt>
<pdfrwt beam="2">  1       21 0.40552298E-01 0.45312990E+03</pdfrwt>
<totfact> 0.69061567E+04</totfact>
</mgrwt>
</event>
<event>
 7    0  0.4788920E-002  0.4539103E+03  0.7546771E-02  0.1026562E+00
         21   -1    0    0  502  501  0.00000000000E+00  0.00000000000E+00  0.13646105776E+03  0.13646105776E+03  0.00000000000E+00 0.  1.
         21   -1    0    0  501  502 -0.00000000000E+00 -0.00000000000E+00 -0.37746036320E+03  0.37746036320E+03  0.00000000000E+00 0.  1.
      99926    2    1    2    0    0  0.00000000000E+00  0.00000000000E+00 -0.24099930544E+03  0.51392142096E+03  0.45391030138E+03 0.  0.
      99925    2    3    3    0    0  0.82761518769E+02  0.55226965027E+02 -0.93068754150E+02  0.29613610750E+03  0.26293595134E+03 0.  0.
         25    1    4    4    0    0  0.67120017971E+02  0.48911410507E+02 -0.23396338073E+02  0.15196157286E+03  0.12509000000E+03 0.  0.
         25    1    4    4    0    0  0.15641500797E+02  0.63155545200E+01 -0.69672416078E+02  0.14417453464E+03  0.12509000000E+03 0.  0.
         25    1    3    3    0    0 -0.82761518769E+02 -0.55226965027E+02 -0.14793055129E+03  0.21778531346E+03  0.12509000000E+03 0.  0.
<mgrwt>
<rscale>  2 0.45391030E+03</rscale>
<asrwt>0</asrwt>
<pdfrwt beam="1">  1       21 0.20067802E-01 0.45391030E+03</pdfrwt>
<pdfrwt beam="2">  1       21 0.55508877E-01 0.45391030E+03</pdfrwt>
<totfact> 0.64862346E+04</totfact>
</mgrwt>
</event>
<event>
 7    0  0.4788920E-002  0.4579121E+03  0.7546771E-02  0.1025389E+00
         21   -1    0    0  502  501  0.00000000000E+00  0.00000000000E+00  0.32835415264E+03  0.32835415264E+03  0.00000000000E+00 0.  1.
         21   -1    0    0  501  502 -0.00000000000E+00 -0.00000000000E+00 -0.15964736641E+03  0.15964736641E+03  0.00000000000E+00 0.  1.
      99926    2    1    2    0    0  0.00000000000E+00  0.17763568394E-14  0.16870678623E+03  0.48800151904E+03  0.45791211260E+03 0.  0.
      99925    2    3    3    0    0 -0.10018854347E+03  0.14335564728E+02  0.16611006910E+03  0.32707450547E+03  0.26294852047E+03 0.  0.
         25    1    4    4    0    0 -0.92878894491E+01  0.32555044809E+01  0.89690057595E+02  0.15423578616E+03  0.12509000000E+03 0.  0.
         25    1    3    3    0    0  0.10018854347E+03 -0.14335564728E+02  0.25967171328E+01  0.16092701357E+03  0.12509000000E+03 0.  0.
         25    1    4    4    0    0 -0.90900654018E+02  0.11080060247E+02  0.76420011502E+02  0.17283871931E+03  0.12509000000E+03 0.  0.
<mgrwt>
<rscale>  2 0.45791211E+03</rscale>
<asrwt>0</asrwt>
<pdfrwt beam="1">  1       21 0.48287375E-01 0.45791211E+03</pdfrwt>
<pdfrwt beam="2">  1       21 0.23477554E-01 0.45791211E+03</pdfrwt>
<totfact> 0.64615369E+04</totfact>
</mgrwt>
</event>
<event>
 7    0  0.4788920E-002  0.4597811E+03  0.7546771E-02  0.1024845E+00
         21   -1    0    0  502  501  0.00000000000E+00  0.00000000000E+00  0.59896098378E+02  0.59896098378E+02  0.00000000000E+00 0. -1.
         21   -1    0    0  501  502 -0.00000000000E+00 -0.00000000000E+00 -0.88235552805E+03  0.88235552805E+03  0.00000000000E+00 0. -1.
      99926    2    1    2    0    0 -0.71054273576E-14  0.00000000000E+00 -0.82245942967E+03  0.94225162642E+03  0.45978105012E+03 0.  0.
      99925    2    3    3    0    0 -0.44298631435E+02  0.99308428033E+02 -0.60722097422E+03  0.67059074696E+03  0.26296407693E+03 0.  0.
         25    1    3    3    0    0  0.44298631435E+02 -0.99308428033E+02 -0.21523845545E+03  0.27166087946E+03  0.12509000000E+03 0.  0.
         25    1    4    4    0    0 -0.87066526272E+01  0.88488813857E+02 -0.30665757858E+03  0.34291756237E+03  0.12509000000E+03 0.  0.
         25    1    4    4    0    0 -0.35591978808E+02  0.10819614176E+02 -0.30056339564E+03  0.32767318460E+03  0.12509000000E+03 0.  0.
<mgrwt>
<rscale>  2 0.45978105E+03</rscale>
<asrwt>0</asrwt>
<pdfrwt beam="1">  1       21 0.88082503E-02 0.45978105E+03</pdfrwt>
<pdfrwt beam="2">  1       21 0.12975816E+00 0.45978105E+03</pdfrwt>
<totfact> 0.39941676E+04</totfact>
</mgrwt>
</event>
<event>
 7    0  0.4788920E-002  0.4559864E+03  0.7546771E-02  0.1025952E+00
         21   -1    0    0  502  501  0.00000000000E+00  0.00000000000E+00  0.69333787710E+03  0.69333787710E+03  0.00000000000E+00 0.  1.
         21   -1    0    0  501  502 -0.00000000000E+00 -0.00000000000E+00 -0.74971957680E+02  0.74971957680E+02  0.00000000000E+00 0.  1.
      99926    2    1    2    0    0  0.00000000000E+00  0.71054273576E-14  0.61836591942E+03  0.76830983478E+03  0.45598639444E+03 0.  0.
      99925    2    3    3    0    0  0.10100527931E+03  0.37769594211E+02  0.45118048236E+03  0.53330539405E+03  0.26310113449E+03 0.  0.
         25    1    4    4    0    0  0.49516985658E+02 -0.19640653460E+02  0.24362136679E+03  0.27899205292E+03  0.12509000000E+03 0.  0.
         25    1    3    3    0    0 -0.10100527931E+03 -0.37769594211E+02  0.16718543706E+03  0.23500444073E+03  0.12509000000E+03 0.  0.
         25    1    4    4    0    0  0.51488293654E+02  0.57410247670E+02  0.20755911557E+03  0.25431334113E+03  0.12509000000E+03 0.  0.
<mgrwt>
<rscale>  2 0.45598639E+03</rscale>
<asrwt>0</asrwt>
<pdfrwt beam="1">  1       21 0.10196145E+00 0.45598639E+03</pdfrwt>
<pdfrwt beam="2">  1       21 0.11025288E-01 0.45598639E+03</pdfrwt>
<totfact> 0.48955539E+04</totfact>
</mgrwt>
</event>
<event>
 7    0  0.4788920E-002  0.4027882E+03  0.7546771E-02  0.1042818E+00
         21   -1    0    0  502  501  0.00000000000E+00  0.00000000000E+00  0.12216461714E+04  0.12216461714E+04  0.00000000000E+00 0. -1.
         21   -1    0    0  501  502 -0.00000000000E+00 -0.00000000000E+00 -0.33200769901E+02  0.33200769901E+02  0.00000000000E+00 0. -1.
      99926    2    1    2    0    0 -0.88817841970E-15  0.00000000000E+00  0.11884454015E+04  0.12548469413E+04  0.40278824926E+03 0.  0.
      99925    2    3    3    0    0 -0.33330626491E+01  0.40080174764E+01  0.94507260783E+03  0.98115916607E+03  0.26359799237E+03 0.  0.
         25    1    3    3    0    0  0.33330626491E+01 -0.40080174764E+01  0.24337279365E+03  0.27368777521E+03  0.12509000000E+03 0.  0.
         25    1    4    4    0    0 -0.88511983577E+01  0.54189430110E+01  0.62468090130E+03  0.63716673266E+03  0.12509000000E+03 0.  0.
         25    1    4    4    0    0  0.55181357086E+01 -0.14109255346E+01  0.32039170653E+03  0.34399243341E+03  0.12509000000E+03 0.  0.
<mgrwt>
<rscale>  2 0.40278825E+03</rscale>
<asrwt>0</asrwt>
<pdfrwt beam="1">  1       21 0.17965382E+00 0.40278825E+03</pdfrwt>
<pdfrwt beam="2">  1       21 0.48824670E-02 0.40278825E+03</pdfrwt>
<totfact> 0.46757722E+04</totfact>
</mgrwt>
</event>
<event>
 7    0  0.4788920E-002  0.4529635E+03  0.7546771E-02  0.1026842E+00
         21   -1    0    0  502  501  0.00000000000E+00  0.00000000000E+00  0.13288276764E+03  0.13288276764E+03  0.00000000000E+00 0. -1.
         21   -1    0    0  501  502 -0.00000000000E+00 -0.00000000000E+00 -0.38600923970E+03  0.38600923970E+03  0.00000000000E+00 0. -1.
      99926    2    1    2    0    0  0.14210854715E-13  0.00000000000E+00 -0.25312647206E+03  0.51889200734E+03  0.45296346919E+03 0.  0.
      99925    2    3    3    0    0 -0.93691174135E+02  0.33830878035E+02 -0.10277934869E+03  0.29940549289E+03  0.26297811741E+03 0.  0.
         25    1    4    4    0    0 -0.63604045519E+02  0.54334678075E+02 -0.63494710906E+02  0.16333039601E+03  0.12509000000E+03 0.  0.
         25    1    4    4    0    0 -0.30087128617E+02 -0.20503800040E+02 -0.39284637779E+02  0.13607509688E+03  0.12509000000E+03 0.  0.
         25    1    3    3    0    0  0.93691174135E+02 -0.33830878035E+02 -0.15034712337E+03  0.21948651445E+03  0.12509000000E+03 0.  0.
<mgrwt>
<rscale>  2 0.45296347E+03</rscale>
<asrwt>0</asrwt>
<pdfrwt beam="1">  1       21 0.19541583E-01 0.45296347E+03</pdfrwt>
<pdfrwt beam="2">  1       21 0.56766066E-01 0.45296347E+03</pdfrwt>
<totfact> 0.65006821E+04</totfact>
</mgrwt>
</event>
<event>
 7    0  0.4788920E-002  0.4659268E+03  0.7546771E-02  0.1023076E+00
         21   -1    0    0  502  501  0.00000000000E+00  0.00000000000E+00  0.69195440145E+02  0.69195440145E+02  0.00000000000E+00 0.  1.
         21   -1    0    0  501  502 -0.00000000000E+00 -0.00000000000E+00 -0.78432849249E+03  0.78432849249E+03  0.00000000000E+00 0.  1.
      99926    2    1    2    0    0  0.00000000000E+00  0.14210854715E-13 -0.71513305234E+03  0.85352393264E+03  0.46592684085E+03 0.  0.
      99925    2    3    3    0    0  0.62816058958E+02 -0.81308700860E+02 -0.32149974775E+03  0.42790479692E+03  0.26302749919E+03 0.  0.
         25    1    4    4    0    0  0.93961497434E+01 -0.55257169907E+02 -0.11323018835E+03  0.17779264920E+03  0.12509000000E+03 0.  0.
         25    1    3    3    0    0 -0.62816058958E+02  0.81308700860E+02 -0.39363330460E+03  0.42561913571E+03  0.12509000000E+03 0.  0.
         25    1    4    4    0    0  0.53419909215E+02 -0.26051530953E+02 -0.20826955940E+03  0.25011214772E+03  0.12509000000E+03 0.  0.
<mgrwt>
<rscale>  2 0.46592684E+03</rscale>
<asrwt>0</asrwt>
<pdfrwt beam="1">  1       21 0.10175800E-01 0.46592684E+03</pdfrwt>
<pdfrwt beam="2">  1       21 0.11534243E+00 0.46592684E+03</pdfrwt>
<totfact> 0.41600087E+04</totfact>
</mgrwt>
</event>
<event>
 7    0  0.4788920E-002  0.4528405E+03  0.7546771E-02  0.1026878E+00
         21   -1    0    0  502  501  0.00000000000E+00  0.00000000000E+00  0.20146108985E+03  0.20146108985E+03  0.00000000000E+00 0.  1.
         21   -1    0    0  501  502 -0.00000000000E+00 -0.00000000000E+00 -0.25447162683E+03  0.25447162683E+03  0.00000000000E+00 0.  1.
      99926    2    1    2    0    0  0.00000000000E+00  0.17763568394E-14 -0.53010536974E+02  0.45593271668E+03  0.45284050736E+03 0.  0.
      99925    2    3    3    0    0  0.55729776700E+02  0.13340228355E+02 -0.12884098543E+03  0.29882913710E+03  0.26346742484E+03 0.  0.
         25    1    3    3    0    0 -0.55729776700E+02 -0.13340228355E+02  0.75830448452E+02  0.15710357958E+03  0.12509000000E+03 0.  0.
         25    1    4    4    0    0 -0.43515797222E+01  0.13609089876E+02 -0.32927608756E+02  0.13013792334E+03  0.12509000000E+03 0.  0.
         25    1    4    4    0    0  0.60081356422E+02 -0.26886152074E+00 -0.95913376670E+02  0.16869121376E+03  0.12509000000E+03 0.  0.
<mgrwt>
<rscale>  2 0.45284051E+03</rscale>
<asrwt>0</asrwt>
<pdfrwt beam="1">  1       21 0.29626631E-01 0.45284051E+03</pdfrwt>
<pdfrwt beam="2">  1       21 0.37422298E-01 0.45284051E+03</pdfrwt>
<totfact> 0.69670072E+04</totfact>
</mgrwt>
</event>
<event>
 7    0  0.4788920E-002  0.4499928E+03  0.7546771E-02  0.1027724E+00
         21   -1    0    0  502  501  0.00000000000E+00  0.00000000000E+00  0.62104644816E+03  0.62104644816E+03  0.00000000000E+00 0.  1.
         21   -1    0    0  501  502 -0.00000000000E+00 -0.00000000000E+00 -0.81513042132E+02  0.81513042132E+02  0.00000000000E+00 0.  1.
      99926    2    1    2    0    0  0.00000000000E+00  0.00000000000E+00  0.53953340603E+03  0.70255949029E+03  0.44999282347E+03 0.  0.
      99925    2    3    3    0    0 -0.45971157789E+02 -0.95974263599E+02  0.37314170587E+03  0.46876874496E+03  0.26303041073E+03 0.  0.
         25    1    3    3    0    0  0.45971157789E+02  0.95974263599E+02  0.16639170016E+03  0.23379074533E+03  0.12509000000E+03 0.  0.
         25    1    4    4    0    0 -0.20872157423E+02 -0.72981120373E+02  0.25166667048E+03  0.29111082429E+03  0.12509000000E+03 0.  0.
         25    1    4    4    0    0 -0.25099000366E+02 -0.22993143226E+02  0.12147503540E+03  0.17765792068E+03  0.12509000000E+03 0.  0.
<mgrwt>
<rscale>  2 0.44999282E+03</rscale>
<asrwt>0</asrwt>
<pdfrwt beam="1">  1       21 0.91330358E-01 0.44999282E+03</pdfrwt>
<pdfrwt beam="2">  1       21 0.11987212E-01 0.44999282E+03</pdfrwt>
<totfact> 0.54895447E+04</totfact>
</mgrwt>
</event>
<event>
 7    0  0.4788920E-002  0.4269356E+03  0.7546771E-02  0.1034832E+00
         21   -1    0    0  502  501  0.00000000000E+00  0.00000000000E+00  0.46480869953E+03  0.46480869953E+03  0.00000000000E+00 0.  1.
         21   -1    0    0  501  502 -0.00000000000E+00 -0.00000000000E+00 -0.98037123907E+02  0.98037123907E+02  0.00000000000E+00 0.  1.
      99926    2    1    2    0    0  0.00000000000E+00 -0.71054273576E-14  0.36677157562E+03  0.56284582344E+03  0.42693563013E+03 0.  0.
      99925    2    3    3    0    0 -0.60657951079E+02  0.39315023682E+02  0.29421386100E+03  0.40117582570E+03  0.26297374205E+03 0.  0.
         25    1    4    4    0    0 -0.14727250493E+02  0.55576363065E+02  0.13347761407E+03  0.19175350218E+03  0.12509000000E+03 0.  0.
         25    1    4    4    0    0 -0.45930700586E+02 -0.16261339382E+02  0.16073624692E+03  0.20942232352E+03  0.12509000000E+03 0.  0.
         25    1    3    3    0    0  0.60657951079E+02 -0.39315023682E+02  0.72557714626E+02  0.16166999774E+03  0.12509000000E+03 0.  0.
<mgrwt>
<rscale>  2 0.42693563E+03</rscale>
<asrwt>0</asrwt>
<pdfrwt beam="1">  1       21 0.68354220E-01 0.42693563E+03</pdfrwt>
<pdfrwt beam="2">  1       21 0.14417224E-01 0.42693563E+03</pdfrwt>
<totfact> 0.76680060E+04</totfact>
</mgrwt>
</event>
<event>
 7    0  0.4788920E-002  0.4539074E+03  0.7546771E-02  0.1026563E+00
         21   -1    0    0  502  501  0.00000000000E+00  0.00000000000E+00  0.31804442780E+03  0.31804442780E+03  0.00000000000E+00 0.  1.
         21   -1    0    0  501  502 -0.00000000000E+00 -0.00000000000E+00 -0.16195213994E+03  0.16195213994E+03  0.00000000000E+00 0.  1.
      99926    2    1    2    0    0 -0.88817841970E-15  0.00000000000E+00  0.15609228786E+03  0.47999656774E+03  0.45390737240E+03 0.  0.
      99925    2    3    3    0    0  0.32428711041E+01  0.68267113775E+02  0.42515655267E+01  0.27173224508E+03  0.26296277716E+03 0.  0.
         25    1    4    4    0    0  0.22427975534E+02  0.64286283356E+02  0.21197082601E+02  0.14398807147E+03  0.12509000000E+03 0.  0.
         25    1    3    3    0    0 -0.32428711041E+01 -0.68267113775E+02  0.15184072233E+03  0.20826432266E+03  0.12509000000E+03 0.  0.
         25    1    4    4    0    0 -0.19185104430E+02  0.39808304184E+01 -0.16945517075E+02  0.12774417361E+03  0.12509000000E+03 0.  0.
<mgrwt>
<rscale>  2 0.45390737E+03</rscale>
<asrwt>0</asrwt>
<pdfrwt beam="1">  1       21 0.46771239E-01 0.45390737E+03</pdfrwt>
<pdfrwt beam="2">  1       21 0.23816491E-01 0.45390737E+03</pdfrwt>
<totfact> 0.67281983E+04</totfact>
</mgrwt>
</event>
<event>
 7    0  0.4788920E-002  0.4528049E+03  0.7546771E-02  0.1026889E+00
         21   -1    0    0  502  501  0.00000000000E+00  0.00000000000E+00  0.25449932802E+04  0.25449932802E+04  0.00000000000E+00 0.  1.
         21   -1    0    0  501  502 -0.00000000000E+00 -0.00000000000E+00 -0.20140746825E+02  0.20140746825E+02  0.00000000000E+00 0.  1.
      99926    2    1    2    0    0  0.00000000000E+00  0.35527136788E-14  0.25248525334E+04  0.25651340271E+04  0.45280488217E+03 0.  0.
      99925    2    3    3    0    0  0.94425091347E+02  0.23407288933E+02  0.18949704789E+04  0.19156242813E+04  0.26313356385E+03 0.  0.
         25    1    3    3    0    0 -0.94425091347E+02 -0.23407288933E+02  0.62988205453E+03  0.64950974571E+03  0.12509000000E+03 0.  0.
         25    1    4    4    0    0  0.62939847126E+02  0.46864587439E+02  0.89588189033E+03  0.90797003444E+03  0.12509000000E+03 0.  0.
         25    1    4    4    0    0  0.31485244221E+02 -0.23457298505E+02  0.99908858854E+03  0.10076542469E+04  0.12509000000E+03 0.  0.
<mgrwt>
<rscale>  2 0.45280488E+03</rscale>
<asrwt>0</asrwt>
<pdfrwt beam="1">  1       21 0.37426350E+00 0.45280488E+03</pdfrwt>
<pdfrwt beam="2">  1       21 0.29618763E-02 0.45280488E+03</pdfrwt>
<totfact> 0.66001155E+03</totfact>
</mgrwt>
</event>
<event>
 7    0  0.4788920E-002  0.4549101E+03  0.7546771E-02  0.1026268E+00
         21   -1    0    0  502  501  0.00000000000E+00  0.00000000000E+00  0.11998682135E+03  0.11998682135E+03  0.00000000000E+00 0. -1.
         21   -1    0    0  501  502 -0.00000000000E+00 -0.00000000000E+00 -0.43117900605E+03  0.43117900605E+03  0.00000000000E+00 0. -1.
      99926    2    1    2    0    0  0.17763568394E-14 -0.14210854715E-13 -0.31119218469E+03  0.55116582740E+03  0.45491009384E+03 0.  0.
      99925    2    3    3    0    0  0.13515869601E+02 -0.60722893170E+02 -0.81493878193E+02  0.28231871733E+03  0.26304497236E+03 0.  0.
         25    1    4    4    0    0 -0.12805989405E+02  0.57306284082E+01 -0.30783893269E+02  0.12958390969E+03  0.12509000000E+03 0.  0.
         25    1    4    4    0    0  0.26321859006E+02 -0.66453521579E+02 -0.50709984925E+02  0.15273480763E+03  0.12509000000E+03 0.  0.
         25    1    3    3    0    0 -0.13515869601E+02  0.60722893170E+02 -0.22969830650E+03  0.26884711007E+03  0.12509000000E+03 0.  0.
<mgrwt>
<rscale>  2 0.45491009E+03</rscale>
<asrwt>0</asrwt>
<pdfrwt beam="1">  1       21 0.17645121E-01 0.45491009E+03</pdfrwt>
<pdfrwt beam="2">  1       21 0.63408678E-01 0.45491009E+03</pdfrwt>
<totfact> 0.61833509E+04</totfact>
</mgrwt>
</event>
<event>
 7    0  0.4788920E-002  0.4593454E+03  0.7546771E-02  0.1024971E+00
         21   -1    0    0  502  501  0.00000000000E+00  0.00000000000E+00  0.26032822016E+03  0.26032822016E+03  0.00000000000E+00 0.  1.
         21   -1    0    0  501  502 -0.00000000000E+00 -0.00000000000E+00 -0.20262707396E+03  0.20262707396E+03  0.00000000000E+00 0.  1.
      99926    2    1    2    0    0 -0.14210854715E-13 -0.35527136788E-14  0.57701146200E+02  0.46295529412E+03  0.45934538431E+03 0.  0.
      99925    2    3    3    0    0  0.10859586469E+03 -0.18796626935E+02  0.76365971307E+02  0.29519874788E+03  0.26299080623E+03 0.  0.
         25    1    4    4    0    0  0.25012070111E+02 -0.31897404283E+02  0.55591669460E+02  0.14276200427E+03  0.12509000000E+03 0.  0.
         25    1    4    4    0    0  0.83583794578E+02  0.13100777348E+02  0.20774301847E+02  0.15243674360E+03  0.12509000000E+03 0.  0.
         25    1    3    3    0    0 -0.10859586469E+03  0.18796626935E+02 -0.18664825107E+02  0.16775654624E+03  0.12509000000E+03 0.  0.
<mgrwt>
<rscale>  2 0.45934538E+03</rscale>
<asrwt>0</asrwt>
<pdfrwt beam="1">  1       21 0.38283562E-01 0.45934538E+03</pdfrwt>
<pdfrwt beam="2">  1       21 0.29798099E-01 0.45934538E+03</pdfrwt>
<totfact> 0.65660625E+04</totfact>
</mgrwt>
</event>
<event>
 7    0  0.4788920E-002  0.4542912E+03  0.7546771E-02  0.1026450E+00
         21   -1    0    0  502  501  0.00000000000E+00  0.00000000000E+00  0.55997868322E+02  0.55997868322E+02  0.00000000000E+00 0.  1.
         21   -1    0    0  501  502 -0.00000000000E+00 -0.00000000000E+00 -0.92137662420E+03  0.92137662420E+03  0.00000000000E+00 0.  1.
      99926    2    1    2    0    0  0.00000000000E+00  0.00000000000E+00 -0.86537875588E+03  0.97737449252E+03  0.45429121443E+03 0.  0.
      99925    2    3    3    0    0 -0.53765450078E+02  0.40869185113E+02 -0.73862490554E+03  0.78691436392E+03  0.26288105891E+03 0.  0.
         25    1    4    4    0    0 -0.18603241063E+02  0.65650070115E+01 -0.46695068939E+03  0.48381776974E+03  0.12509000000E+03 0.  0.
         25    1    4    4    0    0 -0.35162209015E+02  0.34304178102E+02 -0.27167421615E+03  0.30309659417E+03  0.12509000000E+03 0.  0.
         25    1    3    3    0    0  0.53765450078E+02 -0.40869185113E+02 -0.12675385034E+03  0.19046012861E+03  0.12509000000E+03 0.  0.
<mgrwt>
<rscale>  2 0.45429121E+03</rscale>
<asrwt>0</asrwt>
<pdfrwt beam="1">  1       21 0.82349816E-02 0.45429121E+03</pdfrwt>
<pdfrwt beam="2">  1       21 0.13549655E+00 0.45429121E+03</pdfrwt>
<totfact> 0.40274379E+04</totfact>
</mgrwt>
</event>
<event>
 7    0  0.4788920E-002  0.4547318E+03  0.7546771E-02  0.1026320E+00
         21   -1    0    0  502  501  0.00000000000E+00  0.00000000000E+00  0.82383283097E+03  0.82383283097E+03  0.00000000000E+00 0.  1.
         21   -1    0    0  501  502 -0.00000000000E+00 -0.00000000000E+00 -0.62749675955E+02  0.62749675955E+02  0.00000000000E+00 0.  1.
      99926    2    1    2    0    0  0.00000000000E+00  0.17763568394E-14  0.76108315501E+03  0.88658250693E+03  0.45473175910E+03 0.  0.
      99925    2    3    3    0    0 -0.10865704986E+03  0.87382224255E+01  0.53221319068E+03  0.60389596729E+03  0.26373613321E+03 0.  0.
         25    1    4    4    0    0 -0.11696406837E+02 -0.96052168941E+01  0.22965849626E+03  0.26195342931E+03  0.12509000000E+03 0.  0.
         25    1    4    4    0    0 -0.96960643028E+02  0.18343439320E+02  0.30255469442E+03  0.34194253798E+03  0.12509000000E+03 0.  0.
         25    1    3    3    0    0  0.10865704986E+03 -0.87382224255E+01  0.22886996434E+03  0.28268653964E+03  0.12509000000E+03 0.  0.
<mgrwt>
<rscale>  2 0.45473176E+03</rscale>
<asrwt>0</asrwt>
<pdfrwt beam="1">  1       21 0.12115188E+00 0.45473176E+03</pdfrwt>
<pdfrwt beam="2">  1       21 0.92278940E-02 0.45473176E+03</pdfrwt>
<totfact> 0.43911079E+04</totfact>
</mgrwt>
</event>
<event>
 7    0  0.4788920E-002  0.4459379E+03  0.7546771E-02  0.1028940E+00
         21   -1    0    0  502  501  0.00000000000E+00  0.00000000000E+00  0.66487274466E+02  0.66487274466E+02  0.00000000000E+00 0. -1.
         21   -1    0    0  501  502 -0.00000000000E+00 -0.00000000000E+00 -0.74773952437E+03  0.74773952437E+03  0.00000000000E+00 0. -1.
      99926    2    1    2    0    0  0.71054273576E-14  0.00000000000E+00 -0.68125224990E+03  0.81422679883E+03  0.44593794629E+03 0.  0.
      99925    2    3    3    0    0 -0.51599899069E+02 -0.30005237324E+02 -0.58880486953E+03  0.64762280702E+03  0.26298528844E+03 0.  0.
         25    1    3    3    0    0  0.51599899069E+02  0.30005237324E+02 -0.92447380368E+02  0.16660399181E+03  0.12509000000E+03 0.  0.
         25    1    4    4    0    0 -0.44622971461E+02 -0.43761085019E+02 -0.25514092867E+03  0.29094783678E+03  0.12509000000E+03 0.  0.
         25    1    4    4    0    0 -0.69769276084E+01  0.13755847695E+02 -0.33366394086E+03  0.35667497024E+03  0.12509000000E+03 0.  0.
<mgrwt>
<rscale>  2 0.44593795E+03</rscale>
<asrwt>0</asrwt>
<pdfrwt beam="1">  1       21 0.97775409E-02 0.44593795E+03</pdfrwt>
<pdfrwt beam="2">  1       21 0.10996169E+00 0.44593795E+03</pdfrwt>
<totfact> 0.50586804E+04</totfact>
</mgrwt>
</event>
<event>
 7    0  0.4788920E-002  0.4731493E+03  0.7546771E-02  0.1021035E+00
         21   -1    0    0  502  501  0.00000000000E+00  0.00000000000E+00  0.10901306461E+03  0.10901306461E+03  0.00000000000E+00 0.  1.
         21   -1    0    0  501  502 -0.00000000000E+00 -0.00000000000E+00 -0.51340231459E+03  0.51340231459E+03  0.00000000000E+00 0.  1.
      99926    2    1    2    0    0  0.00000000000E+00  0.00000000000E+00 -0.40438924998E+03  0.62241537920E+03  0.47314927746E+03 0.  0.
      99925    2    3    3    0    0 -0.10227359296E+03 -0.42362158109E+02 -0.16347103663E+03  0.32925410297E+03  0.26349771203E+03 0.  0.
         25    1    4    4    0    0 -0.38854022118E+02  0.18807626322E+02 -0.85250004795E+02  0.15741166812E+03  0.12509000000E+03 0.  0.
         25    1    4    4    0    0 -0.63419570841E+02 -0.61169784431E+02 -0.78221031840E+02  0.17184243485E+03  0.12509000000E+03 0.  0.
         25    1    3    3    0    0  0.10227359296E+03  0.42362158109E+02 -0.24091821335E+03  0.29316127623E+03  0.12509000000E+03 0.  0.
<mgrwt>
<rscale>  2 0.47314928E+03</rscale>
<asrwt>0</asrwt>
<pdfrwt beam="1">  1       21 0.16031333E-01 0.47314928E+03</pdfrwt>
<pdfrwt beam="2">  1       21 0.75500340E-01 0.47314928E+03</pdfrwt>
<totfact> 0.49790229E+04</totfact>
</mgrwt>
</event>
<event>
 7    0  0.4788920E-002  0.4565986E+03  0.7546771E-02  0.1025772E+00
         21   -1    0    0  502  501  0.00000000000E+00  0.00000000000E+00  0.11645398788E+03  0.11645398788E+03  0.00000000000E+00 0.  1.
         21   -1    0    0  501  502 -0.00000000000E+00 -0.00000000000E+00 -0.44756366676E+03  0.44756366676E+03  0.00000000000E+00 0.  1.
      99926    2    1    2    0    0 -0.71054273576E-14  0.00000000000E+00 -0.33110967887E+03  0.56401765464E+03  0.45659861509E+03 0.  0.
      99925    2    3    3    0    0  0.36252718735E+02 -0.10788017481E+03 -0.21843072915E+03  0.36080238567E+03  0.26365505179E+03 0.  0.
         25    1    3    3    0    0 -0.36252718735E+02  0.10788017481E+03 -0.11267894972E+03  0.20321526897E+03  0.12509000000E+03 0.  0.
         25    1    4    4    0    0  0.49627441507E+02 -0.26708479195E+02 -0.11201966552E+03  0.17712182072E+03  0.12509000000E+03 0.  0.
         25    1    4    4    0    0 -0.13374722773E+02 -0.81171695614E+02 -0.10641106363E+03  0.18368056495E+03  0.12509000000E+03 0.  0.
<mgrwt>
<rscale>  2 0.45659862E+03</rscale>
<asrwt>0</asrwt>
<pdfrwt beam="1">  1       21 0.17125586E-01 0.45659862E+03</pdfrwt>
<pdfrwt beam="2">  1       21 0.65818187E-01 0.45659862E+03</pdfrwt>
<totfact> 0.60185036E+04</totfact>
</mgrwt>
</event>
<event>
 7    0  0.4788920E-002  0.4710787E+03  0.7546771E-02  0.1021616E+00
         21   -1    0    0  502  501  0.00000000000E+00  0.00000000000E+00  0.32727173441E+03  0.32727173441E+03  0.00000000000E+00 0. -1.
         21   -1    0    0  501  502 -0.00000000000E+00 -0.00000000000E+00 -0.16951900808E+03  0.16951900808E+03  0.00000000000E+00 0. -1.
      99926    2    1    2    0    0  0.00000000000E+00  0.00000000000E+00  0.15775272632E+03  0.49679074249E+03  0.47107867619E+03 0.  0.
      99925    2    3    3    0    0 -0.55467431885E+02 -0.68391827180E+02  0.19539312247E+03  0.33925222165E+03  0.26298197573E+03 0.  0.
         25    1    4    4    0    0 -0.62314129048E+02 -0.55968360873E+02  0.92760223406E+02  0.17682611584E+03  0.12509000000E+03 0.  0.
         25    1    3    3    0    0  0.55467431885E+02  0.68391827180E+02 -0.37640396151E+02  0.15753852084E+03  0.12509000000E+03 0.  0.
         25    1    4    4    0    0  0.68466971627E+01 -0.12423466307E+02  0.10263289907E+03  0.16242610581E+03  0.12509000000E+03 0.  0.
<mgrwt>
<rscale>  2 0.47107868E+03</rscale>
<asrwt>0</asrwt>
<pdfrwt beam="1">  1       21 0.48128196E-01 0.47107868E+03</pdfrwt>
<pdfrwt beam="2">  1       21 0.24929266E-01 0.47107868E+03</pdfrwt>
<totfact> 0.57764134E+04</totfact>
</mgrwt>
</event>
<event>
 7    0  0.4788920E-002  0.4546565E+03  0.7546771E-02  0.1026342E+00
         21   -1    0    0  502  501  0.00000000000E+00  0.00000000000E+00  0.98863759619E+03  0.98863759619E+03  0.00000000000E+00 0. -1.
         21   -1    0    0  501  502 -0.00000000000E+00 -0.00000000000E+00 -0.52272076919E+02  0.52272076919E+02  0.00000000000E+00 0. -1.
      99926    2    1    2    0    0  0.71054273576E-14  0.14210854715E-13  0.93636551927E+03  0.10409096731E+04  0.45465653178E+03 0.  0.
      99925    2    3    3    0    0 -0.42460204817E+02 -0.82064823039E+02  0.44106605961E+03  0.52176945408E+03  0.26299541840E+03 0.  0.
         25    1    4    4    0    0 -0.38206166013E+02 -0.71140656587E+02  0.19354985786E+03  0.24419205499E+03  0.12509000000E+03 0.  0.
         25    1    3    3    0    0  0.42460204817E+02  0.82064823039E+02  0.49529945966E+03  0.51914021903E+03  0.12509000000E+03 0.  0.
         25    1    4    4    0    0 -0.42540388036E+01 -0.10924166451E+02  0.24751620175E+03  0.27757739909E+03  0.12509000000E+03 0.  0.
<mgrwt>
<rscale>  2 0.45465653E+03</rscale>
<asrwt>0</asrwt>
<pdfrwt beam="1">  1       21 0.14538787E+00 0.45465653E+03</pdfrwt>
<pdfrwt beam="2">  1       21 0.76870708E-02 0.45465653E+03</pdfrwt>
<totfact> 0.37713737E+04</totfact>
</mgrwt>
</event>
<event>
 7    0  0.4788920E-002  0.4553903E+03  0.7546771E-02  0.1026127E+00
         21   -1    0    0  502  501  0.00000000000E+00  0.00000000000E+00  0.81882167702E+03  0.81882167702E+03  0.00000000000E+00 0.  1.
         21   -1    0    0  501  502 -0.00000000000E+00 -0.00000000000E+00 -0.63316688715E+02  0.63316688715E+02  0.00000000000E+00 0.  1.
      99926    2    1    2    0    0  0.35527136788E-14  0.14210854715E-13  0.75550498831E+03  0.88213836574E+03  0.45539028201E+03 0.  0.
      99925    2    3    3    0    0  0.31351448015E+02  0.73315196362E+02  0.63183814541E+03  0.68900880445E+03  0.26297463624E+03 0.  0.
         25    1    4    4    0    0  0.25201153809E+02  0.25363165275E+02  0.21677916904E+03  0.25282227856E+03  0.12509000000E+03 0.  0.
         25    1    3    3    0    0 -0.31351448015E+02 -0.73315196362E+02  0.12366684290E+03  0.19312956128E+03  0.12509000000E+03 0.  0.
         25    1    4    4    0    0  0.61502942069E+01  0.47952031086E+02  0.41505897637E+03  0.43618652590E+03  0.12509000000E+03 0.  0.
<mgrwt>
<rscale>  2 0.45539028E+03</rscale>
<asrwt>0</asrwt>
<pdfrwt beam="1">  1       21 0.12041495E+00 0.45539028E+03</pdfrwt>
<pdfrwt beam="2">  1       21 0.93112782E-02 0.45539028E+03</pdfrwt>
<totfact> 0.43880723E+04</totfact>
</mgrwt>
</event>
<event>
 7    0  0.4788920E-002  0.4471979E+03  0.7546771E-02  0.1028561E+00
         21   -1    0    0  502  501  0.00000000000E+00  0.00000000000E+00  0.91995630179E+02  0.91995630179E+02  0.00000000000E+00 0.  1.
         21   -1    0    0  501  502 -0.00000000000E+00 -0.00000000000E+00 -0.54346599518E+03  0.54346599518E+03  0.00000000000E+00 0.  1.
      99926    2    1    2    0    0  0.17763568394E-14  0.00000000000E+00 -0.45147036500E+03  0.63546162536E+03  0.44719792802E+03 0.  0.
      99925    2    3    3    0    0 -0.97198234934E+01 -0.91360564700E+02 -0.35928700808E+03  0.45494429338E+03  0.26352595347E+03 0.  0.
         25    1    4    4    0    0 -0.29001869134E+02 -0.37076391719E+02 -0.23019894190E+03  0.26618570245E+03  0.12509000000E+03 0.  0.
         25    1    4    4    0    0  0.19282045641E+02 -0.54284172981E+02 -0.12908806617E+03  0.18875859093E+03  0.12509000000E+03 0.  0.
         25    1    3    3    0    0  0.97198234934E+01  0.91360564700E+02 -0.92183356922E+02  0.18051733198E+03  0.12509000000E+03 0.  0.
<mgrwt>
<rscale>  2 0.44719793E+03</rscale>
<asrwt>0</asrwt>
<pdfrwt beam="1">  1       21 0.13528769E-01 0.44719793E+03</pdfrwt>
<pdfrwt beam="2">  1       21 0.79921469E-01 0.44719793E+03</pdfrwt>
<totfact> 0.60167029E+04</totfact>
</mgrwt>
</event>
<event>
 7    0  0.4788920E-002  0.4562528E+03  0.7546771E-02  0.1025874E+00
         21   -1    0    0  502  501  0.00000000000E+00  0.00000000000E+00  0.31210486519E+03  0.31210486519E+03  0.00000000000E+00 0. -1.
         21   -1    0    0  501  502 -0.00000000000E+00 -0.00000000000E+00 -0.16674414092E+03  0.16674414092E+03  0.00000000000E+00 0. -1.
      99926    2    1    2    0    0  0.00000000000E+00  0.00000000000E+00  0.14536072426E+03  0.47884900611E+03  0.45625281423E+03 0.  0.
      99925    2    3    3    0    0 -0.79792571078E+02  0.80980576848E+02  0.10280125217E+03  0.30454030010E+03  0.26315772592E+03 0.  0.
         25    1    4    4    0    0 -0.58353096439E+02  0.74401813634E+02  0.35659845038E+02  0.16080996979E+03  0.12509000000E+03 0.  0.
         25    1    4    4    0    0 -0.21439474639E+02  0.65787632135E+01  0.67141407133E+02  0.14373033031E+03  0.12509000000E+03 0.  0.
         25    1    3    3    0    0  0.79792571078E+02 -0.80980576848E+02  0.42559472092E+02  0.17430870601E+03  0.12509000000E+03 0.  0.
<mgrwt>
<rscale>  2 0.45625281E+03</rscale>
<asrwt>0</asrwt>
<pdfrwt beam="1">  1       21 0.45897774E-01 0.45625281E+03</pdfrwt>
<pdfrwt beam="2">  1       21 0.24521197E-01 0.45625281E+03</pdfrwt>
<totfact> 0.66124021E+04</totfact>
</mgrwt>
</event>
<event>
 7    0  0.4788920E-002  0.4708667E+03  0.7546771E-02  0.1021676E+00
         21   -1    0    0  502  501  0.00000000000E+00  0.00000000000E+00  0.16405351398E+03  0.16405351398E+03  0.00000000000E+00 0. -1.
         21   -1    0    0  501  502 -0.00000000000E+00 -0.00000000000E+00 -0.33787055816E+03  0.33787055816E+03  0.00000000000E+00 0. -1.
      99926    2    1    2    0    0  0.71054273576E-14  0.00000000000E+00 -0.17381704418E+03  0.50192407215E+03  0.47086665772E+03 0.  0.
      99925    2    3    3    0    0 -0.50233813017E+02  0.16048539610E+01  0.17031565183E+02  0.26826468046E+03  0.26296359643E+03 0.  0.
         25    1    4    4    0    0 -0.51054655302E+02  0.83789401290E+00 -0.22716392400E+02  0.13700665122E+03  0.12509000000E+03 0.  0.
         25    1    4    4    0    0  0.82084228449E+00  0.76695994814E+00  0.39747957583E+02  0.13125802925E+03  0.12509000000E+03 0.  0.
         25    1    3    3    0    0  0.50233813017E+02 -0.16048539610E+01 -0.19084860936E+03  0.23365939168E+03  0.12509000000E+03 0.  0.
<mgrwt>
<rscale>  2 0.47086666E+03</rscale>
<asrwt>0</asrwt>
<pdfrwt beam="1">  1       21 0.24125517E-01 0.47086666E+03</pdfrwt>
<pdfrwt beam="2">  1       21 0.49686846E-01 0.47086666E+03</pdfrwt>
<totfact> 0.57539430E+04</totfact>
</mgrwt>
</event>
<event>
 7    0  0.4788920E-002  0.4653987E+03  0.7546771E-02  0.1023227E+00
         21   -1    0    0  502  501  0.00000000000E+00  0.00000000000E+00  0.12551961321E+04  0.12551961321E+04  0.00000000000E+00 0.  1.
         21   -1    0    0  501  502 -0.00000000000E+00 -0.00000000000E+00 -0.43139869178E+02  0.43139869178E+02  0.00000000000E+00 0.  1.
      99926    2    1    2    0    0  0.00000000000E+00  0.00000000000E+00  0.12120562629E+04  0.12983360013E+04  0.46539874057E+03 0.  0.
      99925    2    3    3    0    0 -0.92796783376E+02 -0.79851363281E+02  0.77441438774E+03  0.82699175104E+03  0.26307837068E+03 0.  0.
         25    1    4    4    0    0 -0.21468422878E+02 -0.68999714456E+02  0.34817895779E+03  0.37695881542E+03  0.12509000000E+03 0.  0.
         25    1    4    4    0    0 -0.71328360499E+02 -0.10851648826E+02  0.42623542995E+03  0.45003293561E+03  0.12509000000E+03 0.  0.
         25    1    3    3    0    0  0.92796783376E+02  0.79851363281E+02  0.43764187518E+03  0.47134425024E+03  0.12509000000E+03 0.  0.
<mgrwt>
<rscale>  2 0.46539874E+03</rscale>
<asrwt>0</asrwt>
<pdfrwt beam="1">  1       21 0.18458764E+00 0.46539874E+03</pdfrwt>
<pdfrwt beam="2">  1       21 0.63440992E-02 0.46539874E+03</pdfrwt>
<totfact> 0.26918434E+04</totfact>
</mgrwt>
</event>
<event>
 7    0  0.4788920E-002  0.4572690E+03  0.7546771E-02  0.1025576E+00
         21   -1    0    0  502  501  0.00000000000E+00  0.00000000000E+00  0.11511535722E+04  0.11511535722E+04  0.00000000000E+00 0. -1.
         21   -1    0    0  501  502 -0.00000000000E+00 -0.00000000000E+00 -0.45409872563E+02  0.45409872563E+02  0.00000000000E+00 0. -1.
      99926    2    1    2    0    0  0.14210854715E-13 -0.88817841970E-15  0.11057436996E+04  0.11965634447E+04  0.45726901059E+03 0.  0.
      99925    2    3    3    0    0  0.11383129570E+03  0.22488003874E+01  0.64709749405E+03  0.70772147542E+03  0.26300551132E+03 0.  0.
         25    1    3    3    0    0 -0.11383129570E+03 -0.22488003874E+01  0.45864620556E+03  0.48884196931E+03  0.12509000000E+03 0.  0.
         25    1    4    4    0    0  0.92806645652E+02  0.12301108306E+02  0.30424620272E+03  0.34201995660E+03  0.12509000000E+03 0.  0.
         25    1    4    4    0    0  0.21024650052E+02 -0.10052307919E+02  0.34285129133E+03  0.36570151882E+03  0.12509000000E+03 0.  0.
<mgrwt>
<rscale>  2 0.45726901E+03</rscale>
<asrwt>0</asrwt>
<pdfrwt beam="1">  1       21 0.16928727E+00 0.45726901E+03</pdfrwt>
<pdfrwt beam="2">  1       21 0.66779232E-02 0.45726901E+03</pdfrwt>
<totfact> 0.31700989E+04</totfact>
</mgrwt>
</event>
<event>
 7    0  0.4788920E-002  0.4284461E+03  0.7546771E-02  0.1034352E+00
         21   -1    0    0  502  501  0.00000000000E+00  0.00000000000E+00  0.25584486960E+03  0.25584486960E+03  0.00000000000E+00 0.  1.
         21   -1    0    0  501  502 -0.00000000000E+00 -0.00000000000E+00 -0.17937243826E+03  0.17937243826E+03  0.00000000000E+00 0.  1.
      99926    2    1    2    0    0  0.00000000000E+00  0.00000000000E+00  0.76472431340E+02  0.43521730787E+03  0.42844611366E+03 0.  0.
      99925    2    3    3    0    0 -0.70645079326E+02  0.34559542461E+02  0.13155923848E+02  0.27446415104E+03  0.26262597485E+03 0.  0.
         25    1    4    4    0    0 -0.34842126159E+02  0.22413606926E+02  0.46262796719E+02  0.13965707283E+03  0.12509000000E+03 0.  0.
         25    1    3    3    0    0  0.70645079326E+02 -0.34559542461E+02  0.63316507492E+02  0.16075315682E+03  0.12509000000E+03 0.  0.
         25    1    4    4    0    0 -0.35802953168E+02  0.12145935535E+02 -0.33106872871E+02  0.13480707821E+03  0.12509000000E+03 0.  0.
<mgrwt>
<rscale>  2 0.42844611E+03</rscale>
<asrwt>0</asrwt>
<pdfrwt beam="1">  1       21 0.37624246E-01 0.42844611E+03</pdfrwt>
<pdfrwt beam="2">  1       21 0.26378299E-01 0.42844611E+03</pdfrwt>
<totfact> 0.87043961E+04</totfact>
</mgrwt>
</event>
<event>
 7    0  0.4788920E-002  0.4306719E+03  0.7546771E-02  0.1033648E+00
         21   -1    0    0  502  501  0.00000000000E+00  0.00000000000E+00  0.38115641233E+03  0.38115641233E+03  0.00000000000E+00 0. -1.
         21   -1    0    0  501  502 -0.00000000000E+00 -0.00000000000E+00 -0.12165496054E+03  0.12165496054E+03  0.00000000000E+00 0. -1.
      99926    2    1    2    0    0  0.35527136788E-14  0.71054273576E-14  0.25950145179E+03  0.50281137288E+03  0.43067188579E+03 0.  0.
      99925    2    3    3    0    0  0.16403168114E+02  0.58234323896E+02  0.91981925854E+02  0.28516349194E+03  0.26305368663E+03 0.  0.
         25    1    4    4    0    0 -0.77005056851E+01  0.43450718712E+02  0.10148889191E+02  0.13303296883E+03  0.12509000000E+03 0.  0.
         25    1    4    4    0    0  0.24103673799E+02  0.14783605183E+02  0.81833036662E+02  0.15213052311E+03  0.12509000000E+03 0.  0.
         25    1    3    3    0    0 -0.16403168114E+02 -0.58234323896E+02  0.16751952594E+03  0.21764788093E+03  0.12509000000E+03 0.  0.
<mgrwt>
<rscale>  2 0.43067189E+03</rscale>
<asrwt>0</asrwt>
<pdfrwt beam="1">  1       21 0.56052413E-01 0.43067189E+03</pdfrwt>
<pdfrwt beam="2">  1       21 0.17890435E-01 0.43067189E+03</pdfrwt>
<totfact> 0.79307494E+04</totfact>
</mgrwt>
</event>
<event>
 7    0  0.4788920E-002  0.4560976E+03  0.7546771E-02  0.1025919E+00
         21   -1    0    0  502  501  0.00000000000E+00  0.00000000000E+00  0.48906782737E+03  0.48906782737E+03  0.00000000000E+00 0. -1.
         21   -1    0    0  501  502 -0.00000000000E+00 -0.00000000000E+00 -0.10633752826E+03  0.10633752826E+03  0.00000000000E+00 0. -1.
      99926    2    1    2    0    0  0.00000000000E+00 -0.71054273576E-14  0.38273029911E+03  0.59540535563E+03  0.45609763829E+03 0.  0.
      99925    2    3    3    0    0 -0.78648165514E+01  0.50374469886E+02  0.10726131994E+03  0.28859905005E+03  0.26303037540E+03 0.  0.
         25    1    4    4    0    0  0.31314502164E+00  0.26892521544E+02  0.97168746901E+02  0.16066293676E+03  0.12509000000E+03 0.  0.
         25    1    4    4    0    0 -0.81779615731E+01  0.23481948342E+02  0.10092573036E+02  0.12793611329E+03  0.12509000000E+03 0.  0.
         25    1    3    3    0    0  0.78648165514E+01 -0.50374469886E+02  0.27546897917E+03  0.30680630557E+03  0.12509000000E+03 0.  0.
<mgrwt>
<rscale>  2 0.45609764E+03</rscale>
<asrwt>0</asrwt>
<pdfrwt beam="1">  1       21 0.71921739E-01 0.45609764E+03</pdfrwt>
<pdfrwt beam="2">  1       21 0.15637872E-01 0.45609764E+03</pdfrwt>
<totfact> 0.58453302E+04</totfact>
</mgrwt>
</event>
<event>
 7    0  0.4788920E-002  0.4546800E+03  0.7546771E-02  0.1026336E+00
         21   -1    0    0  502  501  0.00000000000E+00  0.00000000000E+00  0.23880813735E+03  0.23880813735E+03  0.00000000000E+00 0.  1.
         21   -1    0    0  501  502 -0.00000000000E+00 -0.00000000000E+00 -0.21642255757E+03  0.21642255757E+03  0.00000000000E+00 0.  1.
      99926    2    1    2    0    0  0.21649348980E-14 -0.35527136788E-14  0.22385579786E+02  0.45523069492E+03  0.45467996592E+03 0.  0.
      99925    2    3    3    0    0 -0.39262565985E+00  0.31436831664E+02 -0.94415972364E+02  0.28122339845E+03  0.26302812674E+03 0.  0.
         25    1    3    3    0    0  0.39262565985E+00 -0.31436831664E+02  0.11680155215E+03  0.17400729647E+03  0.12509000000E+03 0.  0.
         25    1    4    4    0    0  0.37686683924E+02  0.12022948599E+02 -0.32021567413E+02  0.13504712628E+03  0.12509000000E+03 0.  0.
         25    1    4    4    0    0 -0.38079309584E+02  0.19413883065E+02 -0.62394404951E+02  0.14617627216E+03  0.12509000000E+03 0.  0.
<mgrwt>
<rscale>  2 0.45467997E+03</rscale>
<asrwt>0</asrwt>
<pdfrwt beam="1">  1       21 0.35118844E-01 0.45467997E+03</pdfrwt>
<pdfrwt beam="2">  1       21 0.31826847E-01 0.45467997E+03</pdfrwt>
<totfact> 0.68704191E+04</totfact>
</mgrwt>
</event>
<event>
 7    0  0.4788920E-002  0.4566056E+03  0.7546771E-02  0.1025770E+00
         21   -1    0    0  502  501  0.00000000000E+00  0.00000000000E+00  0.50557494654E+03  0.50557494654E+03  0.00000000000E+00 0. -1.
         21   -1    0    0  501  502 -0.00000000000E+00 -0.00000000000E+00 -0.10309482557E+03  0.10309482557E+03  0.00000000000E+00 0. -1.
      99926    2    1    2    0    0  0.00000000000E+00  0.00000000000E+00  0.40248012097E+03  0.60866977211E+03  0.45660556688E+03 0.  0.
      99925    2    3    3    0    0  0.92567320917E+01 -0.11428963045E+03  0.25731125956E+03  0.38535539026E+03  0.26294844702E+03 0.  0.
         25    1    3    3    0    0 -0.92567320917E+01  0.11428963045E+03  0.14516886141E+03  0.22331438185E+03  0.12509000000E+03 0.  0.
         25    1    4    4    0    0  0.22357786235E+02 -0.43567748068E+02  0.78510872365E+02  0.15559397307E+03  0.12509000000E+03 0.  0.
         25    1    4    4    0    0 -0.13101054143E+02 -0.70721882387E+02  0.17880038719E+03  0.22976141719E+03  0.12509000000E+03 0.  0.
<mgrwt>
<rscale>  2 0.45660557E+03</rscale>
<asrwt>0</asrwt>
<pdfrwt beam="1">  1       21 0.74349256E-01 0.45660557E+03</pdfrwt>
<pdfrwt beam="2">  1       21 0.15161004E-01 0.45660557E+03</pdfrwt>
<totfact> 0.57416098E+04</totfact>
</mgrwt>
</event>
<event>
 7    0  0.4788920E-002  0.4719394E+03  0.7546771E-02  0.1021374E+00
         21   -1    0    0  502  501  0.00000000000E+00  0.00000000000E+00  0.14269351103E+03  0.14269351103E+03  0.00000000000E+00 0.  1.
         21   -1    0    0  501  502 -0.00000000000E+00 -0.00000000000E+00 -0.39021887980E+03  0.39021887980E+03  0.00000000000E+00 0.  1.
      99926    2    1    2    0    0  0.00000000000E+00 -0.71054273576E-14 -0.24752536877E+03  0.53291239083E+03  0.47193941148E+03 0.  0.
      99925    2    3    3    0    0  0.24899826382E+02 -0.38509093045E+02 -0.17818613044E+02  0.26736455460E+03  0.26279906865E+03 0.  0.
         25    1    4    4    0    0 -0.87883552818E+01  0.13604097732E+02 -0.20010013911E+02  0.12771145376E+03  0.12509000000E+03 0.  0.
         25    1    3    3    0    0 -0.24899826382E+02  0.38509093045E+02 -0.22970675572E+03  0.26554783623E+03  0.12509000000E+03 0.  0.
         25    1    4    4    0    0  0.33688181664E+02 -0.52113190777E+02  0.21914008674E+01  0.13965310084E+03  0.12509000000E+03 0.  0.
<mgrwt>
<rscale>  2 0.47193941E+03</rscale>
<asrwt>0</asrwt>
<pdfrwt beam="1">  1       21 0.20984340E-01 0.47193941E+03</pdfrwt>
<pdfrwt beam="2">  1       21 0.57385129E-01 0.47193941E+03</pdfrwt>
<totfact> 0.55214106E+04</totfact>
</mgrwt>
</event>
<event>
 7    0  0.4788920E-002  0.4360913E+03  0.7546771E-02  0.1031953E+00
         21   -1    0    0  502  501  0.00000000000E+00  0.00000000000E+00  0.10672855094E+03  0.10672855094E+03  0.00000000000E+00 0.  1.
         21   -1    0    0  501  502 -0.00000000000E+00 -0.00000000000E+00 -0.44546566463E+03  0.44546566463E+03  0.00000000000E+00 0.  1.
      99926    2    1    2    0    0  0.00000000000E+00 -0.14210854715E-13 -0.33873711369E+03  0.55219421557E+03  0.43609129723E+03 0.  0.
      99925    2    3    3    0    0  0.17867271378E+02 -0.69856835891E+02 -0.29407796396E+03  0.40106127852E+03  0.26300015843E+03 0.  0.
         25    1    4    4    0    0  0.12368373095E+02 -0.63436587533E+02 -0.11160591692E+03  0.17966793281E+03  0.12509000000E+03 0.  0.
         25    1    3    3    0    0 -0.17867271378E+02  0.69856835891E+02 -0.44659149734E+02  0.15113293705E+03  0.12509000000E+03 0.  0.
         25    1    4    4    0    0  0.54988982832E+01 -0.64202483582E+01 -0.18247204704E+03  0.22139334570E+03  0.12509000000E+03 0.  0.
<mgrwt>
<rscale>  2 0.43609130E+03</rscale>
<asrwt>0</asrwt>
<pdfrwt beam="1">  1       21 0.15695375E-01 0.43609130E+03</pdfrwt>
<pdfrwt beam="2">  1       21 0.65509657E-01 0.43609130E+03</pdfrwt>
<totfact> 0.71886925E+04</totfact>
</mgrwt>
</event>
<event>
 7    0  0.4788920E-002  0.4521056E+03  0.7546771E-02  0.1027096E+00
         21   -1    0    0  502  501  0.00000000000E+00  0.00000000000E+00  0.89701027809E+02  0.89701027809E+02  0.00000000000E+00 0. -1.
         21   -1    0    0  501  502 -0.00000000000E+00 -0.00000000000E+00 -0.56966879515E+03  0.56966879515E+03  0.00000000000E+00 0. -1.
      99926    2    1    2    0    0  0.00000000000E+00  0.00000000000E+00 -0.47996776735E+03  0.65936982296E+03  0.45210563560E+03 0.  0.
      99925    2    3    3    0    0 -0.41040141789E+02  0.43010353781E+02 -0.16687887321E+03  0.31701569709E+03  0.26289961983E+03 0.  0.
         25    1    4    4    0    0 -0.36138638513E+02  0.43383604833E+02 -0.12319819603E+03  0.18442733520E+03  0.12509000000E+03 0.  0.
         25    1    4    4    0    0 -0.49015032752E+01 -0.37325105214E+00 -0.43680677173E+02  0.13258836189E+03  0.12509000000E+03 0.  0.
         25    1    3    3    0    0  0.41040141789E+02 -0.43010353781E+02 -0.31308889414E+03  0.34235412587E+03  0.12509000000E+03 0.  0.
<mgrwt>
<rscale>  2 0.45210564E+03</rscale>
<asrwt>0</asrwt>
<pdfrwt beam="1">  1       21 0.13191328E-01 0.45210564E+03</pdfrwt>
<pdfrwt beam="2">  1       21 0.83774820E-01 0.45210564E+03</pdfrwt>
<totfact> 0.56441757E+04</totfact>
</mgrwt>
</event>
<event>
 7    0  0.4788920E-002  0.4558361E+03  0.7546771E-02  0.1025996E+00
         21   -1    0    0  502  501  0.00000000000E+00  0.00000000000E+00  0.82570386764E+02  0.82570386764E+02  0.00000000000E+00 0.  1.
         21   -1    0    0  501  502 -0.00000000000E+00 -0.00000000000E+00 -0.62911949691E+03  0.62911949691E+03  0.00000000000E+00 0.  1.
      99926    2    1    2    0    0  0.00000000000E+00  0.71054273576E-14 -0.54654911015E+03  0.71168988368E+03  0.45583611169E+03 0.  0.
      99925    2    3    3    0    0  0.73565901838E+02 -0.40192924710E+02 -0.22302177358E+03  0.35483576962E+03  0.26294923237E+03 0.  0.
         25    1    4    4    0    0  0.35794161137E+02 -0.10044787496E+02 -0.59676657057E+02  0.14349540489E+03  0.12509000000E+03 0.  0.
         25    1    4    4    0    0  0.37771740700E+02 -0.30148137214E+02 -0.16334511652E+03  0.21134036473E+03  0.12509000000E+03 0.  0.
         25    1    3    3    0    0 -0.73565901838E+02  0.40192924710E+02 -0.32352733657E+03  0.35685411406E+03  0.12509000000E+03 0.  0.
<mgrwt>
<rscale>  2 0.45583611E+03</rscale>
<asrwt>0</asrwt>
<pdfrwt beam="1">  1       21 0.12142704E-01 0.45583611E+03</pdfrwt>
<pdfrwt beam="2">  1       21 0.92517576E-01 0.45583611E+03</pdfrwt>
<totfact> 0.51930439E+04</totfact>
</mgrwt>
</event>
<event>
 7    0  0.4788920E-002  0.4554686E+03  0.7546771E-02  0.1026104E+00
         21   -1    0    0  502  501  0.00000000000E+00  0.00000000000E+00  0.74632629363E+02  0.74632629363E+02  0.00000000000E+00 0.  1.
         21   -1    0    0  501  502 -0.00000000000E+00 -0.00000000000E+00 -0.69490935737E+03  0.69490935737E+03  0.00000000000E+00 0.  1.
      99926    2    1    2    0    0  0.14210854715E-13  0.71054273576E-14 -0.62027672801E+03  0.76954198674E+03  0.45546860489E+03 0.  0.
      99925    2    3    3    0    0 -0.96404958084E+02 -0.31867395362E+02 -0.47647072361E+03  0.55358569062E+03  0.26291314074E+03 0.  0.
         25    1    4    4    0    0 -0.75887396484E+02 -0.44948070787E+02 -0.23288747840E+03  0.27868138027E+03  0.12509000000E+03 0.  0.
         25    1    4    4    0    0 -0.20517561600E+02  0.13080675425E+02 -0.24358324521E+03  0.27490431035E+03  0.12509000000E+03 0.  0.
         25    1    3    3    0    0  0.96404958084E+02  0.31867395362E+02 -0.14380600440E+03  0.21595629612E+03  0.12509000000E+03 0.  0.
<mgrwt>
<rscale>  2 0.45546860E+03</rscale>
<asrwt>0</asrwt>
<pdfrwt beam="1">  1       21 0.10975387E-01 0.45546860E+03</pdfrwt>
<pdfrwt beam="2">  1       21 0.10219255E+00 0.45546860E+03</pdfrwt>
<totfact> 0.49092405E+04</totfact>
</mgrwt>
</event>
<event>
 7    0  0.4788920E-002  0.4336495E+03  0.7546771E-02  0.1032713E+00
         21   -1    0    0  502  501  0.00000000000E+00  0.00000000000E+00  0.72650630048E+02  0.72650630048E+02  0.00000000000E+00 0.  1.
         21   -1    0    0  501  502 -0.00000000000E+00 -0.00000000000E+00 -0.64711020978E+03  0.64711020978E+03  0.00000000000E+00 0.  1.
      99926    2    1    2    0    0 -0.35527136788E-14 -0.14210854715E-13 -0.57445957973E+03  0.71976083983E+03  0.43364946420E+03 0.  0.
      99925    2    3    3    0    0  0.92205351887E+01  0.87839730137E+02 -0.32766324181E+03  0.42931845832E+03  0.26296445039E+03 0.  0.
         25    1    4    4    0    0  0.39830709108E+02  0.65347409728E+02 -0.17023478536E+03  0.22468680334E+03  0.12509000000E+03 0.  0.
         25    1    4    4    0    0 -0.30610173919E+02  0.22492320409E+02 -0.15742845644E+03  0.20463165499E+03  0.12509000000E+03 0.  0.
         25    1    3    3    0    0 -0.92205351887E+01 -0.87839730137E+02 -0.24679633792E+03  0.29044238150E+03  0.12509000000E+03 0.  0.
<mgrwt>
<rscale>  2 0.43364946E+03</rscale>
<asrwt>0</asrwt>
<pdfrwt beam="1">  1       21 0.10683916E-01 0.43364946E+03</pdfrwt>
<pdfrwt beam="2">  1       21 0.95163264E-01 0.43364946E+03</pdfrwt>
<totfact> 0.61545713E+04</totfact>
</mgrwt>
</event>
<event>
 7    0  0.4788920E-002  0.4510743E+03  0.7546771E-02  0.1027402E+00
         21   -1    0    0  502  501  0.00000000000E+00  0.00000000000E+00  0.10209157491E+03  0.10209157491E+03  0.00000000000E+00 0.  1.
         21   -1    0    0  501  502 -0.00000000000E+00 -0.00000000000E+00 -0.49824876951E+03  0.49824876951E+03  0.00000000000E+00 0.  1.
      99926    2    1    2    0    0  0.00000000000E+00  0.00000000000E+00 -0.39615719460E+03  0.60034034442E+03  0.45107428026E+03 0.  0.
      99925    2    3    3    0    0  0.82998517941E+02 -0.69396396243E+02 -0.22765130042E+03  0.36423367729E+03  0.26293809785E+03 0.  0.
         25    1    4    4    0    0  0.31933072263E+02 -0.72557345310E+02 -0.10312448366E+03  0.18046178735E+03  0.12509000000E+03 0.  0.
         25    1    3    3    0    0 -0.82998517941E+02  0.69396396243E+02 -0.16850589417E+03  0.23610666713E+03  0.12509000000E+03 0.  0.
         25    1    4    4    0    0  0.51065445679E+02  0.31609490679E+01 -0.12452681676E+03  0.18377188994E+03  0.12509000000E+03 0.  0.
<mgrwt>
<rscale>  2 0.45107428E+03</rscale>
<asrwt>0</asrwt>
<pdfrwt beam="1">  1       21 0.15013467E-01 0.45107428E+03</pdfrwt>
<pdfrwt beam="2">  1       21 0.73271879E-01 0.45107428E+03</pdfrwt>
<totfact> 0.60512525E+04</totfact>
</mgrwt>
</event>
<event>
 7    0  0.4788920E-002  0.4504929E+03  0.7546771E-02  0.1027575E+00
         21   -1    0    0  502  501  0.00000000000E+00  0.00000000000E+00  0.64324489239E+02  0.64324489239E+02  0.00000000000E+00 0. -1.
         21   -1    0    0  501  502 -0.00000000000E+00 -0.00000000000E+00 -0.78875022071E+03  0.78875022071E+03  0.00000000000E+00 0. -1.
      99926    2    1    2    0    0  0.00000000000E+00  0.71054273576E-14 -0.72442573147E+03  0.85307470995E+03  0.45049286380E+03 0.  0.
      99925    2    3    3    0    0 -0.91891616149E+02  0.53787855565E+02 -0.41492442412E+03  0.50268097445E+03  0.26303741524E+03 0.  0.
         25    1    3    3    0    0  0.91891616149E+02 -0.53787855565E+02 -0.30950130736E+03  0.35039373550E+03  0.12509000000E+03 0.  0.
         25    1    4    4    0    0 -0.33118498523E+02  0.13923265637E+02 -0.13245198615E+03  0.18569256583E+03  0.12509000000E+03 0.  0.
         25    1    4    4    0    0 -0.58773117626E+02  0.39864589928E+02 -0.28247243796E+03  0.31698840861E+03  0.12509000000E+03 0.  0.
<mgrwt>
<rscale>  2 0.45049286E+03</rscale>
<asrwt>0</asrwt>
<pdfrwt beam="1">  1       21 0.94594840E-02 0.45049286E+03</pdfrwt>
<pdfrwt beam="2">  1       21 0.11599268E+00 0.45049286E+03</pdfrwt>
<totfact> 0.46939809E+04</totfact>
</mgrwt>
</event>
<event>
 7    0  0.4788920E-002  0.4533860E+03  0.7546771E-02  0.1026717E+00
         21   -1    0    0  502  501  0.00000000000E+00  0.00000000000E+00  0.23207774468E+03  0.23207774468E+03  0.00000000000E+00 0. -1.
         21   -1    0    0  501  502 -0.00000000000E+00 -0.00000000000E+00 -0.22143317026E+03  0.22143317026E+03  0.00000000000E+00 0. -1.
      99926    2    1    2    0    0  0.14210854715E-13  0.00000000000E+00  0.10644574416E+02  0.45351091494E+03  0.45338597575E+03 0.  0.
      99925    2    3    3    0    0  0.11106511730E+03 -0.13056203370E+02  0.79969134951E+01  0.28570017948E+03  0.26278264251E+03 0.  0.
         25    1    4    4    0    0  0.14293536125E+02 -0.93528661724E+01 -0.91256329263E+01  0.12658027712E+03  0.12509000000E+03 0.  0.
         25    1    4    4    0    0  0.96771581177E+02 -0.37033371979E+01  0.17122546421E+02  0.15911990236E+03  0.12509000000E+03 0.  0.
         25    1    3    3    0    0 -0.11106511730E+03  0.13056203370E+02  0.26476609205E+01  0.16781073546E+03  0.12509000000E+03 0.  0.
<mgrwt>
<rscale>  2 0.45338598E+03</rscale>
<asrwt>0</asrwt>
<pdfrwt beam="1">  1       21 0.34129080E-01 0.45338598E+03</pdfrwt>
<pdfrwt beam="2">  1       21 0.32563701E-01 0.45338598E+03</pdfrwt>
<totfact> 0.69546351E+04</totfact>
</mgrwt>
</event>
<event>
 7    0  0.4788920E-002  0.4571373E+03  0.7546771E-02  0.1025615E+00
         21   -1    0    0  502  501  0.00000000000E+00  0.00000000000E+00  0.11231340237E+03  0.11231340237E+03  0.00000000000E+00 0.  1.
         21   -1    0    0  501  502 -0.00000000000E+00 -0.00000000000E+00 -0.46515930364E+03  0.46515930364E+03  0.00000000000E+00 0.  1.
      99926    2    1    2    0    0  0.00000000000E+00 -0.14210854715E-13 -0.35284590127E+03  0.57747270601E+03  0.45713728369E+03 0.  0.
      99925    2    3    3    0    0 -0.37212259373E+02  0.90069625850E+02 -0.29919676983E+03  0.41007190807E+03  0.26295051428E+03 0.  0.
         25    1    4    4    0    0 -0.17663579719E+02  0.58563861630E+02 -0.21020711154E+03  0.25214334371E+03  0.12509000000E+03 0.  0.
         25    1    4    4    0    0 -0.19548679654E+02  0.31505764219E+02 -0.88989658294E+02  0.15792856435E+03  0.12509000000E+03 0.  0.
         25    1    3    3    0    0  0.37212259373E+02 -0.90069625850E+02 -0.53649131437E+02  0.16740079794E+03  0.12509000000E+03 0.  0.
<mgrwt>
<rscale>  2 0.45713728E+03</rscale>
<asrwt>0</asrwt>
<pdfrwt beam="1">  1       21 0.16516677E-01 0.45713728E+03</pdfrwt>
<pdfrwt beam="2">  1       21 0.68405780E-01 0.45713728E+03</pdfrwt>
<totfact> 0.59082042E+04</totfact>
</mgrwt>
</event>
<event>
 7    0  0.4788920E-002  0.4521468E+03  0.7546771E-02  0.1027084E+00
         21   -1    0    0  502  501  0.00000000000E+00  0.00000000000E+00  0.13551342726E+03  0.13551342726E+03  0.00000000000E+00 0.  1.
         21   -1    0    0  501  502 -0.00000000000E+00 -0.00000000000E+00 -0.37715224175E+03  0.37715224175E+03  0.00000000000E+00 0.  1.
      99926    2    1    2    0    0  0.00000000000E+00  0.00000000000E+00 -0.24163881448E+03  0.51266566901E+03  0.45214684729E+03 0.  0.
      99925    2    3    3    0    0  0.41926987347E+02  0.95095539444E+02 -0.19482657986E+03  0.34343231739E+03  0.26303483898E+03 0.  0.
         25    1    3    3    0    0 -0.41926987347E+02 -0.95095539444E+02 -0.46812234629E+02  0.16923335162E+03  0.12509000000E+03 0.  0.
         25    1    4    4    0    0  0.23334952942E+02  0.49268001697E+02 -0.14725357547E+03  0.20075602011E+03  0.12509000000E+03 0.  0.
         25    1    4    4    0    0  0.18592034405E+02  0.45827537748E+02 -0.47573004384E+02  0.14267629728E+03  0.12509000000E+03 0.  0.
<mgrwt>
<rscale>  2 0.45214685E+03</rscale>
<asrwt>0</asrwt>
<pdfrwt beam="1">  1       21 0.19928445E-01 0.45214685E+03</pdfrwt>
<pdfrwt beam="2">  1       21 0.55463565E-01 0.45214685E+03</pdfrwt>
<totfact> 0.65868418E+04</totfact>
</mgrwt>
</event>
<event>
 7    0  0.4788920E-002  0.4558725E+03  0.7546771E-02  0.1025985E+00
         21   -1    0    0  502  501  0.00000000000E+00  0.00000000000E+00  0.13827435271E+03  0.13827435271E+03  0.00000000000E+00 0.  1.
         21   -1    0    0  501  502 -0.00000000000E+00 -0.00000000000E+00 -0.37573800116E+03  0.37573800116E+03  0.00000000000E+00 0.  1.
      99926    2    1    2    0    0  0.00000000000E+00  0.00000000000E+00 -0.23746364845E+03  0.51401235387E+03  0.45587247733E+03 0.  0.
      99925    2    3    3    0    0  0.87432422837E+02  0.25655457701E+02 -0.71047465425E+02  0.28675812366E+03  0.26244970579E+03 0.  0.
         25    1    3    3    0    0 -0.87432422837E+02 -0.25655457701E+02 -0.16641618303E+03  0.22725423021E+03  0.12509000000E+03 0.  0.
         25    1    4    4    0    0  0.15387028374E+02 -0.14768532439E+02 -0.20388670543E+02  0.12852266796E+03  0.12509000000E+03 0.  0.
         25    1    4    4    0    0  0.72045394463E+02  0.40423990141E+02 -0.50658794882E+02  0.15823545570E+03  0.12509000000E+03 0.  0.
<mgrwt>
<rscale>  2 0.45587248E+03</rscale>
<asrwt>0</asrwt>
<pdfrwt beam="1">  1       21 0.20334464E-01 0.45587248E+03</pdfrwt>
<pdfrwt beam="2">  1       21 0.55255588E-01 0.45587248E+03</pdfrwt>
<totfact> 0.63853804E+04</totfact>
</mgrwt>
</event>
<event>
 7    0  0.4788920E-002  0.4580725E+03  0.7546771E-02  0.1025342E+00
         21   -1    0    0  502  501  0.00000000000E+00  0.00000000000E+00  0.10775101913E+03  0.10775101913E+03  0.00000000000E+00 0. -1.
         21   -1    0    0  501  502 -0.00000000000E+00 -0.00000000000E+00 -0.48684083046E+03  0.48684083046E+03  0.00000000000E+00 0. -1.
      99926    2    1    2    0    0 -0.14210854715E-13  0.00000000000E+00 -0.37908981133E+03  0.59459184960E+03  0.45807246430E+03 0.  0.
      99925    2    3    3    0    0 -0.10777401741E+03  0.42148952405E+02 -0.22813919350E+03  0.36693998788E+03  0.26306974375E+03 0.  0.
         25    1    4    4    0    0 -0.33988405024E+02  0.20404781688E+02 -0.61774781165E+02  0.14503516291E+03  0.12509000000E+03 0.  0.
         25    1    4    4    0    0 -0.73785612388E+02  0.21744170717E+02 -0.16636441234E+03  0.22190482498E+03  0.12509000000E+03 0.  0.
         25    1    3    3    0    0  0.10777401741E+03 -0.42148952405E+02 -0.15095061783E+03  0.22765186171E+03  0.12509000000E+03 0.  0.
<mgrwt>
<rscale>  2 0.45807246E+03</rscale>
<asrwt>0</asrwt>
<pdfrwt beam="1">  1       21 0.15845739E-01 0.45807246E+03</pdfrwt>
<pdfrwt beam="2">  1       21 0.71594238E-01 0.45807246E+03</pdfrwt>
<totfact> 0.57601022E+04</totfact>
</mgrwt>
</event>
<event>
 7    0  0.4788920E-002  0.4553898E+03  0.7546771E-02  0.1026127E+00
         21   -1    0    0  502  501  0.00000000000E+00  0.00000000000E+00  0.30388723806E+03  0.30388723806E+03  0.00000000000E+00 0. -1.
         21   -1    0    0  501  502 -0.00000000000E+00 -0.00000000000E+00 -0.17060595012E+03  0.17060595012E+03  0.00000000000E+00 0. -1.
      99926    2    1    2    0    0  0.71054273576E-14 -0.88817841970E-15  0.13328128794E+03  0.47449318818E+03  0.45538981534E+03 0.  0.
      99925    2    3    3    0    0  0.37836489045E+02 -0.52265238901E+01 -0.27614818782E+02  0.26714328653E+03  0.26295254490E+03 0.  0.
         25    1    4    4    0    0  0.24909893251E+02  0.30668339315E+02 -0.36195942882E+02  0.13608344572E+03  0.12509000000E+03 0.  0.
         25    1    4    4    0    0  0.12926595795E+02 -0.35894863205E+02  0.85811241001E+01  0.13105984081E+03  0.12509000000E+03 0.  0.
         25    1    3    3    0    0 -0.37836489045E+02  0.52265238901E+01  0.16089610672E+03  0.20734990165E+03  0.12509000000E+03 0.  0.
<mgrwt>
<rscale>  2 0.45538982E+03</rscale>
<asrwt>0</asrwt>
<pdfrwt beam="1">  1       21 0.44689300E-01 0.45538982E+03</pdfrwt>
<pdfrwt beam="2">  1       21 0.25089110E-01 0.45538982E+03</pdfrwt>
<totfact> 0.66896032E+04</totfact>
</mgrwt>
</event>
<event>
 7    0  0.4788920E-002  0.4574666E+03  0.7546771E-02  0.1025519E+00
         21   -1    0    0  502  501  0.00000000000E+00  0.00000000000E+00  0.28220186102E+02  0.28220186102E+02  0.00000000000E+00 0. -1.
         21   -1    0    0  501  502 -0.00000000000E+00 -0.00000000000E+00 -0.18539537022E+04  0.18539537022E+04  0.00000000000E+00 0. -1.
      99926    2    1    2    0    0 -0.14210854715E-13  0.00000000000E+00 -0.18257335161E+04  0.18821738883E+04  0.45746658239E+03 0.  0.
      99925    2    3    3    0    0 -0.93833953692E+02 -0.61622069760E+02 -0.12598633082E+04  0.12918699914E+04  0.26281253609E+03 0.  0.
         25    1    4    4    0    0 -0.80046879619E+02 -0.27813095087E+02 -0.56264140783E+03  0.58257525960E+03  0.12509000000E+03 0.  0.
         25    1    4    4    0    0 -0.13787074073E+02 -0.33808974673E+02 -0.69722190034E+03  0.70929473182E+03  0.12509000000E+03 0.  0.
         25    1    3    3    0    0  0.93833953692E+02  0.61622069760E+02 -0.56587020793E+03  0.59030389687E+03  0.12509000000E+03 0.  0.
<mgrwt>
<rscale>  2 0.45746658E+03</rscale>
<asrwt>0</asrwt>
<pdfrwt beam="1">  1       21 0.41500261E-02 0.45746658E+03</pdfrwt>
<pdfrwt beam="2">  1       21 0.27264034E+00 0.45746658E+03</pdfrwt>
<totfact> 0.15432850E+04</totfact>
</mgrwt>
</event>
<event>
 7    0  0.4788920E-002  0.4431942E+03  0.7546771E-02  0.1029771E+00
         21   -1    0    0  502  501  0.00000000000E+00  0.00000000000E+00  0.86138070869E+03  0.86138070869E+03  0.00000000000E+00 0. -1.
         21   -1    0    0  501  502 -0.00000000000E+00 -0.00000000000E+00 -0.57007643173E+02  0.57007643173E+02  0.00000000000E+00 0. -1.
      99926    2    1    2    0    0  0.88817841970E-15  0.00000000000E+00  0.80437306552E+03  0.91838835186E+03  0.44319424219E+03 0.  0.
      99925    2    3    3    0    0  0.50299718990E+01  0.83226547829E+02  0.63305976994E+03  0.69046794421E+03  0.26273437307E+03 0.  0.
         25    1    4    4    0    0 -0.10482291087E+02  0.45084417259E+01  0.25527566026E+03  0.28450549256E+03  0.12509000000E+03 0.  0.
         25    1    3    3    0    0 -0.50299718990E+01 -0.83226547829E+02  0.17131329558E+03  0.22792040765E+03  0.12509000000E+03 0.  0.
         25    1    4    4    0    0  0.15512262986E+02  0.78718106103E+02  0.37778410967E+03  0.40596245165E+03  0.12509000000E+03 0.  0.
<mgrwt>
<rscale>  2 0.44319424E+03</rscale>
<asrwt>0</asrwt>
<pdfrwt beam="1">  1       21 0.12667363E+00 0.44319424E+03</pdfrwt>
<pdfrwt beam="2">  1       21 0.83834774E-02 0.44319424E+03</pdfrwt>
<totfact> 0.46605581E+04</totfact>
</mgrwt>
</event>
<event>
 7    0  0.4788920E-002  0.4507937E+03  0.7546771E-02  0.1027486E+00
         21   -1    0    0  502  501  0.00000000000E+00  0.00000000000E+00  0.21938036475E+04  0.21938036475E+04  0.00000000000E+00 0.  1.
         21   -1    0    0  501  502 -0.00000000000E+00 -0.00000000000E+00 -0.23157828644E+02  0.23157828644E+02  0.00000000000E+00 0.  1.
      99926    2    1    2    0    0 -0.88817841970E-15  0.00000000000E+00  0.21706458188E+04  0.22169614761E+04  0.45079365100E+03 0.  0.
      99925    2    3    3    0    0  0.64287737529E+01 -0.67926725004E+02  0.95223672845E+03  0.99024896346E+03  0.26302633616E+03 0.  0.
         25    1    4    4    0    0  0.54792639314E+01  0.67547569038E+01  0.47475010901E+03  0.49103036889E+03  0.12509000000E+03 0.  0.
         25    1    3    3    0    0 -0.64287737529E+01  0.67926725004E+02  0.12184090904E+04  0.12267125126E+04  0.12509000000E+03 0.  0.
         25    1    4    4    0    0  0.94950982156E+00 -0.74681481908E+02  0.47748661945E+03  0.49921859456E+03  0.12509000000E+03 0.  0.
<mgrwt>
<rscale>  2 0.45079365E+03</rscale>
<asrwt>0</asrwt>
<pdfrwt beam="1">  1       21 0.32261804E+00 0.45079365E+03</pdfrwt>
<pdfrwt beam="2">  1       21 0.34055645E-02 0.45079365E+03</pdfrwt>
<totfact> 0.10829609E+04</totfact>
</mgrwt>
</event>
<event>
 7    0  0.4788920E-002  0.4553457E+03  0.7546771E-02  0.1026140E+00
         21   -1    0    0  502  501  0.00000000000E+00  0.00000000000E+00  0.29578948414E+03  0.29578948414E+03  0.00000000000E+00 0.  1.
         21   -1    0    0  501  502 -0.00000000000E+00 -0.00000000000E+00 -0.17524260254E+03  0.17524260254E+03  0.00000000000E+00 0.  1.
      99926    2    1    2    0    0  0.00000000000E+00  0.00000000000E+00  0.12054688159E+03  0.47103208668E+03  0.45534566652E+03 0.  0.
      99925    2    3    3    0    0 -0.76073113746E+02  0.47350320668E+02  0.37646474992E+01  0.27786177374E+03  0.26299015425E+03 0.  0.
         25    1    4    4    0    0  0.20656094003E+01  0.34134872763E+02  0.49912072700E+01  0.12977625565E+03  0.12509000000E+03 0.  0.
         25    1    4    4    0    0 -0.78138723146E+02  0.13215447905E+02 -0.12265597708E+01  0.14808551809E+03  0.12509000000E+03 0.  0.
         25    1    3    3    0    0  0.76073113746E+02 -0.47350320668E+02  0.11678223409E+03  0.19317031294E+03  0.12509000000E+03 0.  0.
<mgrwt>
<rscale>  2 0.45534567E+03</rscale>
<asrwt>0</asrwt>
<pdfrwt beam="1">  1       21 0.43498454E-01 0.45534567E+03</pdfrwt>
<pdfrwt beam="2">  1       21 0.25770971E-01 0.45534567E+03</pdfrwt>
<totfact> 0.67174627E+04</totfact>
</mgrwt>
</event>
<event>
 7    0  0.4788920E-002  0.4576932E+03  0.7546771E-02  0.1025452E+00
         21   -1    0    0  502  501  0.00000000000E+00  0.00000000000E+00  0.20931590120E+03  0.20931590120E+03  0.00000000000E+00 0. -1.
         21   -1    0    0  501  502 -0.00000000000E+00 -0.00000000000E+00 -0.25019965024E+03  0.25019965024E+03  0.00000000000E+00 0. -1.
      99926    2    1    2    0    0  0.14210854715E-13 -0.71054273576E-14 -0.40883749043E+02  0.45951555144E+03  0.45769319536E+03 0.  0.
      99925    2    3    3    0    0  0.83071524890E+02 -0.56238040684E+02 -0.83366032742E+02  0.29363653530E+03  0.26307589015E+03 0.  0.
         25    1    3    3    0    0 -0.83071524890E+02  0.56238040684E+02  0.42482283699E+02  0.16587901614E+03  0.12509000000E+03 0.  0.
         25    1    4    4    0    0  0.27778980539E+02 -0.58897126540E+02 -0.66141728413E+02  0.15576514248E+03  0.12509000000E+03 0.  0.
         25    1    4    4    0    0  0.55292544351E+02  0.26590858560E+01 -0.17224304330E+02  0.13787139282E+03  0.12509000000E+03 0.  0.
<mgrwt>
<rscale>  2 0.45769320E+03</rscale>
<asrwt>0</asrwt>
<pdfrwt beam="1">  1       21 0.30781750E-01 0.45769320E+03</pdfrwt>
<pdfrwt beam="2">  1       21 0.36794066E-01 0.45769320E+03</pdfrwt>
<totfact> 0.66769933E+04</totfact>
</mgrwt>
</event>
<event>
 7    0  0.4788920E-002  0.4467852E+03  0.7546771E-02  0.1028685E+00
         21   -1    0    0  502  501  0.00000000000E+00  0.00000000000E+00  0.11385607400E+04  0.11385607400E+04  0.00000000000E+00 0.  1.
         21   -1    0    0  501  502 -0.00000000000E+00 -0.00000000000E+00 -0.43831001445E+02  0.43831001445E+02  0.00000000000E+00 0.  1.
      99926    2    1    2    0    0  0.00000000000E+00  0.35527136788E-14  0.10947297385E+04  0.11823917414E+04  0.44678521658E+03 0.  0.
      99925    2    3    3    0    0 -0.10254487452E+03 -0.16919409710E+02  0.64948189611E+03  0.70837183994E+03  0.26298709576E+03 0.  0.
         25    1    4    4    0    0 -0.13771548425E+02  0.12904138441E+02  0.29378749334E+03  0.31986680303E+03  0.12509000000E+03 0.  0.
         25    1    3    3    0    0  0.10254487452E+03  0.16919409710E+02  0.44524784242E+03  0.47401990147E+03  0.12509000000E+03 0.  0.
         25    1    4    4    0    0 -0.88773326090E+02 -0.29823548151E+02  0.35569440277E+03  0.38850503692E+03  0.12509000000E+03 0.  0.
<mgrwt>
<rscale>  2 0.44678522E+03</rscale>
<asrwt>0</asrwt>
<pdfrwt beam="1">  1       21 0.16743538E+00 0.44678522E+03</pdfrwt>
<pdfrwt beam="2">  1       21 0.64457362E-02 0.44678522E+03</pdfrwt>
<totfact> 0.34899840E+04</totfact>
</mgrwt>
</event>
<event>
 7    0  0.4788920E-002  0.4542068E+03  0.7546771E-02  0.1026475E+00
         21   -1    0    0  502  501  0.00000000000E+00  0.00000000000E+00  0.24620719154E+02  0.24620719154E+02  0.00000000000E+00 0. -1.
         21   -1    0    0  501  502 -0.00000000000E+00 -0.00000000000E+00 -0.20948187817E+04  0.20948187817E+04  0.00000000000E+00 0. -1.
      99926    2    1    2    0    0 -0.44408920985E-15  0.00000000000E+00 -0.20701980626E+04  0.21194395009E+04  0.45420675866E+03 0.  0.
      99925    2    3    3    0    0 -0.36198820725E+01 -0.64280102649E+02 -0.17337127424E+04  0.17547274036E+04  0.26298926307E+03 0.  0.
         25    1    4    4    0    0  0.26372218602E+02 -0.16500012772E+02 -0.67913791240E+03  0.69126229211E+03  0.12509000000E+03 0.  0.
         25    1    4    4    0    0 -0.29992100674E+02 -0.47780089877E+02 -0.10545748300E+04  0.10634651115E+04  0.12509000000E+03 0.  0.
         25    1    3    3    0    0  0.36198820725E+01  0.64280102649E+02 -0.33648532017E+03  0.36471209733E+03  0.12509000000E+03 0.  0.
<mgrwt>
<rscale>  2 0.45420676E+03</rscale>
<asrwt>0</asrwt>
<pdfrwt beam="1">  1       21 0.36206936E-02 0.45420676E+03</pdfrwt>
<pdfrwt beam="2">  1       21 0.30806162E+00 0.45420676E+03</pdfrwt>
<totfact> 0.11929291E+04</totfact>
</mgrwt>
</event>
<event>
 7    0  0.4788920E-002  0.4523177E+03  0.7546771E-02  0.1027033E+00
         21   -1    0    0  502  501  0.00000000000E+00  0.00000000000E+00  0.43866800034E+03  0.43866800034E+03  0.00000000000E+00 0. -1.
         21   -1    0    0  501  502 -0.00000000000E+00 -0.00000000000E+00 -0.11659802540E+03  0.11659802540E+03  0.00000000000E+00 0. -1.
      99926    2    1    2    0    0  0.00000000000E+00  0.00000000000E+00  0.32206997494E+03  0.55526602575E+03  0.45231768768E+03 0.  0.
      99925    2    3    3    0    0 -0.96196073441E+02 -0.39801238924E+02  0.15702174883E+03  0.32347679345E+03  0.26295167452E+03 0.  0.
         25    1    3    3    0    0  0.96196073441E+02  0.39801238924E+02  0.16504822611E+03  0.23178923229E+03  0.12509000000E+03 0.  0.
         25    1    4    4    0    0 -0.45873050738E+02  0.15122195202E+02  0.99323787180E+02  0.16687042989E+03  0.12509000000E+03 0.  0.
         25    1    4    4    0    0 -0.50323022703E+02 -0.54923434125E+02  0.57697961645E+02  0.15660636356E+03  0.12509000000E+03 0.  0.
<mgrwt>
<rscale>  2 0.45231769E+03</rscale>
<asrwt>0</asrwt>
<pdfrwt beam="1">  1       21 0.64510000E-01 0.45231769E+03</pdfrwt>
<pdfrwt beam="2">  1       21 0.17146769E-01 0.45231769E+03</pdfrwt>
<totfact> 0.62842762E+04</totfact>
</mgrwt>
</event>
<event>
 7    0  0.4788920E-002  0.4533280E+03  0.7546771E-02  0.1026734E+00
         21   -1    0    0  502  501  0.00000000000E+00  0.00000000000E+00  0.14131799976E+03  0.14131799976E+03  0.00000000000E+00 0.  1.
         21   -1    0    0  501  502 -0.00000000000E+00 -0.00000000000E+00 -0.36355289174E+03  0.36355289174E+03  0.00000000000E+00 0.  1.
      99926    2    1    2    0    0  0.35527136788E-14  0.00000000000E+00 -0.22223489199E+03  0.50487089150E+03  0.45332799370E+03 0.  0.
      99925    2    3    3    0    0  0.19235936519E+02 -0.67864321736E+02 -0.44019462238E+02  0.27599574012E+03  0.26317360827E+03 0.  0.
         25    1    4    4    0    0  0.30217065084E+02 -0.30347200728E+01 -0.39334675846E+02  0.13459942560E+03  0.12509000000E+03 0.  0.
         25    1    4    4    0    0 -0.10981128566E+02 -0.64829601663E+02 -0.46847863918E+01  0.14139631452E+03  0.12509000000E+03 0.  0.
         25    1    3    3    0    0 -0.19235936519E+02  0.67864321736E+02 -0.17821542975E+03  0.22887515138E+03  0.12509000000E+03 0.  0.
<mgrwt>
<rscale>  2 0.45332799E+03</rscale>
<asrwt>0</asrwt>
<pdfrwt beam="1">  1       21 0.20782059E-01 0.45332799E+03</pdfrwt>
<pdfrwt beam="2">  1       21 0.53463660E-01 0.45332799E+03</pdfrwt>
<totfact> 0.65798689E+04</totfact>
</mgrwt>
</event>
<event>
 7    0  0.4788920E-002  0.4577661E+03  0.7546771E-02  0.1025431E+00
         21   -1    0    0  502  501  0.00000000000E+00  0.00000000000E+00  0.60477178807E+03  0.60477178807E+03  0.00000000000E+00 0. -1.
         21   -1    0    0  501  502 -0.00000000000E+00 -0.00000000000E+00 -0.86623502503E+02  0.86623502503E+02  0.00000000000E+00 0. -1.
      99926    2    1    2    0    0  0.00000000000E+00  0.00000000000E+00  0.51814828557E+03  0.69139529058E+03  0.45776609965E+03 0.  0.
      99925    2    3    3    0    0  0.13593287869E+02  0.84248510636E+02  0.20718300500E+03  0.34552030906E+03  0.26301501363E+03 0.  0.
         25    1    4    4    0    0  0.13046705171E+02  0.66453924033E+02  0.15035163779E+03  0.20697696399E+03  0.12509000000E+03 0.  0.
         25    1    4    4    0    0  0.54658269805E+00  0.17794586603E+02  0.56831367212E+02  0.13854334507E+03  0.12509000000E+03 0.  0.
         25    1    3    3    0    0 -0.13593287869E+02 -0.84248510636E+02  0.31096528057E+03  0.34587498152E+03  0.12509000000E+03 0.  0.
<mgrwt>
<rscale>  2 0.45776610E+03</rscale>
<asrwt>0</asrwt>
<pdfrwt beam="1">  1       21 0.88937026E-01 0.45776610E+03</pdfrwt>
<pdfrwt beam="2">  1       21 0.12738751E-01 0.45776610E+03</pdfrwt>
<totfact> 0.52226212E+04</totfact>
</mgrwt>
</event>
<event>
 6    0  0.4788920E-002  0.4524419E+03  0.7546771E-02  0.1026996E+00
         21   -1    0    0  502  501  0.00000000000E+00  0.00000000000E+00  0.42808417890E+02  0.42808417890E+02  0.00000000000E+00 0. -1.
         21   -1    0    0  501  502 -0.00000000000E+00 -0.00000000000E+00 -0.11954641275E+04  0.11954641275E+04  0.00000000000E+00 0. -1.
      99926    2    1    2    0    0 -0.71054273576E-14  0.00000000000E+00 -0.11526557096E+04  0.12382725454E+04  0.45244194298E+03 0.  0.
         25    1    3    3    0    0  0.26928197455E+02  0.51300125738E+02 -0.26405439011E+03  0.29787423480E+03  0.12509000000E+03 0.  0.
         25    1    3    3    0    0  0.32522546326E+02 -0.90412356285E+02 -0.55724026286E+03  0.57913411991E+03  0.12509000000E+03 0.  0.
         25    1    3    3    0    0 -0.59450743780E+02  0.39112230548E+02 -0.33136105662E+03  0.36126419067E+03  0.12509000000E+03 0.  0.
<mgrwt>
<rscale>  2 0.45244194E+03</rscale>
<asrwt>0</asrwt>
<pdfrwt beam="1">  1       21 0.62953550E-02 0.45244194E+03</pdfrwt>
<pdfrwt beam="2">  1       21 0.17580356E+00 0.45244194E+03</pdfrwt>
<totfact> 0.31585753E+04</totfact>
</mgrwt>
</event>
<event>
 7    0  0.4788920E-002  0.4583291E+03  0.7546771E-02  0.1025267E+00
         21   -1    0    0  502  501  0.00000000000E+00  0.00000000000E+00  0.90002089929E+02  0.90002089929E+02  0.00000000000E+00 0.  1.
         21   -1    0    0  501  502 -0.00000000000E+00 -0.00000000000E+00 -0.58350189483E+03  0.58350189483E+03  0.00000000000E+00 0.  1.
      99926    2    1    2    0    0  0.00000000000E+00  0.35527136788E-14 -0.49349980490E+03  0.67350398476E+03  0.45832909579E+03 0.  0.
      99925    2    3    3    0    0  0.74895074800E+02 -0.16842531421E+02 -0.43797366296E+03  0.51658488576E+03  0.26295640637E+03 0.  0.
         25    1    4    4    0    0  0.31345563282E+02 -0.21560014629E+02 -0.14630121253E+03  0.19621144578E+03  0.12509000000E+03 0.  0.
         25    1    4    4    0    0  0.43549511518E+02  0.47174832082E+01 -0.29167245043E+03  0.32037343997E+03  0.12509000000E+03 0.  0.
         25    1    3    3    0    0 -0.74895074800E+02  0.16842531421E+02 -0.55526141947E+02  0.15691909901E+03  0.12509000000E+03 0.  0.
<mgrwt>
<rscale>  2 0.45832910E+03</rscale>
<asrwt>0</asrwt>
<pdfrwt beam="1">  1       21 0.13235602E-01 0.45832910E+03</pdfrwt>
<pdfrwt beam="2">  1       21 0.85809098E-01 0.45832910E+03</pdfrwt>
<totfact> 0.52962036E+04</totfact>
</mgrwt>
</event>
<event>
 7    0  0.4788920E-002  0.4581128E+03  0.7546771E-02  0.1025330E+00
         21   -1    0    0  502  501  0.00000000000E+00  0.00000000000E+00  0.39673351925E+03  0.39673351925E+03  0.00000000000E+00 0.  1.
         21   -1    0    0  501  502 -0.00000000000E+00 -0.00000000000E+00 -0.13224704997E+03  0.13224704997E+03  0.00000000000E+00 0.  1.
      99926    2    1    2    0    0  0.00000000000E+00 -0.14210854715E-13  0.26448646929E+03  0.52898056922E+03  0.45811281381E+03 0.  0.
      99925    2    3    3    0    0 -0.34353849554E+02 -0.93325392862E+02  0.96837178423E+02  0.29736966973E+03  0.26298567531E+03 0.  0.
         25    1    3    3    0    0  0.34353849554E+02  0.93325392862E+02  0.16764929086E+03  0.23161089948E+03  0.12509000000E+03 0.  0.
         25    1    4    4    0    0 -0.51913407378E+02 -0.69745913862E+02  0.59626893544E+02  0.16359208080E+03  0.12509000000E+03 0.  0.
         25    1    4    4    0    0  0.17559557823E+02 -0.23579479000E+02  0.37210284879E+02  0.13377758894E+03  0.12509000000E+03 0.  0.
<mgrwt>
<rscale>  2 0.45811281E+03</rscale>
<asrwt>0</asrwt>
<pdfrwt beam="1">  1       21 0.58343164E-01 0.45811281E+03</pdfrwt>
<pdfrwt beam="2">  1       21 0.19448096E-01 0.45811281E+03</pdfrwt>
<totfact> 0.61738129E+04</totfact>
</mgrwt>
</event>
<event>
 7    0  0.4788920E-002  0.4568461E+03  0.7546771E-02  0.1025700E+00
         21   -1    0    0  502  501  0.00000000000E+00  0.00000000000E+00  0.88833713056E+03  0.88833713056E+03  0.00000000000E+00 0. -1.
         21   -1    0    0  501  502 -0.00000000000E+00 -0.00000000000E+00 -0.58735694598E+02  0.58735694598E+02  0.00000000000E+00 0. -1.
      99926    2    1    2    0    0  0.14210854715E-13 -0.14210854715E-13  0.82960143596E+03  0.94707282516E+03  0.45684613778E+03 0.  0.
      99925    2    3    3    0    0  0.68623042663E+02 -0.86160456815E+02  0.45325918352E+03  0.53547381475E+03  0.26297447124E+03 0.  0.
         25    1    4    4    0    0  0.53866286925E+02 -0.13249180002E+02  0.18280155035E+03  0.22834410995E+03  0.12509000000E+03 0.  0.
         25    1    3    3    0    0 -0.68623042663E+02  0.86160456815E+02  0.37634225244E+03  0.41159901041E+03  0.12509000000E+03 0.  0.
         25    1    4    4    0    0  0.14756755738E+02 -0.72911276814E+02  0.27045763318E+03  0.30712970480E+03  0.12509000000E+03 0.  0.
<mgrwt>
<rscale>  2 0.45684614E+03</rscale>
<asrwt>0</asrwt>
<pdfrwt beam="1">  1       21 0.13063781E+00 0.45684614E+03</pdfrwt>
<pdfrwt beam="2">  1       21 0.86376027E-02 0.45684614E+03</pdfrwt>
<totfact> 0.40669240E+04</totfact>
</mgrwt>
</event>
<event>
 7    0  0.4788920E-002  0.4490493E+03  0.7546771E-02  0.1028006E+00
         21   -1    0    0  502  501  0.00000000000E+00  0.00000000000E+00  0.22672103156E+03  0.22672103156E+03  0.00000000000E+00 0. -1.
         21   -1    0    0  501  502 -0.00000000000E+00 -0.00000000000E+00 -0.22234958043E+03  0.22234958043E+03  0.00000000000E+00 0. -1.
      99926    2    1    2    0    0 -0.71054273576E-14 -0.14210854715E-13  0.43714511280E+01  0.44907061200E+03  0.44904933468E+03 0.  0.
      99925    2    3    3    0    0 -0.62846117113E+02 -0.87043869908E+02  0.68592851493E+01  0.28420713168E+03  0.26305963996E+03 0.  0.
         25    1    3    3    0    0  0.62846117113E+02  0.87043869908E+02 -0.24878340213E+01  0.16486348032E+03  0.12509000000E+03 0.  0.
         25    1    4    4    0    0 -0.43553284321E+02 -0.45630012241E+02 -0.35386805476E+02  0.14449470819E+03  0.12509000000E+03 0.  0.
         25    1    4    4    0    0 -0.19292832791E+02 -0.41413857668E+02  0.42246090625E+02  0.13971242349E+03  0.12509000000E+03 0.  0.
<mgrwt>
<rscale>  2 0.44904933E+03</rscale>
<asrwt>0</asrwt>
<pdfrwt beam="1">  1       21 0.33341328E-01 0.44904933E+03</pdfrwt>
<pdfrwt beam="2">  1       21 0.32698468E-01 0.44904933E+03</pdfrwt>
<totfact> 0.72357363E+04</totfact>
</mgrwt>
</event>
<event>
 7    0  0.4788920E-002  0.4537235E+03  0.7546771E-02  0.1026617E+00
         21   -1    0    0  502  501  0.00000000000E+00  0.00000000000E+00  0.22208393465E+03  0.22208393465E+03  0.00000000000E+00 0.  1.
         21   -1    0    0  501  502 -0.00000000000E+00 -0.00000000000E+00 -0.23174237040E+03  0.23174237040E+03  0.00000000000E+00 0.  1.
      99926    2    1    2    0    0  0.00000000000E+00  0.14210854715E-13 -0.96584357491E+01  0.45382630505E+03  0.45372351688E+03 0.  0.
      99925    2    3    3    0    0  0.68272637748E+02 -0.88030309008E+02 -0.17360461363E+02  0.28614411259E+03  0.26299539765E+03 0.  0.
         25    1    4    4    0    0  0.62072524231E+02 -0.64389346578E+02 -0.34342825646E+02  0.15756244473E+03  0.12509000000E+03 0.  0.
         25    1    4    4    0    0  0.62001135165E+01 -0.23640962430E+02  0.16982364282E+02  0.12858166786E+03  0.12509000000E+03 0.  0.
         25    1    3    3    0    0 -0.68272637748E+02  0.88030309008E+02  0.77020256142E+01  0.16768219246E+03  0.12509000000E+03 0.  0.
<mgrwt>
<rscale>  2 0.45372352E+03</rscale>
<asrwt>0</asrwt>
<pdfrwt beam="1">  1       21 0.32659402E-01 0.45372352E+03</pdfrwt>
<pdfrwt beam="2">  1       21 0.34079760E-01 0.45372352E+03</pdfrwt>
<totfact> 0.69335359E+04</totfact>
</mgrwt>
</event>
<event>
 7    0  0.4788920E-002  0.4641090E+03  0.7546771E-02  0.1023596E+00
         21   -1    0    0  502  501  0.00000000000E+00  0.00000000000E+00  0.10171353205E+03  0.10171353205E+03  0.00000000000E+00 0. -1.
         21   -1    0    0  501  502 -0.00000000000E+00 -0.00000000000E+00 -0.52942113287E+03  0.52942113287E+03  0.00000000000E+00 0. -1.
      99926    2    1    2    0    0  0.00000000000E+00  0.00000000000E+00 -0.42770760082E+03  0.63113466492E+03  0.46410901033E+03 0.  0.
      99925    2    3    3    0    0 -0.77511387407E+01  0.11849404638E+03 -0.23216981741E+03  0.37039829994E+03  0.26304212079E+03 0.  0.
         25    1    3    3    0    0  0.77511387407E+01 -0.11849404638E+03 -0.19553778341E+03  0.26073636497E+03  0.12509000000E+03 0.  0.
         25    1    4    4    0    0 -0.13811564668E+02  0.59916662190E+02 -0.65969804421E+02  0.15420858900E+03  0.12509000000E+03 0.  0.
         25    1    4    4    0    0  0.60604259277E+01  0.58577384189E+02 -0.16620001299E+03  0.21618971094E+03  0.12509000000E+03 0.  0.
<mgrwt>
<rscale>  2 0.46410901E+03</rscale>
<asrwt>0</asrwt>
<pdfrwt beam="1">  1       21 0.14957872E-01 0.46410901E+03</pdfrwt>
<pdfrwt beam="2">  1       21 0.77856050E-01 0.46410901E+03</pdfrwt>
<totfact> 0.52894187E+04</totfact>
</mgrwt>
</event>
<event>
 7    0  0.4788920E-002  0.4546232E+03  0.7546771E-02  0.1026352E+00
         21   -1    0    0  502  501  0.00000000000E+00  0.00000000000E+00  0.84558245412E+02  0.84558245412E+02  0.00000000000E+00 0. -1.
         21   -1    0    0  501  502 -0.00000000000E+00 -0.00000000000E+00 -0.61106462680E+03  0.61106462680E+03  0.00000000000E+00 0. -1.
      99926    2    1    2    0    0  0.00000000000E+00  0.00000000000E+00 -0.52650638139E+03  0.69562287221E+03  0.45462315241E+03 0.  0.
      99925    2    3    3    0    0 -0.11015389110E+03  0.23597976449E+02 -0.32032839093E+03  0.42945071727E+03  0.26291994278E+03 0.  0.
         25    1    4    4    0    0 -0.65538392224E+02  0.17670003682E+02 -0.10686371132E+03  0.17797435429E+03  0.12509000000E+03 0.  0.
         25    1    4    4    0    0 -0.44615498876E+02  0.59279727669E+01 -0.21346467960E+03  0.25147636298E+03  0.12509000000E+03 0.  0.
         25    1    3    3    0    0  0.11015389110E+03 -0.23597976449E+02 -0.20617799046E+03  0.26617215494E+03  0.12509000000E+03 0.  0.
<mgrwt>
<rscale>  2 0.45462315E+03</rscale>
<asrwt>0</asrwt>
<pdfrwt beam="1">  1       21 0.12435036E-01 0.45462315E+03</pdfrwt>
<pdfrwt beam="2">  1       21 0.89862445E-01 0.45462315E+03</pdfrwt>
<totfact> 0.53299190E+04</totfact>
</mgrwt>
</event>
<event>
 7    0  0.4788920E-002  0.4655234E+03  0.7546771E-02  0.1023191E+00
         21   -1    0    0  502  501  0.00000000000E+00  0.00000000000E+00  0.87325853505E+03  0.87325853505E+03  0.00000000000E+00 0.  1.
         21   -1    0    0  501  502 -0.00000000000E+00 -0.00000000000E+00 -0.62041211512E+02  0.62041211512E+02  0.00000000000E+00 0.  1.
      99926    2    1    2    0    0  0.71054273576E-14  0.14210854715E-13  0.81121732353E+03  0.93529974656E+03  0.46552343648E+03 0.  0.
      99925    2    3    3    0    0  0.41158277535E+02  0.92496746422E+02  0.64530020015E+03  0.70415984987E+03  0.26301918932E+03 0.  0.
         25    1    4    4    0    0  0.20209814347E+02  0.47254646657E+02  0.22190968248E+03  0.25987084004E+03  0.12509000000E+03 0.  0.
         25    1    4    4    0    0  0.20948463188E+02  0.45242099765E+02  0.42339051767E+03  0.44428900983E+03  0.12509000000E+03 0.  0.
         25    1    3    3    0    0 -0.41158277535E+02 -0.92496746422E+02  0.16591712339E+03  0.23113989669E+03  0.12509000000E+03 0.  0.
<mgrwt>
<rscale>  2 0.46552344E+03</rscale>
<asrwt>0</asrwt>
<pdfrwt beam="1">  1       21 0.12842037E+00 0.46552344E+03</pdfrwt>
<pdfrwt beam="2">  1       21 0.91237081E-02 0.46552344E+03</pdfrwt>
<totfact> 0.38475028E+04</totfact>
</mgrwt>
</event>
<event>
 7    0  0.4788920E-002  0.4596706E+03  0.7546771E-02  0.1024877E+00
         21   -1    0    0  502  501  0.00000000000E+00  0.00000000000E+00  0.51635030099E+02  0.51635030099E+02  0.00000000000E+00 0. -1.
         21   -1    0    0  501  502 -0.00000000000E+00 -0.00000000000E+00 -0.10230317687E+04  0.10230317687E+04  0.00000000000E+00 0. -1.
      99926    2    1    2    0    0  0.00000000000E+00  0.00000000000E+00 -0.97139673862E+03  0.10746667988E+04  0.45967064805E+03 0.  0.
      99925    2    3    3    0    0 -0.94689087494E+02 -0.68980922886E+02 -0.63203142738E+03  0.69448169444E+03  0.26290056621E+03 0.  0.
         25    1    4    4    0    0 -0.30677741316E+02 -0.66238591830E+02 -0.27551295198E+03  0.31126125630E+03  0.12509000000E+03 0.  0.
         25    1    3    3    0    0  0.94689087494E+02  0.68980922886E+02 -0.33936531125E+03  0.38018510438E+03  0.12509000000E+03 0.  0.
         25    1    4    4    0    0 -0.64011346179E+02 -0.27423310554E+01 -0.35651847539E+03  0.38322043815E+03  0.12509000000E+03 0.  0.
<mgrwt>
<rscale>  2 0.45967065E+03</rscale>
<asrwt>0</asrwt>
<pdfrwt beam="1">  1       21 0.75933871E-02 0.45967065E+03</pdfrwt>
<pdfrwt beam="2">  1       21 0.15044584E+00 0.45967065E+03</pdfrwt>
<totfact> 0.35088708E+04</totfact>
</mgrwt>
</event>
<event>
 7    0  0.4788920E-002  0.4568679E+03  0.7546771E-02  0.1025694E+00
         21   -1    0    0  502  501  0.00000000000E+00  0.00000000000E+00  0.34776244581E+03  0.34776244581E+03  0.00000000000E+00 0. -1.
         21   -1    0    0  501  502 -0.00000000000E+00 -0.00000000000E+00 -0.15005091224E+03  0.15005091224E+03  0.00000000000E+00 0. -1.
      99926    2    1    2    0    0  0.35527136788E-14 -0.88817841970E-15  0.19771153357E+03  0.49781335805E+03  0.45686791193E+03 0.  0.
      99925    2    3    3    0    0 -0.23194939827E+02  0.77407947865E+01  0.86468928147E+00  0.26330512079E+03  0.26216581358E+03 0.  0.
         25    1    4    4    0    0 -0.28438970595E+02  0.16716364837E+02  0.33454231368E+02  0.13362224964E+03  0.12509000000E+03 0.  0.
         25    1    3    3    0    0  0.23194939827E+02 -0.77407947865E+01  0.19684684429E+03  0.23450823727E+03  0.12509000000E+03 0.  0.
         25    1    4    4    0    0  0.52440307681E+01 -0.89755700504E+01 -0.32589542087E+02  0.12968287115E+03  0.12509000000E+03 0.  0.
<mgrwt>
<rscale>  2 0.45686791E+03</rscale>
<asrwt>0</asrwt>
<pdfrwt beam="1">  1       21 0.51141536E-01 0.45686791E+03</pdfrwt>
<pdfrwt beam="2">  1       21 0.22066311E-01 0.45686791E+03</pdfrwt>
<totfact> 0.64463358E+04</totfact>
</mgrwt>
</event>
<event>
 7    0  0.4788920E-002  0.4184346E+03  0.7546771E-02  0.1037577E+00
         21   -1    0    0  502  501  0.00000000000E+00  0.00000000000E+00  0.54720447405E+02  0.54720447405E+02  0.00000000000E+00 0.  1.
         21   -1    0    0  501  502 -0.00000000000E+00 -0.00000000000E+00 -0.79991831646E+03  0.79991831646E+03  0.00000000000E+00 0.  1.
      99926    2    1    2    0    0  0.00000000000E+00 -0.71054273576E-14 -0.74519786905E+03  0.85463876386E+03  0.41843464562E+03 0.  0.
      99925    2    3    3    0    0 -0.23804148156E+02  0.63314157367E+02 -0.42725196491E+03  0.50633942988E+03  0.26317305473E+03 0.  0.
         25    1    4    4    0    0  0.68935968157E+01  0.50474629179E+02 -0.15996654465E+03  0.20936096431E+03  0.12509000000E+03 0.  0.
         25    1    3    3    0    0  0.23804148156E+02 -0.63314157367E+02 -0.31794590414E+03  0.34829933398E+03  0.12509000000E+03 0.  0.
         25    1    4    4    0    0 -0.30697744971E+02  0.12839528188E+02 -0.26728542026E+03  0.29697846557E+03  0.12509000000E+03 0.  0.
<mgrwt>
<rscale>  2 0.41843465E+03</rscale>
<asrwt>0</asrwt>
<pdfrwt beam="1">  1       21 0.80471255E-02 0.41843465E+03</pdfrwt>
<pdfrwt beam="2">  1       21 0.11763503E+00 0.41843465E+03</pdfrwt>
<totfact> 0.60905696E+04</totfact>
</mgrwt>
</event>
<event>
 7    0  0.4788920E-002  0.4544848E+03  0.7546771E-02  0.1026393E+00
         21   -1    0    0  502  501  0.00000000000E+00  0.00000000000E+00  0.92537258902E+02  0.92537258902E+02  0.00000000000E+00 0. -1.
         21   -1    0    0  501  502 -0.00000000000E+00 -0.00000000000E+00 -0.55803590914E+03  0.55803590914E+03  0.00000000000E+00 0. -1.
      99926    2    1    2    0    0  0.00000000000E+00  0.00000000000E+00 -0.46549865024E+03  0.65057316805E+03  0.45448482219E+03 0.  0.
      99925    2    3    3    0    0 -0.71218119238E+02  0.37400701679E+02 -0.18005548183E+03  0.32870962011E+03  0.26298137733E+03 0.  0.
         25    1    3    3    0    0  0.71218119238E+02 -0.37400701679E+02 -0.28544316842E+03  0.32186354794E+03  0.12509000000E+03 0.  0.
         25    1    4    4    0    0 -0.21822808253E+02  0.47949878105E+02 -0.61093328896E+02  0.14884666172E+03  0.12509000000E+03 0.  0.
         25    1    4    4    0    0 -0.49395310985E+02 -0.10549176425E+02 -0.11896215293E+03  0.17986295839E+03  0.12509000000E+03 0.  0.
<mgrwt>
<rscale>  2 0.45448482E+03</rscale>
<asrwt>0</asrwt>
<pdfrwt beam="1">  1       21 0.13608420E-01 0.45448482E+03</pdfrwt>
<pdfrwt beam="2">  1       21 0.82064107E-01 0.45448482E+03</pdfrwt>
<totfact> 0.55895301E+04</totfact>
</mgrwt>
</event>
<event>
 7    0  0.4788920E-002  0.4708046E+03  0.7546771E-02  0.1021693E+00
         21   -1    0    0  502  501  0.00000000000E+00  0.00000000000E+00  0.24677583289E+03  0.24677583289E+03  0.00000000000E+00 0. -1.
         21   -1    0    0  501  502 -0.00000000000E+00 -0.00000000000E+00 -0.22455291062E+03  0.22455291062E+03  0.00000000000E+00 0. -1.
      99926    2    1    2    0    0  0.00000000000E+00  0.00000000000E+00  0.22222922275E+02  0.47132874351E+03  0.47080455200E+03 0.  0.
      99925    2    3    3    0    0  0.78718491644E+02  0.96604537132E+02  0.40034176565E+02  0.29386385571E+03  0.26310490851E+03 0.  0.
         25    1    4    4    0    0  0.66548664607E+02  0.21594365064E+02  0.34375873413E+02  0.14739148597E+03  0.12509000000E+03 0.  0.
         25    1    4    4    0    0  0.12169827037E+02  0.75010172068E+02  0.56583031514E+01  0.14647236974E+03  0.12509000000E+03 0.  0.
         25    1    3    3    0    0 -0.78718491644E+02 -0.96604537132E+02 -0.17811254289E+02  0.17746488780E+03  0.12509000000E+03 0.  0.
<mgrwt>
<rscale>  2 0.47080455E+03</rscale>
<asrwt>0</asrwt>
<pdfrwt beam="1">  1       21 0.36290564E-01 0.47080455E+03</pdfrwt>
<pdfrwt beam="2">  1       21 0.33022487E-01 0.47080455E+03</pdfrwt>
<totfact> 0.59501038E+04</totfact>
</mgrwt>
</event>
<event>
 7    0  0.4788920E-002  0.4531247E+03  0.7546771E-02  0.1026794E+00
         21   -1    0    0  502  501  0.00000000000E+00  0.00000000000E+00  0.56647152075E+03  0.56647152075E+03  0.00000000000E+00 0.  1.
         21   -1    0    0  501  502 -0.00000000000E+00 -0.00000000000E+00 -0.90614441728E+02  0.90614441728E+02  0.00000000000E+00 0.  1.
      99926    2    1    2    0    0  0.00000000000E+00  0.00000000000E+00  0.47585707903E+03  0.65708596248E+03  0.45312470958E+03 0.  0.
      99925    2    3    3    0    0  0.39539850076E+02  0.33294107866E+02  0.15778637531E+03  0.31141505248E+03  0.26345947945E+03 0.  0.
         25    1    3    3    0    0 -0.39539850076E+02 -0.33294107866E+02  0.31807070371E+03  0.34567091000E+03  0.12509000000E+03 0.  0.
         25    1    4    4    0    0  0.18985520770E+02  0.55811222542E+02  0.65555264389E+02  0.15303706528E+03  0.12509000000E+03 0.  0.
         25    1    4    4    0    0  0.20554329306E+02 -0.22517114676E+02  0.92231110925E+02  0.15837798720E+03  0.12509000000E+03 0.  0.
<mgrwt>
<rscale>  2 0.45312471E+03</rscale>
<asrwt>0</asrwt>
<pdfrwt beam="1">  1       21 0.83304634E-01 0.45312471E+03</pdfrwt>
<pdfrwt beam="2">  1       21 0.13325653E-01 0.45312471E+03</pdfrwt>
<totfact> 0.56120370E+04</totfact>
</mgrwt>
</event>
<event>
 7    0  0.4788920E-002  0.4531655E+03  0.7546771E-02  0.1026782E+00
         21   -1    0    0  502  501  0.00000000000E+00  0.00000000000E+00  0.39726511396E+02  0.39726511396E+02  0.00000000000E+00 0. -1.
         21   -1    0    0  501  502 -0.00000000000E+00 -0.00000000000E+00 -0.12923292160E+04  0.12923292160E+04  0.00000000000E+00 0. -1.
      99926    2    1    2    0    0  0.00000000000E+00  0.44408920985E-15 -0.12526027046E+04  0.13320557274E+04  0.45316545026E+03 0.  0.
      99925    2    3    3    0    0 -0.10903644969E+03 -0.36002738292E+01 -0.85129679737E+03  0.89777949202E+03  0.26343855023E+03 0.  0.
         25    1    4    4    0    0 -0.96239473570E+02 -0.16208593550E+02 -0.48584428244E+03  0.51109385602E+03  0.12509000000E+03 0.  0.
         25    1    3    3    0    0  0.10903644969E+03  0.36002738292E+01 -0.40130590726E+03  0.43427623540E+03  0.12509000000E+03 0.  0.
         25    1    4    4    0    0 -0.12796976118E+02  0.12608319721E+02 -0.36545251493E+03  0.38668563601E+03  0.12509000000E+03 0.  0.
<mgrwt>
<rscale>  2 0.45316545E+03</rscale>
<asrwt>0</asrwt>
<pdfrwt beam="1">  1       21 0.58421341E-02 0.45316545E+03</pdfrwt>
<pdfrwt beam="2">  1       21 0.19004841E+00 0.45316545E+03</pdfrwt>
<totfact> 0.28603646E+04</totfact>
</mgrwt>
</event>
<event>
 7    0  0.4788920E-002  0.4550805E+03  0.7546771E-02  0.1026218E+00
         21   -1    0    0  502  501  0.00000000000E+00  0.00000000000E+00  0.29750039282E+03  0.29750039282E+03  0.00000000000E+00 0.  1.
         21   -1    0    0  501  502 -0.00000000000E+00 -0.00000000000E+00 -0.17403189247E+03  0.17403189247E+03  0.00000000000E+00 0.  1.
      99926    2    1    2    0    0  0.00000000000E+00  0.00000000000E+00  0.12346850035E+03  0.47153228528E+03  0.45508046045E+03 0.  0.
      99925    2    3    3    0    0 -0.32115288777E+02 -0.10355999254E+03  0.43839424870E+02  0.28783590103E+03  0.26300484201E+03 0.  0.
         25    1    4    4    0    0 -0.29813674657E+02 -0.11846113046E+02  0.25463395892E+02  0.13162476295E+03  0.12509000000E+03 0.  0.
         25    1    4    4    0    0 -0.23016141208E+01 -0.91713879490E+02  0.18376028978E+02  0.15621113808E+03  0.12509000000E+03 0.  0.
         25    1    3    3    0    0  0.32115288777E+02  0.10355999254E+03  0.79629075480E+02  0.18369638426E+03  0.12509000000E+03 0.  0.
<mgrwt>
<rscale>  2 0.45508046E+03</rscale>
<asrwt>0</asrwt>
<pdfrwt beam="1">  1       21 0.43750058E-01 0.45508046E+03</pdfrwt>
<pdfrwt beam="2">  1       21 0.25592925E-01 0.45508046E+03</pdfrwt>
<totfact> 0.67278973E+04</totfact>
</mgrwt>
</event>
<event>
 7    0  0.4788920E-002  0.4529420E+03  0.7546771E-02  0.1026848E+00
         21   -1    0    0  502  501  0.00000000000E+00  0.00000000000E+00  0.46929218591E+03  0.46929218591E+03  0.00000000000E+00 0. -1.
         21   -1    0    0  501  502 -0.00000000000E+00 -0.00000000000E+00 -0.10929038554E+03  0.10929038554E+03  0.00000000000E+00 0. -1.
      99926    2    1    2    0    0  0.14210854715E-13  0.00000000000E+00  0.36000180037E+03  0.57858257145E+03  0.45294204455E+03 0.  0.
      99925    2    3    3    0    0  0.95454727912E+02  0.30860133047E+02  0.16574998951E+03  0.32669921151E+03  0.26305011479E+03 0.  0.
         25    1    4    4    0    0  0.31444072969E+02  0.48221058680E+02  0.10232506028E+03  0.17155735567E+03  0.12509000000E+03 0.  0.
         25    1    4    4    0    0  0.64010654943E+02 -0.17360925634E+02  0.63424929227E+02  0.15514185584E+03  0.12509000000E+03 0.  0.
         25    1    3    3    0    0 -0.95454727912E+02 -0.30860133047E+02  0.19425181086E+03  0.25188335994E+03  0.12509000000E+03 0.  0.
<mgrwt>
<rscale>  2 0.45294204E+03</rscale>
<asrwt>0</asrwt>
<pdfrwt beam="1">  1       21 0.69013556E-01 0.45294204E+03</pdfrwt>
<pdfrwt beam="2">  1       21 0.16072116E-01 0.45294204E+03</pdfrwt>
<totfact> 0.61002800E+04</totfact>
</mgrwt>
</event>
<event>
 7    0  0.4788920E-002  0.4456244E+03  0.7546771E-02  0.1029035E+00
         21   -1    0    0  502  501  0.00000000000E+00  0.00000000000E+00  0.87784034621E+03  0.87784034621E+03  0.00000000000E+00 0.  1.
         21   -1    0    0  501  502 -0.00000000000E+00 -0.00000000000E+00 -0.56553877646E+02  0.56553877646E+02  0.00000000000E+00 0.  1.
      99926    2    1    2    0    0 -0.14210854715E-13  0.00000000000E+00  0.82128646857E+03  0.93439422386E+03  0.44562439580E+03 0.  0.
      99925    2    3    3    0    0  0.99317708558E+02  0.24805960900E+02  0.56251047749E+03  0.62928462947E+03  0.26287214511E+03 0.  0.
         25    1    3    3    0    0 -0.99317708558E+02 -0.24805960900E+02  0.25877599107E+03  0.30510959438E+03  0.12509000000E+03 0.  0.
         25    1    4    4    0    0  0.82629037899E+02  0.19323406799E+02  0.36214589788E+03  0.39242593111E+03  0.12509000000E+03 0.  0.
         25    1    4    4    0    0  0.16688670659E+02  0.54825541009E+01  0.20036457961E+03  0.23685869836E+03  0.12509000000E+03 0.  0.
<mgrwt>
<rscale>  2 0.44562440E+03</rscale>
<asrwt>0</asrwt>
<pdfrwt beam="1">  1       21 0.12909416E+00 0.44562440E+03</pdfrwt>
<pdfrwt beam="2">  1       21 0.83167472E-02 0.44562440E+03</pdfrwt>
<totfact> 0.44988669E+04</totfact>
</mgrwt>
</event>
<event>
 7    0  0.4788920E-002  0.4570492E+03  0.7546771E-02  0.1025641E+00
         21   -1    0    0  502  501  0.00000000000E+00  0.00000000000E+00  0.16906899452E+03  0.16906899452E+03  0.00000000000E+00 0. -1.
         21   -1    0    0  501  502 -0.00000000000E+00 -0.00000000000E+00 -0.30888862486E+03  0.30888862486E+03  0.00000000000E+00 0. -1.
      99926    2    1    2    0    0  0.00000000000E+00  0.00000000000E+00 -0.13981963034E+03  0.47795761938E+03  0.45704918433E+03 0.  0.
      99925    2    3    3    0    0  0.24202521992E+02 -0.11073867707E+03 -0.67255874454E+02  0.29421371217E+03  0.26303904483E+03 0.  0.
         25    1    3    3    0    0 -0.24202521992E+02  0.11073867707E+03 -0.72563755886E+02  0.18374390722E+03  0.12509000000E+03 0.  0.
         25    1    4    4    0    0  0.11176946178E+02 -0.69786469705E+02 -0.74320243063E+02  0.16175933392E+03  0.12509000000E+03 0.  0.
         25    1    4    4    0    0  0.13025575815E+02 -0.40952207369E+02  0.70643686096E+01  0.13245437825E+03  0.12509000000E+03 0.  0.
<mgrwt>
<rscale>  2 0.45704918E+03</rscale>
<asrwt>0</asrwt>
<pdfrwt beam="1">  1       21 0.24863088E-01 0.45704918E+03</pdfrwt>
<pdfrwt beam="2">  1       21 0.45424797E-01 0.45704918E+03</pdfrwt>
<totfact> 0.65772859E+04</totfact>
</mgrwt>
</event>
<event>
 7    0  0.4788920E-002  0.4510552E+03  0.7546771E-02  0.1027408E+00
         21   -1    0    0  502  501  0.00000000000E+00  0.00000000000E+00  0.63170934667E+02  0.63170934667E+02  0.00000000000E+00 0. -1.
         21   -1    0    0  501  502 -0.00000000000E+00 -0.00000000000E+00 -0.80515974223E+03  0.80515974223E+03  0.00000000000E+00 0. -1.
      99926    2    1    2    0    0 -0.35527136788E-14  0.14210854715E-13 -0.74198880757E+03  0.86833067690E+03  0.45105517833E+03 0.  0.
      99925    2    3    3    0    0  0.30243852748E+02 -0.10346676531E+03 -0.50456361758E+03  0.57912782233E+03  0.26302951975E+03 0.  0.
         25    1    3    3    0    0 -0.30243852748E+02  0.10346676531E+03 -0.23742518999E+03  0.28920285458E+03  0.12509000000E+03 0.  0.
         25    1    4    4    0    0  0.32681289513E+02 -0.75975499407E+02 -0.21127421810E+03  0.25908424600E+03  0.12509000000E+03 0.  0.
         25    1    4    4    0    0 -0.24374367642E+01 -0.27491265901E+02 -0.29328939948E+03  0.32004357632E+03  0.12509000000E+03 0.  0.
<mgrwt>
<rscale>  2 0.45105518E+03</rscale>
<asrwt>0</asrwt>
<pdfrwt beam="1">  1       21 0.92898431E-02 0.45105518E+03</pdfrwt>
<pdfrwt beam="2">  1       21 0.11840585E+00 0.45105518E+03</pdfrwt>
<totfact> 0.46037517E+04</totfact>
</mgrwt>
</event>
<event>
 7    0  0.4788920E-002  0.4575445E+03  0.7546771E-02  0.1025496E+00
         21   -1    0    0  502  501  0.00000000000E+00  0.00000000000E+00  0.83045806308E+03  0.83045806308E+03  0.00000000000E+00 0.  1.
         21   -1    0    0  501  502 -0.00000000000E+00 -0.00000000000E+00 -0.63021528429E+02  0.63021528429E+02  0.00000000000E+00 0.  1.
      99926    2    1    2    0    0  0.00000000000E+00 -0.14210854715E-13  0.76743653465E+03  0.89347959151E+03  0.45754447404E+03 0.  0.
      99925    2    3    3    0    0 -0.65023178706E+02  0.78930721350E+02  0.58690529242E+03  0.65120472681E+03  0.26296711089E+03 0.  0.
         25    1    3    3    0    0  0.65023178706E+02 -0.78930721350E+02  0.18053124223E+03  0.24227486470E+03  0.12509000000E+03 0.  0.
         25    1    4    4    0    0 -0.13056081062E+02  0.27555184197E+01  0.28927557936E+03  0.31544559443E+03  0.12509000000E+03 0.  0.
         25    1    4    4    0    0 -0.51967097644E+02  0.76175202930E+02  0.29762971306E+03  0.33575913238E+03  0.12509000000E+03 0.  0.
<mgrwt>
<rscale>  2 0.45754447E+03</rscale>
<asrwt>0</asrwt>
<pdfrwt beam="1">  1       21 0.12212618E+00 0.45754447E+03</pdfrwt>
<pdfrwt beam="2">  1       21 0.92678723E-02 0.45754447E+03</pdfrwt>
<totfact> 0.42660472E+04</totfact>
</mgrwt>
</event>
<event>
 7    0  0.4788920E-002  0.4473739E+03  0.7546771E-02  0.1028508E+00
         21   -1    0    0  502  501  0.00000000000E+00  0.00000000000E+00  0.12260303123E+04  0.12260303123E+04  0.00000000000E+00 0.  1.
         21   -1    0    0  501  502 -0.00000000000E+00 -0.00000000000E+00 -0.40811265990E+02  0.40811265990E+02  0.00000000000E+00 0.  1.
      99926    2    1    2    0    0  0.00000000000E+00 -0.71054273576E-14  0.11852190463E+04  0.12668415783E+04  0.44737388921E+03 0.  0.
      99925    2    3    3    0    0  0.97215493246E+02  0.40485447297E+02  0.71959849393E+03  0.77334392838E+03  0.26296181381E+03 0.  0.
         25    1    4    4    0    0  0.43608660008E+02  0.55583450034E+02  0.42127365952E+03  0.44509576435E+03  0.12509000000E+03 0.  0.
         25    1    4    4    0    0  0.53606833238E+02 -0.15098002738E+02  0.29832483441E+03  0.32824816402E+03  0.12509000000E+03 0.  0.
         25    1    3    3    0    0 -0.97215493246E+02 -0.40485447297E+02  0.46562055241E+03  0.49349764994E+03  0.12509000000E+03 0.  0.
<mgrwt>
<rscale>  2 0.44737389E+03</rscale>
<asrwt>0</asrwt>
<pdfrwt beam="1">  1       21 0.18029855E+00 0.44737389E+03</pdfrwt>
<pdfrwt beam="2">  1       21 0.60016576E-02 0.44737389E+03</pdfrwt>
<totfact> 0.31947031E+04</totfact>
</mgrwt>
</event>
<event>
 7    0  0.4788920E-002  0.4535257E+03  0.7546771E-02  0.1026676E+00
         21   -1    0    0  502  501  0.00000000000E+00  0.00000000000E+00  0.25798442646E+03  0.25798442646E+03  0.00000000000E+00 0.  1.
         21   -1    0    0  501  502 -0.00000000000E+00 -0.00000000000E+00 -0.19931976218E+03  0.19931976218E+03  0.00000000000E+00 0.  1.
      99926    2    1    2    0    0  0.00000000000E+00  0.00000000000E+00  0.58664664282E+02  0.45730418865E+03  0.45352571936E+03 0.  0.
      99925    2    3    3    0    0 -0.80921873096E+02  0.43694615182E+02 -0.26805044956E+02  0.28007510458E+03  0.26318431722E+03 0.  0.
         25    1    4    4    0    0 -0.27676332139E+02  0.41725978133E+02 -0.46826667809E+02  0.14264389763E+03  0.12509000000E+03 0.  0.
         25    1    3    3    0    0  0.80921873096E+02 -0.43694615182E+02  0.85469709238E+02  0.17722908407E+03  0.12509000000E+03 0.  0.
         25    1    4    4    0    0 -0.53245540958E+02  0.19686370494E+01  0.20021622853E+02  0.13743120696E+03  0.12509000000E+03 0.  0.
<mgrwt>
<rscale>  2 0.45352572E+03</rscale>
<asrwt>0</asrwt>
<pdfrwt beam="1">  1       21 0.37938886E-01 0.45352572E+03</pdfrwt>
<pdfrwt beam="2">  1       21 0.29311730E-01 0.45352572E+03</pdfrwt>
<totfact> 0.69187339E+04</totfact>
</mgrwt>
</event>
<event>
 7    0  0.4788920E-002  0.4553192E+03  0.7546771E-02  0.1026148E+00
         21   -1    0    0  502  501  0.00000000000E+00  0.00000000000E+00  0.10581837732E+04  0.10581837732E+04  0.00000000000E+00 0. -1.
         21   -1    0    0  501  502 -0.00000000000E+00 -0.00000000000E+00 -0.48979106827E+02  0.48979106827E+02  0.00000000000E+00 0. -1.
      99926    2    1    2    0    0  0.00000000000E+00  0.00000000000E+00  0.10092046664E+04  0.11071628800E+04  0.45531921141E+03 0.  0.
      99925    2    3    3    0    0  0.83981791975E+02  0.20560526829E+02  0.81097116966E+03  0.85732352371E+03  0.26429852372E+03 0.  0.
         25    1    4    4    0    0  0.67085623234E+02 -0.63108139697E+01  0.32892289342E+03  0.35829887682E+03  0.12509000000E+03 0.  0.
         25    1    3    3    0    0 -0.83981791975E+02 -0.20560526829E+02  0.19823349673E+03  0.24983935633E+03  0.12509000000E+03 0.  0.
         25    1    4    4    0    0  0.16896168741E+02  0.26871340799E+02  0.48204827624E+03  0.49902464688E+03  0.12509000000E+03 0.  0.
<mgrwt>
<rscale>  2 0.45531921E+03</rscale>
<asrwt>0</asrwt>
<pdfrwt beam="1">  1       21 0.15561525E+00 0.45531921E+03</pdfrwt>
<pdfrwt beam="2">  1       21 0.72028105E-02 0.45531921E+03</pdfrwt>
<totfact> 0.35157505E+04</totfact>
</mgrwt>
</event>
<event>
 7    0  0.4788920E-002  0.4493692E+03  0.7546771E-02  0.1027910E+00
         21   -1    0    0  502  501  0.00000000000E+00  0.00000000000E+00  0.58764369632E+02  0.58764369632E+02  0.00000000000E+00 0. -1.
         21   -1    0    0  501  502 -0.00000000000E+00 -0.00000000000E+00 -0.85907780604E+03  0.85907780604E+03  0.00000000000E+00 0. -1.
      99926    2    1    2    0    0  0.00000000000E+00  0.00000000000E+00 -0.80031343640E+03  0.91784217567E+03  0.44936918335E+03 0.  0.
      99925    2    3    3    0    0  0.39043970599E+02 -0.87342137697E+02 -0.40353890039E+03  0.49095738888E+03  0.26275926799E+03 0.  0.
         25    1    3    3    0    0 -0.39043970599E+02  0.87342137697E+02 -0.39677453602E+03  0.42688478679E+03  0.12509000000E+03 0.  0.
         25    1    4    4    0    0  0.17928671717E+02 -0.13718721927E+02 -0.13812893786E+03  0.18771454971E+03  0.12509000000E+03 0.  0.
         25    1    4    4    0    0  0.21115298882E+02 -0.73623415771E+02 -0.26540996253E+03  0.30324283917E+03  0.12509000000E+03 0.  0.
<mgrwt>
<rscale>  2 0.44936918E+03</rscale>
<asrwt>0</asrwt>
<pdfrwt beam="1">  1       21 0.86418198E-02 0.44936918E+03</pdfrwt>
<pdfrwt beam="2">  1       21 0.12633496E+00 0.44936918E+03</pdfrwt>
<totfact> 0.44394679E+04</totfact>
</mgrwt>
</event>
<event>
 7    0  0.4788920E-002  0.4504218E+03  0.7546771E-02  0.1027596E+00
         21   -1    0    0  502  501  0.00000000000E+00  0.00000000000E+00  0.34300587969E+03  0.34300587969E+03  0.00000000000E+00 0. -1.
         21   -1    0    0  501  502 -0.00000000000E+00 -0.00000000000E+00 -0.14786902072E+03  0.14786902072E+03  0.00000000000E+00 0. -1.
      99926    2    1    2    0    0  0.00000000000E+00  0.00000000000E+00  0.19513685897E+03  0.49087490042E+03  0.45042177360E+03 0.  0.
      99925    2    3    3    0    0 -0.83620521641E+02  0.68305560365E+02  0.10886623471E+03  0.30446629030E+03  0.26303958571E+03 0.  0.
         25    1    4    4    0    0 -0.44667234066E+02  0.55769243859E+02  0.94004610641E+02  0.17201670059E+03  0.12509000000E+03 0.  0.
         25    1    3    3    0    0  0.83620521641E+02 -0.68305560365E+02  0.86270624258E+02  0.18640861012E+03  0.12509000000E+03 0.  0.
         25    1    4    4    0    0 -0.38953287574E+02  0.12536316506E+02  0.14861624069E+02  0.13244958971E+03  0.12509000000E+03 0.  0.
<mgrwt>
<rscale>  2 0.45042177E+03</rscale>
<asrwt>0</asrwt>
<pdfrwt beam="1">  1       21 0.50442041E-01 0.45042177E+03</pdfrwt>
<pdfrwt beam="2">  1       21 0.21745444E-01 0.45042177E+03</pdfrwt>
<totfact> 0.68367830E+04</totfact>
</mgrwt>
</event>
<event>
 7    0  0.4788920E-002  0.4452059E+03  0.7546771E-02  0.1029161E+00
         21   -1    0    0  502  501  0.00000000000E+00  0.00000000000E+00  0.19348083135E+03  0.19348083135E+03  0.00000000000E+00 0.  1.
         21   -1    0    0  501  502 -0.00000000000E+00 -0.00000000000E+00 -0.25610843734E+03  0.25610843734E+03  0.00000000000E+00 0.  1.
      99926    2    1    2    0    0  0.00000000000E+00  0.00000000000E+00 -0.62627605992E+02  0.44958926869E+03  0.44520590010E+03 0.  0.
      99925    2    3    3    0    0  0.25838411414E+02  0.82274997896E+02  0.18495469650E+02  0.27735320892E+03  0.26295612051E+03 0.  0.
         25    1    4    4    0    0  0.31557017359E+02  0.74511395879E+02  0.27781082834E+02  0.15154896939E+03  0.12509000000E+03 0.  0.
         25    1    4    4    0    0 -0.57186059454E+01  0.77636020163E+01 -0.92856131839E+01  0.12580423952E+03  0.12509000000E+03 0.  0.
         25    1    3    3    0    0 -0.25838411414E+02 -0.82274997896E+02 -0.81123075642E+02  0.17223605977E+03  0.12509000000E+03 0.  0.
<mgrwt>
<rscale>  2 0.44520590E+03</rscale>
<asrwt>0</asrwt>
<pdfrwt beam="1">  1       21 0.28453064E-01 0.44520590E+03</pdfrwt>
<pdfrwt beam="2">  1       21 0.37663005E-01 0.44520590E+03</pdfrwt>
<totfact> 0.74605005E+04</totfact>
</mgrwt>
</event>
<event>
 7    0  0.4788920E-002  0.4647521E+03  0.7546771E-02  0.1023412E+00
         21   -1    0    0  502  501  0.00000000000E+00  0.00000000000E+00  0.19882324281E+03  0.19882324281E+03  0.00000000000E+00 0. -1.
         21   -1    0    0  501  502 -0.00000000000E+00 -0.00000000000E+00 -0.27159108204E+03  0.27159108204E+03  0.00000000000E+00 0. -1.
      99926    2    1    2    0    0  0.00000000000E+00  0.00000000000E+00 -0.72767839231E+02  0.47041432486E+03  0.46475206143E+03 0.  0.
      99925    2    3    3    0    0 -0.10579283573E+03  0.44179064707E+02 -0.27744989624E+01  0.28686463232E+03  0.26294430129E+03 0.  0.
         25    1    3    3    0    0  0.10579283573E+03 -0.44179064707E+02 -0.69993340269E+02  0.18354969254E+03  0.12509000000E+03 0.  0.
         25    1    4    4    0    0 -0.77330746713E+02  0.36968474654E+02 -0.32267473436E+02  0.15503357845E+03  0.12509000000E+03 0.  0.
         25    1    4    4    0    0 -0.28462089015E+02  0.72105900530E+01  0.29492974474E+02  0.13183105387E+03  0.12509000000E+03 0.  0.
<mgrwt>
<rscale>  2 0.46475206E+03</rscale>
<asrwt>0</asrwt>
<pdfrwt beam="1">  1       21 0.29238712E-01 0.46475206E+03</pdfrwt>
<pdfrwt beam="2">  1       21 0.39939865E-01 0.46475206E+03</pdfrwt>
<totfact> 0.62428282E+04</totfact>
</mgrwt>
</event>
<event>
 7    0  0.4788920E-002  0.4513704E+03  0.7546771E-02  0.1027314E+00
         21   -1    0    0  502  501  0.00000000000E+00  0.00000000000E+00  0.42117128715E+02  0.42117128715E+02  0.00000000000E+00 0. -1.
         21   -1    0    0  501  502 -0.00000000000E+00 -0.00000000000E+00 -0.12093374247E+04  0.12093374247E+04  0.00000000000E+00 0. -1.
      99926    2    1    2    0    0  0.35527136788E-14  0.00000000000E+00 -0.11672202960E+04  0.12514545534E+04  0.45137044642E+03 0.  0.
      99925    2    3    3    0    0  0.12342274493E+02 -0.89318034577E+02 -0.90697871076E+03  0.94895953888E+03  0.26416620074E+03 0.  0.
         25    1    4    4    0    0 -0.29165503773E+02 -0.39835734880E+02 -0.52211657837E+03  0.53915743702E+03  0.12509000000E+03 0.  0.
         25    1    3    3    0    0 -0.12342274493E+02  0.89318034577E+02 -0.26024158523E+03  0.30249501454E+03  0.12509000000E+03 0.  0.
         25    1    4    4    0    0  0.41507778266E+02 -0.49482299697E+02 -0.38486213239E+03  0.40980210186E+03  0.12509000000E+03 0.  0.
<mgrwt>
<rscale>  2 0.45137045E+03</rscale>
<asrwt>0</asrwt>
<pdfrwt beam="1">  1       21 0.61936949E-02 0.45137045E+03</pdfrwt>
<pdfrwt beam="2">  1       21 0.17784375E+00 0.45137045E+03</pdfrwt>
<totfact> 0.31436611E+04</totfact>
</mgrwt>
</event>
<event>
 7    0  0.4788920E-002  0.4528806E+03  0.7546771E-02  0.1026866E+00
         21   -1    0    0  502  501  0.00000000000E+00  0.00000000000E+00  0.23260118307E+03  0.23260118307E+03  0.00000000000E+00 0. -1.
         21   -1    0    0  501  502 -0.00000000000E+00 -0.00000000000E+00 -0.22044256821E+03  0.22044256821E+03  0.00000000000E+00 0. -1.
      99926    2    1    2    0    0  0.71054273576E-14  0.00000000000E+00  0.12158614864E+02  0.45304375128E+03  0.45288056776E+03 0.  0.
      99925    2    3    3    0    0  0.52366124914E+02 -0.66371008458E+02 -0.64557035000E+02  0.28369168948E+03  0.26299437657E+03 0.  0.
         25    1    4    4    0    0 -0.83231234077E+01 -0.43535755777E+02 -0.50887118195E+02  0.14213248507E+03  0.12509000000E+03 0.  0.
         25    1    4    4    0    0  0.60689248321E+02 -0.22835252681E+02 -0.13669916805E+02  0.14155920441E+03  0.12509000000E+03 0.  0.
         25    1    3    3    0    0 -0.52366124914E+02  0.66371008458E+02  0.76715649864E+02  0.16935206180E+03  0.12509000000E+03 0.  0.
<mgrwt>
<rscale>  2 0.45288057E+03</rscale>
<asrwt>0</asrwt>
<pdfrwt beam="1">  1       21 0.34206057E-01 0.45288057E+03</pdfrwt>
<pdfrwt beam="2">  1       21 0.32418025E-01 0.45288057E+03</pdfrwt>
<totfact> 0.69863343E+04</totfact>
</mgrwt>
</event>
<event>
 7    0  0.4788920E-002  0.4631952E+03  0.7546771E-02  0.1023859E+00
         21   -1    0    0  502  501  0.00000000000E+00  0.00000000000E+00  0.43795193727E+03  0.43795193727E+03  0.00000000000E+00 0. -1.
         21   -1    0    0  501  502 -0.00000000000E+00 -0.00000000000E+00 -0.12247334380E+03  0.12247334380E+03  0.00000000000E+00 0. -1.
      99926    2    1    2    0    0 -0.71054273576E-14 -0.71054273576E-14  0.31547859347E+03  0.56042528107E+03  0.46319515620E+03 0.  0.
      99925    2    3    3    0    0 -0.32098284591E+02 -0.50898137545E+02  0.70796750845E+02  0.27911116396E+03  0.26319183429E+03 0.  0.
         25    1    4    4    0    0 -0.12469376099E+02 -0.27328027570E+02  0.77419473636E+02  0.15014522779E+03  0.12509000000E+03 0.  0.
         25    1    4    4    0    0 -0.19628908492E+02 -0.23570109975E+02 -0.66227227915E+01  0.12896593616E+03  0.12509000000E+03 0.  0.
         25    1    3    3    0    0  0.32098284591E+02  0.50898137545E+02  0.24468184262E+03  0.28131411711E+03  0.12509000000E+03 0.  0.
<mgrwt>
<rscale>  2 0.46319516E+03</rscale>
<asrwt>0</asrwt>
<pdfrwt beam="1">  1       21 0.64404696E-01 0.46319516E+03</pdfrwt>
<pdfrwt beam="2">  1       21 0.18010786E-01 0.46319516E+03</pdfrwt>
<totfact> 0.57372305E+04</totfact>
</mgrwt>
</event>
<event>
 7    0  0.4788920E-002  0.4573945E+03  0.7546771E-02  0.1025540E+00
         21   -1    0    0  502  501  0.00000000000E+00  0.00000000000E+00  0.53683714105E+02  0.53683714105E+02  0.00000000000E+00 0.  1.
         21   -1    0    0  501  502 -0.00000000000E+00 -0.00000000000E+00 -0.97427019225E+03  0.97427019225E+03  0.00000000000E+00 0.  1.
      99926    2    1    2    0    0  0.14210854715E-13  0.71054273576E-14 -0.92058647815E+03  0.10279539064E+04  0.45739454506E+03 0.  0.
      99925    2    3    3    0    0  0.80643131208E+02  0.54000487990E+02 -0.71852639584E+03  0.77125339549E+03  0.26293012614E+03 0.  0.
         25    1    4    4    0    0  0.34995590509E+02 -0.72418919814E+01 -0.27684112815E+03  0.30588503509E+03  0.12509000000E+03 0.  0.
         25    1    3    3    0    0 -0.80643131208E+02 -0.54000487990E+02 -0.20206008231E+03  0.25670051087E+03  0.12509000000E+03 0.  0.
         25    1    4    4    0    0  0.45647540699E+02  0.61242379972E+02 -0.44168526768E+03  0.46536836040E+03  0.12509000000E+03 0.  0.
<mgrwt>
<rscale>  2 0.45739455E+03</rscale>
<asrwt>0</asrwt>
<pdfrwt beam="1">  1       21 0.78946643E-02 0.45739455E+03</pdfrwt>
<pdfrwt beam="2">  1       21 0.14327502E+00 0.45739455E+03</pdfrwt>
<totfact> 0.37392928E+04</totfact>
</mgrwt>
</event>
<event>
 7    0  0.4788920E-002  0.4514766E+03  0.7546771E-02  0.1027283E+00
         21   -1    0    0  502  501  0.00000000000E+00  0.00000000000E+00  0.54173285902E+02  0.54173285902E+02  0.00000000000E+00 0. -1.
         21   -1    0    0  501  502 -0.00000000000E+00 -0.00000000000E+00 -0.94064401779E+03  0.94064401779E+03  0.00000000000E+00 0. -1.
      99926    2    1    2    0    0  0.00000000000E+00  0.00000000000E+00 -0.88647073189E+03  0.99481730369E+03  0.45147658769E+03 0.  0.
      99925    2    3    3    0    0 -0.63994158615E+02 -0.87814629875E+02 -0.52257256071E+03  0.59497227291E+03  0.26287499456E+03 0.  0.
         25    1    4    4    0    0 -0.17600324801E+02 -0.82534929286E+02 -0.28163101138E+03  0.31950793520E+03  0.12509000000E+03 0.  0.
         25    1    3    3    0    0  0.63994158615E+02  0.87814629875E+02 -0.36389817117E+03  0.39984503078E+03  0.12509000000E+03 0.  0.
         25    1    4    4    0    0 -0.46393833814E+02 -0.52797005891E+01 -0.24094154933E+03  0.27546433771E+03  0.12509000000E+03 0.  0.
<mgrwt>
<rscale>  2 0.45147659E+03</rscale>
<asrwt>0</asrwt>
<pdfrwt beam="1">  1       21 0.79666610E-02 0.45147659E+03</pdfrwt>
<pdfrwt beam="2">  1       21 0.13832998E+00 0.45147659E+03</pdfrwt>
<totfact> 0.40471284E+04</totfact>
</mgrwt>
</event>
<event>
 7    0  0.4788920E-002  0.4580365E+03  0.7546771E-02  0.1025352E+00
         21   -1    0    0  502  501  0.00000000000E+00  0.00000000000E+00  0.95403421337E+03  0.95403421337E+03  0.00000000000E+00 0.  1.
         21   -1    0    0  501  502 -0.00000000000E+00 -0.00000000000E+00 -0.54976384500E+02  0.54976384500E+02  0.00000000000E+00 0.  1.
      99926    2    1    2    0    0 -0.17763568394E-14  0.00000000000E+00  0.89905782887E+03  0.10090105979E+04  0.45803646903E+03 0.  0.
      99925    2    3    3    0    0  0.12887925290E+02  0.97151419645E+02  0.70103531320E+03  0.75511116547E+03  0.26294080116E+03 0.  0.
         25    1    3    3    0    0 -0.12887925290E+02 -0.97151419645E+02  0.19802251567E+03  0.25389943239E+03  0.12509000000E+03 0.  0.
         25    1    4    4    0    0 -0.20989429699E+02  0.26957432371E+02  0.26889342890E+03  0.29852712360E+03  0.12509000000E+03 0.  0.
         25    1    4    4    0    0  0.33877354989E+02  0.70193987274E+02  0.43214188430E+03  0.45658404187E+03  0.12509000000E+03 0.  0.
<mgrwt>
<rscale>  2 0.45803647E+03</rscale>
<asrwt>0</asrwt>
<pdfrwt beam="1">  1       21 0.14029914E+00 0.45803647E+03</pdfrwt>
<pdfrwt beam="2">  1       21 0.80847630E-02 0.45803647E+03</pdfrwt>
<totfact> 0.37911195E+04</totfact>
</mgrwt>
</event>
<event>
 7    0  0.4788920E-002  0.4601018E+03  0.7546771E-02  0.1024752E+00
         21   -1    0    0  502  501  0.00000000000E+00  0.00000000000E+00  0.17322609267E+04  0.17322609267E+04  0.00000000000E+00 0.  1.
         21   -1    0    0  501  502 -0.00000000000E+00 -0.00000000000E+00 -0.30551639159E+02  0.30551639159E+02  0.00000000000E+00 0.  1.
      99926    2    1    2    0    0  0.00000000000E+00  0.00000000000E+00  0.17017092875E+04  0.17628125658E+04  0.46010177466E+03 0.  0.
      99925    2    3    3    0    0 -0.10470757206E+03  0.42235504824E+02  0.11947285383E+04  0.12285612189E+04  0.26313280841E+03 0.  0.
         25    1    3    3    0    0  0.10470757206E+03 -0.42235504824E+02  0.50698074920E+03  0.53425134691E+03  0.12509000000E+03 0.  0.
         25    1    4    4    0    0 -0.73624822317E+02  0.15912154948E+02  0.47602609297E+03  0.49791782497E+03  0.12509000000E+03 0.  0.
         25    1    4    4    0    0 -0.31082749744E+02  0.26323349876E+02  0.71870244535E+03  0.73064339395E+03  0.12509000000E+03 0.  0.
<mgrwt>
<rscale>  2 0.46010177E+03</rscale>
<asrwt>0</asrwt>
<pdfrwt beam="1">  1       21 0.25474419E+00 0.46010177E+03</pdfrwt>
<pdfrwt beam="2">  1       21 0.44928893E-02 0.46010177E+03</pdfrwt>
<totfact> 0.17290060E+04</totfact>
</mgrwt>
</event>
<event>
 7    0  0.4788920E-002  0.4468564E+03  0.7546771E-02  0.1028664E+00
         21   -1    0    0  502  501  0.00000000000E+00  0.00000000000E+00  0.22220002810E+03  0.22220002810E+03  0.00000000000E+00 0. -1.
         21   -1    0    0  501  502 -0.00000000000E+00 -0.00000000000E+00 -0.22466319638E+03  0.22466319638E+03  0.00000000000E+00 0. -1.
      99926    2    1    2    0    0  0.00000000000E+00  0.00000000000E+00 -0.24631682801E+01  0.44686322448E+03  0.44685643577E+03 0.  0.
      99925    2    3    3    0    0 -0.41535608287E+02  0.95793368997E+02  0.11980840129E+02  0.28328537213E+03  0.26306935441E+03 0.  0.
         25    1    4    4    0    0 -0.46248851013E+02  0.69775519333E+02 -0.19057598023E+02  0.15171776251E+03  0.12509000000E+03 0.  0.
         25    1    3    3    0    0  0.41535608287E+02 -0.95793368997E+02 -0.14444008409E+02  0.16357785235E+03  0.12509000000E+03 0.  0.
         25    1    4    4    0    0  0.47132427258E+01  0.26017849664E+02  0.31038438152E+02  0.13156760962E+03  0.12509000000E+03 0.  0.
<mgrwt>
<rscale>  2 0.44685644E+03</rscale>
<asrwt>0</asrwt>
<pdfrwt beam="1">  1       21 0.32676475E-01 0.44685644E+03</pdfrwt>
<pdfrwt beam="2">  1       21 0.33038705E-01 0.44685644E+03</pdfrwt>
<totfact> 0.73827805E+04</totfact>
</mgrwt>
</event>
<event>
 6    0  0.4788920E-002  0.4535874E+03  0.7546771E-02  0.1026658E+00
         21   -1    0    0  502  501  0.00000000000E+00  0.00000000000E+00  0.34771055391E+03  0.34771055391E+03  0.00000000000E+00 0. -1.
         21   -1    0    0  501  502 -0.00000000000E+00 -0.00000000000E+00 -0.14792584103E+03  0.14792584103E+03  0.00000000000E+00 0. -1.
      99926    2    1    2    0    0  0.00000000000E+00 -0.53290705182E-14  0.19978471288E+03  0.49563639493E+03  0.45358737249E+03 0.  0.
         25    1    3    3    0    0  0.17006793974E+02 -0.62531415696E+02  0.21893259016E+02  0.14257009462E+03  0.12509000000E+03 0.  0.
         25    1    3    3    0    0 -0.78798120790E+02 -0.73705623259E+01  0.10016949887E+03  0.17873137842E+03  0.12509000000E+03 0.  0.
         25    1    3    3    0    0  0.61791326816E+02  0.69901978022E+02  0.77721954997E+02  0.17433492189E+03  0.12509000000E+03 0.  0.
<mgrwt>
<rscale>  2 0.45358737E+03</rscale>
<asrwt>0</asrwt>
<pdfrwt beam="1">  1       21 0.51133905E-01 0.45358737E+03</pdfrwt>
<pdfrwt beam="2">  1       21 0.21753800E-01 0.45358737E+03</pdfrwt>
<totfact> 0.66318902E+04</totfact>
</mgrwt>
</event>
<event>
 7    0  0.4788920E-002  0.4320326E+03  0.7546771E-02  0.1033220E+00
         21   -1    0    0  502  501  0.00000000000E+00  0.00000000000E+00  0.83527758437E+03  0.83527758437E+03  0.00000000000E+00 0. -1.
         21   -1    0    0  501  502 -0.00000000000E+00 -0.00000000000E+00 -0.55865309067E+02  0.55865309067E+02  0.00000000000E+00 0. -1.
      99926    2    1    2    0    0  0.00000000000E+00  0.00000000000E+00  0.77941227531E+03  0.89114289344E+03  0.43203259325E+03 0.  0.
      99925    2    3    3    0    0  0.39698783984E+02 -0.26566464406E+02  0.34412558734E+03  0.43572684267E+03  0.26297089397E+03 0.  0.
         25    1    3    3    0    0 -0.39698783984E+02  0.26566464406E+02  0.43528668797E+03  0.45541605077E+03  0.12509000000E+03 0.  0.
         25    1    4    4    0    0  0.32770879608E+02  0.16091295010E+02  0.21110795344E+03  0.24808655029E+03  0.12509000000E+03 0.  0.
         25    1    4    4    0    0  0.69279043761E+01 -0.42657759416E+02  0.13301763390E+03  0.18764029238E+03  0.12509000000E+03 0.  0.
<mgrwt>
<rscale>  2 0.43203259E+03</rscale>
<asrwt>0</asrwt>
<pdfrwt beam="1">  1       21 0.12283493E+00 0.43203259E+03</pdfrwt>
<pdfrwt beam="2">  1       21 0.82154871E-02 0.43203259E+03</pdfrwt>
<totfact> 0.52427225E+04</totfact>
</mgrwt>
</event>
<event>
 7    0  0.4788920E-002  0.4552907E+03  0.7546771E-02  0.1026156E+00
         21   -1    0    0  502  501  0.00000000000E+00  0.00000000000E+00  0.70926515826E+02  0.70926515826E+02  0.00000000000E+00 0.  1.
         21   -1    0    0  501  502 -0.00000000000E+00 -0.00000000000E+00 -0.73064919758E+03  0.73064919758E+03  0.00000000000E+00 0.  1.
      99926    2    1    2    0    0  0.00000000000E+00  0.00000000000E+00 -0.65972268176E+03  0.80157571341E+03  0.45529068462E+03 0.  0.
      99925    2    3    3    0    0 -0.60039818467E+02  0.94949485999E+02 -0.44285045658E+03  0.52716497228E+03  0.26299466994E+03 0.  0.
         25    1    3    3    0    0  0.60039818467E+02 -0.94949485999E+02 -0.21687222517E+03  0.27441074112E+03  0.12509000000E+03 0.  0.
         25    1    4    4    0    0 -0.53713910470E+02  0.73734374422E+02 -0.28704388427E+03  0.32613439215E+03  0.12509000000E+03 0.  0.
         25    1    4    4    0    0 -0.63259079963E+01  0.21215111578E+02 -0.15580657231E+03  0.20103058013E+03  0.12509000000E+03 0.  0.
<mgrwt>
<rscale>  2 0.45529068E+03</rscale>
<asrwt>0</asrwt>
<pdfrwt beam="1">  1       21 0.10430371E-01 0.45529068E+03</pdfrwt>
<pdfrwt beam="2">  1       21 0.10744840E+00 0.45529068E+03</pdfrwt>
<totfact> 0.47580055E+04</totfact>
</mgrwt>
</event>
<event>
 7    0  0.4788920E-002  0.4552412E+03  0.7546771E-02  0.1026171E+00
         21   -1    0    0  502  501  0.00000000000E+00  0.00000000000E+00  0.87000415926E+03  0.87000415926E+03  0.00000000000E+00 0.  1.
         21   -1    0    0  501  502 -0.00000000000E+00 -0.00000000000E+00 -0.59552744149E+02  0.59552744149E+02  0.00000000000E+00 0.  1.
      99926    2    1    2    0    0  0.00000000000E+00 -0.35527136788E-14  0.81045141511E+03  0.92955690340E+03  0.45524118928E+03 0.  0.
      99925    2    3    3    0    0  0.89496005363E+02 -0.12949762095E+02  0.64968476912E+03  0.70668776270E+03  0.26294498173E+03 0.  0.
         25    1    4    4    0    0  0.28049851289E+02  0.30138219789E+02  0.32930192924E+03  0.35465811022E+03  0.12509000000E+03 0.  0.
         25    1    4    4    0    0  0.61446154074E+02 -0.43087981884E+02  0.32038283988E+03  0.35202965248E+03  0.12509000000E+03 0.  0.
         25    1    3    3    0    0 -0.89496005363E+02  0.12949762095E+02  0.16076664599E+03  0.22286914070E+03  0.12509000000E+03 0.  0.
<mgrwt>
<rscale>  2 0.45524119E+03</rscale>
<asrwt>0</asrwt>
<pdfrwt beam="1">  1       21 0.12794178E+00 0.45524119E+03</pdfrwt>
<pdfrwt beam="2">  1       21 0.87577571E-02 0.45524119E+03</pdfrwt>
<totfact> 0.41900814E+04</totfact>
</mgrwt>
</event>
<event>
 7    0  0.4788920E-002  0.4525076E+03  0.7546771E-02  0.1026977E+00
         21   -1    0    0  502  501  0.00000000000E+00  0.00000000000E+00  0.79663968561E+02  0.79663968561E+02  0.00000000000E+00 0. -1.
         21   -1    0    0  501  502 -0.00000000000E+00 -0.00000000000E+00 -0.64258377504E+03  0.64258377504E+03  0.00000000000E+00 0. -1.
      99926    2    1    2    0    0  0.00000000000E+00  0.00000000000E+00 -0.56291980648E+03  0.72224774361E+03  0.45250756304E+03 0.  0.
      99925    2    3    3    0    0  0.45632585535E+02 -0.57428295092E+02 -0.22249611948E+03  0.35222593788E+03  0.26301757772E+03 0.  0.
         25    1    4    4    0    0 -0.92031091889E+01 -0.43554546098E+02 -0.83421859856E+02  0.15680692110E+03  0.12509000000E+03 0.  0.
         25    1    3    3    0    0 -0.45632585535E+02  0.57428295092E+02 -0.34042368700E+03  0.37002180573E+03  0.12509000000E+03 0.  0.
         25    1    4    4    0    0  0.54835694723E+02 -0.13873748994E+02 -0.13907425963E+03  0.19541901678E+03  0.12509000000E+03 0.  0.
<mgrwt>
<rscale>  2 0.45250756E+03</rscale>
<asrwt>0</asrwt>
<pdfrwt beam="1">  1       21 0.11715290E-01 0.45250756E+03</pdfrwt>
<pdfrwt beam="2">  1       21 0.94497611E-01 0.45250756E+03</pdfrwt>
<totfact> 0.52737937E+04</totfact>
</mgrwt>
</event>
<event>
 7    0  0.4788920E-002  0.4382115E+03  0.7546771E-02  0.1031297E+00
         21   -1    0    0  502  501  0.00000000000E+00  0.00000000000E+00  0.42186730042E+02  0.42186730042E+02  0.00000000000E+00 0.  1.
         21   -1    0    0  501  502 -0.00000000000E+00 -0.00000000000E+00 -0.11379724648E+04  0.11379724648E+04  0.00000000000E+00 0.  1.
      99926    2    1    2    0    0 -0.71054273576E-14  0.00000000000E+00 -0.10957857348E+04  0.11801591948E+04  0.43821153416E+03 0.  0.
      99925    2    3    3    0    0  0.54681656021E+02 -0.75226576066E+02 -0.63082739040E+03  0.68976864504E+03  0.26303700489E+03 0.  0.
         25    1    3    3    0    0 -0.54681656021E+02  0.75226576066E+02 -0.46495834435E+03  0.49039054980E+03  0.12509000000E+03 0.  0.
         25    1    4    4    0    0  0.10619220024E+02 -0.56419464763E+02 -0.24052628968E+03  0.27712150398E+03  0.12509000000E+03 0.  0.
         25    1    4    4    0    0  0.44062435997E+02 -0.18807111303E+02 -0.39030110072E+03  0.41264714106E+03  0.12509000000E+03 0.  0.
<mgrwt>
<rscale>  2 0.43821153E+03</rscale>
<asrwt>0</asrwt>
<pdfrwt beam="1">  1       21 0.62039302E-02 0.43821153E+03</pdfrwt>
<pdfrwt beam="2">  1       21 0.16734891E+00 0.43821153E+03</pdfrwt>
<totfact> 0.37455981E+04</totfact>
</mgrwt>
</event>
<event>
 7    0  0.4788920E-002  0.4502755E+03  0.7546771E-02  0.1027640E+00
         21   -1    0    0  502  501  0.00000000000E+00  0.00000000000E+00  0.97241347987E+03  0.97241347987E+03  0.00000000000E+00 0.  1.
         21   -1    0    0  501  502 -0.00000000000E+00 -0.00000000000E+00 -0.52124950000E+02  0.52124950000E+02  0.00000000000E+00 0.  1.
      99926    2    1    2    0    0  0.00000000000E+00  0.35527136788E-14  0.92028852987E+03  0.10245384299E+04  0.45027548908E+03 0.  0.
      99925    2    3    3    0    0 -0.89155139700E+02 -0.23466585853E+02  0.71211245816E+03  0.76476140140E+03  0.26316635123E+03 0.  0.
         25    1    3    3    0    0  0.89155139700E+02  0.23466585853E+02  0.20817607170E+03  0.25977702846E+03  0.12509000000E+03 0.  0.
         25    1    4    4    0    0 -0.43113825223E+02  0.25445962658E+02  0.39398579752E+03  0.41638757869E+03  0.12509000000E+03 0.  0.
         25    1    4    4    0    0 -0.46041314477E+02 -0.48912548511E+02  0.31812666064E+03  0.34837382271E+03  0.12509000000E+03 0.  0.
<mgrwt>
<rscale>  2 0.45027549E+03</rscale>
<asrwt>0</asrwt>
<pdfrwt beam="1">  1       21 0.14300197E+00 0.45027549E+03</pdfrwt>
<pdfrwt beam="2">  1       21 0.76654344E-02 0.45027549E+03</pdfrwt>
<totfact> 0.39668896E+04</totfact>
</mgrwt>
</event>
<event>
 7    0  0.4788920E-002  0.4535232E+03  0.7546771E-02  0.1026677E+00
         21   -1    0    0  502  501  0.00000000000E+00  0.00000000000E+00  0.83180182887E+02  0.83180182887E+02  0.00000000000E+00 0.  1.
         21   -1    0    0  501  502 -0.00000000000E+00 -0.00000000000E+00 -0.61818586474E+03  0.61818586474E+03  0.00000000000E+00 0.  1.
      99926    2    1    2    0    0 -0.17763568394E-14  0.00000000000E+00 -0.53500568185E+03  0.70136604763E+03  0.45352315613E+03 0.  0.
      99925    2    3    3    0    0  0.10983081456E+02 -0.10951856223E+03 -0.36652014491E+03  0.46440649874E+03  0.26309966912E+03 0.  0.
         25    1    4    4    0    0  0.27843887706E+01 -0.59725101275E+02 -0.11985167534E+03  0.18326694390E+03  0.12509000000E+03 0.  0.
         25    1    3    3    0    0 -0.10983081456E+02  0.10951856223E+03 -0.16848553694E+03  0.23695954889E+03  0.12509000000E+03 0.  0.
         25    1    4    4    0    0  0.81986926855E+01 -0.49793460957E+02 -0.24666846958E+03  0.28113955485E+03  0.12509000000E+03 0.  0.
<mgrwt>
<rscale>  2 0.45352316E+03</rscale>
<asrwt>0</asrwt>
<pdfrwt beam="1">  1       21 0.12232380E-01 0.45352316E+03</pdfrwt>
<pdfrwt beam="2">  1       21 0.90909687E-01 0.45352316E+03</pdfrwt>
<totfact> 0.53447308E+04</totfact>
</mgrwt>
</event>
<event>
 7    0  0.4788920E-002  0.4700053E+03  0.7546771E-02  0.1021919E+00
         21   -1    0    0  502  501  0.00000000000E+00  0.00000000000E+00  0.31837419367E+02  0.31837419367E+02  0.00000000000E+00 0.  1.
         21   -1    0    0  501  502 -0.00000000000E+00 -0.00000000000E+00 -0.17346330950E+04  0.17346330950E+04  0.00000000000E+00 0.  1.
      99926    2    1    2    0    0  0.00000000000E+00  0.71054273576E-14 -0.17027956756E+04  0.17664705144E+04  0.47000528207E+03 0.  0.
      99925    2    3    3    0    0 -0.97996229287E+02  0.43823309425E+02 -0.13130017213E+04  0.13432559372E+04  0.26237234846E+03 0.  0.
         25    1    4    4    0    0 -0.35626472381E+02  0.50855768605E+02 -0.76651183799E+03  0.77912993821E+03  0.12509000000E+03 0.  0.
         25    1    4    4    0    0 -0.62369756906E+02 -0.70324591796E+01 -0.54648988335E+03  0.56412599902E+03  0.12509000000E+03 0.  0.
         25    1    3    3    0    0  0.97996229287E+02 -0.43823309425E+02 -0.38979395427E+03  0.42321457712E+03  0.12509000000E+03 0.  0.
<mgrwt>
<rscale>  2 0.47000528E+03</rscale>
<asrwt>0</asrwt>
<pdfrwt beam="1">  1       21 0.46819711E-02 0.47000528E+03</pdfrwt>
<pdfrwt beam="2">  1       21 0.25509323E+00 0.47000528E+03</pdfrwt>
<totfact> 0.15969761E+04</totfact>
</mgrwt>
</event>
<event>
 7    0  0.4788920E-002  0.4636327E+03  0.7546771E-02  0.1023733E+00
         21   -1    0    0  502  501  0.00000000000E+00  0.00000000000E+00  0.33403710621E+03  0.33403710621E+03  0.00000000000E+00 0.  1.
         21   -1    0    0  501  502 -0.00000000000E+00 -0.00000000000E+00 -0.16087678985E+03  0.16087678985E+03  0.00000000000E+00 0.  1.
      99926    2    1    2    0    0  0.00000000000E+00 -0.35527136788E-14  0.17316031636E+03  0.49491389606E+03  0.46363268796E+03 0.  0.
      99925    2    3    3    0    0 -0.38889059445E+02  0.23151826380E+02  0.22792285925E+03  0.35105698725E+03  0.26314219068E+03 0.  0.
         25    1    3    3    0    0  0.38889059445E+02 -0.23151826380E+02 -0.54762542882E+02  0.14385690881E+03  0.12509000000E+03 0.  0.
         25    1    4    4    0    0 -0.50639627632E+02  0.24334478136E+02  0.87685889641E+02  0.16276628046E+03  0.12509000000E+03 0.  0.
         25    1    4    4    0    0  0.11750568187E+02 -0.11826517560E+01  0.14023696960E+03  0.18829070679E+03  0.12509000000E+03 0.  0.
<mgrwt>
<rscale>  2 0.46363269E+03</rscale>
<asrwt>0</asrwt>
<pdfrwt beam="1">  1       21 0.49123104E-01 0.46363269E+03</pdfrwt>
<pdfrwt beam="2">  1       21 0.23658352E-01 0.46363269E+03</pdfrwt>
<totfact> 0.61318255E+04</totfact>
</mgrwt>
</event>
<event>
 7    0  0.4788920E-002  0.4565466E+03  0.7546771E-02  0.1025788E+00
         21   -1    0    0  502  501  0.00000000000E+00  0.00000000000E+00  0.15870451713E+04  0.15870451713E+04  0.00000000000E+00 0.  1.
         21   -1    0    0  501  502 -0.00000000000E+00 -0.00000000000E+00 -0.32833780217E+02  0.32833780217E+02  0.00000000000E+00 0.  1.
      99926    2    1    2    0    0  0.00000000000E+00  0.00000000000E+00  0.15542113911E+04  0.16198789515E+04  0.45654656871E+03 0.  0.
      99925    2    3    3    0    0  0.54047711433E+02  0.81288200804E+02  0.11891246179E+04  0.12218025936E+04  0.26316400601E+03 0.  0.
         25    1    3    3    0    0 -0.54047711433E+02 -0.81288200804E+02  0.36508677314E+03  0.39807635790E+03  0.12509000000E+03 0.  0.
         25    1    4    4    0    0  0.25617302233E+02 -0.20358942805E+00  0.49138547405E+03  0.50770412627E+03  0.12509000000E+03 0.  0.
         25    1    4    4    0    0  0.28430409200E+02  0.81491790232E+02  0.69773914389E+03  0.71409846735E+03  0.12509000000E+03 0.  0.
<mgrwt>
<rscale>  2 0.45654657E+03</rscale>
<asrwt>0</asrwt>
<pdfrwt beam="1">  1       21 0.23338894E+00 0.45654657E+03</pdfrwt>
<pdfrwt beam="2">  1       21 0.48284981E-02 0.45654657E+03</pdfrwt>
<totfact> 0.20734169E+04</totfact>
</mgrwt>
</event>
<event>
 7    0  0.4788920E-002  0.4504210E+03  0.7546771E-02  0.1027597E+00
         21   -1    0    0  502  501  0.00000000000E+00  0.00000000000E+00  0.98599518559E+03  0.98599518559E+03  0.00000000000E+00 0. -1.
         21   -1    0    0  501  502 -0.00000000000E+00 -0.00000000000E+00 -0.51440177421E+02  0.51440177421E+02  0.00000000000E+00 0. -1.
      99926    2    1    2    0    0  0.00000000000E+00 -0.35527136788E-14  0.93455500816E+03  0.10374353630E+04  0.45042099100E+03 0.  0.
      99925    2    3    3    0    0  0.54937818204E+02  0.26881478706E+02  0.79782165762E+03  0.84228338372E+03  0.26302304721E+03 0.  0.
         25    1    4    4    0    0  0.24880835863E+02 -0.12680500254E+02  0.48674315676E+03  0.50333513670E+03  0.12509000000E+03 0.  0.
         25    1    3    3    0    0 -0.54937818204E+02 -0.26881478706E+02  0.13673335055E+03  0.19515197928E+03  0.12509000000E+03 0.  0.
         25    1    4    4    0    0  0.30056982341E+02  0.39561978960E+02  0.31107850086E+03  0.33894824703E+03  0.12509000000E+03 0.  0.
<mgrwt>
<rscale>  2 0.45042099E+03</rscale>
<asrwt>0</asrwt>
<pdfrwt beam="1">  1       21 0.14499928E+00 0.45042099E+03</pdfrwt>
<pdfrwt beam="2">  1       21 0.75647326E-02 0.45042099E+03</pdfrwt>
<totfact> 0.39121638E+04</totfact>
</mgrwt>
</event>
<event>
 7    0  0.4788920E-002  0.4576860E+03  0.7546771E-02  0.1025454E+00
         21   -1    0    0  502  501  0.00000000000E+00  0.00000000000E+00  0.73215090686E+02  0.73215090686E+02  0.00000000000E+00 0.  1.
         21   -1    0    0  501  502 -0.00000000000E+00 -0.00000000000E+00 -0.71527767695E+03  0.71527767695E+03  0.00000000000E+00 0.  1.
      99926    2    1    2    0    0  0.71054273576E-14  0.14210854715E-13 -0.64206258627E+03  0.78849276764E+03  0.45768600583E+03 0.  0.
      99925    2    3    3    0    0  0.45046596331E+02 -0.88439815656E+02 -0.30074525535E+03  0.41166943328E+03  0.26300801670E+03 0.  0.
         25    1    4    4    0    0  0.63185769979E+02 -0.50006017614E+02 -0.15149050154E+03  0.21234388026E+03  0.12509000000E+03 0.  0.
         25    1    3    3    0    0 -0.45046596331E+02  0.88439815656E+02 -0.34131733091E+03  0.37682333436E+03  0.12509000000E+03 0.  0.
         25    1    4    4    0    0 -0.18139173649E+02 -0.38433798042E+02 -0.14925475381E+03  0.19932555302E+03  0.12509000000E+03 0.  0.
<mgrwt>
<rscale>  2 0.45768601E+03</rscale>
<asrwt>0</asrwt>
<pdfrwt beam="1">  1       21 0.10766926E-01 0.45768601E+03</pdfrwt>
<pdfrwt beam="2">  1       21 0.10518789E+00 0.45768601E+03</pdfrwt>
<totfact> 0.47320968E+04</totfact>
</mgrwt>
</event>
<event>
 7    0  0.4788920E-002  0.4463239E+03  0.7546771E-02  0.1028824E+00
         21   -1    0    0  502  501  0.00000000000E+00  0.00000000000E+00  0.17881327897E+03  0.17881327897E+03  0.00000000000E+00 0.  1.
         21   -1    0    0  501  502 -0.00000000000E+00 -0.00000000000E+00 -0.27850982416E+03  0.27850982416E+03  0.00000000000E+00 0.  1.
      99926    2    1    2    0    0  0.00000000000E+00  0.14210854715E-13 -0.99696545188E+02  0.45732310313E+03  0.44632389532E+03 0.  0.
      99925    2    3    3    0    0 -0.54536131240E+02 -0.89598040137E+02 -0.62824324037E+02  0.28996400657E+03  0.26292628437E+03 0.  0.
         25    1    4    4    0    0 -0.53942925011E+02 -0.28362897898E+02 -0.52152995090E+01  0.13924439157E+03  0.12509000000E+03 0.  0.
         25    1    3    3    0    0  0.54536131240E+02  0.89598040137E+02 -0.36872221151E+02  0.16735909655E+03  0.12509000000E+03 0.  0.
         25    1    4    4    0    0 -0.59320622881E+00 -0.61235142239E+02 -0.57609024528E+02  0.15071961500E+03  0.12509000000E+03 0.  0.
<mgrwt>
<rscale>  2 0.44632390E+03</rscale>
<asrwt>0</asrwt>
<pdfrwt beam="1">  1       21 0.26296070E-01 0.44632390E+03</pdfrwt>
<pdfrwt beam="2">  1       21 0.40957327E-01 0.44632390E+03</pdfrwt>
<totfact> 0.73307071E+04</totfact>
</mgrwt>
</event>
<event>
 7    0  0.4788920E-002  0.4477733E+03  0.7546771E-02  0.1028388E+00
         21   -1    0    0  502  501  0.00000000000E+00  0.00000000000E+00  0.22086534871E+03  0.22086534871E+03  0.00000000000E+00 0.  1.
         21   -1    0    0  501  502 -0.00000000000E+00 -0.00000000000E+00 -0.22694929077E+03  0.22694929077E+03  0.00000000000E+00 0.  1.
      99926    2    1    2    0    0  0.00000000000E+00  0.00000000000E+00 -0.60839420660E+01  0.44781463948E+03  0.44777330981E+03 0.  0.
      99925    2    3    3    0    0  0.66093384943E+02  0.20961397622E+02  0.76679649807E+02  0.28257228425E+03  0.26298215036E+03 0.  0.
         25    1    4    4    0    0  0.30968737201E+02  0.49752140364E+02  0.28547805149E+02  0.14105610031E+03  0.12509000000E+03 0.  0.
         25    1    4    4    0    0  0.35124647742E+02 -0.28790742742E+02  0.48131844658E+02  0.14151618394E+03  0.12509000000E+03 0.  0.
         25    1    3    3    0    0 -0.66093384943E+02 -0.20961397622E+02 -0.82763591873E+02  0.16524235523E+03  0.12509000000E+03 0.  0.
<mgrwt>
<rscale>  2 0.44777331E+03</rscale>
<asrwt>0</asrwt>
<pdfrwt beam="1">  1       21 0.32480199E-01 0.44777331E+03</pdfrwt>
<pdfrwt beam="2">  1       21 0.33374895E-01 0.44777331E+03</pdfrwt>
<totfact> 0.73206420E+04</totfact>
</mgrwt>
</event>
<event>
 7    0  0.4788920E-002  0.4574776E+03  0.7546771E-02  0.1025515E+00
         21   -1    0    0  502  501  0.00000000000E+00  0.00000000000E+00  0.46050321236E+03  0.46050321236E+03  0.00000000000E+00 0. -1.
         21   -1    0    0  501  502 -0.00000000000E+00 -0.00000000000E+00 -0.11361796762E+03  0.11361796762E+03  0.00000000000E+00 0. -1.
      99926    2    1    2    0    0  0.00000000000E+00 -0.35527136788E-14  0.34688524474E+03  0.57412117998E+03  0.45747760195E+03 0.  0.
      99925    2    3    3    0    0  0.87398448097E+02  0.30354731367E+02  0.13118357508E+03  0.30816137693E+03  0.26304829483E+03 0.  0.
         25    1    4    4    0    0  0.22183992961E+02 -0.18722616714E+02  0.74120643451E+02  0.14827017167E+03  0.12509000000E+03 0.  0.
         25    1    3    3    0    0 -0.87398448097E+02 -0.30354731367E+02  0.21570166966E+03  0.26595980305E+03  0.12509000000E+03 0.  0.
         25    1    4    4    0    0  0.65214455136E+02  0.49077348082E+02  0.57062931626E+02  0.15989120526E+03  0.12509000000E+03 0.  0.
<mgrwt>
<rscale>  2 0.45747760E+03</rscale>
<asrwt>0</asrwt>
<pdfrwt beam="1">  1       21 0.67721060E-01 0.45747760E+03</pdfrwt>
<pdfrwt beam="2">  1       21 0.16708525E-01 0.45747760E+03</pdfrwt>
<totfact> 0.59133153E+04</totfact>
</mgrwt>
</event>
<event>
 7    0  0.4788920E-002  0.4581254E+03  0.7546771E-02  0.1025326E+00
         21   -1    0    0  502  501  0.00000000000E+00  0.00000000000E+00  0.16980131803E+04  0.16980131803E+04  0.00000000000E+00 0.  1.
         21   -1    0    0  501  502 -0.00000000000E+00 -0.00000000000E+00 -0.30900656112E+02  0.30900656112E+02  0.00000000000E+00 0.  1.
      99926    2    1    2    0    0 -0.14210854715E-13 -0.14210854715E-13  0.16671125242E+04  0.17289138364E+04  0.45812540360E+03 0.  0.
      99925    2    3    3    0    0  0.99260705871E+02  0.56286230898E+02  0.11469863210E+04  0.11819224262E+04  0.26142336054E+03 0.  0.
         25    1    4    4    0    0  0.95355589458E+01  0.19497702959E+02  0.50662536022E+03  0.52229096395E+03  0.12509000000E+03 0.  0.
         25    1    4    4    0    0  0.89725146926E+02  0.36788527940E+02  0.64036096077E+03  0.65963146222E+03  0.12509000000E+03 0.  0.
         25    1    3    3    0    0 -0.99260705871E+02 -0.56286230898E+02  0.52012620318E+03  0.54699141022E+03  0.12509000000E+03 0.  0.
<mgrwt>
<rscale>  2 0.45812540E+03</rscale>
<asrwt>0</asrwt>
<pdfrwt beam="1">  1       21 0.24970776E+00 0.45812540E+03</pdfrwt>
<pdfrwt beam="2">  1       21 0.45442153E-02 0.45812540E+03</pdfrwt>
<totfact> 0.18220109E+04</totfact>
</mgrwt>
</event>
<event>
 7    0  0.4788920E-002  0.4578790E+03  0.7546771E-02  0.1025398E+00
         21   -1    0    0  502  501  0.00000000000E+00  0.00000000000E+00  0.62054920907E+03  0.62054920907E+03  0.00000000000E+00 0.  1.
         21   -1    0    0  501  502 -0.00000000000E+00 -0.00000000000E+00 -0.84462759448E+02  0.84462759448E+02  0.00000000000E+00 0.  1.
      99926    2    1    2    0    0  0.00000000000E+00 -0.44408920985E-15  0.53608644962E+03  0.70501196851E+03  0.45787901708E+03 0.  0.
      99925    2    3    3    0    0  0.10804744586E+03 -0.25305988388E+01  0.27200736015E+03  0.39345791529E+03  0.26294575988E+03 0.  0.
         25    1    3    3    0    0 -0.10804744586E+03  0.25305988388E+01  0.26407908946E+03  0.31155405322E+03  0.12509000000E+03 0.  0.
         25    1    4    4    0    0  0.12896342904E+02 -0.13159048842E+02  0.11179206308E+03  0.16877336784E+03  0.12509000000E+03 0.  0.
         25    1    4    4    0    0  0.95151102957E+02  0.10628450003E+02  0.16021529708E+03  0.22468454745E+03  0.12509000000E+03 0.  0.
<mgrwt>
<rscale>  2 0.45787902E+03</rscale>
<asrwt>0</asrwt>
<pdfrwt beam="1">  1       21 0.91257235E-01 0.45787902E+03</pdfrwt>
<pdfrwt beam="2">  1       21 0.12420994E-01 0.45787902E+03</pdfrwt>
<totfact> 0.51456032E+04</totfact>
</mgrwt>
</event>
<event>
 7    0  0.4788920E-002  0.4435555E+03  0.7546771E-02  0.1029661E+00
         21   -1    0    0  502  501  0.00000000000E+00  0.00000000000E+00  0.61651992655E+03  0.61651992655E+03  0.00000000000E+00 0.  1.
         21   -1    0    0  501  502 -0.00000000000E+00 -0.00000000000E+00 -0.79779038260E+02  0.79779038260E+02  0.00000000000E+00 0.  1.
      99926    2    1    2    0    0  0.00000000000E+00  0.00000000000E+00  0.53674088829E+03  0.69629896481E+03  0.44355548383E+03 0.  0.
      99925    2    3    3    0    0 -0.36701164941E+02  0.50891891677E+02  0.46767414005E+03  0.54023909182E+03  0.26306313863E+03 0.  0.
         25    1    3    3    0    0  0.36701164941E+02 -0.50891891677E+02  0.69066748236E+02  0.15605987299E+03  0.12509000000E+03 0.  0.
         25    1    4    4    0    0 -0.58178626293E+02  0.27091322377E+02  0.22407331376E+03  0.26452797649E+03  0.12509000000E+03 0.  0.
         25    1    4    4    0    0  0.21477461353E+02  0.23800569301E+02  0.24360082629E+03  0.27571111533E+03  0.12509000000E+03 0.  0.
<mgrwt>
<rscale>  2 0.44355548E+03</rscale>
<asrwt>0</asrwt>
<pdfrwt beam="1">  1       21 0.90664693E-01 0.44355548E+03</pdfrwt>
<pdfrwt beam="2">  1       21 0.11732212E-01 0.44355548E+03</pdfrwt>
<totfact> 0.58169469E+04</totfact>
</mgrwt>
</event>
<event>
 7    0  0.4788920E-002  0.4535565E+03  0.7546771E-02  0.1026667E+00
         21   -1    0    0  502  501  0.00000000000E+00  0.00000000000E+00  0.88790514231E+02  0.88790514231E+02  0.00000000000E+00 0.  1.
         21   -1    0    0  501  502 -0.00000000000E+00 -0.00000000000E+00 -0.57921026496E+03  0.57921026496E+03  0.00000000000E+00 0.  1.
      99926    2    1    2    0    0  0.35527136788E-14 -0.14210854715E-13 -0.49041975073E+03  0.66800077919E+03  0.45355651147E+03 0.  0.
      99925    2    3    3    0    0  0.12959931084E+02  0.71178092615E+02 -0.18337015863E+03  0.32864662674E+03  0.26296332350E+03 0.  0.
         25    1    4    4    0    0 -0.23653182576E+02  0.50665431204E+02 -0.12060409893E+03  0.18253579305E+03  0.12509000000E+03 0.  0.
         25    1    4    4    0    0  0.36613113660E+02  0.20512661411E+02 -0.62766059700E+02  0.14611083369E+03  0.12509000000E+03 0.  0.
         25    1    3    3    0    0 -0.12959931084E+02 -0.71178092615E+02 -0.30704959210E+03  0.33935415246E+03  0.12509000000E+03 0.  0.
<mgrwt>
<rscale>  2 0.45355651E+03</rscale>
<asrwt>0</asrwt>
<pdfrwt beam="1">  1       21 0.13057429E-01 0.45355651E+03</pdfrwt>
<pdfrwt beam="2">  1       21 0.85177977E-01 0.45355651E+03</pdfrwt>
<totfact> 0.55301570E+04</totfact>
</mgrwt>
</event>
<event>
 7    0  0.4788920E-002  0.4404384E+03  0.7546771E-02  0.1030612E+00
         21   -1    0    0  502  501  0.00000000000E+00  0.00000000000E+00  0.22675045600E+02  0.22675045600E+02  0.00000000000E+00 0.  1.
         21   -1    0    0  501  502 -0.00000000000E+00 -0.00000000000E+00 -0.21387606192E+04  0.21387606192E+04  0.00000000000E+00 0.  1.
      99926    2    1    2    0    0  0.00000000000E+00  0.00000000000E+00 -0.21160855736E+04  0.21614356648E+04  0.44043839327E+03 0.  0.
      99925    2    3    3    0    0 -0.88684831071E+01  0.32524181684E+02 -0.18050091503E+04  0.18244601143E+04  0.26355303770E+03 0.  0.
         25    1    3    3    0    0  0.88684831071E+01 -0.32524181684E+02 -0.31107642325E+03  0.33697555043E+03  0.12509000000E+03 0.  0.
         25    1    4    4    0    0  0.25747797220E+02  0.44751629269E+02 -0.92650066190E+03  0.93633148083E+03  0.12509000000E+03 0.  0.
         25    1    4    4    0    0 -0.34616280327E+02 -0.12227447585E+02 -0.87850848842E+03  0.88812863351E+03  0.12509000000E+03 0.  0.
<mgrwt>
<rscale>  2 0.44043839E+03</rscale>
<asrwt>0</asrwt>
<pdfrwt beam="1">  1       21 0.33345643E-02 0.44043839E+03</pdfrwt>
<pdfrwt beam="2">  1       21 0.31452373E+00 0.44043839E+03</pdfrwt>
<totfact> 0.12616211E+04</totfact>
</mgrwt>
</event>
<event>
 7    0  0.4788920E-002  0.4553638E+03  0.7546771E-02  0.1026134E+00
         21   -1    0    0  502  501  0.00000000000E+00  0.00000000000E+00  0.31584966033E+03  0.31584966033E+03  0.00000000000E+00 0.  1.
         21   -1    0    0  501  502 -0.00000000000E+00 -0.00000000000E+00 -0.16412568424E+03  0.16412568424E+03  0.00000000000E+00 0.  1.
      99926    2    1    2    0    0  0.00000000000E+00  0.00000000000E+00  0.15172397609E+03  0.47997534457E+03  0.45536377379E+03 0.  0.
      99925    2    3    3    0    0 -0.62388836899E+02 -0.77447737032E+02  0.15310839408E+03  0.32016313085E+03  0.26300519211E+03 0.  0.
         25    1    4    4    0    0 -0.62571876318E+02 -0.43690875653E+02  0.11133604839E+03  0.18403085636E+03  0.12509000000E+03 0.  0.
         25    1    4    4    0    0  0.18303941931E+00 -0.33756861379E+02  0.41772345683E+02  0.13613227449E+03  0.12509000000E+03 0.  0.
         25    1    3    3    0    0  0.62388836899E+02  0.77447737032E+02 -0.13844179908E+01  0.15981221372E+03  0.12509000000E+03 0.  0.
<mgrwt>
<rscale>  2 0.45536377E+03</rscale>
<asrwt>0</asrwt>
<pdfrwt beam="1">  1       21 0.46448479E-01 0.45536377E+03</pdfrwt>
<pdfrwt beam="2">  1       21 0.24136130E-01 0.45536377E+03</pdfrwt>
<totfact> 0.66509643E+04</totfact>
</mgrwt>
</event>
<event>
 7    0  0.4788920E-002  0.4552595E+03  0.7546771E-02  0.1026165E+00
         21   -1    0    0  502  501  0.00000000000E+00  0.00000000000E+00  0.27857334294E+03  0.27857334294E+03  0.00000000000E+00 0.  1.
         21   -1    0    0  501  502 -0.00000000000E+00 -0.00000000000E+00 -0.18600234863E+03  0.18600234863E+03  0.00000000000E+00 0.  1.
      99926    2    1    2    0    0  0.66613381478E-15  0.71054273576E-14  0.92570994312E+02  0.46457569158E+03  0.45525946911E+03 0.  0.
      99925    2    3    3    0    0  0.15760099434E+01  0.55211399284E+02  0.15919555710E+03  0.31246677374E+03  0.26313775266E+03 0.  0.
         25    1    3    3    0    0 -0.15760099434E+01 -0.55211399284E+02 -0.66624562788E+02  0.15210891784E+03  0.12509000000E+03 0.  0.
         25    1    4    4    0    0  0.69273614247E+01  0.37231592686E+02  0.35234735316E+02  0.13536312091E+03  0.12509000000E+03 0.  0.
         25    1    4    4    0    0 -0.53513514813E+01  0.17979806598E+02  0.12396082178E+03  0.17710365283E+03  0.12509000000E+03 0.  0.
<mgrwt>
<rscale>  2 0.45525947E+03</rscale>
<asrwt>0</asrwt>
<pdfrwt beam="1">  1       21 0.40966668E-01 0.45525947E+03</pdfrwt>
<pdfrwt beam="2">  1       21 0.27353286E-01 0.45525947E+03</pdfrwt>
<totfact> 0.67702020E+04</totfact>
</mgrwt>
</event>
<event>
 7    0  0.4788920E-002  0.4582245E+03  0.7546771E-02  0.1025297E+00
         21   -1    0    0  502  501  0.00000000000E+00  0.00000000000E+00  0.85329432012E+02  0.85329432012E+02  0.00000000000E+00 0.  1.
         21   -1    0    0  501  502 -0.00000000000E+00 -0.00000000000E+00 -0.61517381716E+03  0.61517381716E+03  0.00000000000E+00 0.  1.
      99926    2    1    2    0    0  0.00000000000E+00  0.00000000000E+00 -0.52984438515E+03  0.70050324918E+03  0.45822454062E+03 0.  0.
      99925    2    3    3    0    0 -0.35126381155E+02  0.10947709431E+03 -0.35797904688E+03  0.45883343428E+03  0.26298293781E+03 0.  0.
         25    1    3    3    0    0  0.35126381155E+02 -0.10947709431E+03 -0.17186533828E+03  0.24166981490E+03  0.12509000000E+03 0.  0.
         25    1    4    4    0    0 -0.46329594504E+02  0.43931256444E+02 -0.22049109890E+03  0.26141962324E+03  0.12509000000E+03 0.  0.
         25    1    4    4    0    0  0.11203213349E+02  0.65545837866E+02 -0.13748794797E+03  0.19741381104E+03  0.12509000000E+03 0.  0.
<mgrwt>
<rscale>  2 0.45822454E+03</rscale>
<asrwt>0</asrwt>
<pdfrwt beam="1">  1       21 0.12548446E-01 0.45822454E+03</pdfrwt>
<pdfrwt beam="2">  1       21 0.90466737E-01 0.45822454E+03</pdfrwt>
<totfact> 0.51554856E+04</totfact>
</mgrwt>
</event>
<event>
 7    0  0.4788920E-002  0.4690199E+03  0.7546771E-02  0.1022197E+00
         21   -1    0    0  502  501  0.00000000000E+00  0.00000000000E+00  0.31762028767E+03  0.31762028767E+03  0.00000000000E+00 0. -1.
         21   -1    0    0  501  502 -0.00000000000E+00 -0.00000000000E+00 -0.17314672086E+03  0.17314672086E+03  0.00000000000E+00 0. -1.
      99926    2    1    2    0    0  0.00000000000E+00 -0.14210854715E-13  0.14447356681E+03  0.49076700853E+03  0.46901987715E+03 0.  0.
      99925    2    3    3    0    0 -0.45894106687E+01 -0.66632762874E+02 -0.21654830090E+02  0.27234736625E+03  0.26314096690E+03 0.  0.
         25    1    3    3    0    0  0.45894106687E+01  0.66632762874E+02  0.16612839690E+03  0.21841964228E+03  0.12509000000E+03 0.  0.
         25    1    4    4    0    0 -0.14910035292E+01 -0.72071299013E+02  0.43054992273E+01  0.14443870900E+03  0.12509000000E+03 0.  0.
         25    1    4    4    0    0 -0.30984071394E+01  0.54385361394E+01 -0.25960329317E+02  0.12790865725E+03  0.12509000000E+03 0.  0.
<mgrwt>
<rscale>  2 0.46901988E+03</rscale>
<asrwt>0</asrwt>
<pdfrwt beam="1">  1       21 0.46708866E-01 0.46901988E+03</pdfrwt>
<pdfrwt beam="2">  1       21 0.25462753E-01 0.46901988E+03</pdfrwt>
<totfact> 0.59071532E+04</totfact>
</mgrwt>
</event>
<event>
 7    0  0.4788920E-002  0.4559329E+03  0.7546771E-02  0.1025967E+00
         21   -1    0    0  502  501  0.00000000000E+00  0.00000000000E+00  0.69548878301E+03  0.69548878301E+03  0.00000000000E+00 0.  1.
         21   -1    0    0  501  502 -0.00000000000E+00 -0.00000000000E+00 -0.74722564631E+02  0.74722564631E+02  0.00000000000E+00 0.  1.
      99926    2    1    2    0    0 -0.71054273576E-14  0.00000000000E+00  0.62076621838E+03  0.77021134764E+03  0.45593291410E+03 0.  0.
      99925    2    3    3    0    0  0.56361669216E+02  0.84674090735E+02  0.30294085433E+03  0.41383120014E+03  0.26293870310E+03 0.  0.
         25    1    3    3    0    0 -0.56361669216E+02 -0.84674090735E+02  0.31782536405E+03  0.35638014750E+03  0.12509000000E+03 0.  0.
         25    1    4    4    0    0  0.53290390618E+02  0.67426829549E+02  0.13103096792E+03  0.20050652291E+03  0.12509000000E+03 0.  0.
         25    1    4    4    0    0  0.30712785976E+01  0.17247261186E+02  0.17190988641E+03  0.21332467723E+03  0.12509000000E+03 0.  0.
<mgrwt>
<rscale>  2 0.45593291E+03</rscale>
<asrwt>0</asrwt>
<pdfrwt beam="1">  1       21 0.10227776E+00 0.45593291E+03</pdfrwt>
<pdfrwt beam="2">  1       21 0.10988613E-01 0.45593291E+03</pdfrwt>
<totfact> 0.48880394E+04</totfact>
</mgrwt>
</event>
<event>
 7    0  0.4788920E-002  0.4581288E+03  0.7546771E-02  0.1025325E+00
         21   -1    0    0  502  501  0.00000000000E+00  0.00000000000E+00  0.21347612461E+04  0.21347612461E+04  0.00000000000E+00 0.  1.
         21   -1    0    0  501  502 -0.00000000000E+00 -0.00000000000E+00 -0.24579092777E+02  0.24579092777E+02  0.00000000000E+00 0.  1.
      99926    2    1    2    0    0  0.00000000000E+00 -0.35527136788E-14  0.21101821533E+04  0.21593403389E+04  0.45812877982E+03 0.  0.
      99925    2    3    3    0    0  0.97975082302E+02  0.19641700276E+02  0.16023621059E+04  0.16268803668E+04  0.26304086468E+03 0.  0.
         25    1    4    4    0    0  0.70278517019E+02  0.41557625343E+02  0.95315723990E+03  0.96479134442E+03  0.12509000000E+03 0.  0.
         25    1    4    4    0    0  0.27696565284E+02 -0.21915925067E+02  0.64920486598E+03  0.66208902242E+03  0.12509000000E+03 0.  0.
         25    1    3    3    0    0 -0.97975082302E+02 -0.19641700276E+02  0.50782004742E+03  0.53245997202E+03  0.12509000000E+03 0.  0.
<mgrwt>
<rscale>  2 0.45812878E+03</rscale>
<asrwt>0</asrwt>
<pdfrwt beam="1">  1       21 0.31393535E+00 0.45812878E+03</pdfrwt>
<pdfrwt beam="2">  1       21 0.36145739E-02 0.45812878E+03</pdfrwt>
<totfact> 0.11008501E+04</totfact>
</mgrwt>
</event>
<event>
 7    0  0.4788920E-002  0.4486993E+03  0.7546771E-02  0.1028111E+00
         21   -1    0    0  502  501  0.00000000000E+00  0.00000000000E+00  0.34934351336E+03  0.34934351336E+03  0.00000000000E+00 0.  1.
         21   -1    0    0  501  502 -0.00000000000E+00 -0.00000000000E+00 -0.14407817266E+03  0.14407817266E+03  0.00000000000E+00 0.  1.
      99926    2    1    2    0    0 -0.17763568394E-14 -0.18873791419E-14  0.20526534069E+03  0.49342168602E+03  0.44869934271E+03 0.  0.
      99925    2    3    3    0    0  0.94278878217E+01  0.94539467360E+00  0.12557315171E+02  0.26347893219E+03  0.26300890232E+03 0.  0.
         25    1    4    4    0    0  0.36287622874E+02  0.25968274168E+02  0.70347869345E+01  0.13299676374E+03  0.12509000000E+03 0.  0.
         25    1    3    3    0    0 -0.94278878217E+01 -0.94539467360E+00  0.19270802552E+03  0.22994275383E+03  0.12509000000E+03 0.  0.
         25    1    4    4    0    0 -0.26859735052E+02 -0.25022879494E+02  0.55225282363E+01  0.13048216845E+03  0.12509000000E+03 0.  0.
<mgrwt>
<rscale>  2 0.44869934E+03</rscale>
<asrwt>0</asrwt>
<pdfrwt beam="1">  1       21 0.51374046E-01 0.44869934E+03</pdfrwt>
<pdfrwt beam="2">  1       21 0.21187967E-01 0.44869934E+03</pdfrwt>
<totfact> 0.69128762E+04</totfact>
</mgrwt>
</event>
<event>
 7    0  0.4788920E-002  0.4536738E+03  0.7546771E-02  0.1026632E+00
         21   -1    0    0  502  501  0.00000000000E+00  0.00000000000E+00  0.32269145369E+03  0.32269145369E+03  0.00000000000E+00 0. -1.
         21   -1    0    0  501  502 -0.00000000000E+00 -0.00000000000E+00 -0.15945565012E+03  0.15945565012E+03  0.00000000000E+00 0. -1.
      99926    2    1    2    0    0  0.00000000000E+00  0.35527136788E-14  0.16323580357E+03  0.48214710382E+03  0.45367378385E+03 0.  0.
      99925    2    3    3    0    0  0.10373657783E+03 -0.21041164137E+02  0.62932653466E+02  0.29002152460E+03  0.26257943121E+03 0.  0.
         25    1    4    4    0    0  0.48788203749E+02  0.28456295682E+02  0.39560743073E+02  0.14283770539E+03  0.12509000000E+03 0.  0.
         25    1    4    4    0    0  0.54948374080E+02 -0.49497459819E+02  0.23371910393E+02  0.14718381921E+03  0.12509000000E+03 0.  0.
         25    1    3    3    0    0 -0.10373657783E+03  0.21041164137E+02  0.10030315010E+03  0.19212557921E+03  0.12509000000E+03 0.  0.
<mgrwt>
<rscale>  2 0.45367378E+03</rscale>
<asrwt>0</asrwt>
<pdfrwt beam="1">  1       21 0.47454626E-01 0.45367378E+03</pdfrwt>
<pdfrwt beam="2">  1       21 0.23449360E-01 0.45367378E+03</pdfrwt>
<totfact> 0.67249327E+04</totfact>
</mgrwt>
</event>
<event>
 7    0  0.4788920E-002  0.4580496E+03  0.7546771E-02  0.1025348E+00
         21   -1    0    0  502  501  0.00000000000E+00  0.00000000000E+00  0.41025495909E+03  0.41025495909E+03  0.00000000000E+00 0.  1.
         21   -1    0    0  501  502 -0.00000000000E+00 -0.00000000000E+00 -0.12785307561E+03  0.12785307561E+03  0.00000000000E+00 0.  1.
      99926    2    1    2    0    0 -0.71054273576E-14  0.00000000000E+00  0.28240188348E+03  0.53810803470E+03  0.45804959690E+03 0.  0.
      99925    2    3    3    0    0 -0.61462078589E+02  0.81360964265E+02  0.11470973498E+03  0.30537351131E+03  0.26400277366E+03 0.  0.
         25    1    4    4    0    0  0.74040089538E+01  0.52281889414E+02  0.39622330900E+02  0.14144133948E+03  0.12509000000E+03 0.  0.
         25    1    4    4    0    0 -0.68866087543E+02  0.29079074851E+02  0.75087404081E+02  0.16393217183E+03  0.12509000000E+03 0.  0.
         25    1    3    3    0    0  0.61462078589E+02 -0.81360964265E+02  0.16769214849E+03  0.23273452339E+03  0.12509000000E+03 0.  0.
<mgrwt>
<rscale>  2 0.45804960E+03</rscale>
<asrwt>0</asrwt>
<pdfrwt beam="1">  1       21 0.60331611E-01 0.45804960E+03</pdfrwt>
<pdfrwt beam="2">  1       21 0.18801923E-01 0.45804960E+03</pdfrwt>
<totfact> 0.61169147E+04</totfact>
</mgrwt>
</event>
<event>
 7    0  0.4788920E-002  0.4331847E+03  0.7546771E-02  0.1032859E+00
         21   -1    0    0  502  501  0.00000000000E+00  0.00000000000E+00  0.56166227246E+03  0.56166227246E+03  0.00000000000E+00 0.  1.
         21   -1    0    0  501  502 -0.00000000000E+00 -0.00000000000E+00 -0.83523925016E+02  0.83523925016E+02  0.00000000000E+00 0.  1.
      99926    2    1    2    0    0  0.17763568394E-14  0.14210854715E-13  0.47813834745E+03  0.64518619748E+03  0.43318466053E+03 0.  0.
      99925    2    3    3    0    0 -0.96694870551E+01 -0.90662157537E+02  0.30630323466E+03  0.41391159906E+03  0.26303614672E+03 0.  0.
         25    1    4    4    0    0  0.94581216961E+01 -0.31907712342E+02  0.94421178006E+02  0.16021992738E+03  0.12509000000E+03 0.  0.
         25    1    4    4    0    0 -0.19127608751E+02 -0.58754445195E+02  0.21188205666E+03  0.25369167168E+03  0.12509000000E+03 0.  0.
         25    1    3    3    0    0  0.96694870551E+01  0.90662157537E+02  0.17183511278E+03  0.23127459842E+03  0.12509000000E+03 0.  0.
<mgrwt>
<rscale>  2 0.43318466E+03</rscale>
<asrwt>0</asrwt>
<pdfrwt beam="1">  1       21 0.82597391E-01 0.43318466E+03</pdfrwt>
<pdfrwt beam="2">  1       21 0.12282930E-01 0.43318466E+03</pdfrwt>
<totfact> 0.66741970E+04</totfact>
</mgrwt>
</event>
<event>
 7    0  0.4788920E-002  0.4451456E+03  0.7546771E-02  0.1029180E+00
         21   -1    0    0  502  501  0.00000000000E+00  0.00000000000E+00  0.18281545367E+03  0.18281545367E+03  0.00000000000E+00 0. -1.
         21   -1    0    0  501  502 -0.00000000000E+00 -0.00000000000E+00 -0.27097625018E+03  0.27097625018E+03  0.00000000000E+00 0. -1.
      99926    2    1    2    0    0  0.00000000000E+00  0.00000000000E+00 -0.88160796507E+02  0.45379170386E+03  0.44514557669E+03 0.  0.
      99925    2    3    3    0    0 -0.76473073768E+01 -0.93945595871E+02 -0.99836963847E+02  0.29673089628E+03  0.26305427037E+03 0.  0.
         25    1    4    4    0    0 -0.40254189650E+02 -0.42165956425E+02 -0.31244096846E+02  0.14149936167E+03  0.12509000000E+03 0.  0.
         25    1    4    4    0    0  0.32606882273E+02 -0.51779639446E+02 -0.68592867001E+02  0.15523153461E+03  0.12509000000E+03 0.  0.
         25    1    3    3    0    0  0.76473073768E+01  0.93945595871E+02  0.11676167340E+02  0.15706080758E+03  0.12509000000E+03 0.  0.
<mgrwt>
<rscale>  2 0.44514558E+03</rscale>
<asrwt>0</asrwt>
<pdfrwt beam="1">  1       21 0.26884626E-01 0.44514558E+03</pdfrwt>
<pdfrwt beam="2">  1       21 0.39849448E-01 0.44514558E+03</pdfrwt>
<totfact> 0.74301179E+04</totfact>
</mgrwt>
</event>
<event>
 7    0  0.4788920E-002  0.4521847E+03  0.7546771E-02  0.1027073E+00
         21   -1    0    0  502  501  0.00000000000E+00  0.00000000000E+00  0.10889329138E+04  0.10889329138E+04  0.00000000000E+00 0. -1.
         21   -1    0    0  501  502 -0.00000000000E+00 -0.00000000000E+00 -0.46942977984E+02  0.46942977984E+02  0.00000000000E+00 0. -1.
      99926    2    1    2    0    0  0.14210854715E-13  0.00000000000E+00  0.10419899358E+04  0.11358758918E+04  0.45218471358E+03 0.  0.
      99925    2    3    3    0    0 -0.10457827298E+03  0.22652211616E+02  0.58078907052E+03  0.64617855248E+03  0.26226139514E+03 0.  0.
         25    1    4    4    0    0 -0.32703852350E+02  0.11649494632E+02  0.19606984108E+03  0.23515132014E+03  0.12509000000E+03 0.  0.
         25    1    4    4    0    0 -0.71874420631E+02  0.11002716984E+02  0.38471922944E+03  0.41102723234E+03  0.12509000000E+03 0.  0.
         25    1    3    3    0    0  0.10457827298E+03 -0.22652211616E+02  0.46120086530E+03  0.48969733930E+03  0.12509000000E+03 0.  0.
<mgrwt>
<rscale>  2 0.45218471E+03</rscale>
<asrwt>0</asrwt>
<pdfrwt beam="1">  1       21 0.16013718E+00 0.45218471E+03</pdfrwt>
<pdfrwt beam="2">  1       21 0.69033798E-02 0.45218471E+03</pdfrwt>
<totfact> 0.35019665E+04</totfact>
</mgrwt>
</event>
<event>
 7    0  0.4788920E-002  0.4528197E+03  0.7546771E-02  0.1026885E+00
         21   -1    0    0  502  501  0.00000000000E+00  0.00000000000E+00  0.33163571634E+03  0.33163571634E+03  0.00000000000E+00 0. -1.
         21   -1    0    0  501  502 -0.00000000000E+00 -0.00000000000E+00 -0.15457144436E+03  0.15457144436E+03  0.00000000000E+00 0. -1.
      99926    2    1    2    0    0  0.14210854715E-13  0.00000000000E+00  0.17706427198E+03  0.48620716071E+03  0.45281966246E+03 0.  0.
      99925    2    3    3    0    0  0.10875115917E+03 -0.20182071574E+02  0.99948165512E+02  0.30228181550E+03  0.26296488275E+03 0.  0.
         25    1    3    3    0    0 -0.10875115917E+03  0.20182071574E+02  0.77116106468E+02  0.18392534521E+03  0.12509000000E+03 0.  0.
         25    1    4    4    0    0  0.25960312181E+02 -0.20465916538E+02  0.76908238921E+02  0.15051636742E+03  0.12509000000E+03 0.  0.
         25    1    4    4    0    0  0.82790846987E+02  0.28384496463E+00  0.23039926591E+02  0.15176544808E+03  0.12509000000E+03 0.  0.
<mgrwt>
<rscale>  2 0.45281966E+03</rscale>
<asrwt>0</asrwt>
<pdfrwt beam="1">  1       21 0.48769958E-01 0.45281966E+03</pdfrwt>
<pdfrwt beam="2">  1       21 0.22731095E-01 0.45281966E+03</pdfrwt>
<totfact> 0.67410223E+04</totfact>
</mgrwt>
</event>
<event>
 7    0  0.4788920E-002  0.4516868E+03  0.7546771E-02  0.1027220E+00
         21   -1    0    0  502  501  0.00000000000E+00  0.00000000000E+00  0.59456249332E+02  0.59456249332E+02  0.00000000000E+00 0. -1.
         21   -1    0    0  501  502 -0.00000000000E+00 -0.00000000000E+00 -0.85786175060E+03  0.85786175060E+03  0.00000000000E+00 0. -1.
      99926    2    1    2    0    0  0.00000000000E+00  0.00000000000E+00 -0.79840550126E+03  0.91731799993E+03  0.45168680360E+03 0.  0.
      99925    2    3    3    0    0  0.33266741266E+02  0.64406807886E+02 -0.33535416669E+03  0.43222114411E+03  0.26286457981E+03 0.  0.
         25    1    4    4    0    0 -0.21490756782E+02  0.22501344687E+02 -0.14123569377E+03  0.19121504239E+03  0.12509000000E+03 0.  0.
         25    1    4    4    0    0  0.54757498048E+02  0.41905463199E+02 -0.19411847292E+03  0.24100610172E+03  0.12509000000E+03 0.  0.
         25    1    3    3    0    0 -0.33266741266E+02 -0.64406807886E+02 -0.46305133457E+03  0.48509685582E+03  0.12509000000E+03 0.  0.
<mgrwt>
<rscale>  2 0.45168680E+03</rscale>
<asrwt>0</asrwt>
<pdfrwt beam="1">  1       21 0.87435668E-02 0.45168680E+03</pdfrwt>
<pdfrwt beam="2">  1       21 0.12615613E+00 0.45168680E+03</pdfrwt>
<totfact> 0.43612834E+04</totfact>
</mgrwt>
</event>
<event>
 7    0  0.4788920E-002  0.4546546E+03  0.7546771E-02  0.1026343E+00
         21   -1    0    0  502  501  0.00000000000E+00  0.00000000000E+00  0.18990339907E+03  0.18990339907E+03  0.00000000000E+00 0. -1.
         21   -1    0    0  501  502 -0.00000000000E+00 -0.00000000000E+00 -0.27212622054E+03  0.27212622054E+03  0.00000000000E+00 0. -1.
      99926    2    1    2    0    0  0.37747582837E-14  0.00000000000E+00 -0.82222821465E+02  0.46202961961E+03  0.45465456890E+03 0.  0.
      99925    2    3    3    0    0  0.38138439921E+00  0.88986126772E+02 -0.12234087627E+03  0.30336127798E+03  0.26294885199E+03 0.  0.
         25    1    3    3    0    0 -0.38138439921E+00 -0.88986126772E+02  0.40118054801E+02  0.15866834162E+03  0.12509000000E+03 0.  0.
         25    1    4    4    0    0 -0.37696044723E+02  0.30475077065E+02 -0.53512925901E+02  0.14443290293E+03  0.12509000000E+03 0.  0.
         25    1    4    4    0    0  0.38077429122E+02  0.58511049707E+02 -0.68827950364E+02  0.15892837506E+03  0.12509000000E+03 0.  0.
<mgrwt>
<rscale>  2 0.45465457E+03</rscale>
<asrwt>0</asrwt>
<pdfrwt beam="1">  1       21 0.27926971E-01 0.45465457E+03</pdfrwt>
<pdfrwt beam="2">  1       21 0.40018562E-01 0.45465457E+03</pdfrwt>
<totfact> 0.68218322E+04</totfact>
</mgrwt>
</event>
<event>
 7    0  0.4788920E-002  0.4543039E+03  0.7546771E-02  0.1026446E+00
         21   -1    0    0  502  501  0.00000000000E+00  0.00000000000E+00  0.65673691557E+02  0.65673691557E+02  0.00000000000E+00 0.  1.
         21   -1    0    0  501  502 -0.00000000000E+00 -0.00000000000E+00 -0.78567240448E+03  0.78567240448E+03  0.00000000000E+00 0.  1.
      99926    2    1    2    0    0  0.00000000000E+00  0.00000000000E+00 -0.71999871292E+03  0.85134609604E+03  0.45430389458E+03 0.  0.
      99925    2    3    3    0    0  0.87961417572E+02  0.54792497483E+02 -0.53578115606E+03  0.60573859387E+03  0.26290372413E+03 0.  0.
         25    1    4    4    0    0  0.32874224607E+02  0.50743108363E+02 -0.33649886810E+03  0.36405298244E+03  0.12509000000E+03 0.  0.
         25    1    4    4    0    0  0.55087192965E+02  0.40493891196E+01 -0.19928228795E+03  0.24168561143E+03  0.12509000000E+03 0.  0.
         25    1    3    3    0    0 -0.87961417572E+02 -0.54792497483E+02 -0.18421755687E+03  0.24560750217E+03  0.12509000000E+03 0.  0.
<mgrwt>
<rscale>  2 0.45430389E+03</rscale>
<asrwt>0</asrwt>
<pdfrwt beam="1">  1       21 0.96578957E-02 0.45430389E+03</pdfrwt>
<pdfrwt beam="2">  1       21 0.11554006E+00 0.45430389E+03</pdfrwt>
<totfact> 0.45627862E+04</totfact>
</mgrwt>
</event>
<event>
 7    0  0.4788920E-002  0.4758798E+03  0.7546771E-02  0.1020274E+00
         21   -1    0    0  502  501  0.00000000000E+00  0.00000000000E+00  0.30234529267E+03  0.30234529267E+03  0.00000000000E+00 0.  1.
         21   -1    0    0  501  502 -0.00000000000E+00 -0.00000000000E+00 -0.18725412830E+03  0.18725412830E+03  0.00000000000E+00 0.  1.
      99926    2    1    2    0    0  0.28421709430E-13  0.62172489379E-14  0.11509116437E+03  0.48959942097E+03  0.47587983451E+03 0.  0.
      99925    2    3    3    0    0 -0.12957258791E+03 -0.47152749283E+01  0.94849330010E+02  0.30830262200E+03  0.26314030853E+03 0.  0.
         25    1    3    3    0    0  0.12957258791E+03  0.47152749283E+01  0.20241834360E+02  0.18129679896E+03  0.12509000000E+03 0.  0.
         25    1    4    4    0    0 -0.49347560435E+02  0.36087097532E+02  0.46563807022E+02  0.14680993343E+03  0.12509000000E+03 0.  0.
         25    1    4    4    0    0 -0.80225027480E+02 -0.40802372460E+02  0.48285522988E+02  0.16149268857E+03  0.12509000000E+03 0.  0.
<mgrwt>
<rscale>  2 0.47587983E+03</rscale>
<asrwt>0</asrwt>
<pdfrwt beam="1">  1       21 0.44462543E-01 0.47587983E+03</pdfrwt>
<pdfrwt beam="2">  1       21 0.27537372E-01 0.47587983E+03</pdfrwt>
<totfact> 0.56114824E+04</totfact>
</mgrwt>
</event>
<event>
 7    0  0.4788920E-002  0.4838424E+03  0.7546771E-02  0.1018084E+00
         21   -1    0    0  502  501  0.00000000000E+00  0.00000000000E+00  0.94119825911E+02  0.94119825911E+02  0.00000000000E+00 0. -1.
         21   -1    0    0  501  502 -0.00000000000E+00 -0.00000000000E+00 -0.62182282449E+03  0.62182282449E+03  0.00000000000E+00 0. -1.
      99926    2    1    2    0    0  0.00000000000E+00  0.00000000000E+00 -0.52770299858E+03  0.71594265040E+03  0.48384235444E+03 0.  0.
      99925    2    3    3    0    0  0.73888641306E+02  0.46266872453E+02 -0.48332784177E+03  0.55714461060E+03  0.26306683503E+03 0.  0.
         25    1    4    4    0    0  0.25425412085E+02  0.46400957351E+01 -0.30104946495E+03  0.32702640644E+03  0.12509000000E+03 0.  0.
         25    1    4    4    0    0  0.48463229221E+02  0.41626776718E+02 -0.18227837683E+03  0.23011820416E+03  0.12509000000E+03 0.  0.
         25    1    3    3    0    0 -0.73888641306E+02 -0.46266872453E+02 -0.44375156801E+02  0.15879803979E+03  0.12509000000E+03 0.  0.
<mgrwt>
<rscale>  2 0.48384235E+03</rscale>
<asrwt>0</asrwt>
<pdfrwt beam="1">  1       21 0.13841151E-01 0.48384235E+03</pdfrwt>
<pdfrwt beam="2">  1       21 0.91444532E-01 0.48384235E+03</pdfrwt>
<totfact> 0.41733738E+04</totfact>
</mgrwt>
</event>
<event>
 7    0  0.4788920E-002  0.4500272E+03  0.7546771E-02  0.1027714E+00
         21   -1    0    0  502  501  0.00000000000E+00  0.00000000000E+00  0.17510269698E+04  0.17510269698E+04  0.00000000000E+00 0. -1.
         21   -1    0    0  501  502 -0.00000000000E+00 -0.00000000000E+00 -0.28915102647E+02  0.28915102647E+02  0.00000000000E+00 0. -1.
      99926    2    1    2    0    0  0.00000000000E+00 -0.71054273576E-14  0.17221118671E+04  0.17799420724E+04  0.45002721949E+03 0.  0.
      99925    2    3    3    0    0  0.54796535272E+02  0.58352777718E+02  0.13780578865E+04  0.14052043553E+04  0.26296013896E+03 0.  0.
         25    1    4    4    0    0  0.19351108755E+02  0.69107659846E+02  0.75027991650E+03  0.76401426378E+03  0.12509000000E+03 0.  0.
         25    1    3    3    0    0 -0.54796535272E+02 -0.58352777718E+02  0.34405398065E+03  0.37473771714E+03  0.12509000000E+03 0.  0.
         25    1    4    4    0    0  0.35445426517E+02 -0.10754882128E+02  0.62777796999E+03  0.64119009152E+03  0.12509000000E+03 0.  0.
<mgrwt>
<rscale>  2 0.45002722E+03</rscale>
<asrwt>0</asrwt>
<pdfrwt beam="1">  1       21 0.25750390E+00 0.45002722E+03</pdfrwt>
<pdfrwt beam="2">  1       21 0.42522221E-02 0.45002722E+03</pdfrwt>
<totfact> 0.18346186E+04</totfact>
</mgrwt>
</event>
<event>
 7    0  0.4788920E-002  0.4538093E+03  0.7546771E-02  0.1026592E+00
         21   -1    0    0  502  501  0.00000000000E+00  0.00000000000E+00  0.16055888426E+03  0.16055888426E+03  0.00000000000E+00 0.  1.
         21   -1    0    0  501  502 -0.00000000000E+00 -0.00000000000E+00 -0.32066565841E+03  0.32066565841E+03  0.00000000000E+00 0.  1.
      99926    2    1    2    0    0  0.00000000000E+00  0.00000000000E+00 -0.16010677414E+03  0.48122454267E+03  0.45380930064E+03 0.  0.
      99925    2    3    3    0    0 -0.88766708443E+02  0.66434648498E+02 -0.11874455735E+03  0.30902863062E+03  0.26287893334E+03 0.  0.
         25    1    4    4    0    0 -0.58808370136E+01  0.44342630172E+02 -0.44065425609E+02  0.13996472030E+03  0.12509000000E+03 0.  0.
         25    1    3    3    0    0  0.88766708443E+02 -0.66434648498E+02 -0.41362216796E+02  0.17219591205E+03  0.12509000000E+03 0.  0.
         25    1    4    4    0    0 -0.82885871429E+02  0.22092018326E+02 -0.74679131739E+02  0.16906391032E+03  0.12509000000E+03 0.  0.
<mgrwt>
<rscale>  2 0.45380930E+03</rscale>
<asrwt>0</asrwt>
<pdfrwt beam="1">  1       21 0.23611601E-01 0.45380930E+03</pdfrwt>
<pdfrwt beam="2">  1       21 0.47156714E-01 0.45380930E+03</pdfrwt>
<totfact> 0.67244395E+04</totfact>
</mgrwt>
</event>
<event>
 7    0  0.4788920E-002  0.4545536E+03  0.7546771E-02  0.1026373E+00
         21   -1    0    0  502  501  0.00000000000E+00  0.00000000000E+00  0.32912958936E+03  0.32912958936E+03  0.00000000000E+00 0.  1.
         21   -1    0    0  501  502 -0.00000000000E+00 -0.00000000000E+00 -0.15694350287E+03  0.15694350287E+03  0.00000000000E+00 0.  1.
      99926    2    1    2    0    0  0.00000000000E+00  0.00000000000E+00  0.17218608649E+03  0.48607309223E+03  0.45455363007E+03 0.  0.
      99925    2    3    3    0    0  0.10533426976E+03 -0.30313409605E+02  0.13768453936E+03  0.31621410352E+03  0.26271679752E+03 0.  0.
         25    1    4    4    0    0  0.16317955867E+02 -0.19205343256E+02  0.85829359929E+02  0.15378331515E+03  0.12509000000E+03 0.  0.
         25    1    3    3    0    0 -0.10533426976E+03  0.30313409605E+02  0.34501547127E+02  0.16985898870E+03  0.12509000000E+03 0.  0.
         25    1    4    4    0    0  0.89016313896E+02 -0.11108066349E+02  0.51855179431E+02  0.16243078837E+03  0.12509000000E+03 0.  0.
<mgrwt>
<rscale>  2 0.45455363E+03</rscale>
<asrwt>0</asrwt>
<pdfrwt beam="1">  1       21 0.48401410E-01 0.45455363E+03</pdfrwt>
<pdfrwt beam="2">  1       21 0.23079927E-01 0.45455363E+03</pdfrwt>
<totfact> 0.66495930E+04</totfact>
</mgrwt>
</event>
<event>
 7    0  0.4788920E-002  0.4538302E+03  0.7546771E-02  0.1026586E+00
         21   -1    0    0  502  501  0.00000000000E+00  0.00000000000E+00  0.53765025985E+03  0.53765025985E+03  0.00000000000E+00 0. -1.
         21   -1    0    0  501  502 -0.00000000000E+00 -0.00000000000E+00 -0.95769422318E+02  0.95769422318E+02  0.00000000000E+00 0. -1.
      99926    2    1    2    0    0  0.00000000000E+00 -0.71054273576E-14  0.44188083754E+03  0.63341968217E+03  0.45383016557E+03 0.  0.
      99925    2    3    3    0    0 -0.47900340145E+02 -0.55712855680E+02  0.39652821790E+03  0.48142384972E+03  0.26293712293E+03 0.  0.
         25    1    3    3    0    0  0.47900340145E+02  0.55712855680E+02  0.45352619634E+02  0.15199583245E+03  0.12509000000E+03 0.  0.
         25    1    4    4    0    0  0.11809510994E+02 -0.44470185437E+02  0.17734480708E+03  0.22184623198E+03  0.12509000000E+03 0.  0.
         25    1    4    4    0    0 -0.59709851139E+02 -0.11242670243E+02  0.21918341082E+03  0.25957761775E+03  0.12509000000E+03 0.  0.
<mgrwt>
<rscale>  2 0.45383017E+03</rscale>
<asrwt>0</asrwt>
<pdfrwt beam="1">  1       21 0.79066214E-01 0.45383017E+03</pdfrwt>
<pdfrwt beam="2">  1       21 0.14083739E-01 0.45383017E+03</pdfrwt>
<totfact> 0.57193214E+04</totfact>
</mgrwt>
</event>
<event>
 7    0  0.4788920E-002  0.4556049E+03  0.7546771E-02  0.1026064E+00
         21   -1    0    0  502  501  0.00000000000E+00  0.00000000000E+00  0.25425607528E+02  0.25425607528E+02  0.00000000000E+00 0. -1.
         21   -1    0    0  501  502 -0.00000000000E+00 -0.00000000000E+00 -0.20410117202E+04  0.20410117202E+04  0.00000000000E+00 0. -1.
      99926    2    1    2    0    0  0.00000000000E+00 -0.35527136788E-14 -0.20155861126E+04  0.20664373277E+04  0.45560492955E+03 0.  0.
      99925    2    3    3    0    0  0.10969836565E+03 -0.16066393025E+02 -0.11470147344E+04  0.11819286462E+04  0.26271783991E+03 0.  0.
         25    1    4    4    0    0  0.24033726982E+02  0.17423410295E+02 -0.46342972511E+03  0.48093223377E+03  0.12509000000E+03 0.  0.
         25    1    4    4    0    0  0.85664638672E+02 -0.33489803321E+02 -0.68358500927E+03  0.70099641244E+03  0.12509000000E+03 0.  0.
         25    1    3    3    0    0 -0.10969836565E+03  0.16066393025E+02 -0.86857137826E+03  0.88450868149E+03  0.12509000000E+03 0.  0.
<mgrwt>
<rscale>  2 0.45560493E+03</rscale>
<asrwt>0</asrwt>
<pdfrwt beam="1">  1       21 0.37390590E-02 0.45560493E+03</pdfrwt>
<pdfrwt beam="2">  1       21 0.30014885E+00 0.45560493E+03</pdfrwt>
<totfact> 0.12596040E+04</totfact>
</mgrwt>
</event>
<event>
 7    0  0.4788920E-002  0.4523746E+03  0.7546771E-02  0.1027016E+00
         21   -1    0    0  502  501  0.00000000000E+00  0.00000000000E+00  0.40349424783E+03  0.40349424783E+03  0.00000000000E+00 0.  1.
         21   -1    0    0  501  502 -0.00000000000E+00 -0.00000000000E+00 -0.12679412859E+03  0.12679412859E+03  0.00000000000E+00 0.  1.
      99926    2    1    2    0    0  0.00000000000E+00  0.35527136788E-14  0.27670011924E+03  0.53028837642E+03  0.45237463034E+03 0.  0.
      99925    2    3    3    0    0  0.12836668938E+02  0.26603688740E+02  0.49469865688E+02  0.26922586943E+03  0.26298814581E+03 0.  0.
         25    1    4    4    0    0  0.38427701257E+02 -0.11052283307E+02  0.29780941724E+02  0.13465977046E+03  0.12509000000E+03 0.  0.
         25    1    3    3    0    0 -0.12836668938E+02 -0.26603688740E+02  0.22723025355E+03  0.26106250698E+03  0.12509000000E+03 0.  0.
         25    1    4    4    0    0 -0.25591032319E+02  0.37655972047E+02  0.19688923963E+02  0.13456609897E+03  0.12509000000E+03 0.  0.
<mgrwt>
<rscale>  2 0.45237463E+03</rscale>
<asrwt>0</asrwt>
<pdfrwt beam="1">  1       21 0.59337389E-01 0.45237463E+03</pdfrwt>
<pdfrwt beam="2">  1       21 0.18646195E-01 0.45237463E+03</pdfrwt>
<totfact> 0.64518572E+04</totfact>
</mgrwt>
</event>
<event>
 7    0  0.4788920E-002  0.4548176E+03  0.7546771E-02  0.1026295E+00
         21   -1    0    0  502  501  0.00000000000E+00  0.00000000000E+00  0.91833983725E+03  0.91833983725E+03  0.00000000000E+00 0. -1.
         21   -1    0    0  501  502 -0.00000000000E+00 -0.00000000000E+00 -0.56313318515E+02  0.56313318515E+02  0.00000000000E+00 0. -1.
      99926    2    1    2    0    0  0.00000000000E+00  0.00000000000E+00  0.86202651873E+03  0.97465315576E+03  0.45481760634E+03 0.  0.
      99925    2    3    3    0    0  0.11090642210E+03  0.11959770977E+02  0.50410648012E+03  0.57943482024E+03  0.26301729417E+03 0.  0.
         25    1    4    4    0    0  0.22631059703E+02  0.27197981961E+01  0.17472247703E+03  0.21609029188E+03  0.12509000000E+03 0.  0.
         25    1    4    4    0    0  0.88275362400E+02  0.92399727805E+01  0.32938400308E+03  0.36334452836E+03  0.12509000000E+03 0.  0.
         25    1    3    3    0    0 -0.11090642210E+03 -0.11959770977E+02  0.35792003862E+03  0.39521833552E+03  0.12509000000E+03 0.  0.
<mgrwt>
<rscale>  2 0.45481761E+03</rscale>
<asrwt>0</asrwt>
<pdfrwt beam="1">  1       21 0.13504997E+00 0.45481761E+03</pdfrwt>
<pdfrwt beam="2">  1       21 0.82813709E-02 0.45481761E+03</pdfrwt>
<totfact> 0.40215606E+04</totfact>
</mgrwt>
</event>
<event>
 7    0  0.4788920E-002  0.4556026E+03  0.7546771E-02  0.1026064E+00
         21   -1    0    0  502  501  0.00000000000E+00  0.00000000000E+00  0.29594919160E+03  0.29594919160E+03  0.00000000000E+00 0.  1.
         21   -1    0    0  501  502 -0.00000000000E+00 -0.00000000000E+00 -0.17534572089E+03  0.17534572089E+03  0.00000000000E+00 0.  1.
      99926    2    1    2    0    0  0.35527136788E-14  0.00000000000E+00  0.12060347071E+03  0.47129491249E+03  0.45560256517E+03 0.  0.
      99925    2    3    3    0    0 -0.30913820697E+02  0.88550489142E+02  0.94797028820E+01  0.27948027980E+03  0.26310170769E+03 0.  0.
         25    1    4    4    0    0 -0.40566778208E+02  0.45620448832E+02 -0.27358075974E+02  0.14185507135E+03  0.12509000000E+03 0.  0.
         25    1    4    4    0    0  0.96529575118E+01  0.42930040310E+02  0.36837778856E+02  0.13762520845E+03  0.12509000000E+03 0.  0.
         25    1    3    3    0    0  0.30913820697E+02 -0.88550489142E+02  0.11112376783E+03  0.19181463269E+03  0.12509000000E+03 0.  0.
<mgrwt>
<rscale>  2 0.45560257E+03</rscale>
<asrwt>0</asrwt>
<pdfrwt beam="1">  1       21 0.43521940E-01 0.45560257E+03</pdfrwt>
<pdfrwt beam="2">  1       21 0.25786135E-01 0.45560257E+03</pdfrwt>
<totfact> 0.67018580E+04</totfact>
</mgrwt>
</event>
<event>
 7    0  0.4788920E-002  0.4622348E+03  0.7546771E-02  0.1024135E+00
         21   -1    0    0  502  501  0.00000000000E+00  0.00000000000E+00  0.43931151949E+02  0.43931151949E+02  0.00000000000E+00 0.  1.
         21   -1    0    0  501  502 -0.00000000000E+00 -0.00000000000E+00 -0.12158854957E+04  0.12158854957E+04  0.00000000000E+00 0.  1.
      99926    2    1    2    0    0 -0.71054273576E-14  0.00000000000E+00 -0.11719543437E+04  0.12598166476E+04  0.46223479083E+03 0.  0.
      99925    2    3    3    0    0 -0.54141850321E+02  0.70295067692E+02 -0.51293162341E+03  0.58318440594E+03  0.26293053177E+03 0.  0.
         25    1    4    4    0    0  0.45166365439E+01  0.27835180147E+02 -0.29517280720E+03  0.32182245334E+03  0.12509000000E+03 0.  0.
         25    1    3    3    0    0  0.54141850321E+02 -0.70295067692E+02 -0.65902272032E+03  0.67663224169E+03  0.12509000000E+03 0.  0.
         25    1    4    4    0    0 -0.58658486865E+02  0.42459887545E+02 -0.21775881621E+03  0.26136195260E+03  0.12509000000E+03 0.  0.
<mgrwt>
<rscale>  2 0.46223479E+03</rscale>
<asrwt>0</asrwt>
<pdfrwt beam="1">  1       21 0.64604635E-02 0.46223479E+03</pdfrwt>
<pdfrwt beam="2">  1       21 0.17880669E+00 0.46223479E+03</pdfrwt>
<totfact> 0.28656313E+04</totfact>
</mgrwt>
</event>
<event>
 7    0  0.4788920E-002  0.4525728E+03  0.7546771E-02  0.1026958E+00
         21   -1    0    0  502  501  0.00000000000E+00  0.00000000000E+00  0.19510779076E+04  0.19510779076E+04  0.00000000000E+00 0.  1.
         21   -1    0    0  501  502 -0.00000000000E+00 -0.00000000000E+00 -0.26244744160E+02  0.26244744160E+02  0.00000000000E+00 0.  1.
      99926    2    1    2    0    0 -0.71054273576E-14  0.71054273576E-14  0.19248331635E+04  0.19773226518E+04  0.45257282517E+03 0.  0.
      99925    2    3    3    0    0  0.60808825570E+02 -0.53976146759E+02  0.15425100358E+04  0.15669208734E+04  0.26323501882E+03 0.  0.
         25    1    3    3    0    0 -0.60808825570E+02  0.53976146759E+02  0.38232312761E+03  0.41040177838E+03  0.12509000000E+03 0.  0.
         25    1    4    4    0    0  0.65961630196E+01  0.73241066007E+01  0.65495722474E+03  0.66686852246E+03  0.12509000000E+03 0.  0.
         25    1    4    4    0    0  0.54212662551E+02 -0.61300253359E+02  0.88755281110E+03  0.90005235094E+03  0.12509000000E+03 0.  0.
<mgrwt>
<rscale>  2 0.45257283E+03</rscale>
<asrwt>0</asrwt>
<pdfrwt beam="1">  1       21 0.28692312E+00 0.45257283E+03</pdfrwt>
<pdfrwt beam="2">  1       21 0.38595225E-02 0.45257283E+03</pdfrwt>
<totfact> 0.14352081E+04</totfact>
</mgrwt>
</event>
<event>
 7    0  0.4788920E-002  0.4554747E+03  0.7546771E-02  0.1026102E+00
         21   -1    0    0  502  501  0.00000000000E+00  0.00000000000E+00  0.11356692174E+03  0.11356692174E+03  0.00000000000E+00 0.  1.
         21   -1    0    0  501  502 -0.00000000000E+00 -0.00000000000E+00 -0.45668485577E+03  0.45668485577E+03  0.00000000000E+00 0.  1.
      99926    2    1    2    0    0  0.88817841970E-15  0.00000000000E+00 -0.34311793403E+03  0.57025177751E+03  0.45547466790E+03 0.  0.
      99925    2    3    3    0    0  0.57453181434E+01  0.10272945803E+03 -0.27396974249E+03  0.39414007795E+03  0.26400877072E+03 0.  0.
         25    1    4    4    0    0  0.49038268484E+01  0.34327239075E+02 -0.76804903569E+02  0.15082741187E+03  0.12509000000E+03 0.  0.
         25    1    3    3    0    0 -0.57453181434E+01 -0.10272945803E+03 -0.69148191536E+02  0.17611169956E+03  0.12509000000E+03 0.  0.
         25    1    4    4    0    0  0.84149129499E+00  0.68402218956E+02 -0.19716483892E+03  0.24331266608E+03  0.12509000000E+03 0.  0.
<mgrwt>
<rscale>  2 0.45547467E+03</rscale>
<asrwt>0</asrwt>
<pdfrwt beam="1">  1       21 0.16701018E-01 0.45547467E+03</pdfrwt>
<pdfrwt beam="2">  1       21 0.67159536E-01 0.45547467E+03</pdfrwt>
<totfact> 0.60321024E+04</totfact>
</mgrwt>
</event>
<event>
 7    0  0.4788920E-002  0.4404339E+03  0.7546771E-02  0.1030614E+00
         21   -1    0    0  502  501  0.00000000000E+00  0.00000000000E+00  0.67791438275E+03  0.67791438275E+03  0.00000000000E+00 0.  1.
         21   -1    0    0  501  502 -0.00000000000E+00 -0.00000000000E+00 -0.71536324773E+02  0.71536324773E+02  0.00000000000E+00 0.  1.
      99926    2    1    2    0    0  0.00000000000E+00  0.00000000000E+00  0.60637805797E+03  0.74945070752E+03  0.44043389267E+03 0.  0.
      99925    2    3    3    0    0  0.94417394298E+02  0.14899038035E+02  0.43001466976E+03  0.51304390034E+03  0.26299201848E+03 0.  0.
         25    1    4    4    0    0  0.75884680541E+02  0.78584640261E+01  0.17444208197E+03  0.22781086071E+03  0.12509000000E+03 0.  0.
         25    1    4    4    0    0  0.18532713757E+02  0.70405740084E+01  0.25557258779E+03  0.28523303962E+03  0.12509000000E+03 0.  0.
         25    1    3    3    0    0 -0.94417394298E+02 -0.14899038035E+02  0.17636338821E+03  0.23640680718E+03  0.12509000000E+03 0.  0.
<mgrwt>
<rscale>  2 0.44043389E+03</rscale>
<asrwt>0</asrwt>
<pdfrwt beam="1">  1       21 0.99693288E-01 0.44043389E+03</pdfrwt>
<pdfrwt beam="2">  1       21 0.10520048E-01 0.44043389E+03</pdfrwt>
<totfact> 0.56494049E+04</totfact>
</mgrwt>
</event>
<event>
 7    0  0.4788920E-002  0.4441515E+03  0.7546771E-02  0.1029481E+00
         21   -1    0    0  502  501  0.00000000000E+00  0.00000000000E+00  0.47133793248E+02  0.47133793248E+02  0.00000000000E+00 0.  1.
         21   -1    0    0  501  502 -0.00000000000E+00 -0.00000000000E+00 -0.10463327134E+04  0.10463327134E+04  0.00000000000E+00 0.  1.
      99926    2    1    2    0    0  0.71054273576E-14  0.00000000000E+00 -0.99919892014E+03  0.10934665066E+04  0.44415145967E+03 0.  0.
      99925    2    3    3    0    0 -0.31859509046E+02  0.84256334543E+02 -0.75667827974E+03  0.80610275222E+03  0.26291723012E+03 0.  0.
         25    1    4    4    0    0 -0.43841521973E+02  0.37799241763E+02 -0.46752227009E+03  0.48741711384E+03  0.12509000000E+03 0.  0.
         25    1    4    4    0    0  0.11982012926E+02  0.46457092780E+02 -0.28915600964E+03  0.31868563839E+03  0.12509000000E+03 0.  0.
         25    1    3    3    0    0  0.31859509046E+02 -0.84256334543E+02 -0.24252064041E+03  0.28736375441E+03  0.12509000000E+03 0.  0.
<mgrwt>
<rscale>  2 0.44415146E+03</rscale>
<asrwt>0</asrwt>
<pdfrwt beam="1">  1       21 0.69314404E-02 0.44415146E+03</pdfrwt>
<pdfrwt beam="2">  1       21 0.15387245E+00 0.44415146E+03</pdfrwt>
<totfact> 0.38912104E+04</totfact>
</mgrwt>
</event>
<event>
 7    0  0.4788920E-002  0.4576135E+03  0.7546771E-02  0.1025476E+00
         21   -1    0    0  502  501  0.00000000000E+00  0.00000000000E+00  0.61858817570E+03  0.61858817570E+03  0.00000000000E+00 0.  1.
         21   -1    0    0  501  502 -0.00000000000E+00 -0.00000000000E+00 -0.84632265564E+02  0.84632265564E+02  0.00000000000E+00 0.  1.
      99926    2    1    2    0    0  0.00000000000E+00  0.00000000000E+00  0.53395591013E+03  0.70322044126E+03  0.45761345592E+03 0.  0.
      99925    2    3    3    0    0  0.13420851280E+02 -0.10470464875E+03  0.40760847263E+03  0.49644915267E+03  0.26300933731E+03 0.  0.
         25    1    3    3    0    0 -0.13420851280E+02  0.10470464875E+03  0.12634743750E+03  0.20677128859E+03  0.12509000000E+03 0.  0.
         25    1    4    4    0    0  0.45229411452E+02 -0.52778934954E+02  0.22922431748E+03  0.27022696287E+03  0.12509000000E+03 0.  0.
         25    1    4    4    0    0 -0.31808560172E+02 -0.51925713800E+02  0.17838415515E+03  0.22622218981E+03  0.12509000000E+03 0.  0.
<mgrwt>
<rscale>  2 0.45761346E+03</rscale>
<asrwt>0</asrwt>
<pdfrwt beam="1">  1       21 0.90968846E-01 0.45761346E+03</pdfrwt>
<pdfrwt beam="2">  1       21 0.12445922E-01 0.45761346E+03</pdfrwt>
<totfact> 0.51657847E+04</totfact>
</mgrwt>
</event>
<event>
 7    0  0.4788920E-002  0.4557572E+03  0.7546771E-02  0.1026019E+00
         21   -1    0    0  502  501  0.00000000000E+00  0.00000000000E+00  0.15408840802E+03  0.15408840802E+03  0.00000000000E+00 0.  1.
         21   -1    0    0  501  502 -0.00000000000E+00 -0.00000000000E+00 -0.33700559505E+03  0.33700559505E+03  0.00000000000E+00 0.  1.
      99926    2    1    2    0    0  0.00000000000E+00  0.17763568394E-14 -0.18291718704E+03  0.49109400307E+03  0.45575719691E+03 0.  0.
      99925    2    3    3    0    0 -0.19270716545E+02  0.80808527085E+01  0.56290744033E+01  0.26386314799E+03  0.26297416925E+03 0.  0.
         25    1    3    3    0    0  0.19270716545E+02 -0.80808527085E+01 -0.18854626144E+03  0.22723085508E+03  0.12509000000E+03 0.  0.
         25    1    4    4    0    0 -0.15176765245E+02  0.36367311084E+02  0.26673178197E+02  0.13383527956E+03  0.12509000000E+03 0.  0.
         25    1    4    4    0    0 -0.40939513001E+01 -0.28286458375E+02 -0.21044103793E+02  0.13002786843E+03  0.12509000000E+03 0.  0.
<mgrwt>
<rscale>  2 0.45575720E+03</rscale>
<asrwt>0</asrwt>
<pdfrwt beam="1">  1       21 0.22660060E-01 0.45575720E+03</pdfrwt>
<pdfrwt beam="2">  1       21 0.49559646E-01 0.45575720E+03</pdfrwt>
<totfact> 0.65506318E+04</totfact>
</mgrwt>
</event>
<event>
 7    0  0.4788920E-002  0.4585971E+03  0.7546771E-02  0.1025189E+00
         21   -1    0    0  502  501  0.00000000000E+00  0.00000000000E+00  0.21011629899E+03  0.21011629899E+03  0.00000000000E+00 0.  1.
         21   -1    0    0  501  502 -0.00000000000E+00 -0.00000000000E+00 -0.25023201527E+03  0.25023201527E+03  0.00000000000E+00 0.  1.
      99926    2    1    2    0    0  0.71054273576E-14  0.00000000000E+00 -0.40115716280E+02  0.46034831427E+03  0.45859709959E+03 0.  0.
      99925    2    3    3    0    0  0.34441414399E+02 -0.11121969121E+03 -0.28098488876E+02  0.28903587282E+03  0.26305166786E+03 0.  0.
         25    1    4    4    0    0  0.48726098184E+02 -0.36224028785E+02  0.36300676833E+01  0.13909384745E+03  0.12509000000E+03 0.  0.
         25    1    3    3    0    0 -0.34441414399E+02  0.11121969121E+03 -0.12017227403E+02  0.17131244144E+03  0.12509000000E+03 0.  0.
         25    1    4    4    0    0 -0.14284683785E+02 -0.74995662425E+02 -0.31728556560E+02  0.14994202538E+03  0.12509000000E+03 0.  0.
<mgrwt>
<rscale>  2 0.45859710E+03</rscale>
<asrwt>0</asrwt>
<pdfrwt beam="1">  1       21 0.30899456E-01 0.45859710E+03</pdfrwt>
<pdfrwt beam="2">  1       21 0.36798826E-01 0.45859710E+03</pdfrwt>
<totfact> 0.66234329E+04</totfact>
</mgrwt>
</event>
<event>
 7    0  0.4788920E-002  0.4534489E+03  0.7546771E-02  0.1026699E+00
         21   -1    0    0  502  501  0.00000000000E+00  0.00000000000E+00  0.75808019802E+03  0.75808019802E+03  0.00000000000E+00 0. -1.
         21   -1    0    0  501  502 -0.00000000000E+00 -0.00000000000E+00 -0.67808108850E+02  0.67808108850E+02  0.00000000000E+00 0. -1.
      99926    2    1    2    0    0  0.00000000000E+00 -0.71054273576E-14  0.69027208917E+03  0.82588830687E+03  0.45344893686E+03 0.  0.
      99925    2    3    3    0    0 -0.73772567101E+02  0.59665635437E+02  0.54242725776E+03  0.61023121335E+03  0.26296848496E+03 0.  0.
         25    1    4    4    0    0 -0.10564560127E+02  0.48209599877E+02  0.21102984056E+03  0.25023364514E+03  0.12509000000E+03 0.  0.
         25    1    4    4    0    0 -0.63208006974E+02  0.11456035560E+02  0.33139741720E+03  0.35999756822E+03  0.12509000000E+03 0.  0.
         25    1    3    3    0    0  0.73772567101E+02 -0.59665635437E+02  0.14784483141E+03  0.21565709351E+03  0.12509000000E+03 0.  0.
<mgrwt>
<rscale>  2 0.45344894E+03</rscale>
<asrwt>0</asrwt>
<pdfrwt beam="1">  1       21 0.11148238E+00 0.45344894E+03</pdfrwt>
<pdfrwt beam="2">  1       21 0.99717812E-02 0.45344894E+03</pdfrwt>
<totfact> 0.47108692E+04</totfact>
</mgrwt>
</event>
<event>
 7    0  0.4788920E-002  0.4515374E+03  0.7546771E-02  0.1027265E+00
         21   -1    0    0  502  501  0.00000000000E+00  0.00000000000E+00  0.16930119490E+04  0.16930119490E+04  0.00000000000E+00 0. -1.
         21   -1    0    0  501  502 -0.00000000000E+00 -0.00000000000E+00 -0.30106999538E+02  0.30106999538E+02  0.00000000000E+00 0. -1.
      99926    2    1    2    0    0  0.00000000000E+00  0.00000000000E+00  0.16629049495E+04  0.17231189486E+04  0.45153741801E+03 0.  0.
      99925    2    3    3    0    0 -0.41335698243E+02  0.10184213177E+03  0.10777677232E+04  0.11147493722E+04  0.26268315116E+03 0.  0.
         25    1    3    3    0    0  0.41335698243E+02 -0.10184213177E+03  0.58513722627E+03  0.60836957635E+03  0.12509000000E+03 0.  0.
         25    1    4    4    0    0 -0.51102461170E+02  0.57009407968E+02  0.46151639701E+03  0.48425863641E+03  0.12509000000E+03 0.  0.
         25    1    4    4    0    0  0.97667629279E+01  0.44832723804E+02  0.61625132620E+03  0.63049073580E+03  0.12509000000E+03 0.  0.
<mgrwt>
<rscale>  2 0.45153742E+03</rscale>
<asrwt>0</asrwt>
<pdfrwt beam="1">  1       21 0.24897228E+00 0.45153742E+03</pdfrwt>
<pdfrwt beam="2">  1       21 0.44275011E-02 0.45153742E+03</pdfrwt>
<totfact> 0.19298158E+04</totfact>
</mgrwt>
</event>
<event>
 7    0  0.4788920E-002  0.4525362E+03  0.7546771E-02  0.1026968E+00
         21   -1    0    0  502  501  0.00000000000E+00  0.00000000000E+00  0.23217459849E+03  0.23217459849E+03  0.00000000000E+00 0.  1.
         21   -1    0    0  501  502 -0.00000000000E+00 -0.00000000000E+00 -0.22051185701E+03  0.22051185701E+03  0.00000000000E+00 0.  1.
      99926    2    1    2    0    0  0.00000000000E+00  0.00000000000E+00  0.11662741477E+02  0.45268645549E+03  0.45253619463E+03 0.  0.
      99925    2    3    3    0    0  0.74682602229E+02 -0.73302458750E+02  0.45984460382E+02  0.28602443216E+03  0.26219203584E+03 0.  0.
         25    1    4    4    0    0  0.47315586660E+02  0.50063233989E+00  0.32381134968E+02  0.13760472875E+03  0.12509000000E+03 0.  0.
         25    1    3    3    0    0 -0.74682602229E+02  0.73302458750E+02 -0.34321718905E+02  0.16666202334E+03  0.12509000000E+03 0.  0.
         25    1    4    4    0    0  0.27367015569E+02 -0.73803091090E+02  0.13603325414E+02  0.14841970340E+03  0.12509000000E+03 0.  0.
<mgrwt>
<rscale>  2 0.45253619E+03</rscale>
<asrwt>0</asrwt>
<pdfrwt beam="1">  1       21 0.34143323E-01 0.45253619E+03</pdfrwt>
<pdfrwt beam="2">  1       21 0.32428214E-01 0.45253619E+03</pdfrwt>
<totfact> 0.70083256E+04</totfact>
</mgrwt>
</event>
<event>
 6    0  0.4788920E-002  0.4641932E+03  0.7546771E-02  0.1023572E+00
         21   -1    0    0  502  501  0.00000000000E+00  0.00000000000E+00  0.84947168380E+03  0.84947168380E+03  0.00000000000E+00 0. -1.
         21   -1    0    0  501  502 -0.00000000000E+00 -0.00000000000E+00 -0.63414516998E+02  0.63414516998E+02  0.00000000000E+00 0. -1.
      99926    2    1    2    0    0  0.00000000000E+00  0.00000000000E+00  0.78605716680E+03  0.91288620079E+03  0.46419322068E+03 0.  0.
         25    1    3    3    0    0 -0.38729486959E+02  0.32213677741E+01  0.25969856602E+03  0.29086286057E+03  0.12509000000E+03 0.  0.
         25    1    3    3    0    0  0.12647022636E+03 -0.28946137300E+01  0.26221590138E+03  0.31687187313E+03  0.12509000000E+03 0.  0.
         25    1    3    3    0    0 -0.87740739403E+02 -0.32675404413E+00  0.26414269940E+03  0.30515146709E+03  0.12509000000E+03 0.  0.
<mgrwt>
<rscale>  2 0.46419322E+03</rscale>
<asrwt>0</asrwt>
<pdfrwt beam="1">  1       21 0.12492230E+00 0.46419322E+03</pdfrwt>
<pdfrwt beam="2">  1       21 0.93256648E-02 0.46419322E+03</pdfrwt>
<totfact> 0.39743002E+04</totfact>
</mgrwt>
</event>
<event>
 7    0  0.4788920E-002  0.4486123E+03  0.7546771E-02  0.1028137E+00
         21   -1    0    0  502  501  0.00000000000E+00  0.00000000000E+00  0.44241999810E+03  0.44241999810E+03  0.00000000000E+00 0. -1.
         21   -1    0    0  501  502 -0.00000000000E+00 -0.00000000000E+00 -0.11372281828E+03  0.11372281828E+03  0.00000000000E+00 0. -1.
      99926    2    1    2    0    0  0.00000000000E+00  0.71054273576E-14  0.32869717982E+03  0.55614281639E+03  0.44861230054E+03 0.  0.
      99925    2    3    3    0    0  0.27209794919E+02 -0.57965663834E+02  0.31441227242E+03  0.41489141709E+03  0.26301980876E+03 0.  0.
         25    1    4    4    0    0  0.11515246149E+02 -0.37220568920E+02  0.98136969036E+02  0.16369589010E+03  0.12509000000E+03 0.  0.
         25    1    4    4    0    0  0.15694548770E+02 -0.20745094914E+02  0.21627530339E+03  0.25119552699E+03  0.12509000000E+03 0.  0.
         25    1    3    3    0    0 -0.27209794919E+02  0.57965663834E+02  0.14284907395E+02  0.14125139929E+03  0.12509000000E+03 0.  0.
<mgrwt>
<rscale>  2 0.44861230E+03</rscale>
<asrwt>0</asrwt>
<pdfrwt beam="1">  1       21 0.65061764E-01 0.44861230E+03</pdfrwt>
<pdfrwt beam="2">  1       21 0.16723944E-01 0.44861230E+03</pdfrwt>
<totfact> 0.64668714E+04</totfact>
</mgrwt>
</event>
<event>
 7    0  0.4788920E-002  0.4612358E+03  0.7546771E-02  0.1024423E+00
         21   -1    0    0  502  501  0.00000000000E+00  0.00000000000E+00  0.44248180490E+03  0.44248180490E+03  0.00000000000E+00 0. -1.
         21   -1    0    0  501  502 -0.00000000000E+00 -0.00000000000E+00 -0.12019615346E+03  0.12019615346E+03  0.00000000000E+00 0. -1.
      99926    2    1    2    0    0  0.00000000000E+00  0.00000000000E+00  0.32228565144E+03  0.56267795837E+03  0.46123577887E+03 0.  0.
      99925    2    3    3    0    0 -0.66929262225E+02  0.97263619620E+02  0.18426321915E+03  0.34213898730E+03  0.26299508523E+03 0.  0.
         25    1    4    4    0    0  0.49632861489E+01  0.62264760454E+02  0.88820768124E+02  0.16564471484E+03  0.12509000000E+03 0.  0.
         25    1    3    3    0    0  0.66929262225E+02 -0.97263619620E+02  0.13802243229E+03  0.22053897107E+03  0.12509000000E+03 0.  0.
         25    1    4    4    0    0 -0.71892548374E+02  0.34998859166E+02  0.95442451021E+02  0.17649427246E+03  0.12509000000E+03 0.  0.
<mgrwt>
<rscale>  2 0.46123578E+03</rscale>
<asrwt>0</asrwt>
<pdfrwt beam="1">  1       21 0.65070853E-01 0.46123578E+03</pdfrwt>
<pdfrwt beam="2">  1       21 0.17675905E-01 0.46123578E+03</pdfrwt>
<totfact> 0.58116548E+04</totfact>
</mgrwt>
</event>
<event>
 7    0  0.4788920E-002  0.4530161E+03  0.7546771E-02  0.1026826E+00
         21   -1    0    0  502  501  0.00000000000E+00  0.00000000000E+00  0.48346274773E+03  0.48346274773E+03  0.00000000000E+00 0. -1.
         21   -1    0    0  501  502 -0.00000000000E+00 -0.00000000000E+00 -0.10612171376E+03  0.10612171376E+03  0.00000000000E+00 0. -1.
      99926    2    1    2    0    0  0.71054273576E-14  0.00000000000E+00  0.37734103396E+03  0.58958446149E+03  0.45301609388E+03 0.  0.
      99925    2    3    3    0    0 -0.55992393849E+02 -0.74299482053E+02  0.15846020102E+03  0.32086176365E+03  0.26303436062E+03 0.  0.
         25    1    3    3    0    0  0.55992393849E+02  0.74299482053E+02  0.21888083294E+03  0.26872269783E+03  0.12509000000E+03 0.  0.
         25    1    4    4    0    0 -0.64922865544E+02 -0.29961088194E+02  0.63658382547E+02  0.15751997665E+03  0.12509000000E+03 0.  0.
         25    1    4    4    0    0  0.89304716948E+01 -0.44338393859E+02  0.94801818475E+02  0.16334178700E+03  0.12509000000E+03 0.  0.
<mgrwt>
<rscale>  2 0.45301609E+03</rscale>
<asrwt>0</asrwt>
<pdfrwt beam="1">  1       21 0.71097462E-01 0.45301609E+03</pdfrwt>
<pdfrwt beam="2">  1       21 0.15606135E-01 0.45301609E+03</pdfrwt>
<totfact> 0.60263372E+04</totfact>
</mgrwt>
</event>
<event>
 7    0  0.4788920E-002  0.4397094E+03  0.7546771E-02  0.1030836E+00
         21   -1    0    0  502  501  0.00000000000E+00  0.00000000000E+00  0.30690995093E+02  0.30690995093E+02  0.00000000000E+00 0.  1.
         21   -1    0    0  501  502 -0.00000000000E+00 -0.00000000000E+00 -0.15749272733E+04  0.15749272733E+04  0.00000000000E+00 0.  1.
      99926    2    1    2    0    0  0.49960036108E-15  0.00000000000E+00 -0.15442362782E+04  0.16056182683E+04  0.43970938227E+03 0.  0.
      99925    2    3    3    0    0 -0.14404455849E+00  0.20940264161E+02 -0.63576671860E+03  0.68833806898E+03  0.26300467925E+03 0.  0.
         25    1    4    4    0    0  0.25715838130E+02 -0.14388206957E+02 -0.36303157031E+03  0.38510745770E+03  0.12509000000E+03 0.  0.
         25    1    4    4    0    0 -0.25859882689E+02  0.35328471118E+02 -0.27273514829E+03  0.30323061128E+03  0.12509000000E+03 0.  0.
         25    1    3    3    0    0  0.14404455849E+00 -0.20940264161E+02 -0.90846955956E+03  0.91728019937E+03  0.12509000000E+03 0.  0.
<mgrwt>
<rscale>  2 0.43970938E+03</rscale>
<asrwt>0</asrwt>
<pdfrwt beam="1">  1       21 0.45133812E-02 0.43970938E+03</pdfrwt>
<pdfrwt beam="2">  1       21 0.23160698E+00 0.43970938E+03</pdfrwt>
<totfact> 0.24032435E+04</totfact>
</mgrwt>
</event>
<event>
 7    0  0.4788920E-002  0.4549991E+03  0.7546771E-02  0.1026242E+00
         21   -1    0    0  502  501  0.00000000000E+00  0.00000000000E+00  0.94451040880E+02  0.94451040880E+02  0.00000000000E+00 0. -1.
         21   -1    0    0  501  502 -0.00000000000E+00 -0.00000000000E+00 -0.54796699779E+03  0.54796699779E+03  0.00000000000E+00 0. -1.
      99926    2    1    2    0    0  0.00000000000E+00 -0.88817841970E-15 -0.45351595691E+03  0.64241803867E+03  0.45499913542E+03 0.  0.
      99925    2    3    3    0    0  0.97645405691E+02  0.76217694674E+01 -0.36557167835E+03  0.46082943535E+03  0.26292280209E+03 0.  0.
         25    1    3    3    0    0 -0.97645405691E+02 -0.76217694674E+01 -0.87944278568E+02  0.18158860332E+03  0.12509000000E+03 0.  0.
         25    1    4    4    0    0  0.71469322292E+02 -0.20328762370E+02 -0.23213675796E+03  0.27396369304E+03  0.12509000000E+03 0.  0.
         25    1    4    4    0    0  0.26176083399E+02  0.27950531837E+02 -0.13343492039E+03  0.18686574232E+03  0.12509000000E+03 0.  0.
<mgrwt>
<rscale>  2 0.45499914E+03</rscale>
<asrwt>0</asrwt>
<pdfrwt beam="1">  1       21 0.13889859E-01 0.45499914E+03</pdfrwt>
<pdfrwt beam="2">  1       21 0.80583380E-01 0.45499914E+03</pdfrwt>
<totfact> 0.56140794E+04</totfact>
</mgrwt>
</event>
<event>
 7    0  0.4788920E-002  0.4564196E+03  0.7546771E-02  0.1025825E+00
         21   -1    0    0  502  501  0.00000000000E+00  0.00000000000E+00  0.56375540971E+02  0.56375540971E+02  0.00000000000E+00 0. -1.
         21   -1    0    0  501  502 -0.00000000000E+00 -0.00000000000E+00 -0.92379996958E+03  0.92379996958E+03  0.00000000000E+00 0. -1.
      99926    2    1    2    0    0  0.35527136788E-14  0.00000000000E+00 -0.86742442861E+03  0.98017551055E+03  0.45641964477E+03 0.  0.
      99925    2    3    3    0    0  0.24178569717E+02 -0.10867569083E+03 -0.60255519620E+03  0.66680954656E+03  0.26299657394E+03 0.  0.
         25    1    4    4    0    0  0.34082596736E+02 -0.91463689092E+02 -0.34939076429E+03  0.38372991034E+03  0.12509000000E+03 0.  0.
         25    1    3    3    0    0 -0.24178569717E+02  0.10867569083E+03 -0.26486923241E+03  0.31336596399E+03  0.12509000000E+03 0.  0.
         25    1    4    4    0    0 -0.99040270194E+01 -0.17212001738E+02 -0.25316443191E+03  0.28307963622E+03  0.12509000000E+03 0.  0.
<mgrwt>
<rscale>  2 0.45641964E+03</rscale>
<asrwt>0</asrwt>
<pdfrwt beam="1">  1       21 0.82905214E-02 0.45641964E+03</pdfrwt>
<pdfrwt beam="2">  1       21 0.13585293E+00 0.45641964E+03</pdfrwt>
<totfact> 0.39502141E+04</totfact>
</mgrwt>
</event>
<event>
 7    0  0.4788920E-002  0.4539807E+03  0.7546771E-02  0.1026542E+00
         21   -1    0    0  502  501  0.00000000000E+00  0.00000000000E+00  0.75155769791E+03  0.75155769791E+03  0.00000000000E+00 0.  1.
         21   -1    0    0  501  502 -0.00000000000E+00 -0.00000000000E+00 -0.68557109252E+02  0.68557109252E+02  0.00000000000E+00 0.  1.
      99926    2    1    2    0    0  0.71054273576E-14  0.17763568394E-14  0.68300058866E+03  0.82011480716E+03  0.45398071855E+03 0.  0.
      99925    2    3    3    0    0 -0.59154457411E+02  0.10264882508E+02  0.60110051114E+03  0.65899451532E+03  0.26333881045E+03 0.  0.
         25    1    4    4    0    0 -0.40483802630E+01  0.35502378950E+02  0.26233198623E+03  0.29281801071E+03  0.12509000000E+03 0.  0.
         25    1    4    4    0    0 -0.55106077148E+02 -0.25237496442E+02  0.33876852491E+03  0.36617650462E+03  0.12509000000E+03 0.  0.
         25    1    3    3    0    0  0.59154457411E+02 -0.10264882508E+02  0.81900077519E+02  0.16112029184E+03  0.12509000000E+03 0.  0.
<mgrwt>
<rscale>  2 0.45398072E+03</rscale>
<asrwt>0</asrwt>
<pdfrwt beam="1">  1       21 0.11052319E+00 0.45398072E+03</pdfrwt>
<pdfrwt beam="2">  1       21 0.10081928E-01 0.45398072E+03</pdfrwt>
<totfact> 0.47183470E+04</totfact>
</mgrwt>
</event>
<event>
 7    0  0.4788920E-002  0.4535473E+03  0.7546771E-02  0.1026669E+00
         21   -1    0    0  502  501  0.00000000000E+00  0.00000000000E+00  0.17058652627E+03  0.17058652627E+03  0.00000000000E+00 0.  1.
         21   -1    0    0  501  502 -0.00000000000E+00 -0.00000000000E+00 -0.30146742266E+03  0.30146742266E+03  0.00000000000E+00 0.  1.
      99926    2    1    2    0    0 -0.71054273576E-14  0.14210854715E-13 -0.13088089639E+03  0.47205394894E+03  0.45354726508E+03 0.  0.
      99925    2    3    3    0    0  0.39612006892E+02 -0.10216057883E+03 -0.59169792488E+02  0.29095760585E+03  0.26296267625E+03 0.  0.
         25    1    3    3    0    0 -0.39612006892E+02  0.10216057883E+03 -0.71711103904E+02  0.18109634309E+03  0.12509000000E+03 0.  0.
         25    1    4    4    0    0  0.31318000692E+02 -0.10166673748E+02 -0.24765557795E+02  0.13170049117E+03  0.12509000000E+03 0.  0.
         25    1    4    4    0    0  0.82940062000E+01 -0.91993905078E+02 -0.34404234693E+02  0.15925711468E+03  0.12509000000E+03 0.  0.
<mgrwt>
<rscale>  2 0.45354727E+03</rscale>
<asrwt>0</asrwt>
<pdfrwt beam="1">  1       21 0.25086254E-01 0.45354727E+03</pdfrwt>
<pdfrwt beam="2">  1       21 0.44333444E-01 0.45354727E+03</pdfrwt>
<totfact> 0.68064487E+04</totfact>
</mgrwt>
</event>
<event>
 7    0  0.4788920E-002  0.4522713E+03  0.7546771E-02  0.1027047E+00
         21   -1    0    0  502  501  0.00000000000E+00  0.00000000000E+00  0.22734825288E+03  0.22734825288E+03  0.00000000000E+00 0. -1.
         21   -1    0    0  501  502 -0.00000000000E+00 -0.00000000000E+00 -0.22492949027E+03  0.22492949027E+03  0.00000000000E+00 0. -1.
      99926    2    1    2    0    0  0.00000000000E+00  0.00000000000E+00  0.24187626098E+01  0.45227774316E+03  0.45227127539E+03 0.  0.
      99925    2    3    3    0    0  0.51132031904E+02  0.41874718340E+02 -0.87100770330E+02  0.28485841452E+03  0.26303953203E+03 0.  0.
         25    1    4    4    0    0  0.47611229481E+02 -0.71673576831E+01 -0.63806407599E+02  0.14844852960E+03  0.12509000000E+03 0.  0.
         25    1    4    4    0    0  0.35208024230E+01  0.49042076023E+02 -0.23294362731E+02  0.13640988493E+03  0.12509000000E+03 0.  0.
         25    1    3    3    0    0 -0.51132031904E+02 -0.41874718340E+02  0.89519532940E+02  0.16741932863E+03  0.12509000000E+03 0.  0.
<mgrwt>
<rscale>  2 0.45227128E+03</rscale>
<asrwt>0</asrwt>
<pdfrwt beam="1">  1       21 0.33433567E-01 0.45227128E+03</pdfrwt>
<pdfrwt beam="2">  1       21 0.33077866E-01 0.45227128E+03</pdfrwt>
<totfact> 0.70263060E+04</totfact>
</mgrwt>
</event>
<event>
 7    0  0.4788920E-002  0.4614579E+03  0.7546771E-02  0.1024359E+00
         21   -1    0    0  502  501  0.00000000000E+00  0.00000000000E+00  0.23105337493E+04  0.23105337493E+04  0.00000000000E+00 0.  1.
         21   -1    0    0  501  502 -0.00000000000E+00 -0.00000000000E+00 -0.23040495681E+02  0.23040495681E+02  0.00000000000E+00 0.  1.
      99926    2    1    2    0    0  0.00000000000E+00  0.00000000000E+00  0.22874932536E+04  0.23335742450E+04  0.46145787617E+03 0.  0.
      99925    2    3    3    0    0 -0.11775767901E+03  0.14448775178E+02  0.15191630343E+04  0.15461388686E+04  0.26194166892E+03 0.  0.
         25    1    4    4    0    0 -0.50067657093E+02  0.42784323565E+02  0.81944700829E+03  0.83155166774E+03  0.12509000000E+03 0.  0.
         25    1    3    3    0    0  0.11775767901E+03 -0.14448775178E+02  0.76833021926E+03  0.78743537639E+03  0.12509000000E+03 0.  0.
         25    1    4    4    0    0 -0.67690021921E+02 -0.28335548387E+02  0.69971602605E+03  0.71458720082E+03  0.12509000000E+03 0.  0.
<mgrwt>
<rscale>  2 0.46145788E+03</rscale>
<asrwt>0</asrwt>
<pdfrwt beam="1">  1       21 0.33978421E+00 0.46145788E+03</pdfrwt>
<pdfrwt beam="2">  1       21 0.33883098E-02 0.46145788E+03</pdfrwt>
<totfact> 0.85510550E+03</totfact>
</mgrwt>
</event>
<event>
 7    0  0.4788920E-002  0.4523371E+03  0.7546771E-02  0.1027027E+00
         21   -1    0    0  502  501  0.00000000000E+00  0.00000000000E+00  0.41182799828E+03  0.41182799828E+03  0.00000000000E+00 0. -1.
         21   -1    0    0  501  502 -0.00000000000E+00 -0.00000000000E+00 -0.12420772550E+03  0.12420772550E+03  0.00000000000E+00 0. -1.
      99926    2    1    2    0    0  0.00000000000E+00  0.00000000000E+00  0.28762027278E+03  0.53603572377E+03  0.45233712632E+03 0.  0.
      99925    2    3    3    0    0  0.39345593680E+02 -0.70662524497E+02  0.27078603410E+03  0.38612852648E+03  0.26311384339E+03 0.  0.
         25    1    3    3    0    0 -0.39345593680E+02  0.70662524497E+02  0.16834238677E+02  0.14990719730E+03  0.12509000000E+03 0.  0.
         25    1    4    4    0    0 -0.13749038045E+01 -0.29542349581E+02  0.82309810537E+02  0.15263372429E+03  0.12509000000E+03 0.  0.
         25    1    4    4    0    0  0.40720497484E+02 -0.41120174916E+02  0.18847622356E+03  0.23349480219E+03  0.12509000000E+03 0.  0.
<mgrwt>
<rscale>  2 0.45233713E+03</rscale>
<asrwt>0</asrwt>
<pdfrwt beam="1">  1       21 0.60562940E-01 0.45233713E+03</pdfrwt>
<pdfrwt beam="2">  1       21 0.18265842E-01 0.45233713E+03</pdfrwt>
<totfact> 0.64139971E+04</totfact>
</mgrwt>
</event>
<event>
 7    0  0.4788920E-002  0.4660303E+03  0.7546771E-02  0.1023047E+00
         21   -1    0    0  502  501  0.00000000000E+00  0.00000000000E+00  0.19042326750E+03  0.19042326750E+03  0.00000000000E+00 0.  1.
         21   -1    0    0  501  502 -0.00000000000E+00 -0.00000000000E+00 -0.28513350912E+03  0.28513350912E+03  0.00000000000E+00 0.  1.
      99926    2    1    2    0    0  0.00000000000E+00  0.35527136788E-14 -0.94710241621E+02  0.47555677662E+03  0.46603027575E+03 0.  0.
      99925    2    3    3    0    0  0.11130266262E+03 -0.30952201708E+02 -0.15262705095E+02  0.28765855774E+03  0.26299842999E+03 0.  0.
         25    1    3    3    0    0 -0.11130266262E+03  0.30952201708E+02 -0.79447536526E+02  0.18789821887E+03  0.12509000000E+03 0.  0.
         25    1    4    4    0    0  0.44359837296E+02  0.10102864326E+02  0.23016176812E+02  0.13508188453E+03  0.12509000000E+03 0.  0.
         25    1    4    4    0    0  0.66942825322E+02 -0.41055066034E+02 -0.38278881907E+02  0.15257667321E+03  0.12509000000E+03 0.  0.
<mgrwt>
<rscale>  2 0.46603028E+03</rscale>
<asrwt>0</asrwt>
<pdfrwt beam="1">  1       21 0.28003422E-01 0.46603028E+03</pdfrwt>
<pdfrwt beam="2">  1       21 0.41931398E-01 0.46603028E+03</pdfrwt>
<totfact> 0.61465009E+04</totfact>
</mgrwt>
</event>
<event>
 7    0  0.4788920E-002  0.4582263E+03  0.7546771E-02  0.1025297E+00
         21   -1    0    0  502  501  0.00000000000E+00  0.00000000000E+00  0.20158648684E+03  0.20158648684E+03  0.00000000000E+00 0. -1.
         21   -1    0    0  501  502 -0.00000000000E+00 -0.00000000000E+00 -0.26039862430E+03  0.26039862430E+03  0.00000000000E+00 0. -1.
      99926    2    1    2    0    0  0.71054273576E-14 -0.14210854715E-13 -0.58812137462E+02  0.46198511114E+03  0.45822633643E+03 0.  0.
      99925    2    3    3    0    0 -0.35401583352E+02  0.10632095621E+03 -0.67635129317E+02  0.29381028806E+03  0.26304478101E+03 0.  0.
         25    1    3    3    0    0  0.35401583352E+02 -0.10632095621E+03  0.88229918546E+01  0.16817482308E+03  0.12509000000E+03 0.  0.
         25    1    4    4    0    0 -0.46571184843E+02  0.82342754848E+02 -0.23689111316E+02  0.15861237855E+03  0.12509000000E+03 0.  0.
         25    1    4    4    0    0  0.11169601492E+02  0.23978201358E+02 -0.43946018001E+02  0.13519790951E+03  0.12509000000E+03 0.  0.
<mgrwt>
<rscale>  2 0.45822634E+03</rscale>
<asrwt>0</asrwt>
<pdfrwt beam="1">  1       21 0.29645072E-01 0.45822634E+03</pdfrwt>
<pdfrwt beam="2">  1       21 0.38293915E-01 0.45822634E+03</pdfrwt>
<totfact> 0.66313408E+04</totfact>
</mgrwt>
</event>
<event>
 7    0  0.4788920E-002  0.4538944E+03  0.7546771E-02  0.1026567E+00
         21   -1    0    0  502  501  0.00000000000E+00  0.00000000000E+00  0.52842086379E+02  0.52842086379E+02  0.00000000000E+00 0. -1.
         21   -1    0    0  501  502 -0.00000000000E+00 -0.00000000000E+00 -0.97469720515E+03  0.97469720515E+03  0.00000000000E+00 0. -1.
      99926    2    1    2    0    0 -0.71054273576E-14  0.00000000000E+00 -0.92185511877E+03  0.10275392915E+04  0.45389441022E+03 0.  0.
      99925    2    3    3    0    0  0.39972178088E+02 -0.10481588105E+03 -0.56747719295E+03  0.63534626973E+03  0.26277437850E+03 0.  0.
         25    1    4    4    0    0 -0.19556978527E+02 -0.51739187666E+02 -0.25183933234E+03  0.28658327998E+03  0.12509000000E+03 0.  0.
         25    1    3    3    0    0 -0.39972178088E+02  0.10481588105E+03 -0.35437792582E+03  0.39219302180E+03  0.12509000000E+03 0.  0.
         25    1    4    4    0    0  0.59529156615E+02 -0.53076693383E+02 -0.31563786061E+03  0.34876298975E+03  0.12509000000E+03 0.  0.
<mgrwt>
<rscale>  2 0.45389441E+03</rscale>
<asrwt>0</asrwt>
<pdfrwt beam="1">  1       21 0.77708956E-02 0.45389441E+03</pdfrwt>
<pdfrwt beam="2">  1       21 0.14333781E+00 0.45389441E+03</pdfrwt>
<totfact> 0.38443246E+04</totfact>
</mgrwt>
</event>
<event>
 7    0  0.4788920E-002  0.4513584E+03  0.7546771E-02  0.1027318E+00
         21   -1    0    0  502  501  0.00000000000E+00  0.00000000000E+00  0.41235853114E+03  0.41235853114E+03  0.00000000000E+00 0.  1.
         21   -1    0    0  501  502 -0.00000000000E+00 -0.00000000000E+00 -0.12351171220E+03  0.12351171220E+03  0.00000000000E+00 0.  1.
      99926    2    1    2    0    0  0.17763568394E-14  0.00000000000E+00  0.28884681894E+03  0.53587024334E+03  0.45135843061E+03 0.  0.
      99925    2    3    3    0    0 -0.12826452462E+02 -0.10861729102E+03  0.19269999995E+03  0.34389640998E+03  0.26300041260E+03 0.  0.
         25    1    3    3    0    0  0.12826452462E+02  0.10861729102E+03  0.96146818986E+02  0.19197383335E+03  0.12509000000E+03 0.  0.
         25    1    4    4    0    0 -0.24146105846E+02 -0.85243277381E+02  0.77022605768E+02  0.17155011124E+03  0.12509000000E+03 0.  0.
         25    1    4    4    0    0  0.11319653384E+02 -0.23374013640E+02  0.11567739418E+03  0.17234629875E+03  0.12509000000E+03 0.  0.
<mgrwt>
<rscale>  2 0.45135843E+03</rscale>
<asrwt>0</asrwt>
<pdfrwt beam="1">  1       21 0.60640960E-01 0.45135843E+03</pdfrwt>
<pdfrwt beam="2">  1       21 0.18163487E-01 0.45135843E+03</pdfrwt>
<totfact> 0.64653367E+04</totfact>
</mgrwt>
</event>
<event>
 7    0  0.4788920E-002  0.4543370E+03  0.7546771E-02  0.1026437E+00
         21   -1    0    0  502  501  0.00000000000E+00  0.00000000000E+00  0.20175934332E+03  0.20175934332E+03  0.00000000000E+00 0.  1.
         21   -1    0    0  501  502 -0.00000000000E+00 -0.00000000000E+00 -0.25577764009E+03  0.25577764009E+03  0.00000000000E+00 0.  1.
      99926    2    1    2    0    0  0.17763568394E-14  0.00000000000E+00 -0.54018296764E+02  0.45753698341E+03  0.45433700576E+03 0.  0.
      99925    2    3    3    0    0 -0.70942486682E+01  0.16734681126E+02  0.77800596767E+02  0.27490591620E+03  0.26303982967E+03 0.  0.
         25    1    4    4    0    0  0.33180370951E+02 -0.39580703073E+01  0.25511288008E+02  0.13196566695E+03  0.12509000000E+03 0.  0.
         25    1    4    4    0    0 -0.40274619619E+02  0.20692751433E+02  0.52289308759E+02  0.14294024926E+03  0.12509000000E+03 0.  0.
         25    1    3    3    0    0  0.70942486682E+01 -0.16734681126E+02 -0.13181889353E+03  0.18263106720E+03  0.12509000000E+03 0.  0.
<mgrwt>
<rscale>  2 0.45433701E+03</rscale>
<asrwt>0</asrwt>
<pdfrwt beam="1">  1       21 0.29670492E-01 0.45433701E+03</pdfrwt>
<pdfrwt beam="2">  1       21 0.37614359E-01 0.45433701E+03</pdfrwt>
<totfact> 0.68723024E+04</totfact>
</mgrwt>
</event>
<event>
 7    0  0.4788920E-002  0.4543297E+03  0.7546771E-02  0.1026439E+00
         21   -1    0    0  502  501  0.00000000000E+00  0.00000000000E+00  0.18203110609E+03  0.18203110609E+03  0.00000000000E+00 0.  1.
         21   -1    0    0  501  502 -0.00000000000E+00 -0.00000000000E+00 -0.28348925283E+03  0.28348925283E+03  0.00000000000E+00 0.  1.
      99926    2    1    2    0    0  0.14210854715E-13  0.88817841970E-15 -0.10145814674E+03  0.46552035892E+03  0.45432966999E+03 0.  0.
      99925    2    3    3    0    0  0.10862136625E+03 -0.78098658248E+01 -0.34763139087E+02  0.28675982817E+03  0.26298883627E+03 0.  0.
         25    1    4    4    0    0  0.12470295737E+02  0.86542576069E+01 -0.14396499706E+02  0.12682733047E+03  0.12509000000E+03 0.  0.
         25    1    3    3    0    0 -0.10862136625E+03  0.78098658248E+01 -0.66695007654E+02  0.17876053075E+03  0.12509000000E+03 0.  0.
         25    1    4    4    0    0  0.96151070511E+02 -0.16464123432E+02 -0.20366639381E+02  0.15993249770E+03  0.12509000000E+03 0.  0.
<mgrwt>
<rscale>  2 0.45432967E+03</rscale>
<asrwt>0</asrwt>
<pdfrwt beam="1">  1       21 0.26769280E-01 0.45432967E+03</pdfrwt>
<pdfrwt beam="2">  1       21 0.41689596E-01 0.45432967E+03</pdfrwt>
<totfact> 0.68132299E+04</totfact>
</mgrwt>
</event>
<event>
 7    0  0.4788920E-002  0.4570236E+03  0.7546771E-02  0.1025648E+00
         21   -1    0    0  502  501  0.00000000000E+00  0.00000000000E+00  0.59436671994E+02  0.59436671994E+02  0.00000000000E+00 0.  1.
         21   -1    0    0  501  502 -0.00000000000E+00 -0.00000000000E+00 -0.87854263095E+03  0.87854263095E+03  0.00000000000E+00 0.  1.
      99926    2    1    2    0    0  0.00000000000E+00  0.00000000000E+00 -0.81910595896E+03  0.93797930295E+03  0.45702363260E+03 0.  0.
      99925    2    3    3    0    0  0.69457667779E+02 -0.48115834241E+02 -0.67467387801E+03  0.72905913823E+03  0.26306441084E+03 0.  0.
         25    1    4    4    0    0  0.39165684129E+02 -0.52236681143E+02 -0.43012829325E+03  0.45268143150E+03  0.12509000000E+03 0.  0.
         25    1    3    3    0    0 -0.69457667779E+02  0.48115834241E+02 -0.14443208095E+03  0.20892016472E+03  0.12509000000E+03 0.  0.
         25    1    4    4    0    0  0.30291983650E+02  0.41208469021E+01 -0.24454558476E+03  0.27637770673E+03  0.12509000000E+03 0.  0.
<mgrwt>
<rscale>  2 0.45702363E+03</rscale>
<asrwt>0</asrwt>
<pdfrwt beam="1">  1       21 0.87406872E-02 0.45702363E+03</pdfrwt>
<pdfrwt beam="2">  1       21 0.12919744E+00 0.45702363E+03</pdfrwt>
<totfact> 0.40979018E+04</totfact>
</mgrwt>
</event>
<event>
 7    0  0.4788920E-002  0.4600650E+03  0.7546771E-02  0.1024762E+00
         21   -1    0    0  502  501  0.00000000000E+00  0.00000000000E+00  0.16727227868E+03  0.16727227868E+03  0.00000000000E+00 0.  1.
         21   -1    0    0  501  502 -0.00000000000E+00 -0.00000000000E+00 -0.31634025402E+03  0.31634025402E+03  0.00000000000E+00 0.  1.
      99926    2    1    2    0    0  0.00000000000E+00  0.00000000000E+00 -0.14906797534E+03  0.48361253271E+03  0.46006501771E+03 0.  0.
      99925    2    3    3    0    0  0.32248271261E+02  0.11316464546E+03 -0.10189894693E+03  0.30551533081E+03  0.26288787342E+03 0.  0.
         25    1    4    4    0    0  0.55855974390E+02  0.59813589361E+02 -0.43870049291E+02  0.15578717750E+03  0.12509000000E+03 0.  0.
         25    1    3    3    0    0 -0.32248271261E+02 -0.11316464546E+03 -0.47169028407E+02  0.17809720190E+03  0.12509000000E+03 0.  0.
         25    1    4    4    0    0 -0.23607703128E+02  0.53351056102E+02 -0.58028897640E+02  0.14972815332E+03  0.12509000000E+03 0.  0.
<mgrwt>
<rscale>  2 0.46006502E+03</rscale>
<asrwt>0</asrwt>
<pdfrwt beam="1">  1       21 0.24598865E-01 0.46006502E+03</pdfrwt>
<pdfrwt beam="2">  1       21 0.46520625E-01 0.46006502E+03</pdfrwt>
<totfact> 0.63832861E+04</totfact>
</mgrwt>
</event>
<event>
 7    0  0.4788920E-002  0.4534943E+03  0.7546771E-02  0.1026685E+00
         21   -1    0    0  502  501  0.00000000000E+00  0.00000000000E+00  0.30160930806E+03  0.30160930806E+03  0.00000000000E+00 0.  1.
         21   -1    0    0  501  502 -0.00000000000E+00 -0.00000000000E+00 -0.17046643992E+03  0.17046643992E+03  0.00000000000E+00 0.  1.
      99926    2    1    2    0    0  0.00000000000E+00  0.00000000000E+00  0.13114286814E+03  0.47207574798E+03  0.45349427776E+03 0.  0.
      99925    2    3    3    0    0  0.10850612209E+03  0.25132656582E+02  0.92300450915E+02  0.30014125337E+03  0.26298321197E+03 0.  0.
         25    1    4    4    0    0  0.15984120090E+02  0.14444701810E+02  0.62020972525E+02  0.14127367284E+03  0.12509000000E+03 0.  0.
         25    1    3    3    0    0 -0.10850612209E+03 -0.25132656582E+02  0.38842417224E+02  0.17193449460E+03  0.12509000000E+03 0.  0.
         25    1    4    4    0    0  0.92522002003E+02  0.10687954772E+02  0.30279478390E+02  0.15886758053E+03  0.12509000000E+03 0.  0.
<mgrwt>
<rscale>  2 0.45349428E+03</rscale>
<asrwt>0</asrwt>
<pdfrwt beam="1">  1       21 0.44354310E-01 0.45349428E+03</pdfrwt>
<pdfrwt beam="2">  1       21 0.25068594E-01 0.45349428E+03</pdfrwt>
<totfact> 0.68091565E+04</totfact>
</mgrwt>
</event>
<event>
 7    0  0.4788920E-002  0.4379002E+03  0.7546771E-02  0.1031393E+00
         21   -1    0    0  502  501  0.00000000000E+00  0.00000000000E+00  0.19460556735E+03  0.19460556735E+03  0.00000000000E+00 0. -1.
         21   -1    0    0  501  502 -0.00000000000E+00 -0.00000000000E+00 -0.24634010313E+03  0.24634010313E+03  0.00000000000E+00 0. -1.
      99926    2    1    2    0    0  0.00000000000E+00  0.00000000000E+00 -0.51734535779E+02  0.44094567048E+03  0.43790024221E+03 0.  0.
      99925    2    3    3    0    0  0.29528027295E+02 -0.16974431295E+02  0.57492897925E+02  0.27142229131E+03  0.26306765516E+03 0.  0.
         25    1    4    4    0    0  0.75347451205E+01 -0.31212670836E+02 -0.48223972382E+01  0.12923531568E+03  0.12509000000E+03 0.  0.
         25    1    4    4    0    0  0.21993282175E+02  0.14238239541E+02  0.62315295164E+02  0.14218697562E+03  0.12509000000E+03 0.  0.
         25    1    3    3    0    0 -0.29528027295E+02  0.16974431295E+02 -0.10922743370E+03  0.16952337918E+03  0.12509000000E+03 0.  0.
<mgrwt>
<rscale>  2 0.43790024E+03</rscale>
<asrwt>0</asrwt>
<pdfrwt beam="1">  1       21 0.28618466E-01 0.43790024E+03</pdfrwt>
<pdfrwt beam="2">  1       21 0.36226486E-01 0.43790024E+03</pdfrwt>
<totfact> 0.79951217E+04</totfact>
</mgrwt>
</event>
<event>
 7    0  0.4788920E-002  0.4549932E+03  0.7546771E-02  0.1026243E+00
         21   -1    0    0  502  501  0.00000000000E+00  0.00000000000E+00  0.49378741605E+03  0.49378741605E+03  0.00000000000E+00 0.  1.
         21   -1    0    0  501  502 -0.00000000000E+00 -0.00000000000E+00 -0.10481170598E+03  0.10481170598E+03  0.00000000000E+00 0.  1.
      99926    2    1    2    0    0  0.00000000000E+00  0.17763568394E-14  0.38897571008E+03  0.59859912203E+03  0.45499319321E+03 0.  0.
      99925    2    3    3    0    0  0.11230015553E+03 -0.14352256134E+02  0.24899705094E+03  0.37937584474E+03  0.26288626440E+03 0.  0.
         25    1    4    4    0    0  0.97868444101E+02 -0.20151878807E+02  0.14362498181E+03  0.21508131967E+03  0.12509000000E+03 0.  0.
         25    1    4    4    0    0  0.14431711434E+02  0.57996226732E+01  0.10537206912E+03  0.16429452507E+03  0.12509000000E+03 0.  0.
         25    1    3    3    0    0 -0.11230015553E+03  0.14352256134E+02  0.13997865914E+03  0.21922327729E+03  0.12509000000E+03 0.  0.
<mgrwt>
<rscale>  2 0.45499319E+03</rscale>
<asrwt>0</asrwt>
<pdfrwt beam="1">  1       21 0.72615796E-01 0.45499319E+03</pdfrwt>
<pdfrwt beam="2">  1       21 0.15413486E-01 0.45499319E+03</pdfrwt>
<totfact> 0.58767738E+04</totfact>
</mgrwt>
</event>
<event>
 7    0  0.4788920E-002  0.4639715E+03  0.7546771E-02  0.1023636E+00
         21   -1    0    0  502  501  0.00000000000E+00  0.00000000000E+00  0.78944982558E+02  0.78944982558E+02  0.00000000000E+00 0.  1.
         21   -1    0    0  501  502 -0.00000000000E+00 -0.00000000000E+00 -0.68170763669E+03  0.68170763669E+03  0.00000000000E+00 0.  1.
      99926    2    1    2    0    0 -0.14210854715E-13  0.35527136788E-14 -0.60276265413E+03  0.76065261925E+03  0.46397154002E+03 0.  0.
      99925    2    3    3    0    0 -0.10538745174E+03 -0.20712161880E+02 -0.28360807986E+03  0.40142753798E+03  0.26301143826E+03 0.  0.
         25    1    4    4    0    0 -0.89665250240E+02 -0.20966284257E+02 -0.12884335691E+03  0.20181070560E+03  0.12509000000E+03 0.  0.
         25    1    4    4    0    0 -0.15722201496E+02  0.25412237739E+00 -0.15476472295E+03  0.19961683238E+03  0.12509000000E+03 0.  0.
         25    1    3    3    0    0  0.10538745174E+03  0.20712161880E+02 -0.31915457427E+03  0.35922508127E+03  0.12509000000E+03 0.  0.
<mgrwt>
<rscale>  2 0.46397154E+03</rscale>
<asrwt>0</asrwt>
<pdfrwt beam="1">  1       21 0.11609556E-01 0.46397154E+03</pdfrwt>
<pdfrwt beam="2">  1       21 0.10025112E+00 0.46397154E+03</pdfrwt>
<totfact> 0.46372795E+04</totfact>
</mgrwt>
</event>
<event>
 7    0  0.4788920E-002  0.4513980E+03  0.7546771E-02  0.1027306E+00
         21   -1    0    0  502  501  0.00000000000E+00  0.00000000000E+00  0.41811167780E+03  0.41811167780E+03  0.00000000000E+00 0.  1.
         21   -1    0    0  501  502 -0.00000000000E+00 -0.00000000000E+00 -0.12183356664E+03  0.12183356664E+03  0.00000000000E+00 0.  1.
      99926    2    1    2    0    0  0.00000000000E+00  0.26645352591E-14  0.29627811115E+03  0.53994524444E+03  0.45139799274E+03 0.  0.
      99925    2    3    3    0    0 -0.25853687644E+02 -0.69389910054E+01  0.59603238846E+02  0.27091166653E+03  0.26291447701E+03 0.  0.
         25    1    4    4    0    0  0.19943008870E+02 -0.26151525197E+02  0.36122497965E+02  0.13429061334E+03  0.12509000000E+03 0.  0.
         25    1    3    3    0    0  0.25853687644E+02  0.69389910054E+01  0.23667487231E+03  0.26903357791E+03  0.12509000000E+03 0.  0.
         25    1    4    4    0    0 -0.45796696515E+02  0.19212534192E+02  0.23480740880E+02  0.13662105319E+03  0.12509000000E+03 0.  0.
<mgrwt>
<rscale>  2 0.45139799E+03</rscale>
<asrwt>0</asrwt>
<pdfrwt beam="1">  1       21 0.61487011E-01 0.45139799E+03</pdfrwt>
<pdfrwt beam="2">  1       21 0.17916701E-01 0.45139799E+03</pdfrwt>
<totfact> 0.64350715E+04</totfact>
</mgrwt>
</event>
<event>
 7    0  0.4788920E-002  0.4532618E+03  0.7546771E-02  0.1026754E+00
         21   -1    0    0  502  501  0.00000000000E+00  0.00000000000E+00  0.18863765698E+03  0.18863765698E+03  0.00000000000E+00 0. -1.
         21   -1    0    0  501  502 -0.00000000000E+00 -0.00000000000E+00 -0.27227626995E+03  0.27227626995E+03  0.00000000000E+00 0. -1.
      99926    2    1    2    0    0  0.00000000000E+00  0.00000000000E+00 -0.83638612972E+02  0.46091392693E+03  0.45326176814E+03 0.  0.
      99925    2    3    3    0    0  0.20746255757E+01 -0.75061389969E+02  0.31378154072E+02  0.27513211637E+03  0.26282042647E+03 0.  0.
         25    1    4    4    0    0  0.18791515437E+02 -0.48906192505E+02 -0.18618042240E+02  0.13689074591E+03  0.12509000000E+03 0.  0.
         25    1    4    4    0    0 -0.16716889861E+02 -0.26155197464E+02  0.49996196312E+02  0.13824137046E+03  0.12509000000E+03 0.  0.
         25    1    3    3    0    0 -0.20746255757E+01  0.75061389969E+02 -0.11501676704E+03  0.18578181056E+03  0.12509000000E+03 0.  0.
<mgrwt>
<rscale>  2 0.45326177E+03</rscale>
<asrwt>0</asrwt>
<pdfrwt beam="1">  1       21 0.27740832E-01 0.45326177E+03</pdfrwt>
<pdfrwt beam="2">  1       21 0.40040628E-01 0.45326177E+03</pdfrwt>
<totfact> 0.69063923E+04</totfact>
</mgrwt>
</event>
<event>
 7    0  0.4788920E-002  0.4546789E+03  0.7546771E-02  0.1026336E+00
         21   -1    0    0  502  501  0.00000000000E+00  0.00000000000E+00  0.90556575757E+03  0.90556575757E+03  0.00000000000E+00 0.  1.
         21   -1    0    0  501  502 -0.00000000000E+00 -0.00000000000E+00 -0.57072851788E+02  0.57072851788E+02  0.00000000000E+00 0.  1.
      99926    2    1    2    0    0  0.00000000000E+00  0.00000000000E+00  0.84849290578E+03  0.96263860936E+03  0.45467887686E+03 0.  0.
      99925    2    3    3    0    0  0.34229211648E+02  0.18843137798E+02  0.75837320134E+03  0.80359216331E+03  0.26287592063E+03 0.  0.
         25    1    3    3    0    0 -0.34229211648E+02 -0.18843137798E+02  0.90119704439E+02  0.15904644605E+03  0.12509000000E+03 0.  0.
         25    1    4    4    0    0 -0.24515372738E+01 -0.12663169463E+02  0.45167951771E+03  0.46885846555E+03  0.12509000000E+03 0.  0.
         25    1    4    4    0    0  0.36680748922E+02  0.31506307261E+02  0.30669368363E+03  0.33473369776E+03  0.12509000000E+03 0.  0.
<mgrwt>
<rscale>  2 0.45467888E+03</rscale>
<asrwt>0</asrwt>
<pdfrwt beam="1">  1       21 0.13317143E+00 0.45467888E+03</pdfrwt>
<pdfrwt beam="2">  1       21 0.83930670E-02 0.45467888E+03</pdfrwt>
<totfact> 0.40735438E+04</totfact>
</mgrwt>
</event>
<event>
 7    0  0.4788920E-002  0.4593525E+03  0.7546771E-02  0.1024969E+00
         21   -1    0    0  502  501  0.00000000000E+00  0.00000000000E+00  0.14694226893E+03  0.14694226893E+03  0.00000000000E+00 0.  1.
         21   -1    0    0  501  502 -0.00000000000E+00 -0.00000000000E+00 -0.35899256486E+03  0.35899256486E+03  0.00000000000E+00 0.  1.
      99926    2    1    2    0    0 -0.53290705182E-14 -0.14210854715E-13 -0.21205029593E+03  0.50593483379E+03  0.45935250956E+03 0.  0.
      99925    2    3    3    0    0 -0.15933625149E+02 -0.11536084596E+03 -0.14739531895E+03  0.32320612959E+03  0.26301105864E+03 0.  0.
         25    1    3    3    0    0  0.15933625149E+02  0.11536084596E+03 -0.64654976984E+02  0.18272870420E+03  0.12509000000E+03 0.  0.
         25    1    4    4    0    0  0.30625707693E+02 -0.70416803848E+02 -0.73141569596E+02  0.16399285819E+03  0.12509000000E+03 0.  0.
         25    1    4    4    0    0 -0.46559332842E+02 -0.44944042107E+02 -0.74253749352E+02  0.15921327140E+03  0.12509000000E+03 0.  0.
<mgrwt>
<rscale>  2 0.45935251E+03</rscale>
<asrwt>0</asrwt>
<pdfrwt beam="1">  1       21 0.21609157E-01 0.45935251E+03</pdfrwt>
<pdfrwt beam="2">  1       21 0.52793024E-01 0.45935251E+03</pdfrwt>
<totfact> 0.62662671E+04</totfact>
</mgrwt>
</event>
<event>
 7    0  0.4788920E-002  0.4518290E+03  0.7546771E-02  0.1027178E+00
         21   -1    0    0  502  501  0.00000000000E+00  0.00000000000E+00  0.12329438461E+03  0.12329438461E+03  0.00000000000E+00 0.  1.
         21   -1    0    0  501  502 -0.00000000000E+00 -0.00000000000E+00 -0.41394715729E+03  0.41394715729E+03  0.00000000000E+00 0.  1.
      99926    2    1    2    0    0  0.00000000000E+00 -0.88817841970E-15 -0.29065277268E+03  0.53724154191E+03  0.45182899429E+03 0.  0.
      99925    2    3    3    0    0 -0.66248436479E+02 -0.28223573879E+01 -0.78564312649E+02  0.28223988698E+03  0.26285011231E+03 0.  0.
         25    1    3    3    0    0  0.66248436479E+02  0.28223573879E+01 -0.21208846003E+03  0.25500165493E+03  0.12509000000E+03 0.  0.
         25    1    4    4    0    0 -0.58934275349E+02 -0.16874611150E+02 -0.69889582133E+02  0.15585269681E+03  0.12509000000E+03 0.  0.
         25    1    4    4    0    0 -0.73141611294E+01  0.14052253762E+02 -0.86747305161E+01  0.12638719017E+03  0.12509000000E+03 0.  0.
<mgrwt>
<rscale>  2 0.45182899E+03</rscale>
<asrwt>0</asrwt>
<pdfrwt beam="1">  1       21 0.18131527E-01 0.45182899E+03</pdfrwt>
<pdfrwt beam="2">  1       21 0.60874581E-01 0.45182899E+03</pdfrwt>
<totfact> 0.64316555E+04</totfact>
</mgrwt>
</event>
<event>
 7    0  0.4788920E-002  0.4412669E+03  0.7546771E-02  0.1030359E+00
         21   -1    0    0  502  501  0.00000000000E+00  0.00000000000E+00  0.17089938736E+04  0.17089938736E+04  0.00000000000E+00 0. -1.
         21   -1    0    0  501  502 -0.00000000000E+00 -0.00000000000E+00 -0.28484084454E+02  0.28484084454E+02  0.00000000000E+00 0. -1.
      99926    2    1    2    0    0 -0.14210854715E-13  0.00000000000E+00  0.16805097891E+04  0.17374779581E+04  0.44126692977E+03 0.  0.
      99925    2    3    3    0    0 -0.70067452433E+02 -0.67166867877E+01  0.13496754709E+04  0.13768487635E+04  0.26293360167E+03 0.  0.
         25    1    4    4    0    0  0.31420786865E+01  0.24226488797E+01  0.70451283622E+03  0.71554286132E+03  0.12509000000E+03 0.  0.
         25    1    3    3    0    0  0.70067452433E+02  0.67166867877E+01  0.33083431821E+03  0.36062919457E+03  0.12509000000E+03 0.  0.
         25    1    4    4    0    0 -0.73209531120E+02 -0.91393356674E+01  0.64516263472E+03  0.66130590216E+03  0.12509000000E+03 0.  0.
<mgrwt>
<rscale>  2 0.44126693E+03</rscale>
<asrwt>0</asrwt>
<pdfrwt beam="1">  1       21 0.25132256E+00 0.44126693E+03</pdfrwt>
<pdfrwt beam="2">  1       21 0.41888371E-02 0.44126693E+03</pdfrwt>
<totfact> 0.20602875E+04</totfact>
</mgrwt>
</event>
<event>
 7    0  0.4788920E-002  0.4520209E+03  0.7546771E-02  0.1027121E+00
         21   -1    0    0  502  501  0.00000000000E+00  0.00000000000E+00  0.19939230464E+03  0.19939230464E+03  0.00000000000E+00 0.  1.
         21   -1    0    0  501  502 -0.00000000000E+00 -0.00000000000E+00 -0.25618201715E+03  0.25618201715E+03  0.00000000000E+00 0.  1.
      99926    2    1    2    0    0  0.35527136788E-14  0.00000000000E+00 -0.56789712505E+02  0.45557432179E+03  0.45202089689E+03 0.  0.
      99925    2    3    3    0    0 -0.27362923124E+02 -0.50783586903E+02 -0.13074467211E+03  0.29922680371E+03  0.26289695417E+03 0.  0.
         25    1    4    4    0    0 -0.29510550306E+02  0.69114912178E+01 -0.84206507272E+02  0.15380794927E+03  0.12509000000E+03 0.  0.
         25    1    4    4    0    0  0.21476271821E+01 -0.57695078121E+02 -0.46538164833E+02  0.14541885444E+03  0.12509000000E+03 0.  0.
         25    1    3    3    0    0  0.27362923124E+02  0.50783586903E+02  0.73954959601E+02  0.15634751808E+03  0.12509000000E+03 0.  0.
<mgrwt>
<rscale>  2 0.45202090E+03</rscale>
<asrwt>0</asrwt>
<pdfrwt beam="1">  1       21 0.29322398E-01 0.45202090E+03</pdfrwt>
<pdfrwt beam="2">  1       21 0.37673826E-01 0.45202090E+03</pdfrwt>
<totfact> 0.70156296E+04</totfact>
</mgrwt>
</event>
<event>
 7    0  0.4788920E-002  0.4505180E+03  0.7546771E-02  0.1027568E+00
         21   -1    0    0  502  501  0.00000000000E+00  0.00000000000E+00  0.55231573556E+03  0.55231573556E+03  0.00000000000E+00 0.  1.
         21   -1    0    0  501  502 -0.00000000000E+00 -0.00000000000E+00 -0.91870675639E+02  0.91870675639E+02  0.00000000000E+00 0.  1.
      99926    2    1    2    0    0  0.00000000000E+00  0.00000000000E+00  0.46044505992E+03  0.64418641120E+03  0.45051801203E+03 0.  0.
      99925    2    3    3    0    0  0.53048483642E+02  0.33313544402E+01  0.42695208233E+03  0.50420595832E+03  0.26288843311E+03 0.  0.
         25    1    4    4    0    0  0.36752048051E+02  0.53863713756E+01  0.28996327324E+03  0.31797159301E+03  0.12509000000E+03 0.  0.
         25    1    4    4    0    0  0.16296435591E+02 -0.20550169355E+01  0.13698880908E+03  0.18623436531E+03  0.12509000000E+03 0.  0.
         25    1    3    3    0    0 -0.53048483642E+02 -0.33313544402E+01  0.33492977590E+02  0.13998045287E+03  0.12509000000E+03 0.  0.
<mgrwt>
<rscale>  2 0.45051801E+03</rscale>
<asrwt>0</asrwt>
<pdfrwt beam="1">  1       21 0.81222901E-01 0.45051801E+03</pdfrwt>
<pdfrwt beam="2">  1       21 0.13510394E-01 0.45051801E+03</pdfrwt>
<totfact> 0.58063927E+04</totfact>
</mgrwt>
</event>
<event>
 7    0  0.4788920E-002  0.4526016E+03  0.7546771E-02  0.1026949E+00
         21   -1    0    0  502  501  0.00000000000E+00  0.00000000000E+00  0.30821467445E+03  0.30821467445E+03  0.00000000000E+00 0. -1.
         21   -1    0    0  501  502 -0.00000000000E+00 -0.00000000000E+00 -0.16615712158E+03  0.16615712158E+03  0.00000000000E+00 0. -1.
      99926    2    1    2    0    0 -0.35527136788E-14  0.00000000000E+00  0.14205755287E+03  0.47437179604E+03  0.45260164886E+03 0.  0.
      99925    2    3    3    0    0  0.21755671412E+02  0.10876772881E+03  0.95484584449E+02  0.30081985120E+03  0.26281466652E+03 0.  0.
         25    1    3    3    0    0 -0.21755671412E+02 -0.10876772881E+03  0.46572968421E+02  0.17355194484E+03  0.12509000000E+03 0.  0.
         25    1    4    4    0    0  0.38363433636E+02  0.65324289422E+02  0.79376788922E+02  0.16639470709E+03  0.12509000000E+03 0.  0.
         25    1    4    4    0    0 -0.16607762224E+02  0.43443439387E+02  0.16107795527E+02  0.13442514411E+03  0.12509000000E+03 0.  0.
<mgrwt>
<rscale>  2 0.45260165E+03</rscale>
<asrwt>0</asrwt>
<pdfrwt beam="1">  1       21 0.45325688E-01 0.45260165E+03</pdfrwt>
<pdfrwt beam="2">  1       21 0.24434871E-01 0.45260165E+03</pdfrwt>
<totfact> 0.68404880E+04</totfact>
</mgrwt>
</event>
<event>
 7    0  0.4788920E-002  0.4635305E+03  0.7546771E-02  0.1023762E+00
         21   -1    0    0  502  501  0.00000000000E+00  0.00000000000E+00  0.20837181402E+03  0.20837181402E+03  0.00000000000E+00 0.  1.
         21   -1    0    0  501  502 -0.00000000000E+00 -0.00000000000E+00 -0.25778496253E+03  0.25778496253E+03  0.00000000000E+00 0.  1.
      99926    2    1    2    0    0  0.35527136788E-14 -0.88817841970E-15 -0.49413148516E+02  0.46615677655E+03  0.46353045324E+03 0.  0.
      99925    2    3    3    0    0 -0.18004885061E+02 -0.62373672369E+01  0.89165190788E+02  0.27850138798E+03  0.26315301864E+03 0.  0.
         25    1    4    4    0    0 -0.43599191941E+02  0.15793701088E+02  0.56495679607E+02  0.14487788115E+03  0.12509000000E+03 0.  0.
         25    1    4    4    0    0  0.25594306881E+02 -0.22031068325E+02  0.32669511181E+02  0.13362350683E+03  0.12509000000E+03 0.  0.
         25    1    3    3    0    0  0.18004885061E+02  0.62373672369E+01 -0.13857833930E+03  0.18765538857E+03  0.12509000000E+03 0.  0.
<mgrwt>
<rscale>  2 0.46353045E+03</rscale>
<asrwt>0</asrwt>
<pdfrwt beam="1">  1       21 0.30642914E-01 0.46353045E+03</pdfrwt>
<pdfrwt beam="2">  1       21 0.37909553E-01 0.46353045E+03</pdfrwt>
<totfact> 0.63315747E+04</totfact>
</mgrwt>
</event>
<event>
 7    0  0.4788920E-002  0.4588996E+03  0.7546771E-02  0.1025101E+00
         21   -1    0    0  502  501  0.00000000000E+00  0.00000000000E+00  0.17244708916E+04  0.17244708916E+04  0.00000000000E+00 0. -1.
         21   -1    0    0  501  502 -0.00000000000E+00 -0.00000000000E+00 -0.30529490793E+02  0.30529490793E+02  0.00000000000E+00 0. -1.
      99926    2    1    2    0    0  0.00000000000E+00  0.00000000000E+00  0.16939414008E+04  0.17550003824E+04  0.45889963264E+03 0.  0.
      99925    2    3    3    0    0  0.58694404004E+02 -0.96104901960E+02  0.94503134101E+03  0.98741001573E+03  0.26308386194E+03 0.  0.
         25    1    4    4    0    0  0.63584128210E+02 -0.74238461516E+02  0.50082889395E+03  0.52538688567E+03  0.12509000000E+03 0.  0.
         25    1    3    3    0    0 -0.58694404004E+02  0.96104901960E+02  0.74891005980E+03  0.76759036667E+03  0.12509000000E+03 0.  0.
         25    1    4    4    0    0 -0.48897242059E+01 -0.21866440444E+02  0.44420244707E+03  0.46202313005E+03  0.12509000000E+03 0.  0.
<mgrwt>
<rscale>  2 0.45889963E+03</rscale>
<asrwt>0</asrwt>
<pdfrwt beam="1">  1       21 0.25359860E+00 0.45889963E+03</pdfrwt>
<pdfrwt beam="2">  1       21 0.44896322E-02 0.45889963E+03</pdfrwt>
<totfact> 0.17601435E+04</totfact>
</mgrwt>
</event>
<event>
 7    0  0.4788920E-002  0.4592335E+03  0.7546771E-02  0.1025004E+00
         21   -1    0    0  502  501  0.00000000000E+00  0.00000000000E+00  0.48349164999E+03  0.48349164999E+03  0.00000000000E+00 0. -1.
         21   -1    0    0  501  502 -0.00000000000E+00 -0.00000000000E+00 -0.10904810942E+03  0.10904810942E+03  0.00000000000E+00 0. -1.
      99926    2    1    2    0    0  0.00000000000E+00 -0.35527136788E-14  0.37444354057E+03  0.59253975942E+03  0.45923349335E+03 0.  0.
      99925    2    3    3    0    0 -0.10946289934E+03 -0.21330747907E+02  0.18877909940E+03  0.34242794452E+03  0.26302513507E+03 0.  0.
         25    1    4    4    0    0 -0.20655600407E+02 -0.20825837849E+02  0.58543067199E+02  0.14119195504E+03  0.12509000000E+03 0.  0.
         25    1    3    3    0    0  0.10946289934E+03  0.21330747907E+02  0.18566444117E+03  0.25011181490E+03  0.12509000000E+03 0.  0.
         25    1    4    4    0    0 -0.88807298932E+02 -0.50491005859E+00  0.13023603220E+03  0.20123598948E+03  0.12509000000E+03 0.  0.
<mgrwt>
<rscale>  2 0.45923349E+03</rscale>
<asrwt>0</asrwt>
<pdfrwt beam="1">  1       21 0.71101712E-01 0.45923349E+03</pdfrwt>
<pdfrwt beam="2">  1       21 0.16036487E-01 0.45923349E+03</pdfrwt>
<totfact> 0.57201829E+04</totfact>
</mgrwt>
</event>
<event>
 7    0  0.4788920E-002  0.4497443E+03  0.7546771E-02  0.1027798E+00
         21   -1    0    0  502  501  0.00000000000E+00  0.00000000000E+00  0.63782808990E+02  0.63782808990E+02  0.00000000000E+00 0. -1.
         21   -1    0    0  501  502 -0.00000000000E+00 -0.00000000000E+00 -0.79280747558E+03  0.79280747558E+03  0.00000000000E+00 0. -1.
      99926    2    1    2    0    0  0.00000000000E+00  0.35527136788E-14 -0.72902466659E+03  0.85659028457E+03  0.44974431750E+03 0.  0.
      99925    2    3    3    0    0  0.71522549786E+02 -0.29554682411E+02 -0.31639578667E+03  0.41852744088E+03  0.26281166368E+03 0.  0.
         25    1    4    4    0    0  0.53422955621E+02 -0.33010657996E+02 -0.11703235192E+03  0.18244943197E+03  0.12509000000E+03 0.  0.
         25    1    3    3    0    0 -0.71522549786E+02  0.29554682411E+02 -0.41262887992E+03  0.43806284369E+03  0.12509000000E+03 0.  0.
         25    1    4    4    0    0  0.18099594165E+02  0.34559755858E+01 -0.19936343475E+03  0.23607800891E+03  0.12509000000E+03 0.  0.
<mgrwt>
<rscale>  2 0.44974432E+03</rscale>
<asrwt>0</asrwt>
<pdfrwt beam="1">  1       21 0.93798251E-02 0.44974432E+03</pdfrwt>
<pdfrwt beam="2">  1       21 0.11658933E+00 0.44974432E+03</pdfrwt>
<totfact> 0.47056053E+04</totfact>
</mgrwt>
</event>
<event>
 7    0  0.4788920E-002  0.4700892E+03  0.7546771E-02  0.1021895E+00
         21   -1    0    0  502  501  0.00000000000E+00  0.00000000000E+00  0.13275873174E+04  0.13275873174E+04  0.00000000000E+00 0.  1.
         21   -1    0    0  501  502 -0.00000000000E+00 -0.00000000000E+00 -0.41613800602E+02  0.41613800602E+02  0.00000000000E+00 0.  1.
      99926    2    1    2    0    0  0.00000000000E+00  0.00000000000E+00  0.12859735168E+04  0.13692011180E+04  0.47008915710E+03 0.  0.
      99925    2    3    3    0    0 -0.69816274329E+02  0.30875813549E+02  0.50415300613E+03  0.57376510736E+03  0.26307511629E+03 0.  0.
         25    1    4    4    0    0  0.55940060881E+01  0.31390138103E+01  0.23011687410E+03  0.26199700410E+03  0.12509000000E+03 0.  0.
         25    1    3    3    0    0  0.69816274329E+02 -0.30875813549E+02  0.78182051063E+03  0.79543601060E+03  0.12509000000E+03 0.  0.
         25    1    4    4    0    0 -0.75410280417E+02  0.27736799739E+02  0.27403613203E+03  0.31176810326E+03  0.12509000000E+03 0.  0.
<mgrwt>
<rscale>  2 0.47008916E+03</rscale>
<asrwt>0</asrwt>
<pdfrwt beam="1">  1       21 0.19523340E+00 0.47008916E+03</pdfrwt>
<pdfrwt beam="2">  1       21 0.61196774E-02 0.47008916E+03</pdfrwt>
<totfact> 0.24199461E+04</totfact>
</mgrwt>
</event>
<event>
 7    0  0.4788920E-002  0.4611728E+03  0.7546771E-02  0.1024442E+00
         21   -1    0    0  502  501  0.00000000000E+00  0.00000000000E+00  0.37271934853E+03  0.37271934853E+03  0.00000000000E+00 0. -1.
         21   -1    0    0  501  502 -0.00000000000E+00 -0.00000000000E+00 -0.14265446168E+03  0.14265446168E+03  0.00000000000E+00 0. -1.
      99926    2    1    2    0    0  0.00000000000E+00  0.19984014443E-14  0.23006488684E+03  0.51537381021E+03  0.46117275732E+03 0.  0.
      99925    2    3    3    0    0  0.69190268640E+02 -0.19370200953E+01  0.35660363777E+02  0.27406141515E+03  0.26276786791E+03 0.  0.
         25    1    4    4    0    0  0.26016606054E+02 -0.39768408424E+02  0.23865937213E+02  0.13592454215E+03  0.12509000000E+03 0.  0.
         25    1    3    3    0    0 -0.69190268640E+02  0.19370200953E+01  0.19440452307E+03  0.24131239506E+03  0.12509000000E+03 0.  0.
         25    1    4    4    0    0  0.43173662586E+02  0.37831388328E+02  0.11794426564E+02  0.13813687300E+03  0.12509000000E+03 0.  0.
<mgrwt>
<rscale>  2 0.46117276E+03</rscale>
<asrwt>0</asrwt>
<pdfrwt beam="1">  1       21 0.54811669E-01 0.46117276E+03</pdfrwt>
<pdfrwt beam="2">  1       21 0.20978597E-01 0.46117276E+03</pdfrwt>
<totfact> 0.61152566E+04</totfact>
</mgrwt>
</event>
<event>
 7    0  0.4788920E-002  0.4533885E+03  0.7546771E-02  0.1026716E+00
         21   -1    0    0  502  501  0.00000000000E+00  0.00000000000E+00  0.34914121443E+03  0.34914121443E+03  0.00000000000E+00 0. -1.
         21   -1    0    0  501  502 -0.00000000000E+00 -0.00000000000E+00 -0.14719050737E+03  0.14719050737E+03  0.00000000000E+00 0. -1.
      99926    2    1    2    0    0  0.00000000000E+00  0.00000000000E+00  0.20195070707E+03  0.49633172180E+03  0.45338845373E+03 0.  0.
      99925    2    3    3    0    0 -0.18275310352E+02  0.99702907369E+01  0.71758709962E+01  0.26391369639E+03  0.26299344546E+03 0.  0.
         25    1    4    4    0    0 -0.68325561733E+00  0.19517078630E+02  0.40495404449E+02  0.13292392214E+03  0.12509000000E+03 0.  0.
         25    1    3    3    0    0  0.18275310352E+02 -0.99702907369E+01  0.19477483607E+03  0.23241802540E+03  0.12509000000E+03 0.  0.
         25    1    4    4    0    0 -0.17592054735E+02 -0.95467878933E+01 -0.33319533453E+02  0.13098977425E+03  0.12509000000E+03 0.  0.
<mgrwt>
<rscale>  2 0.45338845E+03</rscale>
<asrwt>0</asrwt>
<pdfrwt beam="1">  1       21 0.51344296E-01 0.45338845E+03</pdfrwt>
<pdfrwt beam="2">  1       21 0.21645663E-01 0.45338845E+03</pdfrwt>
<totfact> 0.66374213E+04</totfact>
</mgrwt>
</event>
<event>
 7    0  0.4788920E-002  0.4713096E+03  0.7546771E-02  0.1021551E+00
         21   -1    0    0  502  501  0.00000000000E+00  0.00000000000E+00  0.46702204175E+02  0.46702204175E+02  0.00000000000E+00 0.  1.
         21   -1    0    0  501  502 -0.00000000000E+00 -0.00000000000E+00 -0.11890913534E+04  0.11890913534E+04  0.00000000000E+00 0.  1.
      99926    2    1    2    0    0  0.00000000000E+00  0.17763568394E-14 -0.11423891493E+04  0.12357935576E+04  0.47130961022E+03 0.  0.
      99925    2    3    3    0    0  0.97276161513E+02  0.13516331599E+02 -0.49441207741E+03  0.56858509202E+03  0.26305961635E+03 0.  0.
         25    1    4    4    0    0  0.78421962940E+02  0.66281206743E+01 -0.20557388612E+03  0.25318386009E+03  0.12509000000E+03 0.  0.
         25    1    3    3    0    0 -0.97276161513E+02 -0.13516331599E+02 -0.64797707185E+03  0.66720846560E+03  0.12509000000E+03 0.  0.
         25    1    4    4    0    0  0.18854198573E+02  0.68882109247E+01 -0.28883819129E+03  0.31540123193E+03  0.12509000000E+03 0.  0.
<mgrwt>
<rscale>  2 0.47130961E+03</rscale>
<asrwt>0</asrwt>
<pdfrwt beam="1">  1       21 0.68679710E-02 0.47130961E+03</pdfrwt>
<pdfrwt beam="2">  1       21 0.17486638E+00 0.47130961E+03</pdfrwt>
<totfact> 0.27390989E+04</totfact>
</mgrwt>
</event>
<event>
 7    0  0.4788920E-002  0.4210402E+03  0.7546771E-02  0.1036728E+00
         21   -1    0    0  502  501  0.00000000000E+00  0.00000000000E+00  0.25403187696E+03  0.25403187696E+03  0.00000000000E+00 0. -1.
         21   -1    0    0  501  502 -0.00000000000E+00 -0.00000000000E+00 -0.17446124430E+03  0.17446124430E+03  0.00000000000E+00 0. -1.
      99926    2    1    2    0    0 -0.71054273576E-14  0.00000000000E+00  0.79570632663E+02  0.42849312126E+03  0.42104022300E+03 0.  0.
      99925    2    3    3    0    0  0.40922542248E+02  0.62757143488E+02  0.67745362032E+02  0.28220416525E+03  0.26350833628E+03 0.  0.
         25    1    3    3    0    0 -0.40922542248E+02 -0.62757143488E+02  0.11825270631E+02  0.14628895600E+03  0.12509000000E+03 0.  0.
         25    1    4    4    0    0  0.58988670258E+02  0.24709265908E+02  0.20325072439E+02  0.14195361112E+03  0.12509000000E+03 0.  0.
         25    1    4    4    0    0 -0.18066128010E+02  0.38047877580E+02  0.47420289594E+02  0.14025055413E+03  0.12509000000E+03 0.  0.
<mgrwt>
<rscale>  2 0.42104022E+03</rscale>
<asrwt>0</asrwt>
<pdfrwt beam="1">  1       21 0.37357629E-01 0.42104022E+03</pdfrwt>
<pdfrwt beam="2">  1       21 0.25656065E-01 0.42104022E+03</pdfrwt>
<totfact> 0.93369898E+04</totfact>
</mgrwt>
</event>
<event>
 7    0  0.4788920E-002  0.4547406E+03  0.7546771E-02  0.1026318E+00
         21   -1    0    0  502  501  0.00000000000E+00  0.00000000000E+00  0.16064411765E+03  0.16064411765E+03  0.00000000000E+00 0.  1.
         21   -1    0    0  501  502 -0.00000000000E+00 -0.00000000000E+00 -0.32181229306E+03  0.32181229306E+03  0.00000000000E+00 0.  1.
      99926    2    1    2    0    0  0.00000000000E+00  0.00000000000E+00 -0.16116817542E+03  0.48245641071E+03  0.45474059360E+03 0.  0.
      99925    2    3    3    0    0  0.34854949612E+02 -0.99605362749E+02 -0.58650399260E+02  0.28934116448E+03  0.26294931893E+03 0.  0.
         25    1    4    4    0    0 -0.77044017988E+01 -0.26817474478E+02 -0.52088421008E+02  0.13834466541E+03  0.12509000000E+03 0.  0.
         25    1    3    3    0    0 -0.34854949612E+02  0.99605362749E+02 -0.10251777616E+03  0.19311524624E+03  0.12509000000E+03 0.  0.
         25    1    4    4    0    0  0.42559351410E+02 -0.72787888271E+02 -0.65619782520E+01  0.15099649907E+03  0.12509000000E+03 0.  0.
<mgrwt>
<rscale>  2 0.45474059E+03</rscale>
<asrwt>0</asrwt>
<pdfrwt beam="1">  1       21 0.23624135E-01 0.45474059E+03</pdfrwt>
<pdfrwt beam="2">  1       21 0.47325337E-01 0.45474059E+03</pdfrwt>
<totfact> 0.66658880E+04</totfact>
</mgrwt>
</event>
<event>
 7    0  0.4788920E-002  0.4529072E+03  0.7546771E-02  0.1026859E+00
         21   -1    0    0  502  501  0.00000000000E+00  0.00000000000E+00  0.15921752528E+04  0.15921752528E+04  0.00000000000E+00 0.  1.
         21   -1    0    0  501  502 -0.00000000000E+00 -0.00000000000E+00 -0.32208282200E+02  0.32208282200E+02  0.00000000000E+00 0.  1.
      99926    2    1    2    0    0  0.00000000000E+00  0.00000000000E+00  0.15599669706E+04  0.16243835350E+04  0.45290718632E+03 0.  0.
      99925    2    3    3    0    0  0.10522352755E+02 -0.10815455627E+03  0.10641692101E+04  0.11016301941E+04  0.26329612417E+03 0.  0.
         25    1    4    4    0    0  0.19246552974E+02 -0.66794604991E+02  0.69441942280E+03  0.70901184188E+03  0.12509000000E+03 0.  0.
         25    1    4    4    0    0 -0.87242002190E+01 -0.41359951275E+02  0.36974978726E+03  0.39261835225E+03  0.12509000000E+03 0.  0.
         25    1    3    3    0    0 -0.10522352755E+02  0.10815455627E+03  0.49579776056E+03  0.52275334091E+03  0.12509000000E+03 0.  0.
<mgrwt>
<rscale>  2 0.45290719E+03</rscale>
<asrwt>0</asrwt>
<pdfrwt beam="1">  1       21 0.23414337E+00 0.45290719E+03</pdfrwt>
<pdfrwt beam="2">  1       21 0.47365132E-02 0.45290719E+03</pdfrwt>
<totfact> 0.21227194E+04</totfact>
</mgrwt>
</event>
<event>
 7    0  0.4788920E-002  0.4502460E+03  0.7546771E-02  0.1027649E+00
         21   -1    0    0  502  501  0.00000000000E+00  0.00000000000E+00  0.25414884716E+03  0.25414884716E+03  0.00000000000E+00 0.  1.
         21   -1    0    0  501  502 -0.00000000000E+00 -0.00000000000E+00 -0.19941210927E+03  0.19941210927E+03  0.00000000000E+00 0.  1.
      99926    2    1    2    0    0  0.00000000000E+00  0.00000000000E+00  0.54736737891E+02  0.45356095642E+03  0.45024596691E+03 0.  0.
      99925    2    3    3    0    0 -0.13780717500E+02 -0.42310962291E+02 -0.65731802748E+02  0.27428378808E+03  0.26254675928E+03 0.  0.
         25    1    3    3    0    0  0.13780717500E+02  0.42310962291E+02  0.12046854064E+03  0.17927716834E+03  0.12509000000E+03 0.  0.
         25    1    4    4    0    0 -0.31835066801E+00 -0.53128576066E+02 -0.58019840611E+02  0.14777197619E+03  0.12509000000E+03 0.  0.
         25    1    4    4    0    0 -0.13462366832E+02  0.10817613775E+02 -0.77119621363E+01  0.12651181189E+03  0.12509000000E+03 0.  0.
<mgrwt>
<rscale>  2 0.45024597E+03</rscale>
<asrwt>0</asrwt>
<pdfrwt beam="1">  1       21 0.37374830E-01 0.45024597E+03</pdfrwt>
<pdfrwt beam="2">  1       21 0.29325310E-01 0.45024597E+03</pdfrwt>
<totfact> 0.71318123E+04</totfact>
</mgrwt>
</event>
<event>
 7    0  0.4788920E-002  0.4555602E+03  0.7546771E-02  0.1026077E+00
         21   -1    0    0  502  501  0.00000000000E+00  0.00000000000E+00  0.21245453690E+03  0.21245453690E+03  0.00000000000E+00 0. -1.
         21   -1    0    0  501  502 -0.00000000000E+00 -0.00000000000E+00 -0.24421115365E+03  0.24421115365E+03  0.00000000000E+00 0. -1.
      99926    2    1    2    0    0  0.00000000000E+00  0.00000000000E+00 -0.31756616756E+02  0.45666569055E+03  0.45556017190E+03 0.  0.
      99925    2    3    3    0    0  0.28686790862E+02 -0.83109893174E+02  0.52349035598E+02  0.28216223737E+03  0.26295421723E+03 0.  0.
         25    1    3    3    0    0 -0.28686790862E+02  0.83109893174E+02 -0.84105652354E+02  0.17450345318E+03  0.12509000000E+03 0.  0.
         25    1    4    4    0    0  0.21625635201E+02 -0.53620714221E+02  0.65874096233E+02  0.15274080577E+03  0.12509000000E+03 0.  0.
         25    1    4    4    0    0  0.70611556608E+01 -0.29489178953E+02 -0.13525060634E+02  0.12942143161E+03  0.12509000000E+03 0.  0.
<mgrwt>
<rscale>  2 0.45556017E+03</rscale>
<asrwt>0</asrwt>
<pdfrwt beam="1">  1       21 0.31243314E-01 0.45556017E+03</pdfrwt>
<pdfrwt beam="2">  1       21 0.35913405E-01 0.45556017E+03</pdfrwt>
<totfact> 0.68119008E+04</totfact>
</mgrwt>
</event>
<event>
 7    0  0.4788920E-002  0.4606889E+03  0.7546771E-02  0.1024582E+00
         21   -1    0    0  502  501  0.00000000000E+00  0.00000000000E+00  0.51155624290E+02  0.51155624290E+02  0.00000000000E+00 0.  1.
         21   -1    0    0  501  502 -0.00000000000E+00 -0.00000000000E+00 -0.10371991724E+04  0.10371991724E+04  0.00000000000E+00 0.  1.
      99926    2    1    2    0    0  0.00000000000E+00  0.14210854715E-13 -0.98604354812E+03  0.10883547967E+04  0.46068892401E+03 0.  0.
      99925    2    3    3    0    0  0.72412004775E+02 -0.90076240282E+02 -0.55288302585E+03  0.62291653694E+03  0.26265594266E+03 0.  0.
         25    1    4    4    0    0  0.56026954692E+02 -0.98131955475E+01 -0.26132142752E+03  0.29524856484E+03  0.12509000000E+03 0.  0.
         25    1    3    3    0    0 -0.72412004775E+02  0.90076240282E+02 -0.43316052226E+03  0.46543825976E+03  0.12509000000E+03 0.  0.
         25    1    4    4    0    0  0.16385050084E+02 -0.80263044734E+02 -0.29156159833E+03  0.32766797209E+03  0.12509000000E+03 0.  0.
<mgrwt>
<rscale>  2 0.46068892E+03</rscale>
<asrwt>0</asrwt>
<pdfrwt beam="1">  1       21 0.75228856E-02 0.46068892E+03</pdfrwt>
<pdfrwt beam="2">  1       21 0.15252930E+00 0.46068892E+03</pdfrwt>
<totfact> 0.34350493E+04</totfact>
</mgrwt>
</event>
<event>
 7    0  0.4788920E-002  0.4513548E+03  0.7546771E-02  0.1027319E+00
         21   -1    0    0  502  501  0.00000000000E+00  0.00000000000E+00  0.35479663862E+03  0.35479663862E+03  0.00000000000E+00 0.  1.
         21   -1    0    0  501  502 -0.00000000000E+00 -0.00000000000E+00 -0.14354784783E+03  0.14354784783E+03  0.00000000000E+00 0.  1.
      99926    2    1    2    0    0  0.00000000000E+00  0.00000000000E+00  0.21124879079E+03  0.49834448645E+03  0.45135482225E+03 0.  0.
      99925    2    3    3    0    0  0.39182711254E+02 -0.45731531436E+02  0.33714796029E+02  0.27297260439E+03  0.26410357333E+03 0.  0.
         25    1    4    4    0    0  0.34777853636E+02 -0.49700459388E+02  0.47667880250E+02  0.14696724014E+03  0.12509000000E+03 0.  0.
         25    1    3    3    0    0 -0.39182711254E+02  0.45731531436E+02  0.17753399476E+03  0.22537188206E+03  0.12509000000E+03 0.  0.
         25    1    4    4    0    0  0.44048576177E+01  0.39689279520E+01 -0.13953084221E+02  0.12600536425E+03  0.12509000000E+03 0.  0.
<mgrwt>
<rscale>  2 0.45135482E+03</rscale>
<asrwt>0</asrwt>
<pdfrwt beam="1">  1       21 0.52175976E-01 0.45135482E+03</pdfrwt>
<pdfrwt beam="2">  1       21 0.21109978E-01 0.45135482E+03</pdfrwt>
<totfact> 0.67313891E+04</totfact>
</mgrwt>
</event>
<event>
 7    0  0.4788920E-002  0.4576528E+03  0.7546771E-02  0.1025464E+00
         21   -1    0    0  502  501  0.00000000000E+00  0.00000000000E+00  0.36499578815E+02  0.36499578815E+02  0.00000000000E+00 0. -1.
         21   -1    0    0  501  502 -0.00000000000E+00 -0.00000000000E+00 -0.14345789189E+04  0.14345789189E+04  0.00000000000E+00 0. -1.
      99926    2    1    2    0    0 -0.14210854715E-13  0.71054273576E-14 -0.13980793401E+04  0.14710784978E+04  0.45765282177E+03 0.  0.
      99925    2    3    3    0    0  0.79675022048E+02 -0.54536207788E+02 -0.10826314019E+04  0.11182652087E+04  0.26287643016E+03 0.  0.
         25    1    3    3    0    0 -0.79675022048E+02  0.54536207788E+02 -0.31544793826E+03  0.35281328908E+03  0.12509000000E+03 0.  0.
         25    1    4    4    0    0  0.69038503581E+02 -0.71181874794E+01 -0.63701992806E+03  0.65288504380E+03  0.12509000000E+03 0.  0.
         25    1    4    4    0    0  0.10636518467E+02 -0.47418020309E+02 -0.44561147381E+03  0.46538016488E+03  0.12509000000E+03 0.  0.
<mgrwt>
<rscale>  2 0.45765282E+03</rscale>
<asrwt>0</asrwt>
<pdfrwt beam="1">  1       21 0.53675864E-02 0.45765282E+03</pdfrwt>
<pdfrwt beam="2">  1       21 0.21096744E+00 0.45765282E+03</pdfrwt>
<totfact> 0.23998553E+04</totfact>
</mgrwt>
</event>
<event>
 7    0  0.4788920E-002  0.4535763E+03  0.7546771E-02  0.1026661E+00
         21   -1    0    0  502  501  0.00000000000E+00  0.00000000000E+00  0.17924439187E+03  0.17924439187E+03  0.00000000000E+00 0. -1.
         21   -1    0    0  501  502 -0.00000000000E+00 -0.00000000000E+00 -0.28694269324E+03  0.28694269324E+03  0.00000000000E+00 0. -1.
      99926    2    1    2    0    0  0.00000000000E+00  0.35527136788E-14 -0.10769830137E+03  0.46618708510E+03  0.45357631574E+03 0.  0.
      99925    2    3    3    0    0  0.80245684922E+02 -0.18796958848E+02  0.10332876593E+02  0.27547378540E+03  0.26265251283E+03 0.  0.
         25    1    4    4    0    0  0.16658979353E+02  0.20941768651E+02 -0.95799505256E+01  0.12827845813E+03  0.12509000000E+03 0.  0.
         25    1    4    4    0    0  0.63586705569E+02 -0.39738727499E+02  0.19912827119E+02  0.14719532728E+03  0.12509000000E+03 0.  0.
         25    1    3    3    0    0 -0.80245684922E+02  0.18796958848E+02 -0.11803117796E+03  0.19071329970E+03  0.12509000000E+03 0.  0.
<mgrwt>
<rscale>  2 0.45357632E+03</rscale>
<asrwt>0</asrwt>
<pdfrwt beam="1">  1       21 0.26359470E-01 0.45357632E+03</pdfrwt>
<pdfrwt beam="2">  1       21 0.42197454E-01 0.45357632E+03</pdfrwt>
<totfact> 0.68490748E+04</totfact>
</mgrwt>
</event>
<event>
 7    0  0.4788920E-002  0.4533454E+03  0.7546771E-02  0.1026729E+00
         21   -1    0    0  502  501  0.00000000000E+00  0.00000000000E+00  0.58638311672E+03  0.58638311672E+03  0.00000000000E+00 0. -1.
         21   -1    0    0  501  502 -0.00000000000E+00 -0.00000000000E+00 -0.87622759495E+02  0.87622759495E+02  0.00000000000E+00 0. -1.
      99926    2    1    2    0    0  0.14210854715E-13 -0.71054273576E-14  0.49876035722E+03  0.67400587621E+03  0.45334537301E+03 0.  0.
      99925    2    3    3    0    0  0.95489804814E+02 -0.52213829632E+02  0.35127995849E+03  0.45209922255E+03  0.26296674879E+03 0.  0.
         25    1    3    3    0    0 -0.95489804814E+02  0.52213829632E+02  0.14748039873E+03  0.22190665366E+03  0.12509000000E+03 0.  0.
         25    1    4    4    0    0  0.78995828863E+02 -0.55624245162E+02  0.18457298672E+03  0.24300019168E+03  0.12509000000E+03 0.  0.
         25    1    4    4    0    0  0.16493975951E+02  0.34104155303E+01  0.16670697176E+03  0.20909903087E+03  0.12509000000E+03 0.  0.
<mgrwt>
<rscale>  2 0.45334537E+03</rscale>
<asrwt>0</asrwt>
<pdfrwt beam="1">  1       21 0.86232809E-01 0.45334537E+03</pdfrwt>
<pdfrwt beam="2">  1       21 0.12885700E-01 0.45334537E+03</pdfrwt>
<totfact> 0.55051756E+04</totfact>
</mgrwt>
</event>
<event>
 7    0  0.4788920E-002  0.4559630E+03  0.7546771E-02  0.1025959E+00
         21   -1    0    0  502  501  0.00000000000E+00  0.00000000000E+00  0.10331392218E+04  0.10331392218E+04  0.00000000000E+00 0. -1.
         21   -1    0    0  501  502 -0.00000000000E+00 -0.00000000000E+00 -0.50308388648E+02  0.50308388648E+02  0.00000000000E+00 0. -1.
      99926    2    1    2    0    0  0.00000000000E+00  0.00000000000E+00  0.98283083315E+03  0.10834476104E+04  0.45596302261E+03 0.  0.
      99925    2    3    3    0    0  0.38726132881E+02  0.14623168514E+02  0.87048470208E+03  0.91029244392E+03  0.26301172311E+03 0.  0.
         25    1    4    4    0    0 -0.84141358124E+01  0.20144133414E+01  0.32050390974E+03  0.34415856782E+03  0.12509000000E+03 0.  0.
         25    1    4    4    0    0  0.47140268693E+02  0.12608755173E+02  0.54998079234E+03  0.56613387611E+03  0.12509000000E+03 0.  0.
         25    1    3    3    0    0 -0.38726132881E+02 -0.14623168514E+02  0.11234613107E+03  0.17315516652E+03  0.12509000000E+03 0.  0.
<mgrwt>
<rscale>  2 0.45596302E+03</rscale>
<asrwt>0</asrwt>
<pdfrwt beam="1">  1       21 0.15193223E+00 0.45596302E+03</pdfrwt>
<pdfrwt beam="2">  1       21 0.73982931E-02 0.45596302E+03</pdfrwt>
<totfact> 0.35803717E+04</totfact>
</mgrwt>
</event>
<event>
 7    0  0.4788920E-002  0.4578821E+03  0.7546771E-02  0.1025397E+00
         21   -1    0    0  502  501  0.00000000000E+00  0.00000000000E+00  0.15157447623E+03  0.15157447623E+03  0.00000000000E+00 0. -1.
         21   -1    0    0  501  502 -0.00000000000E+00 -0.00000000000E+00 -0.34579701969E+03  0.34579701969E+03  0.00000000000E+00 0. -1.
      99926    2    1    2    0    0  0.00000000000E+00  0.71054273576E-14 -0.19422254346E+03  0.49737149593E+03  0.45788209025E+03 0.  0.
      99925    2    3    3    0    0  0.44916871434E+02 -0.52254763154E+02 -0.22295022936E+03  0.35169763537E+03  0.26312798472E+03 0.  0.
         25    1    4    4    0    0  0.58805633599E+02 -0.32584788068E+02 -0.14164361900E+03  0.20057490835E+03  0.12509000000E+03 0.  0.
         25    1    4    4    0    0 -0.13888762165E+02 -0.19669975085E+02 -0.81306610352E+02  0.15112272702E+03  0.12509000000E+03 0.  0.
         25    1    3    3    0    0 -0.44916871434E+02  0.52254763154E+02  0.28727685896E+02  0.14567386055E+03  0.12509000000E+03 0.  0.
<mgrwt>
<rscale>  2 0.45788209E+03</rscale>
<asrwt>0</asrwt>
<pdfrwt beam="1">  1       21 0.22290365E-01 0.45788209E+03</pdfrwt>
<pdfrwt beam="2">  1       21 0.50852502E-01 0.45788209E+03</pdfrwt>
<totfact> 0.63979329E+04</totfact>
</mgrwt>
</event>
<event>
 7    0  0.4788920E-002  0.4384195E+03  0.7546771E-02  0.1031233E+00
         21   -1    0    0  502  501  0.00000000000E+00  0.00000000000E+00  0.38652329472E+03  0.38652329472E+03  0.00000000000E+00 0.  1.
         21   -1    0    0  501  502 -0.00000000000E+00 -0.00000000000E+00 -0.12432086678E+03  0.12432086678E+03  0.00000000000E+00 0.  1.
      99926    2    1    2    0    0  0.00000000000E+00  0.00000000000E+00  0.26220242794E+03  0.51084416149E+03  0.43841948419E+03 0.  0.
      99925    2    3    3    0    0 -0.19515968831E+01 -0.71052196003E+02  0.91080918592E+02  0.28727694040E+03  0.26302107038E+03 0.  0.
         25    1    4    4    0    0  0.20076565718E+00 -0.22996253934E+02  0.36105254611E+01  0.12723762021E+03  0.12509000000E+03 0.  0.
         25    1    3    3    0    0  0.19515968831E+01  0.71052196003E+02  0.17112150935E+03  0.22356722109E+03  0.12509000000E+03 0.  0.
         25    1    4    4    0    0 -0.21523625403E+01 -0.48055942069E+02  0.87470393131E+02  0.16003932019E+03  0.12509000000E+03 0.  0.
<mgrwt>
<rscale>  2 0.43841948E+03</rscale>
<asrwt>0</asrwt>
<pdfrwt beam="1">  1       21 0.56841661E-01 0.43841948E+03</pdfrwt>
<pdfrwt beam="2">  1       21 0.18282480E-01 0.43841948E+03</pdfrwt>
<totfact> 0.73746726E+04</totfact>
</mgrwt>
</event>
<event>
 7    0  0.4788920E-002  0.4506199E+03  0.7546771E-02  0.1027537E+00
         21   -1    0    0  502  501  0.00000000000E+00  0.00000000000E+00  0.10329913639E+03  0.10329913639E+03  0.00000000000E+00 0.  1.
         21   -1    0    0  501  502 -0.00000000000E+00 -0.00000000000E+00 -0.49143271653E+03  0.49143271653E+03  0.00000000000E+00 0.  1.
      99926    2    1    2    0    0  0.00000000000E+00  0.14210854715E-13 -0.38813358014E+03  0.59473185292E+03  0.45061990728E+03 0.  0.
      99925    2    3    3    0    0  0.66183895972E+02  0.76705590460E+02 -0.19232898134E+03  0.34125403395E+03  0.26305859221E+03 0.  0.
         25    1    4    4    0    0 -0.79051208593E+01  0.26733890975E+02 -0.86902463766E+02  0.15484423842E+03  0.12509000000E+03 0.  0.
         25    1    3    3    0    0 -0.66183895972E+02 -0.76705590460E+02 -0.19580459880E+03  0.25347781896E+03  0.12509000000E+03 0.  0.
         25    1    4    4    0    0  0.74089016832E+02  0.49971699485E+02 -0.10542651757E+03  0.18640979554E+03  0.12509000000E+03 0.  0.
<mgrwt>
<rscale>  2 0.45061991E+03</rscale>
<asrwt>0</asrwt>
<pdfrwt beam="1">  1       21 0.15191050E-01 0.45061991E+03</pdfrwt>
<pdfrwt beam="2">  1       21 0.72269516E-01 0.45061991E+03</pdfrwt>
<totfact> 0.61090942E+04</totfact>
</mgrwt>
</event>
<event>
 7    0  0.4788920E-002  0.4429848E+03  0.7546771E-02  0.1029835E+00
         21   -1    0    0  502  501  0.00000000000E+00  0.00000000000E+00  0.10524075751E+03  0.10524075751E+03  0.00000000000E+00 0.  1.
         21   -1    0    0  501  502 -0.00000000000E+00 -0.00000000000E+00 -0.46615864205E+03  0.46615864205E+03  0.00000000000E+00 0.  1.
      99926    2    1    2    0    0  0.00000000000E+00  0.71054273576E-14 -0.36091788454E+03  0.57139939956E+03  0.44298482416E+03 0.  0.
      99925    2    3    3    0    0  0.70884537756E+02 -0.48380630218E+02 -0.29951949615E+03  0.40774557813E+03  0.26301943813E+03 0.  0.
         25    1    4    4    0    0  0.72545442429E+02 -0.11939945759E+02 -0.13824635652E+03  0.20041199244E+03  0.12509000000E+03 0.  0.
         25    1    4    4    0    0 -0.16609046724E+01 -0.36440684459E+02 -0.16127313964E+03  0.20733358569E+03  0.12509000000E+03 0.  0.
         25    1    3    3    0    0 -0.70884537756E+02  0.48380630218E+02 -0.61398388388E+02  0.16365382143E+03  0.12509000000E+03 0.  0.
<mgrwt>
<rscale>  2 0.44298482E+03</rscale>
<asrwt>0</asrwt>
<pdfrwt beam="1">  1       21 0.15476582E-01 0.44298482E+03</pdfrwt>
<pdfrwt beam="2">  1       21 0.68552743E-01 0.44298482E+03</pdfrwt>
<totfact> 0.66577659E+04</totfact>
</mgrwt>
</event>
<event>
 7    0  0.4788920E-002  0.4583209E+03  0.7546771E-02  0.1025269E+00
         21   -1    0    0  502  501  0.00000000000E+00  0.00000000000E+00  0.82771648964E+02  0.82771648964E+02  0.00000000000E+00 0. -1.
         21   -1    0    0  501  502 -0.00000000000E+00 -0.00000000000E+00 -0.63445056327E+03  0.63445056327E+03  0.00000000000E+00 0. -1.
      99926    2    1    2    0    0  0.71054273576E-14  0.14210854715E-13 -0.55167891430E+03  0.71722221223E+03  0.45832093257E+03 0.  0.
      99925    2    3    3    0    0  0.38564107310E+02 -0.92823508150E+02 -0.25443587040E+03  0.37942888890E+03  0.26291686053E+03 0.  0.
         25    1    3    3    0    0 -0.38564107310E+02  0.92823508150E+02 -0.29724304390E+03  0.33779332333E+03  0.12509000000E+03 0.  0.
         25    1    4    4    0    0  0.22647915346E+02 -0.89243244007E+02 -0.13928057818E+03  0.20862375759E+03  0.12509000000E+03 0.  0.
         25    1    4    4    0    0  0.15916191963E+02 -0.35802641424E+01 -0.11515529222E+03  0.17080513132E+03  0.12509000000E+03 0.  0.
<mgrwt>
<rscale>  2 0.45832093E+03</rscale>
<asrwt>0</asrwt>
<pdfrwt beam="1">  1       21 0.12172301E-01 0.45832093E+03</pdfrwt>
<pdfrwt beam="2">  1       21 0.93301555E-01 0.45832093E+03</pdfrwt>
<totfact> 0.50641940E+04</totfact>
</mgrwt>
</event>
<event>
 7    0  0.4788920E-002  0.4537452E+03  0.7546771E-02  0.1026611E+00
         21   -1    0    0  502  501  0.00000000000E+00  0.00000000000E+00  0.24211778296E+03  0.24211778296E+03  0.00000000000E+00 0. -1.
         21   -1    0    0  501  502 -0.00000000000E+00 -0.00000000000E+00 -0.21258735070E+03  0.21258735070E+03  0.00000000000E+00 0. -1.
      99926    2    1    2    0    0 -0.71054273576E-14  0.14210854715E-13  0.29530432264E+02  0.45470513366E+03  0.45374520619E+03 0.  0.
      99925    2    3    3    0    0  0.38636311855E+02 -0.73462252434E+02  0.93932343032E+02  0.29135097443E+03  0.26300691646E+03 0.  0.
         25    1    4    4    0    0 -0.17837748901E+02 -0.45869456095E+02  0.31489159106E+02  0.13806254934E+03  0.12509000000E+03 0.  0.
         25    1    4    4    0    0  0.56474060756E+02 -0.27592796340E+02  0.62443183926E+02  0.15328842509E+03  0.12509000000E+03 0.  0.
         25    1    3    3    0    0 -0.38636311855E+02  0.73462252434E+02 -0.64401910768E+02  0.16335415923E+03  0.12509000000E+03 0.  0.
<mgrwt>
<rscale>  2 0.45374521E+03</rscale>
<asrwt>0</asrwt>
<pdfrwt beam="1">  1       21 0.35605557E-01 0.45374521E+03</pdfrwt>
<pdfrwt beam="2">  1       21 0.31262845E-01 0.45374521E+03</pdfrwt>
<totfact> 0.69258238E+04</totfact>
</mgrwt>
</event>
<event>
 7    0  0.4788920E-002  0.4585236E+03  0.7546771E-02  0.1025210E+00
         21   -1    0    0  502  501  0.00000000000E+00  0.00000000000E+00  0.21364451239E+03  0.21364451239E+03  0.00000000000E+00 0. -1.
         21   -1    0    0  501  502 -0.00000000000E+00 -0.00000000000E+00 -0.24602067662E+03  0.24602067662E+03  0.00000000000E+00 0. -1.
      99926    2    1    2    0    0 -0.71054273576E-14  0.00000000000E+00 -0.32376164228E+02  0.45966518900E+03  0.45852357625E+03 0.  0.
      99925    2    3    3    0    0  0.59076106121E+02  0.33412879466E+02 -0.11475848846E+03  0.29522443288E+03  0.26340377421E+03 0.  0.
         25    1    4    4    0    0  0.43698949732E+02  0.54837571909E+02 -0.71698773274E+02  0.16032772589E+03  0.12509000000E+03 0.  0.
         25    1    4    4    0    0  0.15377156389E+02 -0.21424692443E+02 -0.43059715185E+02  0.13489670699E+03  0.12509000000E+03 0.  0.
         25    1    3    3    0    0 -0.59076106121E+02 -0.33412879466E+02  0.82382324232E+02  0.16444075612E+03  0.12509000000E+03 0.  0.
<mgrwt>
<rscale>  2 0.45852358E+03</rscale>
<asrwt>0</asrwt>
<pdfrwt beam="1">  1       21 0.31418311E-01 0.45852358E+03</pdfrwt>
<pdfrwt beam="2">  1       21 0.36179511E-01 0.45852358E+03</pdfrwt>
<totfact> 0.66321162E+04</totfact>
</mgrwt>
</event>
<event>
 7    0  0.4788920E-002  0.4559702E+03  0.7546771E-02  0.1025956E+00
         21   -1    0    0  502  501  0.00000000000E+00  0.00000000000E+00  0.70592156510E+03  0.70592156510E+03  0.00000000000E+00 0.  1.
         21   -1    0    0  501  502 -0.00000000000E+00 -0.00000000000E+00 -0.73630272367E+02  0.73630272367E+02  0.00000000000E+00 0.  1.
      99926    2    1    2    0    0 -0.35527136788E-14  0.00000000000E+00  0.63229129273E+03  0.77955183747E+03  0.45597016178E+03 0.  0.
      99925    2    3    3    0    0  0.16360389809E+02  0.51436608397E+02  0.56933733297E+03  0.62947153833E+03  0.26301336815E+03 0.  0.
         25    1    3    3    0    0 -0.16360389809E+02 -0.51436608397E+02  0.62953959767E+02  0.15008029914E+03  0.12509000000E+03 0.  0.
         25    1    4    4    0    0 -0.28841068834E+02  0.24796838081E+02  0.31881048288E+03  0.34457847078E+03  0.12509000000E+03 0.  0.
         25    1    4    4    0    0  0.45201458643E+02  0.26639770316E+02  0.25052685009E+03  0.28489306755E+03  0.12509000000E+03 0.  0.
<mgrwt>
<rscale>  2 0.45597016E+03</rscale>
<asrwt>0</asrwt>
<pdfrwt beam="1">  1       21 0.10381199E+00 0.45597016E+03</pdfrwt>
<pdfrwt beam="2">  1       21 0.10827982E-01 0.45597016E+03</pdfrwt>
<totfact> 0.48400183E+04</totfact>
</mgrwt>
</event>
<event>
 7    0  0.4788920E-002  0.4496232E+03  0.7546771E-02  0.1027834E+00
         21   -1    0    0  502  501  0.00000000000E+00  0.00000000000E+00  0.55171622497E+02  0.55171622497E+02  0.00000000000E+00 0. -1.
         21   -1    0    0  501  502 -0.00000000000E+00 -0.00000000000E+00 -0.91605512007E+03  0.91605512007E+03  0.00000000000E+00 0. -1.
      99926    2    1    2    0    0  0.00000000000E+00  0.00000000000E+00 -0.86088349757E+03  0.97122674257E+03  0.44962316342E+03 0.  0.
      99925    2    3    3    0    0  0.50170355164E+02 -0.94703244735E+02 -0.56634033042E+03  0.63375236648E+03  0.26346711949E+03 0.  0.
         25    1    4    4    0    0  0.18844824723E+01 -0.10774688998E+02 -0.27246931758E+03  0.30001113700E+03  0.12509000000E+03 0.  0.
         25    1    3    3    0    0 -0.50170355164E+02  0.94703244735E+02 -0.29454316715E+03  0.33747437609E+03  0.12509000000E+03 0.  0.
         25    1    4    4    0    0  0.48285872692E+02 -0.83928555737E+02 -0.29387101284E+03  0.33374122948E+03  0.12509000000E+03 0.  0.
<mgrwt>
<rscale>  2 0.44962316E+03</rscale>
<asrwt>0</asrwt>
<pdfrwt beam="1">  1       21 0.81134749E-02 0.44962316E+03</pdfrwt>
<pdfrwt beam="2">  1       21 0.13471397E+00 0.44962316E+03</pdfrwt>
<totfact> 0.42032222E+04</totfact>
</mgrwt>
</event>
<event>
 7    0  0.4788920E-002  0.4556056E+03  0.7546771E-02  0.1026063E+00
         21   -1    0    0  502  501  0.00000000000E+00  0.00000000000E+00  0.12352938232E+04  0.12352938232E+04  0.00000000000E+00 0.  1.
         21   -1    0    0  501  502 -0.00000000000E+00 -0.00000000000E+00 -0.42009530600E+02  0.42009530600E+02  0.00000000000E+00 0.  1.
      99926    2    1    2    0    0  0.00000000000E+00  0.00000000000E+00  0.11932842926E+04  0.12773033538E+04  0.45560559113E+03 0.  0.
      99925    2    3    3    0    0  0.45952837280E+02  0.81594823235E+02  0.93129013250E+03  0.97224954468E+03  0.26305605450E+03 0.  0.
         25    1    4    4    0    0  0.12638644864E+02  0.34583104546E+02  0.58962008793E+03  0.60386677559E+03  0.12509000000E+03 0.  0.
         25    1    3    3    0    0 -0.45952837280E+02 -0.81594823235E+02  0.26199416011E+03  0.30505380913E+03  0.12509000000E+03 0.  0.
         25    1    4    4    0    0  0.33314192417E+02  0.47011718688E+02  0.34167004457E+03  0.36838276909E+03  0.12509000000E+03 0.  0.
<mgrwt>
<rscale>  2 0.45560559E+03</rscale>
<asrwt>0</asrwt>
<pdfrwt beam="1">  1       21 0.18166083E+00 0.45560559E+03</pdfrwt>
<pdfrwt beam="2">  1       21 0.61778729E-02 0.45560559E+03</pdfrwt>
<totfact> 0.29641169E+04</totfact>
</mgrwt>
</event>
<event>
 7    0  0.4788920E-002  0.4541972E+03  0.7546771E-02  0.1026478E+00
         21   -1    0    0  502  501  0.00000000000E+00  0.00000000000E+00  0.11242489860E+04  0.11242489860E+04  0.00000000000E+00 0.  1.
         21   -1    0    0  501  502 -0.00000000000E+00 -0.00000000000E+00 -0.45873979843E+02  0.45873979843E+02  0.00000000000E+00 0.  1.
      99926    2    1    2    0    0  0.00000000000E+00 -0.17763568394E-14  0.10783750062E+04  0.11701229659E+04  0.45419720529E+03 0.  0.
      99925    2    3    3    0    0 -0.34402017179E+01 -0.43859822261E+01  0.96873833622E+03  0.10036934633E+04  0.26251768009E+03 0.  0.
         25    1    4    4    0    0  0.80410302511E+01 -0.32278786579E+02  0.57789450296E+03  0.59221292023E+03  0.12509000000E+03 0.  0.
         25    1    4    4    0    0 -0.11481231969E+02  0.27892804353E+02  0.39084383326E+03  0.41148054306E+03  0.12509000000E+03 0.  0.
         25    1    3    3    0    0  0.34402017179E+01  0.43859822261E+01  0.10963666996E+03  0.16642950257E+03  0.12509000000E+03 0.  0.
<mgrwt>
<rscale>  2 0.45419721E+03</rscale>
<asrwt>0</asrwt>
<pdfrwt beam="1">  1       21 0.16533072E+00 0.45419721E+03</pdfrwt>
<pdfrwt beam="2">  1       21 0.67461742E-02 0.45419721E+03</pdfrwt>
<totfact> 0.33325547E+04</totfact>
</mgrwt>
</event>
<event>
 7    0  0.4788920E-002  0.4540636E+03  0.7546771E-02  0.1026517E+00
         21   -1    0    0  502  501  0.00000000000E+00  0.00000000000E+00  0.50307495065E+03  0.50307495065E+03  0.00000000000E+00 0.  1.
         21   -1    0    0  501  502 -0.00000000000E+00 -0.00000000000E+00 -0.10245677190E+03  0.10245677190E+03  0.00000000000E+00 0.  1.
      99926    2    1    2    0    0  0.00000000000E+00  0.00000000000E+00  0.40061817875E+03  0.60553172255E+03  0.45406358792E+03 0.  0.
      99925    2    3    3    0    0 -0.58409741143E+02  0.95730484351E+02  0.24729028398E+03  0.37808288235E+03  0.26309343945E+03 0.  0.
         25    1    4    4    0    0 -0.61525181128E+02  0.25662604127E+02  0.13741803621E+03  0.19742122971E+03  0.12509000000E+03 0.  0.
         25    1    3    3    0    0  0.58409741143E+02 -0.95730484351E+02  0.15332789477E+03  0.22744884020E+03  0.12509000000E+03 0.  0.
         25    1    4    4    0    0  0.31154399847E+01  0.70067880224E+02  0.10987224777E+03  0.18066165264E+03  0.12509000000E+03 0.  0.
<mgrwt>
<rscale>  2 0.45406359E+03</rscale>
<asrwt>0</asrwt>
<pdfrwt beam="1">  1       21 0.73981609E-01 0.45406359E+03</pdfrwt>
<pdfrwt beam="2">  1       21 0.15067173E-01 0.45406359E+03</pdfrwt>
<totfact> 0.58772634E+04</totfact>
</mgrwt>
</event>
<event>
 7    0  0.4788920E-002  0.4585666E+03  0.7546771E-02  0.1025198E+00
         21   -1    0    0  502  501  0.00000000000E+00  0.00000000000E+00  0.31015340676E+03  0.31015340676E+03  0.00000000000E+00 0. -1.
         21   -1    0    0  501  502 -0.00000000000E+00 -0.00000000000E+00 -0.16949944355E+03  0.16949944355E+03  0.00000000000E+00 0. -1.
      99926    2    1    2    0    0  0.00000000000E+00  0.71054273576E-14  0.14065396321E+03  0.47965285031E+03  0.45856659215E+03 0.  0.
      99925    2    3    3    0    0  0.65311295425E+02 -0.60797700935E+02  0.98921717707E+01  0.27789041587E+03  0.26298916787E+03 0.  0.
         25    1    4    4    0    0  0.39276239984E+02 -0.67435682407E+02 -0.12642326751E+02  0.14797814303E+03  0.12509000000E+03 0.  0.
         25    1    3    3    0    0 -0.65311295425E+02  0.60797700935E+02  0.13076179144E+03  0.20176243444E+03  0.12509000000E+03 0.  0.
         25    1    4    4    0    0  0.26035055441E+02  0.66379814716E+01  0.22534498522E+02  0.12991227284E+03  0.12509000000E+03 0.  0.
<mgrwt>
<rscale>  2 0.45856659E+03</rscale>
<asrwt>0</asrwt>
<pdfrwt beam="1">  1       21 0.45610795E-01 0.45856659E+03</pdfrwt>
<pdfrwt beam="2">  1       21 0.24926389E-01 0.45856659E+03</pdfrwt>
<totfact> 0.64869564E+04</totfact>
</mgrwt>
</event>
<event>
 7    0  0.4788920E-002  0.4542695E+03  0.7546771E-02  0.1026456E+00
         21   -1    0    0  502  501  0.00000000000E+00  0.00000000000E+00  0.11556955224E+03  0.11556955224E+03  0.00000000000E+00 0. -1.
         21   -1    0    0  501  502 -0.00000000000E+00 -0.00000000000E+00 -0.44639953818E+03  0.44639953818E+03  0.00000000000E+00 0. -1.
      99926    2    1    2    0    0  0.00000000000E+00  0.00000000000E+00 -0.33082998595E+03  0.56196909042E+03  0.45426950039E+03 0.  0.
      99925    2    3    3    0    0 -0.41820434093E+02 -0.86741542940E+02 -0.28031799656E+03  0.39622225591E+03  0.26294648296E+03 0.  0.
         25    1    3    3    0    0  0.41820434093E+02  0.86741542940E+02 -0.50511989382E+02  0.16574683451E+03  0.12509000000E+03 0.  0.
         25    1    4    4    0    0 -0.21299138179E+02 -0.82139382049E+02 -0.17592255019E+03  0.23194133555E+03  0.12509000000E+03 0.  0.
         25    1    4    4    0    0 -0.20521295914E+02 -0.46021608906E+01 -0.10439544637E+03  0.16428092036E+03  0.12509000000E+03 0.  0.
<mgrwt>
<rscale>  2 0.45426950E+03</rscale>
<asrwt>0</asrwt>
<pdfrwt beam="1">  1       21 0.16995523E-01 0.45426950E+03</pdfrwt>
<pdfrwt beam="2">  1       21 0.65646990E-01 0.45426950E+03</pdfrwt>
<totfact> 0.61436650E+04</totfact>
</mgrwt>
</event>
<event>
 7    0  0.4788920E-002  0.4535160E+03  0.7546771E-02  0.1026679E+00
         21   -1    0    0  502  501  0.00000000000E+00  0.00000000000E+00  0.11859826205E+04  0.11859826205E+04  0.00000000000E+00 0.  1.
         21   -1    0    0  501  502 -0.00000000000E+00 -0.00000000000E+00 -0.43355776950E+02  0.43355776950E+02  0.00000000000E+00 0.  1.
      99926    2    1    2    0    0  0.00000000000E+00  0.00000000000E+00  0.11426268435E+04  0.12293383974E+04  0.45351603262E+03 0.  0.
      99925    2    3    3    0    0  0.64183650049E+02  0.83407805319E+02  0.61739649468E+03  0.67925583056E+03  0.26293278378E+03 0.  0.
         25    1    3    3    0    0 -0.64183650049E+02 -0.83407805319E+02  0.52523034884E+03  0.55008256686E+03  0.12509000000E+03 0.  0.
         25    1    4    4    0    0  0.31016014086E+02  0.23212120847E+02  0.38360310997E+03  0.40533893196E+03  0.12509000000E+03 0.  0.
         25    1    4    4    0    0  0.33167635964E+02  0.60195684473E+02  0.23379338471E+03  0.27391689860E+03  0.12509000000E+03 0.  0.
<mgrwt>
<rscale>  2 0.45351603E+03</rscale>
<asrwt>0</asrwt>
<pdfrwt beam="1">  1       21 0.17440919E+00 0.45351603E+03</pdfrwt>
<pdfrwt beam="2">  1       21 0.63758503E-02 0.45351603E+03</pdfrwt>
<totfact> 0.31601428E+04</totfact>
</mgrwt>
</event>
<event>
 7    0  0.4788920E-002  0.4617472E+03  0.7546771E-02  0.1024276E+00
         21   -1    0    0  502  501  0.00000000000E+00  0.00000000000E+00  0.89618167692E+02  0.89618167692E+02  0.00000000000E+00 0.  1.
         21   -1    0    0  501  502 -0.00000000000E+00 -0.00000000000E+00 -0.59477471369E+03  0.59477471369E+03  0.00000000000E+00 0.  1.
      99926    2    1    2    0    0  0.00000000000E+00  0.00000000000E+00 -0.50515654600E+03  0.68439288138E+03  0.46174720370E+03 0.  0.
      99925    2    3    3    0    0 -0.96380502131E+02 -0.57068775215E+02 -0.25468500488E+03  0.38284761562E+03  0.26298630911E+03 0.  0.
         25    1    4    4    0    0 -0.47300823393E+02 -0.25109842502E+01 -0.80195373741E+02  0.15595665746E+03  0.12509000000E+03 0.  0.
         25    1    4    4    0    0 -0.49079678738E+02 -0.54557790965E+02 -0.17448963114E+03  0.22689095816E+03  0.12509000000E+03 0.  0.
         25    1    3    3    0    0  0.96380502131E+02  0.57068775215E+02 -0.25047154112E+03  0.30154526576E+03  0.12509000000E+03 0.  0.
<mgrwt>
<rscale>  2 0.46174720E+03</rscale>
<asrwt>0</asrwt>
<pdfrwt beam="1">  1       21 0.13179143E-01 0.46174720E+03</pdfrwt>
<pdfrwt beam="2">  1       21 0.87466867E-01 0.46174720E+03</pdfrwt>
<totfact> 0.50993961E+04</totfact>
</mgrwt>
</event>
<event>
 7    0  0.4788920E-002  0.4530839E+03  0.7546771E-02  0.1026806E+00
         21   -1    0    0  502  501  0.00000000000E+00  0.00000000000E+00  0.43707416445E+03  0.43707416445E+03  0.00000000000E+00 0. -1.
         21   -1    0    0  501  502 -0.00000000000E+00 -0.00000000000E+00 -0.11742002823E+03  0.11742002823E+03  0.00000000000E+00 0. -1.
      99926    2    1    2    0    0  0.00000000000E+00  0.00000000000E+00  0.31965413623E+03  0.55449419268E+03  0.45308392480E+03 0.  0.
      99925    2    3    3    0    0 -0.96592313746E+02 -0.10342164014E+02  0.26823441903E+03  0.38797533234E+03  0.26294128532E+03 0.  0.
         25    1    4    4    0    0 -0.55418604642E+02 -0.29806756348E+02  0.18089974652E+03  0.22876164638E+03  0.12509000000E+03 0.  0.
         25    1    4    4    0    0 -0.41173709104E+02  0.19464592334E+02  0.87334672509E+02  0.15921368596E+03  0.12509000000E+03 0.  0.
         25    1    3    3    0    0  0.96592313746E+02  0.10342164014E+02  0.51419717200E+02  0.16651886034E+03  0.12509000000E+03 0.  0.
<mgrwt>
<rscale>  2 0.45308392E+03</rscale>
<asrwt>0</asrwt>
<pdfrwt beam="1">  1       21 0.64275612E-01 0.45308392E+03</pdfrwt>
<pdfrwt beam="2">  1       21 0.17267651E-01 0.45308392E+03</pdfrwt>
<totfact> 0.62512699E+04</totfact>
</mgrwt>
</event>
<event>
 7    0  0.4788920E-002  0.4522828E+03  0.7546771E-02  0.1027043E+00
         21   -1    0    0  502  501  0.00000000000E+00  0.00000000000E+00  0.22802276518E+03  0.22802276518E+03  0.00000000000E+00 0. -1.
         21   -1    0    0  501  502 -0.00000000000E+00 -0.00000000000E+00 -0.22427551879E+03  0.22427551879E+03  0.00000000000E+00 0. -1.
      99926    2    1    2    0    0  0.00000000000E+00  0.17763568394E-14  0.37472463877E+01  0.45229828397E+03  0.45228276092E+03 0.  0.
      99925    2    3    3    0    0  0.87915726361E+02  0.12125172009E+02  0.68342920887E+02  0.28587621812E+03  0.26301760875E+03 0.  0.
         25    1    4    4    0    0  0.31154177199E+02 -0.20557360914E+02  0.37264526303E+01  0.13059319429E+03  0.12509000000E+03 0.  0.
         25    1    3    3    0    0 -0.87915726361E+02 -0.12125172009E+02 -0.64595674499E+02  0.16642206585E+03  0.12509000000E+03 0.  0.
         25    1    4    4    0    0  0.56761549162E+02  0.32682532923E+02  0.64616468257E+02  0.15528302384E+03  0.12509000000E+03 0.  0.
<mgrwt>
<rscale>  2 0.45228276E+03</rscale>
<asrwt>0</asrwt>
<pdfrwt beam="1">  1       21 0.33532760E-01 0.45228276E+03</pdfrwt>
<pdfrwt beam="2">  1       21 0.32981694E-01 0.45228276E+03</pdfrwt>
<totfact> 0.70255041E+04</totfact>
</mgrwt>
</event>
<event>
 7    0  0.4788920E-002  0.4201123E+03  0.7546771E-02  0.1037030E+00
         21   -1    0    0  502  501  0.00000000000E+00  0.00000000000E+00  0.20760444355E+04  0.20760444355E+04  0.00000000000E+00 0. -1.
         21   -1    0    0  501  502 -0.00000000000E+00 -0.00000000000E+00 -0.21253680879E+02  0.21253680879E+02  0.00000000000E+00 0. -1.
      99926    2    1    2    0    0 -0.35527136788E-14  0.00000000000E+00  0.20547907546E+04  0.20972981164E+04  0.42011229891E+03 0.  0.
      99925    2    3    3    0    0  0.22187030148E+02 -0.53419237829E+02  0.10951274403E+04  0.11277894448E+04  0.26317112697E+03 0.  0.
         25    1    3    3    0    0 -0.22187030148E+02  0.53419237829E+02  0.95966331434E+03  0.96950867158E+03  0.12509000000E+03 0.  0.
         25    1    4    4    0    0  0.50410613844E+02 -0.21510856163E+02  0.59823232009E+03  0.61362314479E+03  0.12509000000E+03 0.  0.
         25    1    4    4    0    0 -0.28223583697E+02 -0.31908381666E+02  0.49689512020E+03  0.51416630002E+03  0.12509000000E+03 0.  0.
<mgrwt>
<rscale>  2 0.42011230E+03</rscale>
<asrwt>0</asrwt>
<pdfrwt beam="1">  1       21 0.30530051E+00 0.42011230E+03</pdfrwt>
<pdfrwt beam="2">  1       21 0.31255427E-02 0.42011230E+03</pdfrwt>
<totfact> 0.16133477E+04</totfact>
</mgrwt>
</event>
<event>
 7    0  0.4788920E-002  0.4534449E+03  0.7546771E-02  0.1026700E+00
         21   -1    0    0  502  501  0.00000000000E+00  0.00000000000E+00  0.11066433848E+03  0.11066433848E+03  0.00000000000E+00 0.  1.
         21   -1    0    0  501  502 -0.00000000000E+00 -0.00000000000E+00 -0.46449532012E+03  0.46449532012E+03  0.00000000000E+00 0.  1.
      99926    2    1    2    0    0  0.71054273576E-14  0.00000000000E+00 -0.35383098164E+03  0.57515965860E+03  0.45344489115E+03 0.  0.
      99925    2    3    3    0    0  0.54253408904E+02 -0.73690371404E+02 -0.14172950616E+03  0.31246545003E+03  0.26300893774E+03 0.  0.
         25    1    3    3    0    0 -0.54253408904E+02  0.73690371404E+02 -0.21210147548E+03  0.26269420857E+03  0.12509000000E+03 0.  0.
         25    1    4    4    0    0  0.21378478651E+02 -0.11238085307E+02 -0.10267314147E+03  0.16362339683E+03  0.12509000000E+03 0.  0.
         25    1    4    4    0    0  0.32874930253E+02 -0.62452286097E+02 -0.39056364695E+02  0.14884205320E+03  0.12509000000E+03 0.  0.
<mgrwt>
<rscale>  2 0.45344489E+03</rscale>
<asrwt>0</asrwt>
<pdfrwt beam="1">  1       21 0.16274168E-01 0.45344489E+03</pdfrwt>
<pdfrwt beam="2">  1       21 0.68308135E-01 0.45344489E+03</pdfrwt>
<totfact> 0.60980263E+04</totfact>
</mgrwt>
</event>
<event>
 7    0  0.4788920E-002  0.4366513E+03  0.7546771E-02  0.1031779E+00
         21   -1    0    0  502  501  0.00000000000E+00  0.00000000000E+00  0.50108863752E+03  0.50108863752E+03  0.00000000000E+00 0. -1.
         21   -1    0    0  501  502 -0.00000000000E+00 -0.00000000000E+00 -0.95125080382E+02  0.95125080382E+02  0.00000000000E+00 0. -1.
      99926    2    1    2    0    0  0.00000000000E+00  0.00000000000E+00  0.40596355714E+03  0.59621371790E+03  0.43665133424E+03 0.  0.
      99925    2    3    3    0    0  0.69194781512E+02 -0.28749155131E+01  0.17109938063E+03  0.32125031591E+03  0.26292695657E+03 0.  0.
         25    1    3    3    0    0 -0.69194781512E+02  0.28749155131E+01  0.23486417650E+03  0.27496340199E+03  0.12509000000E+03 0.  0.
         25    1    4    4    0    0  0.51955954077E+02 -0.38194265535E+02  0.85715139002E+02  0.16478111615E+03  0.12509000000E+03 0.  0.
         25    1    4    4    0    0  0.17238827435E+02  0.35319350022E+02  0.85384241631E+02  0.15646919977E+03  0.12509000000E+03 0.  0.
<mgrwt>
<rscale>  2 0.43665133E+03</rscale>
<asrwt>0</asrwt>
<pdfrwt beam="1">  1       21 0.73689504E-01 0.43665133E+03</pdfrwt>
<pdfrwt beam="2">  1       21 0.13988983E-01 0.43665133E+03</pdfrwt>
<totfact> 0.68286672E+04</totfact>
</mgrwt>
</event>
<event>
 7    0  0.4788920E-002  0.4544948E+03  0.7546771E-02  0.1026390E+00
         21   -1    0    0  502  501  0.00000000000E+00  0.00000000000E+00  0.24712919092E+04  0.24712919092E+04  0.00000000000E+00 0. -1.
         21   -1    0    0  501  502 -0.00000000000E+00 -0.00000000000E+00 -0.20896512936E+02  0.20896512936E+02  0.00000000000E+00 0. -1.
      99926    2    1    2    0    0  0.00000000000E+00  0.71054273576E-14  0.24503953963E+04  0.24921884222E+04  0.45449481119E+03 0.  0.
      99925    2    3    3    0    0  0.84807428999E+02  0.63063310086E+02  0.13262167089E+04  0.13561450646E+04  0.26288666008E+03 0.  0.
         25    1    4    4    0    0  0.16860654607E+02  0.21716011251E+02  0.46743609215E+03  0.48466470386E+03  0.12509000000E+03 0.  0.
         25    1    3    3    0    0 -0.84807428999E+02 -0.63063310086E+02  0.11241786874E+04  0.11360433576E+04  0.12509000000E+03 0.  0.
         25    1    4    4    0    0  0.67946774392E+02  0.41347298835E+02  0.85878061677E+03  0.87148036072E+03  0.12509000000E+03 0.  0.
<mgrwt>
<rscale>  2 0.45449481E+03</rscale>
<asrwt>0</asrwt>
<pdfrwt beam="1">  1       21 0.36342508E+00 0.45449481E+03</pdfrwt>
<pdfrwt beam="2">  1       21 0.30730183E-02 0.45449481E+03</pdfrwt>
<totfact> 0.72404463E+03</totfact>
</mgrwt>
</event>
<event>
 7    0  0.4788920E-002  0.4546213E+03  0.7546771E-02  0.1026353E+00
         21   -1    0    0  502  501  0.00000000000E+00  0.00000000000E+00  0.31566539186E+03  0.31566539186E+03  0.00000000000E+00 0. -1.
         21   -1    0    0  501  502 -0.00000000000E+00 -0.00000000000E+00 -0.16368637135E+03  0.16368637135E+03  0.00000000000E+00 0. -1.
      99926    2    1    2    0    0  0.00000000000E+00  0.00000000000E+00  0.15197902050E+03  0.47935176321E+03  0.45462126019E+03 0.  0.
      99925    2    3    3    0    0 -0.10722378672E+03  0.32085389677E+02  0.11136907203E+03  0.30665813656E+03  0.26288729495E+03 0.  0.
         25    1    4    4    0    0 -0.86585782154E+02  0.19568357750E+02  0.88922154255E+02  0.17729826822E+03  0.12509000000E+03 0.  0.
         25    1    3    3    0    0  0.10722378672E+03 -0.32085389677E+02  0.40609948474E+02  0.17269362665E+03  0.12509000000E+03 0.  0.
         25    1    4    4    0    0 -0.20638004564E+02  0.12517031928E+02  0.22446917771E+02  0.12935986834E+03  0.12509000000E+03 0.  0.
<mgrwt>
<rscale>  2 0.45462126E+03</rscale>
<asrwt>0</asrwt>
<pdfrwt beam="1">  1       21 0.46421381E-01 0.45462126E+03</pdfrwt>
<pdfrwt beam="2">  1       21 0.24071525E-01 0.45462126E+03</pdfrwt>
<totfact> 0.66948346E+04</totfact>
</mgrwt>
</event>
<event>
 7    0  0.4788920E-002  0.4554046E+03  0.7546771E-02  0.1026122E+00
         21   -1    0    0  502  501  0.00000000000E+00  0.00000000000E+00  0.27626017663E+03  0.27626017663E+03  0.00000000000E+00 0. -1.
         21   -1    0    0  501  502 -0.00000000000E+00 -0.00000000000E+00 -0.18767940500E+03  0.18767940500E+03  0.00000000000E+00 0. -1.
      99926    2    1    2    0    0  0.00000000000E+00  0.00000000000E+00  0.88580771626E+02  0.46393958163E+03  0.45540463579E+03 0.  0.
      99925    2    3    3    0    0  0.30397469265E+02  0.88420597240E+02 -0.10000809713E+02  0.27925594826E+03  0.26294801823E+03 0.  0.
         25    1    4    4    0    0  0.25670750988E+02  0.80311572343E+01 -0.22693669340E+02  0.12994613373E+03  0.12509000000E+03 0.  0.
         25    1    4    4    0    0  0.47267182774E+01  0.80389440006E+02  0.12692859628E+02  0.14930981453E+03  0.12509000000E+03 0.  0.
         25    1    3    3    0    0 -0.30397469265E+02 -0.88420597240E+02  0.98581581339E+02  0.18468363337E+03  0.12509000000E+03 0.  0.
<mgrwt>
<rscale>  2 0.45540464E+03</rscale>
<asrwt>0</asrwt>
<pdfrwt beam="1">  1       21 0.40626497E-01 0.45540464E+03</pdfrwt>
<pdfrwt beam="2">  1       21 0.27599912E-01 0.45540464E+03</pdfrwt>
<totfact> 0.67671059E+04</totfact>
</mgrwt>
</event>
<event>
 7    0  0.4788920E-002  0.4516495E+03  0.7546771E-02  0.1027231E+00
         21   -1    0    0  502  501  0.00000000000E+00  0.00000000000E+00  0.25552555795E+03  0.25552555795E+03  0.00000000000E+00 0. -1.
         21   -1    0    0  501  502 -0.00000000000E+00 -0.00000000000E+00 -0.19957620077E+03  0.19957620077E+03  0.00000000000E+00 0. -1.
      99926    2    1    2    0    0  0.71054273576E-14  0.35527136788E-14  0.55949357179E+02  0.45510175872E+03  0.45164951037E+03 0.  0.
      99925    2    3    3    0    0  0.63379728024E+02 -0.17155642129E+02  0.12424043578E+03  0.29818622253E+03  0.26299815863E+03 0.  0.
         25    1    4    4    0    0  0.28264207168E+02  0.30566411704E+02  0.72219780458E+02  0.15032090913E+03  0.12509000000E+03 0.  0.
         25    1    4    4    0    0  0.35115520856E+02 -0.47722053833E+02  0.52020655320E+02  0.14786531340E+03  0.12509000000E+03 0.  0.
         25    1    3    3    0    0 -0.63379728024E+02  0.17155642129E+02 -0.68291078598E+02  0.15691553619E+03  0.12509000000E+03 0.  0.
<mgrwt>
<rscale>  2 0.45164951E+03</rscale>
<asrwt>0</asrwt>
<pdfrwt beam="1">  1       21 0.37577288E-01 0.45164951E+03</pdfrwt>
<pdfrwt beam="2">  1       21 0.29349441E-01 0.45164951E+03</pdfrwt>
<totfact> 0.70401375E+04</totfact>
</mgrwt>
</event>
<event>
 7    0  0.4788920E-002  0.4598816E+03  0.7546771E-02  0.1024816E+00
         21   -1    0    0  502  501  0.00000000000E+00  0.00000000000E+00  0.54446285437E+02  0.54446285437E+02  0.00000000000E+00 0.  1.
         21   -1    0    0  501  502 -0.00000000000E+00 -0.00000000000E+00 -0.97109990234E+03  0.97109990234E+03  0.00000000000E+00 0.  1.
      99926    2    1    2    0    0  0.00000000000E+00  0.00000000000E+00 -0.91665361690E+03  0.10255461878E+04  0.45988164769E+03 0.  0.
      99925    2    3    3    0    0  0.78909362413E+02 -0.86577937458E+02 -0.55031200854E+03  0.62110075407E+03  0.26305971419E+03 0.  0.
         25    1    3    3    0    0 -0.78909362413E+02  0.86577937458E+02 -0.36634160836E+03  0.40444543370E+03  0.12509000000E+03 0.  0.
         25    1    4    4    0    0  0.76843539937E+02 -0.34359877720E+02 -0.32246544844E+03  0.35597331973E+03  0.12509000000E+03 0.  0.
         25    1    4    4    0    0  0.20658224762E+01 -0.52218059738E+02 -0.22784656011E+03  0.26512743434E+03  0.12509000000E+03 0.  0.
<mgrwt>
<rscale>  2 0.45988165E+03</rscale>
<asrwt>0</asrwt>
<pdfrwt beam="1">  1       21 0.80068067E-02 0.45988165E+03</pdfrwt>
<pdfrwt beam="2">  1       21 0.14280881E+00 0.45988165E+03</pdfrwt>
<totfact> 0.36766283E+04</totfact>
</mgrwt>
</event>
<event>
 7    0  0.4788920E-002  0.4575638E+03  0.7546771E-02  0.1025490E+00
         21   -1    0    0  502  501  0.00000000000E+00  0.00000000000E+00  0.87878221914E+03  0.87878221914E+03  0.00000000000E+00 0. -1.
         21   -1    0    0  501  502 -0.00000000000E+00 -0.00000000000E+00 -0.59561014383E+02  0.59561014383E+02  0.00000000000E+00 0. -1.
      99926    2    1    2    0    0  0.00000000000E+00  0.00000000000E+00  0.81922120476E+03  0.93834323353E+03  0.45756381148E+03 0.  0.
      99925    2    3    3    0    0  0.49867780837E+02 -0.16972773700E+02  0.72534029415E+03  0.77330989117E+03  0.26289689015E+03 0.  0.
         25    1    3    3    0    0 -0.49867780837E+02  0.16972773700E+02  0.93880910609E+02  0.16503334236E+03  0.12509000000E+03 0.  0.
         25    1    4    4    0    0  0.62463430558E+02  0.71206559940E+01  0.39006738069E+03  0.41443027577E+03  0.12509000000E+03 0.  0.
         25    1    4    4    0    0 -0.12595649721E+02 -0.24093429694E+02  0.33527291346E+03  0.35887961540E+03  0.12509000000E+03 0.  0.
<mgrwt>
<rscale>  2 0.45756381E+03</rscale>
<asrwt>0</asrwt>
<pdfrwt beam="1">  1       21 0.12923267E+00 0.45756381E+03</pdfrwt>
<pdfrwt beam="2">  1       21 0.87589732E-02 0.45756381E+03</pdfrwt>
<totfact> 0.40792364E+04</totfact>
</mgrwt>
</event>
<event>
 7    0  0.4788920E-002  0.4580527E+03  0.7546771E-02  0.1025347E+00
         21   -1    0    0  502  501  0.00000000000E+00  0.00000000000E+00  0.21606148023E+03  0.21606148023E+03  0.00000000000E+00 0. -1.
         21   -1    0    0  501  502 -0.00000000000E+00 -0.00000000000E+00 -0.24276921761E+03  0.24276921761E+03  0.00000000000E+00 0. -1.
      99926    2    1    2    0    0  0.00000000000E+00  0.14210854715E-13 -0.26707737378E+02  0.45883069784E+03  0.45805273282E+03 0.  0.
      99925    2    3    3    0    0  0.16597483159E+02  0.11482204491E+03 -0.16628143848E+02  0.28792521299E+03  0.26299211902E+03 0.  0.
         25    1    4    4    0    0  0.31001770741E+02  0.21410823725E+02 -0.93158500368E+01  0.13097261669E+03  0.12509000000E+03 0.  0.
         25    1    4    4    0    0 -0.14404287582E+02  0.93411221187E+02 -0.73122938111E+01  0.15695259630E+03  0.12509000000E+03 0.  0.
         25    1    3    3    0    0 -0.16597483159E+02 -0.11482204491E+03 -0.10079593530E+02  0.17090548485E+03  0.12509000000E+03 0.  0.
<mgrwt>
<rscale>  2 0.45805273E+03</rscale>
<asrwt>0</asrwt>
<pdfrwt beam="1">  1       21 0.31773747E-01 0.45805273E+03</pdfrwt>
<pdfrwt beam="2">  1       21 0.35701355E-01 0.45805273E+03</pdfrwt>
<totfact> 0.66628367E+04</totfact>
</mgrwt>
</event>
<event>
 7    0  0.4788920E-002  0.4562741E+03  0.7546771E-02  0.1025867E+00
         21   -1    0    0  502  501  0.00000000000E+00  0.00000000000E+00  0.13657952785E+03  0.13657952785E+03  0.00000000000E+00 0.  1.
         21   -1    0    0  501  502 -0.00000000000E+00 -0.00000000000E+00 -0.38107110040E+03  0.38107110040E+03  0.00000000000E+00 0.  1.
      99926    2    1    2    0    0 -0.14210854715E-13 -0.71054273576E-14 -0.24449157256E+03  0.51765062825E+03  0.45627408854E+03 0.  0.
      99925    2    3    3    0    0  0.70058930666E+02  0.56238875423E+02 -0.23392654113E+03  0.36328031742E+03  0.26302071688E+03 0.  0.
         25    1    4    4    0    0 -0.65746741167E+01  0.31493548793E+02 -0.11020166570E+03  0.16978511471E+03  0.12509000000E+03 0.  0.
         25    1    4    4    0    0  0.76633604783E+02  0.24745326629E+02 -0.12372487543E+03  0.19349520271E+03  0.12509000000E+03 0.  0.
         25    1    3    3    0    0 -0.70058930666E+02 -0.56238875423E+02 -0.10565031427E+02  0.15437031082E+03  0.12509000000E+03 0.  0.
<mgrwt>
<rscale>  2 0.45627409E+03</rscale>
<asrwt>0</asrwt>
<pdfrwt beam="1">  1       21 0.20085225E-01 0.45627409E+03</pdfrwt>
<pdfrwt beam="2">  1       21 0.56039867E-01 0.45627409E+03</pdfrwt>
<totfact> 0.63404216E+04</totfact>
</mgrwt>
</event>
<event>
 7    0  0.4788920E-002  0.4562992E+03  0.7546771E-02  0.1025860E+00
         21   -1    0    0  502  501  0.00000000000E+00  0.00000000000E+00  0.29615959931E+03  0.29615959931E+03  0.00000000000E+00 0. -1.
         21   -1    0    0  501  502 -0.00000000000E+00 -0.00000000000E+00 -0.17575743338E+03  0.17575743338E+03  0.00000000000E+00 0. -1.
      99926    2    1    2    0    0  0.00000000000E+00  0.35527136788E-14  0.12040216593E+03  0.47191703269E+03  0.45629924850E+03 0.  0.
      99925    2    3    3    0    0  0.30556128810E+02 -0.21269333992E+02 -0.36133264872E+02  0.26811097102E+03  0.26304337736E+03 0.  0.
         25    1    4    4    0    0 -0.24615393149E+02 -0.19113440838E+02 -0.15986434296E+02  0.12990117545E+03  0.12509000000E+03 0.  0.
         25    1    3    3    0    0 -0.30556128810E+02  0.21269333992E+02  0.15653543080E+03  0.20380606167E+03  0.12509000000E+03 0.  0.
         25    1    4    4    0    0  0.55171521959E+02 -0.21558931543E+01 -0.20146830575E+02  0.13820979557E+03  0.12509000000E+03 0.  0.
<mgrwt>
<rscale>  2 0.45629925E+03</rscale>
<asrwt>0</asrwt>
<pdfrwt beam="1">  1       21 0.43552882E-01 0.45629925E+03</pdfrwt>
<pdfrwt beam="2">  1       21 0.25846681E-01 0.45629925E+03</pdfrwt>
<totfact> 0.66604233E+04</totfact>
</mgrwt>
</event>
<event>
 7    0  0.4788920E-002  0.4563332E+03  0.7546771E-02  0.1025850E+00
         21   -1    0    0  502  501  0.00000000000E+00  0.00000000000E+00  0.39512413158E+02  0.39512413158E+02  0.00000000000E+00 0. -1.
         21   -1    0    0  501  502 -0.00000000000E+00 -0.00000000000E+00 -0.13175607251E+04  0.13175607251E+04  0.00000000000E+00 0. -1.
      99926    2    1    2    0    0  0.00000000000E+00 -0.14210854715E-13 -0.12780483119E+04  0.13570731382E+04  0.45633322794E+03 0.  0.
      99925    2    3    3    0    0  0.68035645436E+02 -0.92128641645E+02 -0.80885236660E+03  0.85816545252E+03  0.26284835416E+03 0.  0.
         25    1    3    3    0    0 -0.68035645436E+02  0.92128641645E+02 -0.46919594532E+03  0.49890768572E+03  0.12509000000E+03 0.  0.
         25    1    4    4    0    0 -0.50493413090E+01 -0.46582051634E+02 -0.33845517948E+03  0.36386096245E+03  0.12509000000E+03 0.  0.
         25    1    4    4    0    0  0.73084986745E+02 -0.45546590010E+02 -0.47039718712E+03  0.49430449007E+03  0.12509000000E+03 0.  0.
<mgrwt>
<rscale>  2 0.45633323E+03</rscale>
<asrwt>0</asrwt>
<pdfrwt beam="1">  1       21 0.58106486E-02 0.45633323E+03</pdfrwt>
<pdfrwt beam="2">  1       21 0.19375894E+00 0.45633323E+03</pdfrwt>
<totfact> 0.27215588E+04</totfact>
</mgrwt>
</event>
<event>
 7    0  0.4788920E-002  0.4553362E+03  0.7546771E-02  0.1026143E+00
         21   -1    0    0  502  501  0.00000000000E+00  0.00000000000E+00  0.50151087639E+03  0.50151087639E+03  0.00000000000E+00 0.  1.
         21   -1    0    0  501  502 -0.00000000000E+00 -0.00000000000E+00 -0.10335320506E+03  0.10335320506E+03  0.00000000000E+00 0.  1.
      99926    2    1    2    0    0  0.00000000000E+00  0.00000000000E+00  0.39815767133E+03  0.60486408145E+03  0.45533616788E+03 0.  0.
      99925    2    3    3    0    0  0.99958820493E+02  0.42764587027E+02  0.29294989329E+03  0.40855626102E+03  0.26320714798E+03 0.  0.
         25    1    4    4    0    0  0.43934932796E+02 -0.14767462968E+02  0.11053426511E+03  0.17324459052E+03  0.12509000000E+03 0.  0.
         25    1    4    4    0    0  0.56023887697E+02  0.57532049995E+02  0.18241562818E+03  0.23531167050E+03  0.12509000000E+03 0.  0.
         25    1    3    3    0    0 -0.99958820493E+02 -0.42764587027E+02  0.10520777805E+03  0.19630782042E+03  0.12509000000E+03 0.  0.
<mgrwt>
<rscale>  2 0.45533617E+03</rscale>
<asrwt>0</asrwt>
<pdfrwt beam="1">  1       21 0.73751598E-01 0.45533617E+03</pdfrwt>
<pdfrwt beam="2">  1       21 0.15199001E-01 0.45533617E+03</pdfrwt>
<totfact> 0.58225080E+04</totfact>
</mgrwt>
</event>
<event>
 7    0  0.4788920E-002  0.4559912E+03  0.7546771E-02  0.1025950E+00
         21   -1    0    0  502  501  0.00000000000E+00  0.00000000000E+00  0.11361626850E+03  0.11361626850E+03  0.00000000000E+00 0. -1.
         21   -1    0    0  501  502 -0.00000000000E+00 -0.00000000000E+00 -0.45752247227E+03  0.45752247227E+03  0.00000000000E+00 0. -1.
      99926    2    1    2    0    0  0.00000000000E+00  0.00000000000E+00 -0.34390620377E+03  0.57113874077E+03  0.45599121068E+03 0.  0.
      99925    2    3    3    0    0  0.69012426542E+02 -0.87100112199E+02 -0.24946125029E+03  0.37900206572E+03  0.26279746167E+03 0.  0.
         25    1    4    4    0    0  0.68348754782E+01 -0.98655167304E+01 -0.10665229178E+03  0.16482191415E+03  0.12509000000E+03 0.  0.
         25    1    4    4    0    0  0.62177551064E+02 -0.77234595468E+02 -0.14280895851E+03  0.21418015156E+03  0.12509000000E+03 0.  0.
         25    1    3    3    0    0 -0.69012426542E+02  0.87100112199E+02 -0.94444953480E+02  0.19213667505E+03  0.12509000000E+03 0.  0.
<mgrwt>
<rscale>  2 0.45599121E+03</rscale>
<asrwt>0</asrwt>
<pdfrwt beam="1">  1       21 0.16708275E-01 0.45599121E+03</pdfrwt>
<pdfrwt beam="2">  1       21 0.67282716E-01 0.45599121E+03</pdfrwt>
<totfact> 0.60019059E+04</totfact>
</mgrwt>
</event>
<event>
 7    0  0.4788920E-002  0.4555313E+03  0.7546771E-02  0.1026085E+00
         21   -1    0    0  502  501  0.00000000000E+00  0.00000000000E+00  0.54847465386E+03  0.54847465386E+03  0.00000000000E+00 0.  1.
         21   -1    0    0  501  502 -0.00000000000E+00 -0.00000000000E+00 -0.94584485544E+02  0.94584485544E+02  0.00000000000E+00 0.  1.
      99926    2    1    2    0    0  0.35527136788E-14  0.00000000000E+00  0.45389016831E+03  0.64305913940E+03  0.45553130724E+03 0.  0.
      99925    2    3    3    0    0  0.85374214695E+01  0.88781391531E+02  0.38494016033E+03  0.47466485581E+03  0.26300717719E+03 0.  0.
         25    1    4    4    0    0 -0.32314633018E+02  0.46938318844E+02  0.22169043525E+03  0.26084784543E+03  0.12509000000E+03 0.  0.
         25    1    3    3    0    0 -0.85374214695E+01 -0.88781391531E+02  0.68950007983E+02  0.16839428360E+03  0.12509000000E+03 0.  0.
         25    1    4    4    0    0  0.40852054487E+02  0.41843072687E+02  0.16324972508E+03  0.21381701038E+03  0.12509000000E+03 0.  0.
<mgrwt>
<rscale>  2 0.45553131E+03</rscale>
<asrwt>0</asrwt>
<pdfrwt beam="1">  1       21 0.80658036E-01 0.45553131E+03</pdfrwt>
<pdfrwt beam="2">  1       21 0.13909483E-01 0.45553131E+03</pdfrwt>
<totfact> 0.55868538E+04</totfact>
</mgrwt>
</event>
<event>
 7    0  0.4788920E-002  0.4543507E+03  0.7546771E-02  0.1026433E+00
         21   -1    0    0  502  501  0.00000000000E+00  0.00000000000E+00  0.30152721607E+03  0.30152721607E+03  0.00000000000E+00 0. -1.
         21   -1    0    0  501  502 -0.00000000000E+00 -0.00000000000E+00 -0.17115750335E+03  0.17115750335E+03  0.00000000000E+00 0. -1.
      99926    2    1    2    0    0  0.00000000000E+00  0.00000000000E+00  0.13036971273E+03  0.47268471942E+03  0.45435072574E+03 0.  0.
      99925    2    3    3    0    0  0.85670114755E+02 -0.69067441517E+02  0.58700891133E+02  0.29131876857E+03  0.26327010894E+03 0.  0.
         25    1    4    4    0    0  0.81545742003E+02 -0.20393973509E+02  0.23885885050E+02  0.15258986139E+03  0.12509000000E+03 0.  0.
         25    1    4    4    0    0  0.41243727517E+01 -0.48673468009E+02  0.34815006083E+02  0.13872890718E+03  0.12509000000E+03 0.  0.
         25    1    3    3    0    0 -0.85670114755E+02  0.69067441517E+02  0.71668821593E+02  0.18136595085E+03  0.12509000000E+03 0.  0.
<mgrwt>
<rscale>  2 0.45435073E+03</rscale>
<asrwt>0</asrwt>
<pdfrwt beam="1">  1       21 0.44342238E-01 0.45435073E+03</pdfrwt>
<pdfrwt beam="2">  1       21 0.25170221E-01 0.45435073E+03</pdfrwt>
<totfact> 0.67584137E+04</totfact>
</mgrwt>
</event>
<event>
 7    0  0.4788920E-002  0.4571540E+03  0.7546771E-02  0.1025610E+00
         21   -1    0    0  502  501  0.00000000000E+00  0.00000000000E+00  0.85728221381E+02  0.85728221381E+02  0.00000000000E+00 0.  1.
         21   -1    0    0  501  502 -0.00000000000E+00 -0.00000000000E+00 -0.60945439288E+03  0.60945439288E+03  0.00000000000E+00 0.  1.
      99926    2    1    2    0    0  0.14210854715E-13  0.17208456882E-14 -0.52372617150E+03  0.69518261426E+03  0.45715398331E+03 0.  0.
      99925    2    3    3    0    0 -0.10813637788E+03 -0.44964015788E+00 -0.38921591441E+03  0.48202962751E+03  0.26300162618E+03 0.  0.
         25    1    4    4    0    0 -0.91121005971E+02  0.18613300577E+02 -0.23201998341E+03  0.27951793053E+03  0.12509000000E+03 0.  0.
         25    1    3    3    0    0  0.10813637788E+03  0.44964015788E+00 -0.13451025709E+03  0.21315298675E+03  0.12509000000E+03 0.  0.
         25    1    4    4    0    0 -0.17015371912E+02 -0.19062940734E+02 -0.15719593100E+03  0.20251169698E+03  0.12509000000E+03 0.  0.
<mgrwt>
<rscale>  2 0.45715398E+03</rscale>
<asrwt>0</asrwt>
<pdfrwt beam="1">  1       21 0.12607092E-01 0.45715398E+03</pdfrwt>
<pdfrwt beam="2">  1       21 0.89625644E-01 0.45715398E+03</pdfrwt>
<totfact> 0.52273436E+04</totfact>
</mgrwt>
</event>
<event>
 7    0  0.4788920E-002  0.4492107E+03  0.7546771E-02  0.1027958E+00
         21   -1    0    0  502  501  0.00000000000E+00  0.00000000000E+00  0.83781537461E+02  0.83781537461E+02  0.00000000000E+00 0. -1.
         21   -1    0    0  501  502 -0.00000000000E+00 -0.00000000000E+00 -0.60213210804E+03  0.60213210804E+03  0.00000000000E+00 0. -1.
      99926    2    1    2    0    0 -0.35527136788E-14  0.00000000000E+00 -0.51835057058E+03  0.68591364550E+03  0.44921065778E+03 0.  0.
      99925    2    3    3    0    0  0.26052158809E+02 -0.99380294508E+02 -0.37698161665E+03  0.47100006485E+03  0.26300335336E+03 0.  0.
         25    1    4    4    0    0 -0.13746001103E+02 -0.80362233066E+02 -0.21219707548E+03  0.25946511903E+03  0.12509000000E+03 0.  0.
         25    1    4    4    0    0  0.39798159912E+02 -0.19018061442E+02 -0.16478454117E+03  0.21153494582E+03  0.12509000000E+03 0.  0.
         25    1    3    3    0    0 -0.26052158809E+02  0.99380294508E+02 -0.14136895392E+03  0.21491358065E+03  0.12509000000E+03 0.  0.
<mgrwt>
<rscale>  2 0.44921066E+03</rscale>
<asrwt>0</asrwt>
<pdfrwt beam="1">  1       21 0.12320815E-01 0.44921066E+03</pdfrwt>
<pdfrwt beam="2">  1       21 0.88548837E-01 0.44921066E+03</pdfrwt>
<totfact> 0.56192316E+04</totfact>
</mgrwt>
</event>
<event>
 7    0  0.4788920E-002  0.4535114E+03  0.7546771E-02  0.1026680E+00
         21   -1    0    0  502  501  0.00000000000E+00  0.00000000000E+00  0.56772951122E+02  0.56772951122E+02  0.00000000000E+00 0. -1.
         21   -1    0    0  501  502 -0.00000000000E+00 -0.00000000000E+00 -0.90568029790E+03  0.90568029790E+03  0.00000000000E+00 0. -1.
      99926    2    1    2    0    0  0.00000000000E+00 -0.17763568394E-14 -0.84890734678E+03  0.96245324902E+03  0.45351138149E+03 0.  0.
      99925    2    3    3    0    0  0.88116552589E+02 -0.54790102847E+01 -0.68034852206E+03  0.73473822562E+03  0.26300494733E+03 0.  0.
         25    1    3    3    0    0 -0.88116552589E+02  0.54790102847E+01 -0.16855882471E+03  0.22771502340E+03  0.12509000000E+03 0.  0.
         25    1    4    4    0    0  0.25906167360E+02 -0.23293636800E+02 -0.24660739948E+03  0.27870493465E+03  0.12509000000E+03 0.  0.
         25    1    4    4    0    0  0.62210385228E+02  0.17814626516E+02 -0.43374112259E+03  0.45603329097E+03  0.12509000000E+03 0.  0.
<mgrwt>
<rscale>  2 0.45351138E+03</rscale>
<asrwt>0</asrwt>
<pdfrwt beam="1">  1       21 0.83489642E-02 0.45351138E+03</pdfrwt>
<pdfrwt beam="2">  1       21 0.13318827E+00 0.45351138E+03</pdfrwt>
<totfact> 0.41117122E+04</totfact>
</mgrwt>
</event>
<event>
 7    0  0.4788920E-002  0.4613626E+03  0.7546771E-02  0.1024387E+00
         21   -1    0    0  502  501  0.00000000000E+00  0.00000000000E+00  0.85168471106E+02  0.85168471106E+02  0.00000000000E+00 0.  1.
         21   -1    0    0  501  502 -0.00000000000E+00 -0.00000000000E+00 -0.62480719458E+03  0.62480719458E+03  0.00000000000E+00 0.  1.
      99926    2    1    2    0    0 -0.17763568394E-14  0.00000000000E+00 -0.53963872347E+03  0.70997566569E+03  0.46136264911E+03 0.  0.
      99925    2    3    3    0    0  0.81565982370E+01 -0.10284899929E+03 -0.42918735762E+03  0.51378326250E+03  0.26292015163E+03 0.  0.
         25    1    3    3    0    0 -0.81565982370E+01  0.10284899929E+03 -0.11045136585E+03  0.19619240319E+03  0.12509000000E+03 0.  0.
         25    1    4    4    0    0 -0.24327906291E+02 -0.79556907405E+02 -0.20859962765E+03  0.25706509155E+03  0.12509000000E+03 0.  0.
         25    1    4    4    0    0  0.32484504528E+02 -0.23292091883E+02 -0.22058772997E+03  0.25671817094E+03  0.12509000000E+03 0.  0.
<mgrwt>
<rscale>  2 0.46136265E+03</rscale>
<asrwt>0</asrwt>
<pdfrwt beam="1">  1       21 0.12524775E-01 0.46136265E+03</pdfrwt>
<pdfrwt beam="2">  1       21 0.91883411E-01 0.46136265E+03</pdfrwt>
<totfact> 0.49823294E+04</totfact>
</mgrwt>
</event>
<event>
 7    0  0.4788920E-002  0.4521732E+03  0.7546771E-02  0.1027076E+00
         21   -1    0    0  502  501  0.00000000000E+00  0.00000000000E+00  0.55345757432E+03  0.55345757432E+03  0.00000000000E+00 0.  1.
         21   -1    0    0  501  502 -0.00000000000E+00 -0.00000000000E+00 -0.92356031222E+02  0.92356031222E+02  0.00000000000E+00 0.  1.
      99926    2    1    2    0    0  0.00000000000E+00  0.00000000000E+00  0.46110154310E+03  0.64581360555E+03  0.45217317485E+03 0.  0.
      99925    2    3    3    0    0  0.97855101808E+02 -0.16342291034E+02  0.36028688439E+03  0.45699148042E+03  0.26304349961E+03 0.  0.
         25    1    3    3    0    0 -0.97855101808E+02  0.16342291034E+02  0.10081465871E+03  0.18882212512E+03  0.12509000000E+03 0.  0.
         25    1    4    4    0    0  0.32766904840E+02 -0.16322366708E+02  0.11382880642E+03  0.17304506632E+03  0.12509000000E+03 0.  0.
         25    1    4    4    0    0  0.65088196967E+02 -0.19924326573E-01  0.24645807797E+03  0.28394641410E+03  0.12509000000E+03 0.  0.
<mgrwt>
<rscale>  2 0.45217317E+03</rscale>
<asrwt>0</asrwt>
<pdfrwt beam="1">  1       21 0.81390818E-01 0.45217317E+03</pdfrwt>
<pdfrwt beam="2">  1       21 0.13581770E-01 0.45217317E+03</pdfrwt>
<totfact> 0.57208614E+04</totfact>
</mgrwt>
</event>
<event>
 7    0  0.4788920E-002  0.4612958E+03  0.7546771E-02  0.1024406E+00
         21   -1    0    0  502  501  0.00000000000E+00  0.00000000000E+00  0.37991304012E+03  0.37991304012E+03  0.00000000000E+00 0.  1.
         21   -1    0    0  501  502 -0.00000000000E+00 -0.00000000000E+00 -0.14002798716E+03  0.14002798716E+03  0.00000000000E+00 0.  1.
      99926    2    1    2    0    0  0.71054273576E-14  0.00000000000E+00  0.23988505296E+03  0.51994102727E+03  0.46129581963E+03 0.  0.
      99925    2    3    3    0    0 -0.57156939681E+02 -0.14325816039E+02  0.26661391741E+03  0.37910749059E+03  0.26299688916E+03 0.  0.
         25    1    3    3    0    0  0.57156939681E+02  0.14325816039E+02 -0.26728864449E+02  0.14083353668E+03  0.12509000000E+03 0.  0.
         25    1    4    4    0    0 -0.15498822424E+02  0.49530539129E+01  0.18138085429E+03  0.22093272424E+03  0.12509000000E+03 0.  0.
         25    1    4    4    0    0 -0.41658117257E+02 -0.19278869952E+02  0.85233063121E+02  0.15817476635E+03  0.12509000000E+03 0.  0.
<mgrwt>
<rscale>  2 0.46129582E+03</rscale>
<asrwt>0</asrwt>
<pdfrwt beam="1">  1       21 0.55869565E-01 0.46129582E+03</pdfrwt>
<pdfrwt beam="2">  1       21 0.20592351E-01 0.46129582E+03</pdfrwt>
<totfact> 0.60796886E+04</totfact>
</mgrwt>
</event>
<event>
 7    0  0.4788920E-002  0.4535520E+03  0.7546771E-02  0.1026668E+00
         21   -1    0    0  502  501  0.00000000000E+00  0.00000000000E+00  0.43874404736E+03  0.43874404736E+03  0.00000000000E+00 0. -1.
         21   -1    0    0  501  502 -0.00000000000E+00 -0.00000000000E+00 -0.11721495630E+03  0.11721495630E+03  0.00000000000E+00 0. -1.
      99926    2    1    2    0    0  0.00000000000E+00  0.35527136788E-14  0.32152909106E+03  0.55595900366E+03  0.45355204481E+03 0.  0.
      99925    2    3    3    0    0 -0.81925954082E+02  0.55212655974E+01  0.29551335868E+03  0.40408184027E+03  0.26308105624E+03 0.  0.
         25    1    3    3    0    0  0.81925954082E+02 -0.55212655974E+01  0.26015732372E+02  0.15187716338E+03  0.12509000000E+03 0.  0.
         25    1    4    4    0    0 -0.35681011217E+02  0.33842238720E+02  0.10900674444E+03  0.17305608951E+03  0.12509000000E+03 0.  0.
         25    1    4    4    0    0 -0.46244942866E+02 -0.28320973123E+02  0.18650661425E+03  0.23102575077E+03  0.12509000000E+03 0.  0.
<mgrwt>
<rscale>  2 0.45355204E+03</rscale>
<asrwt>0</asrwt>
<pdfrwt beam="1">  1       21 0.64521183E-01 0.45355204E+03</pdfrwt>
<pdfrwt beam="2">  1       21 0.17237494E-01 0.45355204E+03</pdfrwt>
<totfact> 0.62183661E+04</totfact>
</mgrwt>
</event>
<event>
 7    0  0.4788920E-002  0.4553037E+03  0.7546771E-02  0.1026152E+00
         21   -1    0    0  502  501  0.00000000000E+00  0.00000000000E+00  0.21432217001E+04  0.21432217001E+04  0.00000000000E+00 0. -1.
         21   -1    0    0  501  502 -0.00000000000E+00 -0.00000000000E+00 -0.24181057385E+02  0.24181057385E+02  0.00000000000E+00 0. -1.
      99926    2    1    2    0    0  0.00000000000E+00  0.00000000000E+00  0.21190406427E+04  0.21674027575E+04  0.45530370927E+03 0.  0.
      99925    2    3    3    0    0 -0.90305020003E+02 -0.62970491985E+02  0.12038351485E+04  0.12371507033E+04  0.26306371569E+03 0.  0.
         25    1    3    3    0    0  0.90305020003E+02  0.62970491985E+02  0.91520549421E+03  0.93025205414E+03  0.12509000000E+03 0.  0.
         25    1    4    4    0    0 -0.74138083434E+02 -0.24128627271E+02  0.75772660306E+03  0.77192989264E+03  0.12509000000E+03 0.  0.
         25    1    4    4    0    0 -0.16166936569E+02 -0.38841864713E+02  0.44610854545E+03  0.46522081071E+03  0.12509000000E+03 0.  0.
<mgrwt>
<rscale>  2 0.45530371E+03</rscale>
<asrwt>0</asrwt>
<pdfrwt beam="1">  1       21 0.31517953E+00 0.45530371E+03</pdfrwt>
<pdfrwt beam="2">  1       21 0.35560393E-02 0.45530371E+03</pdfrwt>
<totfact> 0.11137915E+04</totfact>
</mgrwt>
</event>
<event>
 7    0  0.4788920E-002  0.4576939E+03  0.7546771E-02  0.1025452E+00
         21   -1    0    0  502  501  0.00000000000E+00  0.00000000000E+00  0.37712601809E+02  0.37712601809E+02  0.00000000000E+00 0.  1.
         21   -1    0    0  501  502 -0.00000000000E+00 -0.00000000000E+00 -0.13886852217E+04  0.13886852217E+04  0.00000000000E+00 0.  1.
      99926    2    1    2    0    0  0.35527136788E-14  0.00000000000E+00 -0.13509726199E+04  0.14263978235E+04  0.45769392744E+03 0.  0.
      99925    2    3    3    0    0 -0.22969915868E+02 -0.10804480538E+03 -0.95552911612E+03  0.99718415902E+03  0.26294307037E+03 0.  0.
         25    1    4    4    0    0 -0.40476355182E+01 -0.36394308971E+02 -0.32615312990E+03  0.35123254593E+03  0.12509000000E+03 0.  0.
         25    1    4    4    0    0 -0.18922280350E+02 -0.71650496409E+02 -0.62937598622E+03  0.64595161309E+03  0.12509000000E+03 0.  0.
         25    1    3    3    0    0  0.22969915868E+02  0.10804480538E+03 -0.39544350379E+03  0.42921366450E+03  0.12509000000E+03 0.  0.
<mgrwt>
<rscale>  2 0.45769393E+03</rscale>
<asrwt>0</asrwt>
<pdfrwt beam="1">  1       21 0.55459704E-02 0.45769393E+03</pdfrwt>
<pdfrwt beam="2">  1       21 0.20421843E+00 0.45769393E+03</pdfrwt>
<totfact> 0.25107291E+04</totfact>
</mgrwt>
</event>
<event>
 7    0  0.4788920E-002  0.4517526E+03  0.7546771E-02  0.1027201E+00
         21   -1    0    0  502  501  0.00000000000E+00  0.00000000000E+00  0.13689123008E+03  0.13689123008E+03  0.00000000000E+00 0.  1.
         21   -1    0    0  501  502 -0.00000000000E+00 -0.00000000000E+00 -0.37270545988E+03  0.37270545988E+03  0.00000000000E+00 0.  1.
      99926    2    1    2    0    0  0.00000000000E+00  0.00000000000E+00 -0.23581422980E+03  0.50959668996E+03  0.45175262638E+03 0.  0.
      99925    2    3    3    0    0 -0.80444312764E+02  0.39087091864E+02 -0.76354445869E+02  0.28807012496E+03  0.26297396694E+03 0.  0.
         25    1    4    4    0    0 -0.50777774852E+02  0.30318281461E+02 -0.78717018117E+02  0.15919000487E+03  0.12509000000E+03 0.  0.
         25    1    4    4    0    0 -0.29666537912E+02  0.87688104032E+01  0.23625722475E+01  0.12888012009E+03  0.12509000000E+03 0.  0.
         25    1    3    3    0    0  0.80444312764E+02 -0.39087091864E+02 -0.15945978393E+03  0.22152656499E+03  0.12509000000E+03 0.  0.
<mgrwt>
<rscale>  2 0.45175263E+03</rscale>
<asrwt>0</asrwt>
<pdfrwt beam="1">  1       21 0.20131063E-01 0.45175263E+03</pdfrwt>
<pdfrwt beam="2">  1       21 0.54809627E-01 0.45175263E+03</pdfrwt>
<totfact> 0.66293637E+04</totfact>
</mgrwt>
</event>
<event>
 7    0  0.4788920E-002  0.4528203E+03  0.7546771E-02  0.1026884E+00
         21   -1    0    0  502  501  0.00000000000E+00  0.00000000000E+00  0.84534763302E+02  0.84534763302E+02  0.00000000000E+00 0. -1.
         21   -1    0    0  501  502 -0.00000000000E+00 -0.00000000000E+00 -0.60639623338E+03  0.60639623338E+03  0.00000000000E+00 0. -1.
      99926    2    1    2    0    0  0.35527136788E-14  0.00000000000E+00 -0.52186147008E+03  0.69093099668E+03  0.45282032665E+03 0.  0.
      99925    2    3    3    0    0  0.10940345110E+02  0.65688337068E+02 -0.46489889257E+03  0.53819955881E+03  0.26285573233E+03 0.  0.
         25    1    3    3    0    0 -0.10940345110E+02 -0.65688337068E+02 -0.56962577515E+02  0.15273143787E+03  0.12509000000E+03 0.  0.
         25    1    4    4    0    0  0.41035161044E+02  0.14487343900E+02 -0.23868839935E+03  0.27297147774E+03  0.12509000000E+03 0.  0.
         25    1    4    4    0    0 -0.30094815933E+02  0.51200993168E+02 -0.22621049322E+03  0.26522808107E+03  0.12509000000E+03 0.  0.
<mgrwt>
<rscale>  2 0.45282033E+03</rscale>
<asrwt>0</asrwt>
<pdfrwt beam="1">  1       21 0.12431583E-01 0.45282033E+03</pdfrwt>
<pdfrwt beam="2">  1       21 0.89175918E-01 0.45282033E+03</pdfrwt>
<totfact> 0.54324302E+04</totfact>
</mgrwt>
</event>
<event>
 7    0  0.4788920E-002  0.4562226E+03  0.7546771E-02  0.1025882E+00
         21   -1    0    0  502  501  0.00000000000E+00  0.00000000000E+00  0.12821719523E+03  0.12821719523E+03  0.00000000000E+00 0. -1.
         21   -1    0    0  501  502 -0.00000000000E+00 -0.00000000000E+00 -0.40583299878E+03  0.40583299878E+03  0.00000000000E+00 0. -1.
      99926    2    1    2    0    0 -0.35527136788E-14 -0.14210854715E-13 -0.27761580355E+03  0.53405019401E+03  0.45622261600E+03 0.  0.
      99925    2    3    3    0    0 -0.18400878055E+02 -0.11099306816E+03 -0.15064206013E+03  0.32327094193E+03  0.26296961444E+03 0.  0.
         25    1    4    4    0    0 -0.96472548700E+01 -0.31712654595E+02 -0.10896113749E+03  0.16917091822E+03  0.12509000000E+03 0.  0.
         25    1    3    3    0    0  0.18400878055E+02  0.11099306816E+03 -0.12697374341E+03  0.21077925209E+03  0.12509000000E+03 0.  0.
         25    1    4    4    0    0 -0.87536231849E+01 -0.79280413568E+02 -0.41680922645E+02  0.15410002371E+03  0.12509000000E+03 0.  0.
<mgrwt>
<rscale>  2 0.45622262E+03</rscale>
<asrwt>0</asrwt>
<pdfrwt beam="1">  1       21 0.18855470E-01 0.45622262E+03</pdfrwt>
<pdfrwt beam="2">  1       21 0.59681324E-01 0.45622262E+03</pdfrwt>
<totfact> 0.62327013E+04</totfact>
</mgrwt>
</event>
<event>
 7    0  0.4788920E-002  0.4661064E+03  0.7546771E-02  0.1023025E+00
         21   -1    0    0  502  501  0.00000000000E+00  0.00000000000E+00  0.36878115722E+03  0.36878115722E+03  0.00000000000E+00 0.  1.
         21   -1    0    0  501  502 -0.00000000000E+00 -0.00000000000E+00 -0.14727921521E+03  0.14727921521E+03  0.00000000000E+00 0.  1.
      99926    2    1    2    0    0  0.00000000000E+00  0.00000000000E+00  0.22150194200E+03  0.51606037243E+03  0.46610642312E+03 0.  0.
      99925    2    3    3    0    0  0.95432311858E+02 -0.60816945212E+02  0.83815248754E+02  0.29831933227E+03  0.26298935551E+03 0.  0.
         25    1    4    4    0    0  0.32239092638E+02 -0.59378515946E+02  0.66977850277E+02  0.15715822529E+03  0.12509000000E+03 0.  0.
         25    1    3    3    0    0 -0.95432311858E+02  0.60816945212E+02  0.13768669325E+03  0.21774104016E+03  0.12509000000E+03 0.  0.
         25    1    4    4    0    0  0.63193219220E+02 -0.14384292667E+01  0.16837398476E+02  0.14116110697E+03  0.12509000000E+03 0.  0.
<mgrwt>
<rscale>  2 0.46610642E+03</rscale>
<asrwt>0</asrwt>
<pdfrwt beam="1">  1       21 0.54232523E-01 0.46610642E+03</pdfrwt>
<pdfrwt beam="2">  1       21 0.21658708E-01 0.46610642E+03</pdfrwt>
<totfact> 0.58800132E+04</totfact>
</mgrwt>
</event>
<event>
 7    0  0.4788920E-002  0.4665754E+03  0.7546771E-02  0.1022891E+00
         21   -1    0    0  502  501  0.00000000000E+00  0.00000000000E+00  0.22119716363E+03  0.22119716363E+03  0.00000000000E+00 0. -1.
         21   -1    0    0  501  502 -0.00000000000E+00 -0.00000000000E+00 -0.24603908773E+03  0.24603908773E+03  0.00000000000E+00 0. -1.
      99926    2    1    2    0    0  0.88817841970E-15  0.00000000000E+00 -0.24841924101E+02  0.46723625136E+03  0.46657538876E+03 0.  0.
      99925    2    3    3    0    0 -0.58514805066E+01  0.67233131014E+02 -0.11947242249E+03  0.29648212095E+03  0.26281829193E+03 0.  0.
         25    1    4    4    0    0  0.30107794697E+00  0.41379894313E+02 -0.17485163237E+02  0.13291209627E+03  0.12509000000E+03 0.  0.
         25    1    4    4    0    0 -0.61525584536E+01  0.25853236701E+02 -0.10198725925E+03  0.16357002468E+03  0.12509000000E+03 0.  0.
         25    1    3    3    0    0  0.58514805066E+01 -0.67233131014E+02  0.94630498384E+02  0.17075413042E+03  0.12509000000E+03 0.  0.
<mgrwt>
<rscale>  2 0.46657539E+03</rscale>
<asrwt>0</asrwt>
<pdfrwt beam="1">  1       21 0.32528995E-01 0.46657539E+03</pdfrwt>
<pdfrwt beam="2">  1       21 0.36182218E-01 0.46657539E+03</pdfrwt>
<totfact> 0.61754836E+04</totfact>
</mgrwt>
</event>
<event>
 7    0  0.4788920E-002  0.4561750E+03  0.7546771E-02  0.1025896E+00
         21   -1    0    0  502  501  0.00000000000E+00  0.00000000000E+00  0.91054898094E+03  0.91054898094E+03  0.00000000000E+00 0.  1.
         21   -1    0    0  501  502 -0.00000000000E+00 -0.00000000000E+00 -0.57134652844E+02  0.57134652844E+02  0.00000000000E+00 0.  1.
      99926    2    1    2    0    0  0.35527136788E-14  0.00000000000E+00  0.85341432809E+03  0.96768363378E+03  0.45617496610E+03 0.  0.
      99925    2    3    3    0    0  0.31542422670E+02  0.10526518604E+03  0.46506244428E+03  0.54514324804E+03  0.26234023707E+03 0.  0.
         25    1    3    3    0    0 -0.31542422670E+02 -0.10526518604E+03  0.38835188382E+03  0.42254038574E+03  0.12509000000E+03 0.  0.
         25    1    4    4    0    0 -0.82116182316E+01  0.85116643272E+02  0.24032814835E+03  0.28410807912E+03  0.12509000000E+03 0.  0.
         25    1    4    4    0    0  0.39754040901E+02  0.20148542763E+02  0.22473429593E+03  0.26103516891E+03  0.12509000000E+03 0.  0.
<mgrwt>
<rscale>  2 0.45617497E+03</rscale>
<asrwt>0</asrwt>
<pdfrwt beam="1">  1       21 0.13390425E+00 0.45617497E+03</pdfrwt>
<pdfrwt beam="2">  1       21 0.84021554E-02 0.45617497E+03</pdfrwt>
<totfact> 0.40063649E+04</totfact>
</mgrwt>
</event>
<event>
 7    0  0.4788920E-002  0.4616659E+03  0.7546771E-02  0.1024299E+00
         21   -1    0    0  502  501  0.00000000000E+00  0.00000000000E+00  0.58832576382E+02  0.58832576382E+02  0.00000000000E+00 0. -1.
         21   -1    0    0  501  502 -0.00000000000E+00 -0.00000000000E+00 -0.90568620120E+03  0.90568620120E+03  0.00000000000E+00 0. -1.
      99926    2    1    2    0    0  0.00000000000E+00 -0.35527136788E-14 -0.84685362482E+03  0.96451877758E+03  0.46166590782E+03 0.  0.
      99925    2    3    3    0    0 -0.89074226262E+02 -0.17159059224E+02 -0.37273195108E+03  0.46585303713E+03  0.26431287094E+03 0.  0.
         25    1    3    3    0    0  0.89074226262E+02  0.17159059224E+02 -0.47412167373E+03  0.49866574045E+03  0.12509000000E+03 0.  0.
         25    1    4    4    0    0 -0.22020944503E+01 -0.22206989936E+02 -0.16904260323E+03  0.21147318844E+03  0.12509000000E+03 0.  0.
         25    1    4    4    0    0 -0.86872131812E+02  0.50479307121E+01 -0.20368934785E+03  0.25437984869E+03  0.12509000000E+03 0.  0.
<mgrwt>
<rscale>  2 0.46166591E+03</rscale>
<asrwt>0</asrwt>
<pdfrwt beam="1">  1       21 0.86518496E-02 0.46166591E+03</pdfrwt>
<pdfrwt beam="2">  1       21 0.13318915E+00 0.46166591E+03</pdfrwt>
<totfact> 0.38511774E+04</totfact>
</mgrwt>
</event>
<event>
 7    0  0.4788920E-002  0.4545835E+03  0.7546771E-02  0.1026364E+00
         21   -1    0    0  502  501  0.00000000000E+00  0.00000000000E+00  0.36467492704E+02  0.36467492704E+02  0.00000000000E+00 0.  1.
         21   -1    0    0  501  502 -0.00000000000E+00 -0.00000000000E+00 -0.14166462102E+04  0.14166462102E+04  0.00000000000E+00 0.  1.
      99926    2    1    2    0    0  0.00000000000E+00 -0.13322676296E-14 -0.13801787175E+04  0.14531137029E+04  0.45458348115E+03 0.  0.
      99925    2    3    3    0    0  0.65907899887E+02  0.17084042246E+01 -0.11616755386E+04  0.11928486127E+04  0.26277554264E+03 0.  0.
         25    1    3    3    0    0 -0.65907899887E+02 -0.17084042246E+01 -0.21850317885E+03  0.26026509020E+03  0.12509000000E+03 0.  0.
         25    1    4    4    0    0  0.63616927229E+02  0.27758101568E+02 -0.62705323707E+03  0.64316475017E+03  0.12509000000E+03 0.  0.
         25    1    4    4    0    0  0.22909726575E+01 -0.26049697343E+02 -0.53462230157E+03  0.54968386253E+03  0.12509000000E+03 0.  0.
<mgrwt>
<rscale>  2 0.45458348E+03</rscale>
<asrwt>0</asrwt>
<pdfrwt beam="1">  1       21 0.53628657E-02 0.45458348E+03</pdfrwt>
<pdfrwt beam="2">  1       21 0.20833036E+00 0.45458348E+03</pdfrwt>
<totfact> 0.25031206E+04</totfact>
</mgrwt>
</event>
<event>
 7    0  0.4788920E-002  0.4592373E+03  0.7546771E-02  0.1025003E+00
         21   -1    0    0  502  501  0.00000000000E+00  0.00000000000E+00  0.14105730891E+03  0.14105730891E+03  0.00000000000E+00 0. -1.
         21   -1    0    0  501  502 -0.00000000000E+00 -0.00000000000E+00 -0.37378231078E+03  0.37378231078E+03  0.00000000000E+00 0. -1.
      99926    2    1    2    0    0 -0.22204460493E-14  0.14210854715E-13 -0.23272500187E+03  0.51483961969E+03  0.45923731066E+03 0.  0.
      99925    2    3    3    0    0  0.30667420855E+01 -0.11558750781E+03 -0.13793734295E+03  0.31989838431E+03  0.26445867131E+03 0.  0.
         25    1    4    4    0    0 -0.28954240247E+02 -0.25367296326E+02 -0.69000499678E+02  0.14795413075E+03  0.12509000000E+03 0.  0.
         25    1    4    4    0    0  0.32020982332E+02 -0.90220211483E+02 -0.68936843271E+02  0.17194425355E+03  0.12509000000E+03 0.  0.
         25    1    3    3    0    0 -0.30667420855E+01  0.11558750781E+03 -0.94787658926E+02  0.19494123538E+03  0.12509000000E+03 0.  0.
<mgrwt>
<rscale>  2 0.45923731E+03</rscale>
<asrwt>0</asrwt>
<pdfrwt beam="1">  1       21 0.20743722E-01 0.45923731E+03</pdfrwt>
<pdfrwt beam="2">  1       21 0.54967987E-01 0.45923731E+03</pdfrwt>
<totfact> 0.62124763E+04</totfact>
</mgrwt>
</event>
<event>
 7    0  0.4788920E-002  0.4551760E+03  0.7546771E-02  0.1026190E+00
         21   -1    0    0  502  501  0.00000000000E+00  0.00000000000E+00  0.11484113977E+04  0.11484113977E+04  0.00000000000E+00 0. -1.
         21   -1    0    0  501  502 -0.00000000000E+00 -0.00000000000E+00 -0.45102567250E+02  0.45102567250E+02  0.00000000000E+00 0. -1.
      99926    2    1    2    0    0  0.71054273576E-14  0.00000000000E+00  0.11033088304E+04  0.11935139649E+04  0.45517601999E+03 0.  0.
      99925    2    3    3    0    0 -0.45696592920E+02  0.10295940187E+03  0.72732444985E+03  0.78156666299E+03  0.26297676001E+03 0.  0.
         25    1    4    4    0    0 -0.48349464859E+02  0.70158433008E+02  0.46637363730E+03  0.49031801327E+03  0.12509000000E+03 0.  0.
         25    1    4    4    0    0  0.26528719392E+01  0.32800968860E+02  0.26095081255E+03  0.29124864971E+03  0.12509000000E+03 0.  0.
         25    1    3    3    0    0  0.45696592920E+02 -0.10295940187E+03  0.37598438056E+03  0.41194730192E+03  0.12509000000E+03 0.  0.
<mgrwt>
<rscale>  2 0.45517602E+03</rscale>
<asrwt>0</asrwt>
<pdfrwt beam="1">  1       21 0.16888401E+00 0.45517602E+03</pdfrwt>
<pdfrwt beam="2">  1       21 0.66327312E-02 0.45517602E+03</pdfrwt>
<totfact> 0.32317855E+04</totfact>
</mgrwt>
</event>
<event>
 7    0  0.4788920E-002  0.4497980E+03  0.7546771E-02  0.1027782E+00
         21   -1    0    0  502  501  0.00000000000E+00  0.00000000000E+00  0.83917325199E+02  0.83917325199E+02  0.00000000000E+00 0. -1.
         21   -1    0    0  501  502 -0.00000000000E+00 -0.00000000000E+00 -0.60273092972E+03  0.60273092972E+03  0.00000000000E+00 0. -1.
      99926    2    1    2    0    0  0.00000000000E+00  0.35527136788E-14 -0.51881360452E+03  0.68664825492E+03  0.44979803217E+03 0.  0.
      99925    2    3    3    0    0  0.42632028303E+02 -0.17553046183E+02 -0.17861374126E+03  0.32125934659E+03  0.26301920070E+03 0.  0.
         25    1    3    3    0    0 -0.42632028303E+02  0.17553046183E+02 -0.34019986327E+03  0.36538890834E+03  0.12509000000E+03 0.  0.
         25    1    4    4    0    0 -0.75509622243E+01 -0.32096669751E+02 -0.67132583088E+02  0.14574465703E+03  0.12509000000E+03 0.  0.
         25    1    4    4    0    0  0.50182990528E+02  0.14543623567E+02 -0.11148115817E+03  0.17551468956E+03  0.12509000000E+03 0.  0.
<mgrwt>
<rscale>  2 0.44979803E+03</rscale>
<asrwt>0</asrwt>
<pdfrwt beam="1">  1       21 0.12340783E-01 0.44979803E+03</pdfrwt>
<pdfrwt beam="2">  1       21 0.88636905E-01 0.44979803E+03</pdfrwt>
<totfact> 0.55887907E+04</totfact>
</mgrwt>
</event>
<event>
 7    0  0.4788920E-002  0.4237949E+03  0.7546771E-02  0.1035838E+00
         21   -1    0    0  502  501  0.00000000000E+00  0.00000000000E+00  0.78527260374E+02  0.78527260374E+02  0.00000000000E+00 0. -1.
         21   -1    0    0  501  502 -0.00000000000E+00 -0.00000000000E+00 -0.57178278608E+03  0.57178278608E+03  0.00000000000E+00 0. -1.
      99926    2    1    2    0    0 -0.35527136788E-14  0.00000000000E+00 -0.49325552571E+03  0.65031004646E+03  0.42379493022E+03 0.  0.
      99925    2    3    3    0    0 -0.10476538923E+02  0.37097120778E+02 -0.42835012126E+03  0.50420674785E+03  0.26316280883E+03 0.  0.
         25    1    4    4    0    0  0.25503707967E+02  0.75998960131E+01 -0.25653683078E+03  0.28664760802E+03  0.12509000000E+03 0.  0.
         25    1    4    4    0    0 -0.35980246890E+02  0.29497224764E+02 -0.17181329049E+03  0.21755913983E+03  0.12509000000E+03 0.  0.
         25    1    3    3    0    0  0.10476538923E+02 -0.37097120778E+02 -0.64905404448E+02  0.14610329861E+03  0.12509000000E+03 0.  0.
<mgrwt>
<rscale>  2 0.42379493E+03</rscale>
<asrwt>0</asrwt>
<pdfrwt beam="1">  1       21 0.11548127E-01 0.42379493E+03</pdfrwt>
<pdfrwt beam="2">  1       21 0.84085698E-01 0.42379493E+03</pdfrwt>
<totfact> 0.71776328E+04</totfact>
</mgrwt>
</event>
<event>
 7    0  0.4788920E-002  0.4579068E+03  0.7546771E-02  0.1025390E+00
         21   -1    0    0  502  501  0.00000000000E+00  0.00000000000E+00  0.31112670141E+03  0.31112670141E+03  0.00000000000E+00 0. -1.
         21   -1    0    0  501  502 -0.00000000000E+00 -0.00000000000E+00 -0.16848331965E+03  0.16848331965E+03  0.00000000000E+00 0. -1.
      99926    2    1    2    0    0  0.00000000000E+00  0.00000000000E+00  0.14264338176E+03  0.47961002107E+03  0.45790680050E+03 0.  0.
      99925    2    3    3    0    0 -0.74900314079E+02  0.25889595776E+02  0.10998422702E+01  0.27476273675E+03  0.26308368181E+03 0.  0.
         25    1    4    4    0    0 -0.69240347567E+02  0.20854887858E+02 -0.25318920060E+02  0.14668915397E+03  0.12509000000E+03 0.  0.
         25    1    4    4    0    0 -0.56599665124E+01  0.50347079190E+01  0.26418762331E+02  0.12807358279E+03  0.12509000000E+03 0.  0.
         25    1    3    3    0    0  0.74900314079E+02 -0.25889595776E+02  0.14154353949E+03  0.20484728431E+03  0.12509000000E+03 0.  0.
<mgrwt>
<rscale>  2 0.45790680E+03</rscale>
<asrwt>0</asrwt>
<pdfrwt beam="1">  1       21 0.45753927E-01 0.45790680E+03</pdfrwt>
<pdfrwt beam="2">  1       21 0.24776959E-01 0.45790680E+03</pdfrwt>
<totfact> 0.65210984E+04</totfact>
</mgrwt>
</event>
<event>
 7    0  0.4788920E-002  0.4542055E+03  0.7546771E-02  0.1026475E+00
         21   -1    0    0  502  501  0.00000000000E+00  0.00000000000E+00  0.27066379056E+03  0.27066379056E+03  0.00000000000E+00 0. -1.
         21   -1    0    0  501  502 -0.00000000000E+00 -0.00000000000E+00 -0.19055249350E+03  0.19055249350E+03  0.00000000000E+00 0. -1.
      99926    2    1    2    0    0  0.00000000000E+00  0.00000000000E+00  0.80111297053E+02  0.46121628406E+03  0.45420550500E+03 0.  0.
      99925    2    3    3    0    0 -0.39437722787E+02  0.37923702513E+02  0.15008773176E+03  0.30779610708E+03  0.26309423239E+03 0.  0.
         25    1    3    3    0    0  0.39437722787E+02 -0.37923702513E+02 -0.69976434708E+02  0.15342017698E+03  0.12509000000E+03 0.  0.
         25    1    4    4    0    0 -0.47231942074E+02  0.18560629204E+02  0.11193086874E+03  0.17536071620E+03  0.12509000000E+03 0.  0.
         25    1    4    4    0    0  0.77942192871E+01  0.19363073309E+02  0.38156863019E+02  0.13243539088E+03  0.12509000000E+03 0.  0.
<mgrwt>
<rscale>  2 0.45420550E+03</rscale>
<asrwt>0</asrwt>
<pdfrwt beam="1">  1       21 0.39803499E-01 0.45420550E+03</pdfrwt>
<pdfrwt beam="2">  1       21 0.28022425E-01 0.45420550E+03</pdfrwt>
<totfact> 0.68523657E+04</totfact>
</mgrwt>
</event>
<event>
 7    0  0.4788920E-002  0.4549558E+03  0.7546771E-02  0.1026254E+00
         21   -1    0    0  502  501  0.00000000000E+00  0.00000000000E+00  0.66566782096E+03  0.66566782096E+03  0.00000000000E+00 0.  1.
         21   -1    0    0  501  502 -0.00000000000E+00 -0.00000000000E+00 -0.77735768294E+02  0.77735768294E+02  0.00000000000E+00 0.  1.
      99926    2    1    2    0    0  0.00000000000E+00  0.71054273576E-14  0.58793205267E+03  0.74340358925E+03  0.45495581979E+03 0.  0.
      99925    2    3    3    0    0 -0.73060362509E+02 -0.54320990571E+02  0.47965162515E+03  0.55456305952E+03  0.26303216322E+03 0.  0.
         25    1    4    4    0    0 -0.30015463000E+00 -0.46225781308E+02  0.22481562025E+03  0.26139335141E+03  0.12509000000E+03 0.  0.
         25    1    4    4    0    0 -0.72760207879E+02 -0.80952092624E+01  0.25483600490E+03  0.29316970812E+03  0.12509000000E+03 0.  0.
         25    1    3    3    0    0  0.73060362509E+02  0.54320990571E+02  0.10828042752E+03  0.18884052973E+03  0.12509000000E+03 0.  0.
<mgrwt>
<rscale>  2 0.45495582E+03</rscale>
<asrwt>0</asrwt>
<pdfrwt beam="1">  1       21 0.97892324E-01 0.45495582E+03</pdfrwt>
<pdfrwt beam="2">  1       21 0.11431731E-01 0.45495582E+03</pdfrwt>
<totfact> 0.50626542E+04</totfact>
</mgrwt>
</event>
<event>
 7    0  0.4788920E-002  0.4519829E+03  0.7546771E-02  0.1027132E+00
         21   -1    0    0  502  501  0.00000000000E+00  0.00000000000E+00  0.35971526421E+03  0.35971526421E+03  0.00000000000E+00 0. -1.
         21   -1    0    0  501  502 -0.00000000000E+00 -0.00000000000E+00 -0.14197933779E+03  0.14197933779E+03  0.00000000000E+00 0. -1.
      99926    2    1    2    0    0 -0.22204460493E-15  0.00000000000E+00  0.21773592642E+03  0.50169460200E+03  0.45198289793E+03 0.  0.
      99925    2    3    3    0    0  0.97745372453E+00  0.37182491542E+02  0.25284751844E+03  0.36655088188E+03  0.26276260832E+03 0.  0.
         25    1    3    3    0    0 -0.97745372453E+00 -0.37182491542E+02 -0.35111592024E+02  0.13514372012E+03  0.12509000000E+03 0.  0.
         25    1    4    4    0    0 -0.61062247224E+01 -0.65968305129E+01  0.16557063877E+03  0.20770640018E+03  0.12509000000E+03 0.  0.
         25    1    4    4    0    0  0.70836784470E+01  0.43779322055E+02  0.87276879673E+02  0.15884448170E+03  0.12509000000E+03 0.  0.
<mgrwt>
<rscale>  2 0.45198290E+03</rscale>
<asrwt>0</asrwt>
<pdfrwt beam="1">  1       21 0.52899303E-01 0.45198290E+03</pdfrwt>
<pdfrwt beam="2">  1       21 0.20879314E-01 0.45198290E+03</pdfrwt>
<totfact> 0.66735726E+04</totfact>
</mgrwt>
</event>
<event>
 7    0  0.4788920E-002  0.4538915E+03  0.7546771E-02  0.1026568E+00
         21   -1    0    0  502  501  0.00000000000E+00  0.00000000000E+00  0.40653624815E+03  0.40653624815E+03  0.00000000000E+00 0.  1.
         21   -1    0    0  501  502 -0.00000000000E+00 -0.00000000000E+00 -0.12669075136E+03  0.12669075136E+03  0.00000000000E+00 0.  1.
      99926    2    1    2    0    0  0.00000000000E+00  0.00000000000E+00  0.27984549679E+03  0.53322699951E+03  0.45389154093E+03 0.  0.
      99925    2    3    3    0    0  0.37298722937E+02 -0.99875492576E+02  0.13664067228E+03  0.31523287432E+03  0.26331498815E+03 0.  0.
         25    1    4    4    0    0 -0.18826299515E+02 -0.36778867400E+02  0.48045267285E+02  0.14022471412E+03  0.12509000000E+03 0.  0.
         25    1    4    4    0    0  0.56125022452E+02 -0.63096625176E+02  0.88595404991E+02  0.17500816021E+03  0.12509000000E+03 0.  0.
         25    1    3    3    0    0 -0.37298722937E+02  0.99875492576E+02  0.14320482451E+03  0.21799412518E+03  0.12509000000E+03 0.  0.
<mgrwt>
<rscale>  2 0.45389154E+03</rscale>
<asrwt>0</asrwt>
<pdfrwt beam="1">  1       21 0.59784742E-01 0.45389154E+03</pdfrwt>
<pdfrwt beam="2">  1       21 0.18630993E-01 0.45389154E+03</pdfrwt>
<totfact> 0.63544367E+04</totfact>
</mgrwt>
</event>
<event>
 7    0  0.4788920E-002  0.4401557E+03  0.7546771E-02  0.1030699E+00
         21   -1    0    0  502  501  0.00000000000E+00  0.00000000000E+00  0.32380138305E+03  0.32380138305E+03  0.00000000000E+00 0. -1.
         21   -1    0    0  501  502 -0.00000000000E+00 -0.00000000000E+00 -0.14958015889E+03  0.14958015889E+03  0.00000000000E+00 0. -1.
      99926    2    1    2    0    0  0.00000000000E+00  0.00000000000E+00  0.17422122416E+03  0.47338154195E+03  0.44015571030E+03 0.  0.
      99925    2    3    3    0    0  0.17209102469E+02  0.73380933663E+02  0.17970637336E+03  0.32723603365E+03  0.26288424537E+03 0.  0.
         25    1    3    3    0    0 -0.17209102469E+02 -0.73380933663E+02 -0.54851491989E+01  0.14614550829E+03  0.12509000000E+03 0.  0.
         25    1    4    4    0    0  0.44036812541E+01  0.24490882309E+02  0.13349274298E+03  0.18462669432E+03  0.12509000000E+03 0.  0.
         25    1    4    4    0    0  0.12805421215E+02  0.48890051354E+02  0.46213630377E+02  0.14260933934E+03  0.12509000000E+03 0.  0.
<mgrwt>
<rscale>  2 0.44015571E+03</rscale>
<asrwt>0</asrwt>
<pdfrwt beam="1">  1       21 0.47617851E-01 0.44015571E+03</pdfrwt>
<pdfrwt beam="2">  1       21 0.21997082E-01 0.44015571E+03</pdfrwt>
<totfact> 0.75721710E+04</totfact>
</mgrwt>
</event>
<event>
 7    0  0.4788920E-002  0.4543602E+03  0.7546771E-02  0.1026430E+00
         21   -1    0    0  502  501  0.00000000000E+00  0.00000000000E+00  0.42079170530E+03  0.42079170530E+03  0.00000000000E+00 0. -1.
         21   -1    0    0  501  502 -0.00000000000E+00 -0.00000000000E+00 -0.12265164506E+03  0.12265164506E+03  0.00000000000E+00 0. -1.
      99926    2    1    2    0    0 -0.14210854715E-13  0.71054273576E-14  0.29814006024E+03  0.54344335036E+03  0.45436018700E+03 0.  0.
      99925    2    3    3    0    0 -0.90050948465E+02  0.57959880916E+02  0.14610793244E+03  0.31932329972E+03  0.26296638703E+03 0.  0.
         25    1    4    4    0    0 -0.41992023354E+02 -0.90748433379E+01  0.50456453606E+02  0.14155933250E+03  0.12509000000E+03 0.  0.
         25    1    3    3    0    0  0.90050948465E+02 -0.57959880916E+02  0.15203212780E+03  0.22412005064E+03  0.12509000000E+03 0.  0.
         25    1    4    4    0    0 -0.48058925111E+02  0.67034724254E+02  0.95651478836E+02  0.17776396722E+03  0.12509000000E+03 0.  0.
<mgrwt>
<rscale>  2 0.45436019E+03</rscale>
<asrwt>0</asrwt>
<pdfrwt beam="1">  1       21 0.61881133E-01 0.45436019E+03</pdfrwt>
<pdfrwt beam="2">  1       21 0.18037007E-01 0.45436019E+03</pdfrwt>
<totfact> 0.62618305E+04</totfact>
</mgrwt>
</event>
<event>
 7    0  0.4788920E-002  0.4573370E+03  0.7546771E-02  0.1025556E+00
         21   -1    0    0  502  501  0.00000000000E+00  0.00000000000E+00  0.60483378730E+03  0.60483378730E+03  0.00000000000E+00 0.  1.
         21   -1    0    0  501  502 -0.00000000000E+00 -0.00000000000E+00 -0.86452325905E+02  0.86452325905E+02  0.00000000000E+00 0.  1.
      99926    2    1    2    0    0  0.00000000000E+00  0.00000000000E+00  0.51838146139E+03  0.69128611320E+03  0.45733702102E+03 0.  0.
      99925    2    3    3    0    0  0.34639631031E+02  0.83726277611E+01  0.49242538200E+03  0.55865417478E+03  0.26142250328E+03 0.  0.
         25    1    4    4    0    0  0.46621769790E+02 -0.18793606306E+01  0.20311135440E+03  0.24306141570E+03  0.12509000000E+03 0.  0.
         25    1    4    4    0    0 -0.11982138758E+02  0.10251988392E+02  0.28931402760E+03  0.31559275908E+03  0.12509000000E+03 0.  0.
         25    1    3    3    0    0 -0.34639631031E+02 -0.83726277611E+01  0.25956079390E+02  0.13263193843E+03  0.12509000000E+03 0.  0.
<mgrwt>
<rscale>  2 0.45733702E+03</rscale>
<asrwt>0</asrwt>
<pdfrwt beam="1">  1       21 0.88946143E-01 0.45733702E+03</pdfrwt>
<pdfrwt beam="2">  1       21 0.12713578E-01 0.45733702E+03</pdfrwt>
<totfact> 0.52407910E+04</totfact>
</mgrwt>
</event>
<event>
 7    0  0.4788920E-002  0.4548360E+03  0.7546771E-02  0.1026290E+00
         21   -1    0    0  502  501  0.00000000000E+00  0.00000000000E+00  0.22691692704E+02  0.22691692704E+02  0.00000000000E+00 0.  1.
         21   -1    0    0  501  502 -0.00000000000E+00 -0.00000000000E+00 -0.22792017963E+04  0.22792017963E+04  0.00000000000E+00 0.  1.
      99926    2    1    2    0    0 -0.71054273576E-14  0.00000000000E+00 -0.22565101036E+04  0.23018934890E+04  0.45483600022E+03 0.  0.
      99925    2    3    3    0    0 -0.63582894607E+02 -0.86830417014E+02 -0.15946526465E+04  0.16197753853E+04  0.26300747136E+03 0.  0.
         25    1    4    4    0    0 -0.48404946422E+02 -0.83710330277E+02 -0.89708928834E+03  0.91091556007E+03  0.12509000000E+03 0.  0.
         25    1    4    4    0    0 -0.15177948185E+02 -0.31200867373E+01 -0.69756335821E+03  0.70885982526E+03  0.12509000000E+03 0.  0.
         25    1    3    3    0    0  0.63582894607E+02  0.86830417014E+02 -0.66185745710E+03  0.68211810372E+03  0.12509000000E+03 0.  0.
<mgrwt>
<rscale>  2 0.45483600E+03</rscale>
<asrwt>0</asrwt>
<pdfrwt beam="1">  1       21 0.33370135E-02 0.45483600E+03</pdfrwt>
<pdfrwt beam="2">  1       21 0.33517675E+00 0.45483600E+03</pdfrwt>
<totfact> 0.93893095E+03</totfact>
</mgrwt>
</event>
<event>
 7    0  0.4788920E-002  0.4268564E+03  0.7546771E-02  0.1034858E+00
         21   -1    0    0  502  501  0.00000000000E+00  0.00000000000E+00  0.42547941436E+02  0.42547941436E+02  0.00000000000E+00 0.  1.
         21   -1    0    0  501  502 -0.00000000000E+00 -0.00000000000E+00 -0.10705943612E+04  0.10705943612E+04  0.00000000000E+00 0.  1.
      99926    2    1    2    0    0  0.00000000000E+00  0.00000000000E+00 -0.10280464197E+04  0.11131423026E+04  0.42685635139E+03 0.  0.
      99925    2    3    3    0    0  0.48715368508E+02 -0.73460649839E+01 -0.48724407627E+03  0.55587949693E+03  0.26299823848E+03 0.  0.
         25    1    3    3    0    0 -0.48715368508E+02  0.73460649839E+01 -0.54080234347E+03  0.55726280568E+03  0.12509000000E+03 0.  0.
         25    1    4    4    0    0 -0.13899766699E+02  0.21907446647E+01 -0.20146573228E+03  0.23755831339E+03  0.12509000000E+03 0.  0.
         25    1    4    4    0    0  0.62615135207E+02 -0.95368096486E+01 -0.28577834399E+03  0.31832118354E+03  0.12509000000E+03 0.  0.
<mgrwt>
<rscale>  2 0.42685635E+03</rscale>
<asrwt>0</asrwt>
<pdfrwt beam="1">  1       21 0.62570498E-02 0.42685635E+03</pdfrwt>
<pdfrwt beam="2">  1       21 0.15744036E+00 0.42685635E+03</pdfrwt>
<totfact> 0.43909507E+04</totfact>
</mgrwt>
</event>
<event>
 7    0  0.4788920E-002  0.3947364E+03  0.7546771E-02  0.1045618E+00
         21   -1    0    0  502  501  0.00000000000E+00  0.00000000000E+00  0.11770062340E+03  0.11770062340E+03  0.00000000000E+00 0.  1.
         21   -1    0    0  501  502 -0.00000000000E+00 -0.00000000000E+00 -0.33096005383E+03  0.33096005383E+03  0.00000000000E+00 0.  1.
      99926    2    1    2    0    0  0.00000000000E+00  0.00000000000E+00 -0.21325943043E+03  0.44866067723E+03  0.39473639131E+03 0.  0.
      99925    2    3    3    0    0  0.18833790460E+02 -0.18973128196E+02 -0.16713049755E+03  0.31268245174E+03  0.26291257323E+03 0.  0.
         25    1    4    4    0    0  0.31698512978E+02  0.22319181838E+02 -0.96388576762E+02  0.16260752576E+03  0.12509000000E+03 0.  0.
         25    1    4    4    0    0 -0.12864722519E+02 -0.41292310035E+02 -0.70741920785E+02  0.15007492599E+03  0.12509000000E+03 0.  0.
         25    1    3    3    0    0 -0.18833790460E+02  0.18973128196E+02 -0.46128932880E+02  0.13597822548E+03  0.12509000000E+03 0.  0.
<mgrwt>
<rscale>  2 0.39473639E+03</rscale>
<asrwt>0</asrwt>
<pdfrwt beam="1">  1       21 0.17308916E-01 0.39473639E+03</pdfrwt>
<pdfrwt beam="2">  1       21 0.48670595E-01 0.39473639E+03</pdfrwt>
<totfact> 0.11495294E+05</totfact>
</mgrwt>
</event>
<event>
 7    0  0.4788920E-002  0.4559967E+03  0.7546771E-02  0.1025949E+00
         21   -1    0    0  502  501  0.00000000000E+00  0.00000000000E+00  0.27764953572E+03  0.27764953572E+03  0.00000000000E+00 0.  1.
         21   -1    0    0  501  502 -0.00000000000E+00 -0.00000000000E+00 -0.18722613597E+03  0.18722613597E+03  0.00000000000E+00 0.  1.
      99926    2    1    2    0    0  0.00000000000E+00  0.00000000000E+00  0.90423399746E+02  0.46487567169E+03  0.45599670932E+03 0.  0.
      99925    2    3    3    0    0 -0.11195606381E+03 -0.72239682231E+01  0.78170791737E+02  0.29640021222E+03  0.26297541174E+03 0.  0.
         25    1    4    4    0    0 -0.63081115088E+02  0.37923134729E+00  0.81056601849E+02  0.16185503298E+03  0.12509000000E+03 0.  0.
         25    1    3    3    0    0  0.11195606381E+03  0.72239682231E+01  0.12252608009E+02  0.16847545947E+03  0.12509000000E+03 0.  0.
         25    1    4    4    0    0 -0.48874948724E+02 -0.76031995704E+01 -0.28858101111E+01  0.13454517924E+03  0.12509000000E+03 0.  0.
<mgrwt>
<rscale>  2 0.45599671E+03</rscale>
<asrwt>0</asrwt>
<pdfrwt beam="1">  1       21 0.40830814E-01 0.45599671E+03</pdfrwt>
<pdfrwt beam="2">  1       21 0.27533255E-01 0.45599671E+03</pdfrwt>
<totfact> 0.67284771E+04</totfact>
</mgrwt>
</event>
<event>
 7    0  0.4788920E-002  0.4570792E+03  0.7546771E-02  0.1025632E+00
         21   -1    0    0  502  501  0.00000000000E+00  0.00000000000E+00  0.33031604436E+03  0.33031604436E+03  0.00000000000E+00 0. -1.
         21   -1    0    0  501  502 -0.00000000000E+00 -0.00000000000E+00 -0.15812234138E+03  0.15812234138E+03  0.00000000000E+00 0. -1.
      99926    2    1    2    0    0  0.00000000000E+00  0.00000000000E+00  0.17219370298E+03  0.48843838574E+03  0.45707918933E+03 0.  0.
      99925    2    3    3    0    0 -0.17567974709E+02  0.66252340370E+02  0.20701440204E+03  0.34161197285E+03  0.26295583470E+03 0.  0.
         25    1    4    4    0    0 -0.10511719091E+02  0.49020143543E+02  0.15356836166E+03  0.20431402427E+03  0.12509000000E+03 0.  0.
         25    1    3    3    0    0  0.17567974709E+02 -0.66252340370E+02 -0.34820699059E+02  0.14682641289E+03  0.12509000000E+03 0.  0.
         25    1    4    4    0    0 -0.70562556177E+01  0.17232196827E+02  0.53446040375E+02  0.13729794857E+03  0.12509000000E+03 0.  0.
<mgrwt>
<rscale>  2 0.45707919E+03</rscale>
<asrwt>0</asrwt>
<pdfrwt beam="1">  1       21 0.48575889E-01 0.45707919E+03</pdfrwt>
<pdfrwt beam="2">  1       21 0.23253286E-01 0.45707919E+03</pdfrwt>
<totfact> 0.65011087E+04</totfact>
</mgrwt>
</event>
<event>
 7    0  0.4788920E-002  0.4562886E+03  0.7546771E-02  0.1025863E+00
         21   -1    0    0  502  501  0.00000000000E+00  0.00000000000E+00  0.30970595249E+03  0.30970595249E+03  0.00000000000E+00 0.  1.
         21   -1    0    0  501  502 -0.00000000000E+00 -0.00000000000E+00 -0.16806204672E+03  0.16806204672E+03  0.00000000000E+00 0.  1.
      99926    2    1    2    0    0  0.00000000000E+00  0.35527136788E-14  0.14164390577E+03  0.47776799922E+03  0.45628857649E+03 0.  0.
      99925    2    3    3    0    0  0.93347293960E+02 -0.16868211647E+02  0.15600939501E+03  0.32012241813E+03  0.26294710001E+03 0.  0.
         25    1    3    3    0    0 -0.93347293960E+02  0.16868211647E+02 -0.14365489243E+02  0.15764558108E+03  0.12509000000E+03 0.  0.
         25    1    4    4    0    0  0.72845419741E+02 -0.37057888742E+02  0.65992218534E+02  0.16334694152E+03  0.12509000000E+03 0.  0.
         25    1    4    4    0    0  0.20501874219E+02  0.20189677095E+02  0.90017176480E+02  0.15677547662E+03  0.12509000000E+03 0.  0.
<mgrwt>
<rscale>  2 0.45628858E+03</rscale>
<asrwt>0</asrwt>
<pdfrwt beam="1">  1       21 0.45544993E-01 0.45628858E+03</pdfrwt>
<pdfrwt beam="2">  1       21 0.24715007E-01 0.45628858E+03</pdfrwt>
<totfact> 0.66183486E+04</totfact>
</mgrwt>
</event>
<event>
 7    0  0.4788920E-002  0.4610706E+03  0.7546771E-02  0.1024471E+00
         21   -1    0    0  502  501  0.00000000000E+00  0.00000000000E+00  0.28773532899E+03  0.28773532899E+03  0.00000000000E+00 0.  1.
         21   -1    0    0  501  502 -0.00000000000E+00 -0.00000000000E+00 -0.18470626545E+03  0.18470626545E+03  0.00000000000E+00 0.  1.
      99926    2    1    2    0    0  0.14210854715E-13  0.00000000000E+00  0.10302906354E+03  0.47244159444E+03  0.46107057185E+03 0.  0.
      99925    2    3    3    0    0 -0.99858009991E+02  0.63882096236E+02  0.74755855141E+02  0.29780074357E+03  0.26276282198E+03 0.  0.
         25    1    3    3    0    0  0.99858009991E+02 -0.63882096236E+02  0.28273208397E+02  0.17464085087E+03  0.12509000000E+03 0.  0.
         25    1    4    4    0    0 -0.82196616535E+01  0.30642025006E+02  0.43322737485E+02  0.13612811692E+03  0.12509000000E+03 0.  0.
         25    1    4    4    0    0 -0.91638348337E+02  0.33240071230E+02  0.31433117656E+02  0.16167262665E+03  0.12509000000E+03 0.  0.
<mgrwt>
<rscale>  2 0.46107057E+03</rscale>
<asrwt>0</asrwt>
<pdfrwt beam="1">  1       21 0.42314019E-01 0.46107057E+03</pdfrwt>
<pdfrwt beam="2">  1       21 0.27162686E-01 0.46107057E+03</pdfrwt>
<totfact> 0.64111474E+04</totfact>
</mgrwt>
</event>
<event>
 7    0  0.4788920E-002  0.4560103E+03  0.7546771E-02  0.1025945E+00
         21   -1    0    0  502  501  0.00000000000E+00  0.00000000000E+00  0.89236719145E+02  0.89236719145E+02  0.00000000000E+00 0.  1.
         21   -1    0    0  501  502 -0.00000000000E+00 -0.00000000000E+00 -0.58256674656E+03  0.58256674656E+03  0.00000000000E+00 0.  1.
      99926    2    1    2    0    0  0.00000000000E+00  0.00000000000E+00 -0.49333002742E+03  0.67180346571E+03  0.45601028561E+03 0.  0.
      99925    2    3    3    0    0  0.72299899177E+02 -0.41424813201E+02 -0.42506401338E+03  0.50672455324E+03  0.26295829862E+03 0.  0.
         25    1    4    4    0    0  0.42922943572E+02 -0.22033072525E+02 -0.28895024507E+03  0.31853977396E+03  0.12509000000E+03 0.  0.
         25    1    3    3    0    0 -0.72299899177E+02  0.41424813201E+02 -0.68266014036E+02  0.16507891247E+03  0.12509000000E+03 0.  0.
         25    1    4    4    0    0  0.29376955606E+02 -0.19391740675E+02 -0.13611376831E+03  0.18818477928E+03  0.12509000000E+03 0.  0.
<mgrwt>
<rscale>  2 0.45601029E+03</rscale>
<asrwt>0</asrwt>
<pdfrwt beam="1">  1       21 0.13123047E-01 0.45601029E+03</pdfrwt>
<pdfrwt beam="2">  1       21 0.85671583E-01 0.45601029E+03</pdfrwt>
<totfact> 0.54029369E+04</totfact>
</mgrwt>
</event>
<event>
 7    0  0.4788920E-002  0.4560401E+03  0.7546771E-02  0.1025936E+00
         21   -1    0    0  502  501  0.00000000000E+00  0.00000000000E+00  0.32636172831E+02  0.32636172831E+02  0.00000000000E+00 0.  1.
         21   -1    0    0  501  502 -0.00000000000E+00 -0.00000000000E+00 -0.15931141097E+04  0.15931141097E+04  0.00000000000E+00 0.  1.
      99926    2    1    2    0    0  0.00000000000E+00  0.00000000000E+00 -0.15604779369E+04  0.16257502825E+04  0.45604011851E+03 0.  0.
      99925    2    3    3    0    0 -0.28791388446E+02  0.26829755860E+02 -0.59792580828E+03  0.65430656918E+03  0.26277944064E+03 0.  0.
         25    1    4    4    0    0 -0.34672430131E+02  0.18653815162E+02 -0.22034401668E+03  0.25641594338E+03  0.12509000000E+03 0.  0.
         25    1    3    3    0    0  0.28791388446E+02 -0.26829755860E+02 -0.96255212861E+03  0.97144371336E+03  0.12509000000E+03 0.  0.
         25    1    4    4    0    0  0.58810416853E+01  0.81759406983E+01 -0.37758179160E+03  0.39789062580E+03  0.12509000000E+03 0.  0.
<mgrwt>
<rscale>  2 0.45604012E+03</rscale>
<asrwt>0</asrwt>
<pdfrwt beam="1">  1       21 0.47994365E-02 0.45604012E+03</pdfrwt>
<pdfrwt beam="2">  1       21 0.23428152E+00 0.45604012E+03</pdfrwt>
<totfact> 0.20686511E+04</totfact>
</mgrwt>
</event>
<event>
 7    0  0.4788920E-002  0.4415929E+03  0.7546771E-02  0.1030259E+00
         21   -1    0    0  502  501  0.00000000000E+00  0.00000000000E+00  0.20317286063E+03  0.20317286063E+03  0.00000000000E+00 0. -1.
         21   -1    0    0  501  502 -0.00000000000E+00 -0.00000000000E+00 -0.23994873764E+03  0.23994873764E+03  0.00000000000E+00 0. -1.
      99926    2    1    2    0    0  0.00000000000E+00  0.00000000000E+00 -0.36775877012E+02  0.44312159828E+03  0.44159289592E+03 0.  0.
      99925    2    3    3    0    0 -0.62302641875E+02 -0.59939363109E+02  0.27035544187E+02  0.27821631634E+03  0.26305712611E+03 0.  0.
         25    1    4    4    0    0 -0.57157083024E+01 -0.12524387306E+02  0.40852028855E+02  0.13230996168E+03  0.12509000000E+03 0.  0.
         25    1    3    3    0    0  0.62302641875E+02  0.59939363109E+02 -0.63811421199E+02  0.16490528193E+03  0.12509000000E+03 0.  0.
         25    1    4    4    0    0 -0.56586933573E+02 -0.47414975804E+02 -0.13816484668E+02  0.14590635466E+03  0.12509000000E+03 0.  0.
<mgrwt>
<rscale>  2 0.44159290E+03</rscale>
<asrwt>0</asrwt>
<pdfrwt beam="1">  1       21 0.29878362E-01 0.44159290E+03</pdfrwt>
<pdfrwt beam="2">  1       21 0.35286579E-01 0.44159290E+03</pdfrwt>
<totfact> 0.77376582E+04</totfact>
</mgrwt>
</event>
<event>
 7    0  0.4788920E-002  0.4164837E+03  0.7546771E-02  0.1038217E+00
         21   -1    0    0  502  501  0.00000000000E+00  0.00000000000E+00  0.74451140716E+03  0.74451140716E+03  0.00000000000E+00 0.  1.
         21   -1    0    0  501  502 -0.00000000000E+00 -0.00000000000E+00 -0.58245816427E+02  0.58245816427E+02  0.00000000000E+00 0.  1.
      99926    2    1    2    0    0  0.00000000000E+00  0.00000000000E+00  0.68626559073E+03  0.80275722359E+03  0.41648373197E+03 0.  0.
      99925    2    3    3    0    0  0.13693699411E+02 -0.58135587552E+02  0.52394780764E+03  0.58930503983E+03  0.26304345818E+03 0.  0.
         25    1    3    3    0    0 -0.13693699411E+02  0.58135587552E+02  0.16231778310E+03  0.21345218376E+03  0.12509000000E+03 0.  0.
         25    1    4    4    0    0  0.20328888261E+02 -0.35720646485E+02  0.18350372618E+03  0.22585471858E+03  0.12509000000E+03 0.  0.
         25    1    4    4    0    0 -0.66351888500E+01 -0.22414941067E+02  0.34044408145E+03  0.36345032124E+03  0.12509000000E+03 0.  0.
<mgrwt>
<rscale>  2 0.41648373E+03</rscale>
<asrwt>0</asrwt>
<pdfrwt beam="1">  1       21 0.10948697E+00 0.41648373E+03</pdfrwt>
<pdfrwt beam="2">  1       21 0.85655617E-02 0.41648373E+03</pdfrwt>
<totfact> 0.65220869E+04</totfact>
</mgrwt>
</event>
<event>
 7    0  0.4788920E-002  0.4529423E+03  0.7546771E-02  0.1026848E+00
         21   -1    0    0  502  501  0.00000000000E+00  0.00000000000E+00  0.31821100143E+02  0.31821100143E+02  0.00000000000E+00 0.  1.
         21   -1    0    0  501  502 -0.00000000000E+00 -0.00000000000E+00 -0.16117980022E+04  0.16117980022E+04  0.00000000000E+00 0.  1.
      99926    2    1    2    0    0  0.44408920985E-15  0.00000000000E+00 -0.15799769020E+04  0.16436191023E+04  0.45294231703E+03 0.  0.
      99925    2    3    3    0    0  0.21051695728E+01  0.50802760632E+02 -0.13551241202E+04  0.13813375097E+04  0.26295737746E+03 0.  0.
         25    1    4    4    0    0 -0.22320938373E+02  0.55964949049E+02 -0.63483665448E+03  0.64984258539E+03  0.12509000000E+03 0.  0.
         25    1    4    4    0    0  0.24426107946E+02 -0.51621884172E+01 -0.72028746568E+03  0.73149492429E+03  0.12509000000E+03 0.  0.
         25    1    3    3    0    0 -0.21051695728E+01 -0.50802760632E+02 -0.22485278189E+03  0.26228159266E+03  0.12509000000E+03 0.  0.
<mgrwt>
<rscale>  2 0.45294232E+03</rscale>
<asrwt>0</asrwt>
<pdfrwt beam="1">  1       21 0.46795742E-02 0.45294232E+03</pdfrwt>
<pdfrwt beam="2">  1       21 0.23702909E+00 0.45294232E+03</pdfrwt>
<totfact> 0.20792012E+04</totfact>
</mgrwt>
</event>
<event>
 7    0  0.4788920E-002  0.4092653E+03  0.7546771E-02  0.1040618E+00
         21   -1    0    0  502  501  0.00000000000E+00  0.00000000000E+00  0.19675034078E+03  0.19675034078E+03  0.00000000000E+00 0.  1.
         21   -1    0    0  501  502 -0.00000000000E+00 -0.00000000000E+00 -0.21283077716E+03  0.21283077716E+03  0.00000000000E+00 0.  1.
      99926    2    1    2    0    0  0.00000000000E+00 -0.44408920985E-15 -0.16080436374E+02  0.40958111794E+03  0.40926533171E+03 0.  0.
      99925    2    3    3    0    0  0.53409225666E+02 -0.21047512276E+01 -0.39613957105E+02  0.27152927963E+03  0.26325255694E+03 0.  0.
         25    1    4    4    0    0  0.65617221297E+02 -0.15708398285E+02 -0.24260061753E+02  0.14418194132E+03  0.12509000000E+03 0.  0.
         25    1    4    4    0    0 -0.12207995631E+02  0.13603647057E+02 -0.15353895352E+02  0.12734733830E+03  0.12509000000E+03 0.  0.
         25    1    3    3    0    0 -0.53409225666E+02  0.21047512276E+01  0.23533520730E+02  0.13805183831E+03  0.12509000000E+03 0.  0.
<mgrwt>
<rscale>  2 0.40926533E+03</rscale>
<asrwt>0</asrwt>
<pdfrwt beam="1">  1       21 0.28933874E-01 0.40926533E+03</pdfrwt>
<pdfrwt beam="2">  1       21 0.31298643E-01 0.40926533E+03</pdfrwt>
<totfact> 0.10559514E+05</totfact>
</mgrwt>
</event>
<event>
 7    0  0.4788920E-002  0.4620580E+03  0.7546771E-02  0.1024186E+00
         21   -1    0    0  502  501  0.00000000000E+00  0.00000000000E+00  0.11508700324E+04  0.11508700324E+04  0.00000000000E+00 0.  1.
         21   -1    0    0  501  502 -0.00000000000E+00 -0.00000000000E+00 -0.46377425935E+02  0.46377425935E+02  0.00000000000E+00 0.  1.
      99926    2    1    2    0    0  0.00000000000E+00 -0.14210854715E-13  0.11044926064E+04  0.11972474583E+04  0.46205796038E+03 0.  0.
      99925    2    3    3    0    0 -0.28101149543E+02 -0.91700539407E+02  0.50490026852E+03  0.57728202111E+03  0.26292886340E+03 0.  0.
         25    1    3    3    0    0  0.28101149543E+02  0.91700539407E+02  0.59959233791E+03  0.61996543720E+03  0.12509000000E+03 0.  0.
         25    1    4    4    0    0 -0.51947657603E+02 -0.59218891065E+02  0.28650842304E+03  0.32239730266E+03  0.12509000000E+03 0.  0.
         25    1    4    4    0    0  0.23846508061E+02 -0.32481648341E+02  0.21839184548E+03  0.25488471845E+03  0.12509000000E+03 0.  0.
<mgrwt>
<rscale>  2 0.46205796E+03</rscale>
<asrwt>0</asrwt>
<pdfrwt beam="1">  1       21 0.16924557E+00 0.46205796E+03</pdfrwt>
<pdfrwt beam="2">  1       21 0.68202105E-02 0.46205796E+03</pdfrwt>
<totfact> 0.30529830E+04</totfact>
</mgrwt>
</event>
<event>
 7    0  0.4788920E-002  0.4514825E+03  0.7546771E-02  0.1027281E+00
         21   -1    0    0  502  501  0.00000000000E+00  0.00000000000E+00  0.10527159868E+03  0.10527159868E+03  0.00000000000E+00 0. -1.
         21   -1    0    0  501  502 -0.00000000000E+00 -0.00000000000E+00 -0.48407278849E+03  0.48407278849E+03  0.00000000000E+00 0. -1.
      99926    2    1    2    0    0  0.17763568394E-14  0.14210854715E-13 -0.37880118981E+03  0.58934438716E+03  0.45148251935E+03 0.  0.
      99925    2    3    3    0    0  0.14092666976E+02 -0.84871794594E+02 -0.14999633234E+03  0.31475196978E+03  0.26299824711E+03 0.  0.
         25    1    4    4    0    0  0.27022530639E+02 -0.12212116908E+02 -0.47772638109E+02  0.13714622129E+03  0.12509000000E+03 0.  0.
         25    1    4    4    0    0 -0.12929863663E+02 -0.72659677686E+02 -0.10222369423E+03  0.17760574849E+03  0.12509000000E+03 0.  0.
         25    1    3    3    0    0 -0.14092666976E+02  0.84871794594E+02 -0.22880485748E+03  0.27459241739E+03  0.12509000000E+03 0.  0.
<mgrwt>
<rscale>  2 0.45148252E+03</rscale>
<asrwt>0</asrwt>
<pdfrwt beam="1">  1       21 0.15481118E-01 0.45148252E+03</pdfrwt>
<pdfrwt beam="2">  1       21 0.71187174E-01 0.45148252E+03</pdfrwt>
<totfact> 0.61017705E+04</totfact>
</mgrwt>
</event>
<event>
 7    0  0.4788920E-002  0.4569126E+03  0.7546771E-02  0.1025680E+00
         21   -1    0    0  502  501  0.00000000000E+00  0.00000000000E+00  0.81218619911E+02  0.81218619911E+02  0.00000000000E+00 0. -1.
         21   -1    0    0  501  502 -0.00000000000E+00 -0.00000000000E+00 -0.64261462066E+03  0.64261462066E+03  0.00000000000E+00 0. -1.
      99926    2    1    2    0    0  0.00000000000E+00  0.00000000000E+00 -0.56139600075E+03  0.72383324057E+03  0.45691256330E+03 0.  0.
      99925    2    3    3    0    0 -0.64280799528E+02 -0.94511861085E+02 -0.33043993828E+03  0.43738477406E+03  0.26277437983E+03 0.  0.
         25    1    4    4    0    0  0.68248076204E+01 -0.58321065637E+02 -0.16015907704E+03  0.21153336086E+03  0.12509000000E+03 0.  0.
         25    1    4    4    0    0 -0.71105607148E+02 -0.36190795448E+02 -0.17028086123E+03  0.22585141320E+03  0.12509000000E+03 0.  0.
         25    1    3    3    0    0  0.64280799528E+02  0.94511861085E+02 -0.23095606247E+03  0.28644846651E+03  0.12509000000E+03 0.  0.
<mgrwt>
<rscale>  2 0.45691256E+03</rscale>
<asrwt>0</asrwt>
<pdfrwt beam="1">  1       21 0.11943915E-01 0.45691256E+03</pdfrwt>
<pdfrwt beam="2">  1       21 0.94502150E-01 0.45691256E+03</pdfrwt>
<totfact> 0.50858697E+04</totfact>
</mgrwt>
</event>
<event>
 7    0  0.4788920E-002  0.4523525E+03  0.7546771E-02  0.1027023E+00
         21   -1    0    0  502  501  0.00000000000E+00  0.00000000000E+00  0.71476257834E+02  0.71476257834E+02  0.00000000000E+00 0. -1.
         21   -1    0    0  501  502 -0.00000000000E+00 -0.00000000000E+00 -0.71570208276E+03  0.71570208276E+03  0.00000000000E+00 0. -1.
      99926    2    1    2    0    0 -0.71054273576E-14 -0.17763568394E-14 -0.64422582493E+03  0.78717834060E+03  0.45235254658E+03 0.  0.
      99925    2    3    3    0    0  0.40868507398E+02  0.97542424056E+01 -0.58451144135E+03  0.64233809809E+03  0.26301944235E+03 0.  0.
         25    1    3    3    0    0 -0.40868507398E+02 -0.97542424056E+01 -0.59714383582E+02  0.14484024250E+03  0.12509000000E+03 0.  0.
         25    1    4    4    0    0  0.51483555874E+02  0.14658624519E+02 -0.24374940465E+03  0.27915356377E+03  0.12509000000E+03 0.  0.
         25    1    4    4    0    0 -0.10615048477E+02 -0.49043821137E+01 -0.34076203670E+03  0.36318453433E+03  0.12509000000E+03 0.  0.
<mgrwt>
<rscale>  2 0.45235255E+03</rscale>
<asrwt>0</asrwt>
<pdfrwt beam="1">  1       21 0.10511214E-01 0.45235255E+03</pdfrwt>
<pdfrwt beam="2">  1       21 0.10525031E+00 0.45235255E+03</pdfrwt>
<totfact> 0.49409976E+04</totfact>
</mgrwt>
</event>
<event>
 7    0  0.4788920E-002  0.4550975E+03  0.7546771E-02  0.1026213E+00
         21   -1    0    0  502  501  0.00000000000E+00  0.00000000000E+00  0.76138238582E+03  0.76138238582E+03  0.00000000000E+00 0.  1.
         21   -1    0    0  501  502 -0.00000000000E+00 -0.00000000000E+00 -0.68005812552E+02  0.68005812552E+02  0.00000000000E+00 0.  1.
      99926    2    1    2    0    0 -0.35527136788E-14  0.00000000000E+00  0.69337657327E+03  0.82938819837E+03  0.45509747444E+03 0.  0.
      99925    2    3    3    0    0 -0.28365915106E+02 -0.88646691746E+02  0.31944344314E+03  0.42425074638E+03  0.26321421189E+03 0.  0.
         25    1    3    3    0    0  0.28365915106E+02  0.88646691746E+02  0.37393313013E+03  0.40513745199E+03  0.12509000000E+03 0.  0.
         25    1    4    4    0    0 -0.46177811587E+02 -0.20848052714E+02  0.17126703020E+03  0.21805259759E+03  0.12509000000E+03 0.  0.
         25    1    4    4    0    0  0.17811896481E+02 -0.67798639031E+02  0.14817641294E+03  0.20619814879E+03  0.12509000000E+03 0.  0.
<mgrwt>
<rscale>  2 0.45509747E+03</rscale>
<asrwt>0</asrwt>
<pdfrwt beam="1">  1       21 0.11196799E+00 0.45509747E+03</pdfrwt>
<pdfrwt beam="2">  1       21 0.10000855E-01 0.45509747E+03</pdfrwt>
<totfact> 0.46340510E+04</totfact>
</mgrwt>
</event>
<event>
 7    0  0.4788920E-002  0.4349974E+03  0.7546771E-02  0.1032293E+00
         21   -1    0    0  502  501  0.00000000000E+00  0.00000000000E+00  0.82114559439E+02  0.82114559439E+02  0.00000000000E+00 0.  1.
         21   -1    0    0  501  502 -0.00000000000E+00 -0.00000000000E+00 -0.57609363990E+03  0.57609363990E+03  0.00000000000E+00 0.  1.
      99926    2    1    2    0    0 -0.71054273576E-14  0.00000000000E+00 -0.49397908046E+03  0.65820819933E+03  0.43499735832E+03 0.  0.
      99925    2    3    3    0    0  0.49237379724E+02 -0.60585425484E+02 -0.39378829843E+03  0.47993701758E+03  0.26301217370E+03 0.  0.
         25    1    4    4    0    0  0.13700604831E-01 -0.62359205821E+02 -0.19293945585E+03  0.23824737661E+03  0.12509000000E+03 0.  0.
         25    1    3    3    0    0 -0.49237379724E+02  0.60585425484E+02 -0.10019078202E+03  0.17827118176E+03  0.12509000000E+03 0.  0.
         25    1    4    4    0    0  0.49223679119E+02  0.17737803364E+01 -0.20084884259E+03  0.24168964097E+03  0.12509000000E+03 0.  0.
<mgrwt>
<rscale>  2 0.43499736E+03</rscale>
<asrwt>0</asrwt>
<pdfrwt beam="1">  1       21 0.12075671E-01 0.43499736E+03</pdfrwt>
<pdfrwt beam="2">  1       21 0.84719653E-01 0.43499736E+03</pdfrwt>
<totfact> 0.64867691E+04</totfact>
</mgrwt>
</event>
<event>
 7    0  0.4788920E-002  0.4436546E+03  0.7546771E-02  0.1029631E+00
         21   -1    0    0  502  501  0.00000000000E+00  0.00000000000E+00  0.19285976973E+03  0.19285976973E+03  0.00000000000E+00 0.  1.
         21   -1    0    0  501  502 -0.00000000000E+00 -0.00000000000E+00 -0.25514577433E+03  0.25514577433E+03  0.00000000000E+00 0.  1.
      99926    2    1    2    0    0  0.35527136788E-14  0.00000000000E+00 -0.62286004599E+02  0.44800554406E+03  0.44365461920E+03 0.  0.
      99925    2    3    3    0    0  0.99987953670E+01 -0.40333833095E+02 -0.13384885577E+03  0.29802039890E+03  0.26300921651E+03 0.  0.
         25    1    4    4    0    0 -0.31493514012E+02 -0.92970164342E+01 -0.81439472238E+02  0.15283380411E+03  0.12509000000E+03 0.  0.
         25    1    4    4    0    0  0.41492309379E+02 -0.31036816660E+02 -0.52409383529E+02  0.14518659479E+03  0.12509000000E+03 0.  0.
         25    1    3    3    0    0 -0.99987953670E+01  0.40333833095E+02  0.71562851168E+02  0.14998514516E+03  0.12509000000E+03 0.  0.
<mgrwt>
<rscale>  2 0.44365462E+03</rscale>
<asrwt>0</asrwt>
<pdfrwt beam="1">  1       21 0.28361731E-01 0.44365462E+03</pdfrwt>
<pdfrwt beam="2">  1       21 0.37521437E-01 0.44365462E+03</pdfrwt>
<totfact> 0.75682874E+04</totfact>
</mgrwt>
</event>
<event>
 7    0  0.4788920E-002  0.4591150E+03  0.7546771E-02  0.1025038E+00
         21   -1    0    0  502  501  0.00000000000E+00  0.00000000000E+00  0.46309695304E+02  0.46309695304E+02  0.00000000000E+00 0.  1.
         21   -1    0    0  501  502 -0.00000000000E+00 -0.00000000000E+00 -0.11379179985E+04  0.11379179985E+04  0.00000000000E+00 0.  1.
      99926    2    1    2    0    0  0.71054273576E-14  0.00000000000E+00 -0.10916083032E+04  0.11842276938E+04  0.45911495638E+03 0.  0.
      99925    2    3    3    0    0 -0.38447202156E+02 -0.75963239064E+02 -0.89136064493E+03  0.93323918056E+03  0.26298853160E+03 0.  0.
         25    1    3    3    0    0  0.38447202156E+02  0.75963239064E+02 -0.20024765829E+03  0.25098851327E+03  0.12509000000E+03 0.  0.
         25    1    4    4    0    0 -0.53681135890E+02 -0.46330463852E+02 -0.39800286436E+03  0.42318077032E+03  0.12509000000E+03 0.  0.
         25    1    4    4    0    0  0.15233933734E+02 -0.29632775212E+02 -0.49335778057E+03  0.51005841024E+03  0.12509000000E+03 0.  0.
<mgrwt>
<rscale>  2 0.45911496E+03</rscale>
<asrwt>0</asrwt>
<pdfrwt beam="1">  1       21 0.68102487E-02 0.45911496E+03</pdfrwt>
<pdfrwt beam="2">  1       21 0.16734090E+00 0.45911496E+03</pdfrwt>
<totfact> 0.31633470E+04</totfact>
</mgrwt>
</event>
<event>
 7    0  0.4788920E-002  0.4520540E+03  0.7546771E-02  0.1027111E+00
         21   -1    0    0  502  501  0.00000000000E+00  0.00000000000E+00  0.16208826796E+03  0.16208826796E+03  0.00000000000E+00 0. -1.
         21   -1    0    0  501  502 -0.00000000000E+00 -0.00000000000E+00 -0.31518752611E+03  0.31518752611E+03  0.00000000000E+00 0. -1.
      99926    2    1    2    0    0  0.00000000000E+00  0.00000000000E+00 -0.15309925815E+03  0.47727579407E+03  0.45205397992E+03 0.  0.
      99925    2    3    3    0    0  0.24864302815E+02  0.28159316522E+02 -0.20621084221E+03  0.33628101004E+03  0.26296544566E+03 0.  0.
         25    1    4    4    0    0  0.67902188612E+01  0.41487763754E+02 -0.14213662133E+03  0.19395274898E+03  0.12509000000E+03 0.  0.
         25    1    4    4    0    0  0.18074083954E+02 -0.13328447232E+02 -0.64074220884E+02  0.14232826107E+03  0.12509000000E+03 0.  0.
         25    1    3    3    0    0 -0.24864302815E+02 -0.28159316522E+02  0.53111584064E+02  0.14099478403E+03  0.12509000000E+03 0.  0.
<mgrwt>
<rscale>  2 0.45205398E+03</rscale>
<asrwt>0</asrwt>
<pdfrwt beam="1">  1       21 0.23836510E-01 0.45205398E+03</pdfrwt>
<pdfrwt beam="2">  1       21 0.46351106E-01 0.45205398E+03</pdfrwt>
<totfact> 0.68486404E+04</totfact>
</mgrwt>
</event>
<event>
 7    0  0.4788920E-002  0.4540605E+03  0.7546771E-02  0.1026518E+00
         21   -1    0    0  502  501  0.00000000000E+00  0.00000000000E+00  0.16830383624E+04  0.16830383624E+04  0.00000000000E+00 0.  1.
         21   -1    0    0  501  502 -0.00000000000E+00 -0.00000000000E+00 -0.30624818746E+02  0.30624818746E+02  0.00000000000E+00 0.  1.
      99926    2    1    2    0    0  0.00000000000E+00  0.00000000000E+00  0.16524135436E+04  0.17136631811E+04  0.45406054570E+03 0.  0.
      99925    2    3    3    0    0  0.65570826974E+02  0.78947682434E+02  0.85861439159E+03  0.90354166444E+03  0.26198586989E+03 0.  0.
         25    1    3    3    0    0 -0.65570826974E+02 -0.78947682434E+02  0.79379915204E+03  0.81012151668E+03  0.12509000000E+03 0.  0.
         25    1    4    4    0    0  0.48373266880E+02  0.32879005849E+02  0.54729196724E+03  0.56444398082E+03  0.12509000000E+03 0.  0.
         25    1    4    4    0    0  0.17197560094E+02  0.46068676584E+02  0.31132242435E+03  0.33909768362E+03  0.12509000000E+03 0.  0.
<mgrwt>
<rscale>  2 0.45406055E+03</rscale>
<asrwt>0</asrwt>
<pdfrwt beam="1">  1       21 0.24750558E+00 0.45406055E+03</pdfrwt>
<pdfrwt beam="2">  1       21 0.45036510E-02 0.45406055E+03</pdfrwt>
<totfact> 0.19117946E+04</totfact>
</mgrwt>
</event>
<event>
 7    0  0.4788920E-002  0.4464159E+03  0.7546771E-02  0.1028796E+00
         21   -1    0    0  502  501  0.00000000000E+00  0.00000000000E+00  0.16642877460E+03  0.16642877460E+03  0.00000000000E+00 0.  1.
         21   -1    0    0  501  502 -0.00000000000E+00 -0.00000000000E+00 -0.29935805038E+03  0.29935805038E+03  0.00000000000E+00 0.  1.
      99926    2    1    2    0    0  0.00000000000E+00  0.17763568394E-14 -0.13292927578E+03  0.46578682498E+03  0.44641592038E+03 0.  0.
      99925    2    3    3    0    0 -0.80142425948E+02  0.10616440001E+02 -0.14190657567E+02  0.27530878218E+03  0.26278895248E+03 0.  0.
         25    1    4    4    0    0 -0.24859891793E+02 -0.24902645120E+02 -0.29292446757E+02  0.13320552350E+03  0.12509000000E+03 0.  0.
         25    1    4    4    0    0 -0.55282534154E+02  0.35519085122E+02  0.15101789189E+02  0.14210325868E+03  0.12509000000E+03 0.  0.
         25    1    3    3    0    0  0.80142425948E+02 -0.10616440001E+02 -0.11873861821E+03  0.19047804280E+03  0.12509000000E+03 0.  0.
<mgrwt>
<rscale>  2 0.44641592E+03</rscale>
<asrwt>0</asrwt>
<pdfrwt beam="1">  1       21 0.24474820E-01 0.44641592E+03</pdfrwt>
<pdfrwt beam="2">  1       21 0.44023243E-01 0.44641592E+03</pdfrwt>
<totfact> 0.72568045E+04</totfact>
</mgrwt>
</event>
<event>
 7    0  0.4788920E-002  0.4489946E+03  0.7546771E-02  0.1028022E+00
         21   -1    0    0  502  501  0.00000000000E+00  0.00000000000E+00  0.28325014809E+03  0.28325014809E+03  0.00000000000E+00 0. -1.
         21   -1    0    0  501  502 -0.00000000000E+00 -0.00000000000E+00 -0.17793116591E+03  0.17793116591E+03  0.00000000000E+00 0. -1.
      99926    2    1    2    0    0 -0.17763568394E-14 -0.14210854715E-13  0.10531898218E+03  0.46118131401E+03  0.44899456164E+03 0.  0.
      99925    2    3    3    0    0 -0.10489075076E+02  0.10674061463E+03  0.55819417655E+02  0.28913104665E+03  0.26263544171E+03 0.  0.
         25    1    3    3    0    0  0.10489075076E+02 -0.10674061463E+03  0.49499564522E+02  0.17205026735E+03  0.12509000000E+03 0.  0.
         25    1    4    4    0    0 -0.38154365800E+02  0.74120706693E+02  0.42762437532E+02  0.15628745616E+03  0.12509000000E+03 0.  0.
         25    1    4    4    0    0  0.27665290724E+02  0.32619907938E+02  0.13056980124E+02  0.13284359049E+03  0.12509000000E+03 0.  0.
<mgrwt>
<rscale>  2 0.44899456E+03</rscale>
<asrwt>0</asrwt>
<pdfrwt beam="1">  1       21 0.41654434E-01 0.44899456E+03</pdfrwt>
<pdfrwt beam="2">  1       21 0.26166348E-01 0.44899456E+03</pdfrwt>
<totfact> 0.71440443E+04</totfact>
</mgrwt>
</event>
<event>
 7    0  0.4788920E-002  0.4546906E+03  0.7546771E-02  0.1026332E+00
         21   -1    0    0  502  501  0.00000000000E+00  0.00000000000E+00  0.51804640414E+03  0.51804640414E+03  0.00000000000E+00 0. -1.
         21   -1    0    0  501  502 -0.00000000000E+00 -0.00000000000E+00 -0.99770760803E+02  0.99770760803E+02  0.00000000000E+00 0. -1.
      99926    2    1    2    0    0  0.71054273576E-14 -0.13322676296E-14  0.41827564334E+03  0.61781716495E+03  0.45469059314E+03 0.  0.
      99925    2    3    3    0    0  0.49175954323E+02  0.36538241847E+01  0.12544413348E+03  0.29559142702E+03  0.26307116183E+03 0.  0.
         25    1    3    3    0    0 -0.49175954323E+02 -0.36538241847E+01  0.29283150987E+03  0.32222573793E+03  0.12509000000E+03 0.  0.
         25    1    4    4    0    0 -0.12324329383E+01 -0.20220476248E+02  0.85704847742E+02  0.15298109549E+03  0.12509000000E+03 0.  0.
         25    1    4    4    0    0  0.50408387261E+02  0.23874300433E+02  0.39739285733E+02  0.14261033153E+03  0.12509000000E+03 0.  0.
<mgrwt>
<rscale>  2 0.45469059E+03</rscale>
<asrwt>0</asrwt>
<pdfrwt beam="1">  1       21 0.76183293E-01 0.45469059E+03</pdfrwt>
<pdfrwt beam="2">  1       21 0.14672171E-01 0.45469059E+03</pdfrwt>
<totfact> 0.57735706E+04</totfact>
</mgrwt>
</event>
<event>
 7    0  0.4788920E-002  0.5157081E+03  0.7546771E-02  0.1009758E+00
         21   -1    0    0  502  501  0.00000000000E+00  0.00000000000E+00  0.23271962689E+03  0.23271962689E+03  0.00000000000E+00 0.  1.
         21   -1    0    0  501  502 -0.00000000000E+00 -0.00000000000E+00 -0.28570305324E+03  0.28570305324E+03  0.00000000000E+00 0.  1.
      99926    2    1    2    0    0  0.00000000000E+00  0.00000000000E+00 -0.52983426345E+02  0.51842268013E+03  0.51570808779E+03 0.  0.
      99925    2    3    3    0    0 -0.11856031500E+03  0.11123084954E+02 -0.14452680614E+03  0.32295408983E+03  0.26311798709E+03 0.  0.
         25    1    4    4    0    0 -0.95178715310E+02 -0.16238085491E+01 -0.53779958431E+02  0.16613674076E+03  0.12509000000E+03 0.  0.
         25    1    3    3    0    0  0.11856031500E+03 -0.11123084954E+02  0.91543379796E+02  0.19546859031E+03  0.12509000000E+03 0.  0.
         25    1    4    4    0    0 -0.23381599689E+02  0.12746893503E+02 -0.90746847710E+02  0.15681734906E+03  0.12509000000E+03 0.  0.
<mgrwt>
<rscale>  2 0.51570809E+03</rscale>
<asrwt>0</asrwt>
<pdfrwt beam="1">  1       21 0.34223475E-01 0.51570809E+03</pdfrwt>
<pdfrwt beam="2">  1       21 0.42015155E-01 0.51570809E+03</pdfrwt>
<totfact> 0.40598091E+04</totfact>
</mgrwt>
</event>
<event>
 7    0  0.4788920E-002  0.4512401E+03  0.7546771E-02  0.1027353E+00
         21   -1    0    0  502  501  0.00000000000E+00  0.00000000000E+00  0.34676493078E+03  0.34676493078E+03  0.00000000000E+00 0. -1.
         21   -1    0    0  501  502 -0.00000000000E+00 -0.00000000000E+00 -0.14679804587E+03  0.14679804587E+03  0.00000000000E+00 0. -1.
      99926    2    1    2    0    0  0.35527136788E-14  0.00000000000E+00  0.19996688492E+03  0.49356297665E+03  0.45124013215E+03 0.  0.
      99925    2    3    3    0    0 -0.28079738195E+02 -0.34926714410E+02  0.23569821692E+03  0.35596725265E+03  0.26296518482E+03 0.  0.
         25    1    4    4    0    0 -0.36271112554E+02 -0.44061696056E+02  0.15199634972E+03  0.20495712989E+03  0.12509000000E+03 0.  0.
         25    1    3    3    0    0  0.28079738195E+02  0.34926714410E+02 -0.35731332001E+02  0.13759572400E+03  0.12509000000E+03 0.  0.
         25    1    4    4    0    0  0.81913743591E+01  0.91349816459E+01  0.83701867193E+02  0.15101012276E+03  0.12509000000E+03 0.  0.
<mgrwt>
<rscale>  2 0.45124013E+03</rscale>
<asrwt>0</asrwt>
<pdfrwt beam="1">  1       21 0.50994843E-01 0.45124013E+03</pdfrwt>
<pdfrwt beam="2">  1       21 0.21587948E-01 0.45124013E+03</pdfrwt>
<totfact> 0.67724232E+04</totfact>
</mgrwt>
</event>
<event>
 7    0  0.4788920E-002  0.4589292E+03  0.7546771E-02  0.1025092E+00
         21   -1    0    0  502  501  0.00000000000E+00  0.00000000000E+00  0.35265362201E+03  0.35265362201E+03  0.00000000000E+00 0. -1.
         21   -1    0    0  501  502 -0.00000000000E+00 -0.00000000000E+00 -0.14930799675E+03  0.14930799675E+03  0.00000000000E+00 0. -1.
      99926    2    1    2    0    0 -0.14210854715E-13  0.00000000000E+00  0.20334562526E+03  0.50196161876E+03  0.45892921393E+03 0.  0.
      99925    2    3    3    0    0 -0.88752148671E+02 -0.18469556220E+02  0.20819436094E+03  0.34740067046E+03  0.26291493969E+03 0.  0.
         25    1    4    4    0    0 -0.53976916425E+02 -0.62664831046E+01  0.57209727927E+02  0.14789603574E+03  0.12509000000E+03 0.  0.
         25    1    3    3    0    0  0.88752148671E+02  0.18469556220E+02 -0.48487356840E+01  0.15456094830E+03  0.12509000000E+03 0.  0.
         25    1    4    4    0    0 -0.34775232245E+02 -0.12203073115E+02  0.15098463301E+03  0.19950463473E+03  0.12509000000E+03 0.  0.
<mgrwt>
<rscale>  2 0.45892921E+03</rscale>
<asrwt>0</asrwt>
<pdfrwt beam="1">  1       21 0.51860827E-01 0.45892921E+03</pdfrwt>
<pdfrwt beam="2">  1       21 0.21957058E-01 0.45892921E+03</pdfrwt>
<totfact> 0.63140589E+04</totfact>
</mgrwt>
</event>
<event>
 7    0  0.4788920E-002  0.4661446E+03  0.7546771E-02  0.1023014E+00
         21   -1    0    0  502  501  0.00000000000E+00  0.00000000000E+00  0.16153073428E+04  0.16153073428E+04  0.00000000000E+00 0.  1.
         21   -1    0    0  501  502 -0.00000000000E+00 -0.00000000000E+00 -0.33629947998E+02  0.33629947998E+02  0.00000000000E+00 0.  1.
      99926    2    1    2    0    0  0.00000000000E+00  0.00000000000E+00  0.15816773948E+04  0.16489372908E+04  0.46614462107E+03 0.  0.
      99925    2    3    3    0    0  0.81207621701E+02  0.51968707900E+02  0.12577725503E+04  0.12885801335E+04  0.26296681868E+03 0.  0.
         25    1    4    4    0    0  0.61166562549E+02  0.52426065170E+02  0.56162076690E+03  0.58099503836E+03  0.12509000000E+03 0.  0.
         25    1    4    4    0    0  0.20041059152E+02 -0.45735727022E+00  0.69615178343E+03  0.70758509517E+03  0.12509000000E+03 0.  0.
         25    1    3    3    0    0 -0.81207621701E+02 -0.51968707900E+02  0.32390484443E+03  0.36035715723E+03  0.12509000000E+03 0.  0.
<mgrwt>
<rscale>  2 0.46614462E+03</rscale>
<asrwt>0</asrwt>
<pdfrwt beam="1">  1       21 0.23754515E+00 0.46614462E+03</pdfrwt>
<pdfrwt beam="2">  1       21 0.49455817E-02 0.46614462E+03</pdfrwt>
<totfact> 0.18677031E+04</totfact>
</mgrwt>
</event>
<event>
 6    0  0.4788920E-002  0.4493672E+03  0.7546771E-02  0.1027911E+00
         21   -1    0    0  502  501  0.00000000000E+00  0.00000000000E+00  0.52598669226E+03  0.52598669226E+03  0.00000000000E+00 0. -1.
         21   -1    0    0  501  502 -0.00000000000E+00 -0.00000000000E+00 -0.95977197941E+02  0.95977197941E+02  0.00000000000E+00 0. -1.
      99926    2    1    2    0    0  0.00000000000E+00  0.00000000000E+00  0.43000949432E+03  0.62196389020E+03  0.44936723903E+03 0.  0.
         25    1    3    3    0    0 -0.11393560370E+02  0.66721242376E+01  0.15298214978E+03  0.19805397423E+03  0.12509000000E+03 0.  0.
         25    1    3    3    0    0 -0.27122474261E+02 -0.97513657289E+02  0.15253343717E+03  0.22171716109E+03  0.12509000000E+03 0.  0.
         25    1    3    3    0    0  0.38516034631E+02  0.90841533051E+02  0.12449390737E+03  0.20219275487E+03  0.12509000000E+03 0.  0.
<mgrwt>
<rscale>  2 0.44936724E+03</rscale>
<asrwt>0</asrwt>
<pdfrwt beam="1">  1       21 0.77350983E-01 0.44936724E+03</pdfrwt>
<pdfrwt beam="2">  1       21 0.14114294E-01 0.44936724E+03</pdfrwt>
<totfact> 0.59969251E+04</totfact>
</mgrwt>
</event>
<event>
 7    0  0.4788920E-002  0.4531027E+03  0.7546771E-02  0.1026801E+00
         21   -1    0    0  502  501  0.00000000000E+00  0.00000000000E+00  0.12187383411E+04  0.12187383411E+04  0.00000000000E+00 0. -1.
         21   -1    0    0  501  502 -0.00000000000E+00 -0.00000000000E+00 -0.42113642771E+02  0.42113642771E+02  0.00000000000E+00 0. -1.
      99926    2    1    2    0    0  0.00000000000E+00  0.71054273576E-14  0.11766246983E+04  0.12608519838E+04  0.45310268649E+03 0.  0.
      99925    2    3    3    0    0  0.59405311122E+02  0.56632851283E+02  0.53184666483E+03  0.59894376409E+03  0.26293818059E+03 0.  0.
         25    1    4    4    0    0  0.38527598112E+02  0.67589224079E+02  0.30860156613E+03  0.34195776602E+03  0.12509000000E+03 0.  0.
         25    1    3    3    0    0 -0.59405311122E+02 -0.56632851283E+02  0.64477803348E+03  0.66190821976E+03  0.12509000000E+03 0.  0.
         25    1    4    4    0    0  0.20877713010E+02 -0.10956372796E+02  0.22324509871E+03  0.25698599806E+03  0.12509000000E+03 0.  0.
<mgrwt>
<rscale>  2 0.45310269E+03</rscale>
<asrwt>0</asrwt>
<pdfrwt beam="1">  1       21 0.17922620E+00 0.45310269E+03</pdfrwt>
<pdfrwt beam="2">  1       21 0.61931835E-02 0.45310269E+03</pdfrwt>
<totfact> 0.30724392E+04</totfact>
</mgrwt>
</event>
<event>
 7    0  0.4788920E-002  0.4525357E+03  0.7546771E-02  0.1026969E+00
         21   -1    0    0  502  501  0.00000000000E+00  0.00000000000E+00  0.14287594729E+03  0.14287594729E+03  0.00000000000E+00 0. -1.
         21   -1    0    0  501  502 -0.00000000000E+00 -0.00000000000E+00 -0.35833277978E+03  0.35833277978E+03  0.00000000000E+00 0. -1.
      99926    2    1    2    0    0  0.00000000000E+00  0.41633363423E-15 -0.21545683249E+03  0.50120872708E+03  0.45253567973E+03 0.  0.
      99925    2    3    3    0    0 -0.10986589392E+03 -0.19640682658E+00 -0.11931134191E+03  0.30895364475E+03  0.26295742065E+03 0.  0.
         25    1    4    4    0    0 -0.97702105465E+02  0.80479357672E+01 -0.70790239795E+02  0.17398056453E+03  0.12509000000E+03 0.  0.
         25    1    3    3    0    0  0.10986589392E+03  0.19640682658E+00 -0.96145490580E+02  0.19225508233E+03  0.12509000000E+03 0.  0.
         25    1    4    4    0    0 -0.12163788455E+02 -0.82443425938E+01 -0.48521102113E+02  0.13497308022E+03  0.12509000000E+03 0.  0.
<mgrwt>
<rscale>  2 0.45253568E+03</rscale>
<asrwt>0</asrwt>
<pdfrwt beam="1">  1       21 0.21011169E-01 0.45253568E+03</pdfrwt>
<pdfrwt beam="2">  1       21 0.52695997E-01 0.45253568E+03</pdfrwt>
<totfact> 0.66476693E+04</totfact>
</mgrwt>
</event>
<event>
 7    0  0.4788920E-002  0.4514582E+03  0.7546771E-02  0.1027288E+00
         21   -1    0    0  502  501  0.00000000000E+00  0.00000000000E+00  0.24647238033E+03  0.24647238033E+03  0.00000000000E+00 0.  1.
         21   -1    0    0  501  502 -0.00000000000E+00 -0.00000000000E+00 -0.20673160015E+03  0.20673160015E+03  0.00000000000E+00 0.  1.
      99926    2    1    2    0    0  0.00000000000E+00  0.71054273576E-14  0.39740780181E+02  0.45320398048E+03  0.45145821325E+03 0.  0.
      99925    2    3    3    0    0 -0.77929536838E+02 -0.45158480818E+02  0.87768014817E+02  0.29175298337E+03  0.26325705646E+03 0.  0.
         25    1    4    4    0    0 -0.23268972416E+02  0.16685708103E+02  0.43147131096E+02  0.13538478849E+03  0.12509000000E+03 0.  0.
         25    1    4    4    0    0 -0.54660564422E+02 -0.61844188921E+02  0.44620883721E+02  0.15636819488E+03  0.12509000000E+03 0.  0.
         25    1    3    3    0    0  0.77929536838E+02  0.45158480818E+02 -0.48027234636E+02  0.16145099711E+03  0.12509000000E+03 0.  0.
<mgrwt>
<rscale>  2 0.45145821E+03</rscale>
<asrwt>0</asrwt>
<pdfrwt beam="1">  1       21 0.36245938E-01 0.45145821E+03</pdfrwt>
<pdfrwt beam="2">  1       21 0.30401706E-01 0.45145821E+03</pdfrwt>
<totfact> 0.70653144E+04</totfact>
</mgrwt>
</event>
<event>
 7    0  0.4788920E-002  0.4801407E+03  0.7546771E-02  0.1019097E+00
         21   -1    0    0  502  501  0.00000000000E+00  0.00000000000E+00  0.55416614379E+02  0.55416614379E+02  0.00000000000E+00 0.  1.
         21   -1    0    0  501  502 -0.00000000000E+00 -0.00000000000E+00 -0.10400088601E+04  0.10400088601E+04  0.00000000000E+00 0.  1.
      99926    2    1    2    0    0  0.28421709430E-13  0.00000000000E+00 -0.98459224576E+03  0.10954254745E+04  0.48014068752E+03 0.  0.
      99925    2    3    3    0    0  0.13544874841E+03 -0.96328132492E+00 -0.60144624426E+03  0.67022474789E+03  0.26289986039E+03 0.  0.
         25    1    4    4    0    0  0.34555485121E+02 -0.16181525441E+02 -0.21854692837E+03  0.25468842007E+03  0.12509000000E+03 0.  0.
         25    1    4    4    0    0  0.10089326329E+03  0.15218244116E+02 -0.38289931589E+03  0.41553632782E+03  0.12509000000E+03 0.  0.
         25    1    3    3    0    0 -0.13544874841E+03  0.96328132492E+00 -0.38314600150E+03  0.42520072663E+03  0.12509000000E+03 0.  0.
<mgrwt>
<rscale>  2 0.48014069E+03</rscale>
<asrwt>0</asrwt>
<pdfrwt beam="1">  1       21 0.81495030E-02 0.48014069E+03</pdfrwt>
<pdfrwt beam="2">  1       21 0.15294246E+00 0.48014069E+03</pdfrwt>
<totfact> 0.29440673E+04</totfact>
</mgrwt>
</event>
<event>
 7    0  0.4788920E-002  0.4645204E+03  0.7546771E-02  0.1023478E+00
         21   -1    0    0  502  501  0.00000000000E+00  0.00000000000E+00  0.26509712041E+03  0.26509712041E+03  0.00000000000E+00 0. -1.
         21   -1    0    0  501  502 -0.00000000000E+00 -0.00000000000E+00 -0.20349070217E+03  0.20349070217E+03  0.00000000000E+00 0. -1.
      99926    2    1    2    0    0  0.00000000000E+00  0.14210854715E-13  0.61606418235E+02  0.46858782258E+03  0.46452039428E+03 0.  0.
      99925    2    3    3    0    0  0.78401027330E+02  0.85069145685E+02  0.77110670445E+02  0.29749904279E+03  0.26301358203E+03 0.  0.
         25    1    4    4    0    0  0.51265629259E+02  0.91842446064E+01  0.15268001277E+02  0.13635664654E+03  0.12509000000E+03 0.  0.
         25    1    4    4    0    0  0.27135398071E+02  0.75884901078E+02  0.61842669168E+02  0.16114239625E+03  0.12509000000E+03 0.  0.
         25    1    3    3    0    0 -0.78401027330E+02 -0.85069145685E+02 -0.15504252210E+02  0.17108877979E+03  0.12509000000E+03 0.  0.
<mgrwt>
<rscale>  2 0.46452039E+03</rscale>
<asrwt>0</asrwt>
<pdfrwt beam="1">  1       21 0.38984871E-01 0.46452039E+03</pdfrwt>
<pdfrwt beam="2">  1       21 0.29925103E-01 0.46452039E+03</pdfrwt>
<totfact> 0.62664588E+04</totfact>
</mgrwt>
</event>
<event>
 7    0  0.4788920E-002  0.4543803E+03  0.7546771E-02  0.1026424E+00
         21   -1    0    0  502  501  0.00000000000E+00  0.00000000000E+00  0.80839044063E+03  0.80839044063E+03  0.00000000000E+00 0. -1.
         21   -1    0    0  501  502 -0.00000000000E+00 -0.00000000000E+00 -0.63849550180E+02  0.63849550180E+02  0.00000000000E+00 0. -1.
      99926    2    1    2    0    0 -0.17763568394E-14  0.00000000000E+00  0.74454089045E+03  0.87223999081E+03  0.45438030769E+03 0.  0.
      99925    2    3    3    0    0 -0.83709316143E+01  0.10492258793E+03  0.39097557444E+03  0.48270852515E+03  0.26280562872E+03 0.  0.
         25    1    4    4    0    0  0.15898371963E+02  0.83410302809E+02  0.24358414071E+03  0.28668934153E+03  0.12509000000E+03 0.  0.
         25    1    3    3    0    0  0.83709316143E+01 -0.10492258793E+03  0.35356531601E+03  0.38953146566E+03  0.12509000000E+03 0.  0.
         25    1    4    4    0    0 -0.24269303577E+02  0.21512285122E+02  0.14739143374E+03  0.19601918362E+03  0.12509000000E+03 0.  0.
<mgrwt>
<rscale>  2 0.45438031E+03</rscale>
<asrwt>0</asrwt>
<pdfrwt beam="1">  1       21 0.11888094E+00 0.45438031E+03</pdfrwt>
<pdfrwt beam="2">  1       21 0.93896402E-02 0.45438031E+03</pdfrwt>
<totfact> 0.44672169E+04</totfact>
</mgrwt>
</event>
<event>
 7    0  0.4788920E-002  0.4413868E+03  0.7546771E-02  0.1030322E+00
         21   -1    0    0  502  501  0.00000000000E+00  0.00000000000E+00  0.33492772191E+03  0.33492772191E+03  0.00000000000E+00 0. -1.
         21   -1    0    0  501  502 -0.00000000000E+00 -0.00000000000E+00 -0.14542116504E+03  0.14542116504E+03  0.00000000000E+00 0. -1.
      99926    2    1    2    0    0  0.00000000000E+00  0.00000000000E+00  0.18950655687E+03  0.48034888694E+03  0.44138681232E+03 0.  0.
      99925    2    3    3    0    0 -0.72186345753E+02  0.57488884716E+02  0.16244724584E+03  0.32256563437E+03  0.26295178344E+03 0.  0.
         25    1    4    4    0    0 -0.62791967859E+02  0.49467152914E+02  0.58893504874E+02  0.15970530192E+03  0.12509000000E+03 0.  0.
         25    1    4    4    0    0 -0.93943778940E+01  0.80217318017E+01  0.10355374097E+03  0.16286033245E+03  0.12509000000E+03 0.  0.
         25    1    3    3    0    0  0.72186345753E+02 -0.57488884716E+02  0.27059311031E+02  0.15778325257E+03  0.12509000000E+03 0.  0.
<mgrwt>
<rscale>  2 0.44138681E+03</rscale>
<asrwt>0</asrwt>
<pdfrwt beam="1">  1       21 0.49254077E-01 0.44138681E+03</pdfrwt>
<pdfrwt beam="2">  1       21 0.21385465E-01 0.44138681E+03</pdfrwt>
<totfact> 0.74395244E+04</totfact>
</mgrwt>
</event>
<event>
 7    0  0.4788920E-002  0.4565873E+03  0.7546771E-02  0.1025776E+00
         21   -1    0    0  502  501  0.00000000000E+00  0.00000000000E+00  0.87918214282E+02  0.87918214282E+02  0.00000000000E+00 0.  1.
         21   -1    0    0  501  502 -0.00000000000E+00 -0.00000000000E+00 -0.59280073303E+03  0.59280073303E+03  0.00000000000E+00 0.  1.
      99926    2    1    2    0    0 -0.17763568394E-14 -0.14210854715E-13 -0.50488251875E+03  0.68071894732E+03  0.45658726164E+03 0.  0.
      99925    2    3    3    0    0  0.92557764139E+01 -0.88095889723E+02 -0.42571101548E+03  0.50820173017E+03  0.26304481492E+03 0.  0.
         25    1    4    4    0    0  0.35136843949E+02 -0.20435788994E+02 -0.22908919781E+03  0.26416204861E+03  0.12509000000E+03 0.  0.
         25    1    3    3    0    0 -0.92557764139E+01  0.88095889723E+02 -0.79171503269E+02  0.17251721715E+03  0.12509000000E+03 0.  0.
         25    1    4    4    0    0 -0.25881067535E+02 -0.67660100730E+02 -0.19662181767E+03  0.24403968155E+03  0.12509000000E+03 0.  0.
<mgrwt>
<rscale>  2 0.45658726E+03</rscale>
<asrwt>0</asrwt>
<pdfrwt beam="1">  1       21 0.12929150E-01 0.45658726E+03</pdfrwt>
<pdfrwt beam="2">  1       21 0.87176576E-01 0.45658726E+03</pdfrwt>
<totfact> 0.53293465E+04</totfact>
</mgrwt>
</event>
<event>
 7    0  0.4788920E-002  0.4581325E+03  0.7546771E-02  0.1025324E+00
         21   -1    0    0  502  501  0.00000000000E+00  0.00000000000E+00  0.28586269212E+03  0.28586269212E+03  0.00000000000E+00 0. -1.
         21   -1    0    0  501  502 -0.00000000000E+00 -0.00000000000E+00 -0.18355437010E+03  0.18355437010E+03  0.00000000000E+00 0. -1.
      99926    2    1    2    0    0  0.00000000000E+00  0.00000000000E+00  0.10230832202E+03  0.46941706223E+03  0.45813249782E+03 0.  0.
      99925    2    3    3    0    0  0.58287693615E+02 -0.37616605468E+02  0.15931584350E+03  0.31543709652E+03  0.26326139033E+03 0.  0.
         25    1    4    4    0    0  0.23796965104E+02 -0.45443815369E+02  0.45476645360E+02  0.14264315363E+03  0.12509000000E+03 0.  0.
         25    1    4    4    0    0  0.34490728510E+02  0.78272099014E+01  0.11383919814E+03  0.17279394289E+03  0.12509000000E+03 0.  0.
         25    1    3    3    0    0 -0.58287693615E+02  0.37616605468E+02 -0.57007521479E+02  0.15397996571E+03  0.12509000000E+03 0.  0.
<mgrwt>
<rscale>  2 0.45813250E+03</rscale>
<asrwt>0</asrwt>
<pdfrwt beam="1">  1       21 0.42038631E-01 0.45813250E+03</pdfrwt>
<pdfrwt beam="2">  1       21 0.26993290E-01 0.45813250E+03</pdfrwt>
<totfact> 0.65828466E+04</totfact>
</mgrwt>
</event>
<event>
 7    0  0.4788920E-002  0.4449888E+03  0.7546771E-02  0.1029227E+00
         21   -1    0    0  502  501  0.00000000000E+00  0.00000000000E+00  0.38495687805E+03  0.38495687805E+03  0.00000000000E+00 0. -1.
         21   -1    0    0  501  502 -0.00000000000E+00 -0.00000000000E+00 -0.12859557068E+03  0.12859557068E+03  0.00000000000E+00 0. -1.
      99926    2    1    2    0    0  0.00000000000E+00  0.00000000000E+00  0.25636130737E+03  0.51355244873E+03  0.44498876130E+03 0.  0.
      99925    2    3    3    0    0  0.35707464093E+02  0.79854646477E+02  0.22707532770E+03  0.35812734053E+03  0.26275501903E+03 0.  0.
         25    1    4    4    0    0  0.28094895099E+02  0.77347892955E+02  0.10285668217E+03  0.18165633719E+03  0.12509000000E+03 0.  0.
         25    1    3    3    0    0 -0.35707464093E+02 -0.79854646477E+02  0.29285979664E+02  0.15542510821E+03  0.12509000000E+03 0.  0.
         25    1    4    4    0    0  0.76125689944E+01  0.25067535225E+01  0.12421864553E+03  0.17647100333E+03  0.12509000000E+03 0.  0.
<mgrwt>
<rscale>  2 0.44498876E+03</rscale>
<asrwt>0</asrwt>
<pdfrwt beam="1">  1       21 0.56611305E-01 0.44498876E+03</pdfrwt>
<pdfrwt beam="2">  1       21 0.18911113E-01 0.44498876E+03</pdfrwt>
<totfact> 0.69702634E+04</totfact>
</mgrwt>
</event>
<event>
 7    0  0.4788920E-002  0.4579339E+03  0.7546771E-02  0.1025382E+00
         21   -1    0    0  502  501  0.00000000000E+00  0.00000000000E+00  0.47364408449E+02  0.47364408449E+02  0.00000000000E+00 0.  1.
         21   -1    0    0  501  502 -0.00000000000E+00 -0.00000000000E+00 -0.11068621249E+04  0.11068621249E+04  0.00000000000E+00 0.  1.
      99926    2    1    2    0    0  0.00000000000E+00 -0.71054273576E-14 -0.10594977165E+04  0.11542265334E+04  0.45793392441E+03 0.  0.
      99925    2    3    3    0    0 -0.83856779335E+02  0.44678830401E+02 -0.49912431439E+03  0.57225229409E+03  0.26328587039E+03 0.  0.
         25    1    4    4    0    0 -0.61763246818E+01  0.43701696894E+02 -0.23439647010E+03  0.26932730755E+03  0.12509000000E+03 0.  0.
         25    1    4    4    0    0 -0.77680454653E+02  0.97713350720E+00 -0.26472784429E+03  0.30292498654E+03  0.12509000000E+03 0.  0.
         25    1    3    3    0    0  0.83856779335E+02 -0.44678830401E+02 -0.56037340206E+03  0.58197423926E+03  0.12509000000E+03 0.  0.
<mgrwt>
<rscale>  2 0.45793392E+03</rscale>
<asrwt>0</asrwt>
<pdfrwt beam="1">  1       21 0.69653539E-02 0.45793392E+03</pdfrwt>
<pdfrwt beam="2">  1       21 0.16277385E+00 0.45793392E+03</pdfrwt>
<totfact> 0.32883224E+04</totfact>
</mgrwt>
</event>
<event>
 7    0  0.4788920E-002  0.4674175E+03  0.7546771E-02  0.1022652E+00
         21   -1    0    0  502  501  0.00000000000E+00  0.00000000000E+00  0.24767446074E+03  0.24767446074E+03  0.00000000000E+00 0.  1.
         21   -1    0    0  501  502 -0.00000000000E+00 -0.00000000000E+00 -0.22053056567E+03  0.22053056567E+03  0.00000000000E+00 0.  1.
      99926    2    1    2    0    0  0.00000000000E+00  0.88817841970E-15  0.27143895074E+02  0.46820502641E+03  0.46741753895E+03 0.  0.
      99925    2    3    3    0    0  0.83219731736E+02  0.68577381693E+01  0.10941621895E+03  0.29677341994E+03  0.26292584789E+03 0.  0.
         25    1    4    4    0    0  0.23485251288E+02 -0.11809857426E+02  0.88205830398E+02  0.15530230641E+03  0.12509000000E+03 0.  0.
         25    1    3    3    0    0 -0.83219731736E+02 -0.68577381693E+01 -0.82272323877E+02  0.17143160648E+03  0.12509000000E+03 0.  0.
         25    1    4    4    0    0  0.59734480448E+02  0.18667595595E+02  0.21210388554E+02  0.14147111353E+03  0.12509000000E+03 0.  0.
<mgrwt>
<rscale>  2 0.46741754E+03</rscale>
<asrwt>0</asrwt>
<pdfrwt beam="1">  1       21 0.36422715E-01 0.46741754E+03</pdfrwt>
<pdfrwt beam="2">  1       21 0.32430965E-01 0.46741754E+03</pdfrwt>
<totfact> 0.61287980E+04</totfact>
</mgrwt>
</event>
<event>
 7    0  0.4788920E-002  0.4596412E+03  0.7546771E-02  0.1024885E+00
         21   -1    0    0  502  501  0.00000000000E+00  0.00000000000E+00  0.11901883980E+03  0.11901883980E+03  0.00000000000E+00 0.  1.
         21   -1    0    0  501  502 -0.00000000000E+00 -0.00000000000E+00 -0.44377426950E+03  0.44377426950E+03  0.00000000000E+00 0.  1.
      99926    2    1    2    0    0  0.00000000000E+00 -0.35527136788E-14 -0.32475542969E+03  0.56279310930E+03  0.45964115869E+03 0.  0.
      99925    2    3    3    0    0  0.35470259319E+02  0.29179230589E+02 -0.71015403813E+02  0.27619046516E+03  0.26292283787E+03 0.  0.
         25    1    3    3    0    0 -0.35470259319E+02 -0.29179230589E+02 -0.25374002588E+03  0.28660264414E+03  0.12509000000E+03 0.  0.
         25    1    4    4    0    0 -0.96890271068E+01 -0.79297252670E+01 -0.12861648843E+02  0.12637123051E+03  0.12509000000E+03 0.  0.
         25    1    4    4    0    0  0.45159286426E+02  0.37108955856E+02 -0.58153754970E+02  0.14981923465E+03  0.12509000000E+03 0.  0.
<mgrwt>
<rscale>  2 0.45964116E+03</rscale>
<asrwt>0</asrwt>
<pdfrwt beam="1">  1       21 0.17502770E-01 0.45964116E+03</pdfrwt>
<pdfrwt beam="2">  1       21 0.65260922E-01 0.45964116E+03</pdfrwt>
<totfact> 0.58839121E+04</totfact>
</mgrwt>
</event>
<event>
 7    0  0.4788920E-002  0.4416769E+03  0.7546771E-02  0.1030234E+00
         21   -1    0    0  502  501  0.00000000000E+00  0.00000000000E+00  0.23665197451E+03  0.23665197451E+03  0.00000000000E+00 0.  1.
         21   -1    0    0  501  502 -0.00000000000E+00 -0.00000000000E+00 -0.20608165720E+03  0.20608165720E+03  0.00000000000E+00 0.  1.
      99926    2    1    2    0    0  0.00000000000E+00  0.00000000000E+00  0.30570317311E+02  0.44273363171E+03  0.44167694569E+03 0.  0.
      99925    2    3    3    0    0 -0.16298264251E+02 -0.78468352812E+02 -0.40786281825E+02  0.27792408056E+03  0.26297406328E+03 0.  0.
         25    1    4    4    0    0 -0.41983502462E+02 -0.23207863503E+02 -0.35878488072E+02  0.13869388384E+03  0.12509000000E+03 0.  0.
         25    1    4    4    0    0  0.25685238211E+02 -0.55260489309E+02 -0.49077937526E+01  0.13923019673E+03  0.12509000000E+03 0.  0.
         25    1    3    3    0    0  0.16298264251E+02  0.78468352812E+02  0.71356599135E+02  0.16480955115E+03  0.12509000000E+03 0.  0.
<mgrwt>
<rscale>  2 0.44167695E+03</rscale>
<asrwt>0</asrwt>
<pdfrwt beam="1">  1       21 0.34801761E-01 0.44167695E+03</pdfrwt>
<pdfrwt beam="2">  1       21 0.30306126E-01 0.44167695E+03</pdfrwt>
<totfact> 0.77355705E+04</totfact>
</mgrwt>
</event>
<event>
 7    0  0.4788920E-002  0.4508666E+03  0.7546771E-02  0.1027464E+00
         21   -1    0    0  502  501  0.00000000000E+00  0.00000000000E+00  0.17608684587E+03  0.17608684587E+03  0.00000000000E+00 0.  1.
         21   -1    0    0  501  502 -0.00000000000E+00 -0.00000000000E+00 -0.28860860421E+03  0.28860860421E+03  0.00000000000E+00 0.  1.
      99926    2    1    2    0    0 -0.71054273576E-14  0.14210854715E-13 -0.11252175834E+03  0.46469545009E+03  0.45086662688E+03 0.  0.
      99925    2    3    3    0    0  0.55148437839E+02 -0.93951895721E+02 -0.64955475312E+02  0.29213135102E+03  0.26316003414E+03 0.  0.
         25    1    4    4    0    0  0.66735673995E+02 -0.62510618711E+02 -0.27956961541E+02  0.15744944406E+03  0.12509000000E+03 0.  0.
         25    1    4    4    0    0 -0.11587236156E+02 -0.31441277010E+02 -0.36998513771E+02  0.13468190696E+03  0.12509000000E+03 0.  0.
         25    1    3    3    0    0 -0.55148437839E+02  0.93951895721E+02 -0.47566283028E+02  0.17256409907E+03  0.12509000000E+03 0.  0.
<mgrwt>
<rscale>  2 0.45086663E+03</rscale>
<asrwt>0</asrwt>
<pdfrwt beam="1">  1       21 0.25895125E-01 0.45086663E+03</pdfrwt>
<pdfrwt beam="2">  1       21 0.42442441E-01 0.45086663E+03</pdfrwt>
<totfact> 0.70102839E+04</totfact>
</mgrwt>
</event>
<event>
 7    0  0.4788920E-002  0.4531146E+03  0.7546771E-02  0.1026797E+00
         21   -1    0    0  502  501  0.00000000000E+00  0.00000000000E+00  0.16522139478E+03  0.16522139478E+03  0.00000000000E+00 0.  1.
         21   -1    0    0  501  502 -0.00000000000E+00 -0.00000000000E+00 -0.31066317025E+03  0.31066317025E+03  0.00000000000E+00 0.  1.
      99926    2    1    2    0    0  0.00000000000E+00  0.00000000000E+00 -0.14544177547E+03  0.47588456503E+03  0.45311456518E+03 0.  0.
      99925    2    3    3    0    0 -0.61604458516E+02  0.68723035241E+02 -0.15724294541E+03  0.31998478763E+03  0.26295808706E+03 0.  0.
         25    1    4    4    0    0 -0.65312103311E+02  0.39392032775E+02 -0.57908782727E+02  0.15753837089E+03  0.12509000000E+03 0.  0.
         25    1    3    3    0    0  0.61604458516E+02 -0.68723035241E+02  0.11801169941E+02  0.15589977740E+03  0.12509000000E+03 0.  0.
         25    1    4    4    0    0  0.37076447950E+01  0.29331002466E+02 -0.99334162687E+02  0.16244641674E+03  0.12509000000E+03 0.  0.
<mgrwt>
<rscale>  2 0.45311457E+03</rscale>
<asrwt>0</asrwt>
<pdfrwt beam="1">  1       21 0.24297264E-01 0.45311457E+03</pdfrwt>
<pdfrwt beam="2">  1       21 0.45685760E-01 0.45311457E+03</pdfrwt>
<totfact> 0.68012963E+04</totfact>
</mgrwt>
</event>
<event>
 7    0  0.4788920E-002  0.4733535E+03  0.7546771E-02  0.1020978E+00
         21   -1    0    0  502  501  0.00000000000E+00  0.00000000000E+00  0.26383903321E+03  0.26383903321E+03  0.00000000000E+00 0.  1.
         21   -1    0    0  501  502 -0.00000000000E+00 -0.00000000000E+00 -0.21231085670E+03  0.21231085670E+03  0.00000000000E+00 0.  1.
      99926    2    1    2    0    0  0.00000000000E+00  0.00000000000E+00  0.51528176510E+02  0.47614988990E+03  0.47335353033E+03 0.  0.
      99925    2    3    3    0    0 -0.18031943600E+02  0.11365758858E+03 -0.28064196080E+02  0.28846490834E+03  0.26302320394E+03 0.  0.
         25    1    4    4    0    0 -0.14506749731E+02  0.75958303960E+02  0.21621375498E+02  0.14864421182E+03  0.12509000000E+03 0.  0.
         25    1    3    3    0    0  0.18031943600E+02 -0.11365758858E+03  0.79592372589E+02  0.18768498157E+03  0.12509000000E+03 0.  0.
         25    1    4    4    0    0 -0.35251938684E+01  0.37699284617E+02 -0.49685571577E+02  0.13982069652E+03  0.12509000000E+03 0.  0.
<mgrwt>
<rscale>  2 0.47335353E+03</rscale>
<asrwt>0</asrwt>
<pdfrwt beam="1">  1       21 0.38799858E-01 0.47335353E+03</pdfrwt>
<pdfrwt beam="2">  1       21 0.31222185E-01 0.47335353E+03</pdfrwt>
<totfact> 0.58046176E+04</totfact>
</mgrwt>
</event>
<event>
 7    0  0.4788920E-002  0.4511803E+03  0.7546771E-02  0.1027371E+00
         21   -1    0    0  502  501  0.00000000000E+00  0.00000000000E+00  0.10273929954E+04  0.10273929954E+04  0.00000000000E+00 0.  1.
         21   -1    0    0  501  502 -0.00000000000E+00 -0.00000000000E+00 -0.49534034557E+02  0.49534034557E+02  0.00000000000E+00 0.  1.
      99926    2    1    2    0    0  0.00000000000E+00  0.00000000000E+00  0.97785896081E+03  0.10769270299E+04  0.45118031932E+03 0.  0.
      99925    2    3    3    0    0 -0.85462632269E+01 -0.68180136440E+02  0.82110362237E+03  0.86493336527E+03  0.26301520504E+03 0.  0.
         25    1    4    4    0    0 -0.30893484666E+02 -0.23662762566E+02  0.49698504763E+03  0.51396106797E+03  0.12509000000E+03 0.  0.
         25    1    3    3    0    0  0.85462632269E+01  0.68180136440E+02  0.15675533844E+03  0.21199366465E+03  0.12509000000E+03 0.  0.
         25    1    4    4    0    0  0.22347221439E+02 -0.44517373873E+02  0.32411857474E+03  0.35097229730E+03  0.12509000000E+03 0.  0.
<mgrwt>
<rscale>  2 0.45118032E+03</rscale>
<asrwt>0</asrwt>
<pdfrwt beam="1">  1       21 0.15108719E+00 0.45118032E+03</pdfrwt>
<pdfrwt beam="2">  1       21 0.72844175E-02 0.45118032E+03</pdfrwt>
<totfact> 0.37407150E+04</totfact>
</mgrwt>
</event>
<event>
 7    0  0.4788920E-002  0.4396271E+03  0.7546771E-02  0.1030861E+00
         21   -1    0    0  502  501  0.00000000000E+00  0.00000000000E+00  0.84951759389E+03  0.84951759389E+03  0.00000000000E+00 0.  1.
         21   -1    0    0  501  502 -0.00000000000E+00 -0.00000000000E+00 -0.56876981200E+02  0.56876981200E+02  0.00000000000E+00 0.  1.
      99926    2    1    2    0    0 -0.66613381478E-15  0.14210854715E-13  0.79264061269E+03  0.90639457509E+03  0.43962709751E+03 0.  0.
      99925    2    3    3    0    0 -0.57156159381E+00 -0.93221481790E+02  0.56859010061E+03  0.63338045199E+03  0.26303141086E+03 0.  0.
         25    1    4    4    0    0  0.11961823920E+02 -0.81106030108E+02  0.26005126289E+03  0.29999240121E+03  0.12509000000E+03 0.  0.
         25    1    3    3    0    0  0.57156159381E+00  0.93221481790E+02  0.22405051208E+03  0.27301412310E+03  0.12509000000E+03 0.  0.
         25    1    4    4    0    0 -0.12533385514E+02 -0.12115451683E+02  0.30853883772E+03  0.33338805078E+03  0.12509000000E+03 0.  0.
<mgrwt>
<rscale>  2 0.43962710E+03</rscale>
<asrwt>0</asrwt>
<pdfrwt beam="1">  1       21 0.12492905E+00 0.43962710E+03</pdfrwt>
<pdfrwt beam="2">  1       21 0.83642625E-02 0.43962710E+03</pdfrwt>
<totfact> 0.48538983E+04</totfact>
</mgrwt>
</event>
<event>
 7    0  0.4788920E-002  0.4557037E+03  0.7546771E-02  0.1026035E+00
         21   -1    0    0  502  501  0.00000000000E+00  0.00000000000E+00  0.32769881513E+02  0.32769881513E+02  0.00000000000E+00 0. -1.
         21   -1    0    0  501  502 -0.00000000000E+00 -0.00000000000E+00 -0.15842736356E+04  0.15842736356E+04  0.00000000000E+00 0. -1.
      99926    2    1    2    0    0  0.17763568394E-14 -0.14210854715E-13 -0.15515037541E+04  0.16170435171E+04  0.45570367268E+03 0.  0.
      99925    2    3    3    0    0 -0.71484041256E+01 -0.96987352631E+02 -0.11857638614E+04  0.12184574869E+04  0.26295449458E+03 0.  0.
         25    1    4    4    0    0  0.24196759449E+02 -0.22852887351E+02 -0.62787564458E+03  0.64107961346E+03  0.12509000000E+03 0.  0.
         25    1    3    3    0    0  0.71484041256E+01  0.96987352631E+02 -0.36573989271E+03  0.39858603021E+03  0.12509000000E+03 0.  0.
         25    1    4    4    0    0 -0.31345163574E+02 -0.74134465280E+02 -0.55788821682E+03  0.57737787349E+03  0.12509000000E+03 0.  0.
<mgrwt>
<rscale>  2 0.45570367E+03</rscale>
<asrwt>0</asrwt>
<pdfrwt beam="1">  1       21 0.48190999E-02 0.45570367E+03</pdfrwt>
<pdfrwt beam="2">  1       21 0.23298143E+00 0.45570367E+03</pdfrwt>
<totfact> 0.20932757E+04</totfact>
</mgrwt>
</event>
<event>
 7    0  0.4788920E-002  0.4564217E+03  0.7546771E-02  0.1025824E+00
         21   -1    0    0  502  501  0.00000000000E+00  0.00000000000E+00  0.65118505216E+02  0.65118505216E+02  0.00000000000E+00 0. -1.
         21   -1    0    0  501  502 -0.00000000000E+00 -0.00000000000E+00 -0.79977574088E+03  0.79977574088E+03  0.00000000000E+00 0. -1.
      99926    2    1    2    0    0  0.00000000000E+00  0.14210854715E-13 -0.73465723566E+03  0.86489424609E+03  0.45642173811E+03 0.  0.
      99925    2    3    3    0    0 -0.71781355113E+01  0.90607107600E+02 -0.59313540537E+03  0.65528243792E+03  0.26329506407E+03 0.  0.
         25    1    4    4    0    0 -0.27601442795E+02  0.80708802393E+02 -0.32041819274E+03  0.35438831353E+03  0.12509000000E+03 0.  0.
         25    1    3    3    0    0  0.71781355113E+01 -0.90607107600E+02 -0.14152183029E+03  0.20961180817E+03  0.12509000000E+03 0.  0.
         25    1    4    4    0    0  0.20423307284E+02  0.98983052074E+01 -0.27271721263E+03  0.30089412439E+03  0.12509000000E+03 0.  0.
<mgrwt>
<rscale>  2 0.45642174E+03</rscale>
<asrwt>0</asrwt>
<pdfrwt beam="1">  1       21 0.95762509E-02 0.45642174E+03</pdfrwt>
<pdfrwt beam="2">  1       21 0.11761408E+00 0.45642174E+03</pdfrwt>
<totfact> 0.44284328E+04</totfact>
</mgrwt>
</event>
<event>
 7    0  0.4788920E-002  0.4609032E+03  0.7546771E-02  0.1024520E+00
         21   -1    0    0  502  501  0.00000000000E+00  0.00000000000E+00  0.86406184610E+03  0.86406184610E+03  0.00000000000E+00 0.  1.
         21   -1    0    0  501  502 -0.00000000000E+00 -0.00000000000E+00 -0.61463113795E+02  0.61463113795E+02  0.00000000000E+00 0.  1.
      99926    2    1    2    0    0  0.00000000000E+00  0.00000000000E+00  0.80259873230E+03  0.92552495989E+03  0.46090316368E+03 0.  0.
      99925    2    3    3    0    0  0.66017463285E+02  0.48879708613E+02  0.67431537464E+03  0.72841671723E+03  0.26294896479E+03 0.  0.
         25    1    4    4    0    0  0.53377458973E+02  0.92710475458E+01  0.42604364839E+03  0.44732069467E+03  0.12509000000E+03 0.  0.
         25    1    4    4    0    0  0.12640004312E+02  0.39608661067E+02  0.24827172626E+03  0.28109602256E+03  0.12509000000E+03 0.  0.
         25    1    3    3    0    0 -0.66017463285E+02 -0.48879708613E+02  0.12828335766E+03  0.19710824266E+03  0.12509000000E+03 0.  0.
<mgrwt>
<rscale>  2 0.46090316E+03</rscale>
<asrwt>0</asrwt>
<pdfrwt beam="1">  1       21 0.12706791E+00 0.46090316E+03</pdfrwt>
<pdfrwt beam="2">  1       21 0.90386937E-02 0.46090316E+03</pdfrwt>
<totfact> 0.40256240E+04</totfact>
</mgrwt>
</event>
<event>
 7    0  0.4788920E-002  0.4501881E+03  0.7546771E-02  0.1027666E+00
         21   -1    0    0  502  501  0.00000000000E+00  0.00000000000E+00  0.61806622858E+03  0.61806622858E+03  0.00000000000E+00 0.  1.
         21   -1    0    0  501  502 -0.00000000000E+00 -0.00000000000E+00 -0.81977196755E+02  0.81977196755E+02  0.00000000000E+00 0.  1.
      99926    2    1    2    0    0  0.00000000000E+00 -0.14210854715E-13  0.53608903183E+03  0.70004342534E+03  0.45018812436E+03 0.  0.
      99925    2    3    3    0    0  0.20579144531E+02 -0.90673983620E+02  0.25148764479E+03  0.37555809424E+03  0.26296877033E+03 0.  0.
         25    1    4    4    0    0 -0.78878775079E+01 -0.82522922749E+02  0.12661195113E+03  0.19634241941E+03  0.12509000000E+03 0.  0.
         25    1    4    4    0    0  0.28467022039E+02 -0.81510608709E+01  0.12487569367E+03  0.17921567483E+03  0.12509000000E+03 0.  0.
         25    1    3    3    0    0 -0.20579144531E+02  0.90673983620E+02  0.28460138703E+03  0.32448533109E+03  0.12509000000E+03 0.  0.
<mgrwt>
<rscale>  2 0.45018812E+03</rscale>
<asrwt>0</asrwt>
<pdfrwt beam="1">  1       21 0.90892090E-01 0.45018812E+03</pdfrwt>
<pdfrwt beam="2">  1       21 0.12055470E-01 0.45018812E+03</pdfrwt>
<totfact> 0.54952147E+04</totfact>
</mgrwt>
</event>
<event>
 7    0  0.4788920E-002  0.4570631E+03  0.7546771E-02  0.1025636E+00
         21   -1    0    0  502  501  0.00000000000E+00  0.00000000000E+00  0.46146602338E+02  0.46146602338E+02  0.00000000000E+00 0.  1.
         21   -1    0    0  501  502 -0.00000000000E+00 -0.00000000000E+00 -0.11317554445E+04  0.11317554445E+04  0.00000000000E+00 0.  1.
      99926    2    1    2    0    0 -0.14210854715E-13  0.00000000000E+00 -0.10856088421E+04  0.11779020468E+04  0.45706309604E+03 0.  0.
      99925    2    3    3    0    0  0.86447492942E+02 -0.49233345272E+02 -0.53504044482E+03  0.60460442816E+03  0.26340300993E+03 0.  0.
         25    1    4    4    0    0  0.70359322661E+02 -0.56158488405E+02 -0.26681690792E+03  0.30812818851E+03  0.12509000000E+03 0.  0.
         25    1    4    4    0    0  0.16088170281E+02  0.69251431328E+01 -0.26822353690E+03  0.29647623965E+03  0.12509000000E+03 0.  0.
         25    1    3    3    0    0 -0.86447492942E+02  0.49233345272E+02 -0.55056839731E+03  0.57329761864E+03  0.12509000000E+03 0.  0.
<mgrwt>
<rscale>  2 0.45706310E+03</rscale>
<asrwt>0</asrwt>
<pdfrwt beam="1">  1       21 0.67862651E-02 0.45706310E+03</pdfrwt>
<pdfrwt beam="2">  1       21 0.16643462E+00 0.45706310E+03</pdfrwt>
<totfact> 0.32341293E+04</totfact>
</mgrwt>
</event>
<event>
 7    0  0.4788920E-002  0.4557252E+03  0.7546771E-02  0.1026028E+00
         21   -1    0    0  502  501  0.00000000000E+00  0.00000000000E+00  0.18394041427E+03  0.18394041427E+03  0.00000000000E+00 0.  1.
         21   -1    0    0  501  502 -0.00000000000E+00 -0.00000000000E+00 -0.28227278828E+03  0.28227278828E+03  0.00000000000E+00 0.  1.
      99926    2    1    2    0    0 -0.71054273576E-14  0.00000000000E+00 -0.98332374012E+02  0.46621320254E+03  0.45572524008E+03 0.  0.
      99925    2    3    3    0    0 -0.44058712443E+02  0.62000294572E+02 -0.14854928518E+03  0.31144094102E+03  0.26295125584E+03 0.  0.
         25    1    3    3    0    0  0.44058712443E+02 -0.62000294572E+02  0.50216911170E+02  0.15477226152E+03  0.12509000000E+03 0.  0.
         25    1    4    4    0    0 -0.40527605540E+02  0.22415402276E+02 -0.35037609533E+02  0.13791330339E+03  0.12509000000E+03 0.  0.
         25    1    4    4    0    0 -0.35311069030E+01  0.39584892296E+02 -0.11351167565E+03  0.17352763763E+03  0.12509000000E+03 0.  0.
<mgrwt>
<rscale>  2 0.45572524E+03</rscale>
<asrwt>0</asrwt>
<pdfrwt beam="1">  1       21 0.27050061E-01 0.45572524E+03</pdfrwt>
<pdfrwt beam="2">  1       21 0.41510704E-01 0.45572524E+03</pdfrwt>
<totfact> 0.67330793E+04</totfact>
</mgrwt>
</event>
<event>
 7    0  0.4788920E-002  0.4562728E+03  0.7546771E-02  0.1025868E+00
         21   -1    0    0  502  501  0.00000000000E+00  0.00000000000E+00  0.48169947513E+02  0.48169947513E+02  0.00000000000E+00 0.  1.
         21   -1    0    0  501  502 -0.00000000000E+00 -0.00000000000E+00 -0.10804705286E+04  0.10804705286E+04  0.00000000000E+00 0.  1.
      99926    2    1    2    0    0  0.00000000000E+00  0.00000000000E+00 -0.10323005811E+04  0.11286404761E+04  0.45627276338E+03 0.  0.
      99925    2    3    3    0    0  0.77623187159E+02  0.79855190653E+02 -0.58422787007E+03  0.65029031868E+03  0.26296973921E+03 0.  0.
         25    1    4    4    0    0  0.47662932978E+02  0.24064657435E+02 -0.37053255998E+03  0.39470590194E+03  0.12509000000E+03 0.  0.
         25    1    3    3    0    0 -0.77623187159E+02 -0.79855190653E+02 -0.44807271101E+03  0.47835015743E+03  0.12509000000E+03 0.  0.
         25    1    4    4    0    0  0.29960254181E+02  0.55790533218E+02 -0.21369531009E+03  0.25558441675E+03  0.12509000000E+03 0.  0.
<mgrwt>
<rscale>  2 0.45627276E+03</rscale>
<asrwt>0</asrwt>
<pdfrwt beam="1">  1       21 0.70838159E-02 0.45627276E+03</pdfrwt>
<pdfrwt beam="2">  1       21 0.15889272E+00 0.45627276E+03</pdfrwt>
<totfact> 0.34163352E+04</totfact>
</mgrwt>
</event>
<event>
 7    0  0.4788920E-002  0.4383469E+03  0.7546771E-02  0.1031255E+00
         21   -1    0    0  502  501  0.00000000000E+00  0.00000000000E+00  0.15472565264E+03  0.15472565264E+03  0.00000000000E+00 0. -1.
         21   -1    0    0  501  502 -0.00000000000E+00 -0.00000000000E+00 -0.31046570767E+03  0.31046570767E+03  0.00000000000E+00 0. -1.
      99926    2    1    2    0    0  0.00000000000E+00  0.00000000000E+00 -0.15574005503E+03  0.46519136031E+03  0.43834693676E+03 0.  0.
      99925    2    3    3    0    0  0.58561108918E+02  0.16862354029E+02 -0.19905903173E+02  0.27073785077E+03  0.26303801322E+03 0.  0.
         25    1    4    4    0    0  0.38701276543E+02 -0.12076198075E+02  0.23861493887E+02  0.13364319046E+03  0.12509000000E+03 0.  0.
         25    1    4    4    0    0  0.19859832375E+02  0.28938552104E+02 -0.43767397060E+02  0.13709466031E+03  0.12509000000E+03 0.  0.
         25    1    3    3    0    0 -0.58561108918E+02 -0.16862354029E+02 -0.13583415186E+03  0.19445350954E+03  0.12509000000E+03 0.  0.
<mgrwt>
<rscale>  2 0.43834694E+03</rscale>
<asrwt>0</asrwt>
<pdfrwt beam="1">  1       21 0.22753773E-01 0.43834694E+03</pdfrwt>
<pdfrwt beam="2">  1       21 0.45656721E-01 0.43834694E+03</pdfrwt>
<totfact> 0.77547351E+04</totfact>
</mgrwt>
</event>
<event>
 7    0  0.4788920E-002  0.4581562E+03  0.7546771E-02  0.1025317E+00
         21   -1    0    0  502  501  0.00000000000E+00  0.00000000000E+00  0.17695398864E+03  0.17695398864E+03  0.00000000000E+00 0.  1.
         21   -1    0    0  501  502 -0.00000000000E+00 -0.00000000000E+00 -0.29655610906E+03  0.29655610906E+03  0.00000000000E+00 0.  1.
      99926    2    1    2    0    0  0.00000000000E+00  0.00000000000E+00 -0.11960212043E+03  0.47351009770E+03  0.45815624563E+03 0.  0.
      99925    2    3    3    0    0  0.10414828319E+03  0.47128898772E+02 -0.98409593232E+02  0.30273354984E+03  0.26247886803E+03 0.  0.
         25    1    4    4    0    0  0.65151864510E+02  0.48832866623E+02 -0.83031424773E+02  0.17079560858E+03  0.12509000000E+03 0.  0.
         25    1    3    3    0    0 -0.10414828319E+03 -0.47128898772E+02 -0.21192527197E+02  0.17077654787E+03  0.12509000000E+03 0.  0.
         25    1    4    4    0    0  0.38996418684E+02 -0.17039678511E+01 -0.15378168459E+02  0.13193794125E+03  0.12509000000E+03 0.  0.
<mgrwt>
<rscale>  2 0.45815625E+03</rscale>
<asrwt>0</asrwt>
<pdfrwt beam="1">  1       21 0.26022646E-01 0.45815625E+03</pdfrwt>
<pdfrwt beam="2">  1       21 0.43611192E-01 0.45815625E+03</pdfrwt>
<totfact> 0.65519517E+04</totfact>
</mgrwt>
</event>
<event>
 7    0  0.4788920E-002  0.4632564E+03  0.7546771E-02  0.1023841E+00
         21   -1    0    0  502  501  0.00000000000E+00  0.00000000000E+00  0.16788724226E+04  0.16788724226E+04  0.00000000000E+00 0. -1.
         21   -1    0    0  501  502 -0.00000000000E+00 -0.00000000000E+00 -0.31956931985E+02  0.31956931985E+02  0.00000000000E+00 0. -1.
      99926    2    1    2    0    0 -0.14210854715E-13 -0.71054273576E-14  0.16469154906E+04  0.17108293546E+04  0.46325635158E+03 0.  0.
      99925    2    3    3    0    0 -0.79313942660E+02 -0.33517830847E+02  0.71557318376E+03  0.76718739541E+03  0.26290182933E+03 0.  0.
         25    1    4    4    0    0 -0.67098446150E+02 -0.22445566533E+02  0.29581852424E+03  0.32888008805E+03  0.12509000000E+03 0.  0.
         25    1    4    4    0    0 -0.12215496510E+02 -0.11072264315E+02  0.41975465952E+03  0.43830730735E+03  0.12509000000E+03 0.  0.
         25    1    3    3    0    0  0.79313942660E+02  0.33517830847E+02  0.93134230683E+03  0.94364195916E+03  0.12509000000E+03 0.  0.
<mgrwt>
<rscale>  2 0.46325635E+03</rscale>
<asrwt>0</asrwt>
<pdfrwt beam="1">  1       21 0.24689294E+00 0.46325635E+03</pdfrwt>
<pdfrwt beam="2">  1       21 0.46995500E-02 0.46325635E+03</pdfrwt>
<totfact> 0.17864581E+04</totfact>
</mgrwt>
</event>
<event>
 7    0  0.4788920E-002  0.4553279E+03  0.7546771E-02  0.1026145E+00
         21   -1    0    0  502  501  0.00000000000E+00  0.00000000000E+00  0.27887366036E+02  0.27887366036E+02  0.00000000000E+00 0.  1.
         21   -1    0    0  501  502 -0.00000000000E+00 -0.00000000000E+00 -0.18585792295E+04  0.18585792295E+04  0.00000000000E+00 0.  1.
      99926    2    1    2    0    0  0.00000000000E+00  0.17763568394E-14 -0.18306918634E+04  0.18864665955E+04  0.45532792262E+03 0.  0.
      99925    2    3    3    0    0  0.72749040691E+02  0.15704701716E+02 -0.15040396495E+04  0.15288519460E+04  0.26403398441E+03 0.  0.
         25    1    4    4    0    0  0.33582302283E+02  0.85689546477E+01 -0.98286546027E+03  0.99139962634E+03  0.12509000000E+03 0.  0.
         25    1    4    4    0    0  0.39166738409E+02  0.71357470682E+01 -0.52117418922E+03  0.53745231965E+03  0.12509000000E+03 0.  0.
         25    1    3    3    0    0 -0.72749040691E+02 -0.15704701716E+02 -0.32665221393E+03  0.35761464951E+03  0.12509000000E+03 0.  0.
<mgrwt>
<rscale>  2 0.45532792E+03</rscale>
<asrwt>0</asrwt>
<pdfrwt beam="1">  1       21 0.41010833E-02 0.45532792E+03</pdfrwt>
<pdfrwt beam="2">  1       21 0.27332047E+00 0.45532792E+03</pdfrwt>
<totfact> 0.15613477E+04</totfact>
</mgrwt>
</event>
<event>
 7    0  0.4788920E-002  0.4541592E+03  0.7546771E-02  0.1026489E+00
         21   -1    0    0  502  501  0.00000000000E+00  0.00000000000E+00  0.44844524179E+03  0.44844524179E+03  0.00000000000E+00 0.  1.
         21   -1    0    0  501  502 -0.00000000000E+00 -0.00000000000E+00 -0.11498651432E+03  0.11498651432E+03  0.00000000000E+00 0.  1.
      99926    2    1    2    0    0  0.00000000000E+00  0.00000000000E+00  0.33345872747E+03  0.56343175611E+03  0.45415924615E+03 0.  0.
      99925    2    3    3    0    0 -0.11020183229E+03 -0.20736976988E+02  0.22300069771E+03  0.36237716030E+03  0.26270407130E+03 0.  0.
         25    1    4    4    0    0 -0.29884433901E+02  0.45594119807E+01  0.65766685762E+02  0.14452208372E+03  0.12509000000E+03 0.  0.
         25    1    3    3    0    0  0.11020183229E+03  0.20736976988E+02  0.11045802976E+03  0.20105459580E+03  0.12509000000E+03 0.  0.
         25    1    4    4    0    0 -0.80317398392E+02 -0.25296388969E+02  0.15723401195E+03  0.21785507658E+03  0.12509000000E+03 0.  0.
<mgrwt>
<rscale>  2 0.45415925E+03</rscale>
<asrwt>0</asrwt>
<pdfrwt beam="1">  1       21 0.65947829E-01 0.45415925E+03</pdfrwt>
<pdfrwt beam="2">  1       21 0.16909782E-01 0.45415925E+03</pdfrwt>
<totfact> 0.61394798E+04</totfact>
</mgrwt>
</event>
<event>
 7    0  0.4788920E-002  0.4580613E+03  0.7546771E-02  0.1025345E+00
         21   -1    0    0  502  501  0.00000000000E+00  0.00000000000E+00  0.43942818308E+02  0.43942818308E+02  0.00000000000E+00 0. -1.
         21   -1    0    0  501  502 -0.00000000000E+00 -0.00000000000E+00 -0.11937112720E+04  0.11937112720E+04  0.00000000000E+00 0. -1.
      99926    2    1    2    0    0  0.71054273576E-14  0.00000000000E+00 -0.11497684537E+04  0.12376540903E+04  0.45806129519E+03 0.  0.
      99925    2    3    3    0    0  0.46806943756E+02  0.74344731047E+02 -0.51626213269E+03  0.58596720547E+03  0.26289341418E+03 0.  0.
         25    1    4    4    0    0 -0.33606137537E+01  0.53547398722E+02 -0.20415105322E+03  0.24536458234E+03  0.12509000000E+03 0.  0.
         25    1    3    3    0    0 -0.46806943756E+02 -0.74344731047E+02 -0.63350632098E+03  0.65168688481E+03  0.12509000000E+03 0.  0.
         25    1    4    4    0    0  0.50167557509E+02  0.20797332325E+02 -0.31211107947E+03  0.34060262313E+03  0.12509000000E+03 0.  0.
<mgrwt>
<rscale>  2 0.45806130E+03</rscale>
<asrwt>0</asrwt>
<pdfrwt beam="1">  1       21 0.64621785E-02 0.45806130E+03</pdfrwt>
<pdfrwt beam="2">  1       21 0.17554579E+00 0.45806130E+03</pdfrwt>
<totfact> 0.30252981E+04</totfact>
</mgrwt>
</event>
<event>
 7    0  0.4788920E-002  0.4757362E+03  0.7546771E-02  0.1020314E+00
         21   -1    0    0  502  501  0.00000000000E+00  0.00000000000E+00  0.10076009458E+03  0.10076009458E+03  0.00000000000E+00 0.  1.
         21   -1    0    0  501  502 -0.00000000000E+00 -0.00000000000E+00 -0.56154398744E+03  0.56154398744E+03  0.00000000000E+00 0.  1.
      99926    2    1    2    0    0  0.00000000000E+00  0.71054273576E-14 -0.46078389287E+03  0.66230408202E+03  0.47573616757E+03 0.  0.
      99925    2    3    3    0    0 -0.12399362241E+03 -0.43952680619E+02 -0.27692403692E+03  0.40392797774E+03  0.26299169653E+03 0.  0.
         25    1    4    4    0    0 -0.72153860562E+02 -0.62296449466E+02 -0.14186732185E+03  0.21180385341E+03  0.12509000000E+03 0.  0.
         25    1    3    3    0    0  0.12399362241E+03  0.43952680619E+02 -0.18385985594E+03  0.25837610427E+03  0.12509000000E+03 0.  0.
         25    1    4    4    0    0 -0.51839761851E+02  0.18343768847E+02 -0.13505671508E+03  0.19212412434E+03  0.12509000000E+03 0.  0.
<mgrwt>
<rscale>  2 0.47573617E+03</rscale>
<asrwt>0</asrwt>
<pdfrwt beam="1">  1       21 0.14817661E-01 0.47573617E+03</pdfrwt>
<pdfrwt beam="2">  1       21 0.82579999E-01 0.47573617E+03</pdfrwt>
<totfact> 0.46852208E+04</totfact>
</mgrwt>
</event>
<event>
 7    0  0.4788920E-002  0.4523230E+03  0.7546771E-02  0.1027032E+00
         21   -1    0    0  502  501  0.00000000000E+00  0.00000000000E+00  0.18543841229E+03  0.18543841229E+03  0.00000000000E+00 0.  1.
         21   -1    0    0  501  502 -0.00000000000E+00 -0.00000000000E+00 -0.27582752565E+03  0.27582752565E+03  0.00000000000E+00 0.  1.
      99926    2    1    2    0    0  0.00000000000E+00 -0.71054273576E-14 -0.90389113354E+02  0.46126593794E+03  0.45232297497E+03 0.  0.
      99925    2    3    3    0    0 -0.93610554025E+02  0.52260766502E+02 -0.89130344842E+02  0.29651395422E+03  0.26169100698E+03 0.  0.
         25    1    4    4    0    0 -0.25141883627E+02  0.20482518051E+02 -0.81745162470E+01  0.12948350734E+03  0.12509000000E+03 0.  0.
         25    1    4    4    0    0 -0.68468670398E+02  0.31778248450E+02 -0.80955828595E+02  0.16703044688E+03  0.12509000000E+03 0.  0.
         25    1    3    3    0    0  0.93610554025E+02 -0.52260766502E+02 -0.12587685120E+01  0.16475198372E+03  0.12509000000E+03 0.  0.
<mgrwt>
<rscale>  2 0.45232297E+03</rscale>
<asrwt>0</asrwt>
<pdfrwt beam="1">  1       21 0.27270355E-01 0.45232297E+03</pdfrwt>
<pdfrwt beam="2">  1       21 0.40562871E-01 0.45232297E+03</pdfrwt>
<totfact> 0.69556766E+04</totfact>
</mgrwt>
</event>
<event>
 7    0  0.4788920E-002  0.4561459E+03  0.7546771E-02  0.1025905E+00
         21   -1    0    0  502  501  0.00000000000E+00  0.00000000000E+00  0.34516870187E+03  0.34516870187E+03  0.00000000000E+00 0.  1.
         21   -1    0    0  501  502 -0.00000000000E+00 -0.00000000000E+00 -0.15070100737E+03  0.15070100737E+03  0.00000000000E+00 0.  1.
      99926    2    1    2    0    0  0.00000000000E+00  0.35527136788E-14  0.19446769450E+03  0.49586970923E+03  0.45614590246E+03 0.  0.
      99925    2    3    3    0    0 -0.82008806854E+02 -0.17706638254E+02  0.20648891532E+03  0.34477044620E+03  0.26303995700E+03 0.  0.
         25    1    3    3    0    0  0.82008806854E+02  0.17706638254E+02 -0.12021220820E+02  0.15109926304E+03  0.12509000000E+03 0.  0.
         25    1    4    4    0    0 -0.74959186008E+02  0.72848905990E+01  0.13230036135E+03  0.19703513116E+03  0.12509000000E+03 0.  0.
         25    1    4    4    0    0 -0.70496208452E+01 -0.24991528853E+02  0.74188553973E+02  0.14773531504E+03  0.12509000000E+03 0.  0.
<mgrwt>
<rscale>  2 0.45614590E+03</rscale>
<asrwt>0</asrwt>
<pdfrwt beam="1">  1       21 0.50760103E-01 0.45614590E+03</pdfrwt>
<pdfrwt beam="2">  1       21 0.22161913E-01 0.45614590E+03</pdfrwt>
<totfact> 0.64968786E+04</totfact>
</mgrwt>
</event>
<event>
 7    0  0.4788920E-002  0.4257424E+03  0.7546771E-02  0.1035213E+00
         21   -1    0    0  502  501  0.00000000000E+00  0.00000000000E+00  0.42004616866E+03  0.42004616866E+03  0.00000000000E+00 0. -1.
         21   -1    0    0  501  502 -0.00000000000E+00 -0.00000000000E+00 -0.10787898438E+03  0.10787898438E+03  0.00000000000E+00 0. -1.
      99926    2    1    2    0    0  0.71054273576E-14  0.00000000000E+00  0.31216718429E+03  0.52792515304E+03  0.42574242949E+03 0.  0.
      99925    2    3    3    0    0 -0.41525679050E+02  0.58391752465E+02  0.15084301411E+03  0.31157595669E+03  0.26304369049E+03 0.  0.
         25    1    4    4    0    0  0.65612435090E+01  0.34242579184E+02  0.10777151311E+03  0.16875370006E+03  0.12509000000E+03 0.  0.
         25    1    3    3    0    0  0.41525679050E+02 -0.58391752465E+02  0.16132417017E+03  0.21634919634E+03  0.12509000000E+03 0.  0.
         25    1    4    4    0    0 -0.48086922559E+02  0.24149173281E+02  0.43071501000E+02  0.14282225663E+03  0.12509000000E+03 0.  0.
<mgrwt>
<rscale>  2 0.42574243E+03</rscale>
<asrwt>0</asrwt>
<pdfrwt beam="1">  1       21 0.61771495E-01 0.42574243E+03</pdfrwt>
<pdfrwt beam="2">  1       21 0.15864557E-01 0.42574243E+03</pdfrwt>
<totfact> 0.80418550E+04</totfact>
</mgrwt>
</event>
<event>
 7    0  0.4788920E-002  0.4531826E+03  0.7546771E-02  0.1026777E+00
         21   -1    0    0  502  501  0.00000000000E+00  0.00000000000E+00  0.98696790102E+02  0.98696790102E+02  0.00000000000E+00 0. -1.
         21   -1    0    0  501  502 -0.00000000000E+00 -0.00000000000E+00 -0.52021565609E+03  0.52021565609E+03  0.00000000000E+00 0. -1.
      99926    2    1    2    0    0  0.00000000000E+00  0.00000000000E+00 -0.42151886599E+03  0.61891244619E+03  0.45318259197E+03 0.  0.
      99925    2    3    3    0    0  0.44243295917E+02 -0.79365208389E+02 -0.35381816125E+03  0.45013093341E+03  0.26301000065E+03 0.  0.
         25    1    3    3    0    0 -0.44243295917E+02  0.79365208389E+02 -0.67700704736E+02  0.16878151279E+03  0.12509000000E+03 0.  0.
         25    1    4    4    0    0  0.37241578913E+02 -0.76053048799E+02 -0.21913403266E+03  0.26615452993E+03  0.12509000000E+03 0.  0.
         25    1    4    4    0    0  0.70017170040E+01 -0.33121595900E+01 -0.13468412859E+03  0.18397640348E+03  0.12509000000E+03 0.  0.
<mgrwt>
<rscale>  2 0.45318259E+03</rscale>
<asrwt>0</asrwt>
<pdfrwt beam="1">  1       21 0.14514234E-01 0.45318259E+03</pdfrwt>
<pdfrwt beam="2">  1       21 0.76502301E-01 0.45318259E+03</pdfrwt>
<totfact> 0.58362089E+04</totfact>
</mgrwt>
</event>
<event>
 7    0  0.4788920E-002  0.4537500E+03  0.7546771E-02  0.1026610E+00
         21   -1    0    0  502  501  0.00000000000E+00  0.00000000000E+00  0.49127842934E+03  0.49127842934E+03  0.00000000000E+00 0.  1.
         21   -1    0    0  501  502 -0.00000000000E+00 -0.00000000000E+00 -0.10477210464E+03  0.10477210464E+03  0.00000000000E+00 0.  1.
      99926    2    1    2    0    0  0.17763568394E-14  0.00000000000E+00  0.38650632470E+03  0.59605053398E+03  0.45375004135E+03 0.  0.
      99925    2    3    3    0    0  0.67619811105E+01  0.48995113355E+01  0.39021897327E+03  0.47062716511E+03  0.26296264343E+03 0.  0.
         25    1    4    4    0    0  0.21137010285E+02  0.10944229101E+02  0.25933510657E+03  0.28890959651E+03  0.12509000000E+03 0.  0.
         25    1    3    3    0    0 -0.67619811105E+01 -0.48995113355E+01 -0.37126485697E+01  0.12542336887E+03  0.12509000000E+03 0.  0.
         25    1    4    4    0    0 -0.14375029174E+02 -0.60447177655E+01  0.13088386670E+03  0.18171756860E+03  0.12509000000E+03 0.  0.
<mgrwt>
<rscale>  2 0.45375004E+03</rscale>
<asrwt>0</asrwt>
<pdfrwt beam="1">  1       21 0.72246827E-01 0.45375004E+03</pdfrwt>
<pdfrwt beam="2">  1       21 0.15407663E-01 0.45375004E+03</pdfrwt>
<totfact> 0.59507628E+04</totfact>
</mgrwt>
</event>
<event>
 7    0  0.4788920E-002  0.4586148E+03  0.7546771E-02  0.1025184E+00
         21   -1    0    0  502  501  0.00000000000E+00  0.00000000000E+00  0.75285377515E+02  0.75285377515E+02  0.00000000000E+00 0. -1.
         21   -1    0    0  501  502 -0.00000000000E+00 -0.00000000000E+00 -0.69843429681E+03  0.69843429681E+03  0.00000000000E+00 0. -1.
      99926    2    1    2    0    0  0.00000000000E+00  0.00000000000E+00 -0.62314891930E+03  0.77371967433E+03  0.45861482621E+03 0.  0.
      99925    2    3    3    0    0  0.71256157188E+02 -0.76463061990E+02 -0.30370407938E+03  0.41508817315E+03  0.26294102737E+03 0.  0.
         25    1    3    3    0    0 -0.71256157188E+02  0.76463061990E+02 -0.31944483991E+03  0.35863150117E+03  0.12509000000E+03 0.  0.
         25    1    4    4    0    0  0.24047291139E+02 -0.18889521192E+02 -0.19382513328E+03  0.23270319425E+03  0.12509000000E+03 0.  0.
         25    1    4    4    0    0  0.47208866049E+02 -0.57573540799E+02 -0.10987894610E+03  0.18238497890E+03  0.12509000000E+03 0.  0.
<mgrwt>
<rscale>  2 0.45861483E+03</rscale>
<asrwt>0</asrwt>
<pdfrwt beam="1">  1       21 0.11071380E-01 0.45861483E+03</pdfrwt>
<pdfrwt beam="2">  1       21 0.10271092E+00 0.45861483E+03</pdfrwt>
<totfact> 0.47694416E+04</totfact>
</mgrwt>
</event>
<event>
 7    0  0.4788920E-002  0.4717769E+03  0.7546771E-02  0.1021420E+00
         21   -1    0    0  502  501  0.00000000000E+00  0.00000000000E+00  0.12980769138E+03  0.12980769138E+03  0.00000000000E+00 0. -1.
         21   -1    0    0  501  502 -0.00000000000E+00 -0.00000000000E+00 -0.42865989825E+03  0.42865989825E+03  0.00000000000E+00 0. -1.
      99926    2    1    2    0    0  0.00000000000E+00  0.35527136788E-14 -0.29885220687E+03  0.55846758962E+03  0.47177686157E+03 0.  0.
      99925    2    3    3    0    0  0.98233900709E+02  0.18193611956E+02 -0.28055519455E+03  0.39733660091E+03  0.26302899169E+03 0.  0.
         25    1    4    4    0    0  0.28338084458E+02 -0.27063706000E+02 -0.12914366106E+03  0.18401381607E+03  0.12509000000E+03 0.  0.
         25    1    4    4    0    0  0.69895816251E+02  0.45257317957E+02 -0.15141153349E+03  0.21332278484E+03  0.12509000000E+03 0.  0.
         25    1    3    3    0    0 -0.98233900709E+02 -0.18193611956E+02 -0.18297012324E+02  0.16113098872E+03  0.12509000000E+03 0.  0.
<mgrwt>
<rscale>  2 0.47177686E+03</rscale>
<asrwt>0</asrwt>
<pdfrwt beam="1">  1       21 0.19089366E-01 0.47177686E+03</pdfrwt>
<pdfrwt beam="2">  1       21 0.63038221E-01 0.47177686E+03</pdfrwt>
<totfact> 0.53804428E+04</totfact>
</mgrwt>
</event>
<event>
 7    0  0.4788920E-002  0.4476054E+03  0.7546771E-02  0.1028439E+00
         21   -1    0    0  502  501  0.00000000000E+00  0.00000000000E+00  0.50826514793E+02  0.50826514793E+02  0.00000000000E+00 0. -1.
         21   -1    0    0  501  502 -0.00000000000E+00 -0.00000000000E+00 -0.98546285014E+03  0.98546285014E+03  0.00000000000E+00 0. -1.
      99926    2    1    2    0    0  0.00000000000E+00  0.71054273576E-14 -0.93463633535E+03  0.10362893649E+04  0.44760537142E+03 0.  0.
      99925    2    3    3    0    0  0.69805922273E+02  0.51341768644E+02 -0.45163802345E+03  0.52988663846E+03  0.26323772791E+03 0.  0.
         25    1    3    3    0    0 -0.69805922273E+02 -0.51341768644E+02 -0.48299831189E+03  0.50640272648E+03  0.12509000000E+03 0.  0.
         25    1    4    4    0    0  0.36503347735E+02  0.27308110809E+02 -0.14880425235E+03  0.19967083144E+03  0.12509000000E+03 0.  0.
         25    1    4    4    0    0  0.33302574538E+02  0.24033657835E+02 -0.30283377110E+03  0.33021580701E+03  0.12509000000E+03 0.  0.
<mgrwt>
<rscale>  2 0.44760537E+03</rscale>
<asrwt>0</asrwt>
<pdfrwt beam="1">  1       21 0.74744880E-02 0.44760537E+03</pdfrwt>
<pdfrwt beam="2">  1       21 0.14492100E+00 0.44760537E+03</pdfrwt>
<totfact> 0.40046773E+04</totfact>
</mgrwt>
</event>
<event>
 7    0  0.4788920E-002  0.4557911E+03  0.7546771E-02  0.1026009E+00
         21   -1    0    0  502  501  0.00000000000E+00  0.00000000000E+00  0.10255631971E+04  0.10255631971E+04  0.00000000000E+00 0.  1.
         21   -1    0    0  501  502 -0.00000000000E+00 -0.00000000000E+00 -0.50641809333E+02  0.50641809333E+02  0.00000000000E+00 0.  1.
      99926    2    1    2    0    0  0.00000000000E+00 -0.88817841970E-15  0.97492138775E+03  0.10762050064E+04  0.45579107444E+03 0.  0.
      99925    2    3    3    0    0 -0.23338659558E+02  0.13242076242E+01  0.35402931830E+03  0.44240620825E+03  0.26427267797E+03 0.  0.
         25    1    4    4    0    0 -0.10015465056E+02  0.25735393542E+02  0.23429610733E+03  0.26702957520E+03  0.12509000000E+03 0.  0.
         25    1    3    3    0    0  0.23338659558E+02 -0.13242076242E+01  0.62089206944E+03  0.63379879816E+03  0.12509000000E+03 0.  0.
         25    1    4    4    0    0 -0.13323194502E+02 -0.24411185917E+02  0.11973321097E+03  0.17537663305E+03  0.12509000000E+03 0.  0.
<mgrwt>
<rscale>  2 0.45579107E+03</rscale>
<asrwt>0</asrwt>
<pdfrwt beam="1">  1       21 0.15081810E+00 0.45579107E+03</pdfrwt>
<pdfrwt beam="2">  1       21 0.74473256E-02 0.45579107E+03</pdfrwt>
<totfact> 0.36106906E+04</totfact>
</mgrwt>
</event>
<event>
 7    0  0.4788920E-002  0.4476431E+03  0.7546771E-02  0.1028427E+00
         21   -1    0    0  502  501  0.00000000000E+00  0.00000000000E+00  0.98491404971E+02  0.98491404971E+02  0.00000000000E+00 0. -1.
         21   -1    0    0  501  502 -0.00000000000E+00 -0.00000000000E+00 -0.50863406323E+03  0.50863406323E+03  0.00000000000E+00 0. -1.
      99926    2    1    2    0    0  0.00000000000E+00  0.00000000000E+00 -0.41014265826E+03  0.60712546821E+03  0.44764308776E+03 0.  0.
      99925    2    3    3    0    0  0.94713769075E+02 -0.42631210716E+02 -0.28878177268E+03  0.40423611208E+03  0.26310416929E+03 0.  0.
         25    1    4    4    0    0  0.17182082192E+02  0.34275236976E+01 -0.10442444793E+03  0.16388698940E+03  0.12509000000E+03 0.  0.
         25    1    3    3    0    0 -0.94713769075E+02  0.42631210716E+02 -0.12136088558E+03  0.20288935612E+03  0.12509000000E+03 0.  0.
         25    1    4    4    0    0  0.77531686883E+02 -0.46058734413E+02 -0.18435732475E+03  0.24034912269E+03  0.12509000000E+03 0.  0.
<mgrwt>
<rscale>  2 0.44764309E+03</rscale>
<asrwt>0</asrwt>
<pdfrwt beam="1">  1       21 0.14484030E-01 0.44764309E+03</pdfrwt>
<pdfrwt beam="2">  1       21 0.74799126E-01 0.44764309E+03</pdfrwt>
<totfact> 0.61753062E+04</totfact>
</mgrwt>
</event>
<event>
 7    0  0.4788920E-002  0.4573140E+03  0.7546771E-02  0.1025563E+00
         21   -1    0    0  502  501  0.00000000000E+00  0.00000000000E+00  0.53027580994E+02  0.53027580994E+02  0.00000000000E+00 0. -1.
         21   -1    0    0  501  502 -0.00000000000E+00 -0.00000000000E+00 -0.98597812541E+03  0.98597812541E+03  0.00000000000E+00 0. -1.
      99926    2    1    2    0    0 -0.71054273576E-14  0.00000000000E+00 -0.93295054442E+03  0.10390057064E+04  0.45731404922E+03 0.  0.
      99925    2    3    3    0    0  0.58901132505E+02 -0.93986842274E+02 -0.65806110158E+03  0.71726888257E+03  0.26292083705E+03 0.  0.
         25    1    4    4    0    0  0.51463592594E+02 -0.12909326090E+02 -0.29924975358E+03  0.32865342715E+03  0.12509000000E+03 0.  0.
         25    1    4    4    0    0  0.74375399111E+01 -0.81077516184E+02 -0.35881134800E+03  0.38861545541E+03  0.12509000000E+03 0.  0.
         25    1    3    3    0    0 -0.58901132505E+02  0.93986842274E+02 -0.27488944284E+03  0.32173682384E+03  0.12509000000E+03 0.  0.
<mgrwt>
<rscale>  2 0.45731405E+03</rscale>
<asrwt>0</asrwt>
<pdfrwt beam="1">  1       21 0.77981744E-02 0.45731405E+03</pdfrwt>
<pdfrwt beam="2">  1       21 0.14499677E+00 0.45731405E+03</pdfrwt>
<totfact> 0.37010330E+04</totfact>
</mgrwt>
</event>
<event>
 7    0  0.4788920E-002  0.4504816E+03  0.7546771E-02  0.1027579E+00
         21   -1    0    0  502  501  0.00000000000E+00  0.00000000000E+00  0.86667814277E+03  0.86667814277E+03  0.00000000000E+00 0. -1.
         21   -1    0    0  501  502 -0.00000000000E+00 -0.00000000000E+00 -0.58537793811E+02  0.58537793811E+02  0.00000000000E+00 0. -1.
      99926    2    1    2    0    0  0.14210854715E-13  0.00000000000E+00  0.80814034896E+03  0.92521593658E+03  0.45048163746E+03 0.  0.
      99925    2    3    3    0    0  0.85136569391E+02 -0.67736481398E+02  0.50479074440E+03  0.57952104648E+03  0.26304843910E+03 0.  0.
         25    1    4    4    0    0  0.35329576037E+02 -0.11476825892E+02  0.16996441629E+03  0.21427857424E+03  0.12509000000E+03 0.  0.
         25    1    3    3    0    0 -0.85136569391E+02  0.67736481398E+02  0.30334960456E+03  0.34569489010E+03  0.12509000000E+03 0.  0.
         25    1    4    4    0    0  0.49806993354E+02 -0.56259655506E+02  0.33482632812E+03  0.36524247224E+03  0.12509000000E+03 0.  0.
<mgrwt>
<rscale>  2 0.45048164E+03</rscale>
<asrwt>0</asrwt>
<pdfrwt beam="1">  1       21 0.12745266E+00 0.45048164E+03</pdfrwt>
<pdfrwt beam="2">  1       21 0.86084997E-02 0.45048164E+03</pdfrwt>
<totfact> 0.43684663E+04</totfact>
</mgrwt>
</event>
<event>
 7    0  0.4788920E-002  0.4555120E+03  0.7546771E-02  0.1026091E+00
         21   -1    0    0  502  501  0.00000000000E+00  0.00000000000E+00  0.10988563032E+03  0.10988563032E+03  0.00000000000E+00 0. -1.
         21   -1    0    0  501  502 -0.00000000000E+00 -0.00000000000E+00 -0.47206172316E+03  0.47206172316E+03  0.00000000000E+00 0. -1.
      99926    2    1    2    0    0  0.00000000000E+00  0.00000000000E+00 -0.36217609284E+03  0.58194735349E+03  0.45551201960E+03 0.  0.
      99925    2    3    3    0    0  0.87528514069E+02 -0.56597724136E+02 -0.28570174302E+03  0.40205744984E+03  0.26298320071E+03 0.  0.
         25    1    3    3    0    0 -0.87528514069E+02  0.56597724136E+02 -0.76474349825E+02  0.17988990365E+03  0.12509000000E+03 0.  0.
         25    1    4    4    0    0  0.31359670788E+02  0.40913026542E+01 -0.16564018233E+03  0.20996272481E+03  0.12509000000E+03 0.  0.
         25    1    4    4    0    0  0.56168843281E+02 -0.60689026790E+02 -0.12006156069E+03  0.19209472503E+03  0.12509000000E+03 0.  0.
<mgrwt>
<rscale>  2 0.45551202E+03</rscale>
<asrwt>0</asrwt>
<pdfrwt beam="1">  1       21 0.16159651E-01 0.45551202E+03</pdfrwt>
<pdfrwt beam="2">  1       21 0.69420842E-01 0.45551202E+03</pdfrwt>
<totfact> 0.59561990E+04</totfact>
</mgrwt>
</event>
<event>
 7    0  0.4788920E-002  0.4434590E+03  0.7546771E-02  0.1029691E+00
         21   -1    0    0  502  501  0.00000000000E+00  0.00000000000E+00  0.26391117419E+04  0.26391117419E+04  0.00000000000E+00 0.  1.
         21   -1    0    0  501  502 -0.00000000000E+00 -0.00000000000E+00 -0.18628988115E+02  0.18628988115E+02  0.00000000000E+00 0.  1.
      99926    2    1    2    0    0  0.00000000000E+00  0.00000000000E+00  0.26204827538E+04  0.26577407300E+04  0.44345904557E+03 0.  0.
      99925    2    3    3    0    0  0.34501783427E+02  0.93647967971E+02  0.17930147568E+04  0.18149411636E+04  0.26296234402E+03 0.  0.
         25    1    3    3    0    0 -0.34501783427E+02 -0.93647967971E+02  0.82746799699E+03  0.84279956639E+03  0.12509000000E+03 0.  0.
         25    1    4    4    0    0  0.38289094693E+02  0.36127720358E+02  0.11026828824E+04  0.11110032917E+04  0.12509000000E+03 0.  0.
         25    1    4    4    0    0 -0.37873112661E+01  0.57520247613E+02  0.69033187442E+03  0.70393787194E+03  0.12509000000E+03 0.  0.
<mgrwt>
<rscale>  2 0.44345905E+03</rscale>
<asrwt>0</asrwt>
<pdfrwt beam="1">  1       21 0.38810441E+00 0.44345905E+03</pdfrwt>
<pdfrwt beam="2">  1       21 0.27395589E-02 0.44345905E+03</pdfrwt>
<totfact> 0.61855090E+03</totfact>
</mgrwt>
</event>
<event>
 7    0  0.4788920E-002  0.4556571E+03  0.7546771E-02  0.1026048E+00
         21   -1    0    0  502  501  0.00000000000E+00  0.00000000000E+00  0.37041041749E+03  0.37041041749E+03  0.00000000000E+00 0. -1.
         21   -1    0    0  501  502 -0.00000000000E+00 -0.00000000000E+00 -0.14013066678E+03  0.14013066678E+03  0.00000000000E+00 0. -1.
      99926    2    1    2    0    0  0.00000000000E+00  0.00000000000E+00  0.23027975071E+03  0.51054108427E+03  0.45565714648E+03 0.  0.
      99925    2    3    3    0    0 -0.81021545956E+02  0.42132897267E+02  0.22080201040E+03  0.35537340850E+03  0.26305334009E+03 0.  0.
         25    1    4    4    0    0 -0.61252654902E+02  0.31381080292E+02  0.72717343735E+02  0.16022477996E+03  0.12509000000E+03 0.  0.
         25    1    3    3    0    0  0.81021545956E+02 -0.42132897267E+02  0.94777403174E+01  0.15516767577E+03  0.12509000000E+03 0.  0.
         25    1    4    4    0    0 -0.19768891054E+02  0.10751816975E+02  0.14808466666E+03  0.19514862854E+03  0.12509000000E+03 0.  0.
<mgrwt>
<rscale>  2 0.45565715E+03</rscale>
<asrwt>0</asrwt>
<pdfrwt beam="1">  1       21 0.54472120E-01 0.45565715E+03</pdfrwt>
<pdfrwt beam="2">  1       21 0.20607451E-01 0.45565715E+03</pdfrwt>
<totfact> 0.64200803E+04</totfact>
</mgrwt>
</event>
<event>
 7    0  0.4788920E-002  0.4563702E+03  0.7546771E-02  0.1025839E+00
         21   -1    0    0  502  501  0.00000000000E+00  0.00000000000E+00  0.71926457106E+02  0.71926457106E+02  0.00000000000E+00 0.  1.
         21   -1    0    0  501  502 -0.00000000000E+00 -0.00000000000E+00 -0.72391225579E+03  0.72391225579E+03  0.00000000000E+00 0.  1.
      99926    2    1    2    0    0  0.14210854715E-13  0.00000000000E+00 -0.65198579869E+03  0.79583871290E+03  0.45637021732E+03 0.  0.
      99925    2    3    3    0    0  0.11079369291E+03  0.19112266533E+02 -0.44621256987E+03  0.53007443592E+03  0.26312112988E+03 0.  0.
         25    1    4    4    0    0  0.14798732512E+02  0.42352434071E+01 -0.22689030419E+03  0.25954509821E+03  0.12509000000E+03 0.  0.
         25    1    4    4    0    0  0.95994960396E+02  0.14877023126E+02 -0.21932226569E+03  0.27052933771E+03  0.12509000000E+03 0.  0.
         25    1    3    3    0    0 -0.11079369291E+03 -0.19112266533E+02 -0.20577322882E+03  0.26576427698E+03  0.12509000000E+03 0.  0.
<mgrwt>
<rscale>  2 0.45637022E+03</rscale>
<asrwt>0</asrwt>
<pdfrwt beam="1">  1       21 0.10577420E-01 0.45637022E+03</pdfrwt>
<pdfrwt beam="2">  1       21 0.10645768E+00 0.45637022E+03</pdfrwt>
<totfact> 0.47454385E+04</totfact>
</mgrwt>
</event>
<event>
 7    0  0.4788920E-002  0.4544508E+03  0.7546771E-02  0.1026403E+00
         21   -1    0    0  502  501  0.00000000000E+00  0.00000000000E+00  0.49034097030E+03  0.49034097030E+03  0.00000000000E+00 0.  1.
         21   -1    0    0  501  502 -0.00000000000E+00 -0.00000000000E+00 -0.10529689077E+03  0.10529689077E+03  0.00000000000E+00 0.  1.
      99926    2    1    2    0    0 -0.14210854715E-13  0.00000000000E+00  0.38504407953E+03  0.59563786108E+03  0.45445078762E+03 0.  0.
      99925    2    3    3    0    0 -0.71415641366E+02  0.78669856851E+02  0.19346808583E+03  0.34337210900E+03  0.26303110994E+03 0.  0.
         25    1    4    4    0    0 -0.56611056352E+02  0.23339947293E+02  0.59858212748E+02  0.15159181566E+03  0.12509000000E+03 0.  0.
         25    1    3    3    0    0  0.71415641366E+02 -0.78669856851E+02  0.19157599370E+03  0.25226575208E+03  0.12509000000E+03 0.  0.
         25    1    4    4    0    0 -0.14804585014E+02  0.55329909558E+02  0.13360987308E+03  0.19178029334E+03  0.12509000000E+03 0.  0.
<mgrwt>
<rscale>  2 0.45445079E+03</rscale>
<asrwt>0</asrwt>
<pdfrwt beam="1">  1       21 0.72108965E-01 0.45445079E+03</pdfrwt>
<pdfrwt beam="2">  1       21 0.15484837E-01 0.45445079E+03</pdfrwt>
<totfact> 0.59204102E+04</totfact>
</mgrwt>
</event>
<event>
 7    0  0.4788920E-002  0.4545222E+03  0.7546771E-02  0.1026382E+00
         21   -1    0    0  502  501  0.00000000000E+00  0.00000000000E+00  0.67021196340E+02  0.67021196340E+02  0.00000000000E+00 0. -1.
         21   -1    0    0  501  502 -0.00000000000E+00 -0.00000000000E+00 -0.77061592354E+03  0.77061592354E+03  0.00000000000E+00 0. -1.
      99926    2    1    2    0    0  0.00000000000E+00  0.00000000000E+00 -0.70359472720E+03  0.83763711988E+03  0.45452217158E+03 0.  0.
      99925    2    3    3    0    0  0.65059304142E+02 -0.58402534308E+02 -0.57405176906E+03  0.63745606390E+03  0.26300424099E+03 0.  0.
         25    1    3    3    0    0 -0.65059304142E+02  0.58402534308E+02 -0.12954295814E+03  0.20018105598E+03  0.12509000000E+03 0.  0.
         25    1    4    4    0    0  0.52274391035E+02 -0.34392283266E+02 -0.38057596771E+03  0.40546395204E+03  0.12509000000E+03 0.  0.
         25    1    4    4    0    0  0.12784913106E+02 -0.24010251041E+02 -0.19347580135E+03  0.23199211187E+03  0.12509000000E+03 0.  0.
<mgrwt>
<rscale>  2 0.45452217E+03</rscale>
<asrwt>0</asrwt>
<pdfrwt beam="1">  1       21 0.98560586E-02 0.45452217E+03</pdfrwt>
<pdfrwt beam="2">  1       21 0.11332587E+00 0.45452217E+03</pdfrwt>
<totfact> 0.46170420E+04</totfact>
</mgrwt>
</event>
<event>
 7    0  0.4788920E-002  0.4489488E+03  0.7546771E-02  0.1028036E+00
         21   -1    0    0  502  501  0.00000000000E+00  0.00000000000E+00  0.39127780786E+03  0.39127780786E+03  0.00000000000E+00 0. -1.
         21   -1    0    0  501  502 -0.00000000000E+00 -0.00000000000E+00 -0.12877998408E+03  0.12877998408E+03  0.00000000000E+00 0. -1.
      99926    2    1    2    0    0  0.00000000000E+00 -0.35527136788E-14  0.26249782377E+03  0.52005779194E+03  0.44894877154E+03 0.  0.
      99925    2    3    3    0    0  0.10030186121E+03  0.21679576297E+02  0.12983834295E+03  0.31082941589E+03  0.26310922274E+03 0.  0.
         25    1    4    4    0    0  0.56821652045E+02  0.37618155255E+02  0.10028444774E+03  0.17420764709E+03  0.12509000000E+03 0.  0.
         25    1    4    4    0    0  0.43480209168E+02 -0.15938578958E+02  0.29553895215E+02  0.13662176880E+03  0.12509000000E+03 0.  0.
         25    1    3    3    0    0 -0.10030186121E+03 -0.21679576297E+02  0.13265948082E+03  0.20922837605E+03  0.12509000000E+03 0.  0.
<mgrwt>
<rscale>  2 0.44894877E+03</rscale>
<asrwt>0</asrwt>
<pdfrwt beam="1">  1       21 0.57540854E-01 0.44894877E+03</pdfrwt>
<pdfrwt beam="2">  1       21 0.18938233E-01 0.44894877E+03</pdfrwt>
<totfact> 0.67043461E+04</totfact>
</mgrwt>
</event>
<event>
 7    0  0.4788920E-002  0.4549606E+03  0.7546771E-02  0.1026253E+00
         21   -1    0    0  502  501  0.00000000000E+00  0.00000000000E+00  0.17255391398E+03  0.17255391398E+03  0.00000000000E+00 0.  1.
         21   -1    0    0  501  502 -0.00000000000E+00 -0.00000000000E+00 -0.29989050262E+03  0.29989050262E+03  0.00000000000E+00 0.  1.
      99926    2    1    2    0    0  0.00000000000E+00  0.00000000000E+00 -0.12733658864E+03  0.47244441660E+03  0.45496056968E+03 0.  0.
      99925    2    3    3    0    0  0.39845476129E+02  0.58548184669E+02  0.11497424653E+02  0.27259961871E+03  0.26298823063E+03 0.  0.
         25    1    3    3    0    0 -0.39845476129E+02 -0.58548184669E+02 -0.13883401329E+03  0.19984479789E+03  0.12509000000E+03 0.  0.
         25    1    4    4    0    0 -0.66177248782E+01  0.12102314541E+01  0.21140984124E+02  0.12704215148E+03  0.12509000000E+03 0.  0.
         25    1    4    4    0    0  0.46463201007E+02  0.57337953215E+02 -0.96435594713E+01  0.14555746723E+03  0.12509000000E+03 0.  0.
<mgrwt>
<rscale>  2 0.45496057E+03</rscale>
<asrwt>0</asrwt>
<pdfrwt beam="1">  1       21 0.25375576E-01 0.45496057E+03</pdfrwt>
<pdfrwt beam="2">  1       21 0.44101544E-01 0.45496057E+03</pdfrwt>
<totfact> 0.67275439E+04</totfact>
</mgrwt>
</event>
<event>
 7    0  0.4788920E-002  0.4547099E+03  0.7546771E-02  0.1026327E+00
         21   -1    0    0  502  501  0.00000000000E+00  0.00000000000E+00  0.12853024350E+03  0.12853024350E+03  0.00000000000E+00 0. -1.
         21   -1    0    0  501  502 -0.00000000000E+00 -0.00000000000E+00 -0.40216436642E+03  0.40216436642E+03  0.00000000000E+00 0. -1.
      99926    2    1    2    0    0  0.00000000000E+00  0.00000000000E+00 -0.27363412292E+03  0.53069460992E+03  0.45470994685E+03 0.  0.
      99925    2    3    3    0    0  0.10466318341E+03 -0.24541708028E+02 -0.13218050425E+03  0.31340836615E+03  0.26305216379E+03 0.  0.
         25    1    4    4    0    0  0.75118047795E+02 -0.11446434265E+02 -0.31740715049E+02  0.14976222172E+03  0.12509000000E+03 0.  0.
         25    1    3    3    0    0 -0.10466318341E+03  0.24541708028E+02 -0.14145361867E+03  0.21728624376E+03  0.12509000000E+03 0.  0.
         25    1    4    4    0    0  0.29545135611E+02 -0.13095273763E+02 -0.10043978920E+03  0.16364614443E+03  0.12509000000E+03 0.  0.
<mgrwt>
<rscale>  2 0.45470995E+03</rscale>
<asrwt>0</asrwt>
<pdfrwt beam="1">  1       21 0.18901507E-01 0.45470995E+03</pdfrwt>
<pdfrwt beam="2">  1       21 0.59141818E-01 0.45470995E+03</pdfrwt>
<totfact> 0.63304929E+04</totfact>
</mgrwt>
</event>
<event>
 7    0  0.4788920E-002  0.4527378E+03  0.7546771E-02  0.1026909E+00
         21   -1    0    0  502  501  0.00000000000E+00  0.00000000000E+00  0.16130703505E+03  0.16130703505E+03  0.00000000000E+00 0.  1.
         21   -1    0    0  501  502 -0.00000000000E+00 -0.00000000000E+00 -0.31767287294E+03  0.31767287294E+03  0.00000000000E+00 0.  1.
      99926    2    1    2    0    0  0.00000000000E+00  0.00000000000E+00 -0.15636583789E+03  0.47897990799E+03  0.45273775742E+03 0.  0.
      99925    2    3    3    0    0  0.10870863421E+03  0.44099207989E+01 -0.12265487523E+03  0.30980262921E+03  0.26286200960E+03 0.  0.
         25    1    4    4    0    0  0.74369651446E+02 -0.12560877550E+01 -0.10343570779E+03  0.17854656692E+03  0.12509000000E+03 0.  0.
         25    1    4    4    0    0  0.34338982761E+02  0.56660085539E+01 -0.19219167445E+02  0.13125606229E+03  0.12509000000E+03 0.  0.
         25    1    3    3    0    0 -0.10870863421E+03 -0.44099207989E+01 -0.33710962654E+02  0.16917727878E+03  0.12509000000E+03 0.  0.
<mgrwt>
<rscale>  2 0.45273776E+03</rscale>
<asrwt>0</asrwt>
<pdfrwt beam="1">  1       21 0.23721623E-01 0.45273776E+03</pdfrwt>
<pdfrwt beam="2">  1       21 0.46716599E-01 0.45273776E+03</pdfrwt>
<totfact> 0.67987065E+04</totfact>
</mgrwt>
</event>
<event>
 7    0  0.4788920E-002  0.4237607E+03  0.7546771E-02  0.1035849E+00
         21   -1    0    0  502  501  0.00000000000E+00  0.00000000000E+00  0.26973904026E+02  0.26973904026E+02  0.00000000000E+00 0. -1.
         21   -1    0    0  501  502 -0.00000000000E+00 -0.00000000000E+00 -0.16643224973E+04  0.16643224973E+04  0.00000000000E+00 0. -1.
      99926    2    1    2    0    0  0.00000000000E+00 -0.44408920985E-14 -0.16373485933E+04  0.16912964013E+04  0.42376066505E+03 0.  0.
      99925    2    3    3    0    0 -0.77763107254E+02  0.74213502239E+01 -0.11395646556E+04  0.11721253948E+04  0.26299840228E+03 0.  0.
         25    1    3    3    0    0  0.77763107254E+02 -0.74213502239E+01 -0.49778393765E+03  0.51917100648E+03  0.12509000000E+03 0.  0.
         25    1    4    4    0    0 -0.35106950916E+02 -0.29934084773E+02 -0.46581340769E+03  0.48451850978E+03  0.12509000000E+03 0.  0.
         25    1    4    4    0    0 -0.42656156337E+02  0.37355434997E+02 -0.67375124791E+03  0.68760688504E+03  0.12509000000E+03 0.  0.
<mgrwt>
<rscale>  2 0.42376067E+03</rscale>
<asrwt>0</asrwt>
<pdfrwt beam="1">  1       21 0.39667502E-02 0.42376067E+03</pdfrwt>
<pdfrwt beam="2">  1       21 0.24475333E+00 0.42376067E+03</pdfrwt>
<totfact> 0.24972434E+04</totfact>
</mgrwt>
</event>
<event>
 7    0  0.4788920E-002  0.4518437E+03  0.7546771E-02  0.1027174E+00
         21   -1    0    0  502  501  0.00000000000E+00  0.00000000000E+00  0.55948367668E+03  0.55948367668E+03  0.00000000000E+00 0. -1.
         21   -1    0    0  501  502 -0.00000000000E+00 -0.00000000000E+00 -0.91228184349E+02  0.91228184349E+02  0.00000000000E+00 0. -1.
      99926    2    1    2    0    0 -0.71054273576E-14  0.00000000000E+00  0.46825549233E+03  0.65071186103E+03  0.45184368977E+03 0.  0.
      99925    2    3    3    0    0  0.35605940299E+02 -0.10272869969E+03  0.27135746001E+03  0.39334575612E+03  0.26318252987E+03 0.  0.
         25    1    3    3    0    0 -0.35605940299E+02  0.10272869969E+03  0.19689803233E+03  0.25736610491E+03  0.12509000000E+03 0.  0.
         25    1    4    4    0    0  0.54119747648E+02 -0.48529120366E+02  0.11303484325E+03  0.18359849264E+03  0.12509000000E+03 0.  0.
         25    1    4    4    0    0 -0.18513807349E+02 -0.54199579326E+02  0.15832261675E+03  0.20974726348E+03  0.12509000000E+03 0.  0.
<mgrwt>
<rscale>  2 0.45184369E+03</rscale>
<asrwt>0</asrwt>
<pdfrwt beam="1">  1       21 0.82277009E-01 0.45184369E+03</pdfrwt>
<pdfrwt beam="2">  1       21 0.13415910E-01 0.45184369E+03</pdfrwt>
<totfact> 0.57068207E+04</totfact>
</mgrwt>
</event>
<event>
 7    0  0.4788920E-002  0.4573354E+03  0.7546771E-02  0.1025557E+00
         21   -1    0    0  502  501  0.00000000000E+00  0.00000000000E+00  0.90946489245E+02  0.90946489245E+02  0.00000000000E+00 0.  1.
         21   -1    0    0  501  502 -0.00000000000E+00 -0.00000000000E+00 -0.57494162006E+03  0.57494162006E+03  0.00000000000E+00 0.  1.
      99926    2    1    2    0    0  0.00000000000E+00  0.17763568394E-14 -0.48399513082E+03  0.66588810931E+03  0.45733542118E+03 0.  0.
      99925    2    3    3    0    0  0.11390130796E+03  0.13386616583E+02 -0.28520436095E+03  0.40451101057E+03  0.26293520249E+03 0.  0.
         25    1    3    3    0    0 -0.11390130796E+03 -0.13386616583E+02 -0.19879076987E+03  0.26137709874E+03  0.12509000000E+03 0.  0.
         25    1    4    4    0    0  0.48058495154E+02  0.44846970362E+02 -0.12644587630E+03  0.18962314584E+03  0.12509000000E+03 0.  0.
         25    1    4    4    0    0  0.65842812807E+02 -0.31460353779E+02 -0.15875848465E+03  0.21488786472E+03  0.12509000000E+03 0.  0.
<mgrwt>
<rscale>  2 0.45733542E+03</rscale>
<asrwt>0</asrwt>
<pdfrwt beam="1">  1       21 0.13374484E-01 0.45733542E+03</pdfrwt>
<pdfrwt beam="2">  1       21 0.84550236E-01 0.45733542E+03</pdfrwt>
<totfact> 0.53796864E+04</totfact>
</mgrwt>
</event>
<event>
 7    0  0.4788920E-002  0.4510117E+03  0.7546771E-02  0.1027421E+00
         21   -1    0    0  502  501  0.00000000000E+00  0.00000000000E+00  0.52692042882E+03  0.52692042882E+03  0.00000000000E+00 0. -1.
         21   -1    0    0  501  502 -0.00000000000E+00 -0.00000000000E+00 -0.96509603141E+02  0.96509603141E+02  0.00000000000E+00 0. -1.
      99926    2    1    2    0    0  0.00000000000E+00  0.00000000000E+00  0.43041082568E+03  0.62343003196E+03  0.45101166935E+03 0.  0.
      99925    2    3    3    0    0 -0.96624590217E+02  0.23292698793E+02  0.20771360958E+03  0.34934898663E+03  0.26271830846E+03 0.  0.
         25    1    4    4    0    0 -0.77324922937E+02  0.16332384001E+02  0.14781735823E+03  0.20914915722E+03  0.12509000000E+03 0.  0.
         25    1    3    3    0    0  0.96624590217E+02 -0.23292698793E+02  0.22269721610E+03  0.27408104533E+03  0.12509000000E+03 0.  0.
         25    1    4    4    0    0 -0.19299667280E+02  0.69603147917E+01  0.59896251352E+02  0.14019982940E+03  0.12509000000E+03 0.  0.
<mgrwt>
<rscale>  2 0.45101167E+03</rscale>
<asrwt>0</asrwt>
<pdfrwt beam="1">  1       21 0.77488297E-01 0.45101167E+03</pdfrwt>
<pdfrwt beam="2">  1       21 0.14192589E-01 0.45101167E+03</pdfrwt>
<totfact> 0.59097886E+04</totfact>
</mgrwt>
</event>
<event>
 7    0  0.4788920E-002  0.4587617E+03  0.7546771E-02  0.1025141E+00
         21   -1    0    0  502  501  0.00000000000E+00  0.00000000000E+00  0.12369254214E+03  0.12369254214E+03  0.00000000000E+00 0. -1.
         21   -1    0    0  501  502 -0.00000000000E+00 -0.00000000000E+00 -0.42537395081E+03  0.42537395081E+03  0.00000000000E+00 0. -1.
      99926    2    1    2    0    0  0.00000000000E+00  0.00000000000E+00 -0.30168140868E+03  0.54906649295E+03  0.45876174790E+03 0.  0.
      99925    2    3    3    0    0  0.16761980651E+02 -0.60898642983E+02 -0.71834140096E+02  0.27986975507E+03  0.26301583109E+03 0.  0.
         25    1    3    3    0    0 -0.16761980651E+02  0.60898642983E+02 -0.22984726858E+03  0.26919673788E+03  0.12509000000E+03 0.  0.
         25    1    4    4    0    0  0.19761869929E+02 -0.52283165973E+02 -0.71288885450E+02  0.15444634744E+03  0.12509000000E+03 0.  0.
         25    1    4    4    0    0 -0.29998892780E+01 -0.86154770097E+01 -0.54525464546E+00  0.12542340763E+03  0.12509000000E+03 0.  0.
<mgrwt>
<rscale>  2 0.45876175E+03</rscale>
<asrwt>0</asrwt>
<pdfrwt beam="1">  1       21 0.18190080E-01 0.45876175E+03</pdfrwt>
<pdfrwt beam="2">  1       21 0.62554993E-01 0.45876175E+03</pdfrwt>
<totfact> 0.60118810E+04</totfact>
</mgrwt>
</event>
<event>
 7    0  0.4788920E-002  0.4545022E+03  0.7546771E-02  0.1026388E+00
         21   -1    0    0  502  501  0.00000000000E+00  0.00000000000E+00  0.67998502801E+03  0.67998502801E+03  0.00000000000E+00 0. -1.
         21   -1    0    0  501  502 -0.00000000000E+00 -0.00000000000E+00 -0.75947338362E+02  0.75947338362E+02  0.00000000000E+00 0. -1.
      99926    2    1    2    0    0  0.14210854715E-13  0.35527136788E-14  0.60403768965E+03  0.75593236637E+03  0.45450215842E+03 0.  0.
      99925    2    3    3    0    0 -0.10608013111E+03 -0.67197071040E+01  0.31934564140E+03  0.42730610583E+03  0.26326929316E+03 0.  0.
         25    1    4    4    0    0 -0.24869605922E+02  0.28388319372E+02  0.15061854380E+03  0.19939370053E+03  0.12509000000E+03 0.  0.
         25    1    4    4    0    0 -0.81210525191E+02 -0.35108026476E+02  0.16872709759E+03  0.22791240529E+03  0.12509000000E+03 0.  0.
         25    1    3    3    0    0  0.10608013111E+03  0.67197071040E+01  0.28469204825E+03  0.32862626054E+03  0.12509000000E+03 0.  0.
<mgrwt>
<rscale>  2 0.45450216E+03</rscale>
<asrwt>0</asrwt>
<pdfrwt beam="1">  1       21 0.99997795E-01 0.45450216E+03</pdfrwt>
<pdfrwt beam="2">  1       21 0.11168727E-01 0.45450216E+03</pdfrwt>
<totfact> 0.50165192E+04</totfact>
</mgrwt>
</event>
<event>
 7    0  0.4788920E-002  0.4517798E+03  0.7546771E-02  0.1027193E+00
         21   -1    0    0  502  501  0.00000000000E+00  0.00000000000E+00  0.63449444384E+03  0.63449444384E+03  0.00000000000E+00 0. -1.
         21   -1    0    0  501  502 -0.00000000000E+00 -0.00000000000E+00 -0.80420336618E+02  0.80420336618E+02  0.00000000000E+00 0. -1.
      99926    2    1    2    0    0  0.71054273576E-14  0.14210854715E-13  0.55407410722E+03  0.71491478046E+03  0.45177984353E+03 0.  0.
      99925    2    3    3    0    0 -0.62325414397E+02 -0.80715985775E+02  0.28351775188E+03  0.39987862832E+03  0.26290887036E+03 0.  0.
         25    1    3    3    0    0  0.62325414397E+02  0.80715985775E+02  0.27055635534E+03  0.31503615214E+03  0.12509000000E+03 0.  0.
         25    1    4    4    0    0 -0.47997311643E+02 -0.11076417024E+02  0.10493429544E+03  0.17054367007E+03  0.12509000000E+03 0.  0.
         25    1    4    4    0    0 -0.14328102754E+02 -0.69639568751E+02  0.17858345644E+03  0.22933495825E+03  0.12509000000E+03 0.  0.
<mgrwt>
<rscale>  2 0.45177984E+03</rscale>
<asrwt>0</asrwt>
<pdfrwt beam="1">  1       21 0.93308004E-01 0.45177984E+03</pdfrwt>
<pdfrwt beam="2">  1       21 0.11826520E-01 0.45177984E+03</pdfrwt>
<totfact> 0.53441632E+04</totfact>
</mgrwt>
</event>
<event>
 7    0  0.4788920E-002  0.4632004E+03  0.7546771E-02  0.1023857E+00
         21   -1    0    0  502  501  0.00000000000E+00  0.00000000000E+00  0.53870383137E+03  0.53870383137E+03  0.00000000000E+00 0.  1.
         21   -1    0    0  501  502 -0.00000000000E+00 -0.00000000000E+00 -0.99569852503E+02  0.99569852503E+02  0.00000000000E+00 0.  1.
      99926    2    1    2    0    0  0.00000000000E+00  0.00000000000E+00  0.43913397887E+03  0.63827368388E+03  0.46320043624E+03 0.  0.
      99925    2    3    3    0    0  0.42317899127E+02  0.99898060315E+02  0.20138502718E+03  0.34854536429E+03  0.26297816402E+03 0.  0.
         25    1    4    4    0    0 -0.15217066919E+02  0.49940745030E+02  0.74004922225E+02  0.15443404338E+03  0.12509000000E+03 0.  0.
         25    1    4    4    0    0  0.57534966046E+02  0.49957315285E+02  0.12738010495E+03  0.19411132091E+03  0.12509000000E+03 0.  0.
         25    1    3    3    0    0 -0.42317899127E+02 -0.99898060315E+02  0.23774895169E+03  0.28972831959E+03  0.12509000000E+03 0.  0.
<mgrwt>
<rscale>  2 0.46320044E+03</rscale>
<asrwt>0</asrwt>
<pdfrwt beam="1">  1       21 0.79221150E-01 0.46320044E+03</pdfrwt>
<pdfrwt beam="2">  1       21 0.14642626E-01 0.46320044E+03</pdfrwt>
<totfact> 0.52875919E+04</totfact>
</mgrwt>
</event>
<event>
 7    0  0.4788920E-002  0.4554887E+03  0.7546771E-02  0.1026098E+00
         21   -1    0    0  502  501  0.00000000000E+00  0.00000000000E+00  0.95273322446E+03  0.95273322446E+03  0.00000000000E+00 0. -1.
         21   -1    0    0  501  502 -0.00000000000E+00 -0.00000000000E+00 -0.54440723679E+02  0.54440723679E+02  0.00000000000E+00 0. -1.
      99926    2    1    2    0    0  0.00000000000E+00  0.00000000000E+00  0.89829250078E+03  0.10071739481E+04  0.45548868795E+03 0.  0.
      99925    2    3    3    0    0 -0.20805766841E+02 -0.41702504164E+02  0.33598083235E+03  0.42923459203E+03  0.26303466787E+03 0.  0.
         25    1    3    3    0    0  0.20805766841E+02  0.41702504164E+02  0.56231166843E+03  0.57793935611E+03  0.12509000000E+03 0.  0.
         25    1    4    4    0    0  0.29497002935E+02 -0.12058967745E+02  0.16277514248E+03  0.20774683390E+03  0.12509000000E+03 0.  0.
         25    1    4    4    0    0 -0.50302769775E+02 -0.29643536419E+02  0.17320568987E+03  0.22148775813E+03  0.12509000000E+03 0.  0.
<mgrwt>
<rscale>  2 0.45548869E+03</rscale>
<asrwt>0</asrwt>
<pdfrwt beam="1">  1       21 0.14010782E+00 0.45548869E+03</pdfrwt>
<pdfrwt beam="2">  1       21 0.80059894E-02 0.45548869E+03</pdfrwt>
<totfact> 0.38740857E+04</totfact>
</mgrwt>
</event>
<event>
 7    0  0.4788920E-002  0.4557930E+03  0.7546771E-02  0.1026008E+00
         21   -1    0    0  502  501  0.00000000000E+00  0.00000000000E+00  0.11280671196E+03  0.11280671196E+03  0.00000000000E+00 0. -1.
         21   -1    0    0  501  502 -0.00000000000E+00 -0.00000000000E+00 -0.46040538444E+03  0.46040538444E+03  0.00000000000E+00 0. -1.
      99926    2    1    2    0    0  0.11102230246E-14  0.00000000000E+00 -0.34759867249E+03  0.57321209640E+03  0.45579301261E+03 0.  0.
      99925    2    3    3    0    0  0.18860478176E+01 -0.58430999579E+01 -0.36162628172E+03  0.44718836485E+03  0.26299461408E+03 0.  0.
         25    1    4    4    0    0  0.37222103226E+02 -0.49253396736E+01 -0.15063638624E+03  0.19937044139E+03  0.12509000000E+03 0.  0.
         25    1    3    3    0    0 -0.18860478176E+01  0.58430999579E+01  0.14027609229E+02  0.12602373155E+03  0.12509000000E+03 0.  0.
         25    1    4    4    0    0 -0.35336055408E+02 -0.91776028423E+00 -0.21098989547E+03  0.24781792346E+03  0.12509000000E+03 0.  0.
<mgrwt>
<rscale>  2 0.45579301E+03</rscale>
<asrwt>0</asrwt>
<pdfrwt beam="1">  1       21 0.16589222E-01 0.45579301E+03</pdfrwt>
<pdfrwt beam="2">  1       21 0.67706674E-01 0.45579301E+03</pdfrwt>
<totfact> 0.59981197E+04</totfact>
</mgrwt>
</event>
<event>
 7    0  0.4788920E-002  0.4425211E+03  0.7546771E-02  0.1029976E+00
         21   -1    0    0  502  501  0.00000000000E+00  0.00000000000E+00  0.27920310338E+03  0.27920310338E+03  0.00000000000E+00 0.  1.
         21   -1    0    0  501  502 -0.00000000000E+00 -0.00000000000E+00 -0.17534272992E+03  0.17534272992E+03  0.00000000000E+00 0.  1.
      99926    2    1    2    0    0  0.00000000000E+00  0.00000000000E+00  0.10386037346E+03  0.45454583330E+03  0.44252111519E+03 0.  0.
      99925    2    3    3    0    0 -0.75599707466E+02 -0.56169527144E+02  0.10377745226E+03  0.29796407662E+03  0.26294961458E+03 0.  0.
         25    1    3    3    0    0  0.75599707466E+02  0.56169527144E+02  0.82921195520E-01  0.15658175668E+03  0.12509000000E+03 0.  0.
         25    1    4    4    0    0 -0.58202621206E+02  0.57753066332E+01  0.60771384526E+02  0.15086937582E+03  0.12509000000E+03 0.  0.
         25    1    4    4    0    0 -0.17397086260E+02 -0.61944833777E+02  0.43006067734E+02  0.14709470080E+03  0.12509000000E+03 0.  0.
<mgrwt>
<rscale>  2 0.44252112E+03</rscale>
<asrwt>0</asrwt>
<pdfrwt beam="1">  1       21 0.41059280E-01 0.44252112E+03</pdfrwt>
<pdfrwt beam="2">  1       21 0.25785695E-01 0.44252112E+03</pdfrwt>
<totfact> 0.75835616E+04</totfact>
</mgrwt>
</event>
<event>
 7    0  0.4788920E-002  0.4432570E+03  0.7546771E-02  0.1029752E+00
         21   -1    0    0  502  501  0.00000000000E+00  0.00000000000E+00  0.23490002760E+03  0.23490002760E+03  0.00000000000E+00 0.  1.
         21   -1    0    0  501  502 -0.00000000000E+00 -0.00000000000E+00 -0.20910683550E+03  0.20910683550E+03  0.00000000000E+00 0.  1.
      99926    2    1    2    0    0  0.00000000000E+00  0.00000000000E+00  0.25793192102E+02  0.44400686310E+03  0.44325704249E+03 0.  0.
      99925    2    3    3    0    0 -0.97792064117E+02  0.25229089290E+02  0.38050647354E+01  0.28173924280E+03  0.26298807514E+03 0.  0.
         25    1    3    3    0    0  0.97792064117E+02 -0.25229089290E+02  0.21988127367E+02  0.16226762029E+03  0.12509000000E+03 0.  0.
         25    1    4    4    0    0 -0.75758849337E+02  0.27219570998E+00  0.30943545941E+02  0.14948072946E+03  0.12509000000E+03 0.  0.
         25    1    4    4    0    0 -0.22033214780E+02  0.24956893580E+02 -0.27138481205E+02  0.13225851335E+03  0.12509000000E+03 0.  0.
<mgrwt>
<rscale>  2 0.44325704E+03</rscale>
<asrwt>0</asrwt>
<pdfrwt beam="1">  1       21 0.34544122E-01 0.44325704E+03</pdfrwt>
<pdfrwt beam="2">  1       21 0.30751005E-01 0.44325704E+03</pdfrwt>
<totfact> 0.76257133E+04</totfact>
</mgrwt>
</event>
<event>
 7    0  0.4788920E-002  0.4554716E+03  0.7546771E-02  0.1026103E+00
         21   -1    0    0  502  501  0.00000000000E+00  0.00000000000E+00  0.83610120641E+02  0.83610120641E+02  0.00000000000E+00 0. -1.
         21   -1    0    0  501  502 -0.00000000000E+00 -0.00000000000E+00 -0.62030293979E+03  0.62030293979E+03  0.00000000000E+00 0. -1.
      99926    2    1    2    0    0  0.00000000000E+00  0.00000000000E+00 -0.53669281915E+03  0.70391306043E+03  0.45547163964E+03 0.  0.
      99925    2    3    3    0    0 -0.96801693112E+02  0.35740312251E+02 -0.41111287727E+03  0.49881365134E+03  0.26297019449E+03 0.  0.
         25    1    4    4    0    0 -0.62091657992E+02  0.11643451338E+02 -0.14446786953E+03  0.20126951428E+03  0.12509000000E+03 0.  0.
         25    1    4    4    0    0 -0.34710035119E+02  0.24096860913E+02 -0.26664500774E+03  0.29754413706E+03  0.12509000000E+03 0.  0.
         25    1    3    3    0    0  0.96801693112E+02 -0.35740312251E+02 -0.12557994187E+03  0.20509940909E+03  0.12509000000E+03 0.  0.
<mgrwt>
<rscale>  2 0.45547164E+03</rscale>
<asrwt>0</asrwt>
<pdfrwt beam="1">  1       21 0.12295606E-01 0.45547164E+03</pdfrwt>
<pdfrwt beam="2">  1       21 0.91221017E-01 0.45547164E+03</pdfrwt>
<totfact> 0.52495915E+04</totfact>
</mgrwt>
</event>
<event>
 7    0  0.4788920E-002  0.4314284E+03  0.7546771E-02  0.1033410E+00
         21   -1    0    0  502  501  0.00000000000E+00  0.00000000000E+00  0.73593073508E+03  0.73593073508E+03  0.00000000000E+00 0. -1.
         21   -1    0    0  501  502 -0.00000000000E+00 -0.00000000000E+00 -0.63229619736E+02  0.63229619736E+02  0.00000000000E+00 0. -1.
      99926    2    1    2    0    0  0.00000000000E+00  0.00000000000E+00  0.67270111534E+03  0.79916035481E+03  0.43142842063E+03 0.  0.
      99925    2    3    3    0    0 -0.11021050174E+02  0.87523515475E+02  0.41297465134E+03  0.49768535832E+03  0.26336443178E+03 0.  0.
         25    1    4    4    0    0 -0.54166373040E+01  0.42057649760E+02  0.13201838328E+03  0.18674728241E+03  0.12509000000E+03 0.  0.
         25    1    4    4    0    0 -0.56044128702E+01  0.45465865715E+02  0.28095626806E+03  0.31093807591E+03  0.12509000000E+03 0.  0.
         25    1    3    3    0    0  0.11021050174E+02 -0.87523515475E+02  0.25972646400E+03  0.30147499649E+03  0.12509000000E+03 0.  0.
<mgrwt>
<rscale>  2 0.43142842E+03</rscale>
<asrwt>0</asrwt>
<pdfrwt beam="1">  1       21 0.10822510E+00 0.43142842E+03</pdfrwt>
<pdfrwt beam="2">  1       21 0.92984739E-02 0.43142842E+03</pdfrwt>
<totfact> 0.57774545E+04</totfact>
</mgrwt>
</event>
<event>
 7    0  0.4788920E-002  0.4539460E+03  0.7546771E-02  0.1026552E+00
         21   -1    0    0  502  501  0.00000000000E+00  0.00000000000E+00  0.63016345974E+02  0.63016345974E+02  0.00000000000E+00 0.  1.
         21   -1    0    0  501  502 -0.00000000000E+00 -0.00000000000E+00 -0.81751413600E+03  0.81751413600E+03  0.00000000000E+00 0.  1.
      99926    2    1    2    0    0  0.00000000000E+00  0.00000000000E+00 -0.75449779003E+03  0.88053048198E+03  0.45394604804E+03 0.  0.
      99925    2    3    3    0    0 -0.91090058234E+01  0.43693848048E+02 -0.27658288077E+03  0.38450397569E+03  0.26334975042E+03 0.  0.
         25    1    3    3    0    0  0.91090058234E+01 -0.43693848048E+02 -0.47791490926E+03  0.49602650628E+03  0.12509000000E+03 0.  0.
         25    1    4    4    0    0  0.25287836912E+01 -0.12324923886E+02 -0.16466252275E+03  0.20717034777E+03  0.12509000000E+03 0.  0.
         25    1    4    4    0    0 -0.11637789515E+02  0.56018771934E+02 -0.11192035802E+03  0.17733362792E+03  0.12509000000E+03 0.  0.
<mgrwt>
<rscale>  2 0.45394605E+03</rscale>
<asrwt>0</asrwt>
<pdfrwt beam="1">  1       21 0.92671111E-02 0.45394605E+03</pdfrwt>
<pdfrwt beam="2">  1       21 0.12022265E+00 0.45394605E+03</pdfrwt>
<totfact> 0.44452011E+04</totfact>
</mgrwt>
</event>
<event>
 7    0  0.4788920E-002  0.4587379E+03  0.7546771E-02  0.1025148E+00
         21   -1    0    0  502  501  0.00000000000E+00  0.00000000000E+00  0.37903012480E+03  0.37903012480E+03  0.00000000000E+00 0. -1.
         21   -1    0    0  501  502 -0.00000000000E+00 -0.00000000000E+00 -0.13880194539E+03  0.13880194539E+03  0.00000000000E+00 0. -1.
      99926    2    1    2    0    0 -0.35527136788E-14  0.00000000000E+00  0.24022817941E+03  0.51783207019E+03  0.45873791509E+03 0.  0.
      99925    2    3    3    0    0  0.18245362617E+02 -0.90875923274E+02  0.70831389212E+02  0.28775793580E+03  0.26305173869E+03 0.  0.
         25    1    4    4    0    0 -0.22050974867E+02 -0.26993837800E+02  0.12624745018E+02  0.13046763989E+03  0.12509000000E+03 0.  0.
         25    1    3    3    0    0 -0.18245362617E+02  0.90875923274E+02  0.16939679020E+03  0.23007413439E+03  0.12509000000E+03 0.  0.
         25    1    4    4    0    0  0.40296337484E+02 -0.63882085473E+02  0.58206644194E+02  0.15729029591E+03  0.12509000000E+03 0.  0.
<mgrwt>
<rscale>  2 0.45873792E+03</rscale>
<asrwt>0</asrwt>
<pdfrwt beam="1">  1       21 0.55739724E-01 0.45873792E+03</pdfrwt>
<pdfrwt beam="2">  1       21 0.20412051E-01 0.45873792E+03</pdfrwt>
<totfact> 0.62170667E+04</totfact>
</mgrwt>
</event>
<event>
 7    0  0.4788920E-002  0.4552519E+03  0.7546771E-02  0.1026167E+00
         21   -1    0    0  502  501  0.00000000000E+00  0.00000000000E+00  0.27163734309E+03  0.27163734309E+03  0.00000000000E+00 0. -1.
         21   -1    0    0  501  502 -0.00000000000E+00 -0.00000000000E+00 -0.19074541413E+03  0.19074541413E+03  0.00000000000E+00 0. -1.
      99926    2    1    2    0    0  0.00000000000E+00  0.00000000000E+00  0.80891928956E+02  0.46238275722E+03  0.45525191927E+03 0.  0.
      99925    2    3    3    0    0 -0.57128362918E+02 -0.83979741980E+02 -0.58392867007E-01  0.28205885526E+03  0.26313674679E+03 0.  0.
         25    1    3    3    0    0  0.57128362918E+02  0.83979741980E+02  0.80950321823E+02  0.18032390195E+03  0.12509000000E+03 0.  0.
         25    1    4    4    0    0 -0.26565140498E+02 -0.10254881257E+02 -0.27389844999E+02  0.13118148112E+03  0.12509000000E+03 0.  0.
         25    1    4    4    0    0 -0.30563222420E+02 -0.73724860723E+02  0.27331452132E+02  0.15087737414E+03  0.12509000000E+03 0.  0.
<mgrwt>
<rscale>  2 0.45525192E+03</rscale>
<asrwt>0</asrwt>
<pdfrwt beam="1">  1       21 0.39946668E-01 0.45525192E+03</pdfrwt>
<pdfrwt beam="2">  1       21 0.28050796E-01 0.45525192E+03</pdfrwt>
<totfact> 0.67868821E+04</totfact>
</mgrwt>
</event>
<event>
 7    0  0.4788920E-002  0.4549721E+03  0.7546771E-02  0.1026250E+00
         21   -1    0    0  502  501  0.00000000000E+00  0.00000000000E+00  0.59120089905E+03  0.59120089905E+03  0.00000000000E+00 0.  1.
         21   -1    0    0  501  502 -0.00000000000E+00 -0.00000000000E+00 -0.87533541283E+02  0.87533541283E+02  0.00000000000E+00 0.  1.
      99926    2    1    2    0    0  0.00000000000E+00  0.71054273576E-14  0.50366735776E+03  0.67873444033E+03  0.45497212356E+03 0.  0.
      99925    2    3    3    0    0 -0.19219335800E+02 -0.40692775082E+02  0.47191102279E+03  0.54205504275E+03  0.26286569028E+03 0.  0.
         25    1    3    3    0    0  0.19219335800E+02  0.40692775082E+02  0.31756334979E+02  0.13667939758E+03  0.12509000000E+03 0.  0.
         25    1    4    4    0    0 -0.26490392409E+02 -0.49368518918E+02  0.29281168143E+03  0.32330354225E+03  0.12509000000E+03 0.  0.
         25    1    4    4    0    0  0.72710566085E+01  0.86757438360E+01  0.17909934136E+03  0.21875150050E+03  0.12509000000E+03 0.  0.
<mgrwt>
<rscale>  2 0.45497212E+03</rscale>
<asrwt>0</asrwt>
<pdfrwt beam="1">  1       21 0.86941307E-01 0.45497212E+03</pdfrwt>
<pdfrwt beam="2">  1       21 0.12872580E-01 0.45497212E+03</pdfrwt>
<totfact> 0.54085172E+04</totfact>
</mgrwt>
</event>
<event>
 7    0  0.4788920E-002  0.4490904E+03  0.7546771E-02  0.1027994E+00
         21   -1    0    0  502  501  0.00000000000E+00  0.00000000000E+00  0.37207428913E+03  0.37207428913E+03  0.00000000000E+00 0. -1.
         21   -1    0    0  501  502 -0.00000000000E+00 -0.00000000000E+00 -0.13551201449E+03  0.13551201449E+03  0.00000000000E+00 0. -1.
      99926    2    1    2    0    0  0.00000000000E+00 -0.71054273576E-14  0.23656227464E+03  0.50758630362E+03  0.44909035376E+03 0.  0.
      99925    2    3    3    0    0 -0.87843352995E+02  0.53006245742E+02  0.18519655543E+03  0.33784514195E+03  0.26327829201E+03 0.  0.
         25    1    4    4    0    0 -0.23632747217E+02  0.10183910822E+02  0.12595352634E+03  0.17937117293E+03  0.12509000000E+03 0.  0.
         25    1    3    3    0    0  0.87843352995E+02 -0.53006245742E+02  0.51365719209E+02  0.16974116166E+03  0.12509000000E+03 0.  0.
         25    1    4    4    0    0 -0.64210605777E+02  0.42822334920E+02  0.59243029086E+02  0.15847396902E+03  0.12509000000E+03 0.  0.
<mgrwt>
<rscale>  2 0.44909035E+03</rscale>
<asrwt>0</asrwt>
<pdfrwt beam="1">  1       21 0.54716807E-01 0.44909035E+03</pdfrwt>
<pdfrwt beam="2">  1       21 0.19928237E-01 0.44909035E+03</pdfrwt>
<totfact> 0.67868482E+04</totfact>
</mgrwt>
</event>
<event>
 7    0  0.4788920E-002  0.4787074E+03  0.7546771E-02  0.1019491E+00
         21   -1    0    0  502  501  0.00000000000E+00  0.00000000000E+00  0.94228077962E+02  0.94228077962E+02  0.00000000000E+00 0.  1.
         21   -1    0    0  501  502 -0.00000000000E+00 -0.00000000000E+00 -0.60799494301E+03  0.60799494301E+03  0.00000000000E+00 0.  1.
      99926    2    1    2    0    0  0.00000000000E+00  0.00000000000E+00 -0.51376686505E+03  0.70222302098E+03  0.47870740496E+03 0.  0.
      99925    2    3    3    0    0 -0.33455194775E+02 -0.72709911041E+02 -0.15886889437E+03  0.31750746512E+03  0.26299369496E+03 0.  0.
         25    1    4    4    0    0 -0.49148786490E+02 -0.20922630663E+02 -0.10110625873E+03  0.16947962515E+03  0.12509000000E+03 0.  0.
         25    1    4    4    0    0  0.15693591715E+02 -0.51787280378E+02 -0.57762635635E+02  0.14802783997E+03  0.12509000000E+03 0.  0.
         25    1    3    3    0    0  0.33455194775E+02  0.72709911041E+02 -0.35489797069E+03  0.38471555586E+03  0.12509000000E+03 0.  0.
<mgrwt>
<rscale>  2 0.47870740E+03</rscale>
<asrwt>0</asrwt>
<pdfrwt beam="1">  1       21 0.13857070E-01 0.47870740E+03</pdfrwt>
<pdfrwt beam="2">  1       21 0.89411023E-01 0.47870740E+03</pdfrwt>
<totfact> 0.43979181E+04</totfact>
</mgrwt>
</event>
<event>
 7    0  0.4788920E-002  0.4484248E+03  0.7546771E-02  0.1028193E+00
         21   -1    0    0  502  501  0.00000000000E+00  0.00000000000E+00  0.61517300531E+03  0.61517300531E+03  0.00000000000E+00 0.  1.
         21   -1    0    0  501  502 -0.00000000000E+00 -0.00000000000E+00 -0.81718804174E+02  0.81718804174E+02  0.00000000000E+00 0.  1.
      99926    2    1    2    0    0  0.00000000000E+00 -0.14210854715E-13  0.53345420114E+03  0.69689180949E+03  0.44842480910E+03 0.  0.
      99925    2    3    3    0    0 -0.27384806489E+02  0.60465422597E+02  0.46788402957E+03  0.54083749056E+03  0.26302800443E+03 0.  0.
         25    1    4    4    0    0 -0.18566960877E+02  0.68798000443E+02  0.22004723110E+03  0.26295662934E+03  0.12509000000E+03 0.  0.
         25    1    4    4    0    0 -0.88178456121E+01 -0.83325778461E+01  0.24783679847E+03  0.27788086122E+03  0.12509000000E+03 0.  0.
         25    1    3    3    0    0  0.27384806489E+02 -0.60465422597E+02  0.65570171570E+02  0.15605431893E+03  0.12509000000E+03 0.  0.
<mgrwt>
<rscale>  2 0.44842481E+03</rscale>
<asrwt>0</asrwt>
<pdfrwt beam="1">  1       21 0.90466616E-01 0.44842481E+03</pdfrwt>
<pdfrwt beam="2">  1       21 0.12017472E-01 0.44842481E+03</pdfrwt>
<totfact> 0.55909627E+04</totfact>
</mgrwt>
</event>
<event>
 7    0  0.4788920E-002  0.4579918E+03  0.7546771E-02  0.1025365E+00
         21   -1    0    0  502  501  0.00000000000E+00  0.00000000000E+00  0.82985532196E+02  0.82985532196E+02  0.00000000000E+00 0.  1.
         21   -1    0    0  501  502 -0.00000000000E+00 -0.00000000000E+00 -0.63190666545E+03  0.63190666545E+03  0.00000000000E+00 0.  1.
      99926    2    1    2    0    0  0.00000000000E+00  0.00000000000E+00 -0.54892113325E+03  0.71489219765E+03  0.45799175071E+03 0.  0.
      99925    2    3    3    0    0 -0.11639952174E+03  0.42974304273E+01 -0.34956216752E+03  0.45229207981E+03  0.26231107473E+03 0.  0.
         25    1    4    4    0    0 -0.49679265557E+02 -0.11296459257E+02 -0.22745726546E+03  0.26453724715E+03  0.12509000000E+03 0.  0.
         25    1    3    3    0    0  0.11639952174E+03 -0.42974304273E+01 -0.19935896574E+03  0.26260011784E+03  0.12509000000E+03 0.  0.
         25    1    4    4    0    0 -0.66720256183E+02  0.15593889684E+02 -0.12210490206E+03  0.18775483266E+03  0.12509000000E+03 0.  0.
<mgrwt>
<rscale>  2 0.45799175E+03</rscale>
<asrwt>0</asrwt>
<pdfrwt beam="1">  1       21 0.12203755E-01 0.45799175E+03</pdfrwt>
<pdfrwt beam="2">  1       21 0.92927451E-01 0.45799175E+03</pdfrwt>
<totfact> 0.50893475E+04</totfact>
</mgrwt>
</event>
<event>
 7    0  0.4788920E-002  0.4285599E+03  0.7546771E-02  0.1034316E+00
         21   -1    0    0  502  501  0.00000000000E+00  0.00000000000E+00  0.21300782832E+03  0.21300782832E+03  0.00000000000E+00 0. -1.
         21   -1    0    0  501  502 -0.00000000000E+00 -0.00000000000E+00 -0.21555969984E+03  0.21555969984E+03  0.00000000000E+00 0. -1.
      99926    2    1    2    0    0  0.00000000000E+00  0.00000000000E+00 -0.25518715178E+01  0.42856752816E+03  0.42855993063E+03 0.  0.
      99925    2    3    3    0    0  0.27543873694E+02  0.75867794378E+02  0.27651582046E+02  0.27666511241E+03  0.26318128208E+03 0.  0.
         25    1    4    4    0    0  0.34166559248E+02  0.26967003425E+02  0.47561684364E+02  0.14072737816E+03  0.12509000000E+03 0.  0.
         25    1    4    4    0    0 -0.66226855533E+01  0.48900790953E+02 -0.19910102318E+02  0.13593773425E+03  0.12509000000E+03 0.  0.
         25    1    3    3    0    0 -0.27543873694E+02 -0.75867794378E+02 -0.30203453563E+02  0.15190241574E+03  0.12509000000E+03 0.  0.
<mgrwt>
<rscale>  2 0.42855993E+03</rscale>
<asrwt>0</asrwt>
<pdfrwt beam="1">  1       21 0.31324681E-01 0.42855993E+03</pdfrwt>
<pdfrwt beam="2">  1       21 0.31699956E-01 0.42855993E+03</pdfrwt>
<totfact> 0.87599718E+04</totfact>
</mgrwt>
</event>
<event>
 7    0  0.4788920E-002  0.4530830E+03  0.7546771E-02  0.1026807E+00
         21   -1    0    0  502  501  0.00000000000E+00  0.00000000000E+00  0.20605921540E+02  0.20605921540E+02  0.00000000000E+00 0.  1.
         21   -1    0    0  501  502 -0.00000000000E+00 -0.00000000000E+00 -0.24905970246E+04  0.24905970246E+04  0.00000000000E+00 0.  1.
      99926    2    1    2    0    0  0.00000000000E+00  0.00000000000E+00 -0.24699911030E+04  0.25112029461E+04  0.45308298082E+03 0.  0.
      99925    2    3    3    0    0 -0.87258491696E+02  0.20680983203E+02 -0.19239455511E+04  0.19438802863E+04  0.26279713940E+03 0.  0.
         25    1    4    4    0    0 -0.67782334173E+02 -0.22237801331E+02 -0.99671143173E+03  0.10070601526E+04  0.12509000000E+03 0.  0.
         25    1    4    4    0    0 -0.19476157523E+02  0.42918784535E+02 -0.92723411937E+03  0.93682013375E+03  0.12509000000E+03 0.  0.
         25    1    3    3    0    0  0.87258491696E+02 -0.20680983203E+02 -0.54604555196E+03  0.56732265982E+03  0.12509000000E+03 0.  0.
<mgrwt>
<rscale>  2 0.45308298E+03</rscale>
<asrwt>0</asrwt>
<pdfrwt beam="1">  1       21 0.30302844E-02 0.45308298E+03</pdfrwt>
<pdfrwt beam="2">  1       21 0.36626405E+00 0.45308298E+03</pdfrwt>
<totfact> 0.71234197E+03</totfact>
</mgrwt>
</event>
<event>
 7    0  0.4788920E-002  0.4544805E+03  0.7546771E-02  0.1026394E+00
         21   -1    0    0  502  501  0.00000000000E+00  0.00000000000E+00  0.71713994301E+03  0.71713994301E+03  0.00000000000E+00 0.  1.
         21   -1    0    0  501  502 -0.00000000000E+00 -0.00000000000E+00 -0.72005647638E+02  0.72005647638E+02  0.00000000000E+00 0.  1.
      99926    2    1    2    0    0  0.71054273576E-14  0.00000000000E+00  0.64513429537E+03  0.78914559064E+03  0.45448047722E+03 0.  0.
      99925    2    3    3    0    0  0.32486033869E+02  0.46900424530E+02  0.57524511004E+03  0.63491524816E+03  0.26259368518E+03 0.  0.
         25    1    4    4    0    0  0.35185935819E+02  0.21490411971E+02  0.20884489028E+03  0.24690804803E+03  0.12509000000E+03 0.  0.
         25    1    4    4    0    0 -0.26999019499E+01  0.25410012559E+02  0.36640021977E+03  0.38800720013E+03  0.12509000000E+03 0.  0.
         25    1    3    3    0    0 -0.32486033869E+02 -0.46900424530E+02  0.69889185324E+02  0.15423034248E+03  0.12509000000E+03 0.  0.
<mgrwt>
<rscale>  2 0.45448048E+03</rscale>
<asrwt>0</asrwt>
<pdfrwt beam="1">  1       21 0.10546175E+00 0.45448048E+03</pdfrwt>
<pdfrwt beam="2">  1       21 0.10589066E-01 0.45448048E+03</pdfrwt>
<totfact> 0.48491751E+04</totfact>
</mgrwt>
</event>
<event>
 7    0  0.4788920E-002  0.4557103E+03  0.7546771E-02  0.1026033E+00
         21   -1    0    0  502  501  0.00000000000E+00  0.00000000000E+00  0.52865052644E+02  0.52865052644E+02  0.00000000000E+00 0.  1.
         21   -1    0    0  501  502 -0.00000000000E+00 -0.00000000000E+00 -0.98208494715E+03  0.98208494715E+03  0.00000000000E+00 0.  1.
      99926    2    1    2    0    0  0.00000000000E+00  0.00000000000E+00 -0.92921989450E+03  0.10349499998E+04  0.45571031339E+03 0.  0.
      99925    2    3    3    0    0 -0.21903873731E+02 -0.99384618878E+02 -0.70021143156E+03  0.75486168095E+03  0.26298864295E+03 0.  0.
         25    1    4    4    0    0  0.33273387123E+01 -0.72831388928E+02 -0.28493903219E+03  0.31961420894E+03  0.12509000000E+03 0.  0.
         25    1    3    3    0    0  0.21903873731E+02  0.99384618878E+02 -0.22900846294E+03  0.28008831884E+03  0.12509000000E+03 0.  0.
         25    1    4    4    0    0 -0.25231212443E+02 -0.26553229950E+02 -0.41527239938E+03  0.43524747200E+03  0.12509000000E+03 0.  0.
<mgrwt>
<rscale>  2 0.45571031E+03</rscale>
<asrwt>0</asrwt>
<pdfrwt beam="1">  1       21 0.77742733E-02 0.45571031E+03</pdfrwt>
<pdfrwt beam="2">  1       21 0.14442424E+00 0.45571031E+03</pdfrwt>
<totfact> 0.37625453E+04</totfact>
</mgrwt>
</event>
<event>
 7    0  0.4788920E-002  0.4549333E+03  0.7546771E-02  0.1026261E+00
         21   -1    0    0  502  501  0.00000000000E+00  0.00000000000E+00  0.10134486017E+04  0.10134486017E+04  0.00000000000E+00 0.  1.
         21   -1    0    0  501  502 -0.00000000000E+00 -0.00000000000E+00 -0.51054460459E+02  0.51054460459E+02  0.00000000000E+00 0.  1.
      99926    2    1    2    0    0  0.00000000000E+00  0.00000000000E+00  0.96239414124E+03  0.10645030622E+04  0.45493327670E+03 0.  0.
      99925    2    3    3    0    0 -0.39080952436E+02  0.84817672375E+02  0.45622009726E+03  0.53480406339E+03  0.26297766196E+03 0.  0.
         25    1    3    3    0    0  0.39080952436E+02 -0.84817672375E+02  0.50617404399E+03  0.52969899877E+03  0.12509000000E+03 0.  0.
         25    1    4    4    0    0 -0.43136995874E+02  0.64850748903E+02  0.29477926001E+03  0.32955840193E+03  0.12509000000E+03 0.  0.
         25    1    4    4    0    0  0.40560434381E+01  0.19966923472E+02  0.16144083724E+03  0.20524566147E+03  0.12509000000E+03 0.  0.
<mgrwt>
<rscale>  2 0.45493328E+03</rscale>
<asrwt>0</asrwt>
<pdfrwt beam="1">  1       21 0.14903655E+00 0.45493328E+03</pdfrwt>
<pdfrwt beam="2">  1       21 0.75080095E-02 0.45493328E+03</pdfrwt>
<totfact> 0.36768836E+04</totfact>
</mgrwt>
</event>
<event>
 7    0  0.4788920E-002  0.4495308E+03  0.7546771E-02  0.1027862E+00
         21   -1    0    0  502  501  0.00000000000E+00  0.00000000000E+00  0.82050408369E+02  0.82050408369E+02  0.00000000000E+00 0.  1.
         21   -1    0    0  501  502 -0.00000000000E+00 -0.00000000000E+00 -0.61571276319E+03  0.61571276319E+03  0.00000000000E+00 0.  1.
      99926    2    1    2    0    0  0.00000000000E+00  0.00000000000E+00 -0.53366235482E+03  0.69776317156E+03  0.44953079386E+03 0.  0.
      99925    2    3    3    0    0  0.84976141659E+02 -0.24926179809E+02 -0.24126954608E+03  0.36763695056E+03  0.26287577761E+03 0.  0.
         25    1    3    3    0    0 -0.84976141659E+02  0.24926179809E+02 -0.29239280873E+03  0.33012622100E+03  0.12509000000E+03 0.  0.
         25    1    4    4    0    0  0.29744121389E+01 -0.68821053813E+01 -0.12817033608E+03  0.17925220683E+03  0.12509000000E+03 0.  0.
         25    1    4    4    0    0  0.82001729521E+02 -0.18044074428E+02 -0.11309921001E+03  0.18838474373E+03  0.12509000000E+03 0.  0.
<mgrwt>
<rscale>  2 0.44953079E+03</rscale>
<asrwt>0</asrwt>
<pdfrwt beam="1">  1       21 0.12066237E-01 0.44953079E+03</pdfrwt>
<pdfrwt beam="2">  1       21 0.90545994E-01 0.44953079E+03</pdfrwt>
<totfact> 0.55369675E+04</totfact>
</mgrwt>
</event>
<event>
 7    0  0.4788920E-002  0.4526598E+03  0.7546771E-02  0.1026932E+00
         21   -1    0    0  502  501  0.00000000000E+00  0.00000000000E+00  0.26820254321E+03  0.26820254321E+03  0.00000000000E+00 0.  1.
         21   -1    0    0  501  502 -0.00000000000E+00 -0.00000000000E+00 -0.19099458273E+03  0.19099458273E+03  0.00000000000E+00 0.  1.
      99926    2    1    2    0    0  0.00000000000E+00  0.00000000000E+00  0.77207960481E+02  0.45919712594E+03  0.45265984062E+03 0.  0.
      99925    2    3    3    0    0  0.67804775394E+02  0.87608144058E+02  0.55210012092E+02  0.29066198923E+03  0.26298968056E+03 0.  0.
         25    1    3    3    0    0 -0.67804775394E+02 -0.87608144058E+02  0.21997948388E+02  0.16853513671E+03  0.12509000000E+03 0.  0.
         25    1    4    4    0    0  0.69333084336E+02  0.67502749195E+02  0.39327065699E+02  0.16296571397E+03  0.12509000000E+03 0.  0.
         25    1    4    4    0    0 -0.15283089426E+01  0.20105394863E+02  0.15882946393E+02  0.12769627527E+03  0.12509000000E+03 0.  0.
<mgrwt>
<rscale>  2 0.45265984E+03</rscale>
<asrwt>0</asrwt>
<pdfrwt beam="1">  1       21 0.39441551E-01 0.45265984E+03</pdfrwt>
<pdfrwt beam="2">  1       21 0.28087438E-01 0.45265984E+03</pdfrwt>
<totfact> 0.69527451E+04</totfact>
</mgrwt>
</event>
<event>
 7    0  0.4788920E-002  0.4620598E+03  0.7546771E-02  0.1024186E+00
         21   -1    0    0  502  501  0.00000000000E+00  0.00000000000E+00  0.12535085412E+03  0.12535085412E+03  0.00000000000E+00 0. -1.
         21   -1    0    0  501  502 -0.00000000000E+00 -0.00000000000E+00 -0.42580336423E+03  0.42580336423E+03  0.00000000000E+00 0. -1.
      99926    2    1    2    0    0  0.00000000000E+00  0.35527136788E-14 -0.30045251011E+03  0.55115421835E+03  0.46205980303E+03 0.  0.
      99925    2    3    3    0    0 -0.11606656200E+03 -0.28168198550E+02 -0.19149824785E+03  0.34674425384E+03  0.26323963307E+03 0.  0.
         25    1    4    4    0    0 -0.99449442495E+02 -0.19029931378E+01 -0.97407925643E+02  0.18716202893E+03  0.12509000000E+03 0.  0.
         25    1    3    3    0    0  0.11606656200E+03  0.28168198550E+02 -0.10895426227E+03  0.20440996451E+03  0.12509000000E+03 0.  0.
         25    1    4    4    0    0 -0.16617119509E+02 -0.26265205413E+02 -0.94090322202E+02  0.15958222491E+03  0.12509000000E+03 0.  0.
<mgrwt>
<rscale>  2 0.46205980E+03</rscale>
<asrwt>0</asrwt>
<pdfrwt beam="1">  1       21 0.18433949E-01 0.46205980E+03</pdfrwt>
<pdfrwt beam="2">  1       21 0.62618142E-01 0.46205980E+03</pdfrwt>
<totfact> 0.58456118E+04</totfact>
</mgrwt>
</event>
<event>
 7    0  0.4788920E-002  0.4265864E+03  0.7546771E-02  0.1034944E+00
         21   -1    0    0  502  501  0.00000000000E+00  0.00000000000E+00  0.45345672087E+03  0.45345672087E+03  0.00000000000E+00 0. -1.
         21   -1    0    0  501  502 -0.00000000000E+00 -0.00000000000E+00 -0.10032709920E+03  0.10032709920E+03  0.00000000000E+00 0. -1.
      99926    2    1    2    0    0 -0.71054273576E-14  0.14210854715E-13  0.35312962166E+03  0.55378382007E+03  0.42658643869E+03 0.  0.
      99925    2    3    3    0    0 -0.37637157142E+02  0.69417274039E+02  0.26492917463E+03  0.38155681728E+03  0.26298825774E+03 0.  0.
         25    1    4    4    0    0  0.10293131831E+02  0.17980065949E+02  0.90970663492E+02  0.15605255862E+03  0.12509000000E+03 0.  0.
         25    1    4    4    0    0 -0.47930288973E+02  0.51437208089E+02  0.17395851114E+03  0.22550425866E+03  0.12509000000E+03 0.  0.
         25    1    3    3    0    0  0.37637157142E+02 -0.69417274039E+02  0.88200447030E+02  0.17222700279E+03  0.12509000000E+03 0.  0.
<mgrwt>
<rscale>  2 0.42658644E+03</rscale>
<asrwt>0</asrwt>
<pdfrwt beam="1">  1       21 0.66684811E-01 0.42658644E+03</pdfrwt>
<pdfrwt beam="2">  1       21 0.14753985E-01 0.42658644E+03</pdfrwt>
<totfact> 0.77654866E+04</totfact>
</mgrwt>
</event>
<event>
 7    0  0.4788920E-002  0.4307772E+03  0.7546771E-02  0.1033615E+00
         21   -1    0    0  502  501  0.00000000000E+00  0.00000000000E+00  0.23223209046E+03  0.23223209046E+03  0.00000000000E+00 0.  1.
         21   -1    0    0  501  502 -0.00000000000E+00 -0.00000000000E+00 -0.19976674857E+03  0.19976674857E+03  0.00000000000E+00 0.  1.
      99926    2    1    2    0    0 -0.88817841970E-15  0.00000000000E+00  0.32465341886E+02  0.43199883903E+03  0.43077720285E+03 0.  0.
      99925    2    3    3    0    0 -0.75842416203E+01 -0.65080941765E+02 -0.39044185157E+02  0.27371374731E+03  0.26287205514E+03 0.  0.
         25    1    4    4    0    0 -0.21606074222E+01 -0.11776264331E+02 -0.54077988568E+02  0.13680382149E+03  0.12509000000E+03 0.  0.
         25    1    3    3    0    0  0.75842416203E+01  0.65080941765E+02  0.71509527042E+02  0.15828509172E+03  0.12509000000E+03 0.  0.
         25    1    4    4    0    0 -0.54236341981E+01 -0.53304677434E+02  0.15033803411E+02  0.13690992582E+03  0.12509000000E+03 0.  0.
<mgrwt>
<rscale>  2 0.43077720E+03</rscale>
<asrwt>0</asrwt>
<pdfrwt beam="1">  1       21 0.34151778E-01 0.43077720E+03</pdfrwt>
<pdfrwt beam="2">  1       21 0.29377463E-01 0.43077720E+03</pdfrwt>
<totfact> 0.85661355E+04</totfact>
</mgrwt>
</event>
<event>
 7    0  0.4788920E-002  0.4575957E+03  0.7546771E-02  0.1025481E+00
         21   -1    0    0  502  501  0.00000000000E+00  0.00000000000E+00  0.72608657028E+03  0.72608657028E+03  0.00000000000E+00 0. -1.
         21   -1    0    0  501  502 -0.00000000000E+00 -0.00000000000E+00 -0.72096699773E+02  0.72096699773E+02  0.00000000000E+00 0. -1.
      99926    2    1    2    0    0  0.00000000000E+00  0.14210854715E-13  0.65398987050E+03  0.79818327005E+03  0.45759565324E+03 0.  0.
      99925    2    3    3    0    0 -0.67829405690E+02 -0.72504380217E+02  0.30390173819E+03  0.41338862103E+03  0.26206138994E+03 0.  0.
         25    1    4    4    0    0 -0.24103494336E+02  0.30978798475E+01  0.12967233072E+03  0.18180483149E+03  0.12509000000E+03 0.  0.
         25    1    3    3    0    0  0.67829405690E+02  0.72504380217E+02  0.35008813231E+03  0.38479464902E+03  0.12509000000E+03 0.  0.
         25    1    4    4    0    0 -0.43725911354E+02 -0.75602260065E+02  0.17422940747E+03  0.23158378954E+03  0.12509000000E+03 0.  0.
<mgrwt>
<rscale>  2 0.45759565E+03</rscale>
<asrwt>0</asrwt>
<pdfrwt beam="1">  1       21 0.10677743E+00 0.45759565E+03</pdfrwt>
<pdfrwt beam="2">  1       21 0.10602456E-01 0.45759565E+03</pdfrwt>
<totfact> 0.46890313E+04</totfact>
</mgrwt>
</event>
<event>
 7    0  0.4788920E-002  0.4548865E+03  0.7546771E-02  0.1026275E+00
         21   -1    0    0  502  501  0.00000000000E+00  0.00000000000E+00  0.51595848768E+03  0.51595848768E+03  0.00000000000E+00 0. -1.
         21   -1    0    0  501  502 -0.00000000000E+00 -0.00000000000E+00 -0.10026083252E+03  0.10026083252E+03  0.00000000000E+00 0. -1.
      99926    2    1    2    0    0  0.14210854715E-13 -0.46577325330E-15  0.41569765515E+03  0.61621932020E+03  0.45488648044E+03 0.  0.
      99925    2    3    3    0    0  0.95721892875E+02 -0.71802340754E-02  0.34338182326E+03  0.44289947578E+03  0.26284251611E+03 0.  0.
         25    1    3    3    0    0 -0.95721892875E+02  0.71802340754E-02  0.72315831897E+02  0.17331984442E+03  0.12509000000E+03 0.  0.
         25    1    4    4    0    0  0.68347161088E+02 -0.16449000595E+02  0.13065426720E+03  0.19406171618E+03  0.12509000000E+03 0.  0.
         25    1    4    4    0    0  0.27374731787E+02  0.16441820360E+02  0.21272755605E+03  0.24883775960E+03  0.12509000000E+03 0.  0.
<mgrwt>
<rscale>  2 0.45488648E+03</rscale>
<asrwt>0</asrwt>
<pdfrwt beam="1">  1       21 0.75876247E-01 0.45488648E+03</pdfrwt>
<pdfrwt beam="2">  1       21 0.14744240E-01 0.45488648E+03</pdfrwt>
<totfact> 0.57742622E+04</totfact>
</mgrwt>
</event>
<event>
 7    0  0.4788920E-002  0.4493698E+03  0.7546771E-02  0.1027910E+00
         21   -1    0    0  502  501  0.00000000000E+00  0.00000000000E+00  0.69794786637E+03  0.69794786637E+03  0.00000000000E+00 0. -1.
         21   -1    0    0  501  502 -0.00000000000E+00 -0.00000000000E+00 -0.72331044702E+02  0.72331044702E+02  0.00000000000E+00 0. -1.
      99926    2    1    2    0    0  0.14210854715E-13  0.00000000000E+00  0.62561682167E+03  0.77027891107E+03  0.44936977345E+03 0.  0.
      99925    2    3    3    0    0 -0.10143728567E+03 -0.25001290383E+02  0.44300509239E+03  0.52551547587E+03  0.26267549571E+03 0.  0.
         25    1    4    4    0    0 -0.56457593877E+02 -0.44012326062E+02  0.18357428719E+03  0.23339145607E+03  0.12509000000E+03 0.  0.
         25    1    3    3    0    0  0.10143728567E+03  0.25001290383E+02  0.18261172927E+03  0.24476343520E+03  0.12509000000E+03 0.  0.
         25    1    4    4    0    0 -0.44979691790E+02  0.19011035679E+02  0.25943080521E+03  0.29212401979E+03  0.12509000000E+03 0.  0.
<mgrwt>
<rscale>  2 0.44936977E+03</rscale>
<asrwt>0</asrwt>
<pdfrwt beam="1">  1       21 0.10263939E+00 0.44936977E+03</pdfrwt>
<pdfrwt beam="2">  1       21 0.10636919E-01 0.44936977E+03</pdfrwt>
<totfact> 0.51473548E+04</totfact>
</mgrwt>
</event>
<event>
 7    0  0.4788920E-002  0.4526526E+03  0.7546771E-02  0.1026934E+00
         21   -1    0    0  502  501  0.00000000000E+00  0.00000000000E+00  0.34631030352E+03  0.34631030352E+03  0.00000000000E+00 0. -1.
         21   -1    0    0  501  502 -0.00000000000E+00 -0.00000000000E+00 -0.14791244258E+03  0.14791244258E+03  0.00000000000E+00 0. -1.
      99926    2    1    2    0    0  0.00000000000E+00  0.00000000000E+00  0.19839786094E+03  0.49422274610E+03  0.45265263894E+03 0.  0.
      99925    2    3    3    0    0  0.40998303981E+02  0.35266254950E+02  0.19311291634E+02  0.26918035660E+03  0.26298397047E+03 0.  0.
         25    1    3    3    0    0 -0.40998303981E+02 -0.35266254950E+02  0.17908656931E+03  0.22504238950E+03  0.12509000000E+03 0.  0.
         25    1    4    4    0    0  0.17797540294E+00  0.11099408067E+02 -0.25398632310E+02  0.12812426452E+03  0.12509000000E+03 0.  0.
         25    1    4    4    0    0  0.40820328578E+02  0.24166846883E+02  0.44709923945E+02  0.14105609208E+03  0.12509000000E+03 0.  0.
<mgrwt>
<rscale>  2 0.45265264E+03</rscale>
<asrwt>0</asrwt>
<pdfrwt beam="1">  1       21 0.50927986E-01 0.45265264E+03</pdfrwt>
<pdfrwt beam="2">  1       21 0.21751830E-01 0.45265264E+03</pdfrwt>
<totfact> 0.66916756E+04</totfact>
</mgrwt>
</event>
<event>
 7    0  0.4788920E-002  0.4566438E+03  0.7546771E-02  0.1025759E+00
         21   -1    0    0  502  501  0.00000000000E+00  0.00000000000E+00  0.30023663769E+03  0.30023663769E+03  0.00000000000E+00 0. -1.
         21   -1    0    0  501  502 -0.00000000000E+00 -0.00000000000E+00 -0.17363267224E+03  0.17363267224E+03  0.00000000000E+00 0. -1.
      99926    2    1    2    0    0  0.35527136788E-14  0.00000000000E+00  0.12660396545E+03  0.47386930994E+03  0.45664379864E+03 0.  0.
      99925    2    3    3    0    0  0.16667837988E+02 -0.90068171374E+02  0.15032257993E+03  0.31702488673E+03  0.26366230002E+03 0.  0.
         25    1    4    4    0    0 -0.28053010397E+01 -0.73656623549E+01  0.46907633045E+02  0.13382808686E+03  0.12509000000E+03 0.  0.
         25    1    4    4    0    0  0.19473139028E+02 -0.82702509019E+02  0.10341494689E+03  0.18319679987E+03  0.12509000000E+03 0.  0.
         25    1    3    3    0    0 -0.16667837988E+02  0.90068171374E+02 -0.23718614482E+02  0.15684442321E+03  0.12509000000E+03 0.  0.
<mgrwt>
<rscale>  2 0.45664380E+03</rscale>
<asrwt>0</asrwt>
<pdfrwt beam="1">  1       21 0.44152447E-01 0.45664380E+03</pdfrwt>
<pdfrwt beam="2">  1       21 0.25534217E-01 0.45664380E+03</pdfrwt>
<totfact> 0.66280443E+04</totfact>
</mgrwt>
</event>
<event>
 6    0  0.4788920E-002  0.4556010E+03  0.7546771E-02  0.1026065E+00
         21   -1    0    0  502  501  0.00000000000E+00  0.00000000000E+00  0.11511541923E+03  0.11511541923E+03  0.00000000000E+00 0.  1.
         21   -1    0    0  501  502 -0.00000000000E+00 -0.00000000000E+00 -0.45079170040E+03  0.45079170040E+03  0.00000000000E+00 0.  1.
      99926    2    1    2    0    0  0.17763568394E-14  0.00000000000E+00 -0.33567628117E+03  0.56590711963E+03  0.45560103414E+03 0.  0.
         25    1    3    3    0    0  0.15265665657E+02  0.70162707048E+02 -0.20589116744E+02  0.14569579897E+03  0.12509000000E+03 0.  0.
         25    1    3    3    0    0 -0.31380514096E+02 -0.15591881101E+02 -0.21114330634E+03  0.24790491591E+03  0.12509000000E+03 0.  0.
         25    1    3    3    0    0  0.16114848438E+02 -0.54570825947E+02 -0.10394385809E+03  0.17230640475E+03  0.12509000000E+03 0.  0.
<mgrwt>
<rscale>  2 0.45560103E+03</rscale>
<asrwt>0</asrwt>
<pdfrwt beam="1">  1       21 0.16928739E-01 0.45560103E+03</pdfrwt>
<pdfrwt beam="2">  1       21 0.66292896E-01 0.45560103E+03</pdfrwt>
<totfact> 0.60539155E+04</totfact>
</mgrwt>
</event>
<event>
 7    0  0.4788920E-002  0.4625502E+03  0.7546771E-02  0.1024044E+00
         21   -1    0    0  502  501  0.00000000000E+00  0.00000000000E+00  0.15557575647E+03  0.15557575647E+03  0.00000000000E+00 0. -1.
         21   -1    0    0  501  502 -0.00000000000E+00 -0.00000000000E+00 -0.34380786231E+03  0.34380786231E+03  0.00000000000E+00 0. -1.
      99926    2    1    2    0    0  0.00000000000E+00  0.00000000000E+00 -0.18823210584E+03  0.49938361878E+03  0.46255018435E+03 0.  0.
      99925    2    3    3    0    0 -0.73269585580E+02  0.10564525906E+02 -0.21971588764E+03  0.35065978749E+03  0.26307256395E+03 0.  0.
         25    1    3    3    0    0  0.73269585580E+02 -0.10564525906E+02  0.31483781803E+02  0.14872383130E+03  0.12509000000E+03 0.  0.
         25    1    4    4    0    0 -0.77026894008E+02  0.14981684905E+02 -0.10941783355E+03  0.18378619013E+03  0.12509000000E+03 0.  0.
         25    1    4    4    0    0  0.37573084290E+01 -0.44171589994E+01 -0.11029805409E+03  0.16687359736E+03  0.12509000000E+03 0.  0.
<mgrwt>
<rscale>  2 0.46255018E+03</rscale>
<asrwt>0</asrwt>
<pdfrwt beam="1">  1       21 0.22878788E-01 0.46255018E+03</pdfrwt>
<pdfrwt beam="2">  1       21 0.50559980E-01 0.46255018E+03</pdfrwt>
<totfact> 0.61541804E+04</totfact>
</mgrwt>
</event>
<event>
 7    0  0.4788920E-002  0.4483036E+03  0.7546771E-02  0.1028229E+00
         21   -1    0    0  502  501  0.00000000000E+00  0.00000000000E+00  0.17298453170E+03  0.17298453170E+03  0.00000000000E+00 0.  1.
         21   -1    0    0  501  502 -0.00000000000E+00 -0.00000000000E+00 -0.29045386937E+03  0.29045386937E+03  0.00000000000E+00 0.  1.
      99926    2    1    2    0    0  0.14210854715E-13 -0.35527136788E-14 -0.11746933766E+03  0.46343840107E+03  0.44830358720E+03 0.  0.
      99925    2    3    3    0    0  0.62770475583E+02 -0.24461084564E+02  0.11163887828E+02  0.27178117563E+03  0.26306253586E+03 0.  0.
         25    1    4    4    0    0  0.16389550133E+02  0.21467083344E+02 -0.12999409181E+02  0.12863104509E+03  0.12509000000E+03 0.  0.
         25    1    3    3    0    0 -0.62770475583E+02  0.24461084564E+02 -0.12863322549E+03  0.19165722544E+03  0.12509000000E+03 0.  0.
         25    1    4    4    0    0  0.46380925450E+02 -0.45928167908E+02  0.24163297008E+02  0.14315013055E+03  0.12509000000E+03 0.  0.
<mgrwt>
<rscale>  2 0.44830359E+03</rscale>
<asrwt>0</asrwt>
<pdfrwt beam="1">  1       21 0.25438902E-01 0.44830359E+03</pdfrwt>
<pdfrwt beam="2">  1       21 0.42713804E-01 0.44830359E+03</pdfrwt>
<totfact> 0.71658410E+04</totfact>
</mgrwt>
</event>
<event>
 7    0  0.4788920E-002  0.4508391E+03  0.7546771E-02  0.1027472E+00
         21   -1    0    0  502  501  0.00000000000E+00  0.00000000000E+00  0.17308177996E+03  0.17308177996E+03  0.00000000000E+00 0.  1.
         21   -1    0    0  501  502 -0.00000000000E+00 -0.00000000000E+00 -0.29358355528E+03  0.29358355528E+03  0.00000000000E+00 0.  1.
      99926    2    1    2    0    0  0.17763568394E-14 -0.28421709430E-13 -0.12050177531E+03  0.46666533524E+03  0.45083905915E+03 0.  0.
      99925    2    3    3    0    0 -0.15596036780E+02  0.10314253124E+03 -0.42709934391E+02  0.28616409777E+03  0.26302877075E+03 0.  0.
         25    1    3    3    0    0  0.15596036780E+02 -0.10314253124E+03 -0.77791840923E+02  0.18050123747E+03  0.12509000000E+03 0.  0.
         25    1    4    4    0    0 -0.49342198951E+01  0.95981773165E+01 -0.80582179657E+01  0.12581301407E+03  0.12509000000E+03 0.  0.
         25    1    4    4    0    0 -0.10661816885E+02  0.93544353923E+02 -0.34651716426E+02  0.16035108369E+03  0.12509000000E+03 0.  0.
<mgrwt>
<rscale>  2 0.45083906E+03</rscale>
<asrwt>0</asrwt>
<pdfrwt beam="1">  1       21 0.25453203E-01 0.45083906E+03</pdfrwt>
<pdfrwt beam="2">  1       21 0.43174052E-01 0.45083906E+03</pdfrwt>
<totfact> 0.69965639E+04</totfact>
</mgrwt>
</event>
<event>
 7    0  0.4788920E-002  0.4566704E+03  0.7546771E-02  0.1025751E+00
         21   -1    0    0  502  501  0.00000000000E+00  0.00000000000E+00  0.73523435342E+03  0.73523435342E+03  0.00000000000E+00 0. -1.
         21   -1    0    0  501  502 -0.00000000000E+00 -0.00000000000E+00 -0.70912039931E+02  0.70912039931E+02  0.00000000000E+00 0. -1.
      99926    2    1    2    0    0  0.00000000000E+00  0.14210854715E-13  0.66432231349E+03  0.80614639335E+03  0.45667041870E+03 0.  0.
      99925    2    3    3    0    0  0.24555991964E+02  0.69600179131E+02  0.57250614420E+03  0.63431828529E+03  0.26296239318E+03 0.  0.
         25    1    4    4    0    0  0.23841592382E+02 -0.48155616509E+01  0.25723220981E+03  0.28706711589E+03  0.12509000000E+03 0.  0.
         25    1    4    4    0    0  0.71439958244E+00  0.74415740782E+02  0.31527393439E+03  0.34725116940E+03  0.12509000000E+03 0.  0.
         25    1    3    3    0    0 -0.24555991964E+02 -0.69600179131E+02  0.91816169281E+02  0.17182810806E+03  0.12509000000E+03 0.  0.
<mgrwt>
<rscale>  2 0.45667042E+03</rscale>
<asrwt>0</asrwt>
<pdfrwt beam="1">  1       21 0.10812269E+00 0.45667042E+03</pdfrwt>
<pdfrwt beam="2">  1       21 0.10428242E-01 0.45667042E+03</pdfrwt>
<totfact> 0.46851768E+04</totfact>
</mgrwt>
</event>
<event>
 7    0  0.4788920E-002  0.4548201E+03  0.7546771E-02  0.1026294E+00
         21   -1    0    0  502  501  0.00000000000E+00  0.00000000000E+00  0.26918222174E+03  0.26918222174E+03  0.00000000000E+00 0. -1.
         21   -1    0    0  501  502 -0.00000000000E+00 -0.00000000000E+00 -0.19212011580E+03  0.19212011580E+03  0.00000000000E+00 0. -1.
      99926    2    1    2    0    0  0.00000000000E+00  0.00000000000E+00  0.77062105948E+02  0.46130233754E+03  0.45482005062E+03 0.  0.
      99925    2    3    3    0    0  0.11093675892E+03  0.52598450702E+01  0.27715933569E+02  0.28689711033E+03  0.26307251565E+03 0.  0.
         25    1    3    3    0    0 -0.11093675892E+03 -0.52598450702E+01  0.49346172379E+02  0.17440522721E+03  0.12509000000E+03 0.  0.
         25    1    4    4    0    0  0.91503117809E+02 -0.19265490271E+02  0.73165701349E+01  0.15634903256E+03  0.12509000000E+03 0.  0.
         25    1    4    4    0    0  0.19433641111E+02  0.24525335341E+02  0.20399363434E+02  0.13054807777E+03  0.12509000000E+03 0.  0.
<mgrwt>
<rscale>  2 0.45482005E+03</rscale>
<asrwt>0</asrwt>
<pdfrwt beam="1">  1       21 0.39585621E-01 0.45482005E+03</pdfrwt>
<pdfrwt beam="2">  1       21 0.28252958E-01 0.45482005E+03</pdfrwt>
<totfact> 0.68182933E+04</totfact>
</mgrwt>
</event>
<event>
 7    0  0.4788920E-002  0.4552045E+03  0.7546771E-02  0.1026181E+00
         21   -1    0    0  502  501  0.00000000000E+00  0.00000000000E+00  0.22487055441E+02  0.22487055441E+02  0.00000000000E+00 0. -1.
         21   -1    0    0  501  502 -0.00000000000E+00 -0.00000000000E+00 -0.23036717295E+04  0.23036717295E+04  0.00000000000E+00 0. -1.
      99926    2    1    2    0    0  0.00000000000E+00  0.00000000000E+00 -0.22811846741E+04  0.23261587850E+04  0.45520454260E+03 0.  0.
      99925    2    3    3    0    0 -0.85799784796E+02  0.59074211631E+02 -0.12054337307E+04  0.12381610985E+04  0.26290884558E+03 0.  0.
         25    1    4    4    0    0 -0.67500393217E+02  0.29146570714E+02 -0.77819798644E+03  0.79160939855E+03  0.12509000000E+03 0.  0.
         25    1    4    4    0    0 -0.18299391579E+02  0.29927640918E+02 -0.42723574429E+03  0.44655169994E+03  0.12509000000E+03 0.  0.
         25    1    3    3    0    0  0.85799784796E+02 -0.59074211631E+02 -0.10757509434E+04  0.10879976865E+04  0.12509000000E+03 0.  0.
<mgrwt>
<rscale>  2 0.45520454E+03</rscale>
<asrwt>0</asrwt>
<pdfrwt beam="1">  1       21 0.33069211E-02 0.45520454E+03</pdfrwt>
<pdfrwt beam="2">  1       21 0.33877513E+00 0.45520454E+03</pdfrwt>
<totfact> 0.90639268E+03</totfact>
</mgrwt>
</event>
<event>
 7    0  0.4788920E-002  0.4059893E+03  0.7546771E-02  0.1041725E+00
         21   -1    0    0  502  501  0.00000000000E+00  0.00000000000E+00  0.13198200729E+02  0.13198200729E+02  0.00000000000E+00 0.  1.
         21   -1    0    0  501  502 -0.00000000000E+00 -0.00000000000E+00 -0.31221549813E+04  0.31221549813E+04  0.00000000000E+00 0.  1.
      99926    2    1    2    0    0  0.00000000000E+00  0.00000000000E+00 -0.31089567806E+04  0.31353531820E+04  0.40598930109E+03 0.  0.
      99925    2    3    3    0    0 -0.15348191359E+02  0.45090117377E+02 -0.18290570970E+04  0.18484734698E+04  0.26293652994E+03 0.  0.
         25    1    4    4    0    0 -0.63549866634E+01  0.63416236985E+02 -0.93855962889E+03  0.94900141731E+03  0.12509000000E+03 0.  0.
         25    1    4    4    0    0 -0.89932046957E+01 -0.18326119608E+02 -0.89049746816E+03  0.89947205253E+03  0.12509000000E+03 0.  0.
         25    1    3    3    0    0  0.15348191359E+02 -0.45090117377E+02 -0.12798996835E+04  0.12868797122E+04  0.12509000000E+03 0.  0.
<mgrwt>
<rscale>  2 0.40598930E+03</rscale>
<asrwt>0</asrwt>
<pdfrwt beam="1">  1       21 0.19409092E-02 0.40598930E+03</pdfrwt>
<pdfrwt beam="2">  1       21 0.45914107E+00 0.40598930E+03</pdfrwt>
<totfact> 0.38258210E+03</totfact>
</mgrwt>
</event>
<event>
 7    0  0.4788920E-002  0.4251193E+03  0.7546771E-02  0.1035413E+00
         21   -1    0    0  502  501  0.00000000000E+00  0.00000000000E+00  0.15681310006E+03  0.15681310006E+03  0.00000000000E+00 0. -1.
         21   -1    0    0  501  502 -0.00000000000E+00 -0.00000000000E+00 -0.28812391077E+03  0.28812391077E+03  0.00000000000E+00 0. -1.
      99926    2    1    2    0    0  0.00000000000E+00  0.00000000000E+00 -0.13131081071E+03  0.44493701083E+03  0.42511929455E+03 0.  0.
      99925    2    3    3    0    0 -0.40690479914E+02  0.18633328262E+02 -0.13190994462E+02  0.26716548564E+03  0.26305983788E+03 0.  0.
         25    1    3    3    0    0  0.40690479914E+02 -0.18633328262E+02 -0.11811981625E+03  0.17777152519E+03  0.12509000000E+03 0.  0.
         25    1    4    4    0    0 -0.20673538950E+02 -0.31406577559E+02 -0.50680265466E+01  0.13071710416E+03  0.12509000000E+03 0.  0.
         25    1    4    4    0    0 -0.20016940964E+02  0.50039905821E+02 -0.81229679151E+01  0.13644838148E+03  0.12509000000E+03 0.  0.
<mgrwt>
<rscale>  2 0.42511929E+03</rscale>
<asrwt>0</asrwt>
<pdfrwt beam="1">  1       21 0.23060750E-01 0.42511929E+03</pdfrwt>
<pdfrwt beam="2">  1       21 0.42371163E-01 0.42511929E+03</pdfrwt>
<totfact> 0.88546164E+04</totfact>
</mgrwt>
</event>
<event>
 7    0  0.4788920E-002  0.4524788E+03  0.7546771E-02  0.1026985E+00
         21   -1    0    0  502  501  0.00000000000E+00  0.00000000000E+00  0.27730157713E+03  0.27730157713E+03  0.00000000000E+00 0. -1.
         21   -1    0    0  501  502 -0.00000000000E+00 -0.00000000000E+00 -0.18457975766E+03  0.18457975766E+03  0.00000000000E+00 0. -1.
      99926    2    1    2    0    0  0.00000000000E+00  0.71054273576E-14  0.92721819476E+02  0.46188133479E+03  0.45247876372E+03 0.  0.
      99925    2    3    3    0    0 -0.98768705393E+02  0.50235278978E+02  0.59994609106E+02  0.29159504991E+03  0.26296288634E+03 0.  0.
         25    1    4    4    0    0 -0.88243895249E+02  0.44896597032E+02  0.28418400639E+02  0.16204259646E+03  0.12509000000E+03 0.  0.
         25    1    3    3    0    0  0.98768705393E+02 -0.50235278978E+02  0.32727210370E+02  0.17028628488E+03  0.12509000000E+03 0.  0.
         25    1    4    4    0    0 -0.10524810143E+02  0.53386819462E+01  0.31576208467E+02  0.12955245345E+03  0.12509000000E+03 0.  0.
<mgrwt>
<rscale>  2 0.45247876E+03</rscale>
<asrwt>0</asrwt>
<pdfrwt beam="1">  1       21 0.40779644E-01 0.45247876E+03</pdfrwt>
<pdfrwt beam="2">  1       21 0.27144082E-01 0.45247876E+03</pdfrwt>
<totfact> 0.69423183E+04</totfact>
</mgrwt>
</event>
<event>
 7    0  0.4788920E-002  0.4463745E+03  0.7546771E-02  0.1028809E+00
         21   -1    0    0  502  501  0.00000000000E+00  0.00000000000E+00  0.14692007253E+03  0.14692007253E+03  0.00000000000E+00 0.  1.
         21   -1    0    0  501  502 -0.00000000000E+00 -0.00000000000E+00 -0.33904529454E+03  0.33904529454E+03  0.00000000000E+00 0.  1.
      99926    2    1    2    0    0  0.71054273576E-14  0.00000000000E+00 -0.19212522201E+03  0.48596536707E+03  0.44637454795E+03 0.  0.
      99925    2    3    3    0    0 -0.43238214782E+02  0.45381717013E+02 -0.30893681176E+02  0.27248899527E+03  0.26337575733E+03 0.  0.
         25    1    4    4    0    0 -0.22916644310E+02  0.20133978470E+01  0.20871912560E+02  0.12888898786E+03  0.12509000000E+03 0.  0.
         25    1    4    4    0    0 -0.20321570472E+02  0.43368319166E+02 -0.51765593735E+02  0.14360000741E+03  0.12509000000E+03 0.  0.
         25    1    3    3    0    0  0.43238214782E+02 -0.45381717013E+02 -0.16123154083E+03  0.21347637180E+03  0.12509000000E+03 0.  0.
<mgrwt>
<rscale>  2 0.44637455E+03</rscale>
<asrwt>0</asrwt>
<pdfrwt beam="1">  1       21 0.21605893E-01 0.44637455E+03</pdfrwt>
<pdfrwt beam="2">  1       21 0.49859603E-01 0.44637455E+03</pdfrwt>
<totfact> 0.71007414E+04</totfact>
</mgrwt>
</event>
<event>
 7    0  0.4788920E-002  0.4528021E+03  0.7546771E-02  0.1026890E+00
         21   -1    0    0  502  501  0.00000000000E+00  0.00000000000E+00  0.12591699924E+03  0.12591699924E+03  0.00000000000E+00 0.  1.
         21   -1    0    0  501  502 -0.00000000000E+00 -0.00000000000E+00 -0.40707324649E+03  0.40707324649E+03  0.00000000000E+00 0.  1.
      99926    2    1    2    0    0  0.00000000000E+00  0.71054273576E-14 -0.28115624725E+03  0.53299024574E+03  0.45280212752E+03 0.  0.
      99925    2    3    3    0    0 -0.13726702326E+02  0.32608087750E+02 -0.53258438471E+02  0.27062289051E+03  0.26296117177E+03 0.  0.
         25    1    4    4    0    0 -0.86407910594E+01 -0.85346886243E+01 -0.58741363345E+02  0.13872836786E+03  0.12509000000E+03 0.  0.
         25    1    4    4    0    0 -0.50859112666E+01  0.41142776374E+02  0.54829248742E+01  0.13189452265E+03  0.12509000000E+03 0.  0.
         25    1    3    3    0    0  0.13726702326E+02 -0.32608087750E+02 -0.22789780878E+03  0.26236735523E+03  0.12509000000E+03 0.  0.
<mgrwt>
<rscale>  2 0.45280213E+03</rscale>
<asrwt>0</asrwt>
<pdfrwt beam="1">  1       21 0.18517206E-01 0.45280213E+03</pdfrwt>
<pdfrwt beam="2">  1       21 0.59863713E-01 0.45280213E+03</pdfrwt>
<totfact> 0.64112818E+04</totfact>
</mgrwt>
</event>
<event>
 7    0  0.4788920E-002  0.4564731E+03  0.7546771E-02  0.1025809E+00
         21   -1    0    0  502  501  0.00000000000E+00  0.00000000000E+00  0.15732210539E+03  0.15732210539E+03  0.00000000000E+00 0. -1.
         21   -1    0    0  501  502 -0.00000000000E+00 -0.00000000000E+00 -0.33111640113E+03  0.33111640113E+03  0.00000000000E+00 0. -1.
      99926    2    1    2    0    0  0.00000000000E+00  0.00000000000E+00 -0.17379429574E+03  0.48843850652E+03  0.45647312892E+03 0.  0.
      99925    2    3    3    0    0 -0.11369823058E+03 -0.13192627447E+02 -0.11504663956E+03  0.30899456468E+03  0.26294596151E+03 0.  0.
         25    1    4    4    0    0 -0.24083574323E+02  0.18318533451E+02 -0.64743547959E+02  0.14406534046E+03  0.12509000000E+03 0.  0.
         25    1    4    4    0    0 -0.89614656260E+02 -0.31511160898E+02 -0.50303091598E+02  0.16492922422E+03  0.12509000000E+03 0.  0.
         25    1    3    3    0    0  0.11369823058E+03  0.13192627447E+02 -0.58747656183E+02  0.17944394184E+03  0.12509000000E+03 0.  0.
<mgrwt>
<rscale>  2 0.45647313E+03</rscale>
<asrwt>0</asrwt>
<pdfrwt beam="1">  1       21 0.23135604E-01 0.45647313E+03</pdfrwt>
<pdfrwt beam="2">  1       21 0.48693588E-01 0.45647313E+03</pdfrwt>
<totfact> 0.65323502E+04</totfact>
</mgrwt>
</event>
<event>
 7    0  0.4788920E-002  0.4330985E+03  0.7546771E-02  0.1032886E+00
         21   -1    0    0  502  501  0.00000000000E+00  0.00000000000E+00  0.25560772614E+02  0.25560772614E+02  0.00000000000E+00 0. -1.
         21   -1    0    0  501  502 -0.00000000000E+00 -0.00000000000E+00 -0.18345915861E+04  0.18345915861E+04  0.00000000000E+00 0. -1.
      99926    2    1    2    0    0  0.00000000000E+00  0.00000000000E+00 -0.18090308135E+04  0.18601523587E+04  0.43309850321E+03 0.  0.
      99925    2    3    3    0    0  0.43129639229E+02 -0.61211582752E+02 -0.93921044511E+03  0.97819884237E+03  0.26296328902E+03 0.  0.
         25    1    4    4    0    0 -0.76762785264E+01 -0.32014340742E+02 -0.55612168659E+03  0.57096644530E+03  0.12509000000E+03 0.  0.
         25    1    3    3    0    0 -0.43129639229E+02  0.61211582752E+02 -0.86982036840E+03  0.88195351636E+03  0.12509000000E+03 0.  0.
         25    1    4    4    0    0  0.50805917755E+02 -0.29197242010E+02 -0.38308875852E+03  0.40723239707E+03  0.12509000000E+03 0.  0.
<mgrwt>
<rscale>  2 0.43309850E+03</rscale>
<asrwt>0</asrwt>
<pdfrwt beam="1">  1       21 0.37589371E-02 0.43309850E+03</pdfrwt>
<pdfrwt beam="2">  1       21 0.26979289E+00 0.43309850E+03</pdfrwt>
<totfact> 0.19190996E+04</totfact>
</mgrwt>
</event>
<event>
 7    0  0.4788920E-002  0.4538109E+03  0.7546771E-02  0.1026592E+00
         21   -1    0    0  502  501  0.00000000000E+00  0.00000000000E+00  0.59373983539E+02  0.59373983539E+02  0.00000000000E+00 0. -1.
         21   -1    0    0  501  502 -0.00000000000E+00 -0.00000000000E+00 -0.86714898609E+03  0.86714898609E+03  0.00000000000E+00 0. -1.
      99926    2    1    2    0    0  0.00000000000E+00  0.00000000000E+00 -0.80777500255E+03  0.92652296962E+03  0.45381092814E+03 0.  0.
      99925    2    3    3    0    0 -0.20934733551E+02  0.10988510062E+03 -0.49544499862E+03  0.57196615068E+03  0.26299530882E+03 0.  0.
         25    1    3    3    0    0  0.20934733551E+02 -0.10988510062E+03 -0.31233000393E+03  0.35455681894E+03  0.12509000000E+03 0.  0.
         25    1    4    4    0    0 -0.45369062942E+02  0.73062349100E+02 -0.29169903310E+03  0.32883474989E+03  0.12509000000E+03 0.  0.
         25    1    4    4    0    0  0.24434329391E+02  0.36822751517E+02 -0.20374596552E+03  0.24313140079E+03  0.12509000000E+03 0.  0.
<mgrwt>
<rscale>  2 0.45381093E+03</rscale>
<asrwt>0</asrwt>
<pdfrwt beam="1">  1       21 0.87314681E-02 0.45381093E+03</pdfrwt>
<pdfrwt beam="2">  1       21 0.12752191E+00 0.45381093E+03</pdfrwt>
<totfact> 0.42500322E+04</totfact>
</mgrwt>
</event>
<event>
 7    0  0.4788920E-002  0.4463010E+03  0.7546771E-02  0.1028831E+00
         21   -1    0    0  502  501  0.00000000000E+00  0.00000000000E+00  0.83717420948E+02  0.83717420948E+02  0.00000000000E+00 0. -1.
         21   -1    0    0  501  502 -0.00000000000E+00 -0.00000000000E+00 -0.59481219380E+03  0.59481219380E+03  0.00000000000E+00 0. -1.
      99926    2    1    2    0    0  0.00000000000E+00  0.35527136788E-14 -0.51109477286E+03  0.67852961475E+03  0.44630098729E+03 0.  0.
      99925    2    3    3    0    0 -0.70741479863E+02 -0.25664840353E+02 -0.43514612917E+03  0.51397340678E+03  0.26297047010E+03 0.  0.
         25    1    4    4    0    0 -0.45393177839E+00 -0.15581256435E+01 -0.23893277078E+03  0.26970170719E+03  0.12509000000E+03 0.  0.
         25    1    3    3    0    0  0.70741479863E+02  0.25664840353E+02 -0.75948643686E+02  0.16455620797E+03  0.12509000000E+03 0.  0.
         25    1    4    4    0    0 -0.70287548085E+02 -0.24106714710E+02 -0.19621335839E+03  0.24427169959E+03  0.12509000000E+03 0.  0.
<mgrwt>
<rscale>  2 0.44630099E+03</rscale>
<asrwt>0</asrwt>
<pdfrwt beam="1">  1       21 0.12311386E-01 0.44630099E+03</pdfrwt>
<pdfrwt beam="2">  1       21 0.87472380E-01 0.44630099E+03</pdfrwt>
<totfact> 0.57953609E+04</totfact>
</mgrwt>
</event>
<event>
 7    0  0.4788920E-002  0.4304669E+03  0.7546771E-02  0.1033713E+00
         21   -1    0    0  502  501  0.00000000000E+00  0.00000000000E+00  0.50171205832E+03  0.50171205832E+03  0.00000000000E+00 0.  1.
         21   -1    0    0  501  502 -0.00000000000E+00 -0.00000000000E+00 -0.92334708378E+02  0.92334708378E+02  0.00000000000E+00 0.  1.
      99926    2    1    2    0    0  0.00000000000E+00  0.00000000000E+00  0.40937734994E+03  0.59404676670E+03  0.43046689348E+03 0.  0.
      99925    2    3    3    0    0  0.51386640843E+02 -0.48837161257E+02  0.19144955184E+03  0.33296117065E+03  0.26302957074E+03 0.  0.
         25    1    4    4    0    0  0.81662943756E+01 -0.44145203358E+02  0.58167688562E+02  0.14507403433E+03  0.12509000000E+03 0.  0.
         25    1    4    4    0    0  0.43220346467E+02 -0.46919578984E+01  0.13328186328E+03  0.18788713632E+03  0.12509000000E+03 0.  0.
         25    1    3    3    0    0 -0.51386640843E+02  0.48837161257E+02  0.21792779810E+03  0.26108559605E+03  0.12509000000E+03 0.  0.
<mgrwt>
<rscale>  2 0.43046689E+03</rscale>
<asrwt>0</asrwt>
<pdfrwt beam="1">  1       21 0.73781184E-01 0.43046689E+03</pdfrwt>
<pdfrwt beam="2">  1       21 0.13578634E-01 0.43046689E+03</pdfrwt>
<totfact> 0.72025849E+04</totfact>
</mgrwt>
</event>
<event>
 7    0  0.4788920E-002  0.4547922E+03  0.7546771E-02  0.1026303E+00
         21   -1    0    0  502  501  0.00000000000E+00  0.00000000000E+00  0.67282188320E+02  0.67282188320E+02  0.00000000000E+00 0. -1.
         21   -1    0    0  501  502 -0.00000000000E+00 -0.00000000000E+00 -0.76853913098E+03  0.76853913098E+03  0.00000000000E+00 0. -1.
      99926    2    1    2    0    0 -0.71054273576E-14  0.14210854715E-13 -0.70125694266E+03  0.83582131930E+03  0.45479223627E+03 0.  0.
      99925    2    3    3    0    0 -0.57030585569E+02 -0.91400741889E+02 -0.50457832153E+03  0.57904014511E+03  0.26283383303E+03 0.  0.
         25    1    4    4    0    0 -0.22363026735E+02 -0.77008278722E+02 -0.21471637720E+03  0.26111493771E+03  0.12509000000E+03 0.  0.
         25    1    3    3    0    0  0.57030585569E+02  0.91400741889E+02 -0.19667862113E+03  0.25678117419E+03  0.12509000000E+03 0.  0.
         25    1    4    4    0    0 -0.34667558834E+02 -0.14392463167E+02 -0.28986194433E+03  0.31792520741E+03  0.12509000000E+03 0.  0.
<mgrwt>
<rscale>  2 0.45479224E+03</rscale>
<asrwt>0</asrwt>
<pdfrwt beam="1">  1       21 0.98944401E-02 0.45479224E+03</pdfrwt>
<pdfrwt beam="2">  1       21 0.11302045E+00 0.45479224E+03</pdfrwt>
<totfact> 0.46155645E+04</totfact>
</mgrwt>
</event>
<event>
 7    0  0.4788920E-002  0.4786388E+03  0.7546771E-02  0.1019510E+00
         21   -1    0    0  502  501  0.00000000000E+00  0.00000000000E+00  0.33741574384E+03  0.33741574384E+03  0.00000000000E+00 0.  1.
         21   -1    0    0  501  502 -0.00000000000E+00 -0.00000000000E+00 -0.16974242390E+03  0.16974242390E+03  0.00000000000E+00 0.  1.
      99926    2    1    2    0    0  0.00000000000E+00  0.00000000000E+00  0.16767331995E+03  0.50715816774E+03  0.47863876241E+03 0.  0.
      99925    2    3    3    0    0 -0.92250762698E+02 -0.96444929199E+02  0.11749980893E+03  0.31748287442E+03  0.26301586049E+03 0.  0.
         25    1    4    4    0    0 -0.49841842204E+02 -0.11791728778E+02  0.76563862760E+02  0.15534731180E+03  0.12509000000E+03 0.  0.
         25    1    3    3    0    0  0.92250762698E+02  0.96444929199E+02  0.50173511021E+02  0.18967529332E+03  0.12509000000E+03 0.  0.
         25    1    4    4    0    0 -0.42408920494E+02 -0.84653200422E+02  0.40935946166E+02  0.16213556262E+03  0.12509000000E+03 0.  0.
<mgrwt>
<rscale>  2 0.47863876E+03</rscale>
<asrwt>0</asrwt>
<pdfrwt beam="1">  1       21 0.49619963E-01 0.47863876E+03</pdfrwt>
<pdfrwt beam="2">  1       21 0.24962121E-01 0.47863876E+03</pdfrwt>
<totfact> 0.53919676E+04</totfact>
</mgrwt>
</event>
<event>
 7    0  0.4788920E-002  0.4555913E+03  0.7546771E-02  0.1026068E+00
         21   -1    0    0  502  501  0.00000000000E+00  0.00000000000E+00  0.39939661109E+03  0.39939661109E+03  0.00000000000E+00 0.  1.
         21   -1    0    0  501  502 -0.00000000000E+00 -0.00000000000E+00 -0.12992314812E+03  0.12992314812E+03  0.00000000000E+00 0.  1.
      99926    2    1    2    0    0  0.00000000000E+00 -0.14210854715E-13  0.26947346297E+03  0.52931975920E+03  0.45559133029E+03 0.  0.
      99925    2    3    3    0    0  0.55307537564E+02 -0.99065610830E+02  0.17849346629E+03  0.33749226676E+03  0.26299846702E+03 0.  0.
         25    1    4    4    0    0  0.14577000340E+01 -0.32249866292E+02  0.49432521683E+02  0.13832303158E+03  0.12509000000E+03 0.  0.
         25    1    4    4    0    0  0.53849837530E+02 -0.66815744537E+02  0.12906094461E+03  0.19916923518E+03  0.12509000000E+03 0.  0.
         25    1    3    3    0    0 -0.55307537564E+02  0.99065610830E+02  0.90979996683E+02  0.19182749244E+03  0.12509000000E+03 0.  0.
<mgrwt>
<rscale>  2 0.45559133E+03</rscale>
<asrwt>0</asrwt>
<pdfrwt beam="1">  1       21 0.58734795E-01 0.45559133E+03</pdfrwt>
<pdfrwt beam="2">  1       21 0.19106345E-01 0.45559133E+03</pdfrwt>
<totfact> 0.62957010E+04</totfact>
</mgrwt>
</event>
<event>
 7    0  0.4788920E-002  0.4613573E+03  0.7546771E-02  0.1024388E+00
         21   -1    0    0  502  501  0.00000000000E+00  0.00000000000E+00  0.83945148820E+02  0.83945148820E+02  0.00000000000E+00 0. -1.
         21   -1    0    0  501  502 -0.00000000000E+00 -0.00000000000E+00 -0.63389770375E+03  0.63389770375E+03  0.00000000000E+00 0. -1.
      99926    2    1    2    0    0  0.00000000000E+00  0.00000000000E+00 -0.54995255493E+03  0.71784285257E+03  0.46135728922E+03 0.  0.
      99925    2    3    3    0    0 -0.96886183121E+02  0.15881647778E+02 -0.23941087251E+03  0.36895489944E+03  0.26300378843E+03 0.  0.
         25    1    4    4    0    0 -0.23490752601E+02  0.21991561793E+02 -0.73912685398E+02  0.14881544749E+03  0.12509000000E+03 0.  0.
         25    1    4    4    0    0 -0.73395430520E+02 -0.61099140158E+01 -0.16549818711E+03  0.22013945195E+03  0.12509000000E+03 0.  0.
         25    1    3    3    0    0  0.96886183121E+02 -0.15881647778E+02 -0.31054168243E+03  0.34888795313E+03  0.12509000000E+03 0.  0.
<mgrwt>
<rscale>  2 0.46135729E+03</rscale>
<asrwt>0</asrwt>
<pdfrwt beam="1">  1       21 0.12344875E-01 0.46135729E+03</pdfrwt>
<pdfrwt beam="2">  1       21 0.93220251E-01 0.46135729E+03</pdfrwt>
<totfact> 0.49426469E+04</totfact>
</mgrwt>
</event>
<event>
 7    0  0.4788920E-002  0.4715050E+03  0.7546771E-02  0.1021496E+00
         21   -1    0    0  502  501  0.00000000000E+00  0.00000000000E+00  0.30760242559E+03  0.30760242559E+03  0.00000000000E+00 0.  1.
         21   -1    0    0  501  502 -0.00000000000E+00 -0.00000000000E+00 -0.18068534239E+03  0.18068534239E+03  0.00000000000E+00 0.  1.
      99926    2    1    2    0    0  0.00000000000E+00  0.14210854715E-13  0.12691708319E+03  0.48828776798E+03  0.47150503534E+03 0.  0.
      99925    2    3    3    0    0  0.88056429901E+02 -0.87120405572E+02  0.44790795371E+02  0.29402985909E+03  0.26287533694E+03 0.  0.
         25    1    4    4    0    0  0.66446936158E+02 -0.81378871882E+02  0.30171733348E+02  0.16611910699E+03  0.12509000000E+03 0.  0.
         25    1    4    4    0    0  0.21609493743E+02 -0.57415336897E+01  0.14619062023E+02  0.12791075210E+03  0.12509000000E+03 0.  0.
         25    1    3    3    0    0 -0.88056429901E+02  0.87120405572E+02  0.82126287822E+02  0.19425790889E+03  0.12509000000E+03 0.  0.
<mgrwt>
<rscale>  2 0.47150504E+03</rscale>
<asrwt>0</asrwt>
<pdfrwt beam="1">  1       21 0.45235651E-01 0.47150504E+03</pdfrwt>
<pdfrwt beam="2">  1       21 0.26571374E-01 0.47150504E+03</pdfrwt>
<totfact> 0.58108214E+04</totfact>
</mgrwt>
</event>
<event>
 7    0  0.4788920E-002  0.4476158E+03  0.7546771E-02  0.1028435E+00
         21   -1    0    0  502  501  0.00000000000E+00  0.00000000000E+00  0.13414948846E+03  0.13414948846E+03  0.00000000000E+00 0.  1.
         21   -1    0    0  501  502 -0.00000000000E+00 -0.00000000000E+00 -0.37338928359E+03  0.37338928359E+03  0.00000000000E+00 0.  1.
      99926    2    1    2    0    0  0.00000000000E+00  0.35527136788E-14 -0.23923979514E+03  0.50753877205E+03  0.44761582362E+03 0.  0.
      99925    2    3    3    0    0 -0.74718884382E+02  0.97819444014E+01 -0.23630631395E+03  0.36147470552E+03  0.26295378035E+03 0.  0.
         25    1    4    4    0    0 -0.38064252808E+02  0.39279624384E+02 -0.91113020021E+02  0.16413673188E+03  0.12509000000E+03 0.  0.
         25    1    3    3    0    0  0.74718884382E+02 -0.97819444014E+01 -0.29334811902E+01  0.14606406653E+03  0.12509000000E+03 0.  0.
         25    1    4    4    0    0 -0.36654631574E+02 -0.29497679983E+02 -0.14519329393E+03  0.19733797364E+03  0.12509000000E+03 0.  0.
<mgrwt>
<rscale>  2 0.44761582E+03</rscale>
<asrwt>0</asrwt>
<pdfrwt beam="1">  1       21 0.19727866E-01 0.44761582E+03</pdfrwt>
<pdfrwt beam="2">  1       21 0.54910188E-01 0.44761582E+03</pdfrwt>
<totfact> 0.68681557E+04</totfact>
</mgrwt>
</event>
<event>
 7    0  0.4788920E-002  0.4478104E+03  0.7546771E-02  0.1028377E+00
         21   -1    0    0  502  501  0.00000000000E+00  0.00000000000E+00  0.13218427585E+04  0.13218427585E+04  0.00000000000E+00 0.  1.
         21   -1    0    0  501  502 -0.00000000000E+00 -0.00000000000E+00 -0.37927013953E+02  0.37927013953E+02  0.00000000000E+00 0.  1.
      99926    2    1    2    0    0 -0.35527136788E-14  0.00000000000E+00  0.12839157446E+04  0.13597697725E+04  0.44781044538E+03 0.  0.
      99925    2    3    3    0    0 -0.20369761880E+02 -0.89415307046E+02  0.65039713275E+03  0.70754023929E+03  0.26303371571E+03 0.  0.
         25    1    4    4    0    0  0.29094425562E+02 -0.49482428782E+02  0.34553052879E+03  0.37193258903E+03  0.12509000000E+03 0.  0.
         25    1    4    4    0    0 -0.49464187441E+02 -0.39932878264E+02  0.30486660396E+03  0.33560765026E+03  0.12509000000E+03 0.  0.
         25    1    3    3    0    0  0.20369761880E+02  0.89415307046E+02  0.63351861185E+03  0.65222953321E+03  0.12509000000E+03 0.  0.
<mgrwt>
<rscale>  2 0.44781045E+03</rscale>
<asrwt>0</asrwt>
<pdfrwt beam="1">  1       21 0.19438861E+00 0.44781045E+03</pdfrwt>
<pdfrwt beam="2">  1       21 0.55775029E-02 0.44781045E+03</pdfrwt>
<totfact> 0.29011811E+04</totfact>
</mgrwt>
</event>
<event>
 7    0  0.4788920E-002  0.4583784E+03  0.7546771E-02  0.1025253E+00
         21   -1    0    0  502  501  0.00000000000E+00  0.00000000000E+00  0.11385622905E+03  0.11385622905E+03  0.00000000000E+00 0. -1.
         21   -1    0    0  501  502 -0.00000000000E+00 -0.00000000000E+00 -0.46135101392E+03  0.46135101392E+03  0.00000000000E+00 0. -1.
      99926    2    1    2    0    0  0.00000000000E+00  0.00000000000E+00 -0.34749478487E+03  0.57520724297E+03  0.45837838830E+03 0.  0.
      99925    2    3    3    0    0  0.10208820904E+02  0.11598027439E+03 -0.22945279882E+03  0.36751260500E+03  0.26241433626E+03 0.  0.
         25    1    4    4    0    0  0.13165528214E+02  0.96938706526E+02 -0.14746838777E+03  0.21671381462E+03  0.12509000000E+03 0.  0.
         25    1    3    3    0    0 -0.10208820904E+02 -0.11598027439E+03 -0.11804198605E+03  0.20769463797E+03  0.12509000000E+03 0.  0.
         25    1    4    4    0    0 -0.29567073098E+01  0.19041567862E+02 -0.81984411045E+02  0.15079879038E+03  0.12509000000E+03 0.  0.
<mgrwt>
<rscale>  2 0.45837839E+03</rscale>
<asrwt>0</asrwt>
<pdfrwt beam="1">  1       21 0.16743563E-01 0.45837839E+03</pdfrwt>
<pdfrwt beam="2">  1       21 0.67845738E-01 0.45837839E+03</pdfrwt>
<totfact> 0.58648476E+04</totfact>
</mgrwt>
</event>
<event>
 7    0  0.4788920E-002  0.4571824E+03  0.7546771E-02  0.1025602E+00
         21   -1    0    0  502  501  0.00000000000E+00  0.00000000000E+00  0.13706506497E+03  0.13706506497E+03  0.00000000000E+00 0. -1.
         21   -1    0    0  501  502 -0.00000000000E+00 -0.00000000000E+00 -0.38123446749E+03  0.38123446749E+03  0.00000000000E+00 0. -1.
      99926    2    1    2    0    0 -0.44408920985E-15  0.00000000000E+00 -0.24416940251E+03  0.51829953246E+03  0.45718235774E+03 0.  0.
      99925    2    3    3    0    0 -0.24480194922E+01  0.10961451745E+01 -0.22946601134E+02  0.26414558249E+03  0.26313332726E+03 0.  0.
         25    1    3    3    0    0  0.24480194922E+01 -0.10961451745E+01 -0.22122280138E+03  0.25415394997E+03  0.12509000000E+03 0.  0.
         25    1    4    4    0    0 -0.13820132874E+02 -0.13010404424E+02 -0.47945339793E+02  0.13530162750E+03  0.12509000000E+03 0.  0.
         25    1    4    4    0    0  0.11372113382E+02  0.14106549599E+02  0.24998738659E+02  0.12884395500E+03  0.12509000000E+03 0.  0.
<mgrwt>
<rscale>  2 0.45718236E+03</rscale>
<asrwt>0</asrwt>
<pdfrwt beam="1">  1       21 0.20156628E-01 0.45718236E+03</pdfrwt>
<pdfrwt beam="2">  1       21 0.56063891E-01 0.45718236E+03</pdfrwt>
<totfact> 0.62906899E+04</totfact>
</mgrwt>
</event>
<event>
 7    0  0.4788920E-002  0.4555500E+03  0.7546771E-02  0.1026080E+00
         21   -1    0    0  502  501  0.00000000000E+00  0.00000000000E+00  0.96503305771E+03  0.96503305771E+03  0.00000000000E+00 0. -1.
         21   -1    0    0  501  502 -0.00000000000E+00 -0.00000000000E+00 -0.53761311258E+02  0.53761311258E+02  0.00000000000E+00 0. -1.
      99926    2    1    2    0    0  0.00000000000E+00 -0.71054273576E-14  0.91127174645E+03  0.10187943690E+04  0.45554996472E+03 0.  0.
      99925    2    3    3    0    0  0.95875745826E+02 -0.59836396903E+02  0.54585258098E+03  0.61636272555E+03  0.26301219791E+03 0.  0.
         25    1    4    4    0    0  0.63660532598E+02  0.27129048521E+01  0.30947406184E+03  0.33982602360E+03  0.12509000000E+03 0.  0.
         25    1    4    4    0    0  0.32215213228E+02 -0.62549301755E+02  0.23637851914E+03  0.27653670195E+03  0.12509000000E+03 0.  0.
         25    1    3    3    0    0 -0.95875745826E+02  0.59836396903E+02  0.36541916547E+03  0.40243164342E+03  0.12509000000E+03 0.  0.
<mgrwt>
<rscale>  2 0.45554996E+03</rscale>
<asrwt>0</asrwt>
<pdfrwt beam="1">  1       21 0.14191661E+00 0.45554996E+03</pdfrwt>
<pdfrwt beam="2">  1       21 0.79060758E-02 0.45554996E+03</pdfrwt>
<totfact> 0.38278997E+04</totfact>
</mgrwt>
</event>
<event>
 7    0  0.4788920E-002  0.4507401E+03  0.7546771E-02  0.1027502E+00
         21   -1    0    0  502  501  0.00000000000E+00  0.00000000000E+00  0.66050539735E+03  0.66050539735E+03  0.00000000000E+00 0. -1.
         21   -1    0    0  501  502 -0.00000000000E+00 -0.00000000000E+00 -0.76898170842E+02  0.76898170842E+02  0.00000000000E+00 0. -1.
      99926    2    1    2    0    0 -0.88817841970E-15  0.00000000000E+00  0.58360722651E+03  0.73740356819E+03  0.45074008869E+03 0.  0.
      99925    2    3    3    0    0  0.50764038518E+01  0.10684952466E+03  0.33796937315E+03  0.44172121515E+03  0.26353698779E+03 0.  0.
         25    1    4    4    0    0 -0.35572663086E+02  0.36647005153E+02  0.15214313221E+03  0.20347839719E+03  0.12509000000E+03 0.  0.
         25    1    3    3    0    0 -0.50764038518E+01 -0.10684952466E+03  0.24563785336E+03  0.29568235304E+03  0.12509000000E+03 0.  0.
         25    1    4    4    0    0  0.40649066938E+02  0.70202519507E+02  0.18582624094E+03  0.23824281796E+03  0.12509000000E+03 0.  0.
<mgrwt>
<rscale>  2 0.45074009E+03</rscale>
<asrwt>0</asrwt>
<pdfrwt beam="1">  1       21 0.97133144E-01 0.45074009E+03</pdfrwt>
<pdfrwt beam="2">  1       21 0.11308555E-01 0.45074009E+03</pdfrwt>
<totfact> 0.52660429E+04</totfact>
</mgrwt>
</event>
<event>
 7    0  0.4788920E-002  0.4519502E+03  0.7546771E-02  0.1027142E+00
         21   -1    0    0  502  501  0.00000000000E+00  0.00000000000E+00  0.19547357502E+03  0.19547357502E+03  0.00000000000E+00 0. -1.
         21   -1    0    0  501  502 -0.00000000000E+00 -0.00000000000E+00 -0.26123600626E+03  0.26123600626E+03  0.00000000000E+00 0. -1.
      99926    2    1    2    0    0  0.00000000000E+00  0.00000000000E+00 -0.65762431245E+02  0.45670958128E+03  0.45195015685E+03 0.  0.
      99925    2    3    3    0    0 -0.84681567222E+02  0.48819862505E+02 -0.93088754607E+02  0.29562394303E+03  0.26300884521E+03 0.  0.
         25    1    3    3    0    0  0.84681567222E+02 -0.48819862505E+02  0.27326323362E+02  0.16108563825E+03  0.12509000000E+03 0.  0.
         25    1    4    4    0    0 -0.11543314563E+02 -0.33901612550E+01 -0.30110125232E+02  0.12922410397E+03  0.12509000000E+03 0.  0.
         25    1    4    4    0    0 -0.73138252660E+02  0.52210023760E+02 -0.62978629375E+02  0.16639983907E+03  0.12509000000E+03 0.  0.
<mgrwt>
<rscale>  2 0.45195016E+03</rscale>
<asrwt>0</asrwt>
<pdfrwt beam="1">  1       21 0.28746114E-01 0.45195016E+03</pdfrwt>
<pdfrwt beam="2">  1       21 0.38417060E-01 0.45195016E+03</pdfrwt>
<totfact> 0.70110789E+04</totfact>
</mgrwt>
</event>
<event>
 7    0  0.4788920E-002  0.4439531E+03  0.7546771E-02  0.1029541E+00
         21   -1    0    0  502  501  0.00000000000E+00  0.00000000000E+00  0.61806306869E+03  0.61806306869E+03  0.00000000000E+00 0. -1.
         21   -1    0    0  501  502 -0.00000000000E+00 -0.00000000000E+00 -0.79722584518E+02  0.79722584518E+02  0.00000000000E+00 0. -1.
      99926    2    1    2    0    0  0.00000000000E+00  0.00000000000E+00  0.53834048417E+03  0.69778565321E+03  0.44395308415E+03 0.  0.
      99925    2    3    3    0    0 -0.89150170001E+02 -0.50861731697E+02  0.34741896518E+03  0.44751938885E+03  0.26275273065E+03 0.  0.
         25    1    4    4    0    0 -0.70637458243E+02 -0.41084378308E+02  0.14217119057E+03  0.20624677495E+03  0.12509000000E+03 0.  0.
         25    1    3    3    0    0  0.89150170001E+02  0.50861731697E+02  0.19092151899E+03  0.25026626435E+03  0.12509000000E+03 0.  0.
         25    1    4    4    0    0 -0.18512711759E+02 -0.97773533897E+01  0.20524777461E+03  0.24127261390E+03  0.12509000000E+03 0.  0.
<mgrwt>
<rscale>  2 0.44395308E+03</rscale>
<asrwt>0</asrwt>
<pdfrwt beam="1">  1       21 0.90891625E-01 0.44395308E+03</pdfrwt>
<pdfrwt beam="2">  1       21 0.11723910E-01 0.44395308E+03</pdfrwt>
<totfact> 0.57894953E+04</totfact>
</mgrwt>
</event>
<event>
 7    0  0.4788920E-002  0.4550194E+03  0.7546771E-02  0.1026236E+00
         21   -1    0    0  502  501  0.00000000000E+00  0.00000000000E+00  0.85807712089E+03  0.85807712089E+03  0.00000000000E+00 0. -1.
         21   -1    0    0  501  502 -0.00000000000E+00 -0.00000000000E+00 -0.60321683355E+02  0.60321683355E+02  0.00000000000E+00 0. -1.
      99926    2    1    2    0    0  0.00000000000E+00  0.00000000000E+00  0.79775543754E+03  0.91839880424E+03  0.45501936829E+03 0.  0.
      99925    2    3    3    0    0  0.23808534308E+02  0.11059628303E+03  0.49806204792E+03  0.57450635012E+03  0.26304630509E+03 0.  0.
         25    1    4    4    0    0  0.63150015876E+01  0.58099649399E+02  0.16954671760E+03  0.21865279795E+03  0.12509000000E+03 0.  0.
         25    1    4    4    0    0  0.17493532721E+02  0.52496633634E+02  0.32851533032E+03  0.35585355216E+03  0.12509000000E+03 0.  0.
         25    1    3    3    0    0 -0.23808534308E+02 -0.11059628303E+03  0.29969338961E+03  0.34389245413E+03  0.12509000000E+03 0.  0.
<mgrwt>
<rscale>  2 0.45501937E+03</rscale>
<asrwt>0</asrwt>
<pdfrwt beam="1">  1       21 0.12618780E+00 0.45501937E+03</pdfrwt>
<pdfrwt beam="2">  1       21 0.88708363E-02 0.45501937E+03</pdfrwt>
<totfact> 0.42441294E+04</totfact>
</mgrwt>
</event>
<event>
 7    0  0.4788920E-002  0.4743894E+03  0.7546771E-02  0.1020689E+00
         21   -1    0    0  502  501  0.00000000000E+00  0.00000000000E+00  0.41681195328E+03  0.41681195328E+03  0.00000000000E+00 0. -1.
         21   -1    0    0  501  502 -0.00000000000E+00 -0.00000000000E+00 -0.13498013970E+03  0.13498013970E+03  0.00000000000E+00 0. -1.
      99926    2    1    2    0    0 -0.14210854715E-13 -0.14210854715E-13  0.28183181358E+03  0.55179209299E+03  0.47438944206E+03 0.  0.
      99925    2    3    3    0    0  0.85049681513E+02  0.96539446350E+02  0.14935467072E+03  0.32874273857E+03  0.26308108535E+03 0.  0.
         25    1    4    4    0    0  0.19481724346E+02  0.57041842761E+02  0.36159016032E+02  0.14348620822E+03  0.12509000000E+03 0.  0.
         25    1    3    3    0    0 -0.85049681513E+02 -0.96539446350E+02  0.13247714286E+03  0.22304935442E+03  0.12509000000E+03 0.  0.
         25    1    4    4    0    0  0.65567957168E+02  0.39497603589E+02  0.11319565469E+03  0.18525653035E+03  0.12509000000E+03 0.  0.
<mgrwt>
<rscale>  2 0.47438944E+03</rscale>
<asrwt>0</asrwt>
<pdfrwt beam="1">  1       21 0.61295875E-01 0.47438944E+03</pdfrwt>
<pdfrwt beam="2">  1       21 0.19850021E-01 0.47438944E+03</pdfrwt>
<totfact> 0.53113289E+04</totfact>
</mgrwt>
</event>
<event>
 7    0  0.4788920E-002  0.4507874E+03  0.7546771E-02  0.1027487E+00
         21   -1    0    0  502  501  0.00000000000E+00  0.00000000000E+00  0.25744492111E+03  0.25744492111E+03  0.00000000000E+00 0. -1.
         21   -1    0    0  501  502 -0.00000000000E+00 -0.00000000000E+00 -0.19733275601E+03  0.19733275601E+03  0.00000000000E+00 0. -1.
      99926    2    1    2    0    0  0.00000000000E+00  0.14210854715E-13  0.60112165098E+02  0.45477767712E+03  0.45078738138E+03 0.  0.
      99925    2    3    3    0    0  0.22928033089E+02  0.82925198666E+02  0.10576866644E+03  0.29623964544E+03  0.26299930314E+03 0.  0.
         25    1    3    3    0    0 -0.22928033089E+02 -0.82925198666E+02 -0.45656501341E+02  0.15853803168E+03  0.12509000000E+03 0.  0.
         25    1    4    4    0    0  0.84196890079E+01  0.61801425747E+02  0.17179097495E+02  0.14082946026E+03  0.12509000000E+03 0.  0.
         25    1    4    4    0    0  0.14508344081E+02  0.21123772919E+02  0.88589568945E+02  0.15541018518E+03  0.12509000000E+03 0.  0.
<mgrwt>
<rscale>  2 0.45078738E+03</rscale>
<asrwt>0</asrwt>
<pdfrwt beam="1">  1       21 0.37859547E-01 0.45078738E+03</pdfrwt>
<pdfrwt beam="2">  1       21 0.29019523E-01 0.45078738E+03</pdfrwt>
<totfact> 0.70915454E+04</totfact>
</mgrwt>
</event>
<event>
 7    0  0.4788920E-002  0.4517614E+03  0.7546771E-02  0.1027198E+00
         21   -1    0    0  502  501  0.00000000000E+00  0.00000000000E+00  0.82022945418E+03  0.82022945418E+03  0.00000000000E+00 0.  1.
         21   -1    0    0  501  502 -0.00000000000E+00 -0.00000000000E+00 -0.62204642927E+02  0.62204642927E+02  0.00000000000E+00 0.  1.
      99926    2    1    2    0    0  0.00000000000E+00  0.00000000000E+00  0.75802481125E+03  0.88243409711E+03  0.45176135432E+03 0.  0.
      99925    2    3    3    0    0  0.76923293565E+02 -0.78313241628E+02  0.46061490644E+03  0.54162576903E+03  0.26294909152E+03 0.  0.
         25    1    3    3    0    0 -0.76923293565E+02  0.78313241628E+02  0.29740990481E+03  0.34080832808E+03  0.12509000000E+03 0.  0.
         25    1    4    4    0    0  0.77284479125E+02 -0.44928590136E+02  0.22017498236E+03  0.26854422333E+03  0.12509000000E+03 0.  0.
         25    1    4    4    0    0 -0.36118555994E+00 -0.33384651492E+02  0.24043992409E+03  0.27308154570E+03  0.12509000000E+03 0.  0.
<mgrwt>
<rscale>  2 0.45176135E+03</rscale>
<asrwt>0</asrwt>
<pdfrwt beam="1">  1       21 0.12062197E+00 0.45176135E+03</pdfrwt>
<pdfrwt beam="2">  1       21 0.91477421E-02 0.45176135E+03</pdfrwt>
<totfact> 0.45135884E+04</totfact>
</mgrwt>
</event>
<event>
 7    0  0.4788920E-002  0.4599201E+03  0.7546771E-02  0.1024804E+00
         21   -1    0    0  502  501  0.00000000000E+00  0.00000000000E+00  0.24193243500E+03  0.24193243500E+03  0.00000000000E+00 0. -1.
         21   -1    0    0  501  502 -0.00000000000E+00 -0.00000000000E+00 -0.21858010793E+03  0.21858010793E+03  0.00000000000E+00 0. -1.
      99926    2    1    2    0    0  0.00000000000E+00  0.00000000000E+00  0.23352327076E+02  0.46051254293E+03  0.45992007025E+03 0.  0.
      99925    2    3    3    0    0  0.64890230384E+02  0.97515739069E+02  0.25396678040E+02  0.28913066280E+03  0.26311877081E+03 0.  0.
         25    1    4    4    0    0  0.61898149861E+02  0.73742572616E+02  0.34019298687E+02  0.16147497873E+03  0.12509000000E+03 0.  0.
         25    1    4    4    0    0  0.29920805228E+01  0.23773166453E+02 -0.86226206476E+01  0.12765568407E+03  0.12509000000E+03 0.  0.
         25    1    3    3    0    0 -0.64890230384E+02 -0.97515739069E+02 -0.20443509640E+01  0.17138188013E+03  0.12509000000E+03 0.  0.
<mgrwt>
<rscale>  2 0.45992007E+03</rscale>
<asrwt>0</asrwt>
<pdfrwt beam="1">  1       21 0.35578299E-01 0.45992007E+03</pdfrwt>
<pdfrwt beam="2">  1       21 0.32144133E-01 0.45992007E+03</pdfrwt>
<totfact> 0.65533209E+04</totfact>
</mgrwt>
</event>
<event>
 7    0  0.4788920E-002  0.4504784E+03  0.7546771E-02  0.1027579E+00
         21   -1    0    0  502  501  0.00000000000E+00  0.00000000000E+00  0.37033042926E+03  0.37033042926E+03  0.00000000000E+00 0. -1.
         21   -1    0    0  501  502 -0.00000000000E+00 -0.00000000000E+00 -0.13699307691E+03  0.13699307691E+03  0.00000000000E+00 0. -1.
      99926    2    1    2    0    0  0.00000000000E+00  0.00000000000E+00  0.23333735235E+03  0.50732350617E+03  0.45047843446E+03 0.  0.
      99925    2    3    3    0    0  0.55872466224E+02  0.47040843358E+02  0.56763879522E+02  0.27893727009E+03  0.26315259680E+03 0.  0.
         25    1    4    4    0    0  0.36273766035E+02 -0.11125909491E+02  0.67369289763E+01  0.13089104735E+03  0.12509000000E+03 0.  0.
         25    1    4    4    0    0  0.19598700189E+02  0.58166752848E+02  0.50026950546E+02  0.14804622274E+03  0.12509000000E+03 0.  0.
         25    1    3    3    0    0 -0.55872466224E+02 -0.47040843358E+02  0.17657347282E+03  0.22838623608E+03  0.12509000000E+03 0.  0.
<mgrwt>
<rscale>  2 0.45047843E+03</rscale>
<asrwt>0</asrwt>
<pdfrwt beam="1">  1       21 0.54460357E-01 0.45047843E+03</pdfrwt>
<pdfrwt beam="2">  1       21 0.20146041E-01 0.45047843E+03</pdfrwt>
<totfact> 0.67136158E+04</totfact>
</mgrwt>
</event>
<event>
 7    0  0.4788920E-002  0.4585517E+03  0.7546771E-02  0.1025202E+00
         21   -1    0    0  502  501  0.00000000000E+00  0.00000000000E+00  0.20079604949E+03  0.20079604949E+03  0.00000000000E+00 0.  1.
         21   -1    0    0  501  502 -0.00000000000E+00 -0.00000000000E+00 -0.26179510944E+03  0.26179510944E+03  0.00000000000E+00 0.  1.
      99926    2    1    2    0    0  0.00000000000E+00  0.00000000000E+00 -0.60999059956E+02  0.46259115893E+03  0.45855173646E+03 0.  0.
      99925    2    3    3    0    0 -0.63959494242E+02 -0.70453108310E+02  0.29449224519E+02  0.28125484807E+03  0.26302580741E+03 0.  0.
         25    1    3    3    0    0  0.63959494242E+02  0.70453108310E+02 -0.90448284475E+02  0.18133631087E+03  0.12509000000E+03 0.  0.
         25    1    4    4    0    0 -0.51598351441E+02 -0.70707568622E+02  0.29796822595E+02  0.15555484200E+03  0.12509000000E+03 0.  0.
         25    1    4    4    0    0 -0.12361142801E+02  0.25446031261E+00 -0.34759807638E+00  0.12570000607E+03  0.12509000000E+03 0.  0.
<mgrwt>
<rscale>  2 0.45855174E+03</rscale>
<asrwt>0</asrwt>
<pdfrwt beam="1">  1       21 0.29528831E-01 0.45855174E+03</pdfrwt>
<pdfrwt beam="2">  1       21 0.38499281E-01 0.45855174E+03</pdfrwt>
<totfact> 0.66099956E+04</totfact>
</mgrwt>
</event>
<event>
 7    0  0.4788920E-002  0.4070466E+03  0.7546771E-02  0.1041367E+00
         21   -1    0    0  502  501  0.00000000000E+00  0.00000000000E+00  0.76508842430E+02  0.76508842430E+02  0.00000000000E+00 0.  1.
         21   -1    0    0  501  502 -0.00000000000E+00 -0.00000000000E+00 -0.54139793799E+03  0.54139793799E+03  0.00000000000E+00 0.  1.
      99926    2    1    2    0    0  0.00000000000E+00  0.17763568394E-14 -0.46488909556E+03  0.61790678042E+03  0.40704657979E+03 0.  0.
      99925    2    3    3    0    0  0.25525050903E+02  0.90994384114E+01 -0.38448793648E+03  0.46675724359E+03  0.26324327749E+03 0.  0.
         25    1    4    4    0    0 -0.16555917137E+02  0.21430062654E+02 -0.14809535102E+03  0.19573729096E+03  0.12509000000E+03 0.  0.
         25    1    3    3    0    0 -0.25525050903E+02 -0.90994384114E+01 -0.80401159085E+02  0.15114953683E+03  0.12509000000E+03 0.  0.
         25    1    4    4    0    0  0.42080968040E+02 -0.12330624242E+02 -0.23639258545E+03  0.27101995263E+03  0.12509000000E+03 0.  0.
<mgrwt>
<rscale>  2 0.40704658E+03</rscale>
<asrwt>0</asrwt>
<pdfrwt beam="1">  1       21 0.11251300E-01 0.40704658E+03</pdfrwt>
<pdfrwt beam="2">  1       21 0.79617344E-01 0.40704658E+03</pdfrwt>
<totfact> 0.85704320E+04</totfact>
</mgrwt>
</event>
<event>
 7    0  0.4788920E-002  0.4611231E+03  0.7546771E-02  0.1024456E+00
         21   -1    0    0  502  501  0.00000000000E+00  0.00000000000E+00  0.83229911524E+02  0.83229911524E+02  0.00000000000E+00 0. -1.
         21   -1    0    0  501  502 -0.00000000000E+00 -0.00000000000E+00 -0.63869612571E+03  0.63869612571E+03  0.00000000000E+00 0. -1.
      99926    2    1    2    0    0  0.00000000000E+00  0.00000000000E+00 -0.55546621419E+03  0.72192603724E+03  0.46112307266E+03 0.  0.
      99925    2    3    3    0    0 -0.41873858841E+02 -0.89102123349E+02 -0.24342327774E+03  0.37162486577E+03  0.26297821255E+03 0.  0.
         25    1    3    3    0    0  0.41873858841E+02  0.89102123349E+02 -0.31204293645E+03  0.35030117146E+03  0.12509000000E+03 0.  0.
         25    1    4    4    0    0 -0.17826829499E+02 -0.86496249315E+02 -0.14098682772E+03  0.20814463886E+03  0.12509000000E+03 0.  0.
         25    1    4    4    0    0 -0.24047029342E+02 -0.26058740338E+01 -0.10243645002E+03  0.16348022692E+03  0.12509000000E+03 0.  0.
<mgrwt>
<rscale>  2 0.46112307E+03</rscale>
<asrwt>0</asrwt>
<pdfrwt beam="1">  1       21 0.12239693E-01 0.46112307E+03</pdfrwt>
<pdfrwt beam="2">  1       21 0.93925900E-01 0.46112307E+03</pdfrwt>
<totfact> 0.49310626E+04</totfact>
</mgrwt>
</event>
<event>
 7    0  0.4788920E-002  0.4527849E+03  0.7546771E-02  0.1026895E+00
         21   -1    0    0  502  501  0.00000000000E+00  0.00000000000E+00  0.64610466795E+02  0.64610466795E+02  0.00000000000E+00 0.  1.
         21   -1    0    0  501  502 -0.00000000000E+00 -0.00000000000E+00 -0.79326984686E+03  0.79326984686E+03  0.00000000000E+00 0.  1.
      99926    2    1    2    0    0 -0.88817841970E-15 -0.14210854715E-13 -0.72865938006E+03  0.85788031365E+03  0.45278487210E+03 0.  0.
      99925    2    3    3    0    0  0.78259265792E+01 -0.10127218796E+03 -0.54407192801E+03  0.61285513793E+03  0.26317267346E+03 0.  0.
         25    1    4    4    0    0  0.44119478069E+02 -0.58467283443E+02 -0.28445996105E+03  0.31926466939E+03  0.12509000000E+03 0.  0.
         25    1    4    4    0    0 -0.36293551489E+02 -0.42804904521E+02 -0.25961196696E+03  0.29359046855E+03  0.12509000000E+03 0.  0.
         25    1    3    3    0    0 -0.78259265792E+01  0.10127218796E+03 -0.18458745205E+03  0.24502517572E+03  0.12509000000E+03 0.  0.
<mgrwt>
<rscale>  2 0.45278487E+03</rscale>
<asrwt>0</asrwt>
<pdfrwt beam="1">  1       21 0.95015399E-02 0.45278487E+03</pdfrwt>
<pdfrwt beam="2">  1       21 0.11665732E+00 0.45278487E+03</pdfrwt>
<totfact> 0.45880872E+04</totfact>
</mgrwt>
</event>
<event>
 7    0  0.4788920E-002  0.4581472E+03  0.7546771E-02  0.1025320E+00
         21   -1    0    0  502  501  0.00000000000E+00  0.00000000000E+00  0.38901019818E+02  0.38901019818E+02  0.00000000000E+00 0. -1.
         21   -1    0    0  501  502 -0.00000000000E+00 -0.00000000000E+00 -0.13489291817E+04  0.13489291817E+04  0.00000000000E+00 0. -1.
      99926    2    1    2    0    0  0.00000000000E+00  0.00000000000E+00 -0.13100281619E+04  0.13878302015E+04  0.45814722887E+03 0.  0.
      99925    2    3    3    0    0 -0.65978943813E+02  0.88165316244E+02 -0.93421928495E+03  0.97672660861E+03  0.26287421248E+03 0.  0.
         25    1    4    4    0    0 -0.17250067349E+01  0.51392462677E+02 -0.36532295523E+03  0.38955427168E+03  0.12509000000E+03 0.  0.
         25    1    4    4    0    0 -0.64253937078E+02  0.36772853567E+02 -0.56889632972E+03  0.58717233694E+03  0.12509000000E+03 0.  0.
         25    1    3    3    0    0  0.65978943813E+02 -0.88165316244E+02 -0.37580887691E+03  0.41110359288E+03  0.12509000000E+03 0.  0.
<mgrwt>
<rscale>  2 0.45814723E+03</rscale>
<asrwt>0</asrwt>
<pdfrwt beam="1">  1       21 0.57207399E-02 0.45814723E+03</pdfrwt>
<pdfrwt beam="2">  1       21 0.19837188E+00 0.45814723E+03</pdfrwt>
<totfact> 0.26015959E+04</totfact>
</mgrwt>
</event>
<event>
 7    0  0.4788920E-002  0.4005579E+03  0.7546771E-02  0.1043587E+00
         21   -1    0    0  502  501  0.00000000000E+00  0.00000000000E+00  0.52571076594E+02  0.52571076594E+02  0.00000000000E+00 0. -1.
         21   -1    0    0  501  502 -0.00000000000E+00 -0.00000000000E+00 -0.76299878878E+03  0.76299878878E+03  0.00000000000E+00 0. -1.
      99926    2    1    2    0    0 -0.13322676296E-14  0.00000000000E+00 -0.71042771219E+03  0.81556986537E+03  0.40055794969E+03 0.  0.
      99925    2    3    3    0    0 -0.35439731960E+01  0.10332536440E+02 -0.38172032123E+03  0.46369577138E+03  0.26302859863E+03 0.  0.
         25    1    4    4    0    0  0.19025549153E+02  0.17415073074E+02 -0.13364319357E+03  0.18486012977E+03  0.12509000000E+03 0.  0.
         25    1    3    3    0    0  0.35439731960E+01 -0.10332536440E+02 -0.32870739095E+03  0.35187409399E+03  0.12509000000E+03 0.  0.
         25    1    4    4    0    0 -0.22569522349E+02 -0.70825366341E+01 -0.24807712766E+03  0.27883564161E+03  0.12509000000E+03 0.  0.
<mgrwt>
<rscale>  2 0.40055795E+03</rscale>
<asrwt>0</asrwt>
<pdfrwt beam="1">  1       21 0.77310410E-02 0.40055795E+03</pdfrwt>
<pdfrwt beam="2">  1       21 0.11220570E+00 0.40055795E+03</pdfrwt>
<totfact> 0.73873306E+04</totfact>
</mgrwt>
</event>
<event>
 7    0  0.4788920E-002  0.4020421E+03  0.7546771E-02  0.1043075E+00
         21   -1    0    0  502  501  0.00000000000E+00  0.00000000000E+00  0.20405171149E+03  0.20405171149E+03  0.00000000000E+00 0.  1.
         21   -1    0    0  501  502 -0.00000000000E+00 -0.00000000000E+00 -0.19803544954E+03  0.19803544954E+03  0.00000000000E+00 0.  1.
      99926    2    1    2    0    0 -0.44408920985E-15  0.71054273576E-14  0.60162619516E+01  0.40208716102E+03  0.40204214910E+03 0.  0.
      99925    2    3    3    0    0  0.34345810717E+01  0.40161775866E+02 -0.23969592310E+02  0.26728573617E+03  0.26313942847E+03 0.  0.
         25    1    4    4    0    0  0.77088626902E+01  0.58028841250E+02  0.24123030757E+01  0.13813073621E+03  0.12509000000E+03 0.  0.
         25    1    3    3    0    0 -0.34345810717E+01 -0.40161775866E+02  0.29985854261E+02  0.13480142486E+03  0.12509000000E+03 0.  0.
         25    1    4    4    0    0 -0.42742816184E+01 -0.17867065384E+02 -0.26381895385E+02  0.12915499995E+03  0.12509000000E+03 0.  0.
<mgrwt>
<rscale>  2 0.40204215E+03</rscale>
<asrwt>0</asrwt>
<pdfrwt beam="1">  1       21 0.30007605E-01 0.40204215E+03</pdfrwt>
<pdfrwt beam="2">  1       21 0.29122860E-01 0.40204215E+03</pdfrwt>
<totfact> 0.11351221E+05</totfact>
</mgrwt>
</event>
<event>
 6    0  0.4788920E-002  0.4543881E+03  0.7546771E-02  0.1026421E+00
         21   -1    0    0  502  501  0.00000000000E+00  0.00000000000E+00  0.41270769980E+03  0.41270769980E+03  0.00000000000E+00 0. -1.
         21   -1    0    0  501  502 -0.00000000000E+00 -0.00000000000E+00 -0.12506947708E+03  0.12506947708E+03  0.00000000000E+00 0. -1.
      99926    2    1    2    0    0  0.35527136788E-14  0.00000000000E+00  0.28763822272E+03  0.53777717688E+03  0.45438809932E+03 0.  0.
         25    1    3    3    0    0  0.21173020343E+02 -0.26273899123E+02  0.10544963323E+03  0.16705013563E+03  0.12509000000E+03 0.  0.
         25    1    3    3    0    0  0.18160493172E+02  0.23602349778E+02 -0.19589038286E+02  0.13006964653E+03  0.12509000000E+03 0.  0.
         25    1    3    3    0    0 -0.39333513515E+02  0.26715493447E+01  0.20177762778E+03  0.24065739472E+03  0.12509000000E+03 0.  0.
<mgrwt>
<rscale>  2 0.45438810E+03</rscale>
<asrwt>0</asrwt>
<pdfrwt beam="1">  1       21 0.60692309E-01 0.45438810E+03</pdfrwt>
<pdfrwt beam="2">  1       21 0.18392570E-01 0.45438810E+03</pdfrwt>
<totfact> 0.62985979E+04</totfact>
</mgrwt>
</event>
<event>
 7    0  0.4788920E-002  0.4259563E+03  0.7546771E-02  0.1035145E+00
         21   -1    0    0  502  501  0.00000000000E+00  0.00000000000E+00  0.25277074424E+03  0.25277074424E+03  0.00000000000E+00 0. -1.
         21   -1    0    0  501  502 -0.00000000000E+00 -0.00000000000E+00 -0.17944989972E+03  0.17944989972E+03  0.00000000000E+00 0. -1.
      99926    2    1    2    0    0 -0.26645352591E-14  0.35527136788E-14  0.73320844511E+02  0.43222064396E+03  0.42595626398E+03 0.  0.
      99925    2    3    3    0    0 -0.70051297757E+01 -0.27742205871E+02  0.12646322995E+03  0.29333103650E+03  0.26311869302E+03 0.  0.
         25    1    3    3    0    0  0.70051297757E+01  0.27742205871E+02 -0.53142385440E+02  0.13888960746E+03  0.12509000000E+03 0.  0.
         25    1    4    4    0    0 -0.42211927583E+02 -0.13642074354E+02  0.77854497287E+02  0.15387262223E+03  0.12509000000E+03 0.  0.
         25    1    4    4    0    0  0.35206797807E+02 -0.14100131516E+02  0.48608732664E+02  0.13945841427E+03  0.12509000000E+03 0.  0.
<mgrwt>
<rscale>  2 0.42595626E+03</rscale>
<asrwt>0</asrwt>
<pdfrwt beam="1">  1       21 0.37172168E-01 0.42595626E+03</pdfrwt>
<pdfrwt beam="2">  1       21 0.26389691E-01 0.42595626E+03</pdfrwt>
<totfact> 0.89184470E+04</totfact>
</mgrwt>
</event>
<event>
 7    0  0.4788920E-002  0.4499341E+03  0.7546771E-02  0.1027742E+00
         21   -1    0    0  502  501  0.00000000000E+00  0.00000000000E+00  0.14639656302E+03  0.14639656302E+03  0.00000000000E+00 0. -1.
         21   -1    0    0  501  502 -0.00000000000E+00 -0.00000000000E+00 -0.34570595756E+03  0.34570595756E+03  0.00000000000E+00 0. -1.
      99926    2    1    2    0    0  0.00000000000E+00  0.00000000000E+00 -0.19930939454E+03  0.49210252058E+03  0.44993405740E+03 0.  0.
      99925    2    3    3    0    0  0.86503899127E+02  0.31506613728E+02 -0.65349384669E+02  0.28699673418E+03  0.26385790130E+03 0.  0.
         25    1    4    4    0    0  0.36012623255E+02 -0.12854100559E+01  0.71657326175E+01  0.13037414290E+03  0.12509000000E+03 0.  0.
         25    1    3    3    0    0 -0.86503899127E+02 -0.31506613728E+02 -0.13396000987E+03  0.20510578641E+03  0.12509000000E+03 0.  0.
         25    1    4    4    0    0  0.50491275872E+02  0.32792023784E+02 -0.72515117286E+02  0.15662259128E+03  0.12509000000E+03 0.  0.
<mgrwt>
<rscale>  2 0.44993406E+03</rscale>
<asrwt>0</asrwt>
<pdfrwt beam="1">  1       21 0.21528906E-01 0.44993406E+03</pdfrwt>
<pdfrwt beam="2">  1       21 0.50839111E-01 0.44993406E+03</pdfrwt>
<totfact> 0.68544515E+04</totfact>
</mgrwt>
</event>
<event>
 7    0  0.4788920E-002  0.4564481E+03  0.7546771E-02  0.1025816E+00
         21   -1    0    0  502  501  0.00000000000E+00  0.00000000000E+00  0.11851357210E+03  0.11851357210E+03  0.00000000000E+00 0. -1.
         21   -1    0    0  501  502 -0.00000000000E+00 -0.00000000000E+00 -0.43949582929E+03  0.43949582929E+03  0.00000000000E+00 0. -1.
      99926    2    1    2    0    0  0.00000000000E+00  0.22204460493E-15 -0.32098225719E+03  0.55800940138E+03  0.45644811600E+03 0.  0.
      99925    2    3    3    0    0  0.99057187194E+02 -0.16157029459E+01 -0.27180875141E+03  0.39103491650E+03  0.26308434341E+03 0.  0.
         25    1    3    3    0    0 -0.99057187194E+02  0.16157029459E+01 -0.49173505774E+02  0.16697448488E+03  0.12509000000E+03 0.  0.
         25    1    4    4    0    0  0.36502723681E+02  0.37810010809E+02 -0.13714945296E+03  0.19292362815E+03  0.12509000000E+03 0.  0.
         25    1    4    4    0    0  0.62554463513E+02 -0.39425713755E+02 -0.13465929846E+03  0.19811128835E+03  0.12509000000E+03 0.  0.
<mgrwt>
<rscale>  2 0.45644812E+03</rscale>
<asrwt>0</asrwt>
<pdfrwt beam="1">  1       21 0.17428466E-01 0.45644812E+03</pdfrwt>
<pdfrwt beam="2">  1       21 0.64631740E-01 0.45644812E+03</pdfrwt>
<totfact> 0.60642671E+04</totfact>
</mgrwt>
</event>
<event>
 7    0  0.4788920E-002  0.4523030E+03  0.7546771E-02  0.1027037E+00
         21   -1    0    0  502  501  0.00000000000E+00  0.00000000000E+00  0.65381485275E+02  0.65381485275E+02  0.00000000000E+00 0. -1.
         21   -1    0    0  501  502 -0.00000000000E+00 -0.00000000000E+00 -0.78224753932E+03  0.78224753932E+03  0.00000000000E+00 0. -1.
      99926    2    1    2    0    0 -0.88817841970E-15  0.00000000000E+00 -0.71686605404E+03  0.84762902459E+03  0.45230302220E+03 0.  0.
      99925    2    3    3    0    0 -0.20970702735E+01 -0.83489642557E+02 -0.31724409821E+03  0.42063940668E+03  0.26328458840E+03 0.  0.
         25    1    4    4    0    0  0.99729283676E+01 -0.44445525956E+02 -0.21949583408E+03  0.25671149829E+03  0.12509000000E+03 0.  0.
         25    1    4    4    0    0 -0.12069998641E+02 -0.39044116601E+02 -0.97748264126E+02  0.16392790839E+03  0.12509000000E+03 0.  0.
         25    1    3    3    0    0  0.20970702735E+01  0.83489642557E+02 -0.39962195584E+03  0.42698961791E+03  0.12509000000E+03 0.  0.
<mgrwt>
<rscale>  2 0.45230302E+03</rscale>
<asrwt>0</asrwt>
<pdfrwt beam="1">  1       21 0.96149245E-02 0.45230302E+03</pdfrwt>
<pdfrwt beam="2">  1       21 0.11503640E+00 0.45230302E+03</pdfrwt>
<totfact> 0.46522112E+04</totfact>
</mgrwt>
</event>
<event>
 7    0  0.4788920E-002  0.4512441E+03  0.7546771E-02  0.1027352E+00
         21   -1    0    0  502  501  0.00000000000E+00  0.00000000000E+00  0.28135220228E+03  0.28135220228E+03  0.00000000000E+00 0. -1.
         21   -1    0    0  501  502 -0.00000000000E+00 -0.00000000000E+00 -0.18093094421E+03  0.18093094421E+03  0.00000000000E+00 0. -1.
      99926    2    1    2    0    0  0.00000000000E+00  0.14210854715E-13  0.10042125807E+03  0.46228314649E+03  0.45124414507E+03 0.  0.
      99925    2    3    3    0    0  0.35390543384E+02  0.82129812683E+02 -0.15165499858E+01  0.27779298008E+03  0.26299970183E+03 0.  0.
         25    1    3    3    0    0 -0.35390543384E+02 -0.82129812683E+02  0.10193780806E+03  0.18449016641E+03  0.12509000000E+03 0.  0.
         25    1    4    4    0    0  0.25141611109E+02  0.76348784170E+02  0.20947313749E+02  0.15015836809E+03  0.12509000000E+03 0.  0.
         25    1    4    4    0    0  0.10248932275E+02  0.57810285122E+01 -0.22463863735E+02  0.12763461199E+03  0.12509000000E+03 0.  0.
<mgrwt>
<rscale>  2 0.45124415E+03</rscale>
<asrwt>0</asrwt>
<pdfrwt beam="1">  1       21 0.41375324E-01 0.45124415E+03</pdfrwt>
<pdfrwt beam="2">  1       21 0.26607492E-01 0.45124415E+03</pdfrwt>
<totfact> 0.70079022E+04</totfact>
</mgrwt>
</event>
<event>
 7    0  0.4788920E-002  0.4217624E+03  0.7546771E-02  0.1036494E+00
         21   -1    0    0  502  501  0.00000000000E+00  0.00000000000E+00  0.37237937556E+03  0.37237937556E+03  0.00000000000E+00 0. -1.
         21   -1    0    0  501  502 -0.00000000000E+00 -0.00000000000E+00 -0.11942357605E+03  0.11942357605E+03  0.00000000000E+00 0. -1.
      99926    2    1    2    0    0 -0.35527136788E-14  0.00000000000E+00  0.25295579951E+03  0.49180295160E+03  0.42176238180E+03 0.  0.
      99925    2    3    3    0    0  0.21870463704E+02  0.17292228972E+02  0.79482200589E+02  0.27612278101E+03  0.26296203455E+03 0.  0.
         25    1    3    3    0    0 -0.21870463704E+02 -0.17292228972E+02  0.17347359892E+03  0.21568017060E+03  0.12509000000E+03 0.  0.
         25    1    4    4    0    0  0.46067015655E+02 -0.11476500277E+02  0.38375931735E+02  0.13919087695E+03  0.12509000000E+03 0.  0.
         25    1    4    4    0    0 -0.24196551951E+02  0.28768729249E+02  0.41106268854E+02  0.13693190405E+03  0.12509000000E+03 0.  0.
<mgrwt>
<rscale>  2 0.42176238E+03</rscale>
<asrwt>0</asrwt>
<pdfrwt beam="1">  1       21 0.54761673E-01 0.42176238E+03</pdfrwt>
<pdfrwt beam="2">  1       21 0.17562291E-01 0.42176238E+03</pdfrwt>
<totfact> 0.86507675E+04</totfact>
</mgrwt>
</event>
<event>
 7    0  0.4788920E-002  0.4567571E+03  0.7546771E-02  0.1025726E+00
         21   -1    0    0  502  501  0.00000000000E+00  0.00000000000E+00  0.34864856177E+03  0.34864856177E+03  0.00000000000E+00 0.  1.
         21   -1    0    0  501  502 -0.00000000000E+00 -0.00000000000E+00 -0.14959696380E+03  0.14959696380E+03  0.00000000000E+00 0.  1.
      99926    2    1    2    0    0  0.00000000000E+00  0.00000000000E+00  0.19905159797E+03  0.49824552557E+03  0.45675711828E+03 0.  0.
      99925    2    3    3    0    0 -0.28379701275E+02  0.91426173993E+02  0.55923838920E+02  0.28541409875E+03  0.26300110127E+03 0.  0.
         25    1    4    4    0    0  0.12208922244E+02  0.44282415883E+02  0.58861316318E+02  0.14567825094E+03  0.12509000000E+03 0.  0.
         25    1    3    3    0    0  0.28379701275E+02 -0.91426173993E+02  0.14312775905E+03  0.21283142683E+03  0.12509000000E+03 0.  0.
         25    1    4    4    0    0 -0.40588623520E+02  0.47143758110E+02 -0.29374773975E+01  0.13973584780E+03  0.12509000000E+03 0.  0.
<mgrwt>
<rscale>  2 0.45675712E+03</rscale>
<asrwt>0</asrwt>
<pdfrwt beam="1">  1       21 0.51271847E-01 0.45675712E+03</pdfrwt>
<pdfrwt beam="2">  1       21 0.21999554E-01 0.45675712E+03</pdfrwt>
<totfact> 0.64489843E+04</totfact>
</mgrwt>
</event>
<event>
 7    0  0.4788920E-002  0.4415511E+03  0.7546771E-02  0.1030272E+00
         21   -1    0    0  502  501  0.00000000000E+00  0.00000000000E+00  0.13602341290E+03  0.13602341290E+03  0.00000000000E+00 0. -1.
         21   -1    0    0  501  502 -0.00000000000E+00 -0.00000000000E+00 -0.35833423709E+03  0.35833423709E+03  0.00000000000E+00 0. -1.
      99926    2    1    2    0    0  0.14210854715E-13  0.00000000000E+00 -0.22231082419E+03  0.49435764999E+03  0.44155111092E+03 0.  0.
      99925    2    3    3    0    0 -0.75187013251E+02 -0.64732076871E+02 -0.15637767759E+03  0.32162080778E+03  0.26294987585E+03 0.  0.
         25    1    3    3    0    0  0.75187013251E+02  0.64732076871E+02 -0.65933146595E+02  0.17273684221E+03  0.12509000000E+03 0.  0.
         25    1    4    4    0    0 -0.32374114769E+02  0.42224456934E+01 -0.50749100353E+02  0.13888445428E+03  0.12509000000E+03 0.  0.
         25    1    4    4    0    0 -0.42812898482E+02 -0.68954522564E+02 -0.10562857724E+03  0.18273635349E+03  0.12509000000E+03 0.  0.
<mgrwt>
<rscale>  2 0.44155111E+03</rscale>
<asrwt>0</asrwt>
<pdfrwt beam="1">  1       21 0.20003443E-01 0.44155111E+03</pdfrwt>
<pdfrwt beam="2">  1       21 0.52696211E-01 0.44155111E+03</pdfrwt>
<totfact> 0.73173966E+04</totfact>
</mgrwt>
</event>
<event>
 7    0  0.4788920E-002  0.4551700E+03  0.7546771E-02  0.1026191E+00
         21   -1    0    0  502  501  0.00000000000E+00  0.00000000000E+00  0.48205105443E+03  0.48205105443E+03  0.00000000000E+00 0. -1.
         21   -1    0    0  501  502 -0.00000000000E+00 -0.00000000000E+00 -0.10744698213E+03  0.10744698213E+03  0.00000000000E+00 0. -1.
      99926    2    1    2    0    0  0.00000000000E+00  0.00000000000E+00  0.37460407230E+03  0.58949803656E+03  0.45516999476E+03 0.  0.
      99925    2    3    3    0    0 -0.10037910462E+03 -0.21644405185E+02  0.29798083237E+03  0.41043638819E+03  0.26290874342E+03 0.  0.
         25    1    3    3    0    0  0.10037910462E+03  0.21644405185E+02  0.76623239925E+02  0.17906164837E+03  0.12509000000E+03 0.  0.
         25    1    4    4    0    0 -0.28559258339E+02  0.14177730465E+02  0.10228181850E+03  0.16469886998E+03  0.12509000000E+03 0.  0.
         25    1    4    4    0    0 -0.71819846286E+02 -0.35822135651E+02  0.19569901388E+03  0.24573751821E+03  0.12509000000E+03 0.  0.
<mgrwt>
<rscale>  2 0.45516999E+03</rscale>
<asrwt>0</asrwt>
<pdfrwt beam="1">  1       21 0.70889860E-01 0.45516999E+03</pdfrwt>
<pdfrwt beam="2">  1       21 0.15801027E-01 0.45516999E+03</pdfrwt>
<totfact> 0.59249743E+04</totfact>
</mgrwt>
</event>
<event>
 7    0  0.4788920E-002  0.4563585E+03  0.7546771E-02  0.1025843E+00
         21   -1    0    0  502  501  0.00000000000E+00  0.00000000000E+00  0.15221786533E+03  0.15221786533E+03  0.00000000000E+00 0.  1.
         21   -1    0    0  501  502 -0.00000000000E+00 -0.00000000000E+00 -0.34204773962E+03  0.34204773962E+03  0.00000000000E+00 0.  1.
      99926    2    1    2    0    0  0.00000000000E+00  0.00000000000E+00 -0.18982987429E+03  0.49426560495E+03  0.45635852908E+03 0.  0.
      99925    2    3    3    0    0  0.49085772112E+02  0.88357219676E+01 -0.77078510223E+01  0.26776301674E+03  0.26296414044E+03 0.  0.
         25    1    4    4    0    0  0.45314555377E+02 -0.99737660176E+00  0.30587286716E+02  0.13651920707E+03  0.12509000000E+03 0.  0.
         25    1    4    4    0    0  0.37712167344E+01  0.98330985694E+01 -0.38295137739E+02  0.13124380967E+03  0.12509000000E+03 0.  0.
         25    1    3    3    0    0 -0.49085772112E+02 -0.88357219676E+01 -0.18212202327E+03  0.22650258821E+03  0.12509000000E+03 0.  0.
<mgrwt>
<rscale>  2 0.45635853E+03</rscale>
<asrwt>0</asrwt>
<pdfrwt beam="1">  1       21 0.22384980E-01 0.45635853E+03</pdfrwt>
<pdfrwt beam="2">  1       21 0.50301138E-01 0.45635853E+03</pdfrwt>
<totfact> 0.64971877E+04</totfact>
</mgrwt>
</event>
<event>
 7    0  0.4788920E-002  0.5320430E+03  0.7546771E-02  0.1005738E+00
         21   -1    0    0  502  501  0.00000000000E+00  0.00000000000E+00  0.20056470094E+03  0.20056470094E+03  0.00000000000E+00 0.  1.
         21   -1    0    0  501  502 -0.00000000000E+00 -0.00000000000E+00 -0.35284087935E+03  0.35284087935E+03  0.00000000000E+00 0.  1.
      99926    2    1    2    0    0  0.17763568394E-14  0.00000000000E+00 -0.15227617840E+03  0.55340558029E+03  0.53204295107E+03 0.  0.
      99925    2    3    3    0    0 -0.47662187144E+01 -0.17092462947E+03 -0.12869102634E+03  0.34023496013E+03  0.26450047643E+03 0.  0.
         25    1    4    4    0    0 -0.41416547044E+02 -0.65584233767E+02 -0.65879697590E+02  0.16125837883E+03  0.12509000000E+03 0.  0.
         25    1    3    3    0    0  0.47662187144E+01  0.17092462947E+03 -0.23585152063E+02  0.21317062016E+03  0.12509000000E+03 0.  0.
         25    1    4    4    0    0  0.36650328330E+02 -0.10534039571E+03 -0.62811328750E+02  0.17897658130E+03  0.12509000000E+03 0.  0.
<mgrwt>
<rscale>  2 0.53204295E+03</rscale>
<asrwt>0</asrwt>
<pdfrwt beam="1">  1       21 0.29494809E-01 0.53204295E+03</pdfrwt>
<pdfrwt beam="2">  1       21 0.51888364E-01 0.53204295E+03</pdfrwt>
<totfact> 0.34914645E+04</totfact>
</mgrwt>
</event>
<event>
 7    0  0.4788920E-002  0.4523958E+03  0.7546771E-02  0.1027010E+00
         21   -1    0    0  502  501  0.00000000000E+00  0.00000000000E+00  0.16446709333E+04  0.16446709333E+04  0.00000000000E+00 0.  1.
         21   -1    0    0  501  502 -0.00000000000E+00 -0.00000000000E+00 -0.31109868389E+02  0.31109868389E+02  0.00000000000E+00 0.  1.
      99926    2    1    2    0    0  0.71054273576E-14  0.00000000000E+00  0.16135610649E+04  0.16757808017E+04  0.45239582791E+03 0.  0.
      99925    2    3    3    0    0 -0.41581101362E+02  0.87028791542E+02  0.12196304546E+04  0.12513613955E+04  0.26287620222E+03 0.  0.
         25    1    4    4    0    0 -0.21062733068E+02  0.21246033033E+02  0.42634144495E+03  0.44531962501E+03  0.12509000000E+03 0.  0.
         25    1    3    3    0    0  0.41581101362E+02 -0.87028791542E+02  0.39393061027E+03  0.42441940620E+03  0.12509000000E+03 0.  0.
         25    1    4    4    0    0 -0.20518368294E+02  0.65782758509E+02  0.79328900965E+03  0.80604177044E+03  0.12509000000E+03 0.  0.
<mgrwt>
<rscale>  2 0.45239583E+03</rscale>
<asrwt>0</asrwt>
<pdfrwt beam="1">  1       21 0.24186331E+00 0.45239583E+03</pdfrwt>
<pdfrwt beam="2">  1       21 0.45749817E-02 0.45239583E+03</pdfrwt>
<totfact> 0.20175174E+04</totfact>
</mgrwt>
</event>
<event>
 7    0  0.4788920E-002  0.4582570E+03  0.7546771E-02  0.1025288E+00
         21   -1    0    0  502  501  0.00000000000E+00  0.00000000000E+00  0.39965777512E+03  0.39965777512E+03  0.00000000000E+00 0. -1.
         21   -1    0    0  501  502 -0.00000000000E+00 -0.00000000000E+00 -0.13136205839E+03  0.13136205839E+03  0.00000000000E+00 0. -1.
      99926    2    1    2    0    0 -0.71054273576E-14  0.44408920985E-15  0.26829571673E+03  0.53101983352E+03  0.45825699337E+03 0.  0.
      99925    2    3    3    0    0 -0.46060367998E+02 -0.38990404170E+01  0.45574814828E+02  0.27142617362E+03  0.26354950951E+03 0.  0.
         25    1    4    4    0    0 -0.10067472641E+02  0.16205453857E+02 -0.13151539858E+02  0.12721808771E+03  0.12509000000E+03 0.  0.
         25    1    4    4    0    0 -0.35992895357E+02 -0.20104494274E+02  0.58726354685E+02  0.14420808591E+03  0.12509000000E+03 0.  0.
         25    1    3    3    0    0  0.46060367998E+02  0.38990404170E+01  0.22272090190E+03  0.25959365990E+03  0.12509000000E+03 0.  0.
<mgrwt>
<rscale>  2 0.45825699E+03</rscale>
<asrwt>0</asrwt>
<pdfrwt beam="1">  1       21 0.58773202E-01 0.45825699E+03</pdfrwt>
<pdfrwt beam="2">  1       21 0.19317950E-01 0.45825699E+03</pdfrwt>
<totfact> 0.61533610E+04</totfact>
</mgrwt>
</event>
<event>
 7    0  0.4788920E-002  0.4531552E+03  0.7546771E-02  0.1026785E+00
         21   -1    0    0  502  501  0.00000000000E+00  0.00000000000E+00  0.36394160562E+02  0.36394160562E+02  0.00000000000E+00 0. -1.
         21   -1    0    0  501  502 -0.00000000000E+00 -0.00000000000E+00 -0.14105946777E+04  0.14105946777E+04  0.00000000000E+00 0. -1.
      99926    2    1    2    0    0  0.00000000000E+00 -0.71054273576E-14 -0.13742005171E+04  0.14469888383E+04  0.45315520162E+03 0.  0.
      99925    2    3    3    0    0  0.15389459405E+02 -0.36846495742E+02 -0.11984092023E+04  0.12275700739E+04  0.26296229827E+03 0.  0.
         25    1    4    4    0    0 -0.23974470117E+02  0.14203050086E+01 -0.65356231524E+03  0.66585884426E+03  0.12509000000E+03 0.  0.
         25    1    4    4    0    0  0.39363929522E+02 -0.38266800751E+02 -0.54484688708E+03  0.56171122959E+03  0.12509000000E+03 0.  0.
         25    1    3    3    0    0 -0.15389459405E+02  0.36846495742E+02 -0.17579131483E+03  0.21941876442E+03  0.12509000000E+03 0.  0.
<mgrwt>
<rscale>  2 0.45315520E+03</rscale>
<asrwt>0</asrwt>
<pdfrwt beam="1">  1       21 0.53520820E-02 0.45315520E+03</pdfrwt>
<pdfrwt beam="2">  1       21 0.20744041E+00 0.45315520E+03</pdfrwt>
<totfact> 0.25469397E+04</totfact>
</mgrwt>
</event>
<event>
 7    0  0.4788920E-002  0.4600349E+03  0.7546771E-02  0.1024771E+00
         21   -1    0    0  502  501  0.00000000000E+00  0.00000000000E+00  0.19804680207E+04  0.19804680207E+04  0.00000000000E+00 0.  1.
         21   -1    0    0  501  502 -0.00000000000E+00 -0.00000000000E+00 -0.26714914435E+02  0.26714914435E+02  0.00000000000E+00 0.  1.
      99926    2    1    2    0    0  0.00000000000E+00 -0.88817841970E-15  0.19537531063E+04  0.20071829351E+04  0.46003492787E+03 0.  0.
      99925    2    3    3    0    0 -0.84291871540E+02 -0.55551438469E+01  0.15824293153E+04  0.16063527403E+04  0.26296503422E+03 0.  0.
         25    1    4    4    0    0 -0.77955059379E+02  0.18840817915E+02  0.85588112494E+03  0.86868404834E+03  0.12509000000E+03 0.  0.
         25    1    3    3    0    0  0.84291871540E+02  0.55551438469E+01  0.37132379101E+03  0.40083019484E+03  0.12509000000E+03 0.  0.
         25    1    4    4    0    0 -0.63368121609E+01 -0.24395961762E+02  0.72654819032E+03  0.73766869195E+03  0.12509000000E+03 0.  0.
<mgrwt>
<rscale>  2 0.46003493E+03</rscale>
<asrwt>0</asrwt>
<pdfrwt beam="1">  1       21 0.29124520E+00 0.46003493E+03</pdfrwt>
<pdfrwt beam="2">  1       21 0.39286652E-02 0.46003493E+03</pdfrwt>
<totfact> 0.13074266E+04</totfact>
</mgrwt>
</event>
<event>
 7    0  0.4788920E-002  0.4493391E+03  0.7546771E-02  0.1027919E+00
         21   -1    0    0  502  501  0.00000000000E+00  0.00000000000E+00  0.10316669504E+03  0.10316669504E+03  0.00000000000E+00 0. -1.
         21   -1    0    0  501  502 -0.00000000000E+00 -0.00000000000E+00 -0.48927034393E+03  0.48927034393E+03  0.00000000000E+00 0. -1.
      99926    2    1    2    0    0  0.00000000000E+00  0.00000000000E+00 -0.38610364889E+03  0.59243703897E+03  0.44933908962E+03 0.  0.
      99925    2    3    3    0    0  0.44041763998E+01 -0.69680333829E+02 -0.35251655494E+03  0.44529647124E+03  0.26295680273E+03 0.  0.
         25    1    4    4    0    0  0.13585760731E+02 -0.17129733584E+02 -0.11357522906E+03  0.17036678498E+03  0.12509000000E+03 0.  0.
         25    1    3    3    0    0 -0.44041763998E+01  0.69680333829E+02 -0.33587093955E+02  0.14714056773E+03  0.12509000000E+03 0.  0.
         25    1    4    4    0    0 -0.91815843311E+01 -0.52550600245E+02 -0.23894132587E+03  0.27492968626E+03  0.12509000000E+03 0.  0.
<mgrwt>
<rscale>  2 0.44933909E+03</rscale>
<asrwt>0</asrwt>
<pdfrwt beam="1">  1       21 0.15171573E-01 0.44933909E+03</pdfrwt>
<pdfrwt beam="2">  1       21 0.71951520E-01 0.44933909E+03</pdfrwt>
<totfact> 0.61867891E+04</totfact>
</mgrwt>
</event>
<event>
 7    0  0.4788920E-002  0.4590986E+03  0.7546771E-02  0.1025043E+00
         21   -1    0    0  502  501  0.00000000000E+00  0.00000000000E+00  0.32739968263E+03  0.32739968263E+03  0.00000000000E+00 0. -1.
         21   -1    0    0  501  502 -0.00000000000E+00 -0.00000000000E+00 -0.16094355975E+03  0.16094355975E+03  0.00000000000E+00 0. -1.
      99926    2    1    2    0    0  0.14210854715E-13 -0.71054273576E-14  0.16645612287E+03  0.48834324238E+03  0.45909855318E+03 0.  0.
      99925    2    3    3    0    0  0.97149138377E+02 -0.53140746515E+02  0.63908833720E+02  0.29231939526E+03  0.26287714961E+03 0.  0.
         25    1    4    4    0    0  0.59133105818E+02 -0.50621517422E+02  0.12943664966E+01  0.14733786246E+03  0.12509000000E+03 0.  0.
         25    1    4    4    0    0  0.38016032559E+02 -0.25192290929E+01  0.62614467224E+02  0.14498153280E+03  0.12509000000E+03 0.  0.
         25    1    3    3    0    0 -0.97149138377E+02  0.53140746515E+02  0.10254728915E+03  0.19602384712E+03  0.12509000000E+03 0.  0.
<mgrwt>
<rscale>  2 0.45909855E+03</rscale>
<asrwt>0</asrwt>
<pdfrwt beam="1">  1       21 0.48147012E-01 0.45909855E+03</pdfrwt>
<pdfrwt beam="2">  1       21 0.23668171E-01 0.45909855E+03</pdfrwt>
<totfact> 0.63990134E+04</totfact>
</mgrwt>
</event>
<event>
 7    0  0.4788920E-002  0.4449334E+03  0.7546771E-02  0.1029244E+00
         21   -1    0    0  502  501  0.00000000000E+00  0.00000000000E+00  0.30502508521E+03  0.30502508521E+03  0.00000000000E+00 0.  1.
         21   -1    0    0  501  502 -0.00000000000E+00 -0.00000000000E+00 -0.16225364611E+03  0.16225364611E+03  0.00000000000E+00 0.  1.
      99926    2    1    2    0    0  0.00000000000E+00  0.00000000000E+00  0.14277143910E+03  0.46727873133E+03  0.44493339830E+03 0.  0.
      99925    2    3    3    0    0  0.43602661743E+02  0.93583544932E+02  0.96850490818E+02  0.29871030728E+03  0.26303756027E+03 0.  0.
         25    1    4    4    0    0  0.62571841306E+02  0.54815305835E+02  0.53366393196E+02  0.15942218510E+03  0.12509000000E+03 0.  0.
         25    1    4    4    0    0 -0.18969179563E+02  0.38768239097E+02  0.43484097623E+02  0.13928812219E+03  0.12509000000E+03 0.  0.
         25    1    3    3    0    0 -0.43602661743E+02 -0.93583544932E+02  0.45920948284E+02  0.16856842404E+03  0.12509000000E+03 0.  0.
<mgrwt>
<rscale>  2 0.44493340E+03</rscale>
<asrwt>0</asrwt>
<pdfrwt beam="1">  1       21 0.44856630E-01 0.44493340E+03</pdfrwt>
<pdfrwt beam="2">  1       21 0.23860831E-01 0.44493340E+03</pdfrwt>
<totfact> 0.73322662E+04</totfact>
</mgrwt>
</event>
<event>
 7    0  0.4788920E-002  0.4321645E+03  0.7546771E-02  0.1033178E+00
         21   -1    0    0  502  501  0.00000000000E+00  0.00000000000E+00  0.29831290912E+03  0.29831290912E+03  0.00000000000E+00 0. -1.
         21   -1    0    0  501  502 -0.00000000000E+00 -0.00000000000E+00 -0.15651866797E+03  0.15651866797E+03  0.00000000000E+00 0. -1.
      99926    2    1    2    0    0  0.00000000000E+00  0.00000000000E+00  0.14179424115E+03  0.45483157709E+03  0.43216450189E+03 0.  0.
      99925    2    3    3    0    0  0.86833549674E+02  0.20100569014E+02  0.80035620872E+02  0.28928480575E+03  0.26331710921E+03 0.  0.
         25    1    3    3    0    0 -0.86833549674E+02 -0.20100569014E+02  0.61758620277E+02  0.16554677134E+03  0.12509000000E+03 0.  0.
         25    1    4    4    0    0  0.43630483079E+02  0.51105197612E+02  0.37579922942E+02  0.14688471324E+03  0.12509000000E+03 0.  0.
         25    1    4    4    0    0  0.43203066595E+02 -0.31004628598E+02  0.42455697930E+02  0.14240009250E+03  0.12509000000E+03 0.  0.
<mgrwt>
<rscale>  2 0.43216450E+03</rscale>
<asrwt>0</asrwt>
<pdfrwt beam="1">  1       21 0.43869545E-01 0.43216450E+03</pdfrwt>
<pdfrwt beam="2">  1       21 0.23017451E-01 0.43216450E+03</pdfrwt>
<totfact> 0.82553648E+04</totfact>
</mgrwt>
</event>
<event>
 7    0  0.4788920E-002  0.4579122E+03  0.7546771E-02  0.1025388E+00
         21   -1    0    0  502  501  0.00000000000E+00  0.00000000000E+00  0.26371452987E+04  0.26371452987E+04  0.00000000000E+00 0. -1.
         21   -1    0    0  501  502 -0.00000000000E+00 -0.00000000000E+00 -0.19877892958E+02  0.19877892958E+02  0.00000000000E+00 0. -1.
      99926    2    1    2    0    0 -0.71054273576E-14  0.00000000000E+00  0.26172674058E+04  0.26570231917E+04  0.45791218356E+03 0.  0.
      99925    2    3    3    0    0  0.61479102914E+02 -0.58690191708E+02  0.20997371327E+04  0.21178485350E+04  0.26298701935E+03 0.  0.
         25    1    3    3    0    0 -0.61479102914E+02  0.58690191708E+02  0.51753027311E+03  0.53917465666E+03  0.12509000000E+03 0.  0.
         25    1    4    4    0    0  0.25748835308E+01 -0.52461118917E+01  0.11163774979E+04  0.11233790000E+04  0.12509000000E+03 0.  0.
         25    1    4    4    0    0  0.58904219383E+02 -0.53444079817E+02  0.98335963481E+03  0.99446953508E+03  0.12509000000E+03 0.  0.
<mgrwt>
<rscale>  2 0.45791218E+03</rscale>
<asrwt>0</asrwt>
<pdfrwt beam="1">  1       21 0.38781524E+00 0.45791218E+03</pdfrwt>
<pdfrwt beam="2">  1       21 0.29232214E-02 0.45791218E+03</pdfrwt>
<totfact> 0.55287761E+03</totfact>
</mgrwt>
</event>
<event>
 7    0  0.4788920E-002  0.4561943E+03  0.7546771E-02  0.1025891E+00
         21   -1    0    0  502  501  0.00000000000E+00  0.00000000000E+00  0.11945059938E+04  0.11945059938E+04  0.00000000000E+00 0.  1.
         21   -1    0    0  501  502 -0.00000000000E+00 -0.00000000000E+00 -0.43556335041E+02  0.43556335041E+02  0.00000000000E+00 0.  1.
      99926    2    1    2    0    0  0.35527136788E-14  0.00000000000E+00  0.11509496587E+04  0.12380623288E+04  0.45619427122E+03 0.  0.
      99925    2    3    3    0    0 -0.72713531045E+01  0.66752465624E+02  0.47253550280E+03  0.54495191963E+03  0.26300956078E+03 0.  0.
         25    1    3    3    0    0  0.72713531045E+01 -0.66752465624E+02  0.67841415594E+03  0.69311040919E+03  0.12509000000E+03 0.  0.
         25    1    4    4    0    0 -0.41073002078E+02  0.17609045285E+02  0.22719643279E+03  0.26317826117E+03  0.12509000000E+03 0.  0.
         25    1    4    4    0    0  0.33801648974E+02  0.49143420338E+02  0.24533907000E+03  0.28177365847E+03  0.12509000000E+03 0.  0.
<mgrwt>
<rscale>  2 0.45619427E+03</rscale>
<asrwt>0</asrwt>
<pdfrwt beam="1">  1       21 0.17566263E+00 0.45619427E+03</pdfrwt>
<pdfrwt beam="2">  1       21 0.64053441E-02 0.45619427E+03</pdfrwt>
<totfact> 0.30681619E+04</totfact>
</mgrwt>
</event>
<event>
 7    0  0.4788920E-002  0.4420868E+03  0.7546771E-02  0.1030108E+00
         21   -1    0    0  502  501  0.00000000000E+00  0.00000000000E+00  0.23916177012E+03  0.23916177012E+03  0.00000000000E+00 0.  1.
         21   -1    0    0  501  502 -0.00000000000E+00 -0.00000000000E+00 -0.20429761563E+03  0.20429761563E+03  0.00000000000E+00 0.  1.
      99926    2    1    2    0    0  0.00000000000E+00  0.17763568394E-14  0.34864154483E+02  0.44345938575E+03  0.44208677603E+03 0.  0.
      99925    2    3    3    0    0 -0.45453280426E+02  0.90790431039E+01 -0.67310595614E+02  0.27542481376E+03  0.26302030725E+03 0.  0.
         25    1    3    3    0    0  0.45453280426E+02 -0.90790431039E+01  0.10217475010E+03  0.16803457199E+03  0.12509000000E+03 0.  0.
         25    1    4    4    0    0  0.14525887034E+02  0.86293094348E+01 -0.14793295449E+02  0.12708979529E+03  0.12509000000E+03 0.  0.
         25    1    4    4    0    0 -0.59979167459E+02  0.44973366908E+00 -0.52517300165E+02  0.14833501848E+03  0.12509000000E+03 0.  0.
<mgrwt>
<rscale>  2 0.44208678E+03</rscale>
<asrwt>0</asrwt>
<pdfrwt beam="1">  1       21 0.35170849E-01 0.44208678E+03</pdfrwt>
<pdfrwt beam="2">  1       21 0.30043767E-01 0.44208678E+03</pdfrwt>
<totfact> 0.77036037E+04</totfact>
</mgrwt>
</event>
<event>
 7    0  0.4788920E-002  0.4548183E+03  0.7546771E-02  0.1026295E+00
         21   -1    0    0  502  501  0.00000000000E+00  0.00000000000E+00  0.23772354785E+04  0.23772354785E+04  0.00000000000E+00 0.  1.
         21   -1    0    0  501  502 -0.00000000000E+00 -0.00000000000E+00 -0.21754225410E+02  0.21754225410E+02  0.00000000000E+00 0.  1.
      99926    2    1    2    0    0  0.71054273576E-14  0.00000000000E+00  0.23554812531E+04  0.23989897039E+04  0.45481827779E+03 0.  0.
      99925    2    3    3    0    0  0.40199289376E+02  0.67379366393E+02  0.10531829139E+04  0.10883469478E+04  0.26296172097E+03 0.  0.
         25    1    4    4    0    0 -0.53719806675E+01  0.64085211858E+02  0.50523213480E+03  0.52444522182E+03  0.12509000000E+03 0.  0.
         25    1    4    4    0    0  0.45571270044E+02  0.32941545355E+01  0.54795077915E+03  0.56390172599E+03  0.12509000000E+03 0.  0.
         25    1    3    3    0    0 -0.40199289376E+02 -0.67379366393E+02  0.13022983392E+04  0.13106427561E+04  0.12509000000E+03 0.  0.
<mgrwt>
<rscale>  2 0.45481828E+03</rscale>
<asrwt>0</asrwt>
<pdfrwt beam="1">  1       21 0.34959328E+00 0.45481828E+03</pdfrwt>
<pdfrwt beam="2">  1       21 0.31991524E-02 0.45481828E+03</pdfrwt>
<totfact> 0.82328265E+03</totfact>
</mgrwt>
</event>
<event>
 7    0  0.4788920E-002  0.4544256E+03  0.7546771E-02  0.1026410E+00
         21   -1    0    0  502  501  0.00000000000E+00  0.00000000000E+00  0.17460181801E+03  0.17460181801E+03  0.00000000000E+00 0.  1.
         21   -1    0    0  501  502 -0.00000000000E+00 -0.00000000000E+00 -0.29567648098E+03  0.29567648098E+03  0.00000000000E+00 0.  1.
      99926    2    1    2    0    0  0.17763568394E-14  0.00000000000E+00 -0.12107466296E+03  0.47027829899E+03  0.45442557640E+03 0.  0.
      99925    2    3    3    0    0  0.12315057836E+02  0.89477883313E+00  0.39757891173E+02  0.26615314167E+03  0.26287705041E+03 0.  0.
         25    1    4    4    0    0 -0.27796792374E+02  0.74186757279E+01  0.40602835043E+02  0.13462465127E+03  0.12509000000E+03 0.  0.
         25    1    3    3    0    0 -0.12315057836E+02 -0.89477883313E+00 -0.16083255414E+03  0.20412515732E+03  0.12509000000E+03 0.  0.
         25    1    4    4    0    0  0.40111850210E+02 -0.65238968948E+01 -0.84494386989E+00  0.13152849040E+03  0.12509000000E+03 0.  0.
<mgrwt>
<rscale>  2 0.45442558E+03</rscale>
<asrwt>0</asrwt>
<pdfrwt beam="1">  1       21 0.25676738E-01 0.45442558E+03</pdfrwt>
<pdfrwt beam="2">  1       21 0.43481835E-01 0.45442558E+03</pdfrwt>
<totfact> 0.67723108E+04</totfact>
</mgrwt>
</event>
<event>
 7    0  0.4788920E-002  0.4410667E+03  0.7546771E-02  0.1030420E+00
         21   -1    0    0  502  501  0.00000000000E+00  0.00000000000E+00  0.37100204857E+03  0.37100204857E+03  0.00000000000E+00 0. -1.
         21   -1    0    0  501  502 -0.00000000000E+00 -0.00000000000E+00 -0.13109080506E+03  0.13109080506E+03  0.00000000000E+00 0. -1.
      99926    2    1    2    0    0  0.00000000000E+00  0.71054273576E-14  0.23991124352E+03  0.50209285363E+03  0.44106669439E+03 0.  0.
      99925    2    3    3    0    0  0.56402875707E+02  0.38811064714E+02  0.69210110370E+02  0.27966540908E+03  0.26217383264E+03 0.  0.
         25    1    4    4    0    0 -0.59678176447E+01  0.20746978382E+01  0.45227336632E+02  0.13316508288E+03  0.12509000000E+03 0.  0.
         25    1    3    3    0    0 -0.56402875707E+02 -0.38811064714E+02  0.17070113315E+03  0.22242744455E+03  0.12509000000E+03 0.  0.
         25    1    4    4    0    0  0.62370693352E+02  0.36736366876E+02  0.23982773738E+02  0.14650032620E+03  0.12509000000E+03 0.  0.
<mgrwt>
<rscale>  2 0.44106669E+03</rscale>
<asrwt>0</asrwt>
<pdfrwt beam="1">  1       21 0.54559124E-01 0.44106669E+03</pdfrwt>
<pdfrwt beam="2">  1       21 0.19278060E-01 0.44106669E+03</pdfrwt>
<totfact> 0.72852525E+04</totfact>
</mgrwt>
</event>
<event>
 7    0  0.4788920E-002  0.4552265E+03  0.7546771E-02  0.1026175E+00
         21   -1    0    0  502  501  0.00000000000E+00  0.00000000000E+00  0.22877923360E+02  0.22877923360E+02  0.00000000000E+00 0.  1.
         21   -1    0    0  501  502 -0.00000000000E+00 -0.00000000000E+00 -0.22645321615E+04  0.22645321615E+04  0.00000000000E+00 0.  1.
      99926    2    1    2    0    0  0.00000000000E+00  0.00000000000E+00 -0.22416542381E+04  0.22874100848E+04  0.45522650730E+03 0.  0.
      99925    2    3    3    0    0  0.99349738087E+02  0.43749440156E+02 -0.12440350810E+04  0.12761357033E+04  0.26289668417E+03 0.  0.
         25    1    4    4    0    0  0.61789149274E+02  0.44747277780E+02 -0.79929786231E+03  0.81261602164E+03  0.12509000000E+03 0.  0.
         25    1    3    3    0    0 -0.99349738087E+02 -0.43749440156E+02 -0.99761915710E+03  0.10112743815E+04  0.12509000000E+03 0.  0.
         25    1    4    4    0    0  0.37560588813E+02 -0.99783762375E+00 -0.44473721871E+03  0.46351968170E+03  0.12509000000E+03 0.  0.
<mgrwt>
<rscale>  2 0.45522651E+03</rscale>
<asrwt>0</asrwt>
<pdfrwt beam="1">  1       21 0.33644028E-02 0.45522651E+03</pdfrwt>
<pdfrwt beam="2">  1       21 0.33301921E+00 0.45522651E+03</pdfrwt>
<totfact> 0.95423985E+03</totfact>
</mgrwt>
</event>
<event>
 7    0  0.4788920E-002  0.4455017E+03  0.7546771E-02  0.1029072E+00
         21   -1    0    0  502  501  0.00000000000E+00  0.00000000000E+00  0.14324138601E+03  0.14324138601E+03  0.00000000000E+00 0. -1.
         21   -1    0    0  501  502 -0.00000000000E+00 -0.00000000000E+00 -0.34639384253E+03  0.34639384253E+03  0.00000000000E+00 0. -1.
      99926    2    1    2    0    0  0.00000000000E+00  0.17763568394E-14 -0.20315245652E+03  0.48963522854E+03  0.44550166827E+03 0.  0.
      99925    2    3    3    0    0 -0.10177840647E+03 -0.12831050429E+02 -0.10960998223E+03  0.30276312662E+03  0.26292143838E+03 0.  0.
         25    1    4    4    0    0 -0.44330709382E+02  0.33500530410E+02 -0.48947362719E+02  0.14536454089E+03  0.12509000000E+03 0.  0.
         25    1    4    4    0    0 -0.57447697083E+02 -0.46331580839E+02 -0.60662619513E+02  0.15739858573E+03  0.12509000000E+03 0.  0.
         25    1    3    3    0    0  0.10177840647E+03  0.12831050429E+02 -0.93542474293E+02  0.18687210192E+03  0.12509000000E+03 0.  0.
<mgrwt>
<rscale>  2 0.44550167E+03</rscale>
<asrwt>0</asrwt>
<pdfrwt beam="1">  1       21 0.21064910E-01 0.44550167E+03</pdfrwt>
<pdfrwt beam="2">  1       21 0.50940270E-01 0.44550167E+03</pdfrwt>
<totfact> 0.71226150E+04</totfact>
</mgrwt>
</event>
<event>
 7    0  0.4788920E-002  0.4542642E+03  0.7546771E-02  0.1026458E+00
         21   -1    0    0  502  501  0.00000000000E+00  0.00000000000E+00  0.70480892385E+02  0.70480892385E+02  0.00000000000E+00 0.  1.
         21   -1    0    0  501  502 -0.00000000000E+00 -0.00000000000E+00 -0.73195709686E+03  0.73195709686E+03  0.00000000000E+00 0.  1.
      99926    2    1    2    0    0  0.00000000000E+00  0.00000000000E+00 -0.66147620448E+03  0.80243798925E+03  0.45426419350E+03 0.  0.
      99925    2    3    3    0    0  0.12643020563E+02  0.10839490908E+03 -0.46487868259E+03  0.54513001037E+03  0.26295481815E+03 0.  0.
         25    1    3    3    0    0 -0.12643020563E+02 -0.10839490908E+03 -0.19659752189E+03  0.25730797888E+03  0.12509000000E+03 0.  0.
         25    1    4    4    0    0  0.12415838643E+02  0.13478207369E+02 -0.18219120789E+03  0.22175878665E+03  0.12509000000E+03 0.  0.
         25    1    4    4    0    0  0.22718192063E+00  0.94916701715E+02 -0.28268747470E+03  0.32337122372E+03  0.12509000000E+03 0.  0.
<mgrwt>
<rscale>  2 0.45426419E+03</rscale>
<asrwt>0</asrwt>
<pdfrwt beam="1">  1       21 0.10364837E-01 0.45426419E+03</pdfrwt>
<pdfrwt beam="2">  1       21 0.10764075E+00 0.45426419E+03</pdfrwt>
<totfact> 0.47923235E+04</totfact>
</mgrwt>
</event>
<event>
 7    0  0.4788920E-002  0.4487808E+03  0.7546771E-02  0.1028086E+00
         21   -1    0    0  502  501  0.00000000000E+00  0.00000000000E+00  0.71807553393E+02  0.71807553393E+02  0.00000000000E+00 0.  1.
         21   -1    0    0  501  502 -0.00000000000E+00 -0.00000000000E+00 -0.70119437079E+03  0.70119437079E+03  0.00000000000E+00 0.  1.
      99926    2    1    2    0    0  0.00000000000E+00  0.00000000000E+00 -0.62938681740E+03  0.77300192418E+03  0.44878080271E+03 0.  0.
      99925    2    3    3    0    0 -0.44786924362E+02 -0.97252000704E+02 -0.38729085850E+03  0.48021910083E+03  0.26296835455E+03 0.  0.
         25    1    4    4    0    0 -0.36803714819E+02 -0.19205843338E+02 -0.22539464307E+03  0.26110080633E+03  0.12509000000E+03 0.  0.
         25    1    3    3    0    0  0.44786924362E+02  0.97252000704E+02 -0.24209595890E+03  0.29278282335E+03  0.12509000000E+03 0.  0.
         25    1    4    4    0    0 -0.79832095423E+01 -0.78046157366E+02 -0.16189621543E+03  0.21911829450E+03  0.12509000000E+03 0.  0.
<mgrwt>
<rscale>  2 0.44878080E+03</rscale>
<asrwt>0</asrwt>
<pdfrwt beam="1">  1       21 0.10559935E-01 0.44878080E+03</pdfrwt>
<pdfrwt beam="2">  1       21 0.10311681E+00 0.44878080E+03</pdfrwt>
<totfact> 0.51570352E+04</totfact>
</mgrwt>
</event>
<event>
 7    0  0.4788920E-002  0.4521265E+03  0.7546771E-02  0.1027090E+00
         21   -1    0    0  502  501  0.00000000000E+00  0.00000000000E+00  0.19908011428E+03  0.19908011428E+03  0.00000000000E+00 0.  1.
         21   -1    0    0  501  502 -0.00000000000E+00 -0.00000000000E+00 -0.25670365985E+03  0.25670365985E+03  0.00000000000E+00 0.  1.
      99926    2    1    2    0    0  0.00000000000E+00  0.00000000000E+00 -0.57623545568E+02  0.45578377414E+03  0.45212650416E+03 0.  0.
      99925    2    3    3    0    0  0.88619548808E+02 -0.65090512517E+02 -0.49301640886E+02  0.28902957944E+03  0.26271133731E+03 0.  0.
         25    1    4    4    0    0  0.53151650782E+02 -0.58458378123E+02  0.48365240107E+01  0.14803168586E+03  0.12509000000E+03 0.  0.
         25    1    3    3    0    0 -0.88619548808E+02  0.65090512517E+02 -0.83219046820E+01  0.16675419469E+03  0.12509000000E+03 0.  0.
         25    1    4    4    0    0  0.35467898026E+02 -0.66321343938E+01 -0.54138164897E+02  0.14099789358E+03  0.12509000000E+03 0.  0.
<mgrwt>
<rscale>  2 0.45212650E+03</rscale>
<asrwt>0</asrwt>
<pdfrwt beam="1">  1       21 0.29276488E-01 0.45212650E+03</pdfrwt>
<pdfrwt beam="2">  1       21 0.37750538E-01 0.45212650E+03</pdfrwt>
<totfact> 0.70081156E+04</totfact>
</mgrwt>
</event>
<event>
 7    0  0.4788920E-002  0.4394649E+03  0.7546771E-02  0.1030911E+00
         21   -1    0    0  502  501  0.00000000000E+00  0.00000000000E+00  0.53125169083E+03  0.53125169083E+03  0.00000000000E+00 0. -1.
         21   -1    0    0  501  502 -0.00000000000E+00 -0.00000000000E+00 -0.90884129543E+02  0.90884129543E+02  0.00000000000E+00 0. -1.
      99926    2    1    2    0    0  0.00000000000E+00  0.00000000000E+00  0.44036756129E+03  0.62213582037E+03  0.43946489047E+03 0.  0.
      99925    2    3    3    0    0  0.50862979669E+02 -0.76106641932E+02  0.23220525630E+03  0.36260101160E+03  0.26302271558E+03 0.  0.
         25    1    4    4    0    0  0.38638158559E+02 -0.48130782110E+02  0.16909903243E+03  0.21920645600E+03  0.12509000000E+03 0.  0.
         25    1    4    4    0    0  0.12224821110E+02 -0.27975859822E+02  0.63106223863E+02  0.14339455559E+03  0.12509000000E+03 0.  0.
         25    1    3    3    0    0 -0.50862979669E+02  0.76106641932E+02  0.20816230499E+03  0.25953480878E+03  0.12509000000E+03 0.  0.
<mgrwt>
<rscale>  2 0.43946489E+03</rscale>
<asrwt>0</asrwt>
<pdfrwt beam="1">  1       21 0.78125248E-01 0.43946489E+03</pdfrwt>
<pdfrwt beam="2">  1       21 0.13365313E-01 0.43946489E+03</pdfrwt>
<totfact> 0.64942298E+04</totfact>
</mgrwt>
</event>
<event>
 7    0  0.4788920E-002  0.4520173E+03  0.7546771E-02  0.1027122E+00
         21   -1    0    0  502  501  0.00000000000E+00  0.00000000000E+00  0.13499510786E+03  0.13499510786E+03  0.00000000000E+00 0. -1.
         21   -1    0    0  501  502 -0.00000000000E+00 -0.00000000000E+00 -0.37838340743E+03  0.37838340743E+03  0.00000000000E+00 0. -1.
      99926    2    1    2    0    0  0.00000000000E+00 -0.71054273576E-14 -0.24338829957E+03  0.51337851529E+03  0.45201729568E+03 0.  0.
      99925    2    3    3    0    0 -0.14442869412E+02 -0.46586628795E+02 -0.26610533896E+03  0.37720773120E+03  0.26285872745E+03 0.  0.
         25    1    3    3    0    0  0.14442869412E+02  0.46586628795E+02  0.22717039389E+02  0.13617078408E+03  0.12509000000E+03 0.  0.
         25    1    4    4    0    0 -0.25082948416E+02 -0.10590022765E+02 -0.84018315167E+02  0.15312703310E+03  0.12509000000E+03 0.  0.
         25    1    4    4    0    0  0.10640079004E+02 -0.35996606030E+02 -0.18208702380E+03  0.22408069810E+03  0.12509000000E+03 0.  0.
<mgrwt>
<rscale>  2 0.45201730E+03</rscale>
<asrwt>0</asrwt>
<pdfrwt beam="1">  1       21 0.19852222E-01 0.45201730E+03</pdfrwt>
<pdfrwt beam="2">  1       21 0.55644619E-01 0.45201730E+03</pdfrwt>
<totfact> 0.65886272E+04</totfact>
</mgrwt>
</event>
<event>
 7    0  0.4788920E-002  0.4441651E+03  0.7546771E-02  0.1029476E+00
         21   -1    0    0  502  501  0.00000000000E+00  0.00000000000E+00  0.23746072362E+03  0.23746072362E+03  0.00000000000E+00 0. -1.
         21   -1    0    0  501  502 -0.00000000000E+00 -0.00000000000E+00 -0.20770029705E+03  0.20770029705E+03  0.00000000000E+00 0. -1.
      99926    2    1    2    0    0  0.00000000000E+00  0.00000000000E+00  0.29760426577E+02  0.44516102067E+03  0.44416511719E+03 0.  0.
      99925    2    3    3    0    0 -0.34912768619E+02  0.79438696599E+02 -0.35877436454E+02  0.27937427484E+03  0.26312238039E+03 0.  0.
         25    1    4    4    0    0 -0.12975448468E+02  0.26946549511E+02  0.21602970622E+02  0.13041731186E+03  0.12509000000E+03 0.  0.
         25    1    3    3    0    0  0.34912768619E+02 -0.79438696599E+02  0.65637863030E+02  0.16578674583E+03  0.12509000000E+03 0.  0.
         25    1    4    4    0    0 -0.21937320151E+02  0.52492147088E+02 -0.57480407075E+02  0.14895696298E+03  0.12509000000E+03 0.  0.
<mgrwt>
<rscale>  2 0.44416512E+03</rscale>
<asrwt>0</asrwt>
<pdfrwt beam="1">  1       21 0.34920695E-01 0.44416512E+03</pdfrwt>
<pdfrwt beam="2">  1       21 0.30544161E-01 0.44416512E+03</pdfrwt>
<totfact> 0.75599910E+04</totfact>
</mgrwt>
</event>
<event>
 7    0  0.4788920E-002  0.4596421E+03  0.7546771E-02  0.1024885E+00
         21   -1    0    0  502  501  0.00000000000E+00  0.00000000000E+00  0.24761111451E+03  0.24761111451E+03  0.00000000000E+00 0.  1.
         21   -1    0    0  501  502 -0.00000000000E+00 -0.00000000000E+00 -0.21330912468E+03  0.21330912468E+03  0.00000000000E+00 0.  1.
      99926    2    1    2    0    0  0.00000000000E+00  0.88817841970E-15  0.34301989831E+02  0.46092023919E+03  0.45964207856E+03 0.  0.
      99925    2    3    3    0    0  0.10810312652E+03  0.53637572643E+01  0.67211017875E+02  0.29226209950E+03  0.26302995651E+03 0.  0.
         25    1    4    4    0    0  0.40891167045E+02 -0.31647017468E+02  0.50906382243E+02  0.14461185674E+03  0.12509000000E+03 0.  0.
         25    1    4    4    0    0  0.67211959479E+02  0.37010774732E+02  0.16304635632E+02  0.14765024276E+03  0.12509000000E+03 0.  0.
         25    1    3    3    0    0 -0.10810312652E+03 -0.53637572643E+01 -0.32909028044E+02  0.16865813969E+03  0.12509000000E+03 0.  0.
<mgrwt>
<rscale>  2 0.45964208E+03</rscale>
<asrwt>0</asrwt>
<pdfrwt beam="1">  1       21 0.36413399E-01 0.45964208E+03</pdfrwt>
<pdfrwt beam="2">  1       21 0.31368989E-01 0.45964208E+03</pdfrwt>
<totfact> 0.65648874E+04</totfact>
</mgrwt>
</event>
<event>
 7    0  0.4788920E-002  0.4184968E+03  0.7546771E-02  0.1037557E+00
         21   -1    0    0  502  501  0.00000000000E+00  0.00000000000E+00  0.12465462583E+03  0.12465462583E+03  0.00000000000E+00 0.  1.
         21   -1    0    0  501  502 -0.00000000000E+00 -0.00000000000E+00 -0.35124961270E+03  0.35124961270E+03  0.00000000000E+00 0.  1.
      99926    2    1    2    0    0  0.00000000000E+00  0.00000000000E+00 -0.22659498687E+03  0.47590423853E+03  0.41849678156E+03 0.  0.
      99925    2    3    3    0    0 -0.59074045197E+02 -0.18991935653E+02 -0.19375277226E+03  0.33245893329E+03  0.26294175996E+03 0.  0.
         25    1    4    4    0    0 -0.62524356375E+02 -0.14700312585E+02 -0.13192941476E+03  0.19281668213E+03  0.12509000000E+03 0.  0.
         25    1    3    3    0    0  0.59074045197E+02  0.18991935653E+02 -0.32842214609E+02  0.14344530524E+03  0.12509000000E+03 0.  0.
         25    1    4    4    0    0  0.34503111776E+01 -0.42916230676E+01 -0.61823357506E+02  0.13964225116E+03  0.12509000000E+03 0.  0.
<mgrwt>
<rscale>  2 0.41849678E+03</rscale>
<asrwt>0</asrwt>
<pdfrwt beam="1">  1       21 0.18331563E-01 0.41849678E+03</pdfrwt>
<pdfrwt beam="2">  1       21 0.51654354E-01 0.41849678E+03</pdfrwt>
<totfact> 0.90516114E+04</totfact>
</mgrwt>
</event>
<event>
 7    0  0.4788920E-002  0.4516237E+03  0.7546771E-02  0.1027239E+00
         21   -1    0    0  502  501  0.00000000000E+00  0.00000000000E+00  0.20278207558E+03  0.20278207558E+03  0.00000000000E+00 0. -1.
         21   -1    0    0  501  502 -0.00000000000E+00 -0.00000000000E+00 -0.25145706268E+03  0.25145706268E+03  0.00000000000E+00 0. -1.
      99926    2    1    2    0    0  0.00000000000E+00  0.71054273576E-14 -0.48674987103E+02  0.45423913826E+03  0.45162367117E+03 0.  0.
      99925    2    3    3    0    0 -0.70711877462E+02 -0.58477273207E+02 -0.91729452101E+02  0.29323927443E+03  0.26297379830E+03 0.  0.
         25    1    3    3    0    0  0.70711877462E+02  0.58477273207E+02  0.43054464998E+02  0.16099986383E+03  0.12509000000E+03 0.  0.
         25    1    4    4    0    0 -0.97641197343E+01 -0.90994253735E+01 -0.14560422492E+02  0.12663984989E+03  0.12509000000E+03 0.  0.
         25    1    4    4    0    0 -0.60947757727E+02 -0.49377847833E+02 -0.77169029609E+02  0.16659942455E+03  0.12509000000E+03 0.  0.
<mgrwt>
<rscale>  2 0.45162367E+03</rscale>
<asrwt>0</asrwt>
<pdfrwt beam="1">  1       21 0.29820893E-01 0.45162367E+03</pdfrwt>
<pdfrwt beam="2">  1       21 0.36978980E-01 0.45162367E+03</pdfrwt>
<totfact> 0.70481098E+04</totfact>
</mgrwt>
</event>
<event>
 7    0  0.4788920E-002  0.4490479E+03  0.7546771E-02  0.1028006E+00
         21   -1    0    0  502  501  0.00000000000E+00  0.00000000000E+00  0.37477355295E+02  0.37477355295E+02  0.00000000000E+00 0.  1.
         21   -1    0    0  501  502 -0.00000000000E+00 -0.00000000000E+00 -0.13451059866E+04  0.13451059866E+04  0.00000000000E+00 0.  1.
      99926    2    1    2    0    0  0.00000000000E+00  0.00000000000E+00 -0.13076286313E+04  0.13825833419E+04  0.44904794831E+03 0.  0.
      99925    2    3    3    0    0  0.63988591708E+02  0.83154580089E+02 -0.89938902286E+03  0.94290583501E+03  0.26298588402E+03 0.  0.
         25    1    3    3    0    0 -0.63988591708E+02 -0.83154580089E+02 -0.40823960845E+03  0.43967750689E+03  0.12509000000E+03 0.  0.
         25    1    4    4    0    0  0.38356517237E+02  0.31070125761E+02 -0.31571186804E+03  0.34315895275E+03  0.12509000000E+03 0.  0.
         25    1    4    4    0    0  0.25632074471E+02  0.52084454327E+02 -0.58367715482E+03  0.59974688226E+03  0.12509000000E+03 0.  0.
<mgrwt>
<rscale>  2 0.44904795E+03</rscale>
<asrwt>0</asrwt>
<pdfrwt beam="1">  1       21 0.55113768E-02 0.44904795E+03</pdfrwt>
<pdfrwt beam="2">  1       21 0.19780967E+00 0.44904795E+03</pdfrwt>
<totfact> 0.28076344E+04</totfact>
</mgrwt>
</event>
<event>
 7    0  0.4788920E-002  0.4572458E+03  0.7546771E-02  0.1025583E+00
         21   -1    0    0  502  501  0.00000000000E+00  0.00000000000E+00  0.27224867913E+02  0.27224867913E+02  0.00000000000E+00 0.  1.
         21   -1    0    0  501  502 -0.00000000000E+00 -0.00000000000E+00 -0.19198781828E+04  0.19198781828E+04  0.00000000000E+00 0.  1.
      99926    2    1    2    0    0  0.00000000000E+00  0.00000000000E+00 -0.18926533149E+04  0.19471030507E+04  0.45724579795E+03 0.  0.
      99925    2    3    3    0    0 -0.27626207401E+02 -0.90618424724E+02 -0.90942562610E+03  0.95143287323E+03  0.26304873430E+03 0.  0.
         25    1    4    4    0    0  0.19423860878E+02 -0.69066202775E+02 -0.46482586091E+03  0.48668060965E+03  0.12509000000E+03 0.  0.
         25    1    4    4    0    0 -0.47050068279E+02 -0.21552221949E+02 -0.44459976519E+03  0.46475226358E+03  0.12509000000E+03 0.  0.
         25    1    3    3    0    0  0.27626207401E+02  0.90618424724E+02 -0.98322768880E+03  0.99567017750E+03  0.12509000000E+03 0.  0.
<mgrwt>
<rscale>  2 0.45724580E+03</rscale>
<asrwt>0</asrwt>
<pdfrwt beam="1">  1       21 0.40036543E-02 0.45724580E+03</pdfrwt>
<pdfrwt beam="2">  1       21 0.28233522E+00 0.45724580E+03</pdfrwt>
<totfact> 0.14341266E+04</totfact>
</mgrwt>
</event>
<event>
 7    0  0.4788920E-002  0.4443897E+03  0.7546771E-02  0.1029408E+00
         21   -1    0    0  502  501  0.00000000000E+00  0.00000000000E+00  0.32774174194E+03  0.32774174194E+03  0.00000000000E+00 0.  1.
         21   -1    0    0  501  502 -0.00000000000E+00 -0.00000000000E+00 -0.15063858421E+03  0.15063858421E+03  0.00000000000E+00 0.  1.
      99926    2    1    2    0    0  0.00000000000E+00 -0.35527136788E-14  0.17710315772E+03  0.47838032615E+03  0.44438970282E+03 0.  0.
      99925    2    3    3    0    0 -0.71589669027E+02  0.31257985594E+02  0.40850572645E+02  0.27759582123E+03  0.26322714204E+03 0.  0.
         25    1    4    4    0    0 -0.18409871021E+02 -0.21141357989E+01  0.52989408493E+02  0.13710863734E+03  0.12509000000E+03 0.  0.
         25    1    3    3    0    0  0.71589669027E+02 -0.31257985594E+02  0.13625258508E+03  0.20078450492E+03  0.12509000000E+03 0.  0.
         25    1    4    4    0    0 -0.53179798006E+02  0.33372121393E+02 -0.12138835848E+02  0.14048718389E+03  0.12509000000E+03 0.  0.
<mgrwt>
<rscale>  2 0.44438970E+03</rscale>
<asrwt>0</asrwt>
<pdfrwt beam="1">  1       21 0.48197315E-01 0.44438970E+03</pdfrwt>
<pdfrwt beam="2">  1       21 0.22152733E-01 0.44438970E+03</pdfrwt>
<totfact> 0.72755767E+04</totfact>
</mgrwt>
</event>
<event>
 7    0  0.4788920E-002  0.4549760E+03  0.7546771E-02  0.1026248E+00
         21   -1    0    0  502  501  0.00000000000E+00  0.00000000000E+00  0.74175819448E+02  0.74175819448E+02  0.00000000000E+00 0.  1.
         21   -1    0    0  501  502 -0.00000000000E+00 -0.00000000000E+00 -0.69767743206E+03  0.69767743206E+03  0.00000000000E+00 0.  1.
      99926    2    1    2    0    0  0.00000000000E+00  0.00000000000E+00 -0.62350161261E+03  0.77185325151E+03  0.45497602237E+03 0.  0.
      99925    2    3    3    0    0  0.38495118903E+02 -0.35299750250E+02 -0.22419270493E+03  0.35016253736E+03  0.26386262918E+03 0.  0.
         25    1    4    4    0    0  0.43604020873E+02 -0.46431980923E+01 -0.72430450479E+02  0.15105147527E+03  0.12509000000E+03 0.  0.
         25    1    4    4    0    0 -0.51089019700E+01 -0.30656552157E+02 -0.15176225445E+03  0.19911106209E+03  0.12509000000E+03 0.  0.
         25    1    3    3    0    0 -0.38495118903E+02  0.35299750250E+02 -0.39930890768E+03  0.42169071415E+03  0.12509000000E+03 0.  0.
<mgrwt>
<rscale>  2 0.45497602E+03</rscale>
<asrwt>0</asrwt>
<pdfrwt beam="1">  1       21 0.10908209E-01 0.45497602E+03</pdfrwt>
<pdfrwt beam="2">  1       21 0.10259962E+00 0.45497602E+03</pdfrwt>
<totfact> 0.49165600E+04</totfact>
</mgrwt>
</event>
<event>
 7    0  0.4788920E-002  0.4541793E+03  0.7546771E-02  0.1026483E+00
         21   -1    0    0  502  501  0.00000000000E+00  0.00000000000E+00  0.13017411934E+03  0.13017411934E+03  0.00000000000E+00 0. -1.
         21   -1    0    0  501  502 -0.00000000000E+00 -0.00000000000E+00 -0.39615943389E+03  0.39615943389E+03  0.00000000000E+00 0. -1.
      99926    2    1    2    0    0 -0.35527136788E-14  0.71054273576E-14 -0.26598531455E+03  0.52633355323E+03  0.45417928366E+03 0.  0.
      99925    2    3    3    0    0 -0.28212363582E+02  0.51261662934E+02 -0.27865437412E+03  0.38765511685E+03  0.26306754619E+03 0.  0.
         25    1    3    3    0    0  0.28212363582E+02 -0.51261662934E+02  0.12669059575E+02  0.13867843638E+03  0.12509000000E+03 0.  0.
         25    1    4    4    0    0 -0.36897476990E+02 -0.35261938793E+01 -0.11139397822E+03  0.17155169581E+03  0.12509000000E+03 0.  0.
         25    1    4    4    0    0  0.86851134075E+01  0.54787856814E+02 -0.16726039591E+03  0.21610342105E+03  0.12509000000E+03 0.  0.
<mgrwt>
<rscale>  2 0.45417928E+03</rscale>
<asrwt>0</asrwt>
<pdfrwt beam="1">  1       21 0.19143253E-01 0.45417928E+03</pdfrwt>
<pdfrwt beam="2">  1       21 0.58258740E-01 0.45417928E+03</pdfrwt>
<totfact> 0.63869919E+04</totfact>
</mgrwt>
</event>
<event>
 7    0  0.5226043E-002  0.4268831E+03  0.7546771E-02  0.1034849E+00
         21   -1    0    0  502  501  0.00000000000E+00  0.00000000000E+00  0.12665891230E+03  0.12665891230E+03  0.00000000000E+00 0. -1.
         21   -1    0    0  501  502 -0.00000000000E+00 -0.00000000000E+00 -0.35968488994E+03  0.35968488994E+03  0.00000000000E+00 0. -1.
      99926    2    1    2    0    0  0.00000000000E+00  0.00000000000E+00 -0.23302597764E+03  0.48634380224E+03  0.42688310779E+03 0.  0.
      99925    2    3    3    0    0 -0.69268401690E+01 -0.82836538659E+02 -0.16134922298E+03  0.31992583893E+03  0.26345606353E+03 0.  0.
         25    1    4    4    0    0 -0.37622210969E+01 -0.78437399799E+02 -0.11193608772E+03  0.18532073772E+03  0.12509000000E+03 0.  0.
         25    1    4    4    0    0 -0.31646190721E+01 -0.43991388608E+01 -0.49413135260E+02  0.13460510121E+03  0.12509000000E+03 0.  0.
         25    1    3    3    0    0  0.69268401690E+01  0.82836538659E+02 -0.71676754662E+02  0.16641796331E+03  0.12509000000E+03 0.  0.
<mgrwt>
<rscale>  2 0.42688311E+03</rscale>
<asrwt>0</asrwt>
<pdfrwt beam="1">  1       21 0.18626311E-01 0.42688311E+03</pdfrwt>
<pdfrwt beam="2">  1       21 0.52894835E-01 0.42688311E+03</pdfrwt>
<totfact> 0.83344803E+04</totfact>
</mgrwt>
</event>
<event>
 7    0  0.4788920E-002  0.4548970E+03  0.7546771E-02  0.1026272E+00
         21   -1    0    0  502  501  0.00000000000E+00  0.00000000000E+00  0.45633901506E+02  0.45633901506E+02  0.00000000000E+00 0. -1.
         21   -1    0    0  501  502 -0.00000000000E+00 -0.00000000000E+00 -0.11336489183E+04  0.11336489183E+04  0.00000000000E+00 0. -1.
      99926    2    1    2    0    0  0.71054273576E-14 -0.71054273576E-14 -0.10880150168E+04  0.11792828198E+04  0.45489701287E+03 0.  0.
      99925    2    3    3    0    0 -0.47892470051E+02  0.33850851541E+02 -0.93536688307E+03  0.97339807129E+03  0.26296963781E+03 0.  0.
         25    1    3    3    0    0  0.47892470051E+02 -0.33850851541E+02 -0.15264813369E+03  0.20588474848E+03  0.12509000000E+03 0.  0.
         25    1    4    4    0    0 -0.28912731626E+02  0.52202261231E+02 -0.55838005226E+03  0.57532322480E+03  0.12509000000E+03 0.  0.
         25    1    4    4    0    0 -0.18979738425E+02 -0.18351409689E+02 -0.37698683080E+03  0.39807484649E+03  0.12509000000E+03 0.  0.
<mgrwt>
<rscale>  2 0.45489701E+03</rscale>
<asrwt>0</asrwt>
<pdfrwt beam="1">  1       21 0.67108682E-02 0.45489701E+03</pdfrwt>
<pdfrwt beam="2">  1       21 0.16671307E+00 0.45489701E+03</pdfrwt>
<totfact> 0.32845920E+04</totfact>
</mgrwt>
</event>
<event>
 7    0  0.4788920E-002  0.4555863E+03  0.7546771E-02  0.1026069E+00
         21   -1    0    0  502  501  0.00000000000E+00  0.00000000000E+00  0.20327123269E+04  0.20327123269E+04  0.00000000000E+00 0.  1.
         21   -1    0    0  501  502 -0.00000000000E+00 -0.00000000000E+00 -0.25527330506E+02  0.25527330506E+02  0.00000000000E+00 0.  1.
      99926    2    1    2    0    0  0.00000000000E+00 -0.35527136788E-14  0.20071849964E+04  0.20582396574E+04  0.45558630090E+03 0.  0.
      99925    2    3    3    0    0 -0.11182638078E+03 -0.19306911360E+02  0.12327532122E+04  0.12656048154E+04  0.26305355034E+03 0.  0.
         25    1    3    3    0    0  0.11182638078E+03  0.19306911360E+02  0.77443178422E+03  0.79263484201E+03  0.12509000000E+03 0.  0.
         25    1    4    4    0    0 -0.44883193003E+02 -0.38898898287E+02  0.49110921523E+03  0.51025816474E+03  0.12509000000E+03 0.  0.
         25    1    4    4    0    0 -0.66943187782E+02  0.19591986927E+02  0.74164399694E+03  0.75534665064E+03  0.12509000000E+03 0.  0.
<mgrwt>
<rscale>  2 0.45558630E+03</rscale>
<asrwt>0</asrwt>
<pdfrwt beam="1">  1       21 0.29892817E+00 0.45558630E+03</pdfrwt>
<pdfrwt beam="2">  1       21 0.37540206E-02 0.45558630E+03</pdfrwt>
<totfact> 0.12724132E+04</totfact>
</mgrwt>
</event>
<event>
 7    0  0.4788920E-002  0.4576035E+03  0.7546771E-02  0.1025479E+00
         21   -1    0    0  502  501  0.00000000000E+00  0.00000000000E+00  0.56246995835E+02  0.56246995835E+02  0.00000000000E+00 0. -1.
         21   -1    0    0  501  502 -0.00000000000E+00 -0.00000000000E+00 -0.93072071274E+03  0.93072071274E+03  0.00000000000E+00 0. -1.
      99926    2    1    2    0    0  0.00000000000E+00  0.00000000000E+00 -0.87447371691E+03  0.98696770858E+03  0.45760351421E+03 0.  0.
      99925    2    3    3    0    0  0.36262389550E+02 -0.64159924909E+02 -0.35649139314E+03  0.44902286689E+03  0.26287632976E+03 0.  0.
         25    1    3    3    0    0 -0.36262389550E+02  0.64159924909E+02 -0.51798232377E+03  0.53794484169E+03  0.12509000000E+03 0.  0.
         25    1    4    4    0    0  0.58526139425E+02 -0.38017501297E+02 -0.18266508010E+03  0.23213073684E+03  0.12509000000E+03 0.  0.
         25    1    4    4    0    0 -0.22263749874E+02 -0.26142423612E+02 -0.17382631304E+03  0.21689213005E+03  0.12509000000E+03 0.  0.
<mgrwt>
<rscale>  2 0.45760351E+03</rscale>
<asrwt>0</asrwt>
<pdfrwt beam="1">  1       21 0.82716173E-02 0.45760351E+03</pdfrwt>
<pdfrwt beam="2">  1       21 0.13687069E+00 0.45760351E+03</pdfrwt>
<totfact> 0.38880693E+04</totfact>
</mgrwt>
</event>
<event>
 7    0  0.4788920E-002  0.4523050E+03  0.7546771E-02  0.1027037E+00
         21   -1    0    0  502  501  0.00000000000E+00  0.00000000000E+00  0.24360175179E+03  0.24360175179E+03  0.00000000000E+00 0.  1.
         21   -1    0    0  501  502 -0.00000000000E+00 -0.00000000000E+00 -0.20995315227E+03  0.20995315227E+03  0.00000000000E+00 0.  1.
      99926    2    1    2    0    0 -0.14210854715E-13  0.35527136788E-14  0.33648599522E+02  0.45355490407E+03  0.45230501076E+03 0.  0.
      99925    2    3    3    0    0 -0.10610713563E+03  0.28281193520E+02  0.72501188991E+01  0.28502319187E+03  0.26292034067E+03 0.  0.
         25    1    3    3    0    0  0.10610713563E+03 -0.28281193520E+02  0.26398480623E+02  0.16853171220E+03  0.12509000000E+03 0.  0.
         25    1    4    4    0    0 -0.62938477057E+02  0.31663416643E+02 -0.31729312466E+02  0.14703088525E+03  0.12509000000E+03 0.  0.
         25    1    4    4    0    0 -0.43168658572E+02 -0.33822231228E+01  0.38979431365E+02  0.13799230662E+03  0.12509000000E+03 0.  0.
<mgrwt>
<rscale>  2 0.45230501E+03</rscale>
<asrwt>0</asrwt>
<pdfrwt beam="1">  1       21 0.35823787E-01 0.45230501E+03</pdfrwt>
<pdfrwt beam="2">  1       21 0.30875464E-01 0.45230501E+03</pdfrwt>
<totfact> 0.70148100E+04</totfact>
</mgrwt>
</event>
<event>
 7    0  0.4788920E-002  0.4476916E+03  0.7546771E-02  0.1028413E+00
         21   -1    0    0  502  501  0.00000000000E+00  0.00000000000E+00  0.32367055280E+03  0.32367055280E+03  0.00000000000E+00 0. -1.
         21   -1    0    0  501  502 -0.00000000000E+00 -0.00000000000E+00 -0.15480848975E+03  0.15480848975E+03  0.00000000000E+00 0. -1.
      99926    2    1    2    0    0  0.00000000000E+00  0.00000000000E+00  0.16886206305E+03  0.47847904256E+03  0.44769163252E+03 0.  0.
      99925    2    3    3    0    0  0.37051686968E+02 -0.96762460705E+02  0.13179977822E+03  0.31187495387E+03  0.26298099552E+03 0.  0.
         25    1    4    4    0    0  0.39330085917E+01 -0.83673710390E+02  0.89338315987E+02  0.17505885059E+03  0.12509000000E+03 0.  0.
         25    1    4    4    0    0  0.33118678376E+02 -0.13088750315E+02  0.42461462232E+02  0.13681610328E+03  0.12509000000E+03 0.  0.
         25    1    3    3    0    0 -0.37051686968E+02  0.96762460705E+02  0.37062284835E+02  0.16660408868E+03  0.12509000000E+03 0.  0.
<mgrwt>
<rscale>  2 0.44769163E+03</rscale>
<asrwt>0</asrwt>
<pdfrwt beam="1">  1       21 0.47598611E-01 0.44769163E+03</pdfrwt>
<pdfrwt beam="2">  1       21 0.22765954E-01 0.44769163E+03</pdfrwt>
<totfact> 0.70831866E+04</totfact>
</mgrwt>
</event>
<event>
 7    0  0.4788920E-002  0.4585630E+03  0.7546771E-02  0.1025199E+00
         21   -1    0    0  502  501  0.00000000000E+00  0.00000000000E+00  0.56665101214E+03  0.56665101214E+03  0.00000000000E+00 0.  1.
         21   -1    0    0  501  502 -0.00000000000E+00 -0.00000000000E+00 -0.92773157987E+02  0.92773157987E+02  0.00000000000E+00 0.  1.
      99926    2    1    2    0    0  0.00000000000E+00 -0.14210854715E-13  0.47387785415E+03  0.65942417012E+03  0.45856298966E+03 0.  0.
      99925    2    3    3    0    0 -0.35496776157E+02  0.98719379046E+02  0.22440593949E+03  0.36128111516E+03  0.26298380478E+03 0.  0.
         25    1    4    4    0    0 -0.78320107511E+00  0.28584158086E+02  0.64204543427E+02  0.14348309654E+03  0.12509000000E+03 0.  0.
         25    1    4    4    0    0 -0.34713575081E+02  0.70135220960E+02  0.16020139606E+03  0.21779801862E+03  0.12509000000E+03 0.  0.
         25    1    3    3    0    0  0.35496776157E+02 -0.98719379046E+02  0.24947191466E+03  0.29814305496E+03  0.12509000000E+03 0.  0.
<mgrwt>
<rscale>  2 0.45856299E+03</rscale>
<asrwt>0</asrwt>
<pdfrwt beam="1">  1       21 0.83331029E-01 0.45856299E+03</pdfrwt>
<pdfrwt beam="2">  1       21 0.13643112E-01 0.45856299E+03</pdfrwt>
<totfact> 0.53638384E+04</totfact>
</mgrwt>
</event>
<event>
 7    0  0.4788920E-002  0.4446755E+03  0.7546771E-02  0.1029322E+00
         21   -1    0    0  502  501  0.00000000000E+00  0.00000000000E+00  0.18077929149E+03  0.18077929149E+03  0.00000000000E+00 0. -1.
         21   -1    0    0  501  502 -0.00000000000E+00 -0.00000000000E+00 -0.27344988497E+03  0.27344988497E+03  0.00000000000E+00 0. -1.
      99926    2    1    2    0    0 -0.14210854715E-13 -0.53290705182E-14 -0.92670593485E+02  0.45422917646E+03  0.44467550624E+03 0.  0.
      99925    2    3    3    0    0  0.88232418481E+02  0.85758529675E+01 -0.11284435671E+03  0.29959090905E+03  0.26298737426E+03 0.  0.
         25    1    4    4    0    0  0.32675726628E+02 -0.31896570322E+02 -0.38278336437E+02  0.13855624652E+03  0.12509000000E+03 0.  0.
         25    1    4    4    0    0  0.55556691853E+02  0.40472423289E+02 -0.74566020270E+02  0.16103466253E+03  0.12509000000E+03 0.  0.
         25    1    3    3    0    0 -0.88232418481E+02 -0.85758529675E+01  0.20173763222E+02  0.15463826741E+03  0.12509000000E+03 0.  0.
<mgrwt>
<rscale>  2 0.44467551E+03</rscale>
<asrwt>0</asrwt>
<pdfrwt beam="1">  1       21 0.26585190E-01 0.44467551E+03</pdfrwt>
<pdfrwt beam="2">  1       21 0.40213218E-01 0.44467551E+03</pdfrwt>
<totfact> 0.74547731E+04</totfact>
</mgrwt>
</event>
<event>
 7    0  0.4788920E-002  0.4512566E+03  0.7546771E-02  0.1027348E+00
         21   -1    0    0  502  501  0.00000000000E+00  0.00000000000E+00  0.47030795097E+03  0.47030795097E+03  0.00000000000E+00 0.  1.
         21   -1    0    0  501  502 -0.00000000000E+00 -0.00000000000E+00 -0.10824424923E+03  0.10824424923E+03  0.00000000000E+00 0.  1.
      99926    2    1    2    0    0  0.00000000000E+00  0.00000000000E+00  0.36206370174E+03  0.57855220020E+03  0.45125660576E+03 0.  0.
      99925    2    3    3    0    0  0.77547100975E+02  0.75595300511E+02  0.20675196933E+03  0.35162171601E+03  0.26298907206E+03 0.  0.
         25    1    4    4    0    0  0.14325677011E+01  0.29657544679E+02  0.71771024106E+02  0.14724201237E+03  0.12509000000E+03 0.  0.
         25    1    3    3    0    0 -0.77547100975E+02 -0.75595300511E+02  0.15531173241E+03  0.22693048419E+03  0.12509000000E+03 0.  0.
         25    1    4    4    0    0  0.76114533274E+02  0.45937755831E+02  0.13498094522E+03  0.20437970364E+03  0.12509000000E+03 0.  0.
<mgrwt>
<rscale>  2 0.45125661E+03</rscale>
<asrwt>0</asrwt>
<pdfrwt beam="1">  1       21 0.69162933E-01 0.45125661E+03</pdfrwt>
<pdfrwt beam="2">  1       21 0.15918272E-01 0.45125661E+03</pdfrwt>
<totfact> 0.61827823E+04</totfact>
</mgrwt>
</event>
<event>
 6    0  0.5117540E-002  0.4309174E+03  0.7546771E-02  0.1033571E+00
         21   -1    0    0  502  501  0.00000000000E+00  0.00000000000E+00  0.14395436992E+03  0.14395436992E+03  0.00000000000E+00 0. -1.
         21   -1    0    0  501  502 -0.00000000000E+00 -0.00000000000E+00 -0.32248033486E+03  0.32248033486E+03  0.00000000000E+00 0. -1.
      99926    2    1    2    0    0  0.00000000000E+00 -0.14210854715E-13 -0.17852596494E+03  0.46643470478E+03  0.43091740933E+03 0.  0.
         25    1    3    3    0    0  0.22494223313E+02 -0.66796248680E+02 -0.11514796028E+03  0.18404969377E+03  0.12509000000E+03 0.  0.
         25    1    3    3    0    0 -0.60005374274E+01  0.23351118015E+02 -0.76010396858E+02  0.14834544042E+03  0.12509000000E+03 0.  0.
         25    1    3    3    0    0 -0.16493685885E+02  0.43445130666E+02  0.12632392197E+02  0.13403957059E+03  0.12509000000E+03 0.  0.
<mgrwt>
<rscale>  2 0.43091741E+03</rscale>
<asrwt>0</asrwt>
<pdfrwt beam="1">  1       21 0.21169760E-01 0.43091741E+03</pdfrwt>
<pdfrwt beam="2">  1       21 0.47423579E-01 0.43091741E+03</pdfrwt>
<totfact> 0.82352621E+04</totfact>
</mgrwt>
</event>
<event>
 7    0  0.4788920E-002  0.4526464E+03  0.7546771E-02  0.1026936E+00
         21   -1    0    0  502  501  0.00000000000E+00  0.00000000000E+00  0.11389364450E+04  0.11389364450E+04  0.00000000000E+00 0. -1.
         21   -1    0    0  501  502 -0.00000000000E+00 -0.00000000000E+00 -0.44973705101E+02  0.44973705101E+02  0.00000000000E+00 0. -1.
      99926    2    1    2    0    0  0.00000000000E+00  0.00000000000E+00  0.10939627399E+04  0.11839101501E+04  0.45264640419E+03 0.  0.
      99925    2    3    3    0    0  0.77507397477E+02 -0.46231650347E+01  0.89679282049E+03  0.93783647102E+03  0.26319405990E+03 0.  0.
         25    1    4    4    0    0  0.25491894353E+02 -0.30914018049E+02  0.52730560990E+03  0.54341901652E+03  0.12509000000E+03 0.  0.
         25    1    3    3    0    0 -0.77507397477E+02  0.46231650347E+01  0.19716991941E+03  0.24607367908E+03  0.12509000000E+03 0.  0.
         25    1    4    4    0    0  0.52015503124E+02  0.26290853014E+02  0.36948721059E+03  0.39441745450E+03  0.12509000000E+03 0.  0.
<mgrwt>
<rscale>  2 0.45264640E+03</rscale>
<asrwt>0</asrwt>
<pdfrwt beam="1">  1       21 0.16749064E+00 0.45264640E+03</pdfrwt>
<pdfrwt beam="2">  1       21 0.66137809E-02 0.45264640E+03</pdfrwt>
<totfact> 0.33276128E+04</totfact>
</mgrwt>
</event>
<event>
 7    0  0.4788920E-002  0.4563199E+03  0.7546771E-02  0.1025854E+00
         21   -1    0    0  502  501  0.00000000000E+00  0.00000000000E+00  0.13487730593E+04  0.13487730593E+04  0.00000000000E+00 0. -1.
         21   -1    0    0  501  502 -0.00000000000E+00 -0.00000000000E+00 -0.38595790733E+02  0.38595790733E+02  0.00000000000E+00 0. -1.
      99926    2    1    2    0    0  0.00000000000E+00  0.00000000000E+00  0.13101772686E+04  0.13873688501E+04  0.45631989983E+03 0.  0.
      99925    2    3    3    0    0 -0.66122178323E+02 -0.68263297312E+02  0.62980721799E+03  0.68909746006E+03  0.26299459578E+03 0.  0.
         25    1    4    4    0    0 -0.31460002563E+02 -0.62367401203E+02  0.25619826314E+03  0.29353787256E+03  0.12509000000E+03 0.  0.
         25    1    3    3    0    0  0.66122178323E+02  0.68263297312E+02  0.68037005062E+03  0.69827139001E+03  0.12509000000E+03 0.  0.
         25    1    4    4    0    0 -0.34662175760E+02 -0.58958961081E+01  0.37360895485E+03  0.39555958750E+03  0.12509000000E+03 0.  0.
<mgrwt>
<rscale>  2 0.45631990E+03</rscale>
<asrwt>0</asrwt>
<pdfrwt beam="1">  1       21 0.19834895E+00 0.45631990E+03</pdfrwt>
<pdfrwt beam="2">  1       21 0.56758525E-02 0.45631990E+03</pdfrwt>
<totfact> 0.26398723E+04</totfact>
</mgrwt>
</event>
<event>
 7    0  0.4788920E-002  0.4600517E+03  0.7546771E-02  0.1024766E+00
         21   -1    0    0  502  501  0.00000000000E+00  0.00000000000E+00  0.41960960072E+02  0.41960960072E+02  0.00000000000E+00 0.  1.
         21   -1    0    0  501  502 -0.00000000000E+00 -0.00000000000E+00 -0.12609789130E+04  0.12609789130E+04  0.00000000000E+00 0.  1.
      99926    2    1    2    0    0  0.71054273576E-14  0.00000000000E+00 -0.12190179529E+04  0.13029398730E+04  0.46005167457E+03 0.  0.
      99925    2    3    3    0    0  0.49437764181E+02 -0.90981183850E+02 -0.92334542449E+03  0.96561003372E+03  0.26289597933E+03 0.  0.
         25    1    4    4    0    0  0.17176598176E+02 -0.15658541218E+02 -0.52284668315E+03  0.53810443932E+03  0.12509000000E+03 0.  0.
         25    1    3    3    0    0 -0.49437764181E+02  0.90981183850E+02 -0.29567252840E+03  0.33732983932E+03  0.12509000000E+03 0.  0.
         25    1    4    4    0    0  0.32261166005E+02 -0.75322642632E+02 -0.40049874134E+03  0.42750559440E+03  0.12509000000E+03 0.  0.
<mgrwt>
<rscale>  2 0.46005167E+03</rscale>
<asrwt>0</asrwt>
<pdfrwt beam="1">  1       21 0.61707288E-02 0.46005167E+03</pdfrwt>
<pdfrwt beam="2">  1       21 0.18543809E+00 0.46005167E+03</pdfrwt>
<totfact> 0.27916314E+04</totfact>
</mgrwt>
</event>
<event>
 7    0  0.4788920E-002  0.4577953E+03  0.7546771E-02  0.1025423E+00
         21   -1    0    0  502  501  0.00000000000E+00  0.00000000000E+00  0.62847205975E+03  0.62847205975E+03  0.00000000000E+00 0. -1.
         21   -1    0    0  501  502 -0.00000000000E+00 -0.00000000000E+00 -0.83367482295E+02  0.83367482295E+02  0.00000000000E+00 0. -1.
      99926    2    1    2    0    0  0.00000000000E+00 -0.35527136788E-14  0.54510457745E+03  0.71183954204E+03  0.45779529624E+03 0.  0.
      99925    2    3    3    0    0  0.10353103897E+03  0.77218376010E+01  0.42193229345E+03  0.50788557064E+03  0.26294978570E+03 0.  0.
         25    1    4    4    0    0  0.75259488775E+02  0.32522816722E+02  0.19123256651E+03  0.24277381830E+03  0.12509000000E+03 0.  0.
         25    1    4    4    0    0  0.28271550194E+02 -0.24800979121E+02  0.23069972694E+03  0.26511175234E+03  0.12509000000E+03 0.  0.
         25    1    3    3    0    0 -0.10353103897E+03 -0.77218376010E+01  0.12317228400E+03  0.20395397140E+03  0.12509000000E+03 0.  0.
<mgrwt>
<rscale>  2 0.45779530E+03</rscale>
<asrwt>0</asrwt>
<pdfrwt beam="1">  1       21 0.92422359E-01 0.45779530E+03</pdfrwt>
<pdfrwt beam="2">  1       21 0.12259924E-01 0.45779530E+03</pdfrwt>
<totfact> 0.51131110E+04</totfact>
</mgrwt>
</event>
<event>
 7    0  0.4788920E-002  0.4497741E+03  0.7546771E-02  0.1027789E+00
         21   -1    0    0  502  501  0.00000000000E+00  0.00000000000E+00  0.10929760203E+03  0.10929760203E+03  0.00000000000E+00 0.  1.
         21   -1    0    0  501  502 -0.00000000000E+00 -0.00000000000E+00 -0.46272002808E+03  0.46272002808E+03  0.00000000000E+00 0.  1.
      99926    2    1    2    0    0  0.00000000000E+00  0.00000000000E+00 -0.35342242604E+03  0.57201763011E+03  0.44977411878E+03 0.  0.
      99925    2    3    3    0    0 -0.90993051344E+02 -0.58752381046E+02 -0.22519306915E+03  0.36268093065E+03  0.26285730234E+03 0.  0.
         25    1    4    4    0    0 -0.19425448251E+02 -0.59607683862E+02 -0.10320373786E+03  0.17386472795E+03  0.12509000000E+03 0.  0.
         25    1    4    4    0    0 -0.71567603093E+02  0.85530281619E+00 -0.12198933129E+03  0.18881620270E+03  0.12509000000E+03 0.  0.
         25    1    3    3    0    0  0.90993051344E+02  0.58752381046E+02 -0.12822935689E+03  0.20933669946E+03  0.12509000000E+03 0.  0.
<mgrwt>
<rscale>  2 0.44977412E+03</rscale>
<asrwt>0</asrwt>
<pdfrwt beam="1">  1       21 0.16073176E-01 0.44977412E+03</pdfrwt>
<pdfrwt beam="2">  1       21 0.68047064E-01 0.44977412E+03</pdfrwt>
<totfact> 0.62997734E+04</totfact>
</mgrwt>
</event>
<event>
 7    0  0.4788920E-002  0.4530230E+03  0.7546771E-02  0.1026824E+00
         21   -1    0    0  502  501  0.00000000000E+00  0.00000000000E+00  0.33387901505E+02  0.33387901505E+02  0.00000000000E+00 0.  1.
         21   -1    0    0  501  502 -0.00000000000E+00 -0.00000000000E+00 -0.15367084473E+04  0.15367084473E+04  0.00000000000E+00 0.  1.
      99926    2    1    2    0    0 -0.17763568394E-14  0.00000000000E+00 -0.15033205458E+04  0.15700963488E+04  0.45302304701E+03 0.  0.
      99925    2    3    3    0    0  0.15552101942E+02 -0.10789657484E+03 -0.86991626265E+03  0.91532002612E+03  0.26300742853E+03 0.  0.
         25    1    4    4    0    0  0.20979789894E+02 -0.54425799464E+02 -0.56106175007E+03  0.57778898806E+03  0.12509000000E+03 0.  0.
         25    1    4    4    0    0 -0.54276879524E+01 -0.53470775380E+02 -0.30885451258E+03  0.33753103807E+03  0.12509000000E+03 0.  0.
         25    1    3    3    0    0 -0.15552101942E+02  0.10789657484E+03 -0.63340428315E+03  0.65477632269E+03  0.12509000000E+03 0.  0.
<mgrwt>
<rscale>  2 0.45302305E+03</rscale>
<asrwt>0</asrwt>
<pdfrwt beam="1">  1       21 0.49099860E-02 0.45302305E+03</pdfrwt>
<pdfrwt beam="2">  1       21 0.22598651E+00 0.45302305E+03</pdfrwt>
<totfact> 0.22455072E+04</totfact>
</mgrwt>
</event>
<event>
 7    0  0.4788920E-002  0.4385638E+03  0.7546771E-02  0.1031188E+00
         21   -1    0    0  502  501  0.00000000000E+00  0.00000000000E+00  0.24532571888E+02  0.24532571888E+02  0.00000000000E+00 0. -1.
         21   -1    0    0  501  502 -0.00000000000E+00 -0.00000000000E+00 -0.19600289168E+04  0.19600289168E+04  0.00000000000E+00 0. -1.
      99926    2    1    2    0    0  0.00000000000E+00 -0.71054273576E-14 -0.19354963449E+04  0.19845614887E+04  0.43856379378E+03 0.  0.
      99925    2    3    3    0    0  0.29156639371E+02 -0.59994333836E+02 -0.15555458904E+04  0.15790256879E+04  0.26296326037E+03 0.  0.
         25    1    4    4    0    0 -0.22746697417E+02 -0.42778392255E+02 -0.82457633481E+03  0.83541668832E+03  0.12509000000E+03 0.  0.
         25    1    3    3    0    0 -0.29156639371E+02  0.59994333836E+02 -0.37995045457E+03  0.40553580081E+03  0.12509000000E+03 0.  0.
         25    1    4    4    0    0  0.51903336788E+02 -0.17215941581E+02 -0.73096955555E+03  0.74360899958E+03  0.12509000000E+03 0.  0.
<mgrwt>
<rscale>  2 0.43856379E+03</rscale>
<asrwt>0</asrwt>
<pdfrwt beam="1">  1       21 0.36077305E-02 0.43856379E+03</pdfrwt>
<pdfrwt beam="2">  1       21 0.28823960E+00 0.43856379E+03</pdfrwt>
<totfact> 0.15896945E+04</totfact>
</mgrwt>
</event>
<event>
 7    0  0.4788920E-002  0.4642043E+03  0.7546771E-02  0.1023569E+00
         21   -1    0    0  502  501  0.00000000000E+00  0.00000000000E+00  0.28271610984E+03  0.28271610984E+03  0.00000000000E+00 0. -1.
         21   -1    0    0  501  502 -0.00000000000E+00 -0.00000000000E+00 -0.19054947608E+03  0.19054947608E+03  0.00000000000E+00 0. -1.
      99926    2    1    2    0    0 -0.71054273576E-14  0.14210854715E-13  0.92166633760E+02  0.47326558593E+03  0.46420429387E+03 0.  0.
      99925    2    3    3    0    0 -0.57393168169E+02  0.88227084040E+02 -0.48628058951E+01  0.28315978809E+03  0.26282660558E+03 0.  0.
         25    1    3    3    0    0  0.57393168169E+02 -0.88227084040E+02  0.97029439655E+02  0.19010579784E+03  0.12509000000E+03 0.  0.
         25    1    4    4    0    0 -0.10865070662E+02  0.65819450714E+01 -0.13562179808E+02  0.12646269245E+03  0.12509000000E+03 0.  0.
         25    1    4    4    0    0 -0.46528097507E+02  0.81645138968E+02  0.86993739129E+01  0.15669709564E+03  0.12509000000E+03 0.  0.
<mgrwt>
<rscale>  2 0.46420429E+03</rscale>
<asrwt>0</asrwt>
<pdfrwt beam="1">  1       21 0.41575899E-01 0.46420429E+03</pdfrwt>
<pdfrwt beam="2">  1       21 0.28021982E-01 0.46420429E+03</pdfrwt>
<totfact> 0.62501311E+04</totfact>
</mgrwt>
</event>
<event>
 7    0  0.4788920E-002  0.4484384E+03  0.7546771E-02  0.1028189E+00
         21   -1    0    0  502  501  0.00000000000E+00  0.00000000000E+00  0.27134222808E+03  0.27134222808E+03  0.00000000000E+00 0. -1.
         21   -1    0    0  501  502 -0.00000000000E+00 -0.00000000000E+00 -0.18527989346E+03  0.18527989346E+03  0.00000000000E+00 0. -1.
      99926    2    1    2    0    0 -0.14210854715E-13  0.14210854715E-13  0.86062334626E+02  0.45662212154E+03  0.44843844220E+03 0.  0.
      99925    2    3    3    0    0  0.69636878614E+02 -0.79360902492E+02  0.71497428066E+02  0.29228377449E+03  0.26300280398E+03 0.  0.
         25    1    3    3    0    0 -0.69636878614E+02  0.79360902492E+02  0.14564906560E+02  0.16433834705E+03  0.12509000000E+03 0.  0.
         25    1    4    4    0    0 -0.29237851052E+01 -0.49767096900E+02  0.47187004291E+02  0.14268648824E+03  0.12509000000E+03 0.  0.
         25    1    4    4    0    0  0.72560663720E+02 -0.29593805592E+02  0.24310423775E+02  0.14959728625E+03  0.12509000000E+03 0.  0.
<mgrwt>
<rscale>  2 0.44843844E+03</rscale>
<asrwt>0</asrwt>
<pdfrwt beam="1">  1       21 0.39903269E-01 0.44843844E+03</pdfrwt>
<pdfrwt beam="2">  1       21 0.27247043E-01 0.44843844E+03</pdfrwt>
<totfact> 0.72125953E+04</totfact>
</mgrwt>
</event>
<event>
 7    0  0.4788920E-002  0.4576442E+03  0.7546771E-02  0.1025467E+00
         21   -1    0    0  502  501  0.00000000000E+00  0.00000000000E+00  0.19157795283E+03  0.19157795283E+03  0.00000000000E+00 0. -1.
         21   -1    0    0  501  502 -0.00000000000E+00 -0.00000000000E+00 -0.27330673341E+03  0.27330673341E+03  0.00000000000E+00 0. -1.
      99926    2    1    2    0    0  0.00000000000E+00  0.35527136788E-14 -0.81728780583E+02  0.46488468623E+03  0.45764416081E+03 0.  0.
      99925    2    3    3    0    0 -0.11227927696E+03  0.20306419443E+02 -0.71310198542E+02  0.29525260891E+03  0.26281166630E+03 0.  0.
         25    1    4    4    0    0 -0.19299629844E+02 -0.12639501553E+02 -0.32675423734E+02  0.13132944882E+03  0.12509000000E+03 0.  0.
         25    1    4    4    0    0 -0.92979647119E+02  0.32945920996E+02 -0.38634774808E+02  0.16392316009E+03  0.12509000000E+03 0.  0.
         25    1    3    3    0    0  0.11227927696E+03 -0.20306419443E+02 -0.10418582041E+02  0.16963207733E+03  0.12509000000E+03 0.  0.
<mgrwt>
<rscale>  2 0.45764416E+03</rscale>
<asrwt>0</asrwt>
<pdfrwt beam="1">  1       21 0.28173228E-01 0.45764416E+03</pdfrwt>
<pdfrwt beam="2">  1       21 0.40192167E-01 0.45764416E+03</pdfrwt>
<totfact> 0.66411739E+04</totfact>
</mgrwt>
</event>
<event>
 7    0  0.4788920E-002  0.4304474E+03  0.7546771E-02  0.1033719E+00
         21   -1    0    0  502  501  0.00000000000E+00  0.00000000000E+00  0.48089104600E+02  0.48089104600E+02  0.00000000000E+00 0. -1.
         21   -1    0    0  501  502 -0.00000000000E+00 -0.00000000000E+00 -0.96323753450E+03  0.96323753450E+03  0.00000000000E+00 0. -1.
      99926    2    1    2    0    0 -0.57731597281E-14  0.00000000000E+00 -0.91514842990E+03  0.10113266391E+04  0.43044735126E+03 0.  0.
      99925    2    3    3    0    0 -0.16034432132E+01 -0.87613657783E+02 -0.56607230385E+03  0.63030121484E+03  0.26298867689E+03 0.  0.
         25    1    4    4    0    0  0.39493310308E+02 -0.47488343818E+02 -0.27897413373E+03  0.31191174993E+03  0.12509000000E+03 0.  0.
         25    1    4    4    0    0 -0.41096753521E+02 -0.40125313965E+02 -0.28709817013E+03  0.31838946490E+03  0.12509000000E+03 0.  0.
         25    1    3    3    0    0  0.16034432132E+01  0.87613657783E+02 -0.34907612605E+03  0.38102542427E+03  0.12509000000E+03 0.  0.
<mgrwt>
<rscale>  2 0.43044735E+03</rscale>
<asrwt>0</asrwt>
<pdfrwt beam="1">  1       21 0.70719267E-02 0.43044735E+03</pdfrwt>
<pdfrwt beam="2">  1       21 0.14165259E+00 0.43044735E+03</pdfrwt>
<totfact> 0.47138612E+04</totfact>
</mgrwt>
</event>
<event>
 7    0  0.4788920E-002  0.4583054E+03  0.7546771E-02  0.1025274E+00
         21   -1    0    0  502  501  0.00000000000E+00  0.00000000000E+00  0.15452911716E+04  0.15452911716E+04  0.00000000000E+00 0.  1.
         21   -1    0    0  501  502 -0.00000000000E+00 -0.00000000000E+00 -0.33981264965E+02  0.33981264965E+02  0.00000000000E+00 0.  1.
      99926    2    1    2    0    0  0.00000000000E+00 -0.17763568394E-14  0.15113099066E+04  0.15792724366E+04  0.45830535127E+03 0.  0.
      99925    2    3    3    0    0  0.61846130296E+02 -0.14383674723E+02  0.61225136447E+03  0.66933529353E+03  0.26291855762E+03 0.  0.
         25    1    3    3    0    0 -0.61846130296E+02  0.14383674723E+02  0.89905854217E+03  0.90993714303E+03  0.12509000000E+03 0.  0.
         25    1    4    4    0    0  0.20941224384E+02 -0.36952873741E+02  0.36759260895E+03  0.39060963123E+03  0.12509000000E+03 0.  0.
         25    1    4    4    0    0  0.40904905912E+02  0.22569199018E+02  0.24465875552E+03  0.27872566230E+03  0.12509000000E+03 0.  0.
<mgrwt>
<rscale>  2 0.45830535E+03</rscale>
<asrwt>0</asrwt>
<pdfrwt beam="1">  1       21 0.22724866E+00 0.45830535E+03</pdfrwt>
<pdfrwt beam="2">  1       21 0.49972459E-02 0.45830535E+03</pdfrwt>
<totfact> 0.21348152E+04</totfact>
</mgrwt>
</event>
<event>
 7    0  0.4788920E-002  0.4562368E+03  0.7546771E-02  0.1025878E+00
         21   -1    0    0  502  501  0.00000000000E+00  0.00000000000E+00  0.18157908429E+03  0.18157908429E+03  0.00000000000E+00 0.  1.
         21   -1    0    0  501  502 -0.00000000000E+00 -0.00000000000E+00 -0.28658587425E+03  0.28658587425E+03  0.00000000000E+00 0.  1.
      99926    2    1    2    0    0  0.00000000000E+00 -0.71054273576E-14 -0.10500678996E+03  0.46816495854E+03  0.45623678333E+03 0.  0.
      99925    2    3    3    0    0  0.84353764585E+02  0.50188182977E+02 -0.12613051750E+03  0.30776504808E+03  0.26301331917E+03 0.  0.
         25    1    3    3    0    0 -0.84353764585E+02 -0.50188182977E+02  0.21123727540E+02  0.16039991046E+03  0.12509000000E+03 0.  0.
         25    1    4    4    0    0  0.36252578027E+02 -0.79202670172E+01 -0.33200777287E+02  0.13463572986E+03  0.12509000000E+03 0.  0.
         25    1    4    4    0    0  0.48101186559E+02  0.58108449994E+02 -0.92929740216E+02  0.17312931822E+03  0.12509000000E+03 0.  0.
<mgrwt>
<rscale>  2 0.45623678E+03</rscale>
<asrwt>0</asrwt>
<pdfrwt beam="1">  1       21 0.26702807E-01 0.45623678E+03</pdfrwt>
<pdfrwt beam="2">  1       21 0.42144981E-01 0.45623678E+03</pdfrwt>
<totfact> 0.66913814E+04</totfact>
</mgrwt>
</event>
<event>
 7    0  0.4788920E-002  0.4526221E+03  0.7546771E-02  0.1026943E+00
         21   -1    0    0  502  501  0.00000000000E+00  0.00000000000E+00  0.15651725407E+04  0.15651725407E+04  0.00000000000E+00 0.  1.
         21   -1    0    0  501  502 -0.00000000000E+00 -0.00000000000E+00 -0.32722715260E+02  0.32722715260E+02  0.00000000000E+00 0.  1.
      99926    2    1    2    0    0 -0.35527136788E-14  0.00000000000E+00  0.15324498254E+04  0.15978952559E+04  0.45262211780E+03 0.  0.
      99925    2    3    3    0    0 -0.20026364766E+02 -0.50252224778E+02  0.13083908560E+04  0.13356429514E+04  0.26292417169E+03 0.  0.
         25    1    4    4    0    0 -0.47408717729E+02 -0.14586404988E+02  0.60234025537E+03  0.61718849720E+03  0.12509000000E+03 0.  0.
         25    1    3    3    0    0  0.20026364766E+02  0.50252224778E+02  0.22405896940E+03  0.26225230456E+03  0.12509000000E+03 0.  0.
         25    1    4    4    0    0  0.27382352962E+02 -0.35665819790E+02  0.70605060063E+03  0.71845445417E+03  0.12509000000E+03 0.  0.
<mgrwt>
<rscale>  2 0.45262212E+03</rscale>
<asrwt>0</asrwt>
<pdfrwt beam="1">  1       21 0.23017238E+00 0.45262212E+03</pdfrwt>
<pdfrwt beam="2">  1       21 0.48121650E-02 0.45262212E+03</pdfrwt>
<totfact> 0.21878586E+04</totfact>
</mgrwt>
</event>
<event>
 7    0  0.4788920E-002  0.4528383E+03  0.7546771E-02  0.1026879E+00
         21   -1    0    0  502  501  0.00000000000E+00  0.00000000000E+00  0.52163092880E+02  0.52163092880E+02  0.00000000000E+00 0.  1.
         21   -1    0    0  501  502 -0.00000000000E+00 -0.00000000000E+00 -0.98279517759E+03  0.98279517759E+03  0.00000000000E+00 0.  1.
      99926    2    1    2    0    0  0.00000000000E+00  0.00000000000E+00 -0.93063208471E+03  0.10349582705E+04  0.45283832051E+03 0.  0.
      99925    2    3    3    0    0 -0.78193027868E+02 -0.73616324288E+02 -0.65208791381E+03  0.71127960875E+03  0.26299528832E+03 0.  0.
         25    1    4    4    0    0 -0.96249049306E+01 -0.44776590986E+01 -0.29191803596E+03  0.31776773915E+03  0.12509000000E+03 0.  0.
         25    1    4    4    0    0 -0.68568122937E+02 -0.69138665189E+02 -0.36016987784E+03  0.39351186960E+03  0.12509000000E+03 0.  0.
         25    1    3    3    0    0  0.78193027868E+02  0.73616324288E+02 -0.27854417091E+03  0.32367866172E+03  0.12509000000E+03 0.  0.
<mgrwt>
<rscale>  2 0.45283832E+03</rscale>
<asrwt>0</asrwt>
<pdfrwt beam="1">  1       21 0.76710433E-02 0.45283832E+03</pdfrwt>
<pdfrwt beam="2">  1       21 0.14452870E+00 0.45283832E+03</pdfrwt>
<totfact> 0.38479465E+04</totfact>
</mgrwt>
</event>
<event>
 7    0  0.4788920E-002  0.4568946E+03  0.7546771E-02  0.1025686E+00
         21   -1    0    0  502  501  0.00000000000E+00  0.00000000000E+00  0.72093148641E+02  0.72093148641E+02  0.00000000000E+00 0.  1.
         21   -1    0    0  501  502 -0.00000000000E+00 -0.00000000000E+00 -0.72389914523E+03  0.72389914523E+03  0.00000000000E+00 0.  1.
      99926    2    1    2    0    0 -0.14210854715E-13  0.17763568394E-14 -0.65180599659E+03  0.79599229387E+03  0.45689459913E+03 0.  0.
      99925    2    3    3    0    0  0.98837901064E+02 -0.12438997479E+02 -0.31001651041E+03  0.41864468184E+03  0.26311494363E+03 0.  0.
         25    1    3    3    0    0 -0.98837901064E+02  0.12438997479E+02 -0.34178948618E+03  0.37734761203E+03  0.12509000000E+03 0.  0.
         25    1    4    4    0    0  0.47006242470E+02 -0.17109092455E+01 -0.21401973631E+03  0.25231819132E+03  0.12509000000E+03 0.  0.
         25    1    4    4    0    0  0.51831658594E+02 -0.10728088233E+02 -0.95996774102E+02  0.16632649052E+03  0.12509000000E+03 0.  0.
<mgrwt>
<rscale>  2 0.45689460E+03</rscale>
<asrwt>0</asrwt>
<pdfrwt beam="1">  1       21 0.10601934E-01 0.45689460E+03</pdfrwt>
<pdfrwt beam="2">  1       21 0.10645575E+00 0.45689460E+03</pdfrwt>
<totfact> 0.47252752E+04</totfact>
</mgrwt>
</event>
<event>
 7    0  0.4788920E-002  0.4498135E+03  0.7546771E-02  0.1027778E+00
         21   -1    0    0  502  501  0.00000000000E+00  0.00000000000E+00  0.55141181060E+03  0.55141181060E+03  0.00000000000E+00 0. -1.
         21   -1    0    0  501  502 -0.00000000000E+00 -0.00000000000E+00 -0.91733699269E+02  0.91733699269E+02  0.00000000000E+00 0. -1.
      99926    2    1    2    0    0  0.00000000000E+00  0.00000000000E+00  0.45967811133E+03  0.64314550987E+03  0.44981349560E+03 0.  0.
      99925    2    3    3    0    0 -0.81768439137E+02  0.27675111407E+02  0.38398644677E+03  0.47335526982E+03  0.26299739683E+03 0.  0.
         25    1    4    4    0    0 -0.13305804577E+02  0.20342686688E+02  0.13035692896E+03  0.18229455934E+03  0.12509000000E+03 0.  0.
         25    1    3    3    0    0  0.81768439137E+02 -0.27675111407E+02  0.75691664561E+02  0.16979024004E+03  0.12509000000E+03 0.  0.
         25    1    4    4    0    0 -0.68462634559E+02  0.73324247181E+01  0.25362951781E+03  0.29106071048E+03  0.12509000000E+03 0.  0.
<mgrwt>
<rscale>  2 0.44981350E+03</rscale>
<asrwt>0</asrwt>
<pdfrwt beam="1">  1       21 0.81089971E-01 0.44981350E+03</pdfrwt>
<pdfrwt beam="2">  1       21 0.13490250E-01 0.44981350E+03</pdfrwt>
<totfact> 0.58453772E+04</totfact>
</mgrwt>
</event>
<event>
 7    0  0.4788920E-002  0.4517488E+03  0.7546771E-02  0.1027202E+00
         21   -1    0    0  502  501  0.00000000000E+00  0.00000000000E+00  0.62859812033E+03  0.62859812033E+03  0.00000000000E+00 0.  1.
         21   -1    0    0  501  502 -0.00000000000E+00 -0.00000000000E+00 -0.81163531051E+02  0.81163531051E+02  0.00000000000E+00 0.  1.
      99926    2    1    2    0    0  0.00000000000E+00  0.00000000000E+00  0.54743458928E+03  0.70976165138E+03  0.45174879328E+03 0.  0.
      99925    2    3    3    0    0  0.52157665532E+02  0.93036973419E+01  0.19394948721E+03  0.33107153223E+03  0.26303036898E+03 0.  0.
         25    1    3    3    0    0 -0.52157665532E+02 -0.93036973419E+01  0.35348510206E+03  0.37869011915E+03  0.12509000000E+03 0.  0.
         25    1    4    4    0    0  0.26470925158E+02  0.25517069014E+02  0.54563070586E+02  0.14133813166E+03  0.12509000000E+03 0.  0.
         25    1    4    4    0    0  0.25686740373E+02 -0.16213371672E+02  0.13938641663E+03  0.18973340057E+03  0.12509000000E+03 0.  0.
<mgrwt>
<rscale>  2 0.45174879E+03</rscale>
<asrwt>0</asrwt>
<pdfrwt beam="1">  1       21 0.92440898E-01 0.45174879E+03</pdfrwt>
<pdfrwt beam="2">  1       21 0.11935814E-01 0.45174879E+03</pdfrwt>
<totfact> 0.53737616E+04</totfact>
</mgrwt>
</event>
<event>
 7    0  0.4788920E-002  0.4491664E+03  0.7546771E-02  0.1027971E+00
         21   -1    0    0  502  501  0.00000000000E+00  0.00000000000E+00  0.49051358948E+03  0.49051358948E+03  0.00000000000E+00 0.  1.
         21   -1    0    0  501  502 -0.00000000000E+00 -0.00000000000E+00 -0.10282613547E+03  0.10282613547E+03  0.00000000000E+00 0.  1.
      99926    2    1    2    0    0 -0.35527136788E-14  0.00000000000E+00  0.38768745401E+03  0.59333972494E+03  0.44916641370E+03 0.  0.
      99925    2    3    3    0    0  0.17101509468E+02 -0.10625741125E+03  0.24334813287E+03  0.37410367225E+03  0.26296795385E+03 0.  0.
         25    1    4    4    0    0  0.28777358384E+02 -0.24838503886E+02  0.83669269036E+02  0.15521965826E+03  0.12509000000E+03 0.  0.
         25    1    3    3    0    0 -0.17101509468E+02  0.10625741125E+03  0.14433932115E+03  0.21923605269E+03  0.12509000000E+03 0.  0.
         25    1    4    4    0    0 -0.11675848917E+02 -0.81418907363E+02  0.15967886383E+03  0.21888401398E+03  0.12509000000E+03 0.  0.
<mgrwt>
<rscale>  2 0.44916641E+03</rscale>
<asrwt>0</asrwt>
<pdfrwt beam="1">  1       21 0.72134351E-01 0.44916641E+03</pdfrwt>
<pdfrwt beam="2">  1       21 0.15121491E-01 0.44916641E+03</pdfrwt>
<totfact> 0.61894494E+04</totfact>
</mgrwt>
</event>
<event>
 7    0  0.4788920E-002  0.4582511E+03  0.7546771E-02  0.1025290E+00
         21   -1    0    0  502  501  0.00000000000E+00  0.00000000000E+00  0.23447317399E+03  0.23447317399E+03  0.00000000000E+00 0.  1.
         21   -1    0    0  501  502 -0.00000000000E+00 -0.00000000000E+00 -0.22389985735E+03  0.22389985735E+03  0.00000000000E+00 0.  1.
      99926    2    1    2    0    0  0.00000000000E+00 -0.35527136788E-14  0.10573316639E+02  0.45837303135E+03  0.45825106748E+03 0.  0.
      99925    2    3    3    0    0  0.94062778039E+02  0.22004956066E+02 -0.58316364169E+02  0.28596270531E+03  0.26275815152E+03 0.  0.
         25    1    4    4    0    0  0.21683758120E+02  0.35537353304E+02 -0.48516660643E+02  0.14047940527E+03  0.12509000000E+03 0.  0.
         25    1    3    3    0    0 -0.94062778039E+02 -0.22004956066E+02  0.68889680808E+02  0.17241032604E+03  0.12509000000E+03 0.  0.
         25    1    4    4    0    0  0.72379019919E+02 -0.13532397238E+02 -0.97997035262E+01  0.14548330003E+03  0.12509000000E+03 0.  0.
<mgrwt>
<rscale>  2 0.45825107E+03</rscale>
<asrwt>0</asrwt>
<pdfrwt beam="1">  1       21 0.34481349E-01 0.45825107E+03</pdfrwt>
<pdfrwt beam="2">  1       21 0.32926449E-01 0.45825107E+03</pdfrwt>
<totfact> 0.66556098E+04</totfact>
</mgrwt>
</event>
<event>
 7    0  0.4788920E-002  0.4452719E+03  0.7546771E-02  0.1029141E+00
         21   -1    0    0  502  501  0.00000000000E+00  0.00000000000E+00  0.45343958177E+02  0.45343958177E+02  0.00000000000E+00 0. -1.
         21   -1    0    0  501  502 -0.00000000000E+00 -0.00000000000E+00 -0.10931284590E+04  0.10931284590E+04  0.00000000000E+00 0. -1.
      99926    2    1    2    0    0  0.17763568394E-14  0.00000000000E+00 -0.10477845008E+04  0.11384724171E+04  0.44527192198E+03 0.  0.
      99925    2    3    3    0    0  0.14598911714E+02  0.75610794798E+02 -0.48738096247E+03  0.55913680252E+03  0.26298981128E+03 0.  0.
         25    1    4    4    0    0 -0.61066730371E+01  0.65467790959E+02 -0.20025316362E+03  0.24509622752E+03  0.12509000000E+03 0.  0.
         25    1    3    3    0    0 -0.14598911714E+02 -0.75610794798E+02 -0.56040353831E+03  0.57933561462E+03  0.12509000000E+03 0.  0.
         25    1    4    4    0    0  0.20705584751E+02  0.10143003839E+02 -0.28712779886E+03  0.31404057499E+03  0.12509000000E+03 0.  0.
<mgrwt>
<rscale>  2 0.44527192E+03</rscale>
<asrwt>0</asrwt>
<pdfrwt beam="1">  1       21 0.66682298E-02 0.44527192E+03</pdfrwt>
<pdfrwt beam="2">  1       21 0.16075417E+00 0.44527192E+03</pdfrwt>
<totfact> 0.36888322E+04</totfact>
</mgrwt>
</event>
<event>
 7    0  0.4788920E-002  0.4558907E+03  0.7546771E-02  0.1025980E+00
         21   -1    0    0  502  501  0.00000000000E+00  0.00000000000E+00  0.26341966906E+04  0.26341966906E+04  0.00000000000E+00 0.  1.
         21   -1    0    0  501  502 -0.00000000000E+00 -0.00000000000E+00 -0.19724828251E+02  0.19724828251E+02  0.00000000000E+00 0.  1.
      99926    2    1    2    0    0  0.00000000000E+00  0.00000000000E+00  0.26144718623E+04  0.26539215189E+04  0.45589067681E+03 0.  0.
      99925    2    3    3    0    0  0.85068229252E+02 -0.75758413719E+02  0.15808341208E+04  0.16065293145E+04  0.26253376924E+03 0.  0.
         25    1    4    4    0    0  0.60893423135E+02 -0.14957070683E+02  0.63627006302E+03  0.65147434649E+03  0.12509000000E+03 0.  0.
         25    1    4    4    0    0  0.24174806117E+02 -0.60801343036E+02  0.94456405778E+03  0.95505496801E+03  0.12509000000E+03 0.  0.
         25    1    3    3    0    0 -0.85068229252E+02  0.75758413719E+02  0.10336377416E+04  0.10473922044E+04  0.12509000000E+03 0.  0.
<mgrwt>
<rscale>  2 0.45589068E+03</rscale>
<asrwt>0</asrwt>
<pdfrwt beam="1">  1       21 0.38738162E+00 0.45589068E+03</pdfrwt>
<pdfrwt beam="2">  1       21 0.29007119E-02 0.45589068E+03</pdfrwt>
<totfact> 0.56425749E+03</totfact>
</mgrwt>
</event>
<event>
 7    0  0.4788920E-002  0.4581489E+03  0.7546771E-02  0.1025319E+00
         21   -1    0    0  502  501  0.00000000000E+00  0.00000000000E+00  0.47235522386E+02  0.47235522386E+02  0.00000000000E+00 0.  1.
         21   -1    0    0  501  502 -0.00000000000E+00 -0.00000000000E+00 -0.11109245437E+04  0.11109245437E+04  0.00000000000E+00 0.  1.
      99926    2    1    2    0    0  0.00000000000E+00  0.00000000000E+00 -0.10636890213E+04  0.11581600661E+04  0.45814888913E+03 0.  0.
      99925    2    3    3    0    0 -0.78905323388E+02 -0.22041857923E+02 -0.45960960918E+03  0.53584877917E+03  0.26302286541E+03 0.  0.
         25    1    4    4    0    0 -0.32487090547E+02  0.99376246174E+01 -0.29030930278E+03  0.31793264510E+03  0.12509000000E+03 0.  0.
         25    1    3    3    0    0  0.78905323388E+02  0.22041857923E+02 -0.60407941214E+03  0.62231128692E+03  0.12509000000E+03 0.  0.
         25    1    4    4    0    0 -0.46418232841E+02 -0.31979482540E+02 -0.16930030640E+03  0.21791613408E+03  0.12509000000E+03 0.  0.
<mgrwt>
<rscale>  2 0.45814889E+03</rscale>
<asrwt>0</asrwt>
<pdfrwt beam="1">  1       21 0.69464011E-02 0.45814889E+03</pdfrwt>
<pdfrwt beam="2">  1       21 0.16337124E+00 0.45814889E+03</pdfrwt>
<totfact> 0.32701216E+04</totfact>
</mgrwt>
</event>
<event>
 7    0  0.4788920E-002  0.4485691E+03  0.7546771E-02  0.1028150E+00
         21   -1    0    0  502  501  0.00000000000E+00  0.00000000000E+00  0.11842162907E+03  0.11842162907E+03  0.00000000000E+00 0.  1.
         21   -1    0    0  501  502 -0.00000000000E+00 -0.00000000000E+00 -0.42478346172E+03  0.42478346172E+03  0.00000000000E+00 0.  1.
      99926    2    1    2    0    0  0.00000000000E+00  0.17763568394E-14 -0.30636183265E+03  0.54320509079E+03  0.44856905617E+03 0.  0.
      99925    2    3    3    0    0  0.10638190284E+03 -0.63048219906E+01 -0.20718921188E+03  0.35126870331E+03  0.26287919730E+03 0.  0.
         25    1    4    4    0    0  0.93718161388E+02  0.11261063328E+02 -0.11423379852E+03  0.19392466100E+03  0.12509000000E+03 0.  0.
         25    1    3    3    0    0 -0.10638190284E+03  0.63048219906E+01 -0.99172620762E+02  0.19193638748E+03  0.12509000000E+03 0.  0.
         25    1    4    4    0    0  0.12663741447E+02 -0.17565885319E+02 -0.92955413364E+02  0.15734404230E+03  0.12509000000E+03 0.  0.
<mgrwt>
<rscale>  2 0.44856906E+03</rscale>
<asrwt>0</asrwt>
<pdfrwt beam="1">  1       21 0.17414945E-01 0.44856906E+03</pdfrwt>
<pdfrwt beam="2">  1       21 0.62468157E-01 0.44856906E+03</pdfrwt>
<totfact> 0.65592537E+04</totfact>
</mgrwt>
</event>
<event>
 6    0  0.4788920E-002  0.4490396E+03  0.7546771E-02  0.1028009E+00
         21   -1    0    0  502  501  0.00000000000E+00  0.00000000000E+00  0.33636135435E+02  0.33636135435E+02  0.00000000000E+00 0.  1.
         21   -1    0    0  501  502 -0.00000000000E+00 -0.00000000000E+00 -0.14986603993E+04  0.14986603993E+04  0.00000000000E+00 0.  1.
      99926    2    1    2    0    0  0.00000000000E+00  0.00000000000E+00 -0.14650242639E+04  0.15322965348E+04  0.44903961591E+03 0.  0.
         25    1    3    3    0    0  0.34093417694E+02  0.68710467448E+02 -0.78045647485E+03  0.79413053505E+03  0.12509000000E+03 0.  0.
         25    1    3    3    0    0  0.94467564512E+01 -0.22499048469E+02 -0.23653434243E+03  0.26868466952E+03  0.12509000000E+03 0.  0.
         25    1    3    3    0    0 -0.43540174145E+02 -0.46211418979E+02 -0.44803344661E+03  0.46948133018E+03  0.12509000000E+03 0.  0.
<mgrwt>
<rscale>  2 0.44903962E+03</rscale>
<asrwt>0</asrwt>
<pdfrwt beam="1">  1       21 0.49464915E-02 0.44903962E+03</pdfrwt>
<pdfrwt beam="2">  1       21 0.22039119E+00 0.44903962E+03</pdfrwt>
<totfact> 0.24094851E+04</totfact>
</mgrwt>
</event>
<event>
 7    0  0.4788920E-002  0.4599166E+03  0.7546771E-02  0.1024805E+00
         21   -1    0    0  502  501  0.00000000000E+00  0.00000000000E+00  0.16800823608E+03  0.16800823608E+03  0.00000000000E+00 0.  1.
         21   -1    0    0  501  502 -0.00000000000E+00 -0.00000000000E+00 -0.31475131342E+03  0.31475131342E+03  0.00000000000E+00 0.  1.
      99926    2    1    2    0    0  0.00000000000E+00 -0.71054273576E-14 -0.14674307733E+03  0.48275954950E+03  0.45991657057E+03 0.  0.
      99925    2    3    3    0    0 -0.75939297446E+02 -0.61093473474E+02 -0.16086953430E+03  0.32355447959E+03  0.26326660403E+03 0.  0.
         25    1    4    4    0    0 -0.58874606106E+02 -0.66178923814E+02 -0.10237337253E+03  0.18431951797E+03  0.12509000000E+03 0.  0.
         25    1    4    4    0    0 -0.17064691340E+02  0.50854503394E+01 -0.58496161770E+02  0.13923496162E+03  0.12509000000E+03 0.  0.
         25    1    3    3    0    0  0.75939297446E+02  0.61093473474E+02  0.14126456971E+02  0.15920506991E+03  0.12509000000E+03 0.  0.
<mgrwt>
<rscale>  2 0.45991657E+03</rscale>
<asrwt>0</asrwt>
<pdfrwt beam="1">  1       21 0.24707094E-01 0.45991657E+03</pdfrwt>
<pdfrwt beam="2">  1       21 0.46286958E-01 0.45991657E+03</pdfrwt>
<totfact> 0.63966790E+04</totfact>
</mgrwt>
</event>
<event>
 7    0  0.4788920E-002  0.4554338E+03  0.7546771E-02  0.1026114E+00
         21   -1    0    0  502  501  0.00000000000E+00  0.00000000000E+00  0.25425196647E+03  0.25425196647E+03  0.00000000000E+00 0. -1.
         21   -1    0    0  501  502 -0.00000000000E+00 -0.00000000000E+00 -0.20395115938E+03  0.20395115938E+03  0.00000000000E+00 0. -1.
      99926    2    1    2    0    0  0.71054273576E-14  0.00000000000E+00  0.50300807094E+02  0.45820312586E+03  0.45543378591E+03 0.  0.
      99925    2    3    3    0    0 -0.34244239862E+02 -0.83638326080E+02 -0.37751292977E+02  0.28052724685E+03  0.26287323666E+03 0.  0.
         25    1    4    4    0    0  0.76663377470E+01 -0.58066259229E+02  0.85680554586E+01  0.13838852145E+03  0.12509000000E+03 0.  0.
         25    1    3    3    0    0  0.34244239862E+02  0.83638326080E+02  0.88052100071E+02  0.17767587900E+03  0.12509000000E+03 0.  0.
         25    1    4    4    0    0 -0.41910577609E+02 -0.25572066851E+02 -0.46319348436E+02  0.14213872540E+03  0.12509000000E+03 0.  0.
<mgrwt>
<rscale>  2 0.45543379E+03</rscale>
<asrwt>0</asrwt>
<pdfrwt beam="1">  1       21 0.37389995E-01 0.45543379E+03</pdfrwt>
<pdfrwt beam="2">  1       21 0.29992817E-01 0.45543379E+03</pdfrwt>
<totfact> 0.68075800E+04</totfact>
</mgrwt>
</event>
<event>
 7    0  0.4788920E-002  0.4645950E+03  0.7546771E-02  0.1023457E+00
         21   -1    0    0  502  501  0.00000000000E+00  0.00000000000E+00  0.41028297270E+03  0.41028297270E+03  0.00000000000E+00 0. -1.
         21   -1    0    0  501  502 -0.00000000000E+00 -0.00000000000E+00 -0.13152415750E+03  0.13152415750E+03  0.00000000000E+00 0. -1.
      99926    2    1    2    0    0  0.00000000000E+00  0.00000000000E+00  0.27875881520E+03  0.54180713021E+03  0.46459497338E+03 0.  0.
      99925    2    3    3    0    0 -0.12010883430E+03 -0.20246024252E+02  0.16894284209E+03  0.33554736771E+03  0.26308614275E+03 0.  0.
         25    1    4    4    0    0 -0.95273566355E+02 -0.34924272864E+02  0.84508253954E+02  0.18189532805E+03  0.12509000000E+03 0.  0.
         25    1    3    3    0    0  0.12010883430E+03  0.20246024252E+02  0.10981597311E+03  0.20625976250E+03  0.12509000000E+03 0.  0.
         25    1    4    4    0    0 -0.24835267949E+02  0.14678248612E+02  0.84434588135E+02  0.15365203965E+03  0.12509000000E+03 0.  0.
<mgrwt>
<rscale>  2 0.46459497E+03</rscale>
<asrwt>0</asrwt>
<pdfrwt beam="1">  1       21 0.60335731E-01 0.46459497E+03</pdfrwt>
<pdfrwt beam="2">  1       21 0.19341788E-01 0.46459497E+03</pdfrwt>
<totfact> 0.57885868E+04</totfact>
</mgrwt>
</event>
<event>
 7    0  0.4788920E-002  0.4332670E+03  0.7546771E-02  0.1032833E+00
         21   -1    0    0  502  501  0.00000000000E+00  0.00000000000E+00  0.31843239808E+04  0.31843239808E+04  0.00000000000E+00 0. -1.
         21   -1    0    0  501  502 -0.00000000000E+00 -0.00000000000E+00 -0.14737843995E+02  0.14737843995E+02  0.00000000000E+00 0. -1.
      99926    2    1    2    0    0  0.00000000000E+00  0.00000000000E+00  0.31695861368E+04  0.31990618248E+04  0.43326698493E+03 0.  0.
      99925    2    3    3    0    0  0.23911781867E+02 -0.79279595038E+02  0.23204285087E+04  0.23367549113E+04  0.26301715580E+03 0.  0.
         25    1    4    4    0    0  0.35807100259E+02 -0.25801606482E+02  0.89128597573E+03  0.90110269667E+03  0.12509000000E+03 0.  0.
         25    1    3    3    0    0 -0.23911781867E+02  0.79279595038E+02  0.84915762816E+03  0.86230691349E+03  0.12509000000E+03 0.  0.
         25    1    4    4    0    0 -0.11895318391E+02 -0.53477988556E+02  0.14291425330E+04  0.14356522147E+04  0.12509000000E+03 0.  0.
<mgrwt>
<rscale>  2 0.43326698E+03</rscale>
<asrwt>0</asrwt>
<pdfrwt beam="1">  1       21 0.46828246E+00 0.43326698E+03</pdfrwt>
<pdfrwt beam="2">  1       21 0.21673322E-02 0.43326698E+03</pdfrwt>
<totfact> 0.27140052E+03</totfact>
</mgrwt>
</event>
<event>
 7    0  0.4788920E-002  0.4546372E+03  0.7546771E-02  0.1026348E+00
         21   -1    0    0  502  501  0.00000000000E+00  0.00000000000E+00  0.12998636903E+03  0.12998636903E+03  0.00000000000E+00 0.  1.
         21   -1    0    0  501  502 -0.00000000000E+00 -0.00000000000E+00 -0.39753199792E+03  0.39753199792E+03  0.00000000000E+00 0.  1.
      99926    2    1    2    0    0  0.00000000000E+00  0.71054273576E-14 -0.26754562889E+03  0.52751836695E+03  0.45463717834E+03 0.  0.
      99925    2    3    3    0    0  0.68437379189E+02 -0.61577167811E+02 -0.24224284502E+03  0.37015521549E+03  0.26430638495E+03 0.  0.
         25    1    4    4    0    0 -0.59888974543E+01 -0.36082636544E+02 -0.13442213581E+03  0.18722884994E+03  0.12509000000E+03 0.  0.
         25    1    4    4    0    0  0.74426276644E+02 -0.25494531266E+02 -0.10782070921E+03  0.18292636555E+03  0.12509000000E+03 0.  0.
         25    1    3    3    0    0 -0.68437379189E+02  0.61577167811E+02 -0.25302783865E+02  0.15736315146E+03  0.12509000000E+03 0.  0.
<mgrwt>
<rscale>  2 0.45463718E+03</rscale>
<asrwt>0</asrwt>
<pdfrwt beam="1">  1       21 0.19115643E-01 0.45463718E+03</pdfrwt>
<pdfrwt beam="2">  1       21 0.58460587E-01 0.45463718E+03</pdfrwt>
<totfact> 0.63557434E+04</totfact>
</mgrwt>
</event>
<event>
 7    0  0.4788920E-002  0.4477951E+03  0.7546771E-02  0.1028382E+00
         21   -1    0    0  502  501  0.00000000000E+00  0.00000000000E+00  0.39117678478E+03  0.39117678478E+03  0.00000000000E+00 0. -1.
         21   -1    0    0  501  502 -0.00000000000E+00 -0.00000000000E+00 -0.12815205311E+03  0.12815205311E+03  0.00000000000E+00 0. -1.
      99926    2    1    2    0    0  0.00000000000E+00  0.00000000000E+00  0.26302473167E+03  0.51932883789E+03  0.44779507857E+03 0.  0.
      99925    2    3    3    0    0 -0.79719318527E+02 -0.65260091712E+02  0.19664102187E+03  0.34420501214E+03  0.26305008950E+03 0.  0.
         25    1    3    3    0    0  0.79719318527E+02  0.65260091712E+02  0.66383709806E+02  0.17512382575E+03  0.12509000000E+03 0.  0.
         25    1    4    4    0    0 -0.20364802510E+02 -0.61434570434E+02  0.12476463287E+03  0.18815592826E+03  0.12509000000E+03 0.  0.
         25    1    4    4    0    0 -0.59354516017E+02 -0.38255212781E+01  0.71876388995E+02  0.15604908388E+03  0.12509000000E+03 0.  0.
<mgrwt>
<rscale>  2 0.44779508E+03</rscale>
<asrwt>0</asrwt>
<pdfrwt beam="1">  1       21 0.57525997E-01 0.44779508E+03</pdfrwt>
<pdfrwt beam="2">  1       21 0.18845890E-01 0.44779508E+03</pdfrwt>
<totfact> 0.67720835E+04</totfact>
</mgrwt>
</event>
<event>
 7    0  0.4788920E-002  0.4417400E+03  0.7546771E-02  0.1030214E+00
         21   -1    0    0  502  501  0.00000000000E+00  0.00000000000E+00  0.38317560581E+03  0.38317560581E+03  0.00000000000E+00 0.  1.
         21   -1    0    0  501  502 -0.00000000000E+00 -0.00000000000E+00 -0.12731385870E+03  0.12731385870E+03  0.00000000000E+00 0.  1.
      99926    2    1    2    0    0  0.00000000000E+00  0.00000000000E+00  0.25586174711E+03  0.51048946451E+03  0.44174003638E+03 0.  0.
      99925    2    3    3    0    0 -0.98471119183E+02  0.34335043793E+01  0.18461687364E+03  0.33604265209E+03  0.26293140499E+03 0.  0.
         25    1    4    4    0    0 -0.86997522330E+01  0.15137843697E+02  0.86834130153E+02  0.15327267943E+03  0.12509000000E+03 0.  0.
         25    1    4    4    0    0 -0.89771366950E+02 -0.11704339318E+02  0.97782743482E+02  0.18276997266E+03  0.12509000000E+03 0.  0.
         25    1    3    3    0    0  0.98471119183E+02 -0.34335043793E+01  0.71244873478E+02  0.17444681242E+03  0.12509000000E+03 0.  0.
<mgrwt>
<rscale>  2 0.44174004E+03</rscale>
<asrwt>0</asrwt>
<pdfrwt beam="1">  1       21 0.56349353E-01 0.44174004E+03</pdfrwt>
<pdfrwt beam="2">  1       21 0.18722626E-01 0.44174004E+03</pdfrwt>
<totfact> 0.71801613E+04</totfact>
</mgrwt>
</event>
<event>
 7    0  0.4788920E-002  0.4738596E+03  0.7546771E-02  0.1020836E+00
         21   -1    0    0  502  501  0.00000000000E+00  0.00000000000E+00  0.70509355958E+03  0.70509355958E+03  0.00000000000E+00 0.  1.
         21   -1    0    0  501  502 -0.00000000000E+00 -0.00000000000E+00 -0.79614582186E+02  0.79614582186E+02  0.00000000000E+00 0.  1.
      99926    2    1    2    0    0  0.00000000000E+00  0.00000000000E+00  0.62547897739E+03  0.78470814176E+03  0.47385959586E+03 0.  0.
      99925    2    3    3    0    0 -0.62399138627E+02  0.55978738985E+02  0.55193320299E+03  0.61712604024E+03  0.26303425111E+03 0.  0.
         25    1    3    3    0    0  0.62399138627E+02 -0.55978738985E+02  0.73545774402E+02  0.16758210153E+03  0.12509000000E+03 0.  0.
         25    1    4    4    0    0 -0.29212190498E+02  0.39406198614E+02  0.19258969579E+03  0.23482866006E+03  0.12509000000E+03 0.  0.
         25    1    4    4    0    0 -0.33186948129E+02  0.16572540370E+02  0.35934350720E+03  0.38229738017E+03  0.12509000000E+03 0.  0.
<mgrwt>
<rscale>  2 0.47385960E+03</rscale>
<asrwt>0</asrwt>
<pdfrwt beam="1">  1       21 0.10369023E+00 0.47385960E+03</pdfrwt>
<pdfrwt beam="2">  1       21 0.11708027E-01 0.47385960E+03</pdfrwt>
<totfact> 0.41950424E+04</totfact>
</mgrwt>
</event>
<event>
 7    0  0.4788920E-002  0.4602368E+03  0.7546771E-02  0.1024713E+00
         21   -1    0    0  502  501  0.00000000000E+00  0.00000000000E+00  0.64791742039E+03  0.64791742039E+03  0.00000000000E+00 0. -1.
         21   -1    0    0  501  502 -0.00000000000E+00 -0.00000000000E+00 -0.81730302442E+02  0.81730302442E+02  0.00000000000E+00 0. -1.
      99926    2    1    2    0    0 -0.17763568394E-14  0.17763568394E-14  0.56618711795E+03  0.72964772283E+03  0.46023683784E+03 0.  0.
      99925    2    3    3    0    0 -0.85922926081E+01 -0.71970032339E+01  0.16772996854E+03  0.31186640161E+03  0.26268171950E+03 0.  0.
         25    1    3    3    0    0  0.85922926081E+01  0.71970032339E+01  0.39845714941E+03  0.41778132123E+03  0.12509000000E+03 0.  0.
         25    1    4    4    0    0  0.16639359881E+02  0.26118140410E+02  0.62927709489E+02  0.14341000759E+03  0.12509000000E+03 0.  0.
         25    1    4    4    0    0 -0.25231652489E+02 -0.33315143643E+02  0.10480225905E+03  0.16845639402E+03  0.12509000000E+03 0.  0.
<mgrwt>
<rscale>  2 0.46023684E+03</rscale>
<asrwt>0</asrwt>
<pdfrwt beam="1">  1       21 0.95281971E-01 0.46023684E+03</pdfrwt>
<pdfrwt beam="2">  1       21 0.12019162E-01 0.46023684E+03</pdfrwt>
<totfact> 0.49262470E+04</totfact>
</mgrwt>
</event>
<event>
 7    0  0.4788920E-002  0.4617590E+03  0.7546771E-02  0.1024272E+00
         21   -1    0    0  502  501  0.00000000000E+00  0.00000000000E+00  0.33376971106E+02  0.33376971106E+02  0.00000000000E+00 0. -1.
         21   -1    0    0  501  502 -0.00000000000E+00 -0.00000000000E+00 -0.15970694330E+04  0.15970694330E+04  0.00000000000E+00 0. -1.
      99926    2    1    2    0    0 -0.14210854715E-13  0.00000000000E+00 -0.15636924619E+04  0.16304464041E+04  0.46175898613E+03 0.  0.
      99925    2    3    3    0    0  0.10322339402E+03  0.26688218475E+02 -0.78733107855E+03  0.83687735498E+03  0.26288048607E+03 0.  0.
         25    1    4    4    0    0  0.20336361416E+02 -0.30459042876E+01 -0.28866302114E+03  0.31527241078E+03  0.12509000000E+03 0.  0.
         25    1    3    3    0    0 -0.10322339402E+03 -0.26688218475E+02 -0.77636138330E+03  0.79356904908E+03  0.12509000000E+03 0.  0.
         25    1    4    4    0    0  0.82887032604E+02  0.29734122763E+02 -0.49866805741E+03  0.52160494420E+03  0.12509000000E+03 0.  0.
<mgrwt>
<rscale>  2 0.46175899E+03</rscale>
<asrwt>0</asrwt>
<pdfrwt beam="1">  1       21 0.49083787E-02 0.46175899E+03</pdfrwt>
<pdfrwt beam="2">  1       21 0.23486312E+00 0.46175899E+03</pdfrwt>
<totfact> 0.19696311E+04</totfact>
</mgrwt>
</event>
<event>
 7    0  0.4788920E-002  0.4259446E+03  0.7546771E-02  0.1035149E+00
         21   -1    0    0  502  501  0.00000000000E+00  0.00000000000E+00  0.79193418340E+02  0.79193418340E+02  0.00000000000E+00 0.  1.
         21   -1    0    0  501  502 -0.00000000000E+00 -0.00000000000E+00 -0.57273951929E+03  0.57273951929E+03  0.00000000000E+00 0.  1.
      99926    2    1    2    0    0  0.00000000000E+00  0.00000000000E+00 -0.49354610095E+03  0.65193293763E+03  0.42594459899E+03 0.  0.
      99925    2    3    3    0    0 -0.41051622618E+02  0.70455868797E+02 -0.29499828307E+03  0.40350184205E+03  0.26294578216E+03 0.  0.
         25    1    4    4    0    0 -0.23379314782E+02  0.44626515157E+02 -0.20822075070E+03  0.24807560810E+03  0.12509000000E+03 0.  0.
         25    1    4    4    0    0 -0.17672307836E+02  0.25829353640E+02 -0.86777532373E+02  0.15542623395E+03  0.12509000000E+03 0.  0.
         25    1    3    3    0    0  0.41051622618E+02 -0.70455868797E+02 -0.19854781788E+03  0.24843109559E+03  0.12509000000E+03 0.  0.
<mgrwt>
<rscale>  2 0.42594460E+03</rscale>
<asrwt>0</asrwt>
<pdfrwt beam="1">  1       21 0.11646091E-01 0.42594460E+03</pdfrwt>
<pdfrwt beam="2">  1       21 0.84226396E-01 0.42594460E+03</pdfrwt>
<totfact> 0.70375740E+04</totfact>
</mgrwt>
</event>
<event>
 7    0  0.4788920E-002  0.4503824E+03  0.7546771E-02  0.1027608E+00
         21   -1    0    0  502  501  0.00000000000E+00  0.00000000000E+00  0.46721964228E+03  0.46721964228E+03  0.00000000000E+00 0.  1.
         21   -1    0    0  501  502 -0.00000000000E+00 -0.00000000000E+00 -0.10853796167E+03  0.10853796167E+03  0.00000000000E+00 0.  1.
      99926    2    1    2    0    0  0.71054273576E-14 -0.17763568394E-14  0.35868168061E+03  0.57575760395E+03  0.45038236034E+03 0.  0.
      99925    2    3    3    0    0 -0.62809680056E+02 -0.11738993646E+02  0.11430290785E+03  0.29388644091E+03  0.26309926934E+03 0.  0.
         25    1    4    4    0    0  0.82507222059E+01 -0.16443960829E+02  0.45799503829E+02  0.13447520558E+03  0.12509000000E+03 0.  0.
         25    1    4    4    0    0 -0.71060402262E+02  0.47049671830E+01  0.68503404021E+02  0.15941123533E+03  0.12509000000E+03 0.  0.
         25    1    3    3    0    0  0.62809680056E+02  0.11738993646E+02  0.24437877276E+03  0.28187116304E+03  0.12509000000E+03 0.  0.
<mgrwt>
<rscale>  2 0.45038236E+03</rscale>
<asrwt>0</asrwt>
<pdfrwt beam="1">  1       21 0.68708770E-01 0.45038236E+03</pdfrwt>
<pdfrwt beam="2">  1       21 0.15961465E-01 0.45038236E+03</pdfrwt>
<totfact> 0.62444604E+04</totfact>
</mgrwt>
</event>
<event>
 7    0  0.4788920E-002  0.4552715E+03  0.7546771E-02  0.1026162E+00
         21   -1    0    0  502  501  0.00000000000E+00  0.00000000000E+00  0.14255696152E+04  0.14255696152E+04  0.00000000000E+00 0. -1.
         21   -1    0    0  501  502 -0.00000000000E+00 -0.00000000000E+00 -0.36349001208E+02  0.36349001208E+02  0.00000000000E+00 0. -1.
      99926    2    1    2    0    0 -0.11102230246E-15  0.00000000000E+00  0.13892206139E+04  0.14619186164E+04  0.45527148676E+03 0.  0.
      99925    2    3    3    0    0  0.65933611397E+00 -0.11341344521E+03  0.85698391714E+03  0.90354020184E+03  0.26286958330E+03 0.  0.
         25    1    4    4    0    0 -0.23789226707E+02 -0.75814081611E+02  0.36529115872E+03  0.39420659687E+03  0.12509000000E+03 0.  0.
         25    1    4    4    0    0  0.24448562821E+02 -0.37599363599E+02  0.49169275843E+03  0.50933360498E+03  0.12509000000E+03 0.  0.
         25    1    3    3    0    0 -0.65933611397E+00  0.11341344521E+03  0.53223669680E+03  0.55837841452E+03  0.12509000000E+03 0.  0.
<mgrwt>
<rscale>  2 0.45527149E+03</rscale>
<asrwt>0</asrwt>
<pdfrwt beam="1">  1       21 0.20964255E+00 0.45527149E+03</pdfrwt>
<pdfrwt beam="2">  1       21 0.53454423E-02 0.45527149E+03</pdfrwt>
<totfact> 0.24675461E+04</totfact>
</mgrwt>
</event>
<event>
 7    0  0.4788920E-002  0.4539810E+03  0.7546771E-02  0.1026541E+00
         21   -1    0    0  502  501  0.00000000000E+00  0.00000000000E+00  0.32907446191E+03  0.32907446191E+03  0.00000000000E+00 0. -1.
         21   -1    0    0  501  502 -0.00000000000E+00 -0.00000000000E+00 -0.15657454188E+03  0.15657454188E+03  0.00000000000E+00 0. -1.
      99926    2    1    2    0    0  0.00000000000E+00  0.00000000000E+00  0.17249992004E+03  0.48564900379E+03  0.45398098250E+03 0.  0.
      99925    2    3    3    0    0 -0.10447300192E+02  0.11040232766E+03  0.92650898898E+02  0.30038920159E+03  0.26334703973E+03 0.  0.
         25    1    4    4    0    0  0.26703316923E+00  0.88692178480E+02  0.22624660222E+02  0.15500244250E+03  0.12509000000E+03 0.  0.
         25    1    3    3    0    0  0.10447300192E+02 -0.11040232766E+03  0.79849021137E+02  0.18525980220E+03  0.12509000000E+03 0.  0.
         25    1    4    4    0    0 -0.10714333361E+02  0.21710149178E+02  0.70026238676E+02  0.14538675909E+03  0.12509000000E+03 0.  0.
<mgrwt>
<rscale>  2 0.45398098E+03</rscale>
<asrwt>0</asrwt>
<pdfrwt beam="1">  1       21 0.48393303E-01 0.45398098E+03</pdfrwt>
<pdfrwt beam="2">  1       21 0.23025668E-01 0.45398098E+03</pdfrwt>
<totfact> 0.66830126E+04</totfact>
</mgrwt>
</event>
<event>
 7    0  0.4788920E-002  0.4477836E+03  0.7546771E-02  0.1028385E+00
         21   -1    0    0  502  501  0.00000000000E+00  0.00000000000E+00  0.15658187267E+04  0.15658187267E+04  0.00000000000E+00 0.  1.
         21   -1    0    0  501  502 -0.00000000000E+00 -0.00000000000E+00 -0.32013634588E+02  0.32013634588E+02  0.00000000000E+00 0.  1.
      99926    2    1    2    0    0  0.00000000000E+00  0.00000000000E+00  0.15338050921E+04  0.15978323613E+04  0.44778364663E+03 0.  0.
      99925    2    3    3    0    0 -0.45402477271E+01  0.91816508800E+02  0.11620407917E+04  0.11949588225E+04  0.26293896749E+03 0.  0.
         25    1    3    3    0    0  0.45402477271E+01 -0.91816508800E+02  0.37176430037E+03  0.40287353880E+03  0.12509000000E+03 0.  0.
         25    1    4    4    0    0 -0.11111419317E+02  0.86454930881E+02  0.59512327564E+03  0.61434285218E+03  0.12509000000E+03 0.  0.
         25    1    4    4    0    0  0.65711715894E+01  0.53615779183E+01  0.56691751607E+03  0.58061597028E+03  0.12509000000E+03 0.  0.
<mgrwt>
<rscale>  2 0.44778365E+03</rscale>
<asrwt>0</asrwt>
<pdfrwt beam="1">  1       21 0.23026741E+00 0.44778365E+03</pdfrwt>
<pdfrwt beam="2">  1       21 0.47078885E-02 0.44778365E+03</pdfrwt>
<totfact> 0.22725850E+04</totfact>
</mgrwt>
</event>
<event>
 7    0  0.4788920E-002  0.4405703E+03  0.7546771E-02  0.1030572E+00
         21   -1    0    0  502  501  0.00000000000E+00  0.00000000000E+00  0.72332341108E+02  0.72332341108E+02  0.00000000000E+00 0.  1.
         21   -1    0    0  501  502 -0.00000000000E+00 -0.00000000000E+00 -0.67086939933E+03  0.67086939933E+03  0.00000000000E+00 0.  1.
      99926    2    1    2    0    0  0.00000000000E+00  0.00000000000E+00 -0.59853705822E+03  0.74320174043E+03  0.44057033141E+03 0.  0.
      99925    2    3    3    0    0 -0.15865938284E+02  0.85301986696E+02 -0.46242894115E+03  0.53899330632E+03  0.26295456206E+03 0.  0.
         25    1    3    3    0    0  0.15865938284E+02 -0.85301986696E+02 -0.13610811707E+03  0.20420843411E+03  0.12509000000E+03 0.  0.
         25    1    4    4    0    0 -0.61665706832E+01  0.75160476392E+02 -0.19712104322E+03  0.24533922961E+03  0.12509000000E+03 0.  0.
         25    1    4    4    0    0 -0.96993676009E+01  0.10141510304E+02 -0.26530789793E+03  0.29365407671E+03  0.12509000000E+03 0.  0.
<mgrwt>
<rscale>  2 0.44057033E+03</rscale>
<asrwt>0</asrwt>
<pdfrwt beam="1">  1       21 0.10637109E-01 0.44057033E+03</pdfrwt>
<pdfrwt beam="2">  1       21 0.98657264E-01 0.44057033E+03</pdfrwt>
<totfact> 0.56792219E+04</totfact>
</mgrwt>
</event>
<event>
 7    0  0.4788920E-002  0.4567517E+03  0.7546771E-02  0.1025728E+00
         21   -1    0    0  502  501  0.00000000000E+00  0.00000000000E+00  0.38182909462E+03  0.38182909462E+03  0.00000000000E+00 0. -1.
         21   -1    0    0  501  502 -0.00000000000E+00 -0.00000000000E+00 -0.13659389924E+03  0.13659389924E+03  0.00000000000E+00 0. -1.
      99926    2    1    2    0    0  0.71054273576E-14  0.00000000000E+00  0.24523519539E+03  0.51842299386E+03  0.45675168254E+03 0.  0.
      99925    2    3    3    0    0  0.47804926583E+02 -0.10398500996E+03  0.16264236584E+03  0.32983010721E+03  0.26312956343E+03 0.  0.
         25    1    4    4    0    0  0.42216744223E+02 -0.15513368454E+02  0.86997032354E+02  0.15886758584E+03  0.12509000000E+03 0.  0.
         25    1    3    3    0    0 -0.47804926583E+02  0.10398500996E+03  0.82592829552E+02  0.18859288665E+03  0.12509000000E+03 0.  0.
         25    1    4    4    0    0  0.55881823597E+01 -0.88471641507E+02  0.75645333483E+02  0.17096252136E+03  0.12509000000E+03 0.  0.
<mgrwt>
<rscale>  2 0.45675168E+03</rscale>
<asrwt>0</asrwt>
<pdfrwt beam="1">  1       21 0.56151337E-01 0.45675168E+03</pdfrwt>
<pdfrwt beam="2">  1       21 0.20087338E-01 0.45675168E+03</pdfrwt>
<totfact> 0.63113084E+04</totfact>
</mgrwt>
</event>
<event>
 7    0  0.4788920E-002  0.4860807E+03  0.7546771E-02  0.1017477E+00
         21   -1    0    0  502  501  0.00000000000E+00  0.00000000000E+00  0.26575551541E+04  0.26575551541E+04  0.00000000000E+00 0.  1.
         21   -1    0    0  501  502 -0.00000000000E+00 -0.00000000000E+00 -0.22226675356E+02  0.22226675356E+02  0.00000000000E+00 0.  1.
      99926    2    1    2    0    0  0.00000000000E+00  0.14210854715E-13  0.26353284787E+04  0.26797818295E+04  0.48608071614E+03 0.  0.
      99925    2    3    3    0    0 -0.28415581287E+02 -0.11369729074E+03  0.11909602743E+04  0.12252779493E+04  0.26303071870E+03 0.  0.
         25    1    4    4    0    0 -0.10285487028E+02 -0.20819172821E+02  0.43536050786E+03  0.45356974007E+03  0.12509000000E+03 0.  0.
         25    1    3    3    0    0  0.28415581287E+02  0.11369729074E+03  0.14443682045E+04  0.14545038801E+04  0.12509000000E+03 0.  0.
         25    1    4    4    0    0 -0.18130094260E+02 -0.92878117921E+02  0.75559976644E+03  0.77170820926E+03  0.12509000000E+03 0.  0.
<mgrwt>
<rscale>  2 0.48608072E+03</rscale>
<asrwt>0</asrwt>
<pdfrwt beam="1">  1       21 0.39081672E+00 0.48608072E+03</pdfrwt>
<pdfrwt beam="2">  1       21 0.32686306E-02 0.48608072E+03</pdfrwt>
<totfact> 0.43195324E+03</totfact>
</mgrwt>
</event>
<event>
 7    0  0.4788920E-002  0.4408841E+03  0.7546771E-02  0.1030476E+00
         21   -1    0    0  502  501  0.00000000000E+00  0.00000000000E+00  0.74334314889E+02  0.74334314889E+02  0.00000000000E+00 0. -1.
         21   -1    0    0  501  502 -0.00000000000E+00 -0.00000000000E+00 -0.65373157967E+03  0.65373157967E+03  0.00000000000E+00 0. -1.
      99926    2    1    2    0    0  0.00000000000E+00  0.00000000000E+00 -0.57939726478E+03  0.72806589456E+03  0.44088406229E+03 0.  0.
      99925    2    3    3    0    0 -0.76191258765E+02  0.28342536348E+02 -0.27560377818E+03  0.38961885604E+03  0.26312925181E+03 0.  0.
         25    1    4    4    0    0 -0.21867122246E+02  0.42492642514E+02 -0.10160772769E+03  0.16809352792E+03  0.12509000000E+03 0.  0.
         25    1    3    3    0    0  0.76191258765E+02 -0.28342536348E+02 -0.30379348660E+03  0.33844703852E+03  0.12509000000E+03 0.  0.
         25    1    4    4    0    0 -0.54324136519E+02 -0.14150106166E+02 -0.17399605049E+03  0.22152532812E+03  0.12509000000E+03 0.  0.
<mgrwt>
<rscale>  2 0.44088406E+03</rscale>
<asrwt>0</asrwt>
<pdfrwt beam="1">  1       21 0.10931517E-01 0.44088406E+03</pdfrwt>
<pdfrwt beam="2">  1       21 0.96136998E-01 0.44088406E+03</pdfrwt>
<totfact> 0.57530697E+04</totfact>
</mgrwt>
</event>
<event>
 7    0  0.4788920E-002  0.4421950E+03  0.7546771E-02  0.1030075E+00
         21   -1    0    0  502  501  0.00000000000E+00  0.00000000000E+00  0.21678610672E+03  0.21678610672E+03  0.00000000000E+00 0. -1.
         21   -1    0    0  501  502 -0.00000000000E+00 -0.00000000000E+00 -0.22549459878E+03  0.22549459878E+03  0.00000000000E+00 0. -1.
      99926    2    1    2    0    0  0.00000000000E+00  0.00000000000E+00 -0.87084920529E+01  0.44228070550E+03  0.44219496223E+03 0.  0.
      99925    2    3    3    0    0 -0.38644855417E+02 -0.81074715473E+02 -0.51080768538E+02  0.28256391786E+03  0.26299541521E+03 0.  0.
         25    1    3    3    0    0  0.38644855417E+02  0.81074715473E+02  0.42372276485E+02  0.15971678764E+03  0.12509000000E+03 0.  0.
         25    1    4    4    0    0  0.60554688650E+01 -0.62148232395E+02 -0.24064209339E+01  0.13982979101E+03  0.12509000000E+03 0.  0.
         25    1    4    4    0    0 -0.44700324282E+02 -0.18926483079E+02 -0.48674347604E+02  0.14273412685E+03  0.12509000000E+03 0.  0.
<mgrwt>
<rscale>  2 0.44219496E+03</rscale>
<asrwt>0</asrwt>
<pdfrwt beam="1">  1       21 0.31880310E-01 0.44219496E+03</pdfrwt>
<pdfrwt beam="2">  1       21 0.33160970E-01 0.44219496E+03</pdfrwt>
<totfact> 0.77065814E+04</totfact>
</mgrwt>
</event>
<event>
 7    0  0.4788920E-002  0.4543803E+03  0.7546771E-02  0.1026424E+00
         21   -1    0    0  502  501  0.00000000000E+00  0.00000000000E+00  0.75894438381E+02  0.75894438381E+02  0.00000000000E+00 0.  1.
         21   -1    0    0  501  502 -0.00000000000E+00 -0.00000000000E+00 -0.68009423134E+03  0.68009423134E+03  0.00000000000E+00 0.  1.
      99926    2    1    2    0    0 -0.14210854715E-13  0.17763568394E-14 -0.60419979296E+03  0.75598866972E+03  0.45438032411E+03 0.  0.
      99925    2    3    3    0    0  0.11000839912E+03  0.10068407280E+02 -0.34446566042E+03  0.44726136544E+03  0.26302645705E+03 0.  0.
         25    1    4    4    0    0  0.32519547667E+02 -0.30056441590E+02 -0.15543807762E+03  0.20437567061E+03  0.12509000000E+03 0.  0.
         25    1    4    4    0    0  0.77488851454E+02  0.40124848870E+02 -0.18902758280E+03  0.24288569484E+03  0.12509000000E+03 0.  0.
         25    1    3    3    0    0 -0.11000839912E+03 -0.10068407280E+02 -0.25973413254E+03  0.30872730428E+03  0.12509000000E+03 0.  0.
<mgrwt>
<rscale>  2 0.45438032E+03</rscale>
<asrwt>0</asrwt>
<pdfrwt beam="1">  1       21 0.11160947E-01 0.45438032E+03</pdfrwt>
<pdfrwt beam="2">  1       21 0.10001386E+00 0.45438032E+03</pdfrwt>
<totfact> 0.50210348E+04</totfact>
</mgrwt>
</event>
<event>
 7    0  0.4788920E-002  0.4514889E+03  0.7546771E-02  0.1027279E+00
         21   -1    0    0  502  501  0.00000000000E+00  0.00000000000E+00  0.42951061769E+03  0.42951061769E+03  0.00000000000E+00 0. -1.
         21   -1    0    0  501  502 -0.00000000000E+00 -0.00000000000E+00 -0.11864794038E+03  0.11864794038E+03  0.00000000000E+00 0. -1.
      99926    2    1    2    0    0  0.00000000000E+00  0.00000000000E+00  0.31086267731E+03  0.54815855807E+03  0.45148887100E+03 0.  0.
      99925    2    3    3    0    0 -0.79404941398E+02  0.52253875389E+02  0.12970218816E+03  0.30836230468E+03  0.26311412186E+03 0.  0.
         25    1    4    4    0    0 -0.85878553963E+01  0.36421065392E+02  0.33907546702E+02  0.13489801736E+03  0.12509000000E+03 0.  0.
         25    1    3    3    0    0  0.79404941398E+02 -0.52253875389E+02  0.18116048915E+03  0.23979625339E+03  0.12509000000E+03 0.  0.
         25    1    4    4    0    0 -0.70817086002E+02  0.15832809997E+02  0.95794641458E+02  0.17346428732E+03  0.12509000000E+03 0.  0.
<mgrwt>
<rscale>  2 0.45148887E+03</rscale>
<asrwt>0</asrwt>
<pdfrwt beam="1">  1       21 0.63163326E-01 0.45148887E+03</pdfrwt>
<pdfrwt beam="2">  1       21 0.17448227E-01 0.45148887E+03</pdfrwt>
<totfact> 0.63740761E+04</totfact>
</mgrwt>
</event>
<event>
 7    0  0.4788920E-002  0.4512539E+03  0.7546771E-02  0.1027349E+00
         21   -1    0    0  502  501  0.00000000000E+00  0.00000000000E+00  0.16104891353E+03  0.16104891353E+03  0.00000000000E+00 0. -1.
         21   -1    0    0  501  502 -0.00000000000E+00 -0.00000000000E+00 -0.31609969227E+03  0.31609969227E+03  0.00000000000E+00 0. -1.
      99926    2    1    2    0    0  0.00000000000E+00  0.00000000000E+00 -0.15505077874E+03  0.47714860579E+03  0.45125386206E+03 0.  0.
      99925    2    3    3    0    0 -0.57954945555E+02 -0.82210017486E+02 -0.14400225732E+03  0.31625472581E+03  0.26298885679E+03 0.  0.
         25    1    4    4    0    0 -0.27101021682E+02 -0.82834204004E+02 -0.71146378988E+02  0.16824174890E+03  0.12509000000E+03 0.  0.
         25    1    4    4    0    0 -0.30853923873E+02  0.62418651820E+00 -0.72855878336E+02  0.14801297692E+03  0.12509000000E+03 0.  0.
         25    1    3    3    0    0  0.57954945555E+02  0.82210017486E+02 -0.11048521414E+02  0.16089387998E+03  0.12509000000E+03 0.  0.
<mgrwt>
<rscale>  2 0.45125386E+03</rscale>
<asrwt>0</asrwt>
<pdfrwt beam="1">  1       21 0.23683664E-01 0.45125386E+03</pdfrwt>
<pdfrwt beam="2">  1       21 0.46485248E-01 0.45125386E+03</pdfrwt>
<totfact> 0.68935284E+04</totfact>
</mgrwt>
</event>
<event>
 7    0  0.4788920E-002  0.4507915E+03  0.7546771E-02  0.1027486E+00
         21   -1    0    0  502  501  0.00000000000E+00  0.00000000000E+00  0.83308189751E+02  0.83308189751E+02  0.00000000000E+00 0.  1.
         21   -1    0    0  501  502 -0.00000000000E+00 -0.00000000000E+00 -0.60982301776E+03  0.60982301776E+03  0.00000000000E+00 0.  1.
      99926    2    1    2    0    0  0.17763568394E-14 -0.71054273576E-14 -0.52651482801E+03  0.69313120751E+03  0.45079153354E+03 0.  0.
      99925    2    3    3    0    0 -0.10185526595E+02 -0.47670106689E+02 -0.48278390378E+03  0.55193600272E+03  0.26301496025E+03 0.  0.
         25    1    3    3    0    0  0.10185526595E+02  0.47670106689E+02 -0.43730924226E+02  0.14119520480E+03  0.12509000000E+03 0.  0.
         25    1    4    4    0    0 -0.84336264528E+01 -0.41009569331E+02 -0.32297914885E+03  0.34887812990E+03  0.12509000000E+03 0.  0.
         25    1    4    4    0    0 -0.17519001425E+01 -0.66605373580E+01 -0.15980475494E+03  0.20305787281E+03  0.12509000000E+03 0.  0.
<mgrwt>
<rscale>  2 0.45079153E+03</rscale>
<asrwt>0</asrwt>
<pdfrwt beam="1">  1       21 0.12251204E-01 0.45079153E+03</pdfrwt>
<pdfrwt beam="2">  1       21 0.89679859E-01 0.45079153E+03</pdfrwt>
<totfact> 0.55079521E+04</totfact>
</mgrwt>
</event>
<event>
 7    0  0.4788920E-002  0.4536043E+03  0.7546771E-02  0.1026653E+00
         21   -1    0    0  502  501  0.00000000000E+00  0.00000000000E+00  0.36880949943E+03  0.36880949943E+03  0.00000000000E+00 0.  1.
         21   -1    0    0  501  502 -0.00000000000E+00 -0.00000000000E+00 -0.13947368316E+03  0.13947368316E+03  0.00000000000E+00 0.  1.
      99926    2    1    2    0    0  0.00000000000E+00  0.00000000000E+00  0.22933581627E+03  0.50828318259E+03  0.45360431774E+03 0.  0.
      99925    2    3    3    0    0  0.99460385257E+02 -0.43024695671E+02  0.17582320425E+03  0.33434468651E+03  0.26292409089E+03 0.  0.
         25    1    3    3    0    0 -0.99460385257E+02  0.43024695671E+02  0.53512612023E+02  0.17393849608E+03  0.12509000000E+03 0.  0.
         25    1    4    4    0    0  0.24641370241E+02 -0.25353364783E+02  0.44609716933E+02  0.13743189287E+03  0.12509000000E+03 0.  0.
         25    1    4    4    0    0  0.74819015016E+02 -0.17671330888E+02  0.13121348732E+03  0.19691279364E+03  0.12509000000E+03 0.  0.
<mgrwt>
<rscale>  2 0.45360432E+03</rscale>
<asrwt>0</asrwt>
<pdfrwt beam="1">  1       21 0.54236691E-01 0.45360432E+03</pdfrwt>
<pdfrwt beam="2">  1       21 0.20510836E-01 0.45360432E+03</pdfrwt>
<totfact> 0.65414155E+04</totfact>
</mgrwt>
</event>
<event>
 7    0  0.4788920E-002  0.4409969E+03  0.7546771E-02  0.1030441E+00
         21   -1    0    0  502  501  0.00000000000E+00  0.00000000000E+00  0.55600490105E+02  0.55600490105E+02  0.00000000000E+00 0. -1.
         21   -1    0    0  501  502 -0.00000000000E+00 -0.00000000000E+00 -0.87444483347E+03  0.87444483347E+03  0.00000000000E+00 0. -1.
      99926    2    1    2    0    0  0.00000000000E+00  0.00000000000E+00 -0.81884434337E+03  0.93004532358E+03  0.44099687668E+03 0.  0.
      99925    2    3    3    0    0 -0.88340819693E+02  0.33000723448E+02 -0.58973426727E+03  0.65249878110E+03  0.26282124186E+03 0.  0.
         25    1    3    3    0    0  0.88340819693E+02 -0.33000723448E+02 -0.22911007610E+03  0.27754654248E+03  0.12509000000E+03 0.  0.
         25    1    4    4    0    0 -0.35179947304E+02 -0.52001008761E+01 -0.36090232559E+03  0.38361786515E+03  0.12509000000E+03 0.  0.
         25    1    4    4    0    0 -0.53160872389E+02  0.38200824324E+02 -0.22883194168E+03  0.26888091595E+03  0.12509000000E+03 0.  0.
<mgrwt>
<rscale>  2 0.44099688E+03</rscale>
<asrwt>0</asrwt>
<pdfrwt beam="1">  1       21 0.81765432E-02 0.44099688E+03</pdfrwt>
<pdfrwt beam="2">  1       21 0.12859482E+00 0.44099688E+03</pdfrwt>
<totfact> 0.46888145E+04</totfact>
</mgrwt>
</event>
<event>
 7    0  0.4788920E-002  0.4522275E+03  0.7546771E-02  0.1027060E+00
         21   -1    0    0  502  501  0.00000000000E+00  0.00000000000E+00  0.38692947726E+03  0.38692947726E+03  0.00000000000E+00 0. -1.
         21   -1    0    0  501  502 -0.00000000000E+00 -0.00000000000E+00 -0.13213631613E+03  0.13213631613E+03  0.00000000000E+00 0. -1.
      99926    2    1    2    0    0 -0.35527136788E-14  0.00000000000E+00  0.25479316113E+03  0.51906579339E+03  0.45222753444E+03 0.  0.
      99925    2    3    3    0    0 -0.25614189138E+02 -0.33250537127E+02  0.43161448353E+02  0.26967217908E+03  0.26286591380E+03 0.  0.
         25    1    3    3    0    0  0.25614189138E+02  0.33250537127E+02  0.21163171278E+03  0.24939361431E+03  0.12509000000E+03 0.  0.
         25    1    4    4    0    0 -0.54358498982E+01 -0.40626448030E+02 -0.10115327183E+02  0.13202228860E+03  0.12509000000E+03 0.  0.
         25    1    4    4    0    0 -0.20178339240E+02  0.73759109032E+01  0.53276775536E+02  0.13764989047E+03  0.12509000000E+03 0.  0.
<mgrwt>
<rscale>  2 0.45222753E+03</rscale>
<asrwt>0</asrwt>
<pdfrwt beam="1">  1       21 0.56901393E-01 0.45222753E+03</pdfrwt>
<pdfrwt beam="2">  1       21 0.19431811E-01 0.45222753E+03</pdfrwt>
<totfact> 0.65377173E+04</totfact>
</mgrwt>
</event>
<event>
 7    0  0.4788920E-002  0.4207303E+03  0.7546771E-02  0.1036829E+00
         21   -1    0    0  502  501  0.00000000000E+00  0.00000000000E+00  0.15261286902E+03  0.15261286902E+03  0.00000000000E+00 0.  1.
         21   -1    0    0  501  502 -0.00000000000E+00 -0.00000000000E+00 -0.28997219092E+03  0.28997219092E+03  0.00000000000E+00 0.  1.
      99926    2    1    2    0    0  0.00000000000E+00  0.00000000000E+00 -0.13735932189E+03  0.44258505994E+03  0.42073026035E+03 0.  0.
      99925    2    3    3    0    0 -0.48952463188E+01 -0.73188300914E+02 -0.65671824173E+02  0.28082259131E+03  0.26299819101E+03 0.  0.
         25    1    3    3    0    0  0.48952463188E+01  0.73188300914E+02 -0.71687497717E+02  0.16176246863E+03  0.12509000000E+03 0.  0.
         25    1    4    4    0    0 -0.14403540163E+02 -0.76558586772E+02 -0.30446170367E+02  0.15047643193E+03  0.12509000000E+03 0.  0.
         25    1    4    4    0    0  0.95082938440E+01  0.33702858574E+01 -0.35225653806E+02  0.13034615938E+03  0.12509000000E+03 0.  0.
<mgrwt>
<rscale>  2 0.42073026E+03</rscale>
<asrwt>0</asrwt>
<pdfrwt beam="1">  1       21 0.22443069E-01 0.42073026E+03</pdfrwt>
<pdfrwt beam="2">  1       21 0.42642969E-01 0.42073026E+03</pdfrwt>
<totfact> 0.92147818E+04</totfact>
</mgrwt>
</event>
<event>
 7    0  0.4788920E-002  0.4360676E+03  0.7546771E-02  0.1031960E+00
         21   -1    0    0  502  501  0.00000000000E+00  0.00000000000E+00  0.54642215501E+03  0.54642215501E+03  0.00000000000E+00 0.  1.
         21   -1    0    0  501  502 -0.00000000000E+00 -0.00000000000E+00 -0.86999999567E+02  0.86999999567E+02  0.00000000000E+00 0.  1.
      99926    2    1    2    0    0  0.35527136788E-14  0.00000000000E+00  0.45942215544E+03  0.63342215457E+03  0.43606755096E+03 0.  0.
      99925    2    3    3    0    0 -0.31547724577E+02  0.86401445989E+02  0.32490423517E+03  0.42798835071E+03  0.26296539225E+03 0.  0.
         25    1    3    3    0    0  0.31547724577E+02 -0.86401445989E+02  0.13451792027E+03  0.20543380386E+03  0.12509000000E+03 0.  0.
         25    1    4    4    0    0  0.17031965322E+02  0.63558396856E+02  0.14627715462E+03  0.20340666586E+03  0.12509000000E+03 0.  0.
         25    1    4    4    0    0 -0.48579689900E+02  0.22843049133E+02  0.17862708055E+03  0.22458168485E+03  0.12509000000E+03 0.  0.
<mgrwt>
<rscale>  2 0.43606755E+03</rscale>
<asrwt>0</asrwt>
<pdfrwt beam="1">  1       21 0.80356198E-01 0.43606755E+03</pdfrwt>
<pdfrwt beam="2">  1       21 0.12794118E-01 0.43606755E+03</pdfrwt>
<totfact> 0.65986610E+04</totfact>
</mgrwt>
</event>
<event>
 6    0  0.4788920E-002  0.4590605E+03  0.7546771E-02  0.1025054E+00
         21   -1    0    0  502  501  0.00000000000E+00  0.00000000000E+00  0.41342222327E+02  0.41342222327E+02  0.00000000000E+00 0.  1.
         21   -1    0    0  501  502 -0.00000000000E+00 -0.00000000000E+00 -0.12743423500E+04  0.12743423500E+04  0.00000000000E+00 0.  1.
      99926    2    1    2    0    0  0.00000000000E+00 -0.13322676296E-14 -0.12330001277E+04  0.13156845724E+04  0.45906053961E+03 0.  0.
         25    1    3    3    0    0  0.63929240689E+02  0.25074413413E+01 -0.72640009994E+03  0.73986339845E+03  0.12509000000E+03 0.  0.
         25    1    3    3    0    0 -0.61695041747E+02 -0.29043001473E+02 -0.22167782678E+03  0.26351155781E+03  0.12509000000E+03 0.  0.
         25    1    3    3    0    0 -0.22341989413E+01  0.26535560131E+02 -0.28492220100E+03  0.31230961612E+03  0.12509000000E+03 0.  0.
<mgrwt>
<rscale>  2 0.45906054E+03</rscale>
<asrwt>0</asrwt>
<pdfrwt beam="1">  1       21 0.60797381E-02 0.45906054E+03</pdfrwt>
<pdfrwt beam="2">  1       21 0.18740330E+00 0.45906054E+03</pdfrwt>
<totfact> 0.27775130E+04</totfact>
</mgrwt>
</event>
<event>
 7    0  0.4788920E-002  0.4573025E+03  0.7546771E-02  0.1025566E+00
         21   -1    0    0  502  501  0.00000000000E+00  0.00000000000E+00  0.48302336282E+03  0.48302336282E+03  0.00000000000E+00 0. -1.
         21   -1    0    0  501  502 -0.00000000000E+00 -0.00000000000E+00 -0.10823780194E+03  0.10823780194E+03  0.00000000000E+00 0. -1.
      99926    2    1    2    0    0  0.71054273576E-14 -0.71054273576E-14  0.37478556088E+03  0.59126116477E+03  0.45730246918E+03 0.  0.
      99925    2    3    3    0    0 -0.47620897019E+02  0.55177244240E+02  0.35092742894E+03  0.44453353726E+03  0.26295955439E+03 0.  0.
         25    1    3    3    0    0  0.47620897019E+02 -0.55177244240E+02  0.23858131937E+02  0.14672762751E+03  0.12509000000E+03 0.  0.
         25    1    4    4    0    0 -0.78121895547E+01  0.29788715245E+02  0.23305386310E+03  0.26628933337E+03  0.12509000000E+03 0.  0.
         25    1    4    4    0    0 -0.39808707464E+02  0.25388528996E+02  0.11787356585E+03  0.17824420389E+03  0.12509000000E+03 0.  0.
<mgrwt>
<rscale>  2 0.45730247E+03</rscale>
<asrwt>0</asrwt>
<pdfrwt beam="1">  1       21 0.71032847E-01 0.45730247E+03</pdfrwt>
<pdfrwt beam="2">  1       21 0.15917324E-01 0.45730247E+03</pdfrwt>
<totfact> 0.58153932E+04</totfact>
</mgrwt>
</event>
<event>
 7    0  0.4788920E-002  0.4562894E+03  0.7546771E-02  0.1025863E+00
         21   -1    0    0  502  501  0.00000000000E+00  0.00000000000E+00  0.20781781932E+03  0.20781781932E+03  0.00000000000E+00 0.  1.
         21   -1    0    0  501  502 -0.00000000000E+00 -0.00000000000E+00 -0.25045979856E+03  0.25045979856E+03  0.00000000000E+00 0.  1.
      99926    2    1    2    0    0  0.88817841970E-15  0.00000000000E+00 -0.42641979244E+02  0.45827761788E+03  0.45628942203E+03 0.  0.
      99925    2    3    3    0    0 -0.70642671797E+01 -0.82074612948E+02  0.52915909099E+02  0.28061230307E+03  0.26297723331E+03 0.  0.
         25    1    4    4    0    0  0.96108391481E+01 -0.43022497780E+02 -0.12469548070E+02  0.13321524415E+03  0.12509000000E+03 0.  0.
         25    1    3    3    0    0  0.70642671797E+01  0.82074612948E+02 -0.95557888343E+02  0.17766531481E+03  0.12509000000E+03 0.  0.
         25    1    4    4    0    0 -0.16675106328E+02 -0.39052115168E+02  0.65385457169E+02  0.14739705892E+03  0.12509000000E+03 0.  0.
<mgrwt>
<rscale>  2 0.45628942E+03</rscale>
<asrwt>0</asrwt>
<pdfrwt beam="1">  1       21 0.30561444E-01 0.45628942E+03</pdfrwt>
<pdfrwt beam="2">  1       21 0.36832323E-01 0.45628942E+03</pdfrwt>
<totfact> 0.67608131E+04</totfact>
</mgrwt>
</event>
<event>
 7    0  0.4788920E-002  0.4516745E+03  0.7546771E-02  0.1027224E+00
         21   -1    0    0  502  501  0.00000000000E+00  0.00000000000E+00  0.38334476210E+02  0.38334476210E+02  0.00000000000E+00 0. -1.
         21   -1    0    0  501  502 -0.00000000000E+00 -0.00000000000E+00 -0.13304594275E+04  0.13304594275E+04  0.00000000000E+00 0. -1.
      99926    2    1    2    0    0  0.00000000000E+00  0.00000000000E+00 -0.12921249513E+04  0.13687939038E+04  0.45167450791E+03 0.  0.
      99925    2    3    3    0    0  0.98292224294E+02  0.47231012422E+02 -0.76643836774E+03  0.81753532363E+03  0.26276244775E+03 0.  0.
         25    1    4    4    0    0  0.48869994599E+02 -0.74959564078E+01 -0.44360692513E+03  0.46355051274E+03  0.12509000000E+03 0.  0.
         25    1    4    4    0    0  0.49422229695E+02  0.54726968830E+02 -0.32283144261E+03  0.35398481090E+03  0.12509000000E+03 0.  0.
         25    1    3    3    0    0 -0.98292224294E+02 -0.47231012422E+02 -0.52568658359E+03  0.55125858013E+03  0.12509000000E+03 0.  0.
<mgrwt>
<rscale>  2 0.45167451E+03</rscale>
<asrwt>0</asrwt>
<pdfrwt beam="1">  1       21 0.56374228E-02 0.45167451E+03</pdfrwt>
<pdfrwt beam="2">  1       21 0.19565580E+00 0.45167451E+03</pdfrwt>
<totfact> 0.27889528E+04</totfact>
</mgrwt>
</event>
<event>
 7    0  0.4788920E-002  0.4623550E+03  0.7546771E-02  0.1024100E+00
         21   -1    0    0  502  501  0.00000000000E+00  0.00000000000E+00  0.51081319252E+03  0.51081319252E+03  0.00000000000E+00 0.  1.
         21   -1    0    0  501  502 -0.00000000000E+00 -0.00000000000E+00 -0.10462342386E+03  0.10462342386E+03  0.00000000000E+00 0.  1.
      99926    2    1    2    0    0  0.14210854715E-13  0.00000000000E+00  0.40618976866E+03  0.61543661638E+03  0.46235495089E+03 0.  0.
      99925    2    3    3    0    0  0.95085451247E+02 -0.65102592465E+02  0.20935454670E+03  0.35529972301E+03  0.26292389843E+03 0.  0.
         25    1    4    4    0    0  0.17940002452E+02 -0.41020445737E+02  0.13279657402E+03  0.18784823350E+03  0.12509000000E+03 0.  0.
         25    1    4    4    0    0  0.77145448796E+02 -0.24082146727E+02  0.76557972675E+02  0.16745148952E+03  0.12509000000E+03 0.  0.
         25    1    3    3    0    0 -0.95085451247E+02  0.65102592465E+02  0.19683522196E+03  0.26013689336E+03  0.12509000000E+03 0.  0.
<mgrwt>
<rscale>  2 0.46235495E+03</rscale>
<asrwt>0</asrwt>
<pdfrwt beam="1">  1       21 0.75119586E-01 0.46235495E+03</pdfrwt>
<pdfrwt beam="2">  1       21 0.15385798E-01 0.46235495E+03</pdfrwt>
<totfact> 0.54502351E+04</totfact>
</mgrwt>
</event>
<event>
 7    0  0.4788920E-002  0.4538255E+03  0.7546771E-02  0.1026587E+00
         21   -1    0    0  502  501  0.00000000000E+00  0.00000000000E+00  0.12024640092E+03  0.12024640092E+03  0.00000000000E+00 0. -1.
         21   -1    0    0  501  502 -0.00000000000E+00 -0.00000000000E+00 -0.42819912680E+03  0.42819912680E+03  0.00000000000E+00 0. -1.
      99926    2    1    2    0    0  0.00000000000E+00  0.71054273576E-14 -0.30795272588E+03  0.54844552772E+03  0.45382553420E+03 0.  0.
      99925    2    3    3    0    0  0.76687603831E+02  0.32604722300E+02 -0.28454370004E+03  0.39632864145E+03  0.26299661272E+03 0.  0.
         25    1    4    4    0    0  0.11552949379E+02  0.46962835549E+02 -0.13983600034E+03  0.19375395132E+03  0.12509000000E+03 0.  0.
         25    1    3    3    0    0 -0.76687603831E+02 -0.32604722300E+02 -0.23409025841E+02  0.15211688627E+03  0.12509000000E+03 0.  0.
         25    1    4    4    0    0  0.65134654452E+02 -0.14358113250E+02 -0.14470769971E+03  0.20257469013E+03  0.12509000000E+03 0.  0.
<mgrwt>
<rscale>  2 0.45382553E+03</rscale>
<asrwt>0</asrwt>
<pdfrwt beam="1">  1       21 0.17683294E-01 0.45382553E+03</pdfrwt>
<pdfrwt beam="2">  1       21 0.62970459E-01 0.45382553E+03</pdfrwt>
<totfact> 0.62548566E+04</totfact>
</mgrwt>
</event>
<event>
 7    0  0.4788920E-002  0.4521360E+03  0.7546771E-02  0.1027087E+00
         21   -1    0    0  502  501  0.00000000000E+00  0.00000000000E+00  0.41381690104E+03  0.41381690104E+03  0.00000000000E+00 0. -1.
         21   -1    0    0  501  502 -0.00000000000E+00 -0.00000000000E+00 -0.12350085928E+03  0.12350085928E+03  0.00000000000E+00 0. -1.
      99926    2    1    2    0    0  0.71054273576E-14  0.00000000000E+00  0.29031604176E+03  0.53731776032E+03  0.45213600990E+03 0.  0.
      99925    2    3    3    0    0 -0.57380769153E+02  0.58168529313E+02  0.27144631807E+03  0.38671993482E+03  0.26304576394E+03 0.  0.
         25    1    3    3    0    0  0.57380769153E+02 -0.58168529313E+02  0.18869723698E+02  0.15059782549E+03  0.12509000000E+03 0.  0.
         25    1    4    4    0    0  0.93569411316E+01  0.11620419827E+02  0.11620461567E+03  0.17138730206E+03  0.12509000000E+03 0.  0.
         25    1    4    4    0    0 -0.66737710284E+02  0.46548109486E+02  0.15524170239E+03  0.21533263276E+03  0.12509000000E+03 0.  0.
<mgrwt>
<rscale>  2 0.45213601E+03</rscale>
<asrwt>0</asrwt>
<pdfrwt beam="1">  1       21 0.60855426E-01 0.45213601E+03</pdfrwt>
<pdfrwt beam="2">  1       21 0.18161891E-01 0.45213601E+03</pdfrwt>
<totfact> 0.64154278E+04</totfact>
</mgrwt>
</event>
<event>
 7    0  0.4788920E-002  0.4566950E+03  0.7546771E-02  0.1025744E+00
         21   -1    0    0  502  501  0.00000000000E+00  0.00000000000E+00  0.14796472066E+03  0.14796472066E+03  0.00000000000E+00 0.  1.
         21   -1    0    0  501  502 -0.00000000000E+00 -0.00000000000E+00 -0.35239879941E+03  0.35239879941E+03  0.00000000000E+00 0.  1.
      99926    2    1    2    0    0  0.00000000000E+00  0.00000000000E+00 -0.20443407875E+03  0.50036352006E+03  0.45669504010E+03 0.  0.
      99925    2    3    3    0    0 -0.77660496505E+02 -0.81284779422E+02 -0.10382052329E+03  0.30438147056E+03  0.26311786424E+03 0.  0.
         25    1    4    4    0    0 -0.36514608625E+02 -0.40217685569E+02 -0.94918804931E+02  0.16615615097E+03  0.12509000000E+03 0.  0.
         25    1    3    3    0    0  0.77660496505E+02  0.81284779422E+02 -0.10061355547E+03  0.19598204950E+03  0.12509000000E+03 0.  0.
         25    1    4    4    0    0 -0.41145887881E+02 -0.41067093853E+02 -0.89017183548E+01  0.13822531959E+03  0.12509000000E+03 0.  0.
<mgrwt>
<rscale>  2 0.45669504E+03</rscale>
<asrwt>0</asrwt>
<pdfrwt beam="1">  1       21 0.21759518E-01 0.45669504E+03</pdfrwt>
<pdfrwt beam="2">  1       21 0.51823352E-01 0.45669504E+03</pdfrwt>
<totfact> 0.64374572E+04</totfact>
</mgrwt>
</event>
<event>
 7    0  0.4788920E-002  0.4607992E+03  0.7546771E-02  0.1024550E+00
         21   -1    0    0  502  501  0.00000000000E+00  0.00000000000E+00  0.23063225264E+03  0.23063225264E+03  0.00000000000E+00 0.  1.
         21   -1    0    0  501  502 -0.00000000000E+00 -0.00000000000E+00 -0.23016714037E+03  0.23016714037E+03  0.00000000000E+00 0.  1.
      99926    2    1    2    0    0 -0.14210854715E-13 -0.71054273576E-14  0.46511226784E+00  0.46079939302E+03  0.46079915828E+03 0.  0.
      99925    2    3    3    0    0  0.92244175626E+02  0.54838714565E+02  0.50723854440E+02  0.28849233623E+03  0.26294228664E+03 0.  0.
         25    1    3    3    0    0 -0.92244175626E+02 -0.54838714565E+02 -0.50258742172E+02  0.17230705678E+03  0.12509000000E+03 0.  0.
         25    1    4    4    0    0  0.17525905921E+02 -0.22774802576E+01  0.97022358109E+01  0.12670432421E+03  0.12509000000E+03 0.  0.
         25    1    4    4    0    0  0.74718269705E+02  0.57116194822E+02  0.41021618629E+02  0.16178801202E+03  0.12509000000E+03 0.  0.
<mgrwt>
<rscale>  2 0.46079916E+03</rscale>
<asrwt>0</asrwt>
<pdfrwt beam="1">  1       21 0.33916508E-01 0.46079916E+03</pdfrwt>
<pdfrwt beam="2">  1       21 0.33848109E-01 0.46079916E+03</pdfrwt>
<totfact> 0.65060073E+04</totfact>
</mgrwt>
</event>
<event>
 7    0  0.4788920E-002  0.4448458E+03  0.7546771E-02  0.1029270E+00
         21   -1    0    0  502  501  0.00000000000E+00  0.00000000000E+00  0.28242274291E+03  0.28242274291E+03  0.00000000000E+00 0.  1.
         21   -1    0    0  501  502 -0.00000000000E+00 -0.00000000000E+00 -0.17516981665E+03  0.17516981665E+03  0.00000000000E+00 0.  1.
      99926    2    1    2    0    0  0.00000000000E+00  0.00000000000E+00  0.10725292627E+03  0.45759255956E+03  0.44484577145E+03 0.  0.
      99925    2    3    3    0    0  0.36797817704E+02 -0.96357904586E+02  0.70802118758E+02  0.29141465901E+03  0.26319315778E+03 0.  0.
         25    1    4    4    0    0  0.20466508128E+01 -0.65167057683E+02  0.70934839545E+02  0.15789298195E+03  0.12509000000E+03 0.  0.
         25    1    3    3    0    0 -0.36797817704E+02  0.96357904586E+02  0.36450807509E+02  0.16617790055E+03  0.12509000000E+03 0.  0.
         25    1    4    4    0    0  0.34751166891E+02 -0.31190846903E+02 -0.13272078697E+00  0.13352167706E+03  0.12509000000E+03 0.  0.
<mgrwt>
<rscale>  2 0.44484577E+03</rscale>
<asrwt>0</asrwt>
<pdfrwt beam="1">  1       21 0.41532757E-01 0.44484577E+03</pdfrwt>
<pdfrwt beam="2">  1       21 0.25760267E-01 0.44484577E+03</pdfrwt>
<totfact> 0.74165885E+04</totfact>
</mgrwt>
</event>
<event>
 7    0  0.4788920E-002  0.4474457E+03  0.7546771E-02  0.1028487E+00
         21   -1    0    0  502  501  0.00000000000E+00  0.00000000000E+00  0.10990655219E+03  0.10990655219E+03  0.00000000000E+00 0.  1.
         21   -1    0    0  501  502 -0.00000000000E+00 -0.00000000000E+00 -0.45540424663E+03  0.45540424663E+03  0.00000000000E+00 0.  1.
      99926    2    1    2    0    0  0.14210854715E-13 -0.71054273576E-14 -0.34549769444E+03  0.56531079882E+03  0.44744568653E+03 0.  0.
      99925    2    3    3    0    0 -0.84070897956E+02  0.48387270940E+02 -0.27268384583E+03  0.39107357971E+03  0.26300726435E+03 0.  0.
         25    1    3    3    0    0  0.84070897956E+02 -0.48387270940E+02 -0.72813848606E+02  0.17423721910E+03  0.12509000000E+03 0.  0.
         25    1    4    4    0    0 -0.79296294511E+02  0.18017237452E+02 -0.17118387565E+03  0.22707697055E+03  0.12509000000E+03 0.  0.
         25    1    4    4    0    0 -0.47746034447E+01  0.30370033487E+02 -0.10149997018E+03  0.16399660917E+03  0.12509000000E+03 0.  0.
<mgrwt>
<rscale>  2 0.44744569E+03</rscale>
<asrwt>0</asrwt>
<pdfrwt beam="1">  1       21 0.16162728E-01 0.44744569E+03</pdfrwt>
<pdfrwt beam="2">  1       21 0.66971214E-01 0.44744569E+03</pdfrwt>
<totfact> 0.64642277E+04</totfact>
</mgrwt>
</event>
<event>
 7    0  0.4788920E-002  0.4518669E+03  0.7546771E-02  0.1027167E+00
         21   -1    0    0  502  501  0.00000000000E+00  0.00000000000E+00  0.29549086656E+02  0.29549086656E+02  0.00000000000E+00 0.  1.
         21   -1    0    0  501  502 -0.00000000000E+00 -0.00000000000E+00 -0.17274955093E+04  0.17274955093E+04  0.00000000000E+00 0.  1.
      99926    2    1    2    0    0 -0.14210854715E-13  0.35527136788E-14 -0.16979464226E+04  0.17570445959E+04  0.45186685872E+03 0.  0.
      99925    2    3    3    0    0  0.98694200340E+02 -0.22918873803E+02 -0.90920994788E+03  0.95204859927E+03  0.26356780170E+03 0.  0.
         25    1    4    4    0    0  0.12083294295E+02 -0.30486787838E+02 -0.45146561769E+03  0.46962129668E+03  0.12509000000E+03 0.  0.
         25    1    3    3    0    0 -0.98694200340E+02  0.22918873803E+02 -0.78873647474E+03  0.80499599667E+03  0.12509000000E+03 0.  0.
         25    1    4    4    0    0  0.86610906045E+02  0.75679140345E+01 -0.45774433019E+03  0.48242730260E+03  0.12509000000E+03 0.  0.
<mgrwt>
<rscale>  2 0.45186686E+03</rscale>
<asrwt>0</asrwt>
<pdfrwt beam="1">  1       21 0.43454539E-02 0.45186686E+03</pdfrwt>
<pdfrwt beam="2">  1       21 0.25404346E+00 0.45186686E+03</pdfrwt>
<totfact> 0.18546676E+04</totfact>
</mgrwt>
</event>
<event>
 7    0  0.4788920E-002  0.4520793E+03  0.7546771E-02  0.1027104E+00
         21   -1    0    0  502  501  0.00000000000E+00  0.00000000000E+00  0.29518655667E+03  0.29518655667E+03  0.00000000000E+00 0.  1.
         21   -1    0    0  501  502 -0.00000000000E+00 -0.00000000000E+00 -0.17309030946E+03  0.17309030946E+03  0.00000000000E+00 0.  1.
      99926    2    1    2    0    0  0.71054273576E-14  0.00000000000E+00  0.12209624721E+03  0.46827686613E+03  0.45207934013E+03 0.  0.
      99925    2    3    3    0    0  0.32272216995E+02  0.96162107369E+02  0.12206502816E+03  0.30722980482E+03  0.26306203638E+03 0.  0.
         25    1    4    4    0    0  0.29135687938E+00  0.78562415463E+01  0.59765831559E+02  0.13885700610E+03  0.12509000000E+03 0.  0.
         25    1    4    4    0    0  0.31980860115E+02  0.88305865823E+02  0.62299196602E+02  0.16837279872E+03  0.12509000000E+03 0.  0.
         25    1    3    3    0    0 -0.32272216995E+02 -0.96162107369E+02  0.31219049963E-01  0.16104706131E+03  0.12509000000E+03 0.  0.
<mgrwt>
<rscale>  2 0.45207934E+03</rscale>
<asrwt>0</asrwt>
<pdfrwt beam="1">  1       21 0.43409788E-01 0.45207934E+03</pdfrwt>
<pdfrwt beam="2">  1       21 0.25454457E-01 0.45207934E+03</pdfrwt>
<totfact> 0.69152515E+04</totfact>
</mgrwt>
</event>
<event>
 7    0  0.4788920E-002  0.4527908E+03  0.7546771E-02  0.1026893E+00
         21   -1    0    0  502  501  0.00000000000E+00  0.00000000000E+00  0.20524940227E+03  0.20524940227E+03  0.00000000000E+00 0.  1.
         21   -1    0    0  501  502 -0.00000000000E+00 -0.00000000000E+00 -0.24971999282E+03  0.24971999282E+03  0.00000000000E+00 0.  1.
      99926    2    1    2    0    0 -0.71054273576E-14  0.00000000000E+00 -0.44470590554E+02  0.45496939509E+03  0.45279080936E+03 0.  0.
      99925    2    3    3    0    0 -0.34594319547E+02  0.10347706245E+03 -0.62601529132E+01  0.28464084480E+03  0.26282494482E+03 0.  0.
         25    1    4    4    0    0 -0.19078618540E+02  0.48449607074E+02  0.37009753767E+02  0.14045849239E+03  0.12509000000E+03 0.  0.
         25    1    3    3    0    0  0.34594319547E+02 -0.10347706245E+03 -0.38210437641E+02  0.17032855028E+03  0.12509000000E+03 0.  0.
         25    1    4    4    0    0 -0.15515701007E+02  0.55027455371E+02 -0.43269906680E+02  0.14418235241E+03  0.12509000000E+03 0.  0.
<mgrwt>
<rscale>  2 0.45279081E+03</rscale>
<asrwt>0</asrwt>
<pdfrwt beam="1">  1       21 0.30183736E-01 0.45279081E+03</pdfrwt>
<pdfrwt beam="2">  1       21 0.36723528E-01 0.45279081E+03</pdfrwt>
<totfact> 0.69769720E+04</totfact>
</mgrwt>
</event>
<event>
 7    0  0.4788920E-002  0.4259497E+03  0.7546771E-02  0.1035147E+00
         21   -1    0    0  502  501  0.00000000000E+00  0.00000000000E+00  0.54343502313E+03  0.54343502313E+03  0.00000000000E+00 0. -1.
         21   -1    0    0  501  502 -0.00000000000E+00 -0.00000000000E+00 -0.83465904269E+02  0.83465904269E+02  0.00000000000E+00 0. -1.
      99926    2    1    2    0    0 -0.35527136788E-14  0.00000000000E+00  0.45996911886E+03  0.62690092740E+03  0.42594974172E+03 0.  0.
      99925    2    3    3    0    0 -0.25033820294E+02  0.68439843717E+02  0.35669833363E+03  0.44907216834E+03  0.26290950305E+03 0.  0.
         25    1    4    4    0    0 -0.27246324128E+02  0.52662639674E+02  0.24104194135E+03  0.27796482041E+03  0.12509000000E+03 0.  0.
         25    1    4    4    0    0  0.22125038341E+01  0.15777204043E+02  0.11565639229E+03  0.17110734794E+03  0.12509000000E+03 0.  0.
         25    1    3    3    0    0  0.25033820294E+02 -0.68439843717E+02  0.10327078523E+03  0.17782875906E+03  0.12509000000E+03 0.  0.
<mgrwt>
<rscale>  2 0.42594974E+03</rscale>
<asrwt>0</asrwt>
<pdfrwt beam="1">  1       21 0.79916913E-01 0.42594974E+03</pdfrwt>
<pdfrwt beam="2">  1       21 0.12274398E-01 0.42594974E+03</pdfrwt>
<totfact> 0.72243055E+04</totfact>
</mgrwt>
</event>
<event>
 7    0  0.4788920E-002  0.4562650E+03  0.7546771E-02  0.1025870E+00
         21   -1    0    0  502  501  0.00000000000E+00  0.00000000000E+00  0.30592725033E+03  0.30592725033E+03  0.00000000000E+00 0.  1.
         21   -1    0    0  501  502 -0.00000000000E+00 -0.00000000000E+00 -0.17012028056E+03  0.17012028056E+03  0.00000000000E+00 0.  1.
      99926    2    1    2    0    0  0.00000000000E+00  0.00000000000E+00  0.13580696977E+03  0.47604753089E+03  0.45626496537E+03 0.  0.
      99925    2    3    3    0    0 -0.62715497411E+02  0.80820862743E+02  0.32221726164E+02  0.28410312158E+03  0.26308002316E+03 0.  0.
         25    1    4    4    0    0 -0.69807048265E+02  0.47816055300E+02  0.32782874564E+02  0.15453680499E+03  0.12509000000E+03 0.  0.
         25    1    3    3    0    0  0.62715497411E+02 -0.80820862743E+02  0.10358524361E+03  0.19194440930E+03  0.12509000000E+03 0.  0.
         25    1    4    4    0    0  0.70915508537E+01  0.33004807443E+02 -0.56114839990E+00  0.12956631659E+03  0.12509000000E+03 0.  0.
<mgrwt>
<rscale>  2 0.45626497E+03</rscale>
<asrwt>0</asrwt>
<pdfrwt beam="1">  1       21 0.44989302E-01 0.45626497E+03</pdfrwt>
<pdfrwt beam="2">  1       21 0.25017688E-01 0.45626497E+03</pdfrwt>
<totfact> 0.66320681E+04</totfact>
</mgrwt>
</event>
<event>
 7    0  0.4788920E-002  0.4607343E+03  0.7546771E-02  0.1024568E+00
         21   -1    0    0  502  501  0.00000000000E+00  0.00000000000E+00  0.67293611029E+03  0.67293611029E+03  0.00000000000E+00 0.  1.
         21   -1    0    0  501  502 -0.00000000000E+00 -0.00000000000E+00 -0.78861895847E+02  0.78861895847E+02  0.00000000000E+00 0.  1.
      99926    2    1    2    0    0  0.00000000000E+00  0.00000000000E+00  0.59407421444E+03  0.75179800613E+03  0.46073427240E+03 0.  0.
      99925    2    3    3    0    0 -0.82447813093E+02 -0.44605805016E+02  0.49015212239E+03  0.56408911172E+03  0.26298308530E+03 0.  0.
         25    1    4    4    0    0 -0.36867726390E+01 -0.19454996182E+02  0.18655839591E+03  0.22548532625E+03  0.12509000000E+03 0.  0.
         25    1    3    3    0    0  0.82447813093E+02  0.44605805016E+02  0.10392209205E+03  0.18770889441E+03  0.12509000000E+03 0.  0.
         25    1    4    4    0    0 -0.78761040454E+02 -0.25150808833E+02  0.30359372649E+03  0.33860378548E+03  0.12509000000E+03 0.  0.
<mgrwt>
<rscale>  2 0.46073427E+03</rscale>
<asrwt>0</asrwt>
<pdfrwt beam="1">  1       21 0.98961190E-01 0.46073427E+03</pdfrwt>
<pdfrwt beam="2">  1       21 0.11597338E-01 0.46073427E+03</pdfrwt>
<totfact> 0.47980114E+04</totfact>
</mgrwt>
</event>
<event>
 7    0  0.4788920E-002  0.4518537E+03  0.7546771E-02  0.1027171E+00
         21   -1    0    0  502  501  0.00000000000E+00  0.00000000000E+00  0.13245320164E+04  0.13245320164E+04  0.00000000000E+00 0.  1.
         21   -1    0    0  501  502 -0.00000000000E+00 -0.00000000000E+00 -0.38536586892E+02  0.38536586892E+02  0.00000000000E+00 0.  1.
      99926    2    1    2    0    0  0.00000000000E+00  0.00000000000E+00  0.12859954296E+04  0.13630686033E+04  0.45185370705E+03 0.  0.
      99925    2    3    3    0    0  0.22709245480E+02 -0.59688867719E+02  0.54137743436E+03  0.60532066528E+03  0.26314465722E+03 0.  0.
         25    1    3    3    0    0 -0.22709245480E+02  0.59688867719E+02  0.74461799520E+03  0.75774793806E+03  0.12509000000E+03 0.  0.
         25    1    4    4    0    0 -0.11928959968E+02 -0.62633635502E+02  0.30050913705E+03  0.33169040072E+03  0.12509000000E+03 0.  0.
         25    1    4    4    0    0  0.34638205448E+02  0.29447677826E+01  0.24086829731E+03  0.27363026456E+03  0.12509000000E+03 0.  0.
<mgrwt>
<rscale>  2 0.45185371E+03</rscale>
<asrwt>0</asrwt>
<pdfrwt beam="1">  1       21 0.19478409E+00 0.45185371E+03</pdfrwt>
<pdfrwt beam="2">  1       21 0.56671460E-02 0.45185371E+03</pdfrwt>
<totfact> 0.28011808E+04</totfact>
</mgrwt>
</event>
<event>
 7    0  0.4788920E-002  0.4559101E+03  0.7546771E-02  0.1025974E+00
         21   -1    0    0  502  501  0.00000000000E+00  0.00000000000E+00  0.11305356862E+03  0.11305356862E+03  0.00000000000E+00 0. -1.
         21   -1    0    0  501  502 -0.00000000000E+00 -0.00000000000E+00 -0.45963613598E+03  0.45963613598E+03  0.00000000000E+00 0. -1.
      99926    2    1    2    0    0  0.00000000000E+00  0.00000000000E+00 -0.34658256736E+03  0.57268970461E+03  0.45591010272E+03 0.  0.
      99925    2    3    3    0    0 -0.51298186631E+02  0.10163926169E+03 -0.21040230852E+03  0.35553857183E+03  0.26301426037E+03 0.  0.
         25    1    4    4    0    0  0.60810422750E+01  0.22504963945E+02 -0.82206331903E+02  0.15148875068E+03  0.12509000000E+03 0.  0.
         25    1    3    3    0    0  0.51298186631E+02 -0.10163926169E+03 -0.13618025884E+03  0.21715113278E+03  0.12509000000E+03 0.  0.
         25    1    4    4    0    0 -0.57379228906E+02  0.79134297746E+02 -0.12819597662E+03  0.20404982115E+03  0.12509000000E+03 0.  0.
<mgrwt>
<rscale>  2 0.45591010E+03</rscale>
<asrwt>0</asrwt>
<pdfrwt beam="1">  1       21 0.16625525E-01 0.45591010E+03</pdfrwt>
<pdfrwt beam="2">  1       21 0.67593547E-01 0.45591010E+03</pdfrwt>
<totfact> 0.59958931E+04</totfact>
</mgrwt>
</event>
<event>
 7    0  0.4788920E-002  0.4558917E+03  0.7546771E-02  0.1025980E+00
         21   -1    0    0  502  501  0.00000000000E+00  0.00000000000E+00  0.12721452691E+03  0.12721452691E+03  0.00000000000E+00 0. -1.
         21   -1    0    0  501  502 -0.00000000000E+00 -0.00000000000E+00 -0.40843852850E+03  0.40843852850E+03  0.00000000000E+00 0. -1.
      99926    2    1    2    0    0 -0.17763568394E-14  0.00000000000E+00 -0.28122400159E+03  0.53565305541E+03  0.45589171598E+03 0.  0.
      99925    2    3    3    0    0  0.11754028658E+02 -0.10740489448E+03 -0.13390233266E+03  0.31423681666E+03  0.26294671267E+03 0.  0.
         25    1    4    4    0    0 -0.15732825398E+02 -0.24433191991E+02 -0.84949480869E+02  0.15397540409E+03  0.12509000000E+03 0.  0.
         25    1    4    4    0    0  0.27486854057E+02 -0.82971702485E+02 -0.48952851794E+02  0.16026141257E+03  0.12509000000E+03 0.  0.
         25    1    3    3    0    0 -0.11754028658E+02  0.10740489448E+03 -0.14732166892E+03  0.22141623875E+03  0.12509000000E+03 0.  0.
<mgrwt>
<rscale>  2 0.45589172E+03</rscale>
<asrwt>0</asrwt>
<pdfrwt beam="1">  1       21 0.18708019E-01 0.45589172E+03</pdfrwt>
<pdfrwt beam="2">  1       21 0.60064489E-01 0.45589172E+03</pdfrwt>
<totfact> 0.62383186E+04</totfact>
</mgrwt>
</event>
<event>
 7    0  0.4788920E-002  0.4614489E+03  0.7546771E-02  0.1024362E+00
         21   -1    0    0  502  501  0.00000000000E+00  0.00000000000E+00  0.11562012115E+04  0.11562012115E+04  0.00000000000E+00 0. -1.
         21   -1    0    0  501  502 -0.00000000000E+00 -0.00000000000E+00 -0.46041952665E+02  0.46041952665E+02  0.00000000000E+00 0. -1.
      99926    2    1    2    0    0  0.00000000000E+00  0.00000000000E+00  0.11101592589E+04  0.12022431642E+04  0.46144885503E+03 0.  0.
      99925    2    3    3    0    0 -0.49860627074E+02 -0.89229923870E+02  0.53627864521E+03  0.60605986329E+03  0.26318379726E+03 0.  0.
         25    1    4    4    0    0 -0.30657173704E+01 -0.24490619944E+02  0.31277582876E+03  0.33776532718E+03  0.12509000000E+03 0.  0.
         25    1    3    3    0    0  0.49860627074E+02  0.89229923870E+02  0.57388061366E+03  0.59618330091E+03  0.12509000000E+03 0.  0.
         25    1    4    4    0    0 -0.46794909704E+02 -0.64739303926E+02  0.22350281645E+03  0.26829453612E+03  0.12509000000E+03 0.  0.
<mgrwt>
<rscale>  2 0.46144886E+03</rscale>
<asrwt>0</asrwt>
<pdfrwt beam="1">  1       21 0.17002957E+00 0.46144886E+03</pdfrwt>
<pdfrwt beam="2">  1       21 0.67708761E-02 0.46144886E+03</pdfrwt>
<totfact> 0.30522553E+04</totfact>
</mgrwt>
</event>
<event>
 7    0  0.4788920E-002  0.4476383E+03  0.7546771E-02  0.1028429E+00
         21   -1    0    0  502  501  0.00000000000E+00  0.00000000000E+00  0.50863849172E+03  0.50863849172E+03  0.00000000000E+00 0. -1.
         21   -1    0    0  501  502 -0.00000000000E+00 -0.00000000000E+00 -0.98488429487E+02  0.98488429487E+02  0.00000000000E+00 0. -1.
      99926    2    1    2    0    0  0.00000000000E+00  0.00000000000E+00  0.41015006224E+03  0.60712692121E+03  0.44763827462E+03 0.  0.
      99925    2    3    3    0    0 -0.65420387634E+02  0.69500898252E+02  0.32312667084E+03  0.42731929978E+03  0.26283214525E+03 0.  0.
         25    1    4    4    0    0 -0.21936903742E+02 -0.29812447419E+01  0.17071135053E+03  0.21279095109E+03  0.12509000000E+03 0.  0.
         25    1    3    3    0    0  0.65420387634E+02 -0.69500898252E+02  0.87023391397E+02  0.17980762144E+03  0.12509000000E+03 0.  0.
         25    1    4    4    0    0 -0.43483483893E+02  0.72482142994E+02  0.15241532031E+03  0.21452834868E+03  0.12509000000E+03 0.  0.
<mgrwt>
<rscale>  2 0.44763827E+03</rscale>
<asrwt>0</asrwt>
<pdfrwt beam="1">  1       21 0.74799777E-01 0.44763827E+03</pdfrwt>
<pdfrwt beam="2">  1       21 0.14483593E-01 0.44763827E+03</pdfrwt>
<totfact> 0.61755350E+04</totfact>
</mgrwt>
</event>
<event>
 7    0  0.4788920E-002  0.4615678E+03  0.7546771E-02  0.1024327E+00
         21   -1    0    0  502  501  0.00000000000E+00  0.00000000000E+00  0.12302172259E+03  0.12302172259E+03  0.00000000000E+00 0. -1.
         21   -1    0    0  501  502 -0.00000000000E+00 -0.00000000000E+00 -0.43294156752E+03  0.43294156752E+03  0.00000000000E+00 0. -1.
      99926    2    1    2    0    0 -0.71054273576E-14  0.00000000000E+00 -0.30991984493E+03  0.55596329012E+03  0.46156783865E+03 0.  0.
      99925    2    3    3    0    0 -0.49949076402E+02 -0.88635724439E+02 -0.11937539197E+03  0.30635179492E+03  0.26315344604E+03 0.  0.
         25    1    4    4    0    0 -0.25092847430E+02 -0.64968562272E+02 -0.23581285941E+02  0.14510048319E+03  0.12509000000E+03 0.  0.
         25    1    4    4    0    0 -0.24856228972E+02 -0.23667162167E+02 -0.95794106034E+02  0.16125131173E+03  0.12509000000E+03 0.  0.
         25    1    3    3    0    0  0.49949076402E+02  0.88635724439E+02 -0.19054445296E+03  0.24961149519E+03  0.12509000000E+03 0.  0.
<mgrwt>
<rscale>  2 0.46156784E+03</rscale>
<asrwt>0</asrwt>
<pdfrwt beam="1">  1       21 0.18091430E-01 0.46156784E+03</pdfrwt>
<pdfrwt beam="2">  1       21 0.63667878E-01 0.46156784E+03</pdfrwt>
<totfact> 0.58381201E+04</totfact>
</mgrwt>
</event>
<event>
 7    0  0.4788920E-002  0.4476790E+03  0.7546771E-02  0.1028416E+00
         21   -1    0    0  502  501  0.00000000000E+00  0.00000000000E+00  0.17089516939E+03  0.17089516939E+03  0.00000000000E+00 0.  1.
         21   -1    0    0  501  502 -0.00000000000E+00 -0.00000000000E+00 -0.29318629880E+03  0.29318629880E+03  0.00000000000E+00 0.  1.
      99926    2    1    2    0    0 -0.35527136788E-14  0.35527136788E-14 -0.12229112940E+03  0.46408146819E+03  0.44767900195E+03 0.  0.
      99925    2    3    3    0    0 -0.28558076773E+02  0.26517783358E+02  0.25207332915E+02  0.26679471985E+03  0.26272658093E+03 0.  0.
         25    1    3    3    0    0  0.28558076773E+02 -0.26517783358E+02 -0.14749846232E+03  0.19728674834E+03  0.12509000000E+03 0.  0.
         25    1    4    4    0    0  0.19133682534E+02  0.28337621391E+02 -0.40810962058E+01  0.12974313870E+03  0.12509000000E+03 0.  0.
         25    1    4    4    0    0 -0.47691759307E+02 -0.18198380332E+01  0.29288429121E+02  0.13705158115E+03  0.12509000000E+03 0.  0.
<mgrwt>
<rscale>  2 0.44767900E+03</rscale>
<asrwt>0</asrwt>
<pdfrwt beam="1">  1       21 0.25131643E-01 0.44767900E+03</pdfrwt>
<pdfrwt beam="2">  1       21 0.43115632E-01 0.44767900E+03</pdfrwt>
<totfact> 0.71968200E+04</totfact>
</mgrwt>
</event>
<event>
 7    0  0.4788920E-002  0.4551326E+03  0.7546771E-02  0.1026202E+00
         21   -1    0    0  502  501  0.00000000000E+00  0.00000000000E+00  0.85090930862E+02  0.85090930862E+02  0.00000000000E+00 0.  1.
         21   -1    0    0  501  502 -0.00000000000E+00 -0.00000000000E+00 -0.60860091159E+03  0.60860091159E+03  0.00000000000E+00 0.  1.
      99926    2    1    2    0    0  0.00000000000E+00  0.00000000000E+00 -0.52350998073E+03  0.69369184246E+03  0.45513258768E+03 0.  0.
      99925    2    3    3    0    0 -0.58992538702E+02  0.95106613728E+02 -0.30233302075E+03  0.41603712284E+03  0.26297574898E+03 0.  0.
         25    1    4    4    0    0 -0.61194292759E+02  0.77723441872E+02 -0.16690423288E+03  0.23084671524E+03  0.12509000000E+03 0.  0.
         25    1    4    4    0    0  0.22017540564E+01  0.17383171856E+02 -0.13542878787E+03  0.18519040761E+03  0.12509000000E+03 0.  0.
         25    1    3    3    0    0  0.58992538702E+02 -0.95106613728E+02 -0.22117695998E+03  0.27765471962E+03  0.12509000000E+03 0.  0.
<mgrwt>
<rscale>  2 0.45513259E+03</rscale>
<asrwt>0</asrwt>
<pdfrwt beam="1">  1       21 0.12513372E-01 0.45513259E+03</pdfrwt>
<pdfrwt beam="2">  1       21 0.89500134E-01 0.45513259E+03</pdfrwt>
<totfact> 0.53191301E+04</totfact>
</mgrwt>
</event>
<event>
 7    0  0.4788920E-002  0.4580853E+03  0.7546771E-02  0.1025338E+00
         21   -1    0    0  502  501  0.00000000000E+00  0.00000000000E+00  0.22434510301E+03  0.22434510301E+03  0.00000000000E+00 0.  1.
         21   -1    0    0  501  502 -0.00000000000E+00 -0.00000000000E+00 -0.23383857196E+03  0.23383857196E+03  0.00000000000E+00 0.  1.
      99926    2    1    2    0    0  0.00000000000E+00  0.00000000000E+00 -0.94934689420E+01  0.45818367497E+03  0.45808531308E+03 0.  0.
      99925    2    3    3    0    0  0.48388156359E+02 -0.96257533440E+02  0.37432881470E+02  0.28655466553E+03  0.26287911537E+03 0.  0.
         25    1    4    4    0    0 -0.12326023117E+02 -0.62486244933E+02  0.89248773809E+01  0.14065426829E+03  0.12509000000E+03 0.  0.
         25    1    4    4    0    0  0.60714179476E+02 -0.33771288507E+02  0.28508004090E+02  0.14590039724E+03  0.12509000000E+03 0.  0.
         25    1    3    3    0    0 -0.48388156359E+02  0.96257533440E+02 -0.46926350412E+02  0.17162900944E+03  0.12509000000E+03 0.  0.
<mgrwt>
<rscale>  2 0.45808531E+03</rscale>
<asrwt>0</asrwt>
<pdfrwt beam="1">  1       21 0.32991927E-01 0.45808531E+03</pdfrwt>
<pdfrwt beam="2">  1       21 0.34388025E-01 0.45808531E+03</pdfrwt>
<totfact> 0.66657081E+04</totfact>
</mgrwt>
</event>
<event>
 7    0  0.4788920E-002  0.4555395E+03  0.7546771E-02  0.1026083E+00
         21   -1    0    0  502  501  0.00000000000E+00  0.00000000000E+00  0.66370422251E+02  0.66370422251E+02  0.00000000000E+00 0.  1.
         21   -1    0    0  501  502 -0.00000000000E+00 -0.00000000000E+00 -0.78165932964E+03  0.78165932964E+03  0.00000000000E+00 0.  1.
      99926    2    1    2    0    0  0.71054273576E-14  0.00000000000E+00 -0.71528890739E+03  0.84802975189E+03  0.45553950329E+03 0.  0.
      99925    2    3    3    0    0  0.56542008783E+02  0.91977616238E+02 -0.51500861369E+03  0.58838271303E+03  0.26325551119E+03 0.  0.
         25    1    3    3    0    0 -0.56542008783E+02 -0.91977616238E+02 -0.20028029370E+03  0.25964703886E+03  0.12509000000E+03 0.  0.
         25    1    4    4    0    0  0.92802638854E+01  0.82669038298E+02 -0.25945339923E+03  0.29980638363E+03  0.12509000000E+03 0.  0.
         25    1    4    4    0    0  0.47261744897E+02  0.93085779409E+01 -0.25555521446E+03  0.28857632940E+03  0.12509000000E+03 0.  0.
<mgrwt>
<rscale>  2 0.45553950E+03</rscale>
<asrwt>0</asrwt>
<pdfrwt beam="1">  1       21 0.97603570E-02 0.45553950E+03</pdfrwt>
<pdfrwt beam="2">  1       21 0.11494989E+00 0.45553950E+03</pdfrwt>
<totfact> 0.45335469E+04</totfact>
</mgrwt>
</event>
<event>
 7    0  0.4788920E-002  0.4447656E+03  0.7546771E-02  0.1029295E+00
         21   -1    0    0  502  501  0.00000000000E+00  0.00000000000E+00  0.23540318789E+04  0.23540318789E+04  0.00000000000E+00 0. -1.
         21   -1    0    0  501  502 -0.00000000000E+00 -0.00000000000E+00 -0.21008255267E+02  0.21008255267E+02  0.00000000000E+00 0. -1.
      99926    2    1    2    0    0  0.35527136788E-14  0.00000000000E+00  0.23330236236E+04  0.23750401342E+04  0.44476556800E+03 0.  0.
      99925    2    3    3    0    0  0.11648068140E+02 -0.79600652153E+02  0.11361622285E+04  0.11689735321E+04  0.26298777160E+03 0.  0.
         25    1    3    3    0    0 -0.11648068140E+02  0.79600652153E+02  0.11968613952E+04  0.12060666021E+04  0.12509000000E+03 0.  0.
         25    1    4    4    0    0 -0.23100841296E+02 -0.28160512214E+02  0.66092476218E+03  0.67364360954E+03  0.12509000000E+03 0.  0.
         25    1    4    4    0    0  0.34748909436E+02 -0.51440139938E+02  0.47523746631E+03  0.49532992256E+03  0.12509000000E+03 0.  0.
<mgrwt>
<rscale>  2 0.44476557E+03</rscale>
<asrwt>0</asrwt>
<pdfrwt beam="1">  1       21 0.34618098E+00 0.44476557E+03</pdfrwt>
<pdfrwt beam="2">  1       21 0.30894509E-02 0.44476557E+03</pdfrwt>
<totfact> 0.92070995E+03</totfact>
</mgrwt>
</event>
<event>
 7    0  0.4788920E-002  0.4814808E+03  0.7546771E-02  0.1018729E+00
         21   -1    0    0  502  501  0.00000000000E+00  0.00000000000E+00  0.72686002438E+03  0.72686002438E+03  0.00000000000E+00 0. -1.
         21   -1    0    0  501  502 -0.00000000000E+00 -0.00000000000E+00 -0.79734673956E+02  0.79734673956E+02  0.00000000000E+00 0. -1.
      99926    2    1    2    0    0  0.00000000000E+00  0.00000000000E+00  0.64712535043E+03  0.80659469834E+03  0.48148082851E+03 0.  0.
      99925    2    3    3    0    0 -0.62197103186E+01 -0.47480175054E+02  0.61242939733E+03  0.66823152014E+03  0.26300293910E+03 0.  0.
         25    1    4    4    0    0 -0.65672553697E+01 -0.40706909866E+02  0.40531249807E+03  0.42617591502E+03  0.12509000000E+03 0.  0.
         25    1    4    4    0    0  0.34754505109E+00 -0.67732651875E+01  0.20711689927E+03  0.24205560512E+03  0.12509000000E+03 0.  0.
         25    1    3    3    0    0  0.62197103186E+01  0.47480175054E+02  0.34695953092E+02  0.13836317820E+03  0.12509000000E+03 0.  0.
<mgrwt>
<rscale>  2 0.48148083E+03</rscale>
<asrwt>0</asrwt>
<pdfrwt beam="1">  1       21 0.10689118E+00 0.48148083E+03</pdfrwt>
<pdfrwt beam="2">  1       21 0.11725688E-01 0.48148083E+03</pdfrwt>
<totfact> 0.38746143E+04</totfact>
</mgrwt>
</event>
<event>
 7    0  0.4788920E-002  0.4408724E+03  0.7546771E-02  0.1030479E+00
         21   -1    0    0  502  501  0.00000000000E+00  0.00000000000E+00  0.11105320873E+03  0.11105320873E+03  0.00000000000E+00 0. -1.
         21   -1    0    0  501  502 -0.00000000000E+00 -0.00000000000E+00 -0.43755718044E+03  0.43755718044E+03  0.00000000000E+00 0. -1.
      99926    2    1    2    0    0  0.00000000000E+00  0.00000000000E+00 -0.32650397172E+03  0.54861038917E+03  0.44087244817E+03 0.  0.
      99925    2    3    3    0    0  0.47114136089E+02 -0.56596561275E+02 -0.12511314026E+03  0.30035913004E+03  0.26294371368E+03 0.  0.
         25    1    3    3    0    0 -0.47114136089E+02  0.56596561275E+02 -0.20139083145E+03  0.24825125913E+03  0.12509000000E+03 0.  0.
         25    1    4    4    0    0  0.15260046989E+02  0.98535304397E+00 -0.28651538886E+02  0.12923721885E+03  0.12509000000E+03 0.  0.
         25    1    4    4    0    0  0.31854089100E+02 -0.57581914319E+02 -0.96461601375E+02  0.17112191119E+03  0.12509000000E+03 0.  0.
<mgrwt>
<rscale>  2 0.44087245E+03</rscale>
<asrwt>0</asrwt>
<pdfrwt beam="1">  1       21 0.16331354E-01 0.44087245E+03</pdfrwt>
<pdfrwt beam="2">  1       21 0.64346643E-01 0.44087245E+03</pdfrwt>
<totfact> 0.69396135E+04</totfact>
</mgrwt>
</event>
<event>
 7    0  0.4788920E-002  0.4651018E+03  0.7546771E-02  0.1023312E+00
         21   -1    0    0  502  501  0.00000000000E+00  0.00000000000E+00  0.39774156013E+02  0.39774156013E+02  0.00000000000E+00 0.  1.
         21   -1    0    0  501  502 -0.00000000000E+00 -0.00000000000E+00 -0.13596749356E+04  0.13596749356E+04  0.00000000000E+00 0.  1.
      99926    2    1    2    0    0  0.00000000000E+00  0.00000000000E+00 -0.13199007796E+04  0.13994490916E+04  0.46510180828E+03 0.  0.
      99925    2    3    3    0    0 -0.10560208315E+03 -0.57929915804E+02 -0.75110244024E+03  0.80473341664E+03  0.26255155879E+03 0.  0.
         25    1    4    4    0    0 -0.25765400404E+02 -0.21655198175E+02 -0.43101030604E+03  0.45005576930E+03  0.12509000000E+03 0.  0.
         25    1    3    3    0    0  0.10560208315E+03  0.57929915804E+02 -0.56879833938E+03  0.59471567501E+03  0.12509000000E+03 0.  0.
         25    1    4    4    0    0 -0.79836682742E+02 -0.36274717629E+02 -0.32009213419E+03  0.35467764734E+03  0.12509000000E+03 0.  0.
<mgrwt>
<rscale>  2 0.46510181E+03</rscale>
<asrwt>0</asrwt>
<pdfrwt beam="1">  1       21 0.58491398E-02 0.46510181E+03</pdfrwt>
<pdfrwt beam="2">  1       21 0.19995222E+00 0.46510181E+03</pdfrwt>
<totfact> 0.24376185E+04</totfact>
</mgrwt>
</event>
<event>
 7    0  0.4788920E-002  0.4547631E+03  0.7546771E-02  0.1026311E+00
         21   -1    0    0  502  501  0.00000000000E+00  0.00000000000E+00  0.91575489605E+02  0.91575489605E+02  0.00000000000E+00 0. -1.
         21   -1    0    0  501  502 -0.00000000000E+00 -0.00000000000E+00 -0.56458730006E+03  0.56458730006E+03  0.00000000000E+00 0. -1.
      99926    2    1    2    0    0  0.00000000000E+00  0.00000000000E+00 -0.47301181046E+03  0.65616278967E+03  0.45476305227E+03 0.  0.
      99925    2    3    3    0    0  0.81199730712E+02 -0.73508543687E+02 -0.33715526701E+03  0.44145039887E+03  0.26307390279E+03 0.  0.
         25    1    3    3    0    0 -0.81199730712E+02  0.73508543687E+02 -0.13585654345E+03  0.21471239079E+03  0.12509000000E+03 0.  0.
         25    1    4    4    0    0  0.27792100982E+02 -0.24728518203E+02 -0.21837445549E+03  0.25439892178E+03  0.12509000000E+03 0.  0.
         25    1    4    4    0    0  0.53407629729E+02 -0.48780025484E+02 -0.11878081151E+03  0.18705147709E+03  0.12509000000E+03 0.  0.
<mgrwt>
<rscale>  2 0.45476305E+03</rscale>
<asrwt>0</asrwt>
<pdfrwt beam="1">  1       21 0.13466983E-01 0.45476305E+03</pdfrwt>
<pdfrwt beam="2">  1       21 0.83027547E-01 0.45476305E+03</pdfrwt>
<totfact> 0.55451402E+04</totfact>
</mgrwt>
</event>
<event>
 7    0  0.4788920E-002  0.4520534E+03  0.7546771E-02  0.1027111E+00
         21   -1    0    0  502  501  0.00000000000E+00  0.00000000000E+00  0.67425921967E+02  0.67425921967E+02  0.00000000000E+00 0.  1.
         21   -1    0    0  501  502 -0.00000000000E+00 -0.00000000000E+00 -0.75769177503E+03  0.75769177503E+03  0.00000000000E+00 0.  1.
      99926    2    1    2    0    0  0.00000000000E+00  0.00000000000E+00 -0.69026585306E+03  0.82511769700E+03  0.45205338843E+03 0.  0.
      99925    2    3    3    0    0 -0.64881887650E+02  0.74906147135E+02 -0.52444222195E+03  0.59497518689E+03  0.26293580704E+03 0.  0.
         25    1    3    3    0    0  0.64881887650E+02 -0.74906147135E+02 -0.16582363111E+03  0.23014251011E+03  0.12509000000E+03 0.  0.
         25    1    4    4    0    0 -0.62030943372E+02  0.10925785459E+02 -0.27777403133E+03  0.31108380109E+03  0.12509000000E+03 0.  0.
         25    1    4    4    0    0 -0.28509442784E+01  0.63980361676E+02 -0.24666819062E+03  0.28389138579E+03  0.12509000000E+03 0.  0.
<mgrwt>
<rscale>  2 0.45205339E+03</rscale>
<asrwt>0</asrwt>
<pdfrwt beam="1">  1       21 0.99155760E-02 0.45205339E+03</pdfrwt>
<pdfrwt beam="2">  1       21 0.11142527E+00 0.45205339E+03</pdfrwt>
<totfact> 0.47666310E+04</totfact>
</mgrwt>
</event>
<event>
 7    0  0.4788920E-002  0.4476266E+03  0.7546771E-02  0.1028432E+00
         21   -1    0    0  502  501  0.00000000000E+00  0.00000000000E+00  0.57845281663E+03  0.57845281663E+03  0.00000000000E+00 0. -1.
         21   -1    0    0  501  502 -0.00000000000E+00 -0.00000000000E+00 -0.86597215760E+02  0.86597215760E+02  0.00000000000E+00 0. -1.
      99926    2    1    2    0    0  0.00000000000E+00  0.00000000000E+00  0.49185560087E+03  0.66505003239E+03  0.44762664518E+03 0.  0.
      99925    2    3    3    0    0  0.90197962315E+02 -0.48010313868E+02  0.27119192342E+03  0.39158956122E+03  0.26335653113E+03 0.  0.
         25    1    3    3    0    0 -0.90197962315E+02  0.48010313868E+02  0.22066367746E+03  0.27346047117E+03  0.12509000000E+03 0.  0.
         25    1    4    4    0    0  0.73182205699E+01 -0.41944090536E+02  0.12018883963E+03  0.17862174659E+03  0.12509000000E+03 0.  0.
         25    1    4    4    0    0  0.82879741745E+02 -0.60662233312E+01  0.15100308379E+03  0.21296781463E+03  0.12509000000E+03 0.  0.
<mgrwt>
<rscale>  2 0.44762665E+03</rscale>
<asrwt>0</asrwt>
<pdfrwt beam="1">  1       21 0.85066589E-01 0.44762665E+03</pdfrwt>
<pdfrwt beam="2">  1       21 0.12734885E-01 0.44762665E+03</pdfrwt>
<totfact> 0.58147898E+04</totfact>
</mgrwt>
</event>
<event>
 7    0  0.4788920E-002  0.4426985E+03  0.7546771E-02  0.1029922E+00
         21   -1    0    0  502  501  0.00000000000E+00  0.00000000000E+00  0.17304487109E+04  0.17304487109E+04  0.00000000000E+00 0.  1.
         21   -1    0    0  501  502 -0.00000000000E+00 -0.00000000000E+00 -0.28313743642E+02  0.28313743642E+02  0.00000000000E+00 0.  1.
      99926    2    1    2    0    0  0.00000000000E+00  0.00000000000E+00  0.17021349673E+04  0.17587624546E+04  0.44269845804E+03 0.  0.
      99925    2    3    3    0    0  0.82197862765E+02  0.53371656573E+02  0.98098170370E+03  0.10203082853E+04  0.26286664257E+03 0.  0.
         25    1    3    3    0    0 -0.82197862765E+02 -0.53371656573E+02  0.72115326357E+03  0.73845416921E+03  0.12509000000E+03 0.  0.
         25    1    4    4    0    0  0.28299477630E+02 -0.59000044262E+01  0.37433238445E+03  0.39573717621E+03  0.12509000000E+03 0.  0.
         25    1    4    4    0    0  0.53898385135E+02  0.59271660999E+02  0.60664931925E+03  0.62457110913E+03  0.12509000000E+03 0.  0.
<mgrwt>
<rscale>  2 0.44269846E+03</rscale>
<asrwt>0</asrwt>
<pdfrwt beam="1">  1       21 0.25447768E+00 0.44269846E+03</pdfrwt>
<pdfrwt beam="2">  1       21 0.41637870E-02 0.44269846E+03</pdfrwt>
<totfact> 0.19898912E+04</totfact>
</mgrwt>
</event>
<event>
 7    0  0.4788920E-002  0.4519579E+03  0.7546771E-02  0.1027140E+00
         21   -1    0    0  502  501  0.00000000000E+00  0.00000000000E+00  0.20368704831E+03  0.20368704831E+03  0.00000000000E+00 0. -1.
         21   -1    0    0  501  502 -0.00000000000E+00 -0.00000000000E+00 -0.25071053836E+03  0.25071053836E+03  0.00000000000E+00 0. -1.
      99926    2    1    2    0    0  0.00000000000E+00  0.00000000000E+00 -0.47023490058E+02  0.45439758667E+03  0.45195791635E+03 0.  0.
      99925    2    3    3    0    0  0.40090468085E+02 -0.57830433818E+02  0.55593781631E+02  0.27796228052E+03  0.26309837729E+03 0.  0.
         25    1    4    4    0    0  0.47279864496E+02 -0.11388569937E+02  0.26717296408E+01  0.13423759291E+03  0.12509000000E+03 0.  0.
         25    1    4    4    0    0 -0.71893964106E+01 -0.46441863882E+02  0.52922051990E+02  0.14372468761E+03  0.12509000000E+03 0.  0.
         25    1    3    3    0    0 -0.40090468085E+02  0.57830433818E+02 -0.10261727169E+03  0.17643530615E+03  0.12509000000E+03 0.  0.
<mgrwt>
<rscale>  2 0.45195792E+03</rscale>
<asrwt>0</asrwt>
<pdfrwt beam="1">  1       21 0.29953978E-01 0.45195792E+03</pdfrwt>
<pdfrwt beam="2">  1       21 0.36869197E-01 0.45195792E+03</pdfrwt>
<totfact> 0.70280292E+04</totfact>
</mgrwt>
</event>
<event>
 7    0  0.4788920E-002  0.4560327E+03  0.7546771E-02  0.1025938E+00
         21   -1    0    0  502  501  0.00000000000E+00  0.00000000000E+00  0.29891655637E+03  0.29891655637E+03  0.00000000000E+00 0.  1.
         21   -1    0    0  501  502 -0.00000000000E+00 -0.00000000000E+00 -0.17393299795E+03  0.17393299795E+03  0.00000000000E+00 0.  1.
      99926    2    1    2    0    0  0.00000000000E+00  0.14210854715E-13  0.12498355842E+03  0.47284955432E+03  0.45603268648E+03 0.  0.
      99925    2    3    3    0    0  0.37001185860E+02  0.97223981906E+02  0.12722589611E+03  0.31014083731E+03  0.26301961887E+03 0.  0.
         25    1    3    3    0    0 -0.37001185860E+02 -0.97223981906E+02 -0.22423376894E+01  0.16270871701E+03  0.12509000000E+03 0.  0.
         25    1    4    4    0    0  0.12675060204E+02  0.88395923219E+02  0.84826127853E+02  0.17554907137E+03  0.12509000000E+03 0.  0.
         25    1    4    4    0    0  0.24326125656E+02  0.88280586868E+01  0.42399768256E+02  0.13459176594E+03  0.12509000000E+03 0.  0.
<mgrwt>
<rscale>  2 0.45603269E+03</rscale>
<asrwt>0</asrwt>
<pdfrwt beam="1">  1       21 0.43958317E-01 0.45603269E+03</pdfrwt>
<pdfrwt beam="2">  1       21 0.25578382E-01 0.45603269E+03</pdfrwt>
<totfact> 0.66676440E+04</totfact>
</mgrwt>
</event>
<event>
 7    0  0.4788920E-002  0.4551909E+03  0.7546771E-02  0.1026185E+00
         21   -1    0    0  502  501  0.00000000000E+00  0.00000000000E+00  0.13248249934E+03  0.13248249934E+03  0.00000000000E+00 0.  1.
         21   -1    0    0  501  502 -0.00000000000E+00 -0.00000000000E+00 -0.39099272729E+03  0.39099272729E+03  0.00000000000E+00 0.  1.
      99926    2    1    2    0    0  0.00000000000E+00  0.00000000000E+00 -0.25851022795E+03  0.52347522663E+03  0.45519092141E+03 0.  0.
      99925    2    3    3    0    0  0.62941226382E+02 -0.67317986359E+02 -0.86601368896E+02  0.29175670517E+03  0.26292369359E+03 0.  0.
         25    1    3    3    0    0 -0.62941226382E+02  0.67317986359E+02 -0.17190885905E+03  0.23171852146E+03  0.12509000000E+03 0.  0.
         25    1    4    4    0    0  0.46059914819E+02 -0.48801916115E+02 -0.82351775453E+02  0.16411113853E+03  0.12509000000E+03 0.  0.
         25    1    4    4    0    0  0.16881311563E+02 -0.18516070244E+02 -0.42495934426E+01  0.12764556664E+03  0.12509000000E+03 0.  0.
<mgrwt>
<rscale>  2 0.45519092E+03</rscale>
<asrwt>0</asrwt>
<pdfrwt beam="1">  1       21 0.19482721E-01 0.45519092E+03</pdfrwt>
<pdfrwt beam="2">  1       21 0.57498930E-01 0.45519092E+03</pdfrwt>
<totfact> 0.63554090E+04</totfact>
</mgrwt>
</event>
<event>
 7    0  0.4788920E-002  0.4546835E+03  0.7546771E-02  0.1026335E+00
         21   -1    0    0  502  501  0.00000000000E+00  0.00000000000E+00  0.70608204694E+02  0.70608204694E+02  0.00000000000E+00 0. -1.
         21   -1    0    0  501  502 -0.00000000000E+00 -0.00000000000E+00 -0.73198670168E+03  0.73198670168E+03  0.00000000000E+00 0. -1.
      99926    2    1    2    0    0  0.00000000000E+00  0.26645352591E-14 -0.66137849699E+03  0.80259490638E+03  0.45468348052E+03 0.  0.
      99925    2    3    3    0    0  0.66602443834E+02  0.47974088202E+01 -0.25574910276E+03  0.37289546000E+03  0.26302950380E+03 0.  0.
         25    1    4    4    0    0  0.62157177009E+02  0.30027963359E+02 -0.14941383116E+03  0.20672976147E+03  0.12509000000E+03 0.  0.
         25    1    3    3    0    0 -0.66602443834E+02 -0.47974088202E+01 -0.40562939423E+03  0.42969944638E+03  0.12509000000E+03 0.  0.
         25    1    4    4    0    0  0.44452668253E+01 -0.25230554539E+02 -0.10633527160E+03  0.16616569852E+03  0.12509000000E+03 0.  0.
<mgrwt>
<rscale>  2 0.45468348E+03</rscale>
<asrwt>0</asrwt>
<pdfrwt beam="1">  1       21 0.10383560E-01 0.45468348E+03</pdfrwt>
<pdfrwt beam="2">  1       21 0.10764510E+00 0.45468348E+03</pdfrwt>
<totfact> 0.47758068E+04</totfact>
</mgrwt>
</event>
<event>
 7    0  0.4788920E-002  0.4537451E+03  0.7546771E-02  0.1026611E+00
         21   -1    0    0  502  501  0.00000000000E+00  0.00000000000E+00  0.14780595290E+03  0.14780595290E+03  0.00000000000E+00 0.  1.
         21   -1    0    0  501  502 -0.00000000000E+00 -0.00000000000E+00 -0.34823464495E+03  0.34823464495E+03  0.00000000000E+00 0.  1.
      99926    2    1    2    0    0  0.00000000000E+00  0.00000000000E+00 -0.20042869204E+03  0.49604059785E+03  0.45374509818E+03 0.  0.
      99925    2    3    3    0    0  0.82457828854E+02 -0.23636030549E+01 -0.20925337099E+03  0.34593975436E+03  0.26283542421E+03 0.  0.
         25    1    4    4    0    0  0.34709711326E+02 -0.38305990604E+00 -0.53162628973E+02  0.14028073287E+03  0.12509000000E+03 0.  0.
         25    1    3    3    0    0 -0.82457828854E+02  0.23636030549E+01  0.88246789415E+01  0.15010084349E+03  0.12509000000E+03 0.  0.
         25    1    4    4    0    0  0.47748117528E+02 -0.19805431489E+01 -0.15609074201E+03  0.20565902149E+03  0.12509000000E+03 0.  0.
<mgrwt>
<rscale>  2 0.45374510E+03</rscale>
<asrwt>0</asrwt>
<pdfrwt beam="1">  1       21 0.21736169E-01 0.45374510E+03</pdfrwt>
<pdfrwt beam="2">  1       21 0.51210977E-01 0.45374510E+03</pdfrwt>
<totfact> 0.66206814E+04</totfact>
</mgrwt>
</event>
<event>
 7    0  0.4788920E-002  0.4555762E+03  0.7546771E-02  0.1026072E+00
         21   -1    0    0  502  501  0.00000000000E+00  0.00000000000E+00  0.89002594002E+03  0.89002594002E+03  0.00000000000E+00 0.  1.
         21   -1    0    0  501  502 -0.00000000000E+00 -0.00000000000E+00 -0.58298780627E+02  0.58298780627E+02  0.00000000000E+00 0.  1.
      99926    2    1    2    0    0  0.00000000000E+00  0.14210854715E-13  0.83172715939E+03  0.94832472064E+03  0.45557623744E+03 0.  0.
      99925    2    3    3    0    0  0.65256078376E+02 -0.91111231729E+02  0.56381018789E+03  0.63211810460E+03  0.26292918796E+03 0.  0.
         25    1    4    4    0    0  0.21773146860E+02 -0.85442546308E+02  0.28970046084E+03  0.32764060151E+03  0.12509000000E+03 0.  0.
         25    1    4    4    0    0  0.43482931516E+02 -0.56686854207E+01  0.27410972705E+03  0.30447750309E+03  0.12509000000E+03 0.  0.
         25    1    3    3    0    0 -0.65256078376E+02  0.91111231729E+02  0.26791697150E+03  0.31620661604E+03  0.12509000000E+03 0.  0.
<mgrwt>
<rscale>  2 0.45557624E+03</rscale>
<asrwt>0</asrwt>
<pdfrwt beam="1">  1       21 0.13088616E+00 0.45557624E+03</pdfrwt>
<pdfrwt beam="2">  1       21 0.85733506E-02 0.45557624E+03</pdfrwt>
<totfact> 0.41023547E+04</totfact>
</mgrwt>
</event>
<event>
 7    0  0.4788920E-002  0.4563243E+03  0.7546771E-02  0.1025853E+00
         21   -1    0    0  502  501  0.00000000000E+00  0.00000000000E+00  0.45442984133E+03  0.45442984133E+03  0.00000000000E+00 0.  1.
         21   -1    0    0  501  502 -0.00000000000E+00 -0.00000000000E+00 -0.11455666432E+03  0.11455666432E+03  0.00000000000E+00 0.  1.
      99926    2    1    2    0    0  0.17763568394E-14  0.00000000000E+00  0.33987317701E+03  0.56898650565E+03  0.45632430043E+03 0.  0.
      99925    2    3    3    0    0  0.10098523413E+02 -0.87936410647E+02  0.30355218291E+03  0.41150153747E+03  0.26335298573E+03 0.  0.
         25    1    4    4    0    0  0.12692781440E+02 -0.83178286464E+02  0.14192582133E+03  0.20705115528E+03  0.12509000000E+03 0.  0.
         25    1    4    4    0    0 -0.25942580268E+01 -0.47581241823E+01  0.16162636158E+03  0.20445038219E+03  0.12509000000E+03 0.  0.
         25    1    3    3    0    0 -0.10098523413E+02  0.87936410647E+02  0.36320994097E+02  0.15748496819E+03  0.12509000000E+03 0.  0.
<mgrwt>
<rscale>  2 0.45632430E+03</rscale>
<asrwt>0</asrwt>
<pdfrwt beam="1">  1       21 0.66827917E-01 0.45632430E+03</pdfrwt>
<pdfrwt beam="2">  1       21 0.16846569E-01 0.45632430E+03</pdfrwt>
<totfact> 0.59998216E+04</totfact>
</mgrwt>
</event>
<event>
 7    0  0.4788920E-002  0.4542165E+03  0.7546771E-02  0.1026472E+00
         21   -1    0    0  502  501  0.00000000000E+00  0.00000000000E+00  0.42209540885E+03  0.42209540885E+03  0.00000000000E+00 0.  1.
         21   -1    0    0  501  502 -0.00000000000E+00 -0.00000000000E+00 -0.12219547353E+03  0.12219547353E+03  0.00000000000E+00 0.  1.
      99926    2    1    2    0    0  0.00000000000E+00  0.14210854715E-13  0.29989993532E+03  0.54429088238E+03  0.45421646099E+03 0.  0.
      99925    2    3    3    0    0  0.47469393138E+02  0.87082981448E+02  0.12550642858E+03  0.30786458893E+03  0.26304363242E+03 0.  0.
         25    1    3    3    0    0 -0.47469393138E+02 -0.87082981448E+02  0.17439350674E+03  0.23642629345E+03  0.12509000000E+03 0.  0.
         25    1    4    4    0    0 -0.13317167475E+02  0.59936750311E+02  0.58726090526E+02  0.15121515399E+03  0.12509000000E+03 0.  0.
         25    1    4    4    0    0  0.60786560613E+02  0.27146231137E+02  0.66780338052E+02  0.15664943494E+03  0.12509000000E+03 0.  0.
<mgrwt>
<rscale>  2 0.45421646E+03</rscale>
<asrwt>0</asrwt>
<pdfrwt beam="1">  1       21 0.62072854E-01 0.45421646E+03</pdfrwt>
<pdfrwt beam="2">  1       21 0.17969923E-01 0.45421646E+03</pdfrwt>
<totfact> 0.62632791E+04</totfact>
</mgrwt>
</event>
<event>
 7    0  0.4788920E-002  0.4538709E+03  0.7546771E-02  0.1026574E+00
         21   -1    0    0  502  501  0.00000000000E+00  0.00000000000E+00  0.39261862598E+03  0.39261862598E+03  0.00000000000E+00 0. -1.
         21   -1    0    0  501  502 -0.00000000000E+00 -0.00000000000E+00 -0.13116975442E+03  0.13116975442E+03  0.00000000000E+00 0. -1.
      99926    2    1    2    0    0  0.71054273576E-14  0.00000000000E+00  0.26144887156E+03  0.52378838040E+03  0.45387085719E+03 0.  0.
      99925    2    3    3    0    0 -0.51085196366E+02 -0.74975969257E+02  0.88700098404E+02  0.29201103039E+03  0.26300502116E+03 0.  0.
         25    1    3    3    0    0  0.51085196366E+02  0.74975969257E+02  0.17274877315E+03  0.23177735002E+03  0.12509000000E+03 0.  0.
         25    1    4    4    0    0 -0.24992056124E+02 -0.78858512317E+02  0.40043587566E+02  0.15522327415E+03  0.12509000000E+03 0.  0.
         25    1    4    4    0    0 -0.26093140242E+02  0.38825430601E+01  0.48656510838E+02  0.13678775623E+03  0.12509000000E+03 0.  0.
<mgrwt>
<rscale>  2 0.45387086E+03</rscale>
<asrwt>0</asrwt>
<pdfrwt beam="1">  1       21 0.57738033E-01 0.45387086E+03</pdfrwt>
<pdfrwt beam="2">  1       21 0.19289670E-01 0.45387086E+03</pdfrwt>
<totfact> 0.64201713E+04</totfact>
</mgrwt>
</event>
<event>
 7    0  0.4788920E-002  0.4576926E+03  0.7546771E-02  0.1025453E+00
         21   -1    0    0  502  501  0.00000000000E+00  0.00000000000E+00  0.66432025853E+02  0.66432025853E+02  0.00000000000E+00 0. -1.
         21   -1    0    0  501  502 -0.00000000000E+00 -0.00000000000E+00 -0.78833403717E+03  0.78833403717E+03  0.00000000000E+00 0. -1.
      99926    2    1    2    0    0  0.00000000000E+00  0.00000000000E+00 -0.72190201131E+03  0.85476606302E+03  0.45769259176E+03 0.  0.
      99925    2    3    3    0    0 -0.52443726089E+02  0.50723185763E+02 -0.62093249331E+03  0.67822842498E+03  0.26289436893E+03 0.  0.
         25    1    4    4    0    0  0.13539410564E+02  0.23760589980E+02 -0.31851222132E+03  0.34328621369E+03  0.12509000000E+03 0.  0.
         25    1    3    3    0    0  0.52443726089E+02 -0.50723185763E+02 -0.10096951800E+03  0.17653763804E+03  0.12509000000E+03 0.  0.
         25    1    4    4    0    0 -0.65983136653E+02  0.26962595783E+02 -0.30242027199E+03  0.33494221129E+03  0.12509000000E+03 0.  0.
<mgrwt>
<rscale>  2 0.45769259E+03</rscale>
<asrwt>0</asrwt>
<pdfrwt beam="1">  1       21 0.97694155E-02 0.45769259E+03</pdfrwt>
<pdfrwt beam="2">  1       21 0.11593148E+00 0.45769259E+03</pdfrwt>
<totfact> 0.44284149E+04</totfact>
</mgrwt>
</event>
<event>
 7    0  0.4788920E-002  0.4596671E+03  0.7546771E-02  0.1024878E+00
         21   -1    0    0  502  501  0.00000000000E+00  0.00000000000E+00  0.84721902621E+02  0.84721902621E+02  0.00000000000E+00 0.  1.
         21   -1    0    0  501  502 -0.00000000000E+00 -0.00000000000E+00 -0.62349230789E+03  0.62349230789E+03  0.00000000000E+00 0.  1.
      99926    2    1    2    0    0 -0.14210854715E-13  0.00000000000E+00 -0.53877040527E+03  0.70821421051E+03  0.45966707341E+03 0.  0.
      99925    2    3    3    0    0  0.89351444707E+02  0.21436874612E+02 -0.45023380516E+03  0.52952605219E+03  0.26314281365E+03 0.  0.
         25    1    4    4    0    0  0.54092442386E+02  0.50854160156E+02 -0.23710743076E+03  0.27817185291E+03  0.12509000000E+03 0.  0.
         25    1    3    3    0    0 -0.89351444707E+02 -0.21436874612E+02 -0.88536600110E+02  0.17868815832E+03  0.12509000000E+03 0.  0.
         25    1    4    4    0    0  0.35259002322E+02 -0.29417285544E+02 -0.21312637439E+03  0.25135419928E+03  0.12509000000E+03 0.  0.
<mgrwt>
<rscale>  2 0.45966707E+03</rscale>
<asrwt>0</asrwt>
<pdfrwt beam="1">  1       21 0.12459103E-01 0.45966707E+03</pdfrwt>
<pdfrwt beam="2">  1       21 0.91690050E-01 0.45966707E+03</pdfrwt>
<totfact> 0.50576281E+04</totfact>
</mgrwt>
</event>
<event>
 7    0  0.4788920E-002  0.4459530E+03  0.7546771E-02  0.1028936E+00
         21   -1    0    0  502  501  0.00000000000E+00  0.00000000000E+00  0.55657781904E+03  0.55657781904E+03  0.00000000000E+00 0.  1.
         21   -1    0    0  501  502 -0.00000000000E+00 -0.00000000000E+00 -0.89328980296E+02  0.89328980296E+02  0.00000000000E+00 0.  1.
      99926    2    1    2    0    0  0.00000000000E+00  0.71054273576E-14  0.46724883875E+03  0.64590679934E+03  0.44595304251E+03 0.  0.
      99925    2    3    3    0    0  0.19789993152E+02 -0.50299366619E+02  0.42577982942E+03  0.50346784067E+03  0.26319143858E+03 0.  0.
         25    1    3    3    0    0 -0.19789993152E+02  0.50299366619E+02  0.41469009331E+02  0.14243895867E+03  0.12509000000E+03 0.  0.
         25    1    4    4    0    0  0.16387134770E+02  0.15598932827E+02  0.20960851113E+03  0.24514302137E+03  0.12509000000E+03 0.  0.
         25    1    4    4    0    0  0.34028583826E+01 -0.65898299446E+02  0.21617131829E+03  0.25832481930E+03  0.12509000000E+03 0.  0.
<mgrwt>
<rscale>  2 0.44595304E+03</rscale>
<asrwt>0</asrwt>
<pdfrwt beam="1">  1       21 0.81849678E-01 0.44595304E+03</pdfrwt>
<pdfrwt beam="2">  1       21 0.13136615E-01 0.44595304E+03</pdfrwt>
<totfact> 0.60115112E+04</totfact>
</mgrwt>
</event>
<event>
 7    0  0.4788920E-002  0.4338348E+03  0.7546771E-02  0.1032655E+00
         21   -1    0    0  502  501  0.00000000000E+00  0.00000000000E+00  0.93485235633E+02  0.93485235633E+02  0.00000000000E+00 0. -1.
         21   -1    0    0  501  502 -0.00000000000E+00 -0.00000000000E+00 -0.50332175699E+03  0.50332175699E+03  0.00000000000E+00 0. -1.
      99926    2    1    2    0    0  0.00000000000E+00  0.00000000000E+00 -0.40983652135E+03  0.59680699262E+03  0.43383477524E+03 0.  0.
      99925    2    3    3    0    0  0.29798513721E+02 -0.80744319423E+02 -0.30776547209E+03  0.41384906375E+03  0.26295221090E+03 0.  0.
         25    1    4    4    0    0  0.66011547385E+01 -0.41269839555E+01 -0.17056603465E+03  0.21166220144E+03  0.12509000000E+03 0.  0.
         25    1    4    4    0    0  0.23197358983E+02 -0.76617335468E+02 -0.13719943744E+03  0.20218686231E+03  0.12509000000E+03 0.  0.
         25    1    3    3    0    0 -0.29798513721E+02  0.80744319423E+02 -0.10207104926E+03  0.18295792887E+03  0.12509000000E+03 0.  0.
<mgrwt>
<rscale>  2 0.43383478E+03</rscale>
<asrwt>0</asrwt>
<pdfrwt beam="1">  1       21 0.13747829E-01 0.43383478E+03</pdfrwt>
<pdfrwt beam="2">  1       21 0.74017906E-01 0.43383478E+03</pdfrwt>
<totfact> 0.69842595E+04</totfact>
</mgrwt>
</event>
<event>
 7    0  0.4788920E-002  0.4377130E+03  0.7546771E-02  0.1031451E+00
         21   -1    0    0  502  501  0.00000000000E+00  0.00000000000E+00  0.10294336663E+03  0.10294336663E+03  0.00000000000E+00 0.  1.
         21   -1    0    0  501  502 -0.00000000000E+00 -0.00000000000E+00 -0.46528665880E+03  0.46528665880E+03  0.00000000000E+00 0.  1.
      99926    2    1    2    0    0  0.00000000000E+00  0.00000000000E+00 -0.36234329217E+03  0.56823002544E+03  0.43771303434E+03 0.  0.
      99925    2    3    3    0    0  0.69374645280E+02  0.47801474362E+02 -0.29210010656E+03  0.40185864694E+03  0.26281186714E+03 0.  0.
         25    1    4    4    0    0  0.13833724277E+02  0.57920575325E+02 -0.15447241898E+03  0.20749795493E+03  0.12509000000E+03 0.  0.
         25    1    3    3    0    0 -0.69374645280E+02 -0.47801474362E+02 -0.70243185607E+02  0.16637137850E+03  0.12509000000E+03 0.  0.
         25    1    4    4    0    0  0.55540921003E+02 -0.10119100963E+02 -0.13762768758E+03  0.19436069201E+03  0.12509000000E+03 0.  0.
<mgrwt>
<rscale>  2 0.43771303E+03</rscale>
<asrwt>0</asrwt>
<pdfrwt beam="1">  1       21 0.15138730E-01 0.43771303E+03</pdfrwt>
<pdfrwt beam="2">  1       21 0.68424508E-01 0.43771303E+03</pdfrwt>
<totfact> 0.69732567E+04</totfact>
</mgrwt>
</event>
<event>
 7    0  0.4788920E-002  0.4585683E+03  0.7546771E-02  0.1025197E+00
         21   -1    0    0  502  501  0.00000000000E+00  0.00000000000E+00  0.52173697588E+03  0.52173697588E+03  0.00000000000E+00 0. -1.
         21   -1    0    0  501  502 -0.00000000000E+00 -0.00000000000E+00 -0.10076192000E+03  0.10076192000E+03  0.00000000000E+00 0. -1.
      99926    2    1    2    0    0 -0.14210854715E-13  0.00000000000E+00  0.42097505589E+03  0.62249889588E+03  0.45856829120E+03 0.  0.
      99925    2    3    3    0    0  0.98386813411E+02 -0.59682517337E+02  0.28827549101E+03  0.40686343834E+03  0.26304587207E+03 0.  0.
         25    1    3    3    0    0 -0.98386813411E+02  0.59682517337E+02  0.13269956488E+03  0.21563545754E+03  0.12509000000E+03 0.  0.
         25    1    4    4    0    0  0.79855426703E+02 -0.37743527629E+02  0.19631173479E+03  0.24897242492E+03  0.12509000000E+03 0.  0.
         25    1    4    4    0    0  0.18531386708E+02 -0.21938989708E+02  0.91963756214E+02  0.15789101342E+03  0.12509000000E+03 0.  0.
<mgrwt>
<rscale>  2 0.45856829E+03</rscale>
<asrwt>0</asrwt>
<pdfrwt beam="1">  1       21 0.76726025E-01 0.45856829E+03</pdfrwt>
<pdfrwt beam="2">  1       21 0.14817930E-01 0.45856829E+03</pdfrwt>
<totfact> 0.55727510E+04</totfact>
</mgrwt>
</event>
<event>
 7    0  0.4788920E-002  0.4483904E+03  0.7546771E-02  0.1028203E+00
         21   -1    0    0  502  501  0.00000000000E+00  0.00000000000E+00  0.25988001874E+03  0.25988001874E+03  0.00000000000E+00 0.  1.
         21   -1    0    0  501  502 -0.00000000000E+00 -0.00000000000E+00 -0.19341036606E+03  0.19341036606E+03  0.00000000000E+00 0.  1.
      99926    2    1    2    0    0  0.00000000000E+00  0.00000000000E+00  0.66469652680E+02  0.45329038481E+03  0.44839040827E+03 0.  0.
      99925    2    3    3    0    0 -0.10006015351E+03  0.35908157092E+02  0.31733013950E+02  0.28549416246E+03  0.26305608253E+03 0.  0.
         25    1    4    4    0    0 -0.90922691264E+02  0.18807332723E+02  0.31372022454E+02  0.15890992242E+03  0.12509000000E+03 0.  0.
         25    1    4    4    0    0 -0.91374622445E+01  0.17100824369E+02  0.36099149576E+00  0.12658424003E+03  0.12509000000E+03 0.  0.
         25    1    3    3    0    0  0.10006015351E+03 -0.35908157092E+02  0.34736638729E+02  0.16779622235E+03  0.12509000000E+03 0.  0.
<mgrwt>
<rscale>  2 0.44839041E+03</rscale>
<asrwt>0</asrwt>
<pdfrwt beam="1">  1       21 0.38217650E-01 0.44839041E+03</pdfrwt>
<pdfrwt beam="2">  1       21 0.28442701E-01 0.44839041E+03</pdfrwt>
<totfact> 0.72414646E+04</totfact>
</mgrwt>
</event>
<event>
 7    0  0.4788920E-002  0.4330402E+03  0.7546771E-02  0.1032904E+00
         21   -1    0    0  502  501  0.00000000000E+00  0.00000000000E+00  0.15820042846E+03  0.15820042846E+03  0.00000000000E+00 0.  1.
         21   -1    0    0  501  502 -0.00000000000E+00 -0.00000000000E+00 -0.29633900705E+03  0.29633900705E+03  0.00000000000E+00 0.  1.
      99926    2    1    2    0    0  0.00000000000E+00  0.17763568394E-14 -0.13813857859E+03  0.45453943552E+03  0.43304021932E+03 0.  0.
      99925    2    3    3    0    0  0.85064037875E+02 -0.11211175180E+02 -0.12032917856E+03  0.30181005453E+03  0.26315131923E+03 0.  0.
         25    1    4    4    0    0  0.71381957889E+02  0.81428215001E+01 -0.92880149879E+02  0.17156899427E+03  0.12509000000E+03 0.  0.
         25    1    3    3    0    0 -0.85064037875E+02  0.11211175180E+02 -0.17809400023E+02  0.15272938099E+03  0.12509000000E+03 0.  0.
         25    1    4    4    0    0  0.13682079985E+02 -0.19353996680E+02 -0.27449028685E+02  0.13024106025E+03  0.12509000000E+03 0.  0.
<mgrwt>
<rscale>  2 0.43304022E+03</rscale>
<asrwt>0</asrwt>
<pdfrwt beam="1">  1       21 0.23264769E-01 0.43304022E+03</pdfrwt>
<pdfrwt beam="2">  1       21 0.43579265E-01 0.43304022E+03</pdfrwt>
<totfact> 0.81981625E+04</totfact>
</mgrwt>
</event>
<event>
 7    0  0.4788920E-002  0.4553498E+03  0.7546771E-02  0.1026139E+00
         21   -1    0    0  502  501  0.00000000000E+00  0.00000000000E+00  0.25060959644E+03  0.25060959644E+03  0.00000000000E+00 0. -1.
         21   -1    0    0  501  502 -0.00000000000E+00 -0.00000000000E+00 -0.20683911691E+03  0.20683911691E+03  0.00000000000E+00 0. -1.
      99926    2    1    2    0    0  0.44408920985E-15 -0.14210854715E-13  0.43770479534E+02  0.45744871335E+03  0.45534983306E+03 0.  0.
      99925    2    3    3    0    0 -0.88589326415E+00  0.98845907954E+02 -0.28330858668E+02  0.28247040213E+03  0.26308856342E+03 0.  0.
         25    1    3    3    0    0  0.88589326415E+00 -0.98845907954E+02  0.72101338202E+02  0.17497831122E+03  0.12509000000E+03 0.  0.
         25    1    4    4    0    0  0.15732102559E+02  0.89288938717E+02 -0.16369236872E+02  0.15535595786E+03  0.12509000000E+03 0.  0.
         25    1    4    4    0    0 -0.16617995823E+02  0.95569692365E+01 -0.11961621796E+02  0.12711444427E+03  0.12509000000E+03 0.  0.
<mgrwt>
<rscale>  2 0.45534983E+03</rscale>
<asrwt>0</asrwt>
<pdfrwt beam="1">  1       21 0.36854353E-01 0.45534983E+03</pdfrwt>
<pdfrwt beam="2">  1       21 0.30417517E-01 0.45534983E+03</pdfrwt>
<totfact> 0.68176285E+04</totfact>
</mgrwt>
</event>
<event>
 7    0  0.4788920E-002  0.4496454E+03  0.7546771E-02  0.1027828E+00
         21   -1    0    0  502  501  0.00000000000E+00  0.00000000000E+00  0.18152304811E+04  0.18152304811E+04  0.00000000000E+00 0. -1.
         21   -1    0    0  501  502 -0.00000000000E+00 -0.00000000000E+00 -0.27845083043E+02  0.27845083043E+02  0.00000000000E+00 0. -1.
      99926    2    1    2    0    0  0.00000000000E+00  0.00000000000E+00  0.17873853981E+04  0.18430755642E+04  0.44964538689E+03 0.  0.
      99925    2    3    3    0    0 -0.48523393000E+02  0.78427589910E+02  0.13613275628E+04  0.13895579861E+04  0.26297006848E+03 0.  0.
         25    1    4    4    0    0  0.85503978706E+01  0.59805859409E+02  0.74009395766E+03  0.75301820986E+03  0.12509000000E+03 0.  0.
         25    1    4    4    0    0 -0.57073790871E+02  0.18621730500E+02  0.62123360515E+03  0.63653977623E+03  0.12509000000E+03 0.  0.
         25    1    3    3    0    0  0.48523393000E+02 -0.78427589910E+02  0.42605783528E+03  0.45351757809E+03  0.12509000000E+03 0.  0.
<mgrwt>
<rscale>  2 0.44964539E+03</rscale>
<asrwt>0</asrwt>
<pdfrwt beam="1">  1       21 0.26694558E+00 0.44964539E+03</pdfrwt>
<pdfrwt beam="2">  1       21 0.40948664E-02 0.44964539E+03</pdfrwt>
<totfact> 0.17147306E+04</totfact>
</mgrwt>
</event>
<event>
 7    0  0.4788920E-002  0.4502728E+03  0.7546771E-02  0.1027641E+00
         21   -1    0    0  502  501  0.00000000000E+00  0.00000000000E+00  0.26870033748E+03  0.26870033748E+03  0.00000000000E+00 0.  1.
         21   -1    0    0  501  502 -0.00000000000E+00 -0.00000000000E+00 -0.18863544059E+03  0.18863544059E+03  0.00000000000E+00 0.  1.
      99926    2    1    2    0    0  0.35527136788E-14  0.00000000000E+00  0.80064896883E+02  0.45733577807E+03  0.45027283528E+03 0.  0.
      99925    2    3    3    0    0  0.26813669842E+02  0.10269786127E+03  0.73919408891E+02  0.29316788011E+03  0.26309219547E+03 0.  0.
         25    1    4    4    0    0  0.49950241720E+02  0.46895244730E+02  0.19392118108E+02  0.14393662832E+03  0.12509000000E+03 0.  0.
         25    1    4    4    0    0 -0.23136571878E+02  0.55802616540E+02  0.54527290783E+02  0.14923125179E+03  0.12509000000E+03 0.  0.
         25    1    3    3    0    0 -0.26813669842E+02 -0.10269786127E+03  0.61454879927E+01  0.16416789797E+03  0.12509000000E+03 0.  0.
<mgrwt>
<rscale>  2 0.45027284E+03</rscale>
<asrwt>0</asrwt>
<pdfrwt beam="1">  1       21 0.39514756E-01 0.45027284E+03</pdfrwt>
<pdfrwt beam="2">  1       21 0.27740506E-01 0.45027284E+03</pdfrwt>
<totfact> 0.71014135E+04</totfact>
</mgrwt>
</event>
<event>
 7    0  0.4788920E-002  0.4181790E+03  0.7546771E-02  0.1037661E+00
         21   -1    0    0  502  501  0.00000000000E+00  0.00000000000E+00  0.15342531780E+03  0.15342531780E+03  0.00000000000E+00 0.  1.
         21   -1    0    0  501  502 -0.00000000000E+00 -0.00000000000E+00 -0.28494919139E+03  0.28494919139E+03  0.00000000000E+00 0.  1.
      99926    2    1    2    0    0  0.71054273576E-14  0.17763568394E-14 -0.13152387360E+03  0.43837450919E+03  0.41817900590E+03 0.  0.
      99925    2    3    3    0    0  0.57557932490E+02  0.12663476992E+02 -0.13177612890E+03  0.30009634397E+03  0.26309615785E+03 0.  0.
         25    1    4    4    0    0  0.52102735027E+02  0.35382010454E+01 -0.30856893191E+02  0.13902111286E+03  0.12509000000E+03 0.  0.
         25    1    3    3    0    0 -0.57557932490E+02 -0.12663476992E+02  0.25225530926E+00  0.13827816521E+03  0.12509000000E+03 0.  0.
         25    1    4    4    0    0  0.54551974625E+01  0.91252759465E+01 -0.10091923571E+03  0.16107523111E+03  0.12509000000E+03 0.  0.
<mgrwt>
<rscale>  2 0.41817901E+03</rscale>
<asrwt>0</asrwt>
<pdfrwt beam="1">  1       21 0.22562547E-01 0.41817901E+03</pdfrwt>
<pdfrwt beam="2">  1       21 0.41904292E-01 0.41817901E+03</pdfrwt>
<totfact> 0.94625622E+04</totfact>
</mgrwt>
</event>
<event>
 7    0  0.4788920E-002  0.4520199E+03  0.7546771E-02  0.1027121E+00
         21   -1    0    0  502  501  0.00000000000E+00  0.00000000000E+00  0.58798219828E+02  0.58798219828E+02  0.00000000000E+00 0.  1.
         21   -1    0    0  501  502 -0.00000000000E+00 -0.00000000000E+00 -0.86874234524E+03  0.86874234524E+03  0.00000000000E+00 0.  1.
      99926    2    1    2    0    0  0.00000000000E+00 -0.44408920985E-15 -0.80994412541E+03  0.92754056507E+03  0.45201992606E+03 0.  0.
      99925    2    3    3    0    0 -0.11010053509E+03  0.24491586497E+01 -0.49721851767E+03  0.57317784123E+03  0.26301797878E+03 0.  0.
         25    1    4    4    0    0 -0.51980818173E+02  0.11108004525E+02 -0.32560531423E+03  0.35283384472E+03  0.12509000000E+03 0.  0.
         25    1    4    4    0    0 -0.58119716917E+02 -0.86588458750E+01 -0.17161320344E+03  0.22034399652E+03  0.12509000000E+03 0.  0.
         25    1    3    3    0    0  0.11010053509E+03 -0.24491586497E+01 -0.31272560774E+03  0.35436272383E+03  0.12509000000E+03 0.  0.
<mgrwt>
<rscale>  2 0.45201993E+03</rscale>
<asrwt>0</asrwt>
<pdfrwt beam="1">  1       21 0.86467962E-02 0.45201993E+03</pdfrwt>
<pdfrwt beam="2">  1       21 0.12775624E+00 0.45201993E+03</pdfrwt>
<totfact> 0.43058863E+04</totfact>
</mgrwt>
</event>
<event>
 7    0  0.4788920E-002  0.4538597E+03  0.7546771E-02  0.1026577E+00
         21   -1    0    0  502  501  0.00000000000E+00  0.00000000000E+00  0.20290485306E+03  0.20290485306E+03  0.00000000000E+00 0.  1.
         21   -1    0    0  501  502 -0.00000000000E+00 -0.00000000000E+00 -0.25379956882E+03  0.25379956882E+03  0.00000000000E+00 0.  1.
      99926    2    1    2    0    0  0.00000000000E+00 -0.71054273576E-14 -0.50894715766E+02  0.45670442188E+03  0.45385973260E+03 0.  0.
      99925    2    3    3    0    0 -0.57259140514E+02  0.53586593101E+02 -0.11265493496E+03  0.29666703591E+03  0.26300202222E+03 0.  0.
         25    1    4    4    0    0 -0.37350791089E+02 -0.10834840736E+02 -0.39410507079E+02  0.13679609474E+03  0.12509000000E+03 0.  0.
         25    1    4    4    0    0 -0.19908349424E+02  0.64421433837E+02 -0.73244427885E+02  0.15987094117E+03  0.12509000000E+03 0.  0.
         25    1    3    3    0    0  0.57259140514E+02 -0.53586593101E+02  0.61760219198E+02  0.16003738597E+03  0.12509000000E+03 0.  0.
<mgrwt>
<rscale>  2 0.45385973E+03</rscale>
<asrwt>0</asrwt>
<pdfrwt beam="1">  1       21 0.29838949E-01 0.45385973E+03</pdfrwt>
<pdfrwt beam="2">  1       21 0.37323466E-01 0.45385973E+03</pdfrwt>
<totfact> 0.69047069E+04</totfact>
</mgrwt>
</event>
<event>
 7    0  0.4788920E-002  0.4578349E+03  0.7546771E-02  0.1025411E+00
         21   -1    0    0  502  501  0.00000000000E+00  0.00000000000E+00  0.53032334378E+03  0.53032334378E+03  0.00000000000E+00 0.  1.
         21   -1    0    0  501  502 -0.00000000000E+00 -0.00000000000E+00 -0.98813657193E+02  0.98813657193E+02  0.00000000000E+00 0.  1.
      99926    2    1    2    0    0  0.35527136788E-14  0.00000000000E+00  0.43150968658E+03  0.62913700097E+03  0.45783485710E+03 0.  0.
      99925    2    3    3    0    0  0.26776796650E+02  0.45394828980E+02  0.41255539704E+03  0.49208058730E+03  0.26298985043E+03 0.  0.
         25    1    4    4    0    0  0.52114089544E+02  0.11104097403E+02  0.20260459948E+03  0.24399858839E+03  0.12509000000E+03 0.  0.
         25    1    4    4    0    0 -0.25337292894E+02  0.34290731576E+02  0.20995079757E+03  0.24808199891E+03  0.12509000000E+03 0.  0.
         25    1    3    3    0    0 -0.26776796650E+02 -0.45394828980E+02  0.18954289543E+02  0.13705641367E+03  0.12509000000E+03 0.  0.
<mgrwt>
<rscale>  2 0.45783486E+03</rscale>
<asrwt>0</asrwt>
<pdfrwt beam="1">  1       21 0.77988726E-01 0.45783486E+03</pdfrwt>
<pdfrwt beam="2">  1       21 0.14531420E-01 0.45783486E+03</pdfrwt>
<totfact> 0.55663488E+04</totfact>
</mgrwt>
</event>
<event>
 7    0  0.4788920E-002  0.4518604E+03  0.7546771E-02  0.1027169E+00
         21   -1    0    0  502  501  0.00000000000E+00  0.00000000000E+00  0.48543026248E+02  0.48543026248E+02  0.00000000000E+00 0. -1.
         21   -1    0    0  501  502 -0.00000000000E+00 -0.00000000000E+00 -0.10515300674E+04  0.10515300674E+04  0.00000000000E+00 0. -1.
      99926    2    1    2    0    0 -0.14210854715E-13  0.17763568394E-14 -0.10029870412E+04  0.11000730937E+04  0.45186038403E+03 0.  0.
      99925    2    3    3    0    0 -0.78792060572E+02  0.62783156090E+01 -0.81947144833E+03  0.86433364646E+03  0.26323296093E+03 0.  0.
         25    1    4    4    0    0 -0.56806392596E+02 -0.20174760461E+02 -0.33141817073E+03  0.35933201804E+03  0.12509000000E+03 0.  0.
         25    1    3    3    0    0  0.78792060572E+02 -0.62783156090E+01 -0.18351559286E+03  0.23573944723E+03  0.12509000000E+03 0.  0.
         25    1    4    4    0    0 -0.21985667976E+02  0.26453076070E+02 -0.48805327760E+03  0.50500162842E+03  0.12509000000E+03 0.  0.
<mgrwt>
<rscale>  2 0.45186038E+03</rscale>
<asrwt>0</asrwt>
<pdfrwt beam="1">  1       21 0.71386807E-02 0.45186038E+03</pdfrwt>
<pdfrwt beam="2">  1       21 0.15463677E+00 0.45186038E+03</pdfrwt>
<totfact> 0.36374448E+04</totfact>
</mgrwt>
</event>
<event>
 7    0  0.4788920E-002  0.4581197E+03  0.7546771E-02  0.1025328E+00
         21   -1    0    0  502  501  0.00000000000E+00  0.00000000000E+00  0.28323697923E+03  0.28323697923E+03  0.00000000000E+00 0. -1.
         21   -1    0    0  501  502 -0.00000000000E+00 -0.00000000000E+00 -0.18524562757E+03  0.18524562757E+03  0.00000000000E+00 0. -1.
      99926    2    1    2    0    0  0.00000000000E+00  0.00000000000E+00  0.97991351658E+02  0.46848260681E+03  0.45811968729E+03 0.  0.
      99925    2    3    3    0    0 -0.39942501979E+02  0.95361176384E+02  0.73538989299E+01  0.28260142604E+03  0.26290745281E+03 0.  0.
         25    1    3    3    0    0  0.39942501979E+02 -0.95361176384E+02  0.90637452728E+02  0.18588118077E+03  0.12509000000E+03 0.  0.
         25    1    4    4    0    0  0.16367577528E+01  0.36775127106E+02 -0.29556780305E+02  0.13370190841E+03  0.12509000000E+03 0.  0.
         25    1    4    4    0    0 -0.41579259731E+02  0.58586049278E+02  0.36910679235E+02  0.14889951763E+03  0.12509000000E+03 0.  0.
<mgrwt>
<rscale>  2 0.45811969E+03</rscale>
<asrwt>0</asrwt>
<pdfrwt beam="1">  1       21 0.41652497E-01 0.45811969E+03</pdfrwt>
<pdfrwt beam="2">  1       21 0.27242004E-01 0.45811969E+03</pdfrwt>
<totfact> 0.65903068E+04</totfact>
</mgrwt>
</event>
<event>
 7    0  0.4788920E-002  0.4633680E+03  0.7546771E-02  0.1023809E+00
         21   -1    0    0  502  501  0.00000000000E+00  0.00000000000E+00  0.11370231896E+03  0.11370231896E+03  0.00000000000E+00 0.  1.
         21   -1    0    0  501  502 -0.00000000000E+00 -0.00000000000E+00 -0.47208770688E+03  0.47208770688E+03  0.00000000000E+00 0.  1.
      99926    2    1    2    0    0  0.00000000000E+00  0.71054273576E-14 -0.35838538792E+03  0.58579002583E+03  0.46336796187E+03 0.  0.
      99925    2    3    3    0    0 -0.49304855305E+02  0.50261959970E+02 -0.99693689980E+02  0.28994186197E+03  0.26300231582E+03 0.  0.
         25    1    4    4    0    0 -0.50677709734E+02 -0.52511678167E+01 -0.42338745485E+02  0.14154816317E+03  0.12509000000E+03 0.  0.
         25    1    3    3    0    0  0.49304855305E+02 -0.50261959970E+02 -0.25869169794E+03  0.29584816386E+03  0.12509000000E+03 0.  0.
         25    1    4    4    0    0  0.13728544287E+01  0.55513127787E+02 -0.57354944496E+02  0.14839369880E+03  0.12509000000E+03 0.  0.
<mgrwt>
<rscale>  2 0.46336796E+03</rscale>
<asrwt>0</asrwt>
<pdfrwt beam="1">  1       21 0.16720930E-01 0.46336796E+03</pdfrwt>
<pdfrwt beam="2">  1       21 0.69424661E-01 0.46336796E+03</pdfrwt>
<totfact> 0.55779383E+04</totfact>
</mgrwt>
</event>
<event>
 7    0  0.4788920E-002  0.4523843E+03  0.7546771E-02  0.1027013E+00
         21   -1    0    0  502  501  0.00000000000E+00  0.00000000000E+00  0.14704764157E+04  0.14704764157E+04  0.00000000000E+00 0.  1.
         21   -1    0    0  501  502 -0.00000000000E+00 -0.00000000000E+00 -0.34793415474E+02  0.34793415474E+02  0.00000000000E+00 0.  1.
      99926    2    1    2    0    0 -0.14210854715E-13 -0.71054273576E-14  0.14356830002E+04  0.15052698312E+04  0.45238433606E+03 0.  0.
      99925    2    3    3    0    0 -0.83873470912E+02 -0.57281088731E+02  0.75278857656E+03  0.80362306519E+03  0.26230422728E+03 0.  0.
         25    1    4    4    0    0 -0.63555286693E+01 -0.22754091904E+02  0.28821596078E+03  0.31507791035E+03  0.12509000000E+03 0.  0.
         25    1    3    3    0    0  0.83873470912E+02  0.57281088731E+02  0.68289442368E+03  0.70164676601E+03  0.12509000000E+03 0.  0.
         25    1    4    4    0    0 -0.77517942242E+02 -0.34526996827E+02  0.46457261578E+03  0.48854515484E+03  0.12509000000E+03 0.  0.
<mgrwt>
<rscale>  2 0.45238434E+03</rscale>
<asrwt>0</asrwt>
<pdfrwt beam="1">  1       21 0.21624649E+00 0.45238434E+03</pdfrwt>
<pdfrwt beam="2">  1       21 0.51166797E-02 0.45238434E+03</pdfrwt>
<totfact> 0.24136930E+04</totfact>
</mgrwt>
</event>
<event>
 7    0  0.4788920E-002  0.4507573E+03  0.7546771E-02  0.1027496E+00
         21   -1    0    0  502  501  0.00000000000E+00  0.00000000000E+00  0.17677106498E+03  0.17677106498E+03  0.00000000000E+00 0.  1.
         21   -1    0    0  501  502 -0.00000000000E+00 -0.00000000000E+00 -0.28735211592E+03  0.28735211592E+03  0.00000000000E+00 0.  1.
      99926    2    1    2    0    0 -0.13322676296E-14  0.00000000000E+00 -0.11058105094E+03  0.46412318091E+03  0.45075731633E+03 0.  0.
      99925    2    3    3    0    0  0.25985249096E+01 -0.36433196843E+02 -0.17565942578E+03  0.31846318937E+03  0.26311297755E+03 0.  0.
         25    1    4    4    0    0 -0.38746263323E+02 -0.15352237994E+02 -0.78973037383E+02  0.15369194145E+03  0.12509000000E+03 0.  0.
         25    1    4    4    0    0  0.41344788233E+02 -0.21080958850E+02 -0.96686388393E+02  0.16477124792E+03  0.12509000000E+03 0.  0.
         25    1    3    3    0    0 -0.25985249096E+01  0.36433196843E+02  0.65078374835E+02  0.14565999154E+03  0.12509000000E+03 0.  0.
<mgrwt>
<rscale>  2 0.45075732E+03</rscale>
<asrwt>0</asrwt>
<pdfrwt beam="1">  1       21 0.25995745E-01 0.45075732E+03</pdfrwt>
<pdfrwt beam="2">  1       21 0.42257663E-01 0.45075732E+03</pdfrwt>
<totfact> 0.70208679E+04</totfact>
</mgrwt>
</event>
<event>
 7    0  0.4788920E-002  0.4527772E+03  0.7546771E-02  0.1026897E+00
         21   -1    0    0  502  501  0.00000000000E+00  0.00000000000E+00  0.85788685260E+02  0.85788685260E+02  0.00000000000E+00 0. -1.
         21   -1    0    0  501  502 -0.00000000000E+00 -0.00000000000E+00 -0.59741899369E+03  0.59741899369E+03  0.00000000000E+00 0. -1.
      99926    2    1    2    0    0  0.00000000000E+00  0.14210854715E-13 -0.51163030843E+03  0.68320767895E+03  0.45277716381E+03 0.  0.
      99925    2    3    3    0    0  0.24232156386E+01 -0.10675634463E+03 -0.27663007612E+03  0.39637078038E+03  0.26302624857E+03 0.  0.
         25    1    4    4    0    0 -0.13954478566E+02 -0.34485809719E+02 -0.17786017932E+03  0.22060315055E+03  0.12509000000E+03 0.  0.
         25    1    4    4    0    0  0.16377694205E+02 -0.72270534910E+02 -0.98769896793E+02  0.17576762983E+03  0.12509000000E+03 0.  0.
         25    1    3    3    0    0 -0.24232156386E+01  0.10675634463E+03 -0.23500023231E+03  0.28683689857E+03  0.12509000000E+03 0.  0.
<mgrwt>
<rscale>  2 0.45277716E+03</rscale>
<asrwt>0</asrwt>
<pdfrwt beam="1">  1       21 0.12615983E-01 0.45277716E+03</pdfrwt>
<pdfrwt beam="2">  1       21 0.87855738E-01 0.45277716E+03</pdfrwt>
<totfact> 0.54776868E+04</totfact>
</mgrwt>
</event>
<event>
 7    0  0.4788920E-002  0.4551913E+03  0.7546771E-02  0.1026185E+00
         21   -1    0    0  502  501  0.00000000000E+00  0.00000000000E+00  0.36235362520E+03  0.36235362520E+03  0.00000000000E+00 0. -1.
         21   -1    0    0  501  502 -0.00000000000E+00 -0.00000000000E+00 -0.14295365550E+03  0.14295365550E+03  0.00000000000E+00 0. -1.
      99926    2    1    2    0    0  0.00000000000E+00  0.17763568394E-14  0.21939996970E+03  0.50530728070E+03  0.45519127982E+03 0.  0.
      99925    2    3    3    0    0  0.11094270636E+03 -0.13146829616E+02  0.15988426903E+03  0.32734450384E+03  0.26288842022E+03 0.  0.
         25    1    4    4    0    0  0.61965732963E+02  0.27087410200E+02  0.10495299195E+03  0.17673742805E+03  0.12509000000E+03 0.  0.
         25    1    3    3    0    0 -0.11094270636E+03  0.13146829616E+02  0.59515700674E+02  0.17796277687E+03  0.12509000000E+03 0.  0.
         25    1    4    4    0    0  0.48976973397E+02 -0.40234239816E+02  0.54931277076E+02  0.15060707579E+03  0.12509000000E+03 0.  0.
<mgrwt>
<rscale>  2 0.45519128E+03</rscale>
<asrwt>0</asrwt>
<pdfrwt beam="1">  1       21 0.53287298E-01 0.45519128E+03</pdfrwt>
<pdfrwt beam="2">  1       21 0.21022596E-01 0.45519128E+03</pdfrwt>
<totfact> 0.64800956E+04</totfact>
</mgrwt>
</event>
<event>
 7    0  0.4788920E-002  0.4580813E+03  0.7546771E-02  0.1025339E+00
         21   -1    0    0  502  501  0.00000000000E+00  0.00000000000E+00  0.16526817433E+03  0.16526817433E+03  0.00000000000E+00 0. -1.
         21   -1    0    0  501  502 -0.00000000000E+00 -0.00000000000E+00 -0.31742111473E+03  0.31742111473E+03  0.00000000000E+00 0. -1.
      99926    2    1    2    0    0  0.00000000000E+00  0.00000000000E+00 -0.15215294040E+03  0.48268928906E+03  0.45808125098E+03 0.  0.
      99925    2    3    3    0    0  0.10402928176E+03 -0.50534220293E+02 -0.10563953101E+03  0.30609142883E+03  0.26297614608E+03 0.  0.
         25    1    3    3    0    0 -0.10402928176E+03  0.50534220293E+02 -0.46513409396E+02  0.17659786023E+03  0.12509000000E+03 0.  0.
         25    1    4    4    0    0  0.64019055343E+02 -0.41005108351E+02 -0.93858627975E+02  0.17388734429E+03  0.12509000000E+03 0.  0.
         25    1    4    4    0    0  0.40010226418E+02 -0.95291119421E+01 -0.11780903033E+02  0.13220408454E+03  0.12509000000E+03 0.  0.
<mgrwt>
<rscale>  2 0.45808125E+03</rscale>
<asrwt>0</asrwt>
<pdfrwt beam="1">  1       21 0.24304143E-01 0.45808125E+03</pdfrwt>
<pdfrwt beam="2">  1       21 0.46679576E-01 0.45808125E+03</pdfrwt>
<totfact> 0.64902882E+04</totfact>
</mgrwt>
</event>
<event>
 7    0  0.4788920E-002  0.4691839E+03  0.7546771E-02  0.1022151E+00
         21   -1    0    0  502  501  0.00000000000E+00  0.00000000000E+00  0.17039303672E+03  0.17039303672E+03  0.00000000000E+00 0. -1.
         21   -1    0    0  501  502 -0.00000000000E+00 -0.00000000000E+00 -0.32297911720E+03  0.32297911720E+03  0.00000000000E+00 0. -1.
      99926    2    1    2    0    0 -0.14210854715E-13 -0.71054273576E-14 -0.15258608048E+03  0.49337215391E+03  0.46918394080E+03 0.  0.
      99925    2    3    3    0    0 -0.12347919466E+03 -0.16809854313E+02 -0.74778177948E+02  0.30041811661E+03  0.26292505809E+03 0.  0.
         25    1    4    4    0    0 -0.35683919472E+02 -0.39271200408E+02 -0.44761218697E+02  0.14306167932E+03  0.12509000000E+03 0.  0.
         25    1    4    4    0    0 -0.87795275190E+02  0.22461346095E+02 -0.30016959252E+02  0.15735643729E+03  0.12509000000E+03 0.  0.
         25    1    3    3    0    0  0.12347919466E+03  0.16809854313E+02 -0.77807902529E+02  0.19295403731E+03  0.12509000000E+03 0.  0.
<mgrwt>
<rscale>  2 0.46918394E+03</rscale>
<asrwt>0</asrwt>
<pdfrwt beam="1">  1       21 0.25057800E-01 0.46918394E+03</pdfrwt>
<pdfrwt beam="2">  1       21 0.47496929E-01 0.46918394E+03</pdfrwt>
<totfact> 0.58830492E+04</totfact>
</mgrwt>
</event>
<event>
 7    0  0.4788920E-002  0.4518740E+03  0.7546771E-02  0.1027165E+00
         21   -1    0    0  502  501  0.00000000000E+00  0.00000000000E+00  0.83790457435E+02  0.83790457435E+02  0.00000000000E+00 0. -1.
         21   -1    0    0  501  502 -0.00000000000E+00 -0.00000000000E+00 -0.60922838404E+03  0.60922838404E+03  0.00000000000E+00 0. -1.
      99926    2    1    2    0    0  0.00000000000E+00  0.71054273576E-14 -0.52543792660E+03  0.69301884147E+03  0.45187398678E+03 0.  0.
      99925    2    3    3    0    0  0.65396207241E+02  0.44624225172E+02 -0.44895726455E+03  0.52639115721E+03  0.26316732245E+03 0.  0.
         25    1    3    3    0    0 -0.65396207241E+02 -0.44624225172E+02 -0.76480662049E+02  0.16662768426E+03  0.12509000000E+03 0.  0.
         25    1    4    4    0    0 -0.12430730769E+01  0.13583432786E+02 -0.25301055486E+03  0.28257371400E+03  0.12509000000E+03 0.  0.
         25    1    4    4    0    0  0.66639280318E+02  0.31040792387E+02 -0.19594670970E+03  0.24381744321E+03  0.12509000000E+03 0.  0.
<mgrwt>
<rscale>  2 0.45187399E+03</rscale>
<asrwt>0</asrwt>
<pdfrwt beam="1">  1       21 0.12322127E-01 0.45187399E+03</pdfrwt>
<pdfrwt beam="2">  1       21 0.89592406E-01 0.45187399E+03</pdfrwt>
<totfact> 0.54615168E+04</totfact>
</mgrwt>
</event>
<event>
 7    0  0.4788920E-002  0.4555329E+03  0.7546771E-02  0.1026085E+00
         21   -1    0    0  502  501  0.00000000000E+00  0.00000000000E+00  0.25734220928E+03  0.25734220928E+03  0.00000000000E+00 0. -1.
         21   -1    0    0  501  502 -0.00000000000E+00 -0.00000000000E+00 -0.20158973231E+03  0.20158973231E+03  0.00000000000E+00 0. -1.
      99926    2    1    2    0    0 -0.14210854715E-13  0.00000000000E+00  0.55752476966E+02  0.45893194159E+03  0.45553286195E+03 0.  0.
      99925    2    3    3    0    0 -0.97116364686E+02 -0.43849110776E+02 -0.43084125098E+01  0.28397722930E+03  0.26319227105E+03 0.  0.
         25    1    4    4    0    0 -0.84037578677E+02 -0.78897618018E+01 -0.20016884902E+02  0.15222597266E+03  0.12509000000E+03 0.  0.
         25    1    4    4    0    0 -0.13078786009E+02 -0.35959348974E+02  0.15708472392E+02  0.13175125664E+03  0.12509000000E+03 0.  0.
         25    1    3    3    0    0  0.97116364686E+02  0.43849110776E+02  0.60060889476E+02  0.17495471228E+03  0.12509000000E+03 0.  0.
<mgrwt>
<rscale>  2 0.45553286E+03</rscale>
<asrwt>0</asrwt>
<pdfrwt beam="1">  1       21 0.37844443E-01 0.45553286E+03</pdfrwt>
<pdfrwt beam="2">  1       21 0.29645549E-01 0.45553286E+03</pdfrwt>
<totfact> 0.67969136E+04</totfact>
</mgrwt>
</event>
<event>
 7    0  0.4788920E-002  0.4622808E+03  0.7546771E-02  0.1024122E+00
         21   -1    0    0  502  501  0.00000000000E+00  0.00000000000E+00  0.69658697140E+02  0.69658697140E+02  0.00000000000E+00 0. -1.
         21   -1    0    0  501  502 -0.00000000000E+00 -0.00000000000E+00 -0.76696657051E+03  0.76696657051E+03  0.00000000000E+00 0. -1.
      99926    2    1    2    0    0  0.00000000000E+00  0.00000000000E+00 -0.69730787337E+03  0.83662526764E+03  0.46228083262E+03 0.  0.
      99925    2    3    3    0    0 -0.17407135882E+02 -0.69331947654E+02 -0.26196791558E+03  0.37806413291E+03  0.26305013297E+03 0.  0.
         25    1    4    4    0    0  0.17086312689E+02 -0.45798696575E+02 -0.91362584090E+02  0.16243180896E+03  0.12509000000E+03 0.  0.
         25    1    4    4    0    0 -0.34493448571E+02 -0.23533251079E+02 -0.17060533149E+03  0.21563232395E+03  0.12509000000E+03 0.  0.
         25    1    3    3    0    0  0.17407135882E+02  0.69331947654E+02 -0.43533995778E+03  0.45856113473E+03  0.12509000000E+03 0.  0.
<mgrwt>
<rscale>  2 0.46228083E+03</rscale>
<asrwt>0</asrwt>
<pdfrwt beam="1">  1       21 0.10243926E-01 0.46228083E+03</pdfrwt>
<pdfrwt beam="2">  1       21 0.11278920E+00 0.46228083E+03</pdfrwt>
<totfact> 0.43504838E+04</totfact>
</mgrwt>
</event>
<event>
 7    0  0.4788920E-002  0.4517304E+03  0.7546771E-02  0.1027207E+00
         21   -1    0    0  502  501  0.00000000000E+00  0.00000000000E+00  0.21921292736E+04  0.21921292736E+04  0.00000000000E+00 0.  1.
         21   -1    0    0  501  502 -0.00000000000E+00 -0.00000000000E+00 -0.23271937695E+02  0.23271937695E+02  0.00000000000E+00 0.  1.
      99926    2    1    2    0    0  0.00000000000E+00  0.00000000000E+00  0.21688573360E+04  0.22154012113E+04  0.45173043234E+03 0.  0.
      99925    2    3    3    0    0 -0.10910279949E+03  0.11548216009E+02  0.14144934402E+04  0.14429057891E+04  0.26296129288E+03 0.  0.
         25    1    3    3    0    0  0.10910279949E+03 -0.11548216009E+02  0.75436389575E+03  0.77249542229E+03  0.12509000000E+03 0.  0.
         25    1    4    4    0    0 -0.73735410162E+02  0.37904669475E+01  0.55929475468E+03  0.57784895004E+03  0.12509000000E+03 0.  0.
         25    1    4    4    0    0 -0.35367389329E+02  0.77577490614E+01  0.85519868553E+03  0.86505683901E+03  0.12509000000E+03 0.  0.
<mgrwt>
<rscale>  2 0.45173043E+03</rscale>
<asrwt>0</asrwt>
<pdfrwt beam="1">  1       21 0.32237181E+00 0.45173043E+03</pdfrwt>
<pdfrwt beam="2">  1       21 0.34223453E-02 0.45173043E+03</pdfrwt>
<totfact> 0.10772149E+04</totfact>
</mgrwt>
</event>
<event>
 7    0  0.4788920E-002  0.4555782E+03  0.7546771E-02  0.1026072E+00
         21   -1    0    0  502  501  0.00000000000E+00  0.00000000000E+00  0.23929327588E+02  0.23929327588E+02  0.00000000000E+00 0. -1.
         21   -1    0    0  501  502 -0.00000000000E+00 -0.00000000000E+00 -0.21683802057E+04  0.21683802057E+04  0.00000000000E+00 0. -1.
      99926    2    1    2    0    0  0.00000000000E+00  0.00000000000E+00 -0.21444508782E+04  0.21923095333E+04  0.45557822722E+03 0.  0.
      99925    2    3    3    0    0  0.85020877500E+02 -0.50368105963E+02 -0.16200856789E+04  0.16442476153E+04  0.26288232677E+03 0.  0.
         25    1    4    4    0    0  0.38807707119E+02 -0.23060677009E+02 -0.56622006863E+03  0.58162746425E+03  0.12509000000E+03 0.  0.
         25    1    3    3    0    0 -0.85020877500E+02  0.50368105963E+02 -0.52436519926E+03  0.54806191804E+03  0.12509000000E+03 0.  0.
         25    1    4    4    0    0  0.46213170381E+02 -0.27307428954E+02 -0.10538656103E+04  0.10626201510E+04  0.12509000000E+03 0.  0.
<mgrwt>
<rscale>  2 0.45557823E+03</rscale>
<asrwt>0</asrwt>
<pdfrwt beam="1">  1       21 0.35190172E-02 0.45557823E+03</pdfrwt>
<pdfrwt beam="2">  1       21 0.31887959E+00 0.45557823E+03</pdfrwt>
<totfact> 0.10768184E+04</totfact>
</mgrwt>
</event>
<event>
 7    0  0.4788920E-002  0.4456367E+03  0.7546771E-02  0.1029031E+00
         21   -1    0    0  502  501  0.00000000000E+00  0.00000000000E+00  0.36762349257E+02  0.36762349257E+02  0.00000000000E+00 0. -1.
         21   -1    0    0  501  502 -0.00000000000E+00 -0.00000000000E+00 -0.13505125409E+04  0.13505125409E+04  0.00000000000E+00 0. -1.
      99926    2    1    2    0    0 -0.71054273576E-14  0.00000000000E+00 -0.13137501916E+04  0.13872748902E+04  0.44563668477E+03 0.  0.
      99925    2    3    3    0    0  0.42483198443E+02  0.87047489832E+02 -0.95334823873E+03  0.99367717243E+03  0.26294366523E+03 0.  0.
         25    1    4    4    0    0  0.30554001358E+01  0.48650228922E+02 -0.59966373121E+03  0.61450816014E+03  0.12509000000E+03 0.  0.
         25    1    3    3    0    0 -0.42483198443E+02 -0.87047489832E+02 -0.36040195291E+03  0.39359771772E+03  0.12509000000E+03 0.  0.
         25    1    4    4    0    0  0.39427798307E+02  0.38397260910E+02 -0.35368450752E+03  0.37916901229E+03  0.12509000000E+03 0.  0.
<mgrwt>
<rscale>  2 0.44563668E+03</rscale>
<asrwt>0</asrwt>
<pdfrwt beam="1">  1       21 0.54062291E-02 0.44563668E+03</pdfrwt>
<pdfrwt beam="2">  1       21 0.19860474E+00 0.44563668E+03</pdfrwt>
<totfact> 0.28705868E+04</totfact>
</mgrwt>
</event>
<event>
 7    0  0.4788920E-002  0.4603556E+03  0.7546771E-02  0.1024678E+00
         21   -1    0    0  502  501  0.00000000000E+00  0.00000000000E+00  0.11150940756E+04  0.11150940756E+04  0.00000000000E+00 0. -1.
         21   -1    0    0  501  502 -0.00000000000E+00 -0.00000000000E+00 -0.47513314136E+02  0.47513314136E+02  0.00000000000E+00 0. -1.
      99926    2    1    2    0    0  0.14210854715E-13  0.00000000000E+00  0.10675807615E+04  0.11626073897E+04  0.46035558042E+03 0.  0.
      99925    2    3    3    0    0  0.10243734892E+03  0.49898599904E+02  0.59018374784E+03  0.65611089672E+03  0.26302351957E+03 0.  0.
         25    1    4    4    0    0  0.80750577468E+02  0.56968315678E+02  0.33574412686E+03  0.37166876594E+03  0.12509000000E+03 0.  0.
         25    1    4    4    0    0  0.21686771449E+02 -0.70697157743E+01  0.25443962098E+03  0.28444213078E+03  0.12509000000E+03 0.  0.
         25    1    3    3    0    0 -0.10243734892E+03 -0.49898599904E+02  0.47739701363E+03  0.50649649303E+03  0.12509000000E+03 0.  0.
<mgrwt>
<rscale>  2 0.46035558E+03</rscale>
<asrwt>0</asrwt>
<pdfrwt beam="1">  1       21 0.16398441E+00 0.46035558E+03</pdfrwt>
<pdfrwt beam="2">  1       21 0.69872528E-02 0.46035558E+03</pdfrwt>
<totfact> 0.32007388E+04</totfact>
</mgrwt>
</event>
<event>
 7    0  0.4788920E-002  0.4146022E+03  0.7546771E-02  0.1038838E+00
         21   -1    0    0  502  501  0.00000000000E+00  0.00000000000E+00  0.28527843461E+03  0.28527843461E+03  0.00000000000E+00 0.  1.
         21   -1    0    0  501  502 -0.00000000000E+00 -0.00000000000E+00 -0.15063789981E+03  0.15063789981E+03  0.00000000000E+00 0.  1.
      99926    2    1    2    0    0  0.35527136788E-14  0.00000000000E+00  0.13464053479E+03  0.43591633442E+03  0.41460219127E+03 0.  0.
      99925    2    3    3    0    0  0.19985240310E+02 -0.64698064851E+02  0.10095766276E+03  0.28974077766E+03  0.26300573975E+03 0.  0.
         25    1    3    3    0    0 -0.19985240310E+02  0.64698064851E+02  0.33682872031E+02  0.14617555676E+03  0.12509000000E+03 0.  0.
         25    1    4    4    0    0 -0.57052950141E+01 -0.66246846696E+02  0.71465041948E+02  0.15866932725E+03  0.12509000000E+03 0.  0.
         25    1    4    4    0    0  0.25690535324E+02  0.15487818453E+01  0.29492620813E+02  0.13107145041E+03  0.12509000000E+03 0.  0.
<mgrwt>
<rscale>  2 0.41460219E+03</rscale>
<asrwt>0</asrwt>
<pdfrwt beam="1">  1       21 0.41952711E-01 0.41460219E+03</pdfrwt>
<pdfrwt beam="2">  1       21 0.22152632E-01 0.41460219E+03</pdfrwt>
<totfact> 0.97853767E+04</totfact>
</mgrwt>
</event>
<event>
 7    0  0.4788920E-002  0.4544953E+03  0.7546771E-02  0.1026390E+00
         21   -1    0    0  502  501  0.00000000000E+00  0.00000000000E+00  0.13795477581E+03  0.13795477581E+03  0.00000000000E+00 0.  1.
         21   -1    0    0  501  502 -0.00000000000E+00 -0.00000000000E+00 -0.37433632492E+03  0.37433632492E+03  0.00000000000E+00 0.  1.
      99926    2    1    2    0    0  0.00000000000E+00  0.00000000000E+00 -0.23638154911E+03  0.51229110072E+03  0.45449525314E+03 0.  0.
      99925    2    3    3    0    0 -0.56198284571E+02 -0.33172989385E+02 -0.25236027658E+03  0.37029982548E+03  0.26301626783E+03 0.  0.
         25    1    4    4    0    0 -0.24942386414E+02 -0.46378843603E+02 -0.16659506628E+03  0.21488262839E+03  0.12509000000E+03 0.  0.
         25    1    4    4    0    0 -0.31255898158E+02  0.13205854218E+02 -0.85765210296E+02  0.15541719709E+03  0.12509000000E+03 0.  0.
         25    1    3    3    0    0  0.56198284571E+02  0.33172989385E+02  0.15978727470E+02  0.14199127524E+03  0.12509000000E+03 0.  0.
<mgrwt>
<rscale>  2 0.45449525E+03</rscale>
<asrwt>0</asrwt>
<pdfrwt beam="1">  1       21 0.20287467E-01 0.45449525E+03</pdfrwt>
<pdfrwt beam="2">  1       21 0.55049459E-01 0.45449525E+03</pdfrwt>
<totfact> 0.64674181E+04</totfact>
</mgrwt>
</event>
<event>
 7    0  0.4788920E-002  0.4356839E+03  0.7546771E-02  0.1032079E+00
         21   -1    0    0  502  501  0.00000000000E+00  0.00000000000E+00  0.70756737366E+03  0.70756737366E+03  0.00000000000E+00 0. -1.
         21   -1    0    0  501  502 -0.00000000000E+00 -0.00000000000E+00 -0.67067996019E+02  0.67067996019E+02  0.00000000000E+00 0. -1.
      99926    2    1    2    0    0  0.00000000000E+00  0.00000000000E+00  0.64049937764E+03  0.77463536968E+03  0.43568394875E+03 0.  0.
      99925    2    3    3    0    0 -0.29768510086E+02 -0.65282026460E+02  0.30270822968E+03  0.40735036466E+03  0.26297174772E+03 0.  0.
         25    1    4    4    0    0 -0.45648161649E+02 -0.42618354859E+02  0.19519171894E+03  0.24009871736E+03  0.12509000000E+03 0.  0.
         25    1    3    3    0    0  0.29768510086E+02  0.65282026460E+02  0.33779114796E+03  0.36728500502E+03  0.12509000000E+03 0.  0.
         25    1    4    4    0    0  0.15879651563E+02 -0.22663671602E+02  0.10751651074E+03  0.16725164730E+03  0.12509000000E+03 0.  0.
<mgrwt>
<rscale>  2 0.43568395E+03</rscale>
<asrwt>0</asrwt>
<pdfrwt beam="1">  1       21 0.10405402E+00 0.43568395E+03</pdfrwt>
<pdfrwt beam="2">  1       21 0.98629410E-02 0.43568395E+03</pdfrwt>
<totfact> 0.57210130E+04</totfact>
</mgrwt>
</event>
<event>
 7    0  0.4788920E-002  0.4603871E+03  0.7546771E-02  0.1024669E+00
         21   -1    0    0  502  501  0.00000000000E+00  0.00000000000E+00  0.83671302630E+03  0.83671302630E+03  0.00000000000E+00 0. -1.
         21   -1    0    0  501  502 -0.00000000000E+00 -0.00000000000E+00 -0.63330049859E+02  0.63330049859E+02  0.00000000000E+00 0. -1.
      99926    2    1    2    0    0  0.00000000000E+00  0.44408920985E-15  0.77338297644E+03  0.90004307616E+03  0.46038713133E+03 0.  0.
      99925    2    3    3    0    0 -0.70867886444E+01 -0.31267151307E+01  0.25383248222E+03  0.36558987608E+03  0.26299245150E+03 0.  0.
         25    1    3    3    0    0  0.70867886444E+01  0.31267151307E+01  0.51955049423E+03  0.53445320008E+03  0.12509000000E+03 0.  0.
         25    1    4    4    0    0  0.19172067110E+01 -0.39842920989E+02  0.11026908270E+03  0.17145819529E+03  0.12509000000E+03 0.  0.
         25    1    4    4    0    0 -0.90039953554E+01  0.36716205858E+02  0.14356339952E+03  0.19413168079E+03  0.12509000000E+03 0.  0.
<mgrwt>
<rscale>  2 0.46038713E+03</rscale>
<asrwt>0</asrwt>
<pdfrwt beam="1">  1       21 0.12304603E+00 0.46038713E+03</pdfrwt>
<pdfrwt beam="2">  1       21 0.93132432E-02 0.46038713E+03</pdfrwt>
<totfact> 0.41455433E+04</totfact>
</mgrwt>
</event>
<event>
 7    0  0.4788920E-002  0.4495979E+03  0.7546771E-02  0.1027842E+00
         21   -1    0    0  502  501  0.00000000000E+00  0.00000000000E+00  0.15939368762E+04  0.15939368762E+04  0.00000000000E+00 0.  1.
         21   -1    0    0  501  502 -0.00000000000E+00 -0.00000000000E+00 -0.31704244250E+02  0.31704244250E+02  0.00000000000E+00 0.  1.
      99926    2    1    2    0    0  0.00000000000E+00  0.00000000000E+00  0.15622326319E+04  0.16256411204E+04  0.44959788274E+03 0.  0.
      99925    2    3    3    0    0  0.80231543463E+02  0.71815328126E+02  0.10211602758E+04  0.10599545070E+04  0.26294620393E+03 0.  0.
         25    1    4    4    0    0  0.32871798515E+02  0.13634626304E+02  0.35660303124E+03  0.37957830307E+03  0.12509000000E+03 0.  0.
         25    1    3    3    0    0 -0.80231543463E+02 -0.71815328126E+02  0.54107235609E+03  0.56568661337E+03  0.12509000000E+03 0.  0.
         25    1    4    4    0    0  0.47359744948E+02  0.58180701823E+02  0.66455724458E+03  0.68037620397E+03  0.12509000000E+03 0.  0.
<mgrwt>
<rscale>  2 0.44959788E+03</rscale>
<asrwt>0</asrwt>
<pdfrwt beam="1">  1       21 0.23440243E+00 0.44959788E+03</pdfrwt>
<pdfrwt beam="2">  1       21 0.46623899E-02 0.44959788E+03</pdfrwt>
<totfact> 0.21754827E+04</totfact>
</mgrwt>
</event>
<event>
 7    0  0.4788920E-002  0.4528509E+03  0.7546771E-02  0.1026875E+00
         21   -1    0    0  502  501  0.00000000000E+00  0.00000000000E+00  0.97191772763E+02  0.97191772763E+02  0.00000000000E+00 0. -1.
         21   -1    0    0  501  502 -0.00000000000E+00 -0.00000000000E+00 -0.52749824775E+03  0.52749824775E+03  0.00000000000E+00 0. -1.
      99926    2    1    2    0    0 -0.14210854715E-13 -0.71054273576E-14 -0.43030647498E+03  0.62469002051E+03  0.45285092394E+03 0.  0.
      99925    2    3    3    0    0 -0.10013034176E+03  0.32161159899E+02 -0.32065321774E+03  0.42788613215E+03  0.26307343176E+03 0.  0.
         25    1    4    4    0    0 -0.57450032967E+02  0.34590800648E+02 -0.11163735826E+03  0.18057529630E+03  0.12509000000E+03 0.  0.
         25    1    4    4    0    0 -0.42680308796E+02 -0.24296407490E+01 -0.20901585948E+03  0.24731083585E+03  0.12509000000E+03 0.  0.
         25    1    3    3    0    0  0.10013034176E+03 -0.32161159899E+02 -0.10965325725E+03  0.19680388836E+03  0.12509000000E+03 0.  0.
<mgrwt>
<rscale>  2 0.45285092E+03</rscale>
<asrwt>0</asrwt>
<pdfrwt beam="1">  1       21 0.14292908E-01 0.45285092E+03</pdfrwt>
<pdfrwt beam="2">  1       21 0.77573272E-01 0.45285092E+03</pdfrwt>
<totfact> 0.58164338E+04</totfact>
</mgrwt>
</event>
<event>
 7    0  0.4788920E-002  0.4419761E+03  0.7546771E-02  0.1030142E+00
         21   -1    0    0  502  501  0.00000000000E+00  0.00000000000E+00  0.99209958851E+03  0.99209958851E+03  0.00000000000E+00 0. -1.
         21   -1    0    0  501  502 -0.00000000000E+00 -0.00000000000E+00 -0.49224621403E+02  0.49224621403E+02  0.00000000000E+00 0. -1.
      99926    2    1    2    0    0 -0.14210854715E-13  0.00000000000E+00  0.94287496711E+03  0.10413242099E+04  0.44197613799E+03 0.  0.
      99925    2    3    3    0    0  0.78697144928E+02  0.41773045846E+02  0.70970958883E+03  0.76212566102E+03  0.26307716496E+03 0.  0.
         25    1    4    4    0    0  0.76771801366E+02  0.40578118483E+01  0.35893799284E+03  0.38780712490E+03  0.12509000000E+03 0.  0.
         25    1    3    3    0    0 -0.78697144928E+02 -0.41773045846E+02  0.23316537828E+03  0.27919854890E+03  0.12509000000E+03 0.  0.
         25    1    4    4    0    0  0.19253435621E+01  0.37715233998E+02  0.35077159599E+03  0.37431853611E+03  0.12509000000E+03 0.  0.
<mgrwt>
<rscale>  2 0.44197614E+03</rscale>
<asrwt>0</asrwt>
<pdfrwt beam="1">  1       21 0.14589699E+00 0.44197614E+03</pdfrwt>
<pdfrwt beam="2">  1       21 0.72389155E-02 0.44197614E+03</pdfrwt>
<totfact> 0.41675743E+04</totfact>
</mgrwt>
</event>
<event>
 7    0  0.4788920E-002  0.4584418E+03  0.7546771E-02  0.1025234E+00
         21   -1    0    0  502  501  0.00000000000E+00  0.00000000000E+00  0.65700604621E+03  0.65700604621E+03  0.00000000000E+00 0.  1.
         21   -1    0    0  501  502 -0.00000000000E+00 -0.00000000000E+00 -0.79972201366E+02  0.79972201366E+02  0.00000000000E+00 0.  1.
      99926    2    1    2    0    0  0.14210854715E-13 -0.35527136788E-14  0.57703384484E+03  0.73697824757E+03  0.45844179489E+03 0.  0.
      99925    2    3    3    0    0 -0.11000021643E+03  0.29725061709E+02  0.32447622446E+03  0.43297744721E+03  0.26306087250E+03 0.  0.
         25    1    4    4    0    0 -0.72137145623E+02 -0.59553557459E+00  0.21896917618E+03  0.26229588380E+03  0.12509000000E+03 0.  0.
         25    1    3    3    0    0  0.11000021643E+03 -0.29725061709E+02  0.25255762038E+03  0.30400080037E+03  0.12509000000E+03 0.  0.
         25    1    4    4    0    0 -0.37863070811E+02  0.30320597283E+02  0.10550704827E+03  0.17068156341E+03  0.12509000000E+03 0.  0.
<mgrwt>
<rscale>  2 0.45844179E+03</rscale>
<asrwt>0</asrwt>
<pdfrwt beam="1">  1       21 0.96618534E-01 0.45844179E+03</pdfrwt>
<pdfrwt beam="2">  1       21 0.11760618E-01 0.45844179E+03</pdfrwt>
<totfact> 0.49585391E+04</totfact>
</mgrwt>
</event>
<event>
 7    0  0.4788920E-002  0.4518570E+03  0.7546771E-02  0.1027170E+00
         21   -1    0    0  502  501  0.00000000000E+00  0.00000000000E+00  0.47531985728E+03  0.47531985728E+03  0.00000000000E+00 0. -1.
         21   -1    0    0  501  502 -0.00000000000E+00 -0.00000000000E+00 -0.10738807525E+03  0.10738807525E+03  0.00000000000E+00 0. -1.
      99926    2    1    2    0    0 -0.71054273576E-14  0.00000000000E+00  0.36793178203E+03  0.58270793253E+03  0.45185698888E+03 0.  0.
      99925    2    3    3    0    0  0.56841000314E+02  0.86590422961E+02  0.28054757581E+03  0.39828367094E+03  0.26304778954E+03 0.  0.
         25    1    4    4    0    0  0.37558134363E+02  0.47622904469E+02  0.19903515086E+03  0.24277778701E+03  0.12509000000E+03 0.  0.
         25    1    3    3    0    0 -0.56841000314E+02 -0.86590422961E+02  0.87384206220E+02  0.18442426159E+03  0.12509000000E+03 0.  0.
         25    1    4    4    0    0  0.19282865951E+02  0.38967518492E+02  0.81512424951E+02  0.15550588393E+03  0.12509000000E+03 0.  0.
<mgrwt>
<rscale>  2 0.45185699E+03</rscale>
<asrwt>0</asrwt>
<pdfrwt beam="1">  1       21 0.69899978E-01 0.45185699E+03</pdfrwt>
<pdfrwt beam="2">  1       21 0.15792364E-01 0.45185699E+03</pdfrwt>
<totfact> 0.61263464E+04</totfact>
</mgrwt>
</event>
<event>
 7    0  0.4788920E-002  0.4563862E+03  0.7546771E-02  0.1025835E+00
         21   -1    0    0  502  501  0.00000000000E+00  0.00000000000E+00  0.65922807356E+02  0.65922807356E+02  0.00000000000E+00 0. -1.
         21   -1    0    0  501  502 -0.00000000000E+00 -0.00000000000E+00 -0.78989483580E+03  0.78989483580E+03  0.00000000000E+00 0. -1.
      99926    2    1    2    0    0  0.00000000000E+00  0.35527136788E-14 -0.72397202844E+03  0.85581764316E+03  0.45638617460E+03 0.  0.
      99925    2    3    3    0    0  0.11025941559E+03 -0.30149636318E+02 -0.46777483534E+03  0.54865213541E+03  0.26294434736E+03 0.  0.
         25    1    4    4    0    0  0.51466634938E+02 -0.53412679086E+02 -0.21387881878E+03  0.25863755725E+03  0.12509000000E+03 0.  0.
         25    1    4    4    0    0  0.58792780655E+02  0.23263042769E+02 -0.25389601656E+03  0.29001457815E+03  0.12509000000E+03 0.  0.
         25    1    3    3    0    0 -0.11025941559E+03  0.30149636318E+02 -0.25619719310E+03  0.30716550775E+03  0.12509000000E+03 0.  0.
<mgrwt>
<rscale>  2 0.45638617E+03</rscale>
<asrwt>0</asrwt>
<pdfrwt beam="1">  1       21 0.96945302E-02 0.45638617E+03</pdfrwt>
<pdfrwt beam="2">  1       21 0.11616101E+00 0.45638617E+03</pdfrwt>
<totfact> 0.44692301E+04</totfact>
</mgrwt>
</event>
<event>
 7    0  0.4788920E-002  0.4505104E+03  0.7546771E-02  0.1027570E+00
         21   -1    0    0  502  501  0.00000000000E+00  0.00000000000E+00  0.76922685252E+03  0.76922685252E+03  0.00000000000E+00 0. -1.
         21   -1    0    0  501  502 -0.00000000000E+00 -0.00000000000E+00 -0.65962214867E+02  0.65962214867E+02  0.00000000000E+00 0. -1.
      99926    2    1    2    0    0 -0.71054273576E-14  0.00000000000E+00  0.70326463765E+03  0.83518906739E+03  0.45051040799E+03 0.  0.
      99925    2    3    3    0    0 -0.35653833853E+02  0.88128633041E+02  0.34585017399E+03  0.44476563217E+03  0.26299481531E+03 0.  0.
         25    1    4    4    0    0 -0.35833362353E+02  0.42587532338E+02  0.23299396103E+03  0.27024326402E+03  0.12509000000E+03 0.  0.
         25    1    3    3    0    0  0.35653833853E+02 -0.88128633041E+02  0.35741446367E+03  0.39042343522E+03  0.12509000000E+03 0.  0.
         25    1    4    4    0    0  0.17952849953E+00  0.45541100703E+02  0.11285621296E+03  0.17452236815E+03  0.12509000000E+03 0.  0.
<mgrwt>
<rscale>  2 0.45051041E+03</rscale>
<asrwt>0</asrwt>
<pdfrwt beam="1">  1       21 0.11312159E+00 0.45051041E+03</pdfrwt>
<pdfrwt beam="2">  1       21 0.97003262E-02 0.45051041E+03</pdfrwt>
<totfact> 0.47769909E+04</totfact>
</mgrwt>
</event>
<event>
 7    0  0.4788920E-002  0.4530856E+03  0.7546771E-02  0.1026806E+00
         21   -1    0    0  502  501  0.00000000000E+00  0.00000000000E+00  0.96063602920E+02  0.96063602920E+02  0.00000000000E+00 0. -1.
         21   -1    0    0  501  502 -0.00000000000E+00 -0.00000000000E+00 -0.53424650294E+03  0.53424650294E+03  0.00000000000E+00 0. -1.
      99926    2    1    2    0    0 -0.35527136788E-14 -0.14210854715E-13 -0.43818290002E+03  0.63031010586E+03  0.45308561628E+03 0.  0.
      99925    2    3    3    0    0  0.21922003749E+02 -0.96106806023E+02 -0.34829300207E+03  0.44743092644E+03  0.26300062021E+03 0.  0.
         25    1    4    4    0    0  0.46586872063E+01 -0.49795081380E+02 -0.23803831958E+03  0.27351600169E+03  0.12509000000E+03 0.  0.
         25    1    3    3    0    0 -0.21922003749E+02  0.96106806023E+02 -0.89889897955E+02  0.18287917942E+03  0.12509000000E+03 0.  0.
         25    1    4    4    0    0  0.17263316543E+02 -0.46311724643E+02 -0.11025468249E+03  0.17391492474E+03  0.12509000000E+03 0.  0.
<mgrwt>
<rscale>  2 0.45308562E+03</rscale>
<asrwt>0</asrwt>
<pdfrwt beam="1">  1       21 0.14127001E-01 0.45308562E+03</pdfrwt>
<pdfrwt beam="2">  1       21 0.78565661E-01 0.45308562E+03</pdfrwt>
<totfact> 0.57717623E+04</totfact>
</mgrwt>
</event>
<event>
 7    0  0.4788920E-002  0.4746795E+03  0.7546771E-02  0.1020608E+00
         21   -1    0    0  502  501  0.00000000000E+00  0.00000000000E+00  0.20242844433E+03  0.20242844433E+03  0.00000000000E+00 0. -1.
         21   -1    0    0  501  502 -0.00000000000E+00 -0.00000000000E+00 -0.27827193282E+03  0.27827193282E+03  0.00000000000E+00 0. -1.
      99926    2    1    2    0    0 -0.17763568394E-14  0.17763568394E-14 -0.75843488488E+02  0.48070037715E+03  0.47467948960E+03 0.  0.
      99925    2    3    3    0    0  0.14228389231E+02 -0.10212188689E+02  0.84616607911E+02  0.27649046922E+03  0.26264095907E+03 0.  0.
         25    1    4    4    0    0  0.50117639159E+01 -0.29009423965E+02  0.76156921015E+02  0.14937887794E+03  0.12509000000E+03 0.  0.
         25    1    4    4    0    0  0.92166253147E+01  0.18797235277E+02  0.84596868955E+01  0.12711159128E+03  0.12509000000E+03 0.  0.
         25    1    3    3    0    0 -0.14228389231E+02  0.10212188689E+02 -0.16046009640E+03  0.20420990792E+03  0.12509000000E+03 0.  0.
<mgrwt>
<rscale>  2 0.47467949E+03</rscale>
<asrwt>0</asrwt>
<pdfrwt beam="1">  1       21 0.29768889E-01 0.47467949E+03</pdfrwt>
<pdfrwt beam="2">  1       21 0.40922343E-01 0.47467949E+03</pdfrwt>
<totfact> 0.57178086E+04</totfact>
</mgrwt>
</event>
<event>
 7    0  0.4788920E-002  0.4178886E+03  0.7546771E-02  0.1037756E+00
         21   -1    0    0  502  501  0.00000000000E+00  0.00000000000E+00  0.92044373715E+03  0.92044373715E+03  0.00000000000E+00 0. -1.
         21   -1    0    0  501  502 -0.00000000000E+00 -0.00000000000E+00 -0.47431159915E+02  0.47431159915E+02  0.00000000000E+00 0. -1.
      99926    2    1    2    0    0 -0.35527136788E-14  0.14210854715E-13  0.87301257723E+03  0.96787489706E+03  0.41788856931E+03 0.  0.
      99925    2    3    3    0    0 -0.19082210092E+02  0.67564736447E+02  0.52192471613E+03  0.58861335318E+03  0.26292802415E+03 0.  0.
         25    1    4    4    0    0 -0.30676993759E+02  0.54406430582E+02  0.21218944024E+03  0.25411218838E+03  0.12509000000E+03 0.  0.
         25    1    4    4    0    0  0.11594783667E+02  0.13158305865E+02  0.30973527588E+03  0.33450116479E+03  0.12509000000E+03 0.  0.
         25    1    3    3    0    0  0.19082210092E+02 -0.67564736447E+02  0.35108786111E+03  0.37926154388E+03  0.12509000000E+03 0.  0.
<mgrwt>
<rscale>  2 0.41788857E+03</rscale>
<asrwt>0</asrwt>
<pdfrwt beam="1">  1       21 0.13535936E+00 0.41788857E+03</pdfrwt>
<pdfrwt beam="2">  1       21 0.69751712E-02 0.41788857E+03</pdfrwt>
<totfact> 0.54637620E+04</totfact>
</mgrwt>
</event>
<event>
 7    0  0.4788920E-002  0.4511289E+03  0.7546771E-02  0.1027386E+00
         21   -1    0    0  502  501  0.00000000000E+00  0.00000000000E+00  0.22228471636E+04  0.22228471636E+04  0.00000000000E+00 0. -1.
         21   -1    0    0  501  502 -0.00000000000E+00 -0.00000000000E+00 -0.22889253234E+02  0.22889253234E+02  0.00000000000E+00 0. -1.
      99926    2    1    2    0    0  0.00000000000E+00  0.00000000000E+00  0.21999579103E+04  0.22457364168E+04  0.45112885799E+03 0.  0.
      99925    2    3    3    0    0 -0.10732158309E+03  0.18247552008E+02  0.13315040327E+04  0.13615924574E+04  0.26302116926E+03 0.  0.
         25    1    3    3    0    0  0.10732158309E+03 -0.18247552008E+02  0.86845387762E+03  0.88414395943E+03  0.12509000000E+03 0.  0.
         25    1    4    4    0    0 -0.95238632403E+02 -0.83567745397E+00  0.70374129192E+03  0.72108973749E+03  0.12509000000E+03 0.  0.
         25    1    4    4    0    0 -0.12082950684E+02  0.19083229462E+02  0.62776274081E+03  0.64050271989E+03  0.12509000000E+03 0.  0.
<mgrwt>
<rscale>  2 0.45112886E+03</rscale>
<asrwt>0</asrwt>
<pdfrwt beam="1">  1       21 0.32688914E+00 0.45112886E+03</pdfrwt>
<pdfrwt beam="2">  1       21 0.33660682E-02 0.45112886E+03</pdfrwt>
<totfact> 0.10405995E+04</totfact>
</mgrwt>
</event>
<event>
 7    0  0.4788920E-002  0.4559772E+03  0.7546771E-02  0.1025954E+00
         21   -1    0    0  502  501  0.00000000000E+00  0.00000000000E+00  0.60743289513E+03  0.60743289513E+03  0.00000000000E+00 0. -1.
         21   -1    0    0  501  502 -0.00000000000E+00 -0.00000000000E+00 -0.85571264150E+02  0.85571264150E+02  0.00000000000E+00 0. -1.
      99926    2    1    2    0    0 -0.71054273576E-14  0.00000000000E+00  0.52186163098E+03  0.69300415928E+03  0.45597719558E+03 0.  0.
      99925    2    3    3    0    0 -0.59112872786E+02 -0.69011645130E+02  0.22331903295E+03  0.35680164615E+03  0.26301917293E+03 0.  0.
         25    1    4    4    0    0 -0.49948354269E+02 -0.20267208576E+02  0.15343915597E+03  0.20517475605E+03  0.12509000000E+03 0.  0.
         25    1    4    4    0    0 -0.91645185175E+01 -0.48744436555E+02  0.69879876980E+02  0.15162689010E+03  0.12509000000E+03 0.  0.
         25    1    3    3    0    0  0.59112872786E+02  0.69011645130E+02  0.29854259804E+03  0.33620251313E+03  0.12509000000E+03 0.  0.
<mgrwt>
<rscale>  2 0.45597720E+03</rscale>
<asrwt>0</asrwt>
<pdfrwt beam="1">  1       21 0.89328365E-01 0.45597720E+03</pdfrwt>
<pdfrwt beam="2">  1       21 0.12584010E-01 0.45597720E+03</pdfrwt>
<totfact> 0.52876596E+04</totfact>
</mgrwt>
</event>
<event>
 7    0  0.4788920E-002  0.4504675E+03  0.7546771E-02  0.1027583E+00
         21   -1    0    0  502  501  0.00000000000E+00  0.00000000000E+00  0.25528396072E+03  0.25528396072E+03  0.00000000000E+00 0.  1.
         21   -1    0    0  501  502 -0.00000000000E+00 -0.00000000000E+00 -0.19872082103E+03  0.19872082103E+03  0.00000000000E+00 0.  1.
      99926    2    1    2    0    0 -0.14210854715E-13  0.00000000000E+00  0.56563139698E+02  0.45400478175E+03  0.45046748282E+03 0.  0.
      99925    2    3    3    0    0 -0.10357905080E+03 -0.32329039330E+02  0.44605960876E+02  0.28797987767E+03  0.26299987006E+03 0.  0.
         25    1    4    4    0    0 -0.16593374019E+02 -0.14206044809E+00  0.71246026158E+00  0.12618785973E+03  0.12509000000E+03 0.  0.
         25    1    4    4    0    0 -0.86985676783E+02 -0.32186978882E+02  0.43893500614E+02  0.16179201795E+03  0.12509000000E+03 0.  0.
         25    1    3    3    0    0  0.10357905080E+03  0.32329039330E+02  0.11957178823E+02  0.16602490408E+03  0.12509000000E+03 0.  0.
<mgrwt>
<rscale>  2 0.45046748E+03</rscale>
<asrwt>0</asrwt>
<pdfrwt beam="1">  1       21 0.37541759E-01 0.45046748E+03</pdfrwt>
<pdfrwt beam="2">  1       21 0.29223650E-01 0.45046748E+03</pdfrwt>
<totfact> 0.71157172E+04</totfact>
</mgrwt>
</event>
<event>
 7    0  0.4788920E-002  0.4767295E+03  0.7546771E-02  0.1020038E+00
         21   -1    0    0  502  501  0.00000000000E+00  0.00000000000E+00  0.90578480692E+02  0.90578480692E+02  0.00000000000E+00 0.  1.
         21   -1    0    0  501  502 -0.00000000000E+00 -0.00000000000E+00 -0.62727661401E+03  0.62727661401E+03  0.00000000000E+00 0.  1.
      99926    2    1    2    0    0  0.00000000000E+00  0.00000000000E+00 -0.53669813332E+03  0.71785509470E+03  0.47672953620E+03 0.  0.
      99925    2    3    3    0    0 -0.22117972227E+02  0.35986313757E+02 -0.52061348478E+03  0.58484966815E+03  0.26310932012E+03 0.  0.
         25    1    4    4    0    0 -0.12681555997E+02  0.55538573441E+02 -0.30679967312E+03  0.33618284092E+03  0.12509000000E+03 0.  0.
         25    1    4    4    0    0 -0.94364162303E+01 -0.19552259684E+02 -0.21381381166E+03  0.24866682723E+03  0.12509000000E+03 0.  0.
         25    1    3    3    0    0  0.22117972227E+02 -0.35986313757E+02 -0.16084648540E+02  0.13300542655E+03  0.12509000000E+03 0.  0.
<mgrwt>
<rscale>  2 0.47672954E+03</rscale>
<asrwt>0</asrwt>
<pdfrwt beam="1">  1       21 0.13320365E-01 0.47672954E+03</pdfrwt>
<pdfrwt beam="2">  1       21 0.92246562E-01 0.47672954E+03</pdfrwt>
<totfact> 0.43936131E+04</totfact>
</mgrwt>
</event>
<event>
 7    0  0.4788920E-002  0.4465938E+03  0.7546771E-02  0.1028743E+00
         21   -1    0    0  502  501  0.00000000000E+00  0.00000000000E+00  0.32218729083E+03  0.32218729083E+03  0.00000000000E+00 0.  1.
         21   -1    0    0  501  502 -0.00000000000E+00 -0.00000000000E+00 -0.15475941205E+03  0.15475941205E+03  0.00000000000E+00 0.  1.
      99926    2    1    2    0    0  0.00000000000E+00  0.00000000000E+00  0.16742787878E+03  0.47694670287E+03  0.44659384544E+03 0.  0.
      99925    2    3    3    0    0 -0.71905917114E+02  0.57868805589E+02  0.52350050244E+02  0.28353089613E+03  0.26292581031E+03 0.  0.
         25    1    3    3    0    0  0.71905917114E+02 -0.57868805589E+02  0.11507782854E+03  0.19341580674E+03  0.12509000000E+03 0.  0.
         25    1    4    4    0    0 -0.58817954896E+02  0.14029502638E+02  0.57190991542E+02  0.15024878161E+03  0.12509000000E+03 0.  0.
         25    1    4    4    0    0 -0.13087962218E+02  0.43839302951E+02 -0.48409412977E+01  0.13328211452E+03  0.12509000000E+03 0.  0.
<mgrwt>
<rscale>  2 0.44659385E+03</rscale>
<asrwt>0</asrwt>
<pdfrwt beam="1">  1       21 0.47380484E-01 0.44659385E+03</pdfrwt>
<pdfrwt beam="2">  1       21 0.22758737E-01 0.44659385E+03</pdfrwt>
<totfact> 0.71581484E+04</totfact>
</mgrwt>
</event>
<event>
 7    0  0.4788920E-002  0.4569860E+03  0.7546771E-02  0.1025659E+00
         21   -1    0    0  502  501  0.00000000000E+00  0.00000000000E+00  0.11991884455E+04  0.11991884455E+04  0.00000000000E+00 0.  1.
         21   -1    0    0  501  502 -0.00000000000E+00 -0.00000000000E+00 -0.43536988842E+02  0.43536988842E+02  0.00000000000E+00 0.  1.
      99926    2    1    2    0    0  0.00000000000E+00  0.00000000000E+00  0.11556514566E+04  0.12427254343E+04  0.45698601278E+03 0.  0.
      99925    2    3    3    0    0  0.21008411342E+02  0.65907482088E+02  0.47552405795E+03  0.54773914951E+03  0.26288761223E+03 0.  0.
         25    1    4    4    0    0 -0.68354746764E+01  0.64916603041E+02  0.28660349153E+03  0.31945259198E+03  0.12509000000E+03 0.  0.
         25    1    3    3    0    0 -0.21008411342E+02 -0.65907482088E+02  0.68012739867E+03  0.69498628481E+03  0.12509000000E+03 0.  0.
         25    1    4    4    0    0  0.27843886018E+02  0.99087904695E+00  0.18892056643E+03  0.22828655753E+03  0.12509000000E+03 0.  0.
<mgrwt>
<rscale>  2 0.45698601E+03</rscale>
<asrwt>0</asrwt>
<pdfrwt beam="1">  1       21 0.17635122E+00 0.45698601E+03</pdfrwt>
<pdfrwt beam="2">  1       21 0.64024991E-02 0.45698601E+03</pdfrwt>
<totfact> 0.30352485E+04</totfact>
</mgrwt>
</event>
<event>
 7    0  0.4788920E-002  0.4543682E+03  0.7546771E-02  0.1026427E+00
         21   -1    0    0  502  501  0.00000000000E+00  0.00000000000E+00  0.33291885329E+03  0.33291885329E+03  0.00000000000E+00 0. -1.
         21   -1    0    0  501  502 -0.00000000000E+00 -0.00000000000E+00 -0.15503058918E+03  0.15503058918E+03  0.00000000000E+00 0. -1.
      99926    2    1    2    0    0  0.00000000000E+00  0.00000000000E+00  0.17788826411E+03  0.48794944248E+03  0.45436815899E+03 0.  0.
      99925    2    3    3    0    0  0.56655764352E+02  0.81832589103E+02  0.55219270128E+02  0.28645095996E+03  0.26286600464E+03 0.  0.
         25    1    4    4    0    0  0.21547322203E+02  0.28480372685E+02 -0.12195216550E+02  0.13065852490E+03  0.12509000000E+03 0.  0.
         25    1    3    3    0    0 -0.56655764352E+02 -0.81832589103E+02  0.12266899398E+03  0.20149848252E+03  0.12509000000E+03 0.  0.
         25    1    4    4    0    0  0.35108442150E+02  0.53352216419E+02  0.67414486678E+02  0.15579243506E+03  0.12509000000E+03 0.  0.
<mgrwt>
<rscale>  2 0.45436816E+03</rscale>
<asrwt>0</asrwt>
<pdfrwt beam="1">  1       21 0.48958655E-01 0.45436816E+03</pdfrwt>
<pdfrwt beam="2">  1       21 0.22798616E-01 0.45436816E+03</pdfrwt>
<totfact> 0.66458562E+04</totfact>
</mgrwt>
</event>
<event>
 7    0  0.4788920E-002  0.4554534E+03  0.7546771E-02  0.1026108E+00
         21   -1    0    0  502  501  0.00000000000E+00  0.00000000000E+00  0.25084109575E+03  0.25084109575E+03  0.00000000000E+00 0.  1.
         21   -1    0    0  501  502 -0.00000000000E+00 -0.00000000000E+00 -0.20674222459E+03  0.20674222459E+03  0.00000000000E+00 0.  1.
      99926    2    1    2    0    0  0.00000000000E+00  0.00000000000E+00  0.44098871160E+02  0.45758332033E+03  0.45545338357E+03 0.  0.
      99925    2    3    3    0    0 -0.11078618463E+03 -0.14849542257E+02  0.48071088712E+02  0.28978172850E+03  0.26299911215E+03 0.  0.
         25    1    4    4    0    0 -0.12610199004E+02 -0.14331845630E+02  0.26847299844E+02  0.12935495556E+03  0.12509000000E+03 0.  0.
         25    1    3    3    0    0  0.11078618463E+03  0.14849542257E+02 -0.39722175522E+01  0.16780159183E+03  0.12509000000E+03 0.  0.
         25    1    4    4    0    0 -0.98175985623E+02 -0.51769662678E+00  0.21223788868E+02  0.16042677294E+03  0.12509000000E+03 0.  0.
<mgrwt>
<rscale>  2 0.45545338E+03</rscale>
<asrwt>0</asrwt>
<pdfrwt beam="1">  1       21 0.36888397E-01 0.45545338E+03</pdfrwt>
<pdfrwt beam="2">  1       21 0.30403268E-01 0.45545338E+03</pdfrwt>
<totfact> 0.68110242E+04</totfact>
</mgrwt>
</event>
<event>
 7    0  0.4788920E-002  0.4644253E+03  0.7546771E-02  0.1023506E+00
         21   -1    0    0  502  501  0.00000000000E+00  0.00000000000E+00  0.27513784525E+03  0.27513784525E+03  0.00000000000E+00 0. -1.
         21   -1    0    0  501  502 -0.00000000000E+00 -0.00000000000E+00 -0.19598439433E+03  0.19598439433E+03  0.00000000000E+00 0. -1.
      99926    2    1    2    0    0  0.00000000000E+00  0.14210854715E-13  0.79153450911E+02  0.47112223958E+03  0.46442533936E+03 0.  0.
      99925    2    3    3    0    0 -0.19721739743E+02 -0.98000089379E+02 -0.21776609307E+02  0.28184110029E+03  0.26261610872E+03 0.  0.
         25    1    3    3    0    0  0.19721739743E+02  0.98000089379E+02  0.10093006022E+03  0.18928113929E+03  0.12509000000E+03 0.  0.
         25    1    4    4    0    0  0.87349586280E+01 -0.86161262629E+02 -0.99483764096E+01  0.15246816380E+03  0.12509000000E+03 0.  0.
         25    1    4    4    0    0 -0.28456698371E+02 -0.11838826750E+02 -0.11828232898E+02  0.12937293648E+03  0.12509000000E+03 0.  0.
<mgrwt>
<rscale>  2 0.46442534E+03</rscale>
<asrwt>0</asrwt>
<pdfrwt beam="1">  1       21 0.40461448E-01 0.46442534E+03</pdfrwt>
<pdfrwt beam="2">  1       21 0.28821234E-01 0.46442534E+03</pdfrwt>
<totfact> 0.62539291E+04</totfact>
</mgrwt>
</event>
<event>
 7    0  0.4788920E-002  0.4560427E+03  0.7546771E-02  0.1025935E+00
         21   -1    0    0  502  501  0.00000000000E+00  0.00000000000E+00  0.23438384041E+04  0.23438384041E+04  0.00000000000E+00 0. -1.
         21   -1    0    0  501  502 -0.00000000000E+00 -0.00000000000E+00 -0.22183152923E+02  0.22183152923E+02  0.00000000000E+00 0. -1.
      99926    2    1    2    0    0  0.35527136788E-14  0.35527136788E-14  0.23216552512E+04  0.23660215570E+04  0.45604265479E+03 0.  0.
      99925    2    3    3    0    0 -0.26054463968E+02  0.30476845029E+02  0.90414386308E+03  0.94243674513E+03  0.26287491369E+03 0.  0.
         25    1    3    3    0    0  0.26054463968E+02 -0.30476845029E+02  0.14175113881E+04  0.14235848119E+04  0.12509000000E+03 0.  0.
         25    1    4    4    0    0  0.26220312386E+01  0.44047143926E+01  0.56912412943E+03  0.58273154999E+03  0.12509000000E+03 0.  0.
         25    1    4    4    0    0 -0.28676495207E+02  0.26072130636E+02  0.33501973365E+03  0.35970519514E+03  0.12509000000E+03 0.  0.
<mgrwt>
<rscale>  2 0.45604265E+03</rscale>
<asrwt>0</asrwt>
<pdfrwt beam="1">  1       21 0.34468195E+00 0.45604265E+03</pdfrwt>
<pdfrwt beam="2">  1       21 0.32622300E-02 0.45604265E+03</pdfrwt>
<totfact> 0.85322268E+03</totfact>
</mgrwt>
</event>
<event>
 7    0  0.4788920E-002  0.3967926E+03  0.7546771E-02  0.1044896E+00
         21   -1    0    0  502  501  0.00000000000E+00  0.00000000000E+00  0.26170529260E+03  0.26170529260E+03  0.00000000000E+00 0.  1.
         21   -1    0    0  501  502 -0.00000000000E+00 -0.00000000000E+00 -0.15040236657E+03  0.15040236657E+03  0.00000000000E+00 0.  1.
      99926    2    1    2    0    0 -0.30565827647E-14  0.00000000000E+00  0.11130292603E+03  0.41210765916E+03  0.39679261762E+03 0.  0.
      99925    2    3    3    0    0  0.21871824217E-01  0.16336528790E+02  0.11107683714E+03  0.28595520430E+03  0.26299321753E+03 0.  0.
         25    1    4    4    0    0  0.37221751749E+02  0.33217858074E+01  0.38748494386E+02  0.13618166904E+03  0.12509000000E+03 0.  0.
         25    1    3    3    0    0 -0.21871824217E-01 -0.16336528790E+02  0.22608889666E+00  0.12615245486E+03  0.12509000000E+03 0.  0.
         25    1    4    4    0    0 -0.37199879925E+02  0.13014742983E+02  0.72328342749E+02  0.14977353527E+03  0.12509000000E+03 0.  0.
<mgrwt>
<rscale>  2 0.39679262E+03</rscale>
<asrwt>0</asrwt>
<pdfrwt beam="1">  1       21 0.38486072E-01 0.39679262E+03</pdfrwt>
<pdfrwt beam="2">  1       21 0.22117995E-01 0.39679262E+03</pdfrwt>
<totfact> 0.11761905E+05</totfact>
</mgrwt>
</event>
<event>
 7    0  0.4788920E-002  0.4570243E+03  0.7546771E-02  0.1025648E+00
         21   -1    0    0  502  501  0.00000000000E+00  0.00000000000E+00  0.29038417489E+02  0.29038417489E+02  0.00000000000E+00 0. -1.
         21   -1    0    0  501  502 -0.00000000000E+00 -0.00000000000E+00 -0.17982317734E+04  0.17982317734E+04  0.00000000000E+00 0. -1.
      99926    2    1    2    0    0  0.00000000000E+00  0.00000000000E+00 -0.17691933559E+04  0.18272701909E+04  0.45702430997E+03 0.  0.
      99925    2    3    3    0    0 -0.66903705328E+02 -0.67918017678E+02 -0.85406537446E+03  0.89872525743E+03  0.26304079832E+03 0.  0.
         25    1    4    4    0    0 -0.74448429537E+02 -0.28965638238E+02 -0.46698535422E+03  0.49000449592E+03  0.12509000000E+03 0.  0.
         25    1    4    4    0    0  0.75447242099E+01 -0.38952379440E+02 -0.38708002023E+03  0.40872076151E+03  0.12509000000E+03 0.  0.
         25    1    3    3    0    0  0.66903705328E+02  0.67918017678E+02 -0.91512798142E+03  0.92854493342E+03  0.12509000000E+03 0.  0.
<mgrwt>
<rscale>  2 0.45702431E+03</rscale>
<asrwt>0</asrwt>
<pdfrwt beam="1">  1       21 0.42703546E-02 0.45702431E+03</pdfrwt>
<pdfrwt beam="2">  1       21 0.26444591E+00 0.45702431E+03</pdfrwt>
<totfact> 0.16480807E+04</totfact>
</mgrwt>
</event>
<event>
 7    0  0.4788920E-002  0.4433803E+03  0.7546771E-02  0.1029715E+00
         21   -1    0    0  502  501  0.00000000000E+00  0.00000000000E+00  0.49231179417E+03  0.49231179417E+03  0.00000000000E+00 0.  1.
         21   -1    0    0  501  502 -0.00000000000E+00 -0.00000000000E+00 -0.99828042835E+02  0.99828042835E+02  0.00000000000E+00 0.  1.
      99926    2    1    2    0    0  0.00000000000E+00  0.71054273576E-14  0.39248375134E+03  0.59213983701E+03  0.44338030122E+03 0.  0.
      99925    2    3    3    0    0  0.42295894440E+02 -0.52524396804E+02  0.35171018253E+03  0.44429617986E+03  0.26296632483E+03 0.  0.
         25    1    4    4    0    0  0.12602141136E+02  0.16148139407E+01  0.21444499628E+03  0.24858718011E+03  0.12509000000E+03 0.  0.
         25    1    4    4    0    0  0.29693753304E+02 -0.54139210745E+02  0.13726518625E+03  0.19570899975E+03  0.12509000000E+03 0.  0.
         25    1    3    3    0    0 -0.42295894440E+02  0.52524396804E+02  0.40773568804E+02  0.14784365715E+03  0.12509000000E+03 0.  0.
<mgrwt>
<rscale>  2 0.44338030E+03</rscale>
<asrwt>0</asrwt>
<pdfrwt beam="1">  1       21 0.72398793E-01 0.44338030E+03</pdfrwt>
<pdfrwt beam="2">  1       21 0.14680595E-01 0.44338030E+03</pdfrwt>
<totfact> 0.64924223E+04</totfact>
</mgrwt>
</event>
<event>
 7    0  0.4788920E-002  0.4529178E+03  0.7546771E-02  0.1026855E+00
         21   -1    0    0  502  501  0.00000000000E+00  0.00000000000E+00  0.42837751018E+02  0.42837751018E+02  0.00000000000E+00 0.  1.
         21   -1    0    0  501  502 -0.00000000000E+00 -0.00000000000E+00 -0.11971596448E+04  0.11971596448E+04  0.00000000000E+00 0.  1.
      99926    2    1    2    0    0 -0.14210854715E-13  0.00000000000E+00 -0.11543218938E+04  0.12399973958E+04  0.45291777087E+03 0.  0.
      99925    2    3    3    0    0  0.70286727831E+02  0.81742267199E+02 -0.80252511889E+03  0.85137096686E+03  0.26299036944E+03 0.  0.
         25    1    4    4    0    0  0.71348132468E+02  0.64599334770E+02 -0.45872110819E+03  0.48511461869E+03  0.12509000000E+03 0.  0.
         25    1    3    3    0    0 -0.70286727831E+02 -0.81742267199E+02 -0.35179677489E+03  0.38862642895E+03  0.12509000000E+03 0.  0.
         25    1    4    4    0    0 -0.10614046366E+01  0.17142932429E+02 -0.34380401069E+03  0.36625634818E+03  0.12509000000E+03 0.  0.
<mgrwt>
<rscale>  2 0.45291777E+03</rscale>
<asrwt>0</asrwt>
<pdfrwt beam="1">  1       21 0.62996696E-02 0.45291777E+03</pdfrwt>
<pdfrwt beam="2">  1       21 0.17605288E+00 0.45291777E+03</pdfrwt>
<totfact> 0.31414452E+04</totfact>
</mgrwt>
</event>
<event>
 7    0  0.4788920E-002  0.4503444E+03  0.7546771E-02  0.1027619E+00
         21   -1    0    0  502  501  0.00000000000E+00  0.00000000000E+00  0.28154964609E+03  0.28154964609E+03  0.00000000000E+00 0. -1.
         21   -1    0    0  501  502 -0.00000000000E+00 -0.00000000000E+00 -0.18008375445E+03  0.18008375445E+03  0.00000000000E+00 0. -1.
      99926    2    1    2    0    0 -0.35527136788E-14 -0.35527136788E-14  0.10146589164E+03  0.46163340054E+03  0.45034438969E+03 0.  0.
      99925    2    3    3    0    0 -0.20316023779E+02 -0.24213231554E+02 -0.42487998122E+02  0.26832211820E+03  0.26304468769E+03 0.  0.
         25    1    3    3    0    0  0.20316023779E+02  0.24213231554E+02  0.14395388976E+03  0.19331128234E+03  0.12509000000E+03 0.  0.
         25    1    4    4    0    0 -0.25766273657E+02  0.18490629447E+02  0.10475334857E+01  0.12905196497E+03  0.12509000000E+03 0.  0.
         25    1    4    4    0    0  0.54502498776E+01 -0.42703861001E+02 -0.43535531608E+02  0.13927015323E+03  0.12509000000E+03 0.  0.
<mgrwt>
<rscale>  2 0.45034439E+03</rscale>
<asrwt>0</asrwt>
<pdfrwt beam="1">  1       21 0.41404360E-01 0.45034439E+03</pdfrwt>
<pdfrwt beam="2">  1       21 0.26482905E-01 0.45034439E+03</pdfrwt>
<totfact> 0.70636111E+04</totfact>
</mgrwt>
</event>
<event>
 7    0  0.4788920E-002  0.4640564E+03  0.7546771E-02  0.1023611E+00
         21   -1    0    0  502  501  0.00000000000E+00  0.00000000000E+00  0.13094361472E+03  0.13094361472E+03  0.00000000000E+00 0. -1.
         21   -1    0    0  501  502 -0.00000000000E+00 -0.00000000000E+00 -0.41114710976E+03  0.41114710976E+03  0.00000000000E+00 0. -1.
      99926    2    1    2    0    0  0.00000000000E+00  0.00000000000E+00 -0.28020349504E+03  0.54209072448E+03  0.46405641353E+03 0.  0.
      99925    2    3    3    0    0  0.11252834585E+03 -0.41840715031E+02 -0.14470495007E+03  0.32204382529E+03  0.26145636114E+03 0.  0.
         25    1    4    4    0    0  0.19052151828E+02 -0.29068468634E+02 -0.80221437587E+02  0.15261371992E+03  0.12509000000E+03 0.  0.
         25    1    3    3    0    0 -0.11252834585E+03  0.41840715031E+02 -0.13549854497E+03  0.22004689919E+03  0.12509000000E+03 0.  0.
         25    1    4    4    0    0  0.93476194018E+02 -0.12772246397E+02 -0.64483512479E+02  0.16943010538E+03  0.12509000000E+03 0.  0.
<mgrwt>
<rscale>  2 0.46405641E+03</rscale>
<asrwt>0</asrwt>
<pdfrwt beam="1">  1       21 0.19256414E-01 0.46405641E+03</pdfrwt>
<pdfrwt beam="2">  1       21 0.60462809E-01 0.46405641E+03</pdfrwt>
<totfact> 0.58111407E+04</totfact>
</mgrwt>
</event>
<event>
 7    0  0.4788920E-002  0.4532265E+03  0.7546771E-02  0.1026764E+00
         21   -1    0    0  502  501  0.00000000000E+00  0.00000000000E+00  0.37327391243E+03  0.37327391243E+03  0.00000000000E+00 0.  1.
         21   -1    0    0  501  502 -0.00000000000E+00 -0.00000000000E+00 -0.13757610703E+03  0.13757610703E+03  0.00000000000E+00 0.  1.
      99926    2    1    2    0    0 -0.14210854715E-13  0.00000000000E+00  0.23569780540E+03  0.51085001946E+03  0.45322652935E+03 0.  0.
      99925    2    3    3    0    0  0.99158195139E+02 -0.17763513820E+02  0.94909512020E+02  0.29726925782E+03  0.26308421862E+03 0.  0.
         25    1    3    3    0    0 -0.99158195139E+02  0.17763513820E+02  0.14078829338E+03  0.21358076164E+03  0.12509000000E+03 0.  0.
         25    1    4    4    0    0  0.92258483207E+02 -0.82342497770E+01  0.44443622382E+02  0.16187085675E+03  0.12509000000E+03 0.  0.
         25    1    4    4    0    0  0.68997119325E+01 -0.95292640434E+01  0.50465889637E+02  0.13539840108E+03  0.12509000000E+03 0.  0.
<mgrwt>
<rscale>  2 0.45322653E+03</rscale>
<asrwt>0</asrwt>
<pdfrwt beam="1">  1       21 0.54893222E-01 0.45322653E+03</pdfrwt>
<pdfrwt beam="2">  1       21 0.20231781E-01 0.45322653E+03</pdfrwt>
<totfact> 0.65430978E+04</totfact>
</mgrwt>
</event>
<event>
 7    0  0.4788920E-002  0.4093707E+03  0.7546771E-02  0.1040582E+00
         21   -1    0    0  502  501  0.00000000000E+00  0.00000000000E+00  0.32277445998E+03  0.32277445998E+03  0.00000000000E+00 0.  1.
         21   -1    0    0  501  502 -0.00000000000E+00 -0.00000000000E+00 -0.12979987596E+03  0.12979987596E+03  0.00000000000E+00 0.  1.
      99926    2    1    2    0    0 -0.44408920985E-15  0.00000000000E+00  0.19297458402E+03  0.45257433594E+03  0.40937066270E+03 0.  0.
      99925    2    3    3    0    0  0.12547244045E+01 -0.47511018676E+02  0.17002609363E+03  0.31680610498E+03  0.26305581994E+03 0.  0.
         25    1    4    4    0    0 -0.91485839013E+01 -0.16718642580E+02  0.13022128809E+03  0.18157175323E+03  0.12509000000E+03 0.  0.
         25    1    4    4    0    0  0.10403308306E+02 -0.30792376096E+02  0.39804805536E+02  0.13523435175E+03  0.12509000000E+03 0.  0.
         25    1    3    3    0    0 -0.12547244045E+01  0.47511018676E+02  0.22948490389E+02  0.13576823097E+03  0.12509000000E+03 0.  0.
<mgrwt>
<rscale>  2 0.40937066E+03</rscale>
<asrwt>0</asrwt>
<pdfrwt beam="1">  1       21 0.47466832E-01 0.40937066E+03</pdfrwt>
<pdfrwt beam="2">  1       21 0.19088217E-01 0.40937066E+03</pdfrwt>
<totfact> 0.10051281E+05</totfact>
</mgrwt>
</event>
<event>
 7    0  0.4788920E-002  0.4549847E+03  0.7546771E-02  0.1026246E+00
         21   -1    0    0  502  501  0.00000000000E+00  0.00000000000E+00  0.24604216912E+03  0.24604216912E+03  0.00000000000E+00 0. -1.
         21   -1    0    0  501  502 -0.00000000000E+00 -0.00000000000E+00 -0.21034101183E+03  0.21034101183E+03  0.00000000000E+00 0. -1.
      99926    2    1    2    0    0 -0.35527136788E-14  0.14210854715E-13  0.35701157292E+02  0.45638318095E+03  0.45498465383E+03 0.  0.
      99925    2    3    3    0    0 -0.15760440108E+02 -0.10078844266E+03 -0.23217481446E+02  0.28455298647E+03  0.26462170927E+03 0.  0.
         25    1    4    4    0    0  0.23174132267E+02 -0.22815291463E+02 -0.27046142504E+02  0.13204764237E+03  0.12509000000E+03 0.  0.
         25    1    3    3    0    0  0.15760440108E+02  0.10078844266E+03  0.58918638738E+02  0.17183019448E+03  0.12509000000E+03 0.  0.
         25    1    4    4    0    0 -0.38934572375E+02 -0.77973151192E+02  0.38286610580E+01  0.15250534410E+03  0.12509000000E+03 0.  0.
<mgrwt>
<rscale>  2 0.45498465E+03</rscale>
<asrwt>0</asrwt>
<pdfrwt beam="1">  1       21 0.36182672E-01 0.45498465E+03</pdfrwt>
<pdfrwt beam="2">  1       21 0.30932502E-01 0.45498465E+03</pdfrwt>
<totfact> 0.68452995E+04</totfact>
</mgrwt>
</event>
<event>
 7    0  0.4788920E-002  0.4726544E+03  0.7546771E-02  0.1021174E+00
         21   -1    0    0  502  501  0.00000000000E+00  0.00000000000E+00  0.59684789262E+03  0.59684789262E+03  0.00000000000E+00 0. -1.
         21   -1    0    0  501  502 -0.00000000000E+00 -0.00000000000E+00 -0.93575834178E+02  0.93575834178E+02  0.00000000000E+00 0. -1.
      99926    2    1    2    0    0  0.00000000000E+00 -0.14210854715E-13  0.50327205845E+03  0.69042372680E+03  0.47265437448E+03 0.  0.
      99925    2    3    3    0    0 -0.48229450256E+02 -0.66560203337E+02  0.16701785659E+03  0.32236023105E+03  0.26318209210E+03 0.  0.
         25    1    3    3    0    0  0.48229450256E+02  0.66560203337E+02  0.33625420186E+03  0.36806349575E+03  0.12509000000E+03 0.  0.
         25    1    4    4    0    0 -0.19089403774E+02 -0.32381057635E+02  0.13024769947E+03  0.18445842227E+03  0.12509000000E+03 0.  0.
         25    1    4    4    0    0 -0.29140046482E+02 -0.34179145702E+02  0.36770157125E+02  0.13790180878E+03  0.12509000000E+03 0.  0.
<mgrwt>
<rscale>  2 0.47265437E+03</rscale>
<asrwt>0</asrwt>
<pdfrwt beam="1">  1       21 0.87771747E-01 0.47265437E+03</pdfrwt>
<pdfrwt beam="2">  1       21 0.13761152E-01 0.47265437E+03</pdfrwt>
<totfact> 0.46599380E+04</totfact>
</mgrwt>
</event>
<event>
 7    0  0.4788920E-002  0.4547286E+03  0.7546771E-02  0.1026321E+00
         21   -1    0    0  502  501  0.00000000000E+00  0.00000000000E+00  0.49317582763E+02  0.49317582763E+02  0.00000000000E+00 0.  1.
         21   -1    0    0  501  502 -0.00000000000E+00 -0.00000000000E+00 -0.10481965256E+04  0.10481965256E+04  0.00000000000E+00 0.  1.
      99926    2    1    2    0    0  0.00000000000E+00  0.00000000000E+00 -0.99887894283E+03  0.10975141084E+04  0.45472857356E+03 0.  0.
      99925    2    3    3    0    0  0.91223810201E+02 -0.23317794886E+02 -0.77883675920E+03  0.82745564472E+03  0.26311716666E+03 0.  0.
         25    1    3    3    0    0 -0.91223810201E+02  0.23317794886E+02 -0.22004218363E+03  0.27005846364E+03  0.12509000000E+03 0.  0.
         25    1    4    4    0    0  0.32790059562E+02 -0.16908670088E+02 -0.49297016522E+03  0.50992958634E+03  0.12509000000E+03 0.  0.
         25    1    4    4    0    0  0.58433750639E+02 -0.64091247978E+01 -0.28586659399E+03  0.31752605838E+03  0.12509000000E+03 0.  0.
<mgrwt>
<rscale>  2 0.45472857E+03</rscale>
<asrwt>0</asrwt>
<pdfrwt beam="1">  1       21 0.72525856E-02 0.45472857E+03</pdfrwt>
<pdfrwt beam="2">  1       21 0.15414655E+00 0.45472857E+03</pdfrwt>
<totfact> 0.35656010E+04</totfact>
</mgrwt>
</event>
<event>
 7    0  0.4788920E-002  0.4559854E+03  0.7546771E-02  0.1025952E+00
         21   -1    0    0  502  501  0.00000000000E+00  0.00000000000E+00  0.32699951520E+03  0.32699951520E+03  0.00000000000E+00 0. -1.
         21   -1    0    0  501  502 -0.00000000000E+00 -0.00000000000E+00 -0.15896256713E+03  0.15896256713E+03  0.00000000000E+00 0. -1.
      99926    2    1    2    0    0  0.00000000000E+00 -0.14210854715E-13  0.16803694807E+03  0.48596208233E+03  0.45598544883E+03 0.  0.
      99925    2    3    3    0    0 -0.74600956421E+02  0.75083791011E+02  0.15121839396E+03  0.32124034656E+03  0.26291724785E+03 0.  0.
         25    1    4    4    0    0 -0.40657873257E+02  0.23767612561E+02  0.31115474064E+02  0.13723572017E+03  0.12509000000E+03 0.  0.
         25    1    4    4    0    0 -0.33943083164E+02  0.51316178449E+02  0.12010291990E+03  0.18400462639E+03  0.12509000000E+03 0.  0.
         25    1    3    3    0    0  0.74600956421E+02 -0.75083791011E+02  0.16818554113E+02  0.16472173577E+03  0.12509000000E+03 0.  0.
<mgrwt>
<rscale>  2 0.45598545E+03</rscale>
<asrwt>0</asrwt>
<pdfrwt beam="1">  1       21 0.48088164E-01 0.45598545E+03</pdfrwt>
<pdfrwt beam="2">  1       21 0.23376848E-01 0.45598545E+03</pdfrwt>
<totfact> 0.65752719E+04</totfact>
</mgrwt>
</event>
<event>
 7    0  0.4788920E-002  0.4539653E+03  0.7546771E-02  0.1026546E+00
         21   -1    0    0  502  501  0.00000000000E+00  0.00000000000E+00  0.91255851750E+02  0.91255851750E+02  0.00000000000E+00 0.  1.
         21   -1    0    0  501  502 -0.00000000000E+00 -0.00000000000E+00 -0.56457893900E+03  0.56457893900E+03  0.00000000000E+00 0.  1.
      99926    2    1    2    0    0  0.00000000000E+00  0.00000000000E+00 -0.47332308725E+03  0.65583479075E+03  0.45396533770E+03 0.  0.
      99925    2    3    3    0    0 -0.93294560186E+02  0.23030121728E+02 -0.21443286407E+03  0.35267490352E+03  0.26299025250E+03 0.  0.
         25    1    3    3    0    0  0.93294560186E+02 -0.23030121728E+02 -0.25889022318E+03  0.30315988723E+03  0.12509000000E+03 0.  0.
         25    1    4    4    0    0 -0.17100591881E+02 -0.16359156202E+02 -0.11286704712E+03  0.17013679984E+03  0.12509000000E+03 0.  0.
         25    1    4    4    0    0 -0.76193968305E+02  0.39389277931E+02 -0.10156581694E+03  0.18253810368E+03  0.12509000000E+03 0.  0.
<mgrwt>
<rscale>  2 0.45396534E+03</rscale>
<asrwt>0</asrwt>
<pdfrwt beam="1">  1       21 0.13419978E-01 0.45396534E+03</pdfrwt>
<pdfrwt beam="2">  1       21 0.83026317E-01 0.45396534E+03</pdfrwt>
<totfact> 0.55820742E+04</totfact>
</mgrwt>
</event>
<event>
 7    0  0.4788920E-002  0.4544787E+03  0.7546771E-02  0.1026395E+00
         21   -1    0    0  502  501  0.00000000000E+00  0.00000000000E+00  0.73540191346E+03  0.73540191346E+03  0.00000000000E+00 0. -1.
         21   -1    0    0  501  502 -0.00000000000E+00 -0.00000000000E+00 -0.70217014728E+02  0.70217014728E+02  0.00000000000E+00 0. -1.
      99926    2    1    2    0    0  0.00000000000E+00  0.00000000000E+00  0.66518489874E+03  0.80561892819E+03  0.45447872112E+03 0.  0.
      99925    2    3    3    0    0 -0.24111841619E+02  0.11002251521E+03  0.42329872725E+03  0.51092796665E+03  0.26301946668E+03 0.  0.
         25    1    4    4    0    0 -0.41391043798E+02  0.54025375641E+02  0.16455009604E+03  0.21761480172E+03  0.12509000000E+03 0.  0.
         25    1    4    4    0    0  0.17279202179E+02  0.55997139569E+02  0.25874863121E+03  0.29331316493E+03  0.12509000000E+03 0.  0.
         25    1    3    3    0    0  0.24111841619E+02 -0.11002251521E+03  0.24188617148E+03  0.29469096154E+03  0.12509000000E+03 0.  0.
<mgrwt>
<rscale>  2 0.45447872E+03</rscale>
<asrwt>0</asrwt>
<pdfrwt beam="1">  1       21 0.10814734E+00 0.45447872E+03</pdfrwt>
<pdfrwt beam="2">  1       21 0.10326032E-01 0.45447872E+03</pdfrwt>
<totfact> 0.47689011E+04</totfact>
</mgrwt>
</event>
<event>
 7    0  0.4788920E-002  0.4479905E+03  0.7546771E-02  0.1028323E+00
         21   -1    0    0  502  501  0.00000000000E+00  0.00000000000E+00  0.51979205792E+03  0.51979205792E+03  0.00000000000E+00 0. -1.
         21   -1    0    0  501  502 -0.00000000000E+00 -0.00000000000E+00 -0.96526807916E+02  0.96526807916E+02  0.00000000000E+00 0. -1.
      99926    2    1    2    0    0  0.35527136788E-14  0.00000000000E+00  0.42326525000E+03  0.61631886583E+03  0.44799048263E+03 0.  0.
      99925    2    3    3    0    0 -0.27785492745E+02  0.73269990576E+02  0.36720667295E+03  0.45842460600E+03  0.26300542505E+03 0.  0.
         25    1    4    4    0    0 -0.51691498292E+02  0.39266768447E+02  0.16431405517E+03  0.21647287804E+03  0.12509000000E+03 0.  0.
         25    1    4    4    0    0  0.23906005547E+02  0.34003222130E+02  0.20289261778E+03  0.24195172797E+03  0.12509000000E+03 0.  0.
         25    1    3    3    0    0  0.27785492745E+02 -0.73269990576E+02  0.56058577052E+02  0.15789425983E+03  0.12509000000E+03 0.  0.
<mgrwt>
<rscale>  2 0.44799048E+03</rscale>
<asrwt>0</asrwt>
<pdfrwt beam="1">  1       21 0.76440007E-01 0.44799048E+03</pdfrwt>
<pdfrwt beam="2">  1       21 0.14195119E-01 0.44799048E+03</pdfrwt>
<totfact> 0.60991581E+04</totfact>
</mgrwt>
</event>
<event>
 7    0  0.4788920E-002  0.4559967E+03  0.7546771E-02  0.1025949E+00
         21   -1    0    0  502  501  0.00000000000E+00  0.00000000000E+00  0.44628203178E+02  0.44628203178E+02  0.00000000000E+00 0. -1.
         21   -1    0    0  501  502 -0.00000000000E+00 -0.00000000000E+00 -0.11648068446E+04  0.11648068446E+04  0.00000000000E+00 0. -1.
      99926    2    1    2    0    0  0.00000000000E+00  0.14210854715E-13 -0.11201786414E+04  0.12094350478E+04  0.45599665141E+03 0.  0.
      99925    2    3    3    0    0  0.49655954780E+02 -0.97197643595E+02 -0.61706510072E+03  0.67963901277E+03  0.26310977442E+03 0.  0.
         25    1    3    3    0    0 -0.49655954780E+02  0.97197643595E+02 -0.50311354073E+03  0.52979603503E+03  0.12509000000E+03 0.  0.
         25    1    4    4    0    0  0.54232503995E+02 -0.40110709718E+02 -0.24900905157E+03  0.28671074167E+03  0.12509000000E+03 0.  0.
         25    1    4    4    0    0 -0.45765492150E+01 -0.57086933877E+02 -0.36805604915E+03  0.39292827111E+03  0.12509000000E+03 0.  0.
<mgrwt>
<rscale>  2 0.45599665E+03</rscale>
<asrwt>0</asrwt>
<pdfrwt beam="1">  1       21 0.65629724E-02 0.45599665E+03</pdfrwt>
<pdfrwt beam="2">  1       21 0.17129509E+00 0.45599665E+03</pdfrwt>
<totfact> 0.31612218E+04</totfact>
</mgrwt>
</event>
