<event>
 6    0  0.3219609E-005  0.4007788E+03  0.7546771E-02  0.1043510E+00
         21   -1    0    0  502  501  0.00000000000E+00  0.00000000000E+00  0.11449638581E+03  0.11449638581E+03  0.00000000000E+00 0. -1.
         21   -1    0    0  501  502 -0.00000000000E+00 -0.00000000000E+00 -0.35071775612E+03  0.35071775612E+03  0.00000000000E+00 0. -1.
      99925    2    1    2    0    0  0.20248842204E+02 -0.39367341767E+02 -0.13263586879E+03  0.29687737401E+03  0.26188565883E+03 0.  0.
         25    1    3    3    0    0  0.26316989087E+02  0.10735665430E+02 -0.44634685358E+02  0.13582194839E+03  0.12509000000E+03 0.  0.
         25    1    1    2    0    0 -0.20248842204E+02  0.39367341767E+02 -0.10358550152E+03  0.16833676792E+03  0.12509000000E+03 0.  0.
         25    1    3    3    0    0 -0.60681468827E+01 -0.50103007197E+02 -0.88001183432E+02  0.16105542562E+03  0.12509000000E+03 0.  0.
<mgrwt>
<rscale>  2 0.40077882E+03</rscale>
<asrwt>0</asrwt>
<pdfrwt beam="1">  1       21 0.16837704E-01 0.40077882E+03</pdfrwt>
<pdfrwt beam="2">  1       21 0.51576141E-01 0.40077882E+03</pdfrwt>
<totfact> 0.10689696E+05</totfact>
</mgrwt>
</event>
<event>
 6    0  0.3219609E-005  0.4220588E+03  0.7546771E-02  0.1036398E+00
         21   -1    0    0  502  501  0.00000000000E+00  0.00000000000E+00  0.49090447340E+02  0.49090447340E+02  0.00000000000E+00 0. -1.
         21   -1    0    0  501  502 -0.00000000000E+00 -0.00000000000E+00 -0.90717035123E+03  0.90717035123E+03  0.00000000000E+00 0. -1.
      99925    2    1    2    0    0 -0.28952928109E+02  0.15752945837E+02 -0.71719939583E+03  0.76499853622E+03  0.26412375828E+03 0.  0.
         25    1    3    3    0    0 -0.37525263933E+02 -0.22754335201E+02 -0.30875157006E+03  0.33600735902E+03  0.12509000000E+03 0.  0.
         25    1    1    2    0    0  0.28952928109E+02 -0.15752945837E+02 -0.14088050806E+03  0.19126226235E+03  0.12509000000E+03 0.  0.
         25    1    3    3    0    0  0.85723358245E+01  0.38507281037E+02 -0.40844782577E+03  0.42899117720E+03  0.12509000000E+03 0.  0.
<mgrwt>
<rscale>  2 0.42205876E+03</rscale>
<asrwt>0</asrwt>
<pdfrwt beam="1">  1       21 0.72191841E-02 0.42205876E+03</pdfrwt>
<pdfrwt beam="2">  1       21 0.13340739E+00 0.42205876E+03</pdfrwt>
<totfact> 0.53363798E+04</totfact>
</mgrwt>
</event>
<event>
 5    0  0.3219609E-005  0.4515374E+03  0.7546771E-02  0.1027265E+00
         21   -1    0    0  502  501  0.00000000000E+00  0.00000000000E+00  0.14585186856E+03  0.14585186856E+03  0.00000000000E+00 0.  1.
         21   -1    0    0  501  502 -0.00000000000E+00 -0.00000000000E+00 -0.34947447080E+03  0.34947447080E+03  0.00000000000E+00 0.  1.
         25    1    1    2    0    0  0.10212153297E+03 -0.88205138312E+01 -0.12331840550E+03  0.20337538247E+03  0.12509000000E+03 0.  0.
         25    1    1    2    0    0 -0.38636499458E+02 -0.66313309309E+01 -0.31835286731E+01  0.13112740596E+03  0.12509000000E+03 0.  0.
         25    1    1    2    0    0 -0.63485033515E+02  0.15451844762E+02 -0.77120668078E+02  0.16082355092E+03  0.12509000000E+03 0.  0.
<mgrwt>
<rscale>  2 0.45153739E+03</rscale>
<asrwt>0</asrwt>
<pdfrwt beam="1">  1       21 0.21448805E-01 0.45153739E+03</pdfrwt>
<pdfrwt beam="2">  1       21 0.51393303E-01 0.45153739E+03</pdfrwt>
<totfact> 0.67434892E+04</totfact>
</mgrwt>
</event>
<event>
 6    0  0.3219609E-005  0.3883865E+03  0.7546771E-02  0.1047877E+00
         21   -1    0    0  502  501  0.00000000000E+00  0.00000000000E+00  0.22195063079E+03  0.22195063079E+03  0.00000000000E+00 0.  1.
         21   -1    0    0  501  502 -0.00000000000E+00 -0.00000000000E+00 -0.16990722307E+03  0.16990722307E+03  0.00000000000E+00 0.  1.
      99925    2    1    2    0    0 -0.14872984202E+02 -0.23353864042E+01  0.34170177185E+02  0.26460369810E+03  0.26195582901E+03 0.  0.
         25    1    3    3    0    0  0.29518092705E+02  0.49968655078E+01  0.27318323429E+02  0.13149176916E+03  0.12509000000E+03 0.  0.
         25    1    3    3    0    0 -0.44391076908E+02 -0.73322519119E+01  0.68518537552E+01  0.13311192894E+03  0.12509000000E+03 0.  0.
         25    1    1    2    0    0  0.14872984202E+02  0.23353864042E+01  0.17873230537E+02  0.12725415576E+03  0.12509000000E+03 0.  0.
<mgrwt>
<rscale>  2 0.38838648E+03</rscale>
<asrwt>0</asrwt>
<pdfrwt beam="1">  1       21 0.32639799E-01 0.38838648E+03</pdfrwt>
<pdfrwt beam="2">  1       21 0.24986356E-01 0.38838648E+03</pdfrwt>
<totfact> 0.12993295E+05</totfact>
</mgrwt>
</event>
<event>
 6    0  0.3219609E-005  0.4182490E+03  0.7546771E-02  0.1037638E+00
         21   -1    0    0  502  501  0.00000000000E+00  0.00000000000E+00  0.14109312013E+04  0.14109312013E+04  0.00000000000E+00 0.  1.
         21   -1    0    0  501  502 -0.00000000000E+00 -0.00000000000E+00 -0.30995877460E+02  0.30995877460E+02  0.00000000000E+00 0.  1.
      99925    2    1    2    0    0  0.33040076542E+02 -0.64319695238E+02  0.93251178616E+03  0.97175264302E+03  0.26362150526E+03 0.  0.
         25    1    1    2    0    0 -0.33040076542E+02  0.64319695238E+02  0.44742353765E+03  0.47017443571E+03  0.12509000000E+03 0.  0.
         25    1    3    3    0    0  0.20600031375E+01 -0.65335732796E+02  0.56262870859E+03  0.58006169794E+03  0.12509000000E+03 0.  0.
         25    1    3    3    0    0  0.30980073404E+02  0.10160375582E+01  0.36988307758E+03  0.39169094508E+03  0.12509000000E+03 0.  0.
<mgrwt>
<rscale>  2 0.41824897E+03</rscale>
<asrwt>0</asrwt>
<pdfrwt beam="1">  1       21 0.20748984E+00 0.41824897E+03</pdfrwt>
<pdfrwt beam="2">  1       21 0.45582182E-02 0.41824897E+03</pdfrwt>
<totfact> 0.33942748E+04</totfact>
</mgrwt>
</event>
<event>
 6    0  0.3219609E-005  0.4609967E+03  0.7546771E-02  0.1024493E+00
         21   -1    0    0  502  501  0.00000000000E+00  0.00000000000E+00  0.13703688511E+03  0.13703688511E+03  0.00000000000E+00 0.  1.
         21   -1    0    0  501  502 -0.00000000000E+00 -0.00000000000E+00 -0.38770207831E+03  0.38770207831E+03  0.00000000000E+00 0.  1.
      99925    2    1    2    0    0 -0.45082594275E+02  0.24363747302E+02 -0.27832819647E+03  0.38675786928E+03  0.26360772374E+03 0.  0.
         25    1    3    3    0    0 -0.36660752160E+02 -0.10927763768E+02 -0.18479524247E+03  0.22640719182E+03  0.12509000000E+03 0.  0.
         25    1    3    3    0    0 -0.84218421146E+01  0.35291511070E+02 -0.93532953998E+02  0.16035067746E+03  0.12509000000E+03 0.  0.
         25    1    1    2    0    0  0.45082594275E+02 -0.24363747302E+02  0.27663003264E+02  0.13798109414E+03  0.12509000000E+03 0.  0.
<mgrwt>
<rscale>  2 0.46099668E+03</rscale>
<asrwt>0</asrwt>
<pdfrwt beam="1">  1       21 0.20152484E-01 0.46099668E+03</pdfrwt>
<pdfrwt beam="2">  1       21 0.57015010E-01 0.46099668E+03</pdfrwt>
<totfact> 0.60629335E+04</totfact>
</mgrwt>
</event>
<event>
 5    0  0.3219609E-005  0.4282870E+03  0.7546771E-02  0.1034402E+00
         21   -1    0    0  502  501  0.00000000000E+00  0.00000000000E+00  0.84714499231E+02  0.84714499231E+02  0.00000000000E+00 0. -1.
         21   -1    0    0  501  502 -0.00000000000E+00 -0.00000000000E+00 -0.54131759526E+03  0.54131759526E+03  0.00000000000E+00 0. -1.
         25    1    1    2    0    0  0.85500858709E+01  0.17873026029E+02 -0.53413796087E+02  0.13745213982E+03  0.12509000000E+03 0.  0.
         25    1    1    2    0    0  0.22941808435E+02 -0.55643690775E+02 -0.23902252488E+03  0.27640879580E+03  0.12509000000E+03 0.  0.
         25    1    1    2    0    0 -0.31491894306E+02  0.37770664747E+02 -0.16416677506E+03  0.21217115887E+03  0.12509000000E+03 0.  0.
<mgrwt>
<rscale>  2 0.42828705E+03</rscale>
<asrwt>0</asrwt>
<pdfrwt beam="1">  1       21 0.12458015E-01 0.42828705E+03</pdfrwt>
<pdfrwt beam="2">  1       21 0.79605528E-01 0.42828705E+03</pdfrwt>
<totfact> 0.70912353E+04</totfact>
</mgrwt>
</event>
<event>
 5    0  0.3219609E-005  0.4044008E+03  0.7546771E-02  0.1042266E+00
         21   -1    0    0  502  501  0.00000000000E+00  0.00000000000E+00  0.61983390316E+02  0.61983390316E+02  0.00000000000E+00 0. -1.
         21   -1    0    0  501  502 -0.00000000000E+00 -0.00000000000E+00 -0.65961222777E+03  0.65961222777E+03  0.00000000000E+00 0. -1.
         25    1    1    2    0    0 -0.30086039683E+02 -0.31041293067E+02 -0.25750375571E+03  0.28952447904E+03  0.12509000000E+03 0.  0.
         25    1    1    2    0    0 -0.81992854403E+01  0.17969998541E+02 -0.22072666468E+03  0.25447577042E+03  0.12509000000E+03 0.  0.
         25    1    1    2    0    0  0.38285325123E+02  0.13071294526E+02 -0.11939841706E+03  0.17759536863E+03  0.12509000000E+03 0.  0.
<mgrwt>
<rscale>  2 0.40440080E+03</rscale>
<asrwt>0</asrwt>
<pdfrwt beam="1">  1       21 0.91152050E-02 0.40440080E+03</pdfrwt>
<pdfrwt beam="2">  1       21 0.97001793E-01 0.40440080E+03</pdfrwt>
<totfact> 0.78694451E+04</totfact>
</mgrwt>
</event>
<event>
 6    0  0.3219609E-005  0.3965402E+03  0.7546771E-02  0.1044984E+00
         21   -1    0    0  502  501  0.00000000000E+00  0.00000000000E+00  0.17716153077E+04  0.17716153077E+04  0.00000000000E+00 0.  1.
         21   -1    0    0  501  502 -0.00000000000E+00 -0.00000000000E+00 -0.22189375111E+02  0.22189375111E+02  0.00000000000E+00 0.  1.
      99925    2    1    2    0    0 -0.33400160038E+02 -0.13040791375E+02  0.12574033887E+04  0.12848652712E+04  0.26178206623E+03 0.  0.
         25    1    3    3    0    0 -0.22929584104E+02  0.30627145119E+02  0.66361711491E+03  0.67638670237E+03  0.12509000000E+03 0.  0.
         25    1    1    2    0    0  0.33400160038E+02  0.13040791375E+02  0.49202254384E+03  0.50893941160E+03  0.12509000000E+03 0.  0.
         25    1    3    3    0    0 -0.10470575933E+02 -0.43667936495E+02  0.59378627380E+03  0.60847856880E+03  0.12509000000E+03 0.  0.
<mgrwt>
<rscale>  2 0.39654022E+03</rscale>
<asrwt>0</asrwt>
<pdfrwt beam="1">  1       21 0.26053157E+00 0.39654022E+03</pdfrwt>
<pdfrwt beam="2">  1       21 0.32631446E-02 0.39654022E+03</pdfrwt>
<totfact> 0.28152336E+04</totfact>
</mgrwt>
</event>
<event>
 6    0  0.3219609E-005  0.4103453E+03  0.7546771E-02  0.1040255E+00
         21   -1    0    0  502  501  0.00000000000E+00  0.00000000000E+00  0.36855720018E+02  0.36855720018E+02  0.00000000000E+00 0.  1.
         21   -1    0    0  501  502 -0.00000000000E+00 -0.00000000000E+00 -0.11421786142E+04  0.11421786142E+04  0.00000000000E+00 0.  1.
      99925    2    1    2    0    0  0.38834581450E+02  0.46702472974E+01 -0.59417353457E+03  0.65134966336E+03  0.26397776203E+03 0.  0.
         25    1    1    2    0    0 -0.38834581450E+02 -0.46702472974E+01 -0.51114935957E+03  0.52768467082E+03  0.12509000000E+03 0.  0.
         25    1    3    3    0    0  0.55414545286E+02 -0.16584767728E+02 -0.33728990500E+03  0.36435945777E+03  0.12509000000E+03 0.  0.
         25    1    3    3    0    0 -0.16579963836E+02  0.21255015025E+02 -0.25688362958E+03  0.28699020560E+03  0.12509000000E+03 0.  0.
<mgrwt>
<rscale>  2 0.41034529E+03</rscale>
<asrwt>0</asrwt>
<pdfrwt beam="1">  1       21 0.54199585E-02 0.41034529E+03</pdfrwt>
<pdfrwt beam="2">  1       21 0.16796745E+00 0.41034529E+03</pdfrwt>
<totfact> 0.47243182E+04</totfact>
</mgrwt>
</event>
<event>
 6    0  0.3219609E-005  0.4463980E+03  0.7546771E-02  0.1028802E+00
         21   -1    0    0  502  501  0.00000000000E+00  0.00000000000E+00  0.18045968445E+03  0.18045968445E+03  0.00000000000E+00 0.  1.
         21   -1    0    0  501  502 -0.00000000000E+00 -0.00000000000E+00 -0.27606046171E+03  0.27606046171E+03  0.00000000000E+00 0.  1.
      99925    2    1    2    0    0  0.42737187337E+02 -0.90012595919E+02 -0.92295182820E+02  0.29656024599E+03  0.26363012750E+03 0.  0.
         25    1    1    2    0    0 -0.42737187337E+02  0.90012595919E+02 -0.33055944425E+01  0.15995990016E+03  0.12509000000E+03 0.  0.
         25    1    3    3    0    0  0.13475521979E+02 -0.12551837418E+02 -0.13624740395E+02  0.12717027941E+03  0.12509000000E+03 0.  0.
         25    1    3    3    0    0  0.29261665358E+02 -0.77460758500E+02 -0.78670442426E+02  0.16938996658E+03  0.12509000000E+03 0.  0.
<mgrwt>
<rscale>  2 0.44639796E+03</rscale>
<asrwt>0</asrwt>
<pdfrwt beam="1">  1       21 0.26538189E-01 0.44639796E+03</pdfrwt>
<pdfrwt beam="2">  1       21 0.40597127E-01 0.44639796E+03</pdfrwt>
<totfact> 0.73329013E+04</totfact>
</mgrwt>
</event>
<event>
 6    0  0.3219609E-005  0.3907643E+03  0.7546771E-02  0.1047025E+00
         21   -1    0    0  502  501  0.00000000000E+00  0.00000000000E+00  0.12823500771E+04  0.12823500771E+04  0.00000000000E+00 0. -1.
         21   -1    0    0  501  502 -0.00000000000E+00 -0.00000000000E+00 -0.29768924280E+02  0.29768924280E+02  0.00000000000E+00 0. -1.
      99925    2    1    2    0    0  0.16744261892E+02  0.68117584189E+01  0.78726664043E+03  0.82994488978E+03  0.26209346915E+03 0.  0.
         25    1    3    3    0    0 -0.17844924880E+02 -0.24437872873E+02  0.41267667910E+03  0.43227907716E+03  0.12509000000E+03 0.  0.
         25    1    3    3    0    0  0.34589186773E+02  0.31249631292E+02  0.37458996133E+03  0.39766581262E+03  0.12509000000E+03 0.  0.
         25    1    1    2    0    0 -0.16744261892E+02 -0.68117584189E+01  0.46531451234E+03  0.48217411156E+03  0.12509000000E+03 0.  0.
<mgrwt>
<rscale>  2 0.39076429E+03</rscale>
<asrwt>0</asrwt>
<pdfrwt beam="1">  1       21 0.18858086E+00 0.39076429E+03</pdfrwt>
<pdfrwt beam="2">  1       21 0.43777838E-02 0.39076429E+03</pdfrwt>
<totfact> 0.49083789E+04</totfact>
</mgrwt>
</event>
<event>
 5    0  0.3219609E-005  0.4028166E+03  0.7546771E-02  0.1042809E+00
         21   -1    0    0  502  501  0.00000000000E+00  0.00000000000E+00  0.45730751623E+02  0.45730751623E+02  0.00000000000E+00 0. -1.
         21   -1    0    0  501  502 -0.00000000000E+00 -0.00000000000E+00 -0.88704635195E+03  0.88704635195E+03  0.00000000000E+00 0. -1.
         25    1    1    2    0    0 -0.29025979174E+02 -0.51276409297E+02 -0.32470300462E+03  0.35291830064E+03  0.12509000000E+03 0.  0.
         25    1    1    2    0    0 -0.19784584946E+01  0.45646550167E+02 -0.23510413102E+03  0.27020174382E+03  0.12509000000E+03 0.  0.
         25    1    1    2    0    0  0.31004437669E+02  0.56298591306E+01 -0.28150846469E+03  0.30965705912E+03  0.12509000000E+03 0.  0.
<mgrwt>
<rscale>  2 0.40281657E+03</rscale>
<asrwt>0</asrwt>
<pdfrwt beam="1">  1       21 0.67251105E-02 0.40281657E+03</pdfrwt>
<pdfrwt beam="2">  1       21 0.13044799E+00 0.40281657E+03</pdfrwt>
<totfact> 0.64373784E+04</totfact>
</mgrwt>
</event>
<event>
 5    0  0.3219609E-005  0.5534606E+03  0.7546771E-02  0.1000696E+00
         21   -1    0    0  502  501  0.00000000000E+00  0.00000000000E+00  0.55446216326E+03  0.55446216326E+03  0.00000000000E+00 0.  1.
         21   -1    0    0  501  502 -0.00000000000E+00 -0.00000000000E+00 -0.13811521634E+03  0.13811521634E+03  0.00000000000E+00 0. -1.
         25    1    1    2    0    0  0.16530476130E+03  0.51556496979E+02  0.17629942723E+03  0.27697063496E+03  0.12509000000E+03 0.  0.
         25    1    1    2    0    0 -0.13977354702E+03  0.22719885095E+02  0.10889685145E+03  0.21807996235E+03  0.12509000000E+03 0.  0.
         25    1    1    2    0    0 -0.25531214283E+02 -0.74276382074E+02  0.13115066824E+03  0.19752678228E+03  0.12509000000E+03 0.  0.
<mgrwt>
<rscale>  2 0.55346061E+03</rscale>
<asrwt>0</asrwt>
<pdfrwt beam="1">  1       21 0.81538553E-01 0.55346061E+03</pdfrwt>
<pdfrwt beam="2">  1       21 0.20311061E-01 0.55346061E+03</pdfrwt>
<totfact> 0.26217580E+04</totfact>
</mgrwt>
</event>
<event>
 6    0  0.3219609E-005  0.4765032E+03  0.7546771E-02  0.1020101E+00
         21   -1    0    0  502  501  0.00000000000E+00  0.00000000000E+00  0.13174560239E+03  0.13174560239E+03  0.00000000000E+00 0.  1.
         21   -1    0    0  501  502 -0.00000000000E+00 -0.00000000000E+00 -0.43085934680E+03  0.43085934680E+03  0.00000000000E+00 0.  1.
      99925    2    1    2    0    0  0.51843078782E+02  0.82827479021E+02 -0.29181958313E+03  0.40370621103E+03  0.26128899638E+03 0.  0.
         25    1    1    2    0    0 -0.51843078782E+02 -0.82827479021E+02 -0.72941612715E+01  0.15889873815E+03  0.12509000000E+03 0.  0.
         25    1    3    3    0    0  0.25690707362E+02  0.31549136594E+02 -0.89985322538E+02  0.15937448615E+03  0.12509000000E+03 0.  0.
         25    1    3    3    0    0  0.26152371419E+02  0.51278342426E+02 -0.20183426059E+03  0.24433172488E+03  0.12509000000E+03 0.  0.
<mgrwt>
<rscale>  2 0.47650320E+03</rscale>
<asrwt>0</asrwt>
<pdfrwt beam="1">  1       21 0.19374353E-01 0.47650320E+03</pdfrwt>
<pdfrwt beam="2">  1       21 0.63361669E-01 0.47650320E+03</pdfrwt>
<totfact> 0.51672061E+04</totfact>
</mgrwt>
</event>
