<event>
 6    0  0.3472812E-005  0.4575061E+03  0.7546771E-02  0.1025507E+00
         21   -1    0    0  502  501  0.00000000000E+00  0.00000000000E+00  0.33642213550E+03  0.33642213550E+03  0.00000000000E+00 0.  1.
         21   -1    0    0  501  502 -0.00000000000E+00 -0.00000000000E+00 -0.15554257881E+03  0.15554257881E+03  0.00000000000E+00 0.  1.
      99926    2    1    2    0    0 -0.71054273576E-14  0.00000000000E+00  0.18087955669E+03  0.49196471432E+03  0.45750613778E+03 0.  0.
         25    1    3    3    0    0 -0.40671766959E+02  0.11605734751E+03  0.57527476142E+02  0.18460882739E+03  0.12509000000E+03 0.  0.
         25    1    3    3    0    0  0.91334592820E+01 -0.56145001381E+02  0.42978628767E+02  0.14398038717E+03  0.12509000000E+03 0.  0.
         25    1    3    3    0    0  0.31538307677E+02 -0.59912346133E+02  0.80373451780E+02  0.16337549976E+03  0.12509000000E+03 0.  0.
<mgrwt>
<rscale>  2 0.45750614E+03</rscale>
<asrwt>0</asrwt>
<pdfrwt beam="1">  1       21 0.49473844E-01 0.45750614E+03</pdfrwt>
<pdfrwt beam="2">  1       21 0.22873909E-01 0.45750614E+03</pdfrwt>
<totfact> 0.64545186E+04</totfact>
</mgrwt>
</event>
<event>
 6    0  0.3472812E-005  0.4760653E+03  0.7546771E-02  0.1020222E+00
         21   -1    0    0  502  501  0.00000000000E+00  0.00000000000E+00  0.15696579151E+04  0.15696579151E+04  0.00000000000E+00 0.  1.
         21   -1    0    0  501  502 -0.00000000000E+00 -0.00000000000E+00 -0.36096744806E+02  0.36096744806E+02  0.00000000000E+00 0.  1.
      99926    2    1    2    0    0  0.00000000000E+00  0.00000000000E+00  0.15335611703E+04  0.16057546599E+04  0.47606529465E+03 0.  0.
         25    1    3    3    0    0  0.43386399230E+02 -0.51605200405E+02  0.74115650748E+03  0.75465618200E+03  0.12509000000E+03 0.  0.
         25    1    3    3    0    0  0.22773465120E+02 -0.13811301841E+02  0.53576769135E+03  0.55082112339E+03  0.12509000000E+03 0.  0.
         25    1    3    3    0    0 -0.66159864350E+02  0.65416502246E+02  0.25663697146E+03  0.30027735452E+03  0.12509000000E+03 0.  0.
<mgrwt>
<rscale>  2 0.47606529E+03</rscale>
<asrwt>0</asrwt>
<pdfrwt beam="1">  1       21 0.23083200E+00 0.47606529E+03</pdfrwt>
<pdfrwt beam="2">  1       21 0.53083459E-02 0.47606529E+03</pdfrwt>
<totfact> 0.18145659E+04</totfact>
</mgrwt>
</event>
<event>
 5    0  0.3472812E-005  0.5778704E+03  0.7546771E-02  0.9952412E-01
         21   -1    0    0  502  501  0.00000000000E+00  0.00000000000E+00  0.91823431078E+03  0.91823431078E+03  0.00000000000E+00 0. -1.
         21   -1    0    0  501  502 -0.00000000000E+00 -0.00000000000E+00 -0.90917486470E+02  0.90917486470E+02  0.00000000000E+00 0. -1.
         25    1    1    2    0    0 -0.14239784263E+03  0.13082665682E+03  0.24516471888E+03  0.33637182879E+03  0.12509000000E+03 0.  0.
         25    1    1    2    0    0  0.48821078513E+02 -0.11493324421E+03  0.25990028104E+03  0.31430687635E+03  0.12509000000E+03 0.  0.
         25    1    1    2    0    0  0.93576764121E+02 -0.15893412608E+02  0.32225182439E+03  0.35847309211E+03  0.12509000000E+03 0.  0.
<mgrwt>
<rscale>  2 0.57787042E+03</rscale>
<asrwt>0</asrwt>
<pdfrwt beam="1">  1       21 0.13503445E+00 0.57787042E+03</pdfrwt>
<pdfrwt beam="2">  1       21 0.13370219E-01 0.57787042E+03</pdfrwt>
<totfact> 0.16413072E+04</totfact>
</mgrwt>
</event>
<event>
 6    0  0.3472812E-005  0.4564338E+03  0.7546771E-02  0.1025821E+00
         21   -1    0    0  502  501  0.00000000000E+00  0.00000000000E+00  0.23943504084E+03  0.23943504084E+03  0.00000000000E+00 0.  1.
         21   -1    0    0  501  502 -0.00000000000E+00 -0.00000000000E+00 -0.21752439894E+03  0.21752439894E+03  0.00000000000E+00 0.  1.
      99926    2    1    2    0    0  0.00000000000E+00  0.00000000000E+00  0.21910641899E+02  0.45695943977E+03  0.45643384337E+03 0.  0.
         25    1    3    3    0    0  0.16530058822E+01 -0.13068149123E+02 -0.56874259773E+02  0.13804237927E+03  0.12509000000E+03 0.  0.
         25    1    3    3    0    0  0.60810583203E+02  0.35032058527E+02  0.10130967962E+03  0.17560276603E+03  0.12509000000E+03 0.  0.
         25    1    3    3    0    0 -0.62463589086E+02 -0.21963909404E+02 -0.22524777948E+02  0.14331429447E+03  0.12509000000E+03 0.  0.
<mgrwt>
<rscale>  2 0.45643384E+03</rscale>
<asrwt>0</asrwt>
<pdfrwt beam="1">  1       21 0.35211036E-01 0.45643384E+03</pdfrwt>
<pdfrwt beam="2">  1       21 0.31988882E-01 0.45643384E+03</pdfrwt>
<totfact> 0.67625525E+04</totfact>
</mgrwt>
</event>
<event>
 6    0  0.3472812E-005  0.4546160E+03  0.7546771E-02  0.1026354E+00
         21   -1    0    0  502  501  0.00000000000E+00  0.00000000000E+00  0.28666502314E+03  0.28666502314E+03  0.00000000000E+00 0.  1.
         21   -1    0    0  501  502 -0.00000000000E+00 -0.00000000000E+00 -0.18024146922E+03  0.18024146922E+03  0.00000000000E+00 0.  1.
      99926    2    1    2    0    0  0.53290705182E-14  0.00000000000E+00  0.10642355392E+03  0.46690649237E+03  0.45461599156E+03 0.  0.
         25    1    3    3    0    0  0.12235195113E+02 -0.80705365751E+02  0.99587088477E+02  0.17952201077E+03  0.12509000000E+03 0.  0.
         25    1    3    3    0    0  0.33702541971E+02  0.13195223896E+02 -0.29771722410E+02  0.13358083255E+03  0.12509000000E+03 0.  0.
         25    1    3    3    0    0 -0.45937737085E+02  0.67510141855E+02  0.36608187851E+02  0.15380364904E+03  0.12509000000E+03 0.  0.
<mgrwt>
<rscale>  2 0.45461599E+03</rscale>
<asrwt>0</asrwt>
<pdfrwt beam="1">  1       21 0.42156621E-01 0.45461599E+03</pdfrwt>
<pdfrwt beam="2">  1       21 0.26506098E-01 0.45461599E+03</pdfrwt>
<totfact> 0.67873213E+04</totfact>
</mgrwt>
</event>
<event>
 6    0  0.3472812E-005  0.4555633E+03  0.7546771E-02  0.1026076E+00
         21   -1    0    0  502  501  0.00000000000E+00  0.00000000000E+00  0.57559529832E+03  0.57559529832E+03  0.00000000000E+00 0.  1.
         21   -1    0    0  501  502 -0.00000000000E+00 -0.00000000000E+00 -0.90140536482E+02  0.90140536482E+02  0.00000000000E+00 0.  1.
      99926    2    1    2    0    0 -0.71054273576E-14  0.17763568394E-14  0.48545476184E+03  0.66573583480E+03  0.45556325131E+03 0.  0.
         25    1    3    3    0    0 -0.19907919533E+02 -0.86293163501E+02  0.13957032581E+03  0.20729259339E+03  0.12509000000E+03 0.  0.
         25    1    3    3    0    0 -0.16321903978E+02  0.98836378890E+02  0.24704351120E+03  0.29447077762E+03  0.12509000000E+03 0.  0.
         25    1    3    3    0    0  0.36229823511E+02 -0.12543215389E+02  0.98840924826E+02  0.16397246380E+03  0.12509000000E+03 0.  0.
<mgrwt>
<rscale>  2 0.45556325E+03</rscale>
<asrwt>0</asrwt>
<pdfrwt beam="1">  1       21 0.84646366E-01 0.45556325E+03</pdfrwt>
<pdfrwt beam="2">  1       21 0.13255962E-01 0.45556325E+03</pdfrwt>
<totfact> 0.54560210E+04</totfact>
</mgrwt>
</event>
<event>
 6    0  0.3472812E-005  0.4536583E+03  0.7546771E-02  0.1026637E+00
         21   -1    0    0  502  501  0.00000000000E+00  0.00000000000E+00  0.16324032719E+04  0.16324032719E+04  0.00000000000E+00 0. -1.
         21   -1    0    0  501  502 -0.00000000000E+00 -0.00000000000E+00 -0.31518846933E+02  0.31518846933E+02  0.00000000000E+00 0. -1.
      99926    2    1    2    0    0 -0.17763568394E-14 -0.71054273576E-14  0.16008844249E+04  0.16639221188E+04  0.45365832455E+03 0.  0.
         25    1    3    3    0    0 -0.13543405144E+02 -0.63441814595E+02  0.92849940519E+03  0.93913094997E+03  0.12509000000E+03 0.  0.
         25    1    3    3    0    0  0.62892145240E+01  0.58283905027E+01  0.40455899039E+03  0.42354339702E+03  0.12509000000E+03 0.  0.
         25    1    3    3    0    0  0.72541906197E+01  0.57613424092E+02  0.26782602936E+03  0.30124777181E+03  0.12509000000E+03 0.  0.
<mgrwt>
<rscale>  2 0.45365832E+03</rscale>
<asrwt>0</asrwt>
<pdfrwt beam="1">  1       21 0.24005925E+00 0.45365832E+03</pdfrwt>
<pdfrwt beam="2">  1       21 0.46351256E-02 0.45365832E+03</pdfrwt>
<totfact> 0.20233077E+04</totfact>
</mgrwt>
</event>
<event>
 6    0  0.3472812E-005  0.4486915E+03  0.7546771E-02  0.1028113E+00
         21   -1    0    0  502  501  0.00000000000E+00  0.00000000000E+00  0.50054468611E+02  0.50054468611E+02  0.00000000000E+00 0. -1.
         21   -1    0    0  501  502 -0.00000000000E+00 -0.00000000000E+00 -0.10055249533E+04  0.10055249533E+04  0.00000000000E+00 0. -1.
      99926    2    1    2    0    0 -0.35527136788E-14  0.71054273576E-14 -0.95547048465E+03  0.10555794219E+04  0.44869150743E+03 0.  0.
         25    1    3    3    0    0  0.32932462034E+02  0.41414852995E+02 -0.13346095100E+03  0.19041814684E+03  0.12509000000E+03 0.  0.
         25    1    3    3    0    0 -0.55576626466E+02 -0.31818072016E+01 -0.43212179121E+03  0.45329420451E+03  0.12509000000E+03 0.  0.
         25    1    3    3    0    0  0.22644164432E+02 -0.38233045793E+02 -0.38988774244E+03  0.41186707052E+03  0.12509000000E+03 0.  0.
<mgrwt>
<rscale>  2 0.44869151E+03</rscale>
<asrwt>0</asrwt>
<pdfrwt beam="1">  1       21 0.73609518E-02 0.44869151E+03</pdfrwt>
<pdfrwt beam="2">  1       21 0.14787131E+00 0.44869151E+03</pdfrwt>
<totfact> 0.38956330E+04</totfact>
</mgrwt>
</event>
<event>
 6    0  0.3472812E-005  0.4539092E+03  0.7546771E-02  0.1026563E+00
         21   -1    0    0  502  501  0.00000000000E+00  0.00000000000E+00  0.34374677111E+03  0.34374677111E+03  0.00000000000E+00 0.  1.
         21   -1    0    0  501  502 -0.00000000000E+00 -0.00000000000E+00 -0.14984400810E+03  0.14984400810E+03  0.00000000000E+00 0.  1.
      99926    2    1    2    0    0  0.00000000000E+00  0.00000000000E+00  0.19390276301E+03  0.49359077921E+03  0.45390921539E+03 0.  0.
         25    1    3    3    0    0  0.70491241676E+02  0.27731982260E+02  0.13856242728E+03  0.20145751996E+03  0.12509000000E+03 0.  0.
         25    1    3    3    0    0 -0.48490744398E+02 -0.70384564082E+02  0.43538895599E+02  0.15763401499E+03  0.12509000000E+03 0.  0.
         25    1    3    3    0    0 -0.22000497278E+02  0.42652581822E+02  0.11801440133E+02  0.13449924426E+03  0.12509000000E+03 0.  0.
<mgrwt>
<rscale>  2 0.45390922E+03</rscale>
<asrwt>0</asrwt>
<pdfrwt beam="1">  1       21 0.50550996E-01 0.45390922E+03</pdfrwt>
<pdfrwt beam="2">  1       21 0.22035884E-01 0.45390922E+03</pdfrwt>
<totfact> 0.66295524E+04</totfact>
</mgrwt>
</event>
<event>
 6    0  0.3472812E-005  0.4670055E+03  0.7546771E-02  0.1022769E+00
         21   -1    0    0  502  501  0.00000000000E+00  0.00000000000E+00  0.30642109245E+03  0.30642109245E+03  0.00000000000E+00 0.  1.
         21   -1    0    0  501  502 -0.00000000000E+00 -0.00000000000E+00 -0.17793666052E+03  0.17793666052E+03  0.00000000000E+00 0.  1.
      99926    2    1    2    0    0  0.00000000000E+00  0.00000000000E+00  0.12848443194E+03  0.48435775297E+03  0.46700554987E+03 0.  0.
         25    1    3    3    0    0 -0.42797415405E+02 -0.13793509136E+02  0.68911429042E+01  0.13310475427E+03  0.12509000000E+03 0.  0.
         25    1    3    3    0    0 -0.27018604857E+02 -0.86601265330E+02  0.53128422517E+02  0.16340110631E+03  0.12509000000E+03 0.  0.
         25    1    3    3    0    0  0.69816020262E+02  0.10039477447E+03  0.68464866516E+02  0.18785189238E+03  0.12509000000E+03 0.  0.
<mgrwt>
<rscale>  2 0.46700555E+03</rscale>
<asrwt>0</asrwt>
<pdfrwt beam="1">  1       21 0.45061925E-01 0.46700555E+03</pdfrwt>
<pdfrwt beam="2">  1       21 0.26167156E-01 0.46700555E+03</pdfrwt>
<totfact> 0.60418853E+04</totfact>
</mgrwt>
</event>
<event>
 6    0  0.3472812E-005  0.4564512E+03  0.7546771E-02  0.1025816E+00
         21   -1    0    0  502  501  0.00000000000E+00  0.00000000000E+00  0.14290115129E+03  0.14290115129E+03  0.00000000000E+00 0. -1.
         21   -1    0    0  501  502 -0.00000000000E+00 -0.00000000000E+00 -0.36449619150E+03  0.36449619150E+03  0.00000000000E+00 0. -1.
      99926    2    1    2    0    0  0.00000000000E+00  0.00000000000E+00 -0.22159504020E+03  0.50739734279E+03  0.45645120399E+03 0.  0.
         25    1    3    3    0    0 -0.94290744956E+01  0.97770253433E+02 -0.15678946487E+03  0.22333466882E+03  0.12509000000E+03 0.  0.
         25    1    3    3    0    0  0.15742395947E+02 -0.73801953279E+02 -0.55233661001E+02  0.15618199879E+03  0.12509000000E+03 0.  0.
         25    1    3    3    0    0 -0.63133214511E+01 -0.23968300154E+02 -0.95719143331E+01  0.12788067518E+03  0.12509000000E+03 0.  0.
<mgrwt>
<rscale>  2 0.45645120E+03</rscale>
<asrwt>0</asrwt>
<pdfrwt beam="1">  1       21 0.21014876E-01 0.45645120E+03</pdfrwt>
<pdfrwt beam="2">  1       21 0.53602380E-01 0.45645120E+03</pdfrwt>
<totfact> 0.64013534E+04</totfact>
</mgrwt>
</event>
<event>
 6    0  0.3472812E-005  0.4546906E+03  0.7546771E-02  0.1026332E+00
         21   -1    0    0  502  501  0.00000000000E+00  0.00000000000E+00  0.71710890214E+03  0.71710890214E+03  0.00000000000E+00 0. -1.
         21   -1    0    0  501  502 -0.00000000000E+00 -0.00000000000E+00 -0.72075365048E+02  0.72075365048E+02  0.00000000000E+00 0. -1.
      99926    2    1    2    0    0  0.00000000000E+00  0.00000000000E+00  0.64503353709E+03  0.78918426718E+03  0.45469060206E+03 0.  0.
         25    1    3    3    0    0 -0.76933883799E+02  0.23693811937E+02  0.10342509206E+03  0.18117526588E+03  0.12509000000E+03 0.  0.
         25    1    3    3    0    0  0.66428417436E+02  0.20203796483E+02  0.26812765752E+03  0.30390932343E+03  0.12509000000E+03 0.  0.
         25    1    3    3    0    0  0.10505466363E+02 -0.43897608420E+02  0.27348078751E+03  0.30409967788E+03  0.12509000000E+03 0.  0.
<mgrwt>
<rscale>  2 0.45469060E+03</rscale>
<asrwt>0</asrwt>
<pdfrwt beam="1">  1       21 0.10545719E+00 0.45469060E+03</pdfrwt>
<pdfrwt beam="2">  1       21 0.10599319E-01 0.45469060E+03</pdfrwt>
<totfact> 0.48409874E+04</totfact>
</mgrwt>
</event>
<event>
 5    0  0.1867085E-003  0.7738993E+03  0.7546771E-02  0.9598585E-01
         21   -1    0    0  502  501  0.00000000000E+00  0.00000000000E+00  0.14766451782E+04  0.14766451782E+04  0.00000000000E+00 0.  1.
         21   -1    0    0  501  502 -0.00000000000E+00 -0.00000000000E+00 -0.10139878563E+03  0.10139878563E+03  0.00000000000E+00 0. -1.
         25    1    1    2    0    0 -0.23113784193E+03  0.14167931188E+03  0.39377507703E+03  0.49417006058E+03  0.12509000000E+03 0.  0.
         25    1    1    2    0    0 -0.28372127113E+02 -0.57097808849E+02  0.47275404455E+03  0.49316227766E+03  0.12509000000E+03 0.  0.
         25    1    1    2    0    0  0.25950996905E+03 -0.84581503030E+02  0.50871727100E+03  0.59071162558E+03  0.12509000000E+03 0.  0.
<mgrwt>
<rscale>  2 0.77389929E+03</rscale>
<asrwt>0</asrwt>
<pdfrwt beam="1">  1       21 0.21715369E+00 0.77389929E+03</pdfrwt>
<pdfrwt beam="2">  1       21 0.14911587E-01 0.77389929E+03</pdfrwt>
<totfact> 0.31967208E+03</totfact>
</mgrwt>
</event>
<event>
 6    0  0.3472812E-005  0.4531750E+03  0.7546771E-02  0.1026779E+00
         21   -1    0    0  502  501  0.00000000000E+00  0.00000000000E+00  0.54012715867E+03  0.54012715867E+03  0.00000000000E+00 0. -1.
         21   -1    0    0  501  502 -0.00000000000E+00 -0.00000000000E+00 -0.95055204398E+02  0.95055204398E+02  0.00000000000E+00 0. -1.
      99926    2    1    2    0    0  0.00000000000E+00  0.00000000000E+00  0.44507195427E+03  0.63518236307E+03  0.45317501020E+03 0.  0.
         25    1    3    3    0    0  0.67867361273E+02  0.36964745156E+02  0.74091644717E+02  0.16464947928E+03  0.12509000000E+03 0.  0.
         25    1    3    3    0    0 -0.47098682684E+01  0.31513173813E+02  0.12789000375E+03  0.18171027528E+03  0.12509000000E+03 0.  0.
         25    1    3    3    0    0 -0.63157493005E+02 -0.68477918969E+02  0.24309030580E+03  0.28882260851E+03  0.12509000000E+03 0.  0.
<mgrwt>
<rscale>  2 0.45317501E+03</rscale>
<asrwt>0</asrwt>
<pdfrwt beam="1">  1       21 0.79430463E-01 0.45317501E+03</pdfrwt>
<pdfrwt beam="2">  1       21 0.13978707E-01 0.45317501E+03</pdfrwt>
<totfact> 0.57385435E+04</totfact>
</mgrwt>
</event>
<event>
 6    0  0.3472812E-005  0.4569533E+03  0.7546771E-02  0.1025669E+00
         21   -1    0    0  502  501  0.00000000000E+00  0.00000000000E+00  0.28737493070E+03  0.28737493070E+03  0.00000000000E+00 0. -1.
         21   -1    0    0  501  502 -0.00000000000E+00 -0.00000000000E+00 -0.18164974262E+03  0.18164974262E+03  0.00000000000E+00 0. -1.
      99926    2    1    2    0    0  0.00000000000E+00  0.00000000000E+00  0.10572518808E+03  0.46902467333E+03  0.45695331140E+03 0.  0.
         25    1    3    3    0    0  0.39152408253E+02  0.27481579711E+02  0.21711955286E+02  0.13567264056E+03  0.12509000000E+03 0.  0.
         25    1    3    3    0    0 -0.56443703603E+02  0.52178491213E+02  0.10782429407E+03  0.18215947166E+03  0.12509000000E+03 0.  0.
         25    1    3    3    0    0  0.17291295350E+02 -0.79660070924E+02 -0.23811061281E+02  0.15119256111E+03  0.12509000000E+03 0.  0.
<mgrwt>
<rscale>  2 0.45695331E+03</rscale>
<asrwt>0</asrwt>
<pdfrwt beam="1">  1       21 0.42261019E-01 0.45695331E+03</pdfrwt>
<pdfrwt beam="2">  1       21 0.26713197E-01 0.45695331E+03</pdfrwt>
<totfact> 0.66472599E+04</totfact>
</mgrwt>
</event>
<event>
 6    0  0.4861910E-005  0.5566697E+03  0.7546771E-02  0.9999618E-01
         21   -1    0    0  502  501  0.00000000000E+00  0.00000000000E+00  0.15668486670E+03  0.15668486670E+03  0.00000000000E+00 0. -1.
         21   -1    0    0  501  502 -0.00000000000E+00 -0.00000000000E+00 -0.49443383489E+03  0.49443383489E+03  0.00000000000E+00 0. -1.
      99926    2    1    2    0    0  0.00000000000E+00  0.00000000000E+00 -0.33774896819E+03  0.65111870160E+03  0.55666973877E+03 0.  0.
         25    1    3    3    0    0 -0.16261443433E+03  0.31646413499E+02 -0.10169809513E+03  0.23116003200E+03  0.12509000000E+03 0.  0.
         25    1    3    3    0    0  0.65822527967E+02 -0.69272313932E+02 -0.19806879567E+03  0.25300200510E+03  0.12509000000E+03 0.  0.
         25    1    3    3    0    0  0.96791906360E+02  0.37625900432E+02 -0.37982077389E+02  0.16695666451E+03  0.12509000000E+03 0.  0.
<mgrwt>
<rscale>  2 0.55666974E+03</rscale>
<asrwt>0</asrwt>
<pdfrwt beam="1">  1       21 0.23041892E-01 0.55666974E+03</pdfrwt>
<pdfrwt beam="2">  1       21 0.72710858E-01 0.55666974E+03</pdfrwt>
<totfact> 0.26758320E+04</totfact>
</mgrwt>
</event>
<event>
 6    0  0.3472812E-005  0.4243515E+03  0.7546771E-02  0.1035659E+00
         21   -1    0    0  502  501  0.00000000000E+00  0.00000000000E+00  0.79559254319E+02  0.79559254319E+02  0.00000000000E+00 0. -1.
         21   -1    0    0  501  502 -0.00000000000E+00 -0.00000000000E+00 -0.56584926070E+03  0.56584926070E+03  0.00000000000E+00 0. -1.
      99926    2    1    2    0    0  0.00000000000E+00  0.00000000000E+00 -0.48629000638E+03  0.64540851502E+03  0.42435148280E+03 0.  0.
         25    1    3    3    0    0 -0.83054644022E+01  0.58803568458E+02 -0.23703375444E+03  0.27451657372E+03  0.12509000000E+03 0.  0.
         25    1    3    3    0    0 -0.46052949438E+00 -0.32683273868E+02 -0.60416259953E+02  0.14270963893E+03  0.12509000000E+03 0.  0.
         25    1    3    3    0    0  0.87659938966E+01 -0.26120294590E+02 -0.18883999199E+03  0.22818230236E+03  0.12509000000E+03 0.  0.
<mgrwt>
<rscale>  2 0.42435148E+03</rscale>
<asrwt>0</asrwt>
<pdfrwt beam="1">  1       21 0.11699891E-01 0.42435148E+03</pdfrwt>
<pdfrwt beam="2">  1       21 0.83213122E-01 0.42435148E+03</pdfrwt>
<totfact> 0.71809556E+04</totfact>
</mgrwt>
</event>
<event>
 6    0  0.3472812E-005  0.4519076E+03  0.7546771E-02  0.1027155E+00
         21   -1    0    0  502  501  0.00000000000E+00  0.00000000000E+00  0.10835554017E+03  0.10835554017E+03  0.00000000000E+00 0. -1.
         21   -1    0    0  501  502 -0.00000000000E+00 -0.00000000000E+00 -0.47118134941E+03  0.47118134941E+03  0.00000000000E+00 0. -1.
      99926    2    1    2    0    0  0.00000000000E+00  0.71054273576E-14 -0.36282580924E+03  0.57953688959E+03  0.45190755530E+03 0.  0.
         25    1    3    3    0    0  0.78157326250E+02  0.35327610112E+02 -0.10304679421E+03  0.18336509368E+03  0.12509000000E+03 0.  0.
         25    1    3    3    0    0  0.16065281724E+01 -0.70374491210E+02 -0.15464883578E+03  0.21099507211E+03  0.12509000000E+03 0.  0.
         25    1    3    3    0    0 -0.79763854422E+02  0.35046881099E+02 -0.10513017925E+03  0.18517672380E+03  0.12509000000E+03 0.  0.
<mgrwt>
<rscale>  2 0.45190756E+03</rscale>
<asrwt>0</asrwt>
<pdfrwt beam="1">  1       21 0.15934639E-01 0.45190756E+03</pdfrwt>
<pdfrwt beam="2">  1       21 0.69291373E-01 0.45190756E+03</pdfrwt>
<totfact> 0.61444311E+04</totfact>
</mgrwt>
</event>
<event>
 6    0  0.3472812E-005  0.4586486E+03  0.7546771E-02  0.1025174E+00
         21   -1    0    0  502  501  0.00000000000E+00  0.00000000000E+00  0.40774262810E+02  0.40774262810E+02  0.00000000000E+00 0. -1.
         21   -1    0    0  501  502 -0.00000000000E+00 -0.00000000000E+00 -0.12897755018E+04  0.12897755018E+04  0.00000000000E+00 0. -1.
      99926    2    1    2    0    0  0.88817841970E-15  0.00000000000E+00 -0.12490012390E+04  0.13305497646E+04  0.45864864669E+03 0.  0.
         25    1    3    3    0    0  0.20594212222E+02  0.96004928817E+01 -0.22912995495E+03  0.26203880513E+03  0.12509000000E+03 0.  0.
         25    1    3    3    0    0 -0.78054198326E+01 -0.14697921004E+02 -0.83738085178E+03  0.84683596551E+03  0.12509000000E+03 0.  0.
         25    1    3    3    0    0 -0.12788792390E+02  0.50974281219E+01 -0.18249043230E+03  0.22167499400E+03  0.12509000000E+03 0.  0.
<mgrwt>
<rscale>  2 0.45864865E+03</rscale>
<asrwt>0</asrwt>
<pdfrwt beam="1">  1       21 0.59962154E-02 0.45864865E+03</pdfrwt>
<pdfrwt beam="2">  1       21 0.18967286E+00 0.45864865E+03</pdfrwt>
<totfact> 0.27453117E+04</totfact>
</mgrwt>
</event>
<event>
 6    0  0.3472812E-005  0.4651192E+03  0.7546771E-02  0.1023307E+00
         21   -1    0    0  502  501  0.00000000000E+00  0.00000000000E+00  0.40759307609E+03  0.40759307609E+03  0.00000000000E+00 0. -1.
         21   -1    0    0  501  502 -0.00000000000E+00 -0.00000000000E+00 -0.13269111043E+03  0.13269111043E+03  0.00000000000E+00 0. -1.
      99926    2    1    2    0    0  0.00000000000E+00  0.00000000000E+00  0.27490196566E+03  0.54028418653E+03  0.46511924437E+03 0.  0.
         25    1    3    3    0    0 -0.20476240859E+02 -0.93855131705E+02  0.47064970137E+02  0.16459247158E+03  0.12509000000E+03 0.  0.
         25    1    3    3    0    0 -0.21175643996E+02  0.10118815330E+03  0.93339676550E+02  0.18720911726E+03  0.12509000000E+03 0.  0.
         25    1    3    3    0    0  0.41651884855E+02 -0.73330215994E+01  0.13449731897E+03  0.18848259768E+03  0.12509000000E+03 0.  0.
<mgrwt>
<rscale>  2 0.46511924E+03</rscale>
<asrwt>0</asrwt>
<pdfrwt beam="1">  1       21 0.59940158E-01 0.46511924E+03</pdfrwt>
<pdfrwt beam="2">  1       21 0.19513399E-01 0.46511924E+03</pdfrwt>
<totfact> 0.57743964E+04</totfact>
</mgrwt>
</event>
<event>
 6    0  0.3472812E-005  0.4532338E+03  0.7546771E-02  0.1026762E+00
         21   -1    0    0  502  501  0.00000000000E+00  0.00000000000E+00  0.69759251300E+03  0.69759251300E+03  0.00000000000E+00 0.  1.
         21   -1    0    0  501  502 -0.00000000000E+00 -0.00000000000E+00 -0.73617799651E+02  0.73617799651E+02  0.00000000000E+00 0.  1.
      99926    2    1    2    0    0 -0.71054273576E-14 -0.14210854715E-13  0.62397471335E+03  0.77121031265E+03  0.45323382866E+03 0.  0.
         25    1    3    3    0    0  0.56505161461E+02  0.88257303708E+02  0.22650494682E+03  0.27916694640E+03  0.12509000000E+03 0.  0.
         25    1    3    3    0    0 -0.32284849325E+02 -0.47081353538E+01  0.12476606168E+03  0.17966233963E+03  0.12509000000E+03 0.  0.
         25    1    3    3    0    0 -0.24220312137E+02 -0.83549168354E+02  0.27270370486E+03  0.31238102662E+03  0.12509000000E+03 0.  0.
<mgrwt>
<rscale>  2 0.45323383E+03</rscale>
<asrwt>0</asrwt>
<pdfrwt beam="1">  1       21 0.10258713E+00 0.45323383E+03</pdfrwt>
<pdfrwt beam="2">  1       21 0.10826147E-01 0.45323383E+03</pdfrwt>
<totfact> 0.49876756E+04</totfact>
</mgrwt>
</event>
<event>
 6    0  0.3472812E-005  0.4541361E+03  0.7546771E-02  0.1026496E+00
         21   -1    0    0  502  501  0.00000000000E+00  0.00000000000E+00  0.36756854587E+03  0.36756854587E+03  0.00000000000E+00 0. -1.
         21   -1    0    0  501  502 -0.00000000000E+00 -0.00000000000E+00 -0.14027289655E+03  0.14027289655E+03  0.00000000000E+00 0. -1.
      99926    2    1    2    0    0  0.35527136788E-14  0.00000000000E+00  0.22729564933E+03  0.50784144242E+03  0.45413612325E+03 0.  0.
         25    1    3    3    0    0 -0.19593956182E+02 -0.75168910452E+02  0.19147280333E+01  0.14725984687E+03  0.12509000000E+03 0.  0.
         25    1    3    3    0    0  0.52749512908E+02  0.33445963673E+02  0.15023131789E+03  0.20522694894E+03  0.12509000000E+03 0.  0.
         25    1    3    3    0    0 -0.33155556725E+02  0.41722946779E+02  0.75149603405E+02  0.15535464660E+03  0.12509000000E+03 0.  0.
<mgrwt>
<rscale>  2 0.45413612E+03</rscale>
<asrwt>0</asrwt>
<pdfrwt beam="1">  1       21 0.54054198E-01 0.45413612E+03</pdfrwt>
<pdfrwt beam="2">  1       21 0.20628367E-01 0.45413612E+03</pdfrwt>
<totfact> 0.65168884E+04</totfact>
</mgrwt>
</event>
<event>
 6    0  0.3472812E-005  0.4550216E+03  0.7546771E-02  0.1026235E+00
         21   -1    0    0  502  501  0.00000000000E+00  0.00000000000E+00  0.42157595718E+03  0.42157595718E+03  0.00000000000E+00 0. -1.
         21   -1    0    0  501  502 -0.00000000000E+00 -0.00000000000E+00 -0.12278016139E+03  0.12278016139E+03  0.00000000000E+00 0. -1.
      99926    2    1    2    0    0  0.71054273576E-14  0.71054273576E-14  0.29879579580E+03  0.54435611857E+03  0.45502159975E+03 0.  0.
         25    1    3    3    0    0  0.46353200575E+02 -0.11854349876E+02  0.76008105315E+02  0.15399313293E+03  0.12509000000E+03 0.  0.
         25    1    3    3    0    0 -0.88229110210E+02 -0.47562766032E+02  0.56529828973E+02  0.16996976868E+03  0.12509000000E+03 0.  0.
         25    1    3    3    0    0  0.41875909635E+02  0.59417115908E+02  0.16625786151E+03  0.22039321696E+03  0.12509000000E+03 0.  0.
<mgrwt>
<rscale>  2 0.45502160E+03</rscale>
<asrwt>0</asrwt>
<pdfrwt beam="1">  1       21 0.61996464E-01 0.45502160E+03</pdfrwt>
<pdfrwt beam="2">  1       21 0.18055906E-01 0.45502160E+03</pdfrwt>
<totfact> 0.62230375E+04</totfact>
</mgrwt>
</event>
<event>
 6    0  0.3472812E-005  0.4488160E+03  0.7546771E-02  0.1028076E+00
         21   -1    0    0  502  501  0.00000000000E+00  0.00000000000E+00  0.99099101486E+02  0.99099101486E+02  0.00000000000E+00 0. -1.
         21   -1    0    0  501  502 -0.00000000000E+00 -0.00000000000E+00 -0.50816749961E+03  0.50816749961E+03  0.00000000000E+00 0. -1.
      99926    2    1    2    0    0  0.00000000000E+00  0.00000000000E+00 -0.40906839813E+03  0.60726660110E+03  0.44881596503E+03 0.  0.
         25    1    3    3    0    0 -0.17118353886E+02  0.90719124443E+02 -0.19014883247E+03  0.24561572459E+03  0.12509000000E+03 0.  0.
         25    1    3    3    0    0 -0.21080690389E+02 -0.76571726740E+02 -0.72984620932E+02  0.16517229742E+03  0.12509000000E+03 0.  0.
         25    1    3    3    0    0  0.38199044275E+02 -0.14147397703E+02 -0.14593494473E+03  0.19647857908E+03  0.12509000000E+03 0.  0.
<mgrwt>
<rscale>  2 0.44881597E+03</rscale>
<asrwt>0</asrwt>
<pdfrwt beam="1">  1       21 0.14573397E-01 0.44881597E+03</pdfrwt>
<pdfrwt beam="2">  1       21 0.74730515E-01 0.44881597E+03</pdfrwt>
<totfact> 0.61166867E+04</totfact>
</mgrwt>
</event>
<event>
 5    0  0.3994873E-005  0.6134016E+03  0.7546771E-02  0.9877985E-01
         21   -1    0    0  502  501  0.00000000000E+00  0.00000000000E+00  0.27711283110E+03  0.27711283110E+03  0.00000000000E+00 0. -1.
         21   -1    0    0  501  502 -0.00000000000E+00 -0.00000000000E+00 -0.33944798196E+03  0.33944798196E+03  0.00000000000E+00 0. -1.
         25    1    1    2    0    0  0.10002922705E+03  0.96421322403E+02 -0.11963838159E+03  0.22195442804E+03  0.12509000000E+03 0.  0.
         25    1    1    2    0    0  0.46240318115E+02  0.29668161499E+02  0.87952215226E+02  0.16248528269E+03  0.12509000000E+03 0.  0.
         25    1    1    2    0    0 -0.14626954516E+03 -0.12608948390E+03 -0.30648984496E+02  0.23212110232E+03  0.12509000000E+03 0.  0.
<mgrwt>
<rscale>  2 0.61340163E+03</rscale>
<asrwt>0</asrwt>
<pdfrwt beam="1">  1       21 0.40751887E-01 0.61340163E+03</pdfrwt>
<pdfrwt beam="2">  1       21 0.49918821E-01 0.61340163E+03</pdfrwt>
<totfact> 0.19358859E+04</totfact>
</mgrwt>
</event>
<event>
 6    0  0.3472812E-005  0.4540726E+03  0.7546771E-02  0.1026514E+00
         21   -1    0    0  502  501  0.00000000000E+00  0.00000000000E+00  0.17618062620E+03  0.17618062620E+03  0.00000000000E+00 0.  1.
         21   -1    0    0  501  502 -0.00000000000E+00 -0.00000000000E+00 -0.29257177211E+03  0.29257177211E+03  0.00000000000E+00 0.  1.
      99926    2    1    2    0    0  0.00000000000E+00  0.71054273576E-14 -0.11639114592E+03  0.46875239831E+03  0.45407258458E+03 0.  0.
         25    1    3    3    0    0  0.44438801439E+01 -0.48119725330E+02  0.47099571145E+02  0.14213069246E+03  0.12509000000E+03 0.  0.
         25    1    3    3    0    0  0.46998923490E+02 -0.13068830856E+02 -0.74845221528E+02  0.15371730038E+03  0.12509000000E+03 0.  0.
         25    1    3    3    0    0 -0.51442803634E+02  0.61188556186E+02 -0.88645495533E+02  0.17290440547E+03  0.12509000000E+03 0.  0.
<mgrwt>
<rscale>  2 0.45407258E+03</rscale>
<asrwt>0</asrwt>
<pdfrwt beam="1">  1       21 0.25908916E-01 0.45407258E+03</pdfrwt>
<pdfrwt beam="2">  1       21 0.43025260E-01 0.45407258E+03</pdfrwt>
<totfact> 0.68027739E+04</totfact>
</mgrwt>
</event>
<event>
 6    0  0.3472812E-005  0.4525112E+03  0.7546771E-02  0.1026976E+00
         21   -1    0    0  502  501  0.00000000000E+00  0.00000000000E+00  0.74376677673E+03  0.74376677673E+03  0.00000000000E+00 0. -1.
         21   -1    0    0  501  502 -0.00000000000E+00 -0.00000000000E+00 -0.68827498101E+02  0.68827498101E+02  0.00000000000E+00 0. -1.
      99926    2    1    2    0    0  0.00000000000E+00 -0.35527136788E-14  0.67493927863E+03  0.81259427483E+03  0.45251124367E+03 0.  0.
         25    1    3    3    0    0  0.30089621613E+02 -0.61709688173E+02  0.13840475243E+03  0.19878846682E+03  0.12509000000E+03 0.  0.
         25    1    3    3    0    0  0.51503552865E+02  0.20062382415E+01  0.28086961764E+03  0.31175614054E+03  0.12509000000E+03 0.  0.
         25    1    3    3    0    0 -0.81593174478E+02  0.59703449932E+02  0.25566490856E+03  0.30204966748E+03  0.12509000000E+03 0.  0.
<mgrwt>
<rscale>  2 0.45251124E+03</rscale>
<asrwt>0</asrwt>
<pdfrwt beam="1">  1       21 0.10937746E+00 0.45251124E+03</pdfrwt>
<pdfrwt beam="2">  1       21 0.10121691E-01 0.45251124E+03</pdfrwt>
<totfact> 0.48094064E+04</totfact>
</mgrwt>
</event>
<event>
 6    0  0.3472812E-005  0.4742758E+03  0.7546771E-02  0.1020720E+00
         21   -1    0    0  502  501  0.00000000000E+00  0.00000000000E+00  0.79252511727E+02  0.79252511727E+02  0.00000000000E+00 0. -1.
         21   -1    0    0  501  502 -0.00000000000E+00 -0.00000000000E+00 -0.70955970813E+03  0.70955970813E+03  0.00000000000E+00 0. -1.
      99926    2    1    2    0    0  0.00000000000E+00 -0.35527136788E-14 -0.63030719641E+03  0.78881221986E+03  0.47427582308E+03 0.  0.
         25    1    3    3    0    0  0.31827368377E+02 -0.55027887501E+02 -0.16880847476E+03  0.21951049868E+03  0.12509000000E+03 0.  0.
         25    1    3    3    0    0  0.88599402391E+02  0.81935114729E+01 -0.21174937850E+03  0.26153832440E+03  0.12509000000E+03 0.  0.
         25    1    3    3    0    0 -0.12042677077E+03  0.46834376028E+02 -0.24974934315E+03  0.30776339678E+03  0.12509000000E+03 0.  0.
<mgrwt>
<rscale>  2 0.47427582E+03</rscale>
<asrwt>0</asrwt>
<pdfrwt beam="1">  1       21 0.11654781E-01 0.47427582E+03</pdfrwt>
<pdfrwt beam="2">  1       21 0.10434701E+00 0.47427582E+03</pdfrwt>
<totfact> 0.41644061E+04</totfact>
</mgrwt>
</event>
<event>
 6    0  0.3472812E-005  0.4535582E+03  0.7546771E-02  0.1026666E+00
         21   -1    0    0  502  501  0.00000000000E+00  0.00000000000E+00  0.67149060421E+03  0.67149060421E+03  0.00000000000E+00 0.  1.
         21   -1    0    0  501  502 -0.00000000000E+00 -0.00000000000E+00 -0.76588951685E+02  0.76588951685E+02  0.00000000000E+00 0.  1.
      99926    2    1    2    0    0 -0.14210854715E-13  0.44408920985E-15  0.59490165252E+03  0.74807955589E+03  0.45355820549E+03 0.  0.
         25    1    3    3    0    0 -0.70670022971E+02 -0.34603479005E+01  0.12482282795E+03  0.19035354641E+03  0.12509000000E+03 0.  0.
         25    1    3    3    0    0  0.21771016801E+02  0.10995890274E+02  0.94139531562E+02  0.15844445802E+03  0.12509000000E+03 0.  0.
         25    1    3    3    0    0  0.48899006170E+02 -0.75355423735E+01  0.37593929301E+03  0.39928155146E+03  0.12509000000E+03 0.  0.
<mgrwt>
<rscale>  2 0.45355821E+03</rscale>
<asrwt>0</asrwt>
<pdfrwt beam="1">  1       21 0.98748615E-01 0.45355821E+03</pdfrwt>
<pdfrwt beam="2">  1       21 0.11263081E-01 0.45355821E+03</pdfrwt>
<totfact> 0.50943924E+04</totfact>
</mgrwt>
</event>
<event>
 6    0  0.3472812E-005  0.4575458E+03  0.7546771E-02  0.1025495E+00
         21   -1    0    0  502  501  0.00000000000E+00  0.00000000000E+00  0.40745156817E+02  0.40745156817E+02  0.00000000000E+00 0. -1.
         21   -1    0    0  501  502 -0.00000000000E+00 -0.00000000000E+00 -0.12844970321E+04  0.12844970321E+04  0.00000000000E+00 0. -1.
      99926    2    1    2    0    0  0.00000000000E+00  0.00000000000E+00 -0.12437518753E+04  0.13252421890E+04  0.45754577041E+03 0.  0.
         25    1    3    3    0    0 -0.95942632957E+02 -0.45467463179E+02 -0.36523300932E+03  0.40039347925E+03  0.12509000000E+03 0.  0.
         25    1    3    3    0    0  0.48776004381E+02  0.63042917293E+02 -0.36660652677E+03  0.39547612013E+03  0.12509000000E+03 0.  0.
         25    1    3    3    0    0  0.47166628575E+02 -0.17575454114E+02 -0.51191233924E+03  0.52937258958E+03  0.12509000000E+03 0.  0.
<mgrwt>
<rscale>  2 0.45754577E+03</rscale>
<asrwt>0</asrwt>
<pdfrwt beam="1">  1       21 0.59919359E-02 0.45754577E+03</pdfrwt>
<pdfrwt beam="2">  1       21 0.18889659E+00 0.45754577E+03</pdfrwt>
<totfact> 0.27835269E+04</totfact>
</mgrwt>
</event>
<event>
 6    0  0.3472812E-005  0.4519498E+03  0.7546771E-02  0.1027142E+00
         21   -1    0    0  502  501  0.00000000000E+00  0.00000000000E+00  0.44330426604E+03  0.44330426604E+03  0.00000000000E+00 0. -1.
         21   -1    0    0  501  502 -0.00000000000E+00 -0.00000000000E+00 -0.11519097132E+03  0.11519097132E+03  0.00000000000E+00 0. -1.
      99926    2    1    2    0    0  0.00000000000E+00  0.00000000000E+00  0.32811329472E+03  0.55849523736E+03  0.45194977153E+03 0.  0.
         25    1    3    3    0    0  0.79980463245E+01 -0.14743402848E+02  0.25061443465E+03  0.28060014188E+03  0.12509000000E+03 0.  0.
         25    1    3    3    0    0  0.30426922213E+02 -0.22026460269E+02  0.44941459905E+02  0.13812387725E+03  0.12509000000E+03 0.  0.
         25    1    3    3    0    0 -0.38424968537E+02  0.36769863117E+02  0.32557400169E+02  0.13977121823E+03  0.12509000000E+03 0.  0.
<mgrwt>
<rscale>  2 0.45194977E+03</rscale>
<asrwt>0</asrwt>
<pdfrwt beam="1">  1       21 0.65191803E-01 0.45194977E+03</pdfrwt>
<pdfrwt beam="2">  1       21 0.16939849E-01 0.45194977E+03</pdfrwt>
<totfact> 0.62810416E+04</totfact>
</mgrwt>
</event>
<event>
 6    0  0.3472812E-005  0.4565455E+03  0.7546771E-02  0.1025788E+00
         21   -1    0    0  502  501  0.00000000000E+00  0.00000000000E+00  0.41159912858E+03  0.41159912858E+03  0.00000000000E+00 0.  1.
         21   -1    0    0  501  502 -0.00000000000E+00 -0.00000000000E+00 -0.12660002176E+03  0.12660002176E+03  0.00000000000E+00 0.  1.
      99926    2    1    2    0    0  0.71054273576E-14  0.00000000000E+00  0.28499910682E+03  0.53819915034E+03  0.45654554486E+03 0.  0.
         25    1    3    3    0    0 -0.27086653583E+02 -0.45403018341E+02  0.16856893707E+03  0.21646735440E+03  0.12509000000E+03 0.  0.
         25    1    3    3    0    0 -0.49199747250E+02  0.52724865251E+02  0.96541609601E+02  0.17369029054E+03  0.12509000000E+03 0.  0.
         25    1    3    3    0    0  0.76286400833E+02 -0.73218469099E+01  0.19888560152E+02  0.14804150539E+03  0.12509000000E+03 0.  0.
<mgrwt>
<rscale>  2 0.45654554E+03</rscale>
<asrwt>0</asrwt>
<pdfrwt beam="1">  1       21 0.60529283E-01 0.45654554E+03</pdfrwt>
<pdfrwt beam="2">  1       21 0.18617650E-01 0.45654554E+03</pdfrwt>
<totfact> 0.61892574E+04</totfact>
</mgrwt>
</event>
<event>
 6    0  0.3472812E-005  0.4494371E+03  0.7546771E-02  0.1027890E+00
         21   -1    0    0  502  501  0.00000000000E+00  0.00000000000E+00  0.29780034695E+04  0.29780034695E+04  0.00000000000E+00 0. -1.
         21   -1    0    0  501  502 -0.00000000000E+00 -0.00000000000E+00 -0.16957144916E+02  0.16957144916E+02  0.00000000000E+00 0. -1.
      99926    2    1    2    0    0  0.00000000000E+00  0.00000000000E+00  0.29610463246E+04  0.29949606144E+04  0.44943714307E+03 0.  0.
         25    1    3    3    0    0 -0.24037244694E+01 -0.74925227491E+02  0.77589528799E+03  0.78948120537E+03  0.12509000000E+03 0.  0.
         25    1    3    3    0    0  0.54123493193E+02  0.86750704121E+02  0.12891041657E+04  0.12991890145E+04  0.12509000000E+03 0.  0.
         25    1    3    3    0    0 -0.51719768723E+02 -0.11825476630E+02  0.89604687087E+03  0.90629039456E+03  0.12509000000E+03 0.  0.
<mgrwt>
<rscale>  2 0.44943714E+03</rscale>
<asrwt>0</asrwt>
<pdfrwt beam="1">  1       21 0.43794133E+00 0.44943714E+03</pdfrwt>
<pdfrwt beam="2">  1       21 0.24936998E-02 0.44943714E+03</pdfrwt>
<totfact> 0.34211189E+03</totfact>
</mgrwt>
</event>
<event>
 6    0  0.3472812E-005  0.4713589E+03  0.7546771E-02  0.1021537E+00
         21   -1    0    0  502  501  0.00000000000E+00  0.00000000000E+00  0.14623076097E+04  0.14623076097E+04  0.00000000000E+00 0. -1.
         21   -1    0    0  501  502 -0.00000000000E+00 -0.00000000000E+00 -0.37984355108E+02  0.37984355108E+02  0.00000000000E+00 0. -1.
      99926    2    1    2    0    0  0.00000000000E+00  0.00000000000E+00  0.14243232546E+04  0.15002919648E+04  0.47135893552E+03 0.  0.
         25    1    3    3    0    0  0.13417608346E+02  0.59065749899E+01  0.65826061323E+03  0.67020106153E+03  0.12509000000E+03 0.  0.
         25    1    3    3    0    0  0.29348705357E+01 -0.96228065685E+02  0.47061205452E+03  0.49637855318E+03  0.12509000000E+03 0.  0.
         25    1    3    3    0    0 -0.16352478882E+02  0.90321490695E+02  0.29545058681E+03  0.33371235008E+03  0.12509000000E+03 0.  0.
<mgrwt>
<rscale>  2 0.47135894E+03</rscale>
<asrwt>0</asrwt>
<pdfrwt beam="1">  1       21 0.21504520E+00 0.47135894E+03</pdfrwt>
<pdfrwt beam="2">  1       21 0.55859355E-02 0.47135894E+03</pdfrwt>
<totfact> 0.20977260E+04</totfact>
</mgrwt>
</event>
<event>
 6    0  0.3472812E-005  0.4542792E+03  0.7546771E-02  0.1026454E+00
         21   -1    0    0  502  501  0.00000000000E+00  0.00000000000E+00  0.35674357656E+03  0.35674357656E+03  0.00000000000E+00 0.  1.
         21   -1    0    0  501  502 -0.00000000000E+00 -0.00000000000E+00 -0.14462037848E+03  0.14462037848E+03  0.00000000000E+00 0.  1.
      99926    2    1    2    0    0  0.00000000000E+00  0.00000000000E+00  0.21212319808E+03  0.50136395503E+03  0.45427916994E+03 0.  0.
         25    1    3    3    0    0  0.24125622491E+02  0.55124927295E+02 -0.22362557881E+02  0.14060012576E+03  0.12509000000E+03 0.  0.
         25    1    3    3    0    0 -0.20044734529E+02  0.22274001292E+00  0.16277579546E+03  0.20626514171E+03  0.12509000000E+03 0.  0.
         25    1    3    3    0    0 -0.40808879623E+01 -0.55347667308E+02  0.71709960500E+02  0.15449868756E+03  0.12509000000E+03 0.  0.
<mgrwt>
<rscale>  2 0.45427917E+03</rscale>
<asrwt>0</asrwt>
<pdfrwt beam="1">  1       21 0.52462291E-01 0.45427917E+03</pdfrwt>
<pdfrwt beam="2">  1       21 0.21267703E-01 0.45427917E+03</pdfrwt>
<totfact> 0.65549204E+04</totfact>
</mgrwt>
</event>
<event>
 6    0  0.3472812E-005  0.4450135E+03  0.7546771E-02  0.1029220E+00
         21   -1    0    0  502  501  0.00000000000E+00  0.00000000000E+00  0.36711831967E+03  0.36711831967E+03  0.00000000000E+00 0.  1.
         21   -1    0    0  501  502 -0.00000000000E+00 -0.00000000000E+00 -0.13485912947E+03  0.13485912947E+03  0.00000000000E+00 0.  1.
      99926    2    1    2    0    0  0.00000000000E+00  0.00000000000E+00  0.23225919020E+03  0.50197744913E+03  0.44501351441E+03 0.  0.
         25    1    3    3    0    0  0.37188647033E+02  0.62646395666E+02 -0.31909053361E+01  0.14479384080E+03  0.12509000000E+03 0.  0.
         25    1    3    3    0    0 -0.15061481610E+02 -0.27670583557E+02  0.73717211208E+02  0.14857403794E+03  0.12509000000E+03 0.  0.
         25    1    3    3    0    0 -0.22127165422E+02 -0.34975812110E+02  0.16173288433E+03  0.20860957038E+03  0.12509000000E+03 0.  0.
<mgrwt>
<rscale>  2 0.44501351E+03</rscale>
<asrwt>0</asrwt>
<pdfrwt beam="1">  1       21 0.53987988E-01 0.44501351E+03</pdfrwt>
<pdfrwt beam="2">  1       21 0.19832225E-01 0.44501351E+03</pdfrwt>
<totfact> 0.70560957E+04</totfact>
</mgrwt>
</event>
<event>
 6    0  0.3472812E-005  0.4529460E+03  0.7546771E-02  0.1026847E+00
         21   -1    0    0  502  501  0.00000000000E+00  0.00000000000E+00  0.99737784401E+02  0.99737784401E+02  0.00000000000E+00 0. -1.
         21   -1    0    0  501  502 -0.00000000000E+00 -0.00000000000E+00 -0.51424864452E+03  0.51424864452E+03  0.00000000000E+00 0. -1.
      99926    2    1    2    0    0  0.00000000000E+00 -0.88817841970E-15 -0.41451086012E+03  0.61398642892E+03  0.45294600312E+03 0.  0.
         25    1    3    3    0    0  0.27410213436E+02 -0.22027656191E+02 -0.21331820693E+03  0.24977730671E+03  0.12509000000E+03 0.  0.
         25    1    3    3    0    0  0.63625830211E+02  0.15296674387E+02 -0.13653615058E+03  0.19639720729E+03  0.12509000000E+03 0.  0.
         25    1    3    3    0    0 -0.91036043647E+02  0.67309818043E+01 -0.64656502605E+02  0.16781191492E+03  0.12509000000E+03 0.  0.
<mgrwt>
<rscale>  2 0.45294600E+03</rscale>
<asrwt>0</asrwt>
<pdfrwt beam="1">  1       21 0.14667322E-01 0.45294600E+03</pdfrwt>
<pdfrwt beam="2">  1       21 0.75624798E-01 0.45294600E+03</pdfrwt>
<totfact> 0.58773169E+04</totfact>
</mgrwt>
</event>
<event>
 6    0  0.3472812E-005  0.5039498E+03  0.7546771E-02  0.1012753E+00
         21   -1    0    0  502  501  0.00000000000E+00  0.00000000000E+00  0.72010189232E+03  0.72010189232E+03  0.00000000000E+00 0.  1.
         21   -1    0    0  501  502 -0.00000000000E+00 -0.00000000000E+00 -0.88169953316E+02  0.88169953316E+02  0.00000000000E+00 0.  1.
      99926    2    1    2    0    0  0.00000000000E+00  0.00000000000E+00  0.63193193900E+03  0.80827184564E+03  0.50394980000E+03 0.  0.
         25    1    3    3    0    0  0.39515718046E+02  0.71804374290E+02  0.16122089299E+03  0.21990235237E+03  0.12509000000E+03 0.  0.
         25    1    3    3    0    0 -0.90501798780E+02 -0.13542361865E+02  0.87706066318E+02  0.17808378173E+03  0.12509000000E+03 0.  0.
         25    1    3    3    0    0  0.50986080734E+02 -0.58262012425E+02  0.38300497969E+03  0.41028571153E+03  0.12509000000E+03 0.  0.
<mgrwt>
<rscale>  2 0.50394980E+03</rscale>
<asrwt>0</asrwt>
<pdfrwt beam="1">  1       21 0.10589733E+00 0.50394980E+03</pdfrwt>
<pdfrwt beam="2">  1       21 0.12966170E-01 0.50394980E+03</pdfrwt>
<totfact> 0.32823834E+04</totfact>
</mgrwt>
</event>
<event>
 6    0  0.3472812E-005  0.4573570E+03  0.7546771E-02  0.1025551E+00
         21   -1    0    0  502  501  0.00000000000E+00  0.00000000000E+00  0.11441619802E+04  0.11441619802E+04  0.00000000000E+00 0.  1.
         21   -1    0    0  501  502 -0.00000000000E+00 -0.00000000000E+00 -0.45704938527E+02  0.45704938527E+02  0.00000000000E+00 0.  1.
      99926    2    1    2    0    0  0.14210854715E-13  0.71054273576E-14  0.10984570416E+04  0.11898669187E+04  0.45735698516E+03 0.  0.
         25    1    3    3    0    0 -0.10505810582E+03 -0.50352412871E+02  0.37827255346E+03  0.41510264258E+03  0.12509000000E+03 0.  0.
         25    1    3    3    0    0  0.14393129474E+02  0.32522784461E+02  0.31875505405E+03  0.34426325141E+03  0.12509000000E+03 0.  0.
         25    1    3    3    0    0  0.90664976347E+02  0.17829628409E+02  0.40142943413E+03  0.43050102470E+03  0.12509000000E+03 0.  0.
<mgrwt>
<rscale>  2 0.45735699E+03</rscale>
<asrwt>0</asrwt>
<pdfrwt beam="1">  1       21 0.16825910E+00 0.45735699E+03</pdfrwt>
<pdfrwt beam="2">  1       21 0.67213152E-02 0.45735699E+03</pdfrwt>
<totfact> 0.31889164E+04</totfact>
</mgrwt>
</event>
<event>
 6    0  0.3472812E-005  0.4532963E+03  0.7546771E-02  0.1026744E+00
         21   -1    0    0  502  501  0.00000000000E+00  0.00000000000E+00  0.12938095142E+03  0.12938095142E+03  0.00000000000E+00 0.  1.
         21   -1    0    0  501  502 -0.00000000000E+00 -0.00000000000E+00 -0.39703977175E+03  0.39703977175E+03  0.00000000000E+00 0.  1.
      99926    2    1    2    0    0  0.35527136788E-14  0.00000000000E+00 -0.26765882033E+03  0.52642072316E+03  0.45329629788E+03 0.  0.
         25    1    3    3    0    0 -0.46844883205E+02 -0.22177195486E+02 -0.82926037424E+02  0.15877816873E+03  0.12509000000E+03 0.  0.
         25    1    3    3    0    0 -0.17339778041E+02  0.94896094827E+02 -0.73825144983E+02  0.17436627210E+03  0.12509000000E+03 0.  0.
         25    1    3    3    0    0  0.64184661245E+02 -0.72718899340E+02 -0.11090763792E+03  0.19327628233E+03  0.12509000000E+03 0.  0.
<mgrwt>
<rscale>  2 0.45329630E+03</rscale>
<asrwt>0</asrwt>
<pdfrwt beam="1">  1       21 0.19026611E-01 0.45329630E+03</pdfrwt>
<pdfrwt beam="2">  1       21 0.58388202E-01 0.45329630E+03</pdfrwt>
<totfact> 0.64313636E+04</totfact>
</mgrwt>
</event>
<event>
 6    0  0.3472812E-005  0.4423173E+03  0.7546771E-02  0.1030038E+00
         21   -1    0    0  502  501  0.00000000000E+00  0.00000000000E+00  0.13257827056E+04  0.13257827056E+04  0.00000000000E+00 0. -1.
         21   -1    0    0  501  502 -0.00000000000E+00 -0.00000000000E+00 -0.36892278314E+02  0.36892278314E+02  0.00000000000E+00 0. -1.
      99926    2    1    2    0    0  0.00000000000E+00  0.00000000000E+00  0.12888904273E+04  0.13626749839E+04  0.44231728231E+03 0.  0.
         25    1    3    3    0    0 -0.61227850074E+01 -0.27633388578E+02  0.48090012996E+03  0.49770828380E+03  0.12509000000E+03 0.  0.
         25    1    3    3    0    0 -0.46193873351E+02  0.17019948129E+02  0.61083224218E+03  0.62544950936E+03  0.12509000000E+03 0.  0.
         25    1    3    3    0    0  0.52316658359E+02  0.10613440448E+02  0.19715805512E+03  0.23951719074E+03  0.12509000000E+03 0.  0.
<mgrwt>
<rscale>  2 0.44231728E+03</rscale>
<asrwt>0</asrwt>
<pdfrwt beam="1">  1       21 0.19496801E+00 0.44231728E+03</pdfrwt>
<pdfrwt beam="2">  1       21 0.54253359E-02 0.44231728E+03</pdfrwt>
<totfact> 0.30214452E+04</totfact>
</mgrwt>
</event>
<event>
 6    0  0.3472812E-005  0.4538632E+03  0.7546771E-02  0.1026576E+00
         21   -1    0    0  502  501  0.00000000000E+00  0.00000000000E+00  0.32842651645E+02  0.32842651645E+02  0.00000000000E+00 0. -1.
         21   -1    0    0  501  502 -0.00000000000E+00 -0.00000000000E+00 -0.15680206046E+04  0.15680206046E+04  0.00000000000E+00 0. -1.
      99926    2    1    2    0    0  0.00000000000E+00 -0.35527136788E-14 -0.15351779530E+04  0.16008632563E+04  0.45386321503E+03 0.  0.
         25    1    3    3    0    0 -0.41494315490E+02  0.54883475331E+02 -0.64917825254E+03  0.66469081967E+03  0.12509000000E+03 0.  0.
         25    1    3    3    0    0  0.77398670043E+02  0.11494405850E+02 -0.33344022212E+03  0.36462661082E+03  0.12509000000E+03 0.  0.
         25    1    3    3    0    0 -0.35904354553E+02 -0.66377881181E+02 -0.55255947832E+03  0.57154582578E+03  0.12509000000E+03 0.  0.
<mgrwt>
<rscale>  2 0.45386322E+03</rscale>
<asrwt>0</asrwt>
<pdfrwt beam="1">  1       21 0.48298023E-02 0.45386322E+03</pdfrwt>
<pdfrwt beam="2">  1       21 0.23059124E+00 0.45386322E+03</pdfrwt>
<totfact> 0.21600329E+04</totfact>
</mgrwt>
</event>
<event>
 6    0  0.3472812E-005  0.4725587E+03  0.7546771E-02  0.1021201E+00
         21   -1    0    0  502  501  0.00000000000E+00  0.00000000000E+00  0.28143679991E+03  0.28143679991E+03  0.00000000000E+00 0.  1.
         21   -1    0    0  501  502 -0.00000000000E+00 -0.00000000000E+00 -0.19836752798E+03  0.19836752798E+03  0.00000000000E+00 0.  1.
      99926    2    1    2    0    0  0.00000000000E+00  0.14210854715E-13  0.83069271933E+02  0.47980432790E+03  0.47255866210E+03 0.  0.
         25    1    3    3    0    0 -0.30806906002E+02 -0.50072867179E+01  0.12899570577E+01  0.12893141769E+03  0.12509000000E+03 0.  0.
         25    1    3    3    0    0  0.20504156864E+01 -0.10074132492E+03  0.90452050445E+02  0.18434234533E+03  0.12509000000E+03 0.  0.
         25    1    3    3    0    0  0.28756490315E+02  0.10574861163E+03 -0.86727355699E+01  0.16653056488E+03  0.12509000000E+03 0.  0.
<mgrwt>
<rscale>  2 0.47255866E+03</rscale>
<asrwt>0</asrwt>
<pdfrwt beam="1">  1       21 0.41387764E-01 0.47255866E+03</pdfrwt>
<pdfrwt beam="2">  1       21 0.29171695E-01 0.47255866E+03</pdfrwt>
<totfact> 0.58171598E+04</totfact>
</mgrwt>
</event>
<event>
 6    0  0.3472812E-005  0.4567297E+03  0.7546771E-02  0.1025734E+00
         21   -1    0    0  502  501  0.00000000000E+00  0.00000000000E+00  0.59016011982E+03  0.59016011982E+03  0.00000000000E+00 0. -1.
         21   -1    0    0  501  502 -0.00000000000E+00 -0.00000000000E+00 -0.88366706142E+02  0.88366706142E+02  0.00000000000E+00 0. -1.
      99926    2    1    2    0    0 -0.14210854715E-13  0.00000000000E+00  0.50179341367E+03  0.67852682596E+03  0.45672970512E+03 0.  0.
         25    1    3    3    0    0 -0.81077448951E+02  0.54340224038E+01  0.17502618243E+03  0.22996685406E+03  0.12509000000E+03 0.  0.
         25    1    3    3    0    0 -0.40098675537E+02  0.78015575299E+00  0.11762780042E+03  0.17633014477E+03  0.12509000000E+03 0.  0.
         25    1    3    3    0    0  0.12117612449E+03 -0.62141781568E+01  0.20913943082E+03  0.27222982713E+03  0.12509000000E+03 0.  0.
<mgrwt>
<rscale>  2 0.45672971E+03</rscale>
<asrwt>0</asrwt>
<pdfrwt beam="1">  1       21 0.86788250E-01 0.45672971E+03</pdfrwt>
<pdfrwt beam="2">  1       21 0.12995104E-01 0.45672971E+03</pdfrwt>
<totfact> 0.53354030E+04</totfact>
</mgrwt>
</event>
<event>
 6    0  0.3472812E-005  0.4503125E+03  0.7546771E-02  0.1027629E+00
         21   -1    0    0  502  501  0.00000000000E+00  0.00000000000E+00  0.13110820918E+03  0.13110820918E+03  0.00000000000E+00 0.  1.
         21   -1    0    0  501  502 -0.00000000000E+00 -0.00000000000E+00 -0.38666794081E+03  0.38666794081E+03  0.00000000000E+00 0.  1.
      99926    2    1    2    0    0 -0.44408920985E-15  0.35527136788E-14 -0.25555973163E+03  0.51777615000E+03  0.45031251934E+03 0.  0.
         25    1    3    3    0    0  0.21030736221E+02 -0.49557640667E+02 -0.11070599887E+03  0.17550378315E+03  0.12509000000E+03 0.  0.
         25    1    3    3    0    0 -0.17314419143E+02  0.33508185961E+02 -0.16920213597E+03  0.21377431687E+03  0.12509000000E+03 0.  0.
         25    1    3    3    0    0 -0.37163170780E+01  0.16049454706E+02  0.24348403208E+02  0.12849804998E+03  0.12509000000E+03 0.  0.
<mgrwt>
<rscale>  2 0.45031252E+03</rscale>
<asrwt>0</asrwt>
<pdfrwt beam="1">  1       21 0.19280619E-01 0.45031252E+03</pdfrwt>
<pdfrwt beam="2">  1       21 0.56862932E-01 0.45031252E+03</pdfrwt>
<totfact> 0.66477034E+04</totfact>
</mgrwt>
</event>
<event>
 6    0  0.3472812E-005  0.4553140E+03  0.7546771E-02  0.1026149E+00
         21   -1    0    0  502  501  0.00000000000E+00  0.00000000000E+00  0.79662027145E+02  0.79662027145E+02  0.00000000000E+00 0. -1.
         21   -1    0    0  501  502 -0.00000000000E+00 -0.00000000000E+00 -0.65059505227E+03  0.65059505227E+03  0.00000000000E+00 0. -1.
      99926    2    1    2    0    0 -0.71054273576E-14  0.00000000000E+00 -0.57093302513E+03  0.73025707942E+03  0.45531404861E+03 0.  0.
         25    1    3    3    0    0 -0.17891151526E+02 -0.29712026672E+02 -0.70154378862E+02  0.14755352522E+03  0.12509000000E+03 0.  0.
         25    1    3    3    0    0 -0.60050230951E+02  0.46852081532E+02 -0.20686140064E+03  0.25345669247E+03  0.12509000000E+03 0.  0.
         25    1    3    3    0    0  0.77941382478E+02 -0.17140054860E+02 -0.29391724562E+03  0.32924686173E+03  0.12509000000E+03 0.  0.
<mgrwt>
<rscale>  2 0.45531405E+03</rscale>
<asrwt>0</asrwt>
<pdfrwt beam="1">  1       21 0.11715004E-01 0.45531405E+03</pdfrwt>
<pdfrwt beam="2">  1       21 0.95675745E-01 0.45531405E+03</pdfrwt>
<totfact> 0.51164358E+04</totfact>
</mgrwt>
</event>
<event>
 6    0  0.3472812E-005  0.4579664E+03  0.7546771E-02  0.1025373E+00
         21   -1    0    0  502  501  0.00000000000E+00  0.00000000000E+00  0.14918206625E+03  0.14918206625E+03  0.00000000000E+00 0. -1.
         21   -1    0    0  501  502 -0.00000000000E+00 -0.00000000000E+00 -0.35147197148E+03  0.35147197148E+03  0.00000000000E+00 0. -1.
      99926    2    1    2    0    0  0.14210854715E-13  0.00000000000E+00 -0.20228990524E+03  0.50065403773E+03  0.45796643953E+03 0.  0.
         25    1    3    3    0    0 -0.62152907377E+02  0.65255506415E+02 -0.58790210528E+02  0.16500018778E+03  0.12509000000E+03 0.  0.
         25    1    3    3    0    0 -0.43647739974E+01 -0.26604486635E+02  0.33063584076E+01  0.12800503923E+03  0.12509000000E+03 0.  0.
         25    1    3    3    0    0  0.66517681374E+02 -0.38651019780E+02 -0.14680605312E+03  0.20764881073E+03  0.12509000000E+03 0.  0.
<mgrwt>
<rscale>  2 0.45796644E+03</rscale>
<asrwt>0</asrwt>
<pdfrwt beam="1">  1       21 0.21938539E-01 0.45796644E+03</pdfrwt>
<pdfrwt beam="2">  1       21 0.51687054E-01 0.45796644E+03</pdfrwt>
<totfact> 0.63711190E+04</totfact>
</mgrwt>
</event>
<event>
 6    0  0.3472812E-005  0.4551506E+03  0.7546771E-02  0.1026197E+00
         21   -1    0    0  502  501  0.00000000000E+00  0.00000000000E+00  0.86911939443E+03  0.86911939443E+03  0.00000000000E+00 0. -1.
         21   -1    0    0  501  502 -0.00000000000E+00 -0.00000000000E+00 -0.59589657432E+02  0.59589657432E+02  0.00000000000E+00 0. -1.
      99926    2    1    2    0    0  0.71054273576E-14  0.00000000000E+00  0.80952973700E+03  0.92870905186E+03  0.45515064311E+03 0.  0.
         25    1    3    3    0    0  0.55792782678E+02 -0.84793200046E+02  0.21696937248E+03  0.27023311801E+03  0.12509000000E+03 0.  0.
         25    1    3    3    0    0  0.10563248237E+02  0.10293822150E+02  0.23139196199E+03  0.26345263931E+03  0.12509000000E+03 0.  0.
         25    1    3    3    0    0 -0.66356030915E+02  0.74499377897E+02  0.36116840253E+03  0.39502329454E+03  0.12509000000E+03 0.  0.
<mgrwt>
<rscale>  2 0.45515064E+03</rscale>
<asrwt>0</asrwt>
<pdfrwt beam="1">  1       21 0.12781167E+00 0.45515064E+03</pdfrwt>
<pdfrwt beam="2">  1       21 0.87631855E-02 0.45515064E+03</pdfrwt>
<totfact> 0.41965746E+04</totfact>
</mgrwt>
</event>
<event>
 6    0  0.3472812E-005  0.4664952E+03  0.7546771E-02  0.1022914E+00
         21   -1    0    0  502  501  0.00000000000E+00  0.00000000000E+00  0.38823496584E+02  0.38823496584E+02  0.00000000000E+00 0. -1.
         21   -1    0    0  501  502 -0.00000000000E+00 -0.00000000000E+00 -0.14013277909E+04  0.14013277909E+04  0.00000000000E+00 0. -1.
      99926    2    1    2    0    0  0.00000000000E+00 -0.14210854715E-13 -0.13625042943E+04  0.14401512875E+04  0.46649520771E+03 0.  0.
         25    1    3    3    0    0  0.64361937974E+02 -0.77061953960E+02 -0.73749354984E+03  0.75473521712E+03  0.12509000000E+03 0.  0.
         25    1    3    3    0    0 -0.17786011240E+02  0.56803339373E+02 -0.39649035999E+03  0.41999413713E+03  0.12509000000E+03 0.  0.
         25    1    3    3    0    0 -0.46575926734E+02  0.20258614587E+02 -0.22852038451E+03  0.26542193325E+03  0.12509000000E+03 0.  0.
<mgrwt>
<rscale>  2 0.46649521E+03</rscale>
<asrwt>0</asrwt>
<pdfrwt beam="1">  1       21 0.57093378E-02 0.46649521E+03</pdfrwt>
<pdfrwt beam="2">  1       21 0.20607761E+00 0.46649521E+03</pdfrwt>
<totfact> 0.23144244E+04</totfact>
</mgrwt>
</event>
<event>
 6    0  0.3472812E-005  0.4559128E+03  0.7546771E-02  0.1025973E+00
         21   -1    0    0  502  501  0.00000000000E+00  0.00000000000E+00  0.42486856256E+03  0.42486856256E+03  0.00000000000E+00 0.  1.
         21   -1    0    0  501  502 -0.00000000000E+00 -0.00000000000E+00 -0.12230635453E+03  0.12230635453E+03  0.00000000000E+00 0.  1.
      99926    2    1    2    0    0 -0.44408920985E-14  0.00000000000E+00  0.30256220803E+03  0.54717491710E+03  0.45591282080E+03 0.  0.
         25    1    3    3    0    0  0.65023389108E+01 -0.93519256474E+02  0.76212993002E+02  0.17390819459E+03  0.12509000000E+03 0.  0.
         25    1    3    3    0    0 -0.65896013850E+02  0.30801438389E+02  0.10579971692E+03  0.17925429269E+03  0.12509000000E+03 0.  0.
         25    1    3    3    0    0  0.59393674939E+02  0.62717818085E+02  0.12054949811E+03  0.19401242982E+03  0.12509000000E+03 0.  0.
<mgrwt>
<rscale>  2 0.45591282E+03</rscale>
<asrwt>0</asrwt>
<pdfrwt beam="1">  1       21 0.62480670E-01 0.45591282E+03</pdfrwt>
<pdfrwt beam="2">  1       21 0.17986229E-01 0.45591282E+03</pdfrwt>
<totfact> 0.61607405E+04</totfact>
</mgrwt>
</event>
<event>
 6    0  0.3472812E-005  0.4423490E+03  0.7546771E-02  0.1030029E+00
         21   -1    0    0  502  501  0.00000000000E+00  0.00000000000E+00  0.63815694910E+02  0.63815694910E+02  0.00000000000E+00 0.  1.
         21   -1    0    0  501  502 -0.00000000000E+00 -0.00000000000E+00 -0.76655367440E+03  0.76655367440E+03  0.00000000000E+00 0.  1.
      99926    2    1    2    0    0  0.00000000000E+00  0.00000000000E+00 -0.70273797949E+03  0.83036936931E+03  0.44234898177E+03 0.  0.
         25    1    3    3    0    0 -0.27458422410E+02  0.79024913517E+01 -0.18235857350E+03  0.22297661707E+03  0.12509000000E+03 0.  0.
         25    1    3    3    0    0  0.35264197126E+02 -0.29730704513E+02 -0.95825417460E+02  0.16418738417E+03  0.12509000000E+03 0.  0.
         25    1    3    3    0    0 -0.78057747162E+01  0.21828213161E+02 -0.42455398853E+03  0.44320536807E+03  0.12509000000E+03 0.  0.
<mgrwt>
<rscale>  2 0.44234898E+03</rscale>
<asrwt>0</asrwt>
<pdfrwt beam="1">  1       21 0.93846611E-02 0.44234898E+03</pdfrwt>
<pdfrwt beam="2">  1       21 0.11272848E+00 0.44234898E+03</pdfrwt>
<totfact> 0.51229537E+04</totfact>
</mgrwt>
</event>
<event>
 6    0  0.3472812E-005  0.4529861E+03  0.7546771E-02  0.1026835E+00
         21   -1    0    0  502  501  0.00000000000E+00  0.00000000000E+00  0.40874183703E+03  0.40874183703E+03  0.00000000000E+00 0. -1.
         21   -1    0    0  501  502 -0.00000000000E+00 -0.00000000000E+00 -0.12550489924E+03  0.12550489924E+03  0.00000000000E+00 0. -1.
      99926    2    1    2    0    0 -0.62172489379E-14 -0.35527136788E-14  0.28323693779E+03  0.53424673626E+03  0.45298610605E+03 0.  0.
         25    1    3    3    0    0 -0.93463495297E+02  0.16734930607E+02  0.10176118590E+03  0.18713185168E+03  0.12509000000E+03 0.  0.
         25    1    3    3    0    0 -0.64652137364E+01 -0.27658741817E+02  0.43411922462E+02  0.13542122470E+03  0.12509000000E+03 0.  0.
         25    1    3    3    0    0  0.99928709033E+02  0.10923811210E+02  0.13806382942E+03  0.21169365989E+03  0.12509000000E+03 0.  0.
<mgrwt>
<rscale>  2 0.45298611E+03</rscale>
<asrwt>0</asrwt>
<pdfrwt beam="1">  1       21 0.60109093E-01 0.45298611E+03</pdfrwt>
<pdfrwt beam="2">  1       21 0.18456603E-01 0.45298611E+03</pdfrwt>
<totfact> 0.63932670E+04</totfact>
</mgrwt>
</event>
<event>
 6    0  0.3472812E-005  0.4537431E+03  0.7546771E-02  0.1026612E+00
         21   -1    0    0  502  501  0.00000000000E+00  0.00000000000E+00  0.11625362988E+03  0.11625362988E+03  0.00000000000E+00 0. -1.
         21   -1    0    0  501  502 -0.00000000000E+00 -0.00000000000E+00 -0.44274486904E+03  0.44274486904E+03  0.00000000000E+00 0. -1.
      99926    2    1    2    0    0  0.00000000000E+00 -0.62172489379E-14 -0.32649123916E+03  0.55899849891E+03  0.45374309090E+03 0.  0.
         25    1    3    3    0    0  0.85724449662E+02 -0.59024406690E+02 -0.15352326833E+03  0.22371737499E+03  0.12509000000E+03 0.  0.
         25    1    3    3    0    0 -0.83030271360E+02  0.38436777392E+01 -0.97997849840E+02  0.17933177770E+03  0.12509000000E+03 0.  0.
         25    1    3    3    0    0 -0.26941783020E+01  0.55180728951E+02 -0.74970120991E+02  0.15594934622E+03  0.12509000000E+03 0.  0.
<mgrwt>
<rscale>  2 0.45374309E+03</rscale>
<asrwt>0</asrwt>
<pdfrwt beam="1">  1       21 0.17096122E-01 0.45374309E+03</pdfrwt>
<pdfrwt beam="2">  1       21 0.65109539E-01 0.45374309E+03</pdfrwt>
<totfact> 0.61888793E+04</totfact>
</mgrwt>
</event>
<event>
 6    0  0.3472812E-005  0.4227862E+03  0.7546771E-02  0.1036163E+00
         21   -1    0    0  502  501  0.00000000000E+00  0.00000000000E+00  0.38746996103E+03  0.38746996103E+03  0.00000000000E+00 0.  1.
         21   -1    0    0  501  502 -0.00000000000E+00 -0.00000000000E+00 -0.11533035721E+03  0.11533035721E+03  0.00000000000E+00 0.  1.
      99926    2    1    2    0    0  0.00000000000E+00  0.00000000000E+00  0.27213960382E+03  0.50280031824E+03  0.42278622974E+03 0.  0.
         25    1    3    3    0    0 -0.61251014108E+02  0.42445007324E+02  0.83091572735E+02  0.16764540833E+03  0.12509000000E+03 0.  0.
         25    1    3    3    0    0  0.40584565017E+02 -0.13473886588E+02  0.14874278645E+03  0.19899893758E+03  0.12509000000E+03 0.  0.
         25    1    3    3    0    0  0.20666449092E+02 -0.28971120735E+02  0.40305244634E+02  0.13615597232E+03  0.12509000000E+03 0.  0.
<mgrwt>
<rscale>  2 0.42278623E+03</rscale>
<asrwt>0</asrwt>
<pdfrwt beam="1">  1       21 0.56980876E-01 0.42278623E+03</pdfrwt>
<pdfrwt beam="2">  1       21 0.16960347E-01 0.42278623E+03</pdfrwt>
<totfact> 0.84736952E+04</totfact>
</mgrwt>
</event>
<event>
 6    0  0.3472812E-005  0.4562216E+03  0.7546771E-02  0.1025883E+00
         21   -1    0    0  502  501  0.00000000000E+00  0.00000000000E+00  0.72244382546E+02  0.72244382546E+02  0.00000000000E+00 0.  1.
         21   -1    0    0  501  502 -0.00000000000E+00 -0.00000000000E+00 -0.72025732715E+03  0.72025732715E+03  0.00000000000E+00 0.  1.
      99926    2    1    2    0    0  0.00000000000E+00  0.00000000000E+00 -0.64801294460E+03  0.79250170969E+03  0.45622163857E+03 0.  0.
         25    1    3    3    0    0 -0.58616028044E+02  0.67817046581E+02 -0.15655075516E+03  0.21952366067E+03  0.12509000000E+03 0.  0.
         25    1    3    3    0    0  0.25127251450E+02 -0.75728692386E+02 -0.35464015379E+03  0.38442601420E+03  0.12509000000E+03 0.  0.
         25    1    3    3    0    0  0.33488776594E+02  0.79116458053E+01 -0.13682203565E+03  0.18855203482E+03  0.12509000000E+03 0.  0.
<mgrwt>
<rscale>  2 0.45622164E+03</rscale>
<asrwt>0</asrwt>
<pdfrwt beam="1">  1       21 0.10624174E-01 0.45622164E+03</pdfrwt>
<pdfrwt beam="2">  1       21 0.10592019E+00 0.45622164E+03</pdfrwt>
<totfact> 0.47670943E+04</totfact>
</mgrwt>
</event>
<event>
 6    0  0.3472812E-005  0.4417542E+03  0.7546771E-02  0.1030210E+00
         21   -1    0    0  502  501  0.00000000000E+00  0.00000000000E+00  0.24519080574E+03  0.24519080574E+03  0.00000000000E+00 0. -1.
         21   -1    0    0  501  502 -0.00000000000E+00 -0.00000000000E+00 -0.19897438270E+03  0.19897438270E+03  0.00000000000E+00 0. -1.
      99926    2    1    2    0    0  0.00000000000E+00 -0.12434497876E-13  0.46216423047E+02  0.44416518844E+03  0.44175418149E+03 0.  0.
         25    1    3    3    0    0 -0.58017256773E+02 -0.75092403273E+02  0.23357379886E+02  0.15873861033E+03  0.12509000000E+03 0.  0.
         25    1    3    3    0    0  0.14394291698E+02  0.83455989392E+02  0.22191960996E+02  0.15268296903E+03  0.12509000000E+03 0.  0.
         25    1    3    3    0    0  0.43622965076E+02 -0.83635861190E+01  0.66708216455E+00  0.13274360909E+03  0.12509000000E+03 0.  0.
<mgrwt>
<rscale>  2 0.44175418E+03</rscale>
<asrwt>0</asrwt>
<pdfrwt beam="1">  1       21 0.36057471E-01 0.44175418E+03</pdfrwt>
<pdfrwt beam="2">  1       21 0.29260939E-01 0.44175418E+03</pdfrwt>
<totfact> 0.77187325E+04</totfact>
</mgrwt>
</event>
<event>
 6    0  0.3472812E-005  0.4522013E+03  0.7546771E-02  0.1027068E+00
         21   -1    0    0  502  501  0.00000000000E+00  0.00000000000E+00  0.55998963571E+02  0.55998963571E+02  0.00000000000E+00 0.  1.
         21   -1    0    0  501  502 -0.00000000000E+00 -0.00000000000E+00 -0.91290094518E+03  0.91290094518E+03  0.00000000000E+00 0.  1.
      99926    2    1    2    0    0  0.00000000000E+00  0.00000000000E+00 -0.85690198161E+03  0.96889990875E+03  0.45220131257E+03 0.  0.
         25    1    3    3    0    0  0.46624383835E+02  0.45239782460E+02 -0.20121817053E+03  0.24567606993E+03  0.12509000000E+03 0.  0.
         25    1    3    3    0    0 -0.59986470775E+02  0.22718941718E+02 -0.19178077104E+03  0.23778540584E+03  0.12509000000E+03 0.  0.
         25    1    3    3    0    0  0.13362086940E+02 -0.67958724177E+02 -0.46390304003E+03  0.48543843297E+03  0.12509000000E+03 0.  0.
<mgrwt>
<rscale>  2 0.45220131E+03</rscale>
<asrwt>0</asrwt>
<pdfrwt beam="1">  1       21 0.82351427E-02 0.45220131E+03</pdfrwt>
<pdfrwt beam="2">  1       21 0.13425012E+00 0.45220131E+03</pdfrwt>
<totfact> 0.41280700E+04</totfact>
</mgrwt>
</event>
<event>
 5    0  0.3627194E-005  0.5887882E+03  0.7546771E-02  0.9928944E-01
         21   -1    0    0  502  501  0.00000000000E+00  0.00000000000E+00  0.17199835191E+03  0.17199835191E+03  0.00000000000E+00 0. -1.
         21   -1    0    0  501  502 -0.00000000000E+00 -0.00000000000E+00 -0.50388781652E+03  0.50388781652E+03  0.00000000000E+00 0. -1.
         25    1    1    2    0    0 -0.54193425238E+02 -0.92910543061E+01 -0.21862256995E+03  0.25781114642E+03  0.12509000000E+03 0.  0.
         25    1    1    2    0    0  0.10435275700E+03 -0.11112660981E+03  0.12970062208E+02  0.19762173948E+03  0.12509000000E+03 0.  0.
         25    1    1    2    0    0 -0.50159331763E+02  0.12041766412E+03 -0.12623695687E+03  0.22045328252E+03  0.12509000000E+03 0.  0.
<mgrwt>
<rscale>  2 0.58878816E+03</rscale>
<asrwt>0</asrwt>
<pdfrwt beam="1">  1       21 0.25293875E-01 0.58878816E+03</pdfrwt>
<pdfrwt beam="2">  1       21 0.74101151E-01 0.58878816E+03</pdfrwt>
<totfact> 0.21232030E+04</totfact>
</mgrwt>
</event>
<event>
 6    0  0.3472812E-005  0.4357670E+03  0.7546771E-02  0.1032054E+00
         21   -1    0    0  502  501  0.00000000000E+00  0.00000000000E+00  0.54192000834E+03  0.54192000834E+03  0.00000000000E+00 0. -1.
         21   -1    0    0  501  502 -0.00000000000E+00 -0.00000000000E+00 -0.87601897195E+02  0.87601897195E+02  0.00000000000E+00 0. -1.
      99926    2    1    2    0    0  0.00000000000E+00  0.00000000000E+00  0.45431811115E+03  0.62952190554E+03  0.43576700590E+03 0.  0.
         25    1    3    3    0    0  0.38366516941E+02  0.97228261617E+01  0.12356227210E+03  0.18022670767E+03  0.12509000000E+03 0.  0.
         25    1    3    3    0    0 -0.68361963275E+02  0.15775424486E+02  0.74928539689E+02  0.16181475891E+03  0.12509000000E+03 0.  0.
         25    1    3    3    0    0  0.29995446335E+02 -0.25498250648E+02  0.25582729936E+03  0.28748043896E+03  0.12509000000E+03 0.  0.
<mgrwt>
<rscale>  2 0.43576701E+03</rscale>
<asrwt>0</asrwt>
<pdfrwt beam="1">  1       21 0.79694117E-01 0.43576701E+03</pdfrwt>
<pdfrwt beam="2">  1       21 0.12882632E-01 0.43576701E+03</pdfrwt>
<totfact> 0.66419986E+04</totfact>
</mgrwt>
</event>
<event>
 6    0  0.3472812E-005  0.4570372E+03  0.7546771E-02  0.1025644E+00
         21   -1    0    0  502  501  0.00000000000E+00  0.00000000000E+00  0.15102683178E+03  0.15102683178E+03  0.00000000000E+00 0. -1.
         21   -1    0    0  501  502 -0.00000000000E+00 -0.00000000000E+00 -0.34577133936E+03  0.34577133936E+03  0.00000000000E+00 0. -1.
      99926    2    1    2    0    0  0.00000000000E+00  0.00000000000E+00 -0.19474450758E+03  0.49679817113E+03  0.45703719718E+03 0.  0.
         25    1    3    3    0    0 -0.29210919811E+02  0.30764933162E+02 -0.64705806192E+02  0.14708537794E+03  0.12509000000E+03 0.  0.
         25    1    3    3    0    0  0.44583811174E+02 -0.10672477344E+03 -0.33249878738E+02  0.17358270657E+03  0.12509000000E+03 0.  0.
         25    1    3    3    0    0 -0.15372891363E+02  0.75959840278E+02 -0.96788822650E+02  0.17613008662E+03  0.12509000000E+03 0.  0.
<mgrwt>
<rscale>  2 0.45703720E+03</rscale>
<asrwt>0</asrwt>
<pdfrwt beam="1">  1       21 0.22209829E-01 0.45703720E+03</pdfrwt>
<pdfrwt beam="2">  1       21 0.50848725E-01 0.45703720E+03</pdfrwt>
<totfact> 0.64447599E+04</totfact>
</mgrwt>
</event>
<event>
 6    0  0.3472812E-005  0.5213447E+03  0.7546771E-02  0.1008353E+00
         21   -1    0    0  502  501  0.00000000000E+00  0.00000000000E+00  0.96297848161E+03  0.96297848161E+03  0.00000000000E+00 0.  1.
         21   -1    0    0  501  502 -0.00000000000E+00 -0.00000000000E+00 -0.70562403555E+02  0.70562403555E+02  0.00000000000E+00 0.  1.
      99926    2    1    2    0    0  0.00000000000E+00  0.00000000000E+00  0.89241607805E+03  0.10335408852E+04  0.52134470836E+03 0.  0.
         25    1    3    3    0    0  0.14293734062E+03 -0.54625688065E+02  0.31465433833E+03  0.37157759603E+03  0.12509000000E+03 0.  0.
         25    1    3    3    0    0 -0.12432961342E+03 -0.45237160225E+01  0.38938849569E+03  0.42749178408E+03  0.12509000000E+03 0.  0.
         25    1    3    3    0    0 -0.18607727198E+02  0.59149404087E+02  0.18837324403E+03  0.23447150506E+03  0.12509000000E+03 0.  0.
<mgrwt>
<rscale>  2 0.52134471E+03</rscale>
<asrwt>0</asrwt>
<pdfrwt beam="1">  1       21 0.14161447E+00 0.52134471E+03</pdfrwt>
<pdfrwt beam="2">  1       21 0.10376825E-01 0.52134471E+03</pdfrwt>
<totfact> 0.23279143E+04</totfact>
</mgrwt>
</event>
<event>
 6    0  0.3472812E-005  0.4422214E+03  0.7546771E-02  0.1030067E+00
         21   -1    0    0  502  501  0.00000000000E+00  0.00000000000E+00  0.73101358842E+03  0.73101358842E+03  0.00000000000E+00 0. -1.
         21   -1    0    0  501  502 -0.00000000000E+00 -0.00000000000E+00 -0.66879650313E+02  0.66879650313E+02  0.00000000000E+00 0. -1.
      99926    2    1    2    0    0  0.00000000000E+00  0.00000000000E+00  0.66413393810E+03  0.79789323873E+03  0.44222136161E+03 0.  0.
         25    1    3    3    0    0  0.73450099975E+01  0.79292934319E+01  0.15823926944E+03  0.20199999346E+03  0.12509000000E+03 0.  0.
         25    1    3    3    0    0  0.70843736214E+02  0.21476070353E+02  0.35136320234E+03  0.38024158717E+03  0.12509000000E+03 0.  0.
         25    1    3    3    0    0 -0.78188746211E+02 -0.29405363785E+02  0.15453146632E+03  0.21565165809E+03  0.12509000000E+03 0.  0.
<mgrwt>
<rscale>  2 0.44222136E+03</rscale>
<asrwt>0</asrwt>
<pdfrwt beam="1">  1       21 0.10750199E+00 0.44222136E+03</pdfrwt>
<pdfrwt beam="2">  1       21 0.98352431E-02 0.44222136E+03</pdfrwt>
<totfact> 0.52984011E+04</totfact>
</mgrwt>
</event>
<event>
 6    0  0.3472812E-005  0.4586016E+03  0.7546771E-02  0.1025188E+00
         21   -1    0    0  502  501  0.00000000000E+00  0.00000000000E+00  0.11220797329E+03  0.11220797329E+03  0.00000000000E+00 0. -1.
         21   -1    0    0  501  502 -0.00000000000E+00 -0.00000000000E+00 -0.46858394543E+03  0.46858394543E+03  0.00000000000E+00 0. -1.
      99926    2    1    2    0    0 -0.35527136788E-14  0.35527136788E-14 -0.35637597213E+03  0.58079191872E+03  0.45860159107E+03 0.  0.
         25    1    3    3    0    0 -0.58393426639E+02 -0.37096866463E+02 -0.16272878149E+03  0.21659670866E+03  0.12509000000E+03 0.  0.
         25    1    3    3    0    0  0.69637092737E+02  0.99803923914E+01 -0.15220393298E+02  0.14431944217E+03  0.12509000000E+03 0.  0.
         25    1    3    3    0    0 -0.11243666097E+02  0.27116474071E+02 -0.17842679734E+03  0.21987576789E+03  0.12509000000E+03 0.  0.
<mgrwt>
<rscale>  2 0.45860159E+03</rscale>
<asrwt>0</asrwt>
<pdfrwt beam="1">  1       21 0.16501172E-01 0.45860159E+03</pdfrwt>
<pdfrwt beam="2">  1       21 0.68909405E-01 0.45860159E+03</pdfrwt>
<totfact> 0.58201480E+04</totfact>
</mgrwt>
</event>
<event>
 6    0  0.3472812E-005  0.4577792E+03  0.7546771E-02  0.1025427E+00
         21   -1    0    0  502  501  0.00000000000E+00  0.00000000000E+00  0.77851804107E+03  0.77851804107E+03  0.00000000000E+00 0.  1.
         21   -1    0    0  501  502 -0.00000000000E+00 -0.00000000000E+00 -0.67295100385E+02  0.67295100385E+02  0.00000000000E+00 0.  1.
      99926    2    1    2    0    0  0.71054273576E-14  0.00000000000E+00  0.71122294069E+03  0.84581314146E+03  0.45777920322E+03 0.  0.
         25    1    3    3    0    0 -0.87331882281E+02  0.37351089322E+02  0.35757985616E+03  0.39055450730E+03  0.12509000000E+03 0.  0.
         25    1    3    3    0    0  0.46912288885E+02  0.21361086855E+02  0.22307800775E+03  0.26089914627E+03  0.12509000000E+03 0.  0.
         25    1    3    3    0    0  0.40419593396E+02 -0.58712176176E+02  0.13056507677E+03  0.19435948789E+03  0.12509000000E+03 0.  0.
<mgrwt>
<rscale>  2 0.45777920E+03</rscale>
<asrwt>0</asrwt>
<pdfrwt beam="1">  1       21 0.11448794E+00 0.45777920E+03</pdfrwt>
<pdfrwt beam="2">  1       21 0.98963388E-02 0.45777920E+03</pdfrwt>
<totfact> 0.44645865E+04</totfact>
</mgrwt>
</event>
<event>
 6    0  0.3472812E-005  0.4569858E+03  0.7546771E-02  0.1025659E+00
         21   -1    0    0  502  501  0.00000000000E+00  0.00000000000E+00  0.23528854912E+03  0.23528854912E+03  0.00000000000E+00 0.  1.
         21   -1    0    0  501  502 -0.00000000000E+00 -0.00000000000E+00 -0.22189355273E+03  0.22189355273E+03  0.00000000000E+00 0.  1.
      99926    2    1    2    0    0  0.00000000000E+00  0.71054273576E-14  0.13394996392E+02  0.45718210185E+03  0.45698582946E+03 0.  0.
         25    1    3    3    0    0 -0.28089537693E+02 -0.58682705552E+02 -0.43202155918E+02  0.14746734023E+03  0.12509000000E+03 0.  0.
         25    1    3    3    0    0 -0.45632101564E+02 -0.17893461958E+02  0.56016738123E+02  0.14556046072E+03  0.12509000000E+03 0.  0.
         25    1    3    3    0    0  0.73721639258E+02  0.76576167509E+02  0.58041418704E+00  0.16415430091E+03  0.12509000000E+03 0.  0.
<mgrwt>
<rscale>  2 0.45698583E+03</rscale>
<asrwt>0</asrwt>
<pdfrwt beam="1">  1       21 0.34601257E-01 0.45698583E+03</pdfrwt>
<pdfrwt beam="2">  1       21 0.32631405E-01 0.45698583E+03</pdfrwt>
<totfact> 0.67313333E+04</totfact>
</mgrwt>
</event>
<event>
 6    0  0.3472812E-005  0.4518546E+03  0.7546771E-02  0.1027170E+00
         21   -1    0    0  502  501  0.00000000000E+00  0.00000000000E+00  0.42396665463E+03  0.42396665463E+03  0.00000000000E+00 0. -1.
         21   -1    0    0  501  502 -0.00000000000E+00 -0.00000000000E+00 -0.12039422607E+03  0.12039422607E+03  0.00000000000E+00 0. -1.
      99926    2    1    2    0    0  0.71054273576E-14  0.00000000000E+00  0.30357242856E+03  0.54436088070E+03  0.45185456627E+03 0.  0.
         25    1    3    3    0    0  0.87310463580E+02  0.18117533705E+02  0.14734467814E+03  0.21285987023E+03  0.12509000000E+03 0.  0.
         25    1    3    3    0    0 -0.27351048875E+02 -0.26907433325E+02  0.12308740176E+02  0.13141956866E+03  0.12509000000E+03 0.  0.
         25    1    3    3    0    0 -0.59959414705E+02  0.87898996205E+01  0.14391901025E+03  0.20008144181E+03  0.12509000000E+03 0.  0.
<mgrwt>
<rscale>  2 0.45185457E+03</rscale>
<asrwt>0</asrwt>
<pdfrwt beam="1">  1       21 0.62348037E-01 0.45185457E+03</pdfrwt>
<pdfrwt beam="2">  1       21 0.17705033E-01 0.45185457E+03</pdfrwt>
<totfact> 0.63814248E+04</totfact>
</mgrwt>
</event>
<event>
 6    0  0.3472812E-005  0.4505765E+03  0.7546771E-02  0.1027550E+00
         21   -1    0    0  502  501  0.00000000000E+00  0.00000000000E+00  0.68381897531E+02  0.68381897531E+02  0.00000000000E+00 0. -1.
         21   -1    0    0  501  502 -0.00000000000E+00 -0.00000000000E+00 -0.74222574622E+03  0.74222574622E+03  0.00000000000E+00 0. -1.
      99926    2    1    2    0    0  0.00000000000E+00  0.00000000000E+00 -0.67384384869E+03  0.81060764375E+03  0.45057654144E+03 0.  0.
         25    1    3    3    0    0  0.56433534319E+02 -0.19202510614E+02 -0.21355947173E+03  0.25457540391E+03  0.12509000000E+03 0.  0.
         25    1    3    3    0    0 -0.92628716095E+02 -0.28360246443E+02 -0.32915739433E+03  0.36520744922E+03  0.12509000000E+03 0.  0.
         25    1    3    3    0    0  0.36195181776E+02  0.47562757057E+02 -0.13112698263E+03  0.19082479062E+03  0.12509000000E+03 0.  0.
<mgrwt>
<rscale>  2 0.45057654E+03</rscale>
<asrwt>0</asrwt>
<pdfrwt beam="1">  1       21 0.10056162E-01 0.45057654E+03</pdfrwt>
<pdfrwt beam="2">  1       21 0.10915084E+00 0.45057654E+03</pdfrwt>
<totfact> 0.48932563E+04</totfact>
</mgrwt>
</event>
<event>
 6    0  0.3472812E-005  0.4551617E+03  0.7546771E-02  0.1026194E+00
         21   -1    0    0  502  501  0.00000000000E+00  0.00000000000E+00  0.82811652744E+02  0.82811652744E+02  0.00000000000E+00 0. -1.
         21   -1    0    0  501  502 -0.00000000000E+00 -0.00000000000E+00 -0.62543184319E+03  0.62543184319E+03  0.00000000000E+00 0. -1.
      99926    2    1    2    0    0  0.00000000000E+00  0.00000000000E+00 -0.54262019044E+03  0.70824349593E+03  0.45516170583E+03 0.  0.
         25    1    3    3    0    0 -0.67403909310E+02 -0.45519034846E+02 -0.10738410729E+03  0.18383178213E+03  0.12509000000E+03 0.  0.
         25    1    3    3    0    0  0.69858875729E+02  0.44689380460E+02 -0.14649202748E+03  0.20972559563E+03  0.12509000000E+03 0.  0.
         25    1    3    3    0    0 -0.24549664188E+01  0.82965438667E+00 -0.28874405567E+03  0.31468611817E+03  0.12509000000E+03 0.  0.
<mgrwt>
<rscale>  2 0.45516171E+03</rscale>
<asrwt>0</asrwt>
<pdfrwt beam="1">  1       21 0.12178184E-01 0.45516171E+03</pdfrwt>
<pdfrwt beam="2">  1       21 0.91975271E-01 0.45516171E+03</pdfrwt>
<totfact> 0.52390989E+04</totfact>
</mgrwt>
</event>
<event>
 6    0  0.3472812E-005  0.4579652E+03  0.7546771E-02  0.1025373E+00
         21   -1    0    0  502  501  0.00000000000E+00  0.00000000000E+00  0.51012124249E+03  0.51012124249E+03  0.00000000000E+00 0.  1.
         21   -1    0    0  501  502 -0.00000000000E+00 -0.00000000000E+00 -0.10278540798E+03  0.10278540798E+03  0.00000000000E+00 0.  1.
      99926    2    1    2    0    0  0.71054273576E-14  0.00000000000E+00  0.40733583451E+03  0.61290665047E+03  0.45796515164E+03 0.  0.
         25    1    3    3    0    0  0.96665062710E+02 -0.39197862975E+02  0.12442558102E+03  0.20496302136E+03  0.12509000000E+03 0.  0.
         25    1    3    3    0    0 -0.37437519693E+02  0.63436913901E+02  0.95713234007E+02  0.17388024957E+03  0.12509000000E+03 0.  0.
         25    1    3    3    0    0 -0.59227543017E+02 -0.24239050925E+02  0.18719701948E+03  0.23406337955E+03  0.12509000000E+03 0.  0.
<mgrwt>
<rscale>  2 0.45796515E+03</rscale>
<asrwt>0</asrwt>
<pdfrwt beam="1">  1       21 0.75017829E-01 0.45796515E+03</pdfrwt>
<pdfrwt beam="2">  1       21 0.15115501E-01 0.45796515E+03</pdfrwt>
<totfact> 0.56554598E+04</totfact>
</mgrwt>
</event>
<event>
 6    0  0.3472812E-005  0.4449906E+03  0.7546771E-02  0.1029226E+00
         21   -1    0    0  502  501  0.00000000000E+00  0.00000000000E+00  0.21820249789E+03  0.21820249789E+03  0.00000000000E+00 0.  1.
         21   -1    0    0  501  502 -0.00000000000E+00 -0.00000000000E+00 -0.22687259568E+03  0.22687259568E+03  0.00000000000E+00 0.  1.
      99926    2    1    2    0    0  0.00000000000E+00  0.00000000000E+00 -0.86700977899E+01  0.44507509357E+03  0.44499063846E+03 0.  0.
         25    1    3    3    0    0  0.63489145630E+02 -0.25557532879E+02  0.23568667276E+02  0.14452352499E+03  0.12509000000E+03 0.  0.
         25    1    3    3    0    0 -0.89866639416E+02 -0.30955257543E+02  0.12653969462E-01  0.15710426191E+03  0.12509000000E+03 0.  0.
         25    1    3    3    0    0  0.26377493785E+02  0.56512790422E+02 -0.32251419035E+02  0.14344730667E+03  0.12509000000E+03 0.  0.
<mgrwt>
<rscale>  2 0.44499064E+03</rscale>
<asrwt>0</asrwt>
<pdfrwt beam="1">  1       21 0.32088603E-01 0.44499064E+03</pdfrwt>
<pdfrwt beam="2">  1       21 0.33363617E-01 0.44499064E+03</pdfrwt>
<totfact> 0.75100055E+04</totfact>
</mgrwt>
</event>
<event>
 6    0  0.3472812E-005  0.4628996E+03  0.7546771E-02  0.1023944E+00
         21   -1    0    0  502  501  0.00000000000E+00  0.00000000000E+00  0.42855107214E+02  0.42855107214E+02  0.00000000000E+00 0.  1.
         21   -1    0    0  501  502 -0.00000000000E+00 -0.00000000000E+00 -0.12500029164E+04  0.12500029164E+04  0.00000000000E+00 0.  1.
      99926    2    1    2    0    0 -0.17763568394E-14  0.14210854715E-13 -0.12071478092E+04  0.12928580236E+04  0.46289959602E+03 0.  0.
         25    1    3    3    0    0  0.13244792998E+02 -0.65018349742E+02 -0.21038701326E+03  0.25360010606E+03  0.12509000000E+03 0.  0.
         25    1    3    3    0    0 -0.29096100755E+02 -0.31541511078E+02 -0.37903112976E+03  0.40143935460E+03  0.12509000000E+03 0.  0.
         25    1    3    3    0    0  0.15851307757E+02  0.96559860820E+02 -0.61772966613E+03  0.63781856291E+03  0.12509000000E+03 0.  0.
<mgrwt>
<rscale>  2 0.46289960E+03</rscale>
<asrwt>0</asrwt>
<pdfrwt beam="1">  1       21 0.63022209E-02 0.46289960E+03</pdfrwt>
<pdfrwt beam="2">  1       21 0.18382398E+00 0.46289960E+03</pdfrwt>
<totfact> 0.27587792E+04</totfact>
</mgrwt>
</event>
<event>
 6    0  0.3472812E-005  0.4697962E+03  0.7546771E-02  0.1021978E+00
         21   -1    0    0  502  501  0.00000000000E+00  0.00000000000E+00  0.87338098916E+02  0.87338098916E+02  0.00000000000E+00 0. -1.
         21   -1    0    0  501  502 -0.00000000000E+00 -0.00000000000E+00 -0.63176452375E+03  0.63176452375E+03  0.00000000000E+00 0. -1.
      99926    2    1    2    0    0  0.17763568394E-14 -0.71054273576E-14 -0.54442642483E+03  0.71910262266E+03  0.46979617907E+03 0.  0.
         25    1    3    3    0    0 -0.28080996786E+02 -0.78260599018E+02 -0.19384541840E+03  0.24522809397E+03  0.12509000000E+03 0.  0.
         25    1    3    3    0    0  0.23180480539E+02  0.53526044233E+02 -0.31103159044E+03  0.34028007646E+03  0.12509000000E+03 0.  0.
         25    1    3    3    0    0  0.49005162468E+01  0.24734554785E+02 -0.39549415995E+02  0.13359445223E+03  0.12509000000E+03 0.  0.
<mgrwt>
<rscale>  2 0.46979618E+03</rscale>
<asrwt>0</asrwt>
<pdfrwt beam="1">  1       21 0.12843838E-01 0.46979618E+03</pdfrwt>
<pdfrwt beam="2">  1       21 0.92906548E-01 0.46979618E+03</pdfrwt>
<totfact> 0.46254819E+04</totfact>
</mgrwt>
</event>
<event>
 6    0  0.3472812E-005  0.4592786E+03  0.7546771E-02  0.1024991E+00
         21   -1    0    0  502  501  0.00000000000E+00  0.00000000000E+00  0.23864444232E+04  0.23864444232E+04  0.00000000000E+00 0. -1.
         21   -1    0    0  501  502 -0.00000000000E+00 -0.00000000000E+00 -0.22097395023E+02  0.22097395023E+02  0.00000000000E+00 0. -1.
      99926    2    1    2    0    0  0.00000000000E+00 -0.35527136788E-14  0.23643470281E+04  0.24085418182E+04  0.45927858700E+03 0.  0.
         25    1    3    3    0    0  0.70597875681E+02 -0.39360924737E+02  0.70762150571E+03  0.72312450235E+03  0.12509000000E+03 0.  0.
         25    1    3    3    0    0  0.27857703313E+02  0.69541931777E+02  0.69380223855E+03  0.70895781696E+03  0.12509000000E+03 0.  0.
         25    1    3    3    0    0 -0.98455578994E+02 -0.30181007040E+02  0.96292328387E+03  0.97645949887E+03  0.12509000000E+03 0.  0.
<mgrwt>
<rscale>  2 0.45927859E+03</rscale>
<asrwt>0</asrwt>
<pdfrwt beam="1">  1       21 0.35094753E+00 0.45927859E+03</pdfrwt>
<pdfrwt beam="2">  1       21 0.32496186E-02 0.45927859E+03</pdfrwt>
<totfact> 0.78490598E+03</totfact>
</mgrwt>
</event>
<event>
 6    0  0.3472812E-005  0.4672238E+03  0.7546771E-02  0.1022707E+00
         21   -1    0    0  502  501  0.00000000000E+00  0.00000000000E+00  0.14074153737E+03  0.14074153737E+03  0.00000000000E+00 0. -1.
         21   -1    0    0  501  502 -0.00000000000E+00 -0.00000000000E+00 -0.38776412088E+03  0.38776412088E+03  0.00000000000E+00 0. -1.
      99926    2    1    2    0    0 -0.14210854715E-13 -0.26645352591E-14 -0.24702258351E+03  0.52850565825E+03  0.46722379439E+03 0.  0.
         25    1    3    3    0    0  0.64391967169E+02  0.51191150503E+02 -0.61325738886E+02  0.16178755723E+03  0.12509000000E+03 0.  0.
         25    1    3    3    0    0  0.44190266748E+02 -0.57331813357E+02 -0.51424242177E+02  0.15340038227E+03  0.12509000000E+03 0.  0.
         25    1    3    3    0    0 -0.10858223392E+03  0.61406628541E+01 -0.13427260245E+03  0.21331771875E+03  0.12509000000E+03 0.  0.
<mgrwt>
<rscale>  2 0.46722379E+03</rscale>
<asrwt>0</asrwt>
<pdfrwt beam="1">  1       21 0.20697285E-01 0.46722379E+03</pdfrwt>
<pdfrwt beam="2">  1       21 0.57024134E-01 0.46722379E+03</pdfrwt>
<totfact> 0.57526833E+04</totfact>
</mgrwt>
</event>
<event>
 6    0  0.3472812E-005  0.4526411E+03  0.7546771E-02  0.1026937E+00
         21   -1    0    0  502  501  0.00000000000E+00  0.00000000000E+00  0.12587228130E+03  0.12587228130E+03  0.00000000000E+00 0. -1.
         21   -1    0    0  501  502 -0.00000000000E+00 -0.00000000000E+00 -0.40692831319E+03  0.40692831319E+03  0.00000000000E+00 0. -1.
      99926    2    1    2    0    0  0.00000000000E+00  0.00000000000E+00 -0.28105603189E+03  0.53280059449E+03  0.45264111659E+03 0.  0.
         25    1    3    3    0    0 -0.53819898494E+02 -0.58745512197E+02 -0.14343216364E+03  0.20631992232E+03  0.12509000000E+03 0.  0.
         25    1    3    3    0    0 -0.76656907006E+01 -0.25781847049E+02 -0.30859564648E+02  0.13161795957E+03  0.12509000000E+03 0.  0.
         25    1    3    3    0    0  0.61485589195E+02  0.84527359246E+02 -0.10676430359E+03  0.19486271260E+03  0.12509000000E+03 0.  0.
<mgrwt>
<rscale>  2 0.45264112E+03</rscale>
<asrwt>0</asrwt>
<pdfrwt beam="1">  1       21 0.18510629E-01 0.45264112E+03</pdfrwt>
<pdfrwt beam="2">  1       21 0.59842399E-01 0.45264112E+03</pdfrwt>
<totfact> 0.64208050E+04</totfact>
</mgrwt>
</event>
<event>
 6    0  0.3472812E-005  0.4599949E+03  0.7546771E-02  0.1024783E+00
         21   -1    0    0  502  501  0.00000000000E+00  0.00000000000E+00  0.85434347649E+03  0.85434347649E+03  0.00000000000E+00 0. -1.
         21   -1    0    0  501  502 -0.00000000000E+00 -0.00000000000E+00 -0.61917515540E+02  0.61917515540E+02  0.00000000000E+00 0. -1.
      99926    2    1    2    0    0 -0.35527136788E-14  0.00000000000E+00  0.79242596095E+03  0.91626099203E+03  0.45999489337E+03 0.  0.
         25    1    3    3    0    0  0.31443692881E+02  0.10471432979E+03  0.17691612125E+03  0.24269449673E+03  0.12509000000E+03 0.  0.
         25    1    3    3    0    0 -0.23102856334E+02 -0.53861660480E+02  0.32174619955E+03  0.35014703407E+03  0.12509000000E+03 0.  0.
         25    1    3    3    0    0 -0.83408365473E+01 -0.50852669310E+02  0.29376364014E+03  0.32341946123E+03  0.12509000000E+03 0.  0.
<mgrwt>
<rscale>  2 0.45999489E+03</rscale>
<asrwt>0</asrwt>
<pdfrwt beam="1">  1       21 0.12563874E+00 0.45999489E+03</pdfrwt>
<pdfrwt beam="2">  1       21 0.91055175E-02 0.45999489E+03</pdfrwt>
<totfact> 0.40914856E+04</totfact>
</mgrwt>
</event>
<event>
 6    0  0.3472812E-005  0.4438088E+03  0.7546771E-02  0.1029585E+00
         21   -1    0    0  502  501  0.00000000000E+00  0.00000000000E+00  0.43261904399E+02  0.43261904399E+02  0.00000000000E+00 0. -1.
         21   -1    0    0  501  502 -0.00000000000E+00 -0.00000000000E+00 -0.11382199590E+04  0.11382199590E+04  0.00000000000E+00 0. -1.
      99926    2    1    2    0    0  0.00000000000E+00  0.00000000000E+00 -0.10949580546E+04  0.11814818634E+04  0.44380880140E+03 0.  0.
         25    1    3    3    0    0 -0.39479902144E+02 -0.90091618410E+02 -0.30325260813E+03  0.34246870633E+03  0.12509000000E+03 0.  0.
         25    1    3    3    0    0  0.25177793710E+01  0.50407078673E+02 -0.48421444608E+03  0.50265132118E+03  0.12509000000E+03 0.  0.
         25    1    3    3    0    0  0.36962122773E+02  0.39684539737E+02 -0.30749100035E+03  0.33636183584E+03  0.12509000000E+03 0.  0.
<mgrwt>
<rscale>  2 0.44380880E+03</rscale>
<asrwt>0</asrwt>
<pdfrwt beam="1">  1       21 0.63620450E-02 0.44380880E+03</pdfrwt>
<pdfrwt beam="2">  1       21 0.16738528E+00 0.44380880E+03</pdfrwt>
<totfact> 0.35766794E+04</totfact>
</mgrwt>
</event>
<event>
 6    0  0.3472812E-005  0.4563184E+03  0.7546771E-02  0.1025854E+00
         21   -1    0    0  502  501  0.00000000000E+00  0.00000000000E+00  0.94256376367E+03  0.94256376367E+03  0.00000000000E+00 0. -1.
         21   -1    0    0  501  502 -0.00000000000E+00 -0.00000000000E+00 -0.55228752382E+02  0.55228752382E+02  0.00000000000E+00 0. -1.
      99926    2    1    2    0    0  0.00000000000E+00 -0.71054273576E-14  0.88733501128E+03  0.99779251605E+03  0.45631840072E+03 0.  0.
         25    1    3    3    0    0  0.49486775534E+02  0.59728900462E+02  0.34228082865E+03  0.37258577034E+03  0.12509000000E+03 0.  0.
         25    1    3    3    0    0 -0.36183728148E+02 -0.49400800849E+02  0.43830119604E+03  0.45989688829E+03  0.12509000000E+03 0.  0.
         25    1    3    3    0    0 -0.13303047387E+02 -0.10328099613E+02  0.10675298659E+03  0.16530985741E+03  0.12509000000E+03 0.  0.
<mgrwt>
<rscale>  2 0.45631840E+03</rscale>
<asrwt>0</asrwt>
<pdfrwt beam="1">  1       21 0.13861231E+00 0.45631840E+03</pdfrwt>
<pdfrwt beam="2">  1       21 0.81218759E-02 0.45631840E+03</pdfrwt>
<totfact> 0.38851183E+04</totfact>
</mgrwt>
</event>
<event>
 6    0  0.3472812E-005  0.4542429E+03  0.7546771E-02  0.1026464E+00
         21   -1    0    0  502  501  0.00000000000E+00  0.00000000000E+00  0.19099212706E+03  0.19099212706E+03  0.00000000000E+00 0.  1.
         21   -1    0    0  501  502 -0.00000000000E+00 -0.00000000000E+00 -0.27008523844E+03  0.27008523844E+03  0.00000000000E+00 0.  1.
      99926    2    1    2    0    0 -0.71054273576E-14 -0.53290705182E-14 -0.79093111378E+02  0.46107736551E+03  0.45424290497E+03 0.  0.
         25    1    3    3    0    0  0.24652486656E+02  0.84711762654E+02 -0.52829539122E+02  0.16193299890E+03  0.12509000000E+03 0.  0.
         25    1    3    3    0    0 -0.64908008839E+02 -0.71871467525E+02 -0.48033948537E+02  0.16532793402E+03  0.12509000000E+03 0.  0.
         25    1    3    3    0    0  0.40255522183E+02 -0.12840295129E+02  0.21770376281E+02  0.13381643258E+03  0.12509000000E+03 0.  0.
<mgrwt>
<rscale>  2 0.45424290E+03</rscale>
<asrwt>0</asrwt>
<pdfrwt beam="1">  1       21 0.28087077E-01 0.45424290E+03</pdfrwt>
<pdfrwt beam="2">  1       21 0.39718418E-01 0.45424290E+03</pdfrwt>
<totfact> 0.68513692E+04</totfact>
</mgrwt>
</event>
<event>
 6    0  0.3472812E-005  0.4445263E+03  0.7546771E-02  0.1029367E+00
         21   -1    0    0  502  501  0.00000000000E+00  0.00000000000E+00  0.36376644647E+03  0.36376644647E+03  0.00000000000E+00 0.  1.
         21   -1    0    0  501  502 -0.00000000000E+00 -0.00000000000E+00 -0.13580390680E+03  0.13580390680E+03  0.00000000000E+00 0.  1.
      99926    2    1    2    0    0  0.35527136788E-14 -0.71054273576E-14  0.22796253968E+03  0.49957035327E+03  0.44452628535E+03 0.  0.
         25    1    3    3    0    0  0.43225988940E+02  0.39393871068E+01  0.29985145869E+01  0.13244056811E+03  0.12509000000E+03 0.  0.
         25    1    3    3    0    0 -0.27742402215E+02  0.33530702095E+02  0.18903166793E+03  0.23081253961E+03  0.12509000000E+03 0.  0.
         25    1    3    3    0    0 -0.15483586725E+02 -0.37470089202E+02  0.35932357164E+02  0.13631724555E+03  0.12509000000E+03 0.  0.
<mgrwt>
<rscale>  2 0.44452629E+03</rscale>
<asrwt>0</asrwt>
<pdfrwt beam="1">  1       21 0.53495066E-01 0.44452629E+03</pdfrwt>
<pdfrwt beam="2">  1       21 0.19971163E-01 0.44452629E+03</pdfrwt>
<totfact> 0.71024069E+04</totfact>
</mgrwt>
</event>
<event>
 6    0  0.3472812E-005  0.4501950E+03  0.7546771E-02  0.1027664E+00
         21   -1    0    0  502  501  0.00000000000E+00  0.00000000000E+00  0.59859656799E+02  0.59859656799E+02  0.00000000000E+00 0. -1.
         21   -1    0    0  501  502 -0.00000000000E+00 -0.00000000000E+00 -0.84646123994E+03  0.84646123994E+03  0.00000000000E+00 0. -1.
      99926    2    1    2    0    0  0.00000000000E+00  0.00000000000E+00 -0.78660158314E+03  0.90632089674E+03  0.45019497694E+03 0.  0.
         25    1    3    3    0    0 -0.88875241695E+02  0.35156161976E+02 -0.35799426432E+03  0.39107820918E+03  0.12509000000E+03 0.  0.
         25    1    3    3    0    0  0.27076247787E+02  0.76248062284E+01 -0.27469679266E+03  0.30314533950E+03  0.12509000000E+03 0.  0.
         25    1    3    3    0    0  0.61798993908E+02 -0.42780968204E+02 -0.15391052616E+03  0.21209734805E+03  0.12509000000E+03 0.  0.
<mgrwt>
<rscale>  2 0.45019498E+03</rscale>
<asrwt>0</asrwt>
<pdfrwt beam="1">  1       21 0.88028914E-02 0.45019498E+03</pdfrwt>
<pdfrwt beam="2">  1       21 0.12447958E+00 0.45019498E+03</pdfrwt>
<totfact> 0.44615841E+04</totfact>
</mgrwt>
</event>
<event>
 6    0  0.3472812E-005  0.4483910E+03  0.7546771E-02  0.1028203E+00
         21   -1    0    0  502  501  0.00000000000E+00  0.00000000000E+00  0.64919669748E+03  0.64919669748E+03  0.00000000000E+00 0.  1.
         21   -1    0    0  501  502 -0.00000000000E+00 -0.00000000000E+00 -0.77424319325E+02  0.77424319325E+02  0.00000000000E+00 0.  1.
      99926    2    1    2    0    0  0.00000000000E+00  0.71054273576E-14  0.57177237816E+03  0.72662101681E+03  0.44839095624E+03 0.  0.
         25    1    3    3    0    0  0.52247717669E+02  0.86888183982E+02  0.24602553316E+03  0.29403307907E+03  0.12509000000E+03 0.  0.
         25    1    3    3    0    0  0.12498135770E+02 -0.25790680452E+02  0.11856612854E+03  0.17471919624E+03  0.12509000000E+03 0.  0.
         25    1    3    3    0    0 -0.64745853440E+02 -0.61097503530E+02  0.20718071645E+03  0.25786874150E+03  0.12509000000E+03 0.  0.
<mgrwt>
<rscale>  2 0.44839096E+03</rscale>
<asrwt>0</asrwt>
<pdfrwt beam="1">  1       21 0.95470100E-01 0.44839096E+03</pdfrwt>
<pdfrwt beam="2">  1       21 0.11385930E-01 0.44839096E+03</pdfrwt>
<totfact> 0.54246289E+04</totfact>
</mgrwt>
</event>
<event>
 6    0  0.3472812E-005  0.4911033E+03  0.7546771E-02  0.1016128E+00
         21   -1    0    0  502  501  0.00000000000E+00  0.00000000000E+00  0.71360207355E+03  0.71360207355E+03  0.00000000000E+00 0. -1.
         21   -1    0    0  501  502 -0.00000000000E+00 -0.00000000000E+00 -0.84494716653E+02  0.84494716653E+02  0.00000000000E+00 0. -1.
      99926    2    1    2    0    0  0.00000000000E+00  0.00000000000E+00  0.62910735690E+03  0.79809679021E+03  0.49110326819E+03 0.  0.
         25    1    3    3    0    0 -0.23843397973E+02  0.37549154626E+02  0.36672956837E+03  0.39002119309E+03  0.12509000000E+03 0.  0.
         25    1    3    3    0    0 -0.46703904765E+02  0.51202895777E+02  0.13412344546E+03  0.19606018968E+03  0.12509000000E+03 0.  0.
         25    1    3    3    0    0  0.70547302738E+02 -0.88752050403E+02  0.12825434307E+03  0.21201540744E+03  0.12509000000E+03 0.  0.
<mgrwt>
<rscale>  2 0.49110327E+03</rscale>
<asrwt>0</asrwt>
<pdfrwt beam="1">  1       21 0.10494148E+00 0.49110327E+03</pdfrwt>
<pdfrwt beam="2">  1       21 0.12425694E-01 0.49110327E+03</pdfrwt>
<totfact> 0.36395964E+04</totfact>
</mgrwt>
</event>
<event>
 6    0  0.3472812E-005  0.4557342E+03  0.7546771E-02  0.1026026E+00
         21   -1    0    0  502  501  0.00000000000E+00  0.00000000000E+00  0.26327459589E+02  0.26327459589E+02  0.00000000000E+00 0.  1.
         21   -1    0    0  501  502 -0.00000000000E+00 -0.00000000000E+00 -0.19722154894E+04  0.19722154894E+04  0.00000000000E+00 0.  1.
      99926    2    1    2    0    0  0.00000000000E+00 -0.71054273576E-14 -0.19458880299E+04  0.19985429490E+04  0.45573423658E+03 0.  0.
         25    1    3    3    0    0 -0.23714910553E+01  0.28174256989E+02 -0.35481018029E+03  0.37727600621E+03  0.12509000000E+03 0.  0.
         25    1    3    3    0    0 -0.75792674554E+02  0.35691004828E+02 -0.79249379776E+03  0.80666740664E+03  0.12509000000E+03 0.  0.
         25    1    3    3    0    0  0.78164165609E+02 -0.63865261816E+02 -0.79858405181E+03  0.81459953618E+03  0.12509000000E+03 0.  0.
<mgrwt>
<rscale>  2 0.45573424E+03</rscale>
<asrwt>0</asrwt>
<pdfrwt beam="1">  1       21 0.38716864E-02 0.45573424E+03</pdfrwt>
<pdfrwt beam="2">  1       21 0.29003160E+00 0.45573424E+03</pdfrwt>
<totfact> 0.13655487E+04</totfact>
</mgrwt>
</event>
<event>
 6    0  0.3472812E-005  0.4659577E+03  0.7546771E-02  0.1023067E+00
         21   -1    0    0  502  501  0.00000000000E+00  0.00000000000E+00  0.54959165250E+02  0.54959165250E+02  0.00000000000E+00 0. -1.
         21   -1    0    0  501  502 -0.00000000000E+00 -0.00000000000E+00 -0.98762664666E+03  0.98762664666E+03  0.00000000000E+00 0. -1.
      99926    2    1    2    0    0  0.17763568394E-14  0.71054273576E-14 -0.93266748141E+03  0.10425858119E+04  0.46595766365E+03 0.  0.
         25    1    3    3    0    0 -0.19060658578E+02  0.10447428438E+03 -0.44562006756E+03  0.47487149579E+03  0.12509000000E+03 0.  0.
         25    1    3    3    0    0  0.65167443339E+01 -0.13518667453E+01 -0.25820076875E+03  0.28698334548E+03  0.12509000000E+03 0.  0.
         25    1    3    3    0    0  0.12543914244E+02 -0.10312241763E+03 -0.22884664510E+03  0.28073097064E+03  0.12509000000E+03 0.  0.
<mgrwt>
<rscale>  2 0.46595766E+03</rscale>
<asrwt>0</asrwt>
<pdfrwt beam="1">  1       21 0.80822306E-02 0.46595766E+03</pdfrwt>
<pdfrwt beam="2">  1       21 0.14523920E+00 0.46595766E+03</pdfrwt>
<totfact> 0.34503511E+04</totfact>
</mgrwt>
</event>
<event>
 6    0  0.3472812E-005  0.4553216E+03  0.7546771E-02  0.1026147E+00
         21   -1    0    0  502  501  0.00000000000E+00  0.00000000000E+00  0.10651260164E+03  0.10651260164E+03  0.00000000000E+00 0. -1.
         21   -1    0    0  501  502 -0.00000000000E+00 -0.00000000000E+00 -0.48660391191E+03  0.48660391191E+03  0.00000000000E+00 0. -1.
      99926    2    1    2    0    0 -0.17763568394E-14  0.71054273576E-14 -0.38009131027E+03  0.59311651355E+03  0.45532163853E+03 0.  0.
         25    1    3    3    0    0  0.14033837779E+02 -0.35389019634E+02 -0.21974872433E+03  0.25570753070E+03  0.12509000000E+03 0.  0.
         25    1    3    3    0    0 -0.46860054949E+02 -0.48180489814E+02 -0.90033191723E+02  0.16813895462E+03  0.12509000000E+03 0.  0.
         25    1    3    3    0    0  0.32826217170E+02  0.83569509448E+02 -0.70309394215E+02  0.16927002823E+03  0.12509000000E+03 0.  0.
<mgrwt>
<rscale>  2 0.45532164E+03</rscale>
<asrwt>0</asrwt>
<pdfrwt beam="1">  1       21 0.15663618E-01 0.45532164E+03</pdfrwt>
<pdfrwt beam="2">  1       21 0.71559397E-01 0.45532164E+03</pdfrwt>
<totfact> 0.58953980E+04</totfact>
</mgrwt>
</event>
<event>
 6    0  0.3472812E-005  0.5343706E+03  0.7546771E-02  0.1005178E+00
         21   -1    0    0  502  501  0.00000000000E+00  0.00000000000E+00  0.28280776183E+03  0.28280776183E+03  0.00000000000E+00 0.  1.
         21   -1    0    0  501  502 -0.00000000000E+00 -0.00000000000E+00 -0.25242586471E+03  0.25242586471E+03  0.00000000000E+00 0.  1.
      99926    2    1    2    0    0 -0.71054273576E-14  0.00000000000E+00  0.30381897120E+02  0.53523362654E+03  0.53437063478E+03 0.  0.
         25    1    3    3    0    0 -0.42565283932E+02  0.10075481224E+03  0.33227724123E+02  0.16945478847E+03  0.12509000000E+03 0.  0.
         25    1    3    3    0    0 -0.85290388337E+02 -0.36400606959E+02  0.58027722570E+02  0.16617514620E+03  0.12509000000E+03 0.  0.
         25    1    3    3    0    0  0.12785567227E+03 -0.64354205282E+02 -0.60873549572E+02  0.19960369187E+03  0.12509000000E+03 0.  0.
<mgrwt>
<rscale>  2 0.53437063E+03</rscale>
<asrwt>0</asrwt>
<pdfrwt beam="1">  1       21 0.41589377E-01 0.53437063E+03</pdfrwt>
<pdfrwt beam="2">  1       21 0.37121451E-01 0.53437063E+03</pdfrwt>
<totfact> 0.35018057E+04</totfact>
</mgrwt>
</event>
<event>
 6    0  0.3472812E-005  0.4507187E+03  0.7546771E-02  0.1027508E+00
         21   -1    0    0  502  501  0.00000000000E+00  0.00000000000E+00  0.18418677003E+04  0.18418677003E+04  0.00000000000E+00 0. -1.
         21   -1    0    0  501  502 -0.00000000000E+00 -0.00000000000E+00 -0.27573548112E+02  0.27573548112E+02  0.00000000000E+00 0. -1.
      99926    2    1    2    0    0  0.35527136788E-14  0.00000000000E+00  0.18142941522E+04  0.18694412484E+04  0.45071866014E+03 0.  0.
         25    1    3    3    0    0 -0.31556203026E+02 -0.10227282523E+02  0.23177546757E+03  0.26545765524E+03  0.12509000000E+03 0.  0.
         25    1    3    3    0    0  0.35899342339E+02  0.27643973595E+02  0.70950977786E+03  0.72187574072E+03  0.12509000000E+03 0.  0.
         25    1    3    3    0    0 -0.43431393136E+01 -0.17416691072E+02  0.87300890675E+03  0.88210785245E+03  0.12509000000E+03 0.  0.
<mgrwt>
<rscale>  2 0.45071866E+03</rscale>
<asrwt>0</asrwt>
<pdfrwt beam="1">  1       21 0.27086281E+00 0.45071866E+03</pdfrwt>
<pdfrwt beam="2">  1       21 0.40549348E-02 0.45071866E+03</pdfrwt>
<totfact> 0.16502326E+04</totfact>
</mgrwt>
</event>
<event>
 6    0  0.3472812E-005  0.4484844E+03  0.7546771E-02  0.1028175E+00
         21   -1    0    0  502  501  0.00000000000E+00  0.00000000000E+00  0.12957710427E+03  0.12957710427E+03  0.00000000000E+00 0. -1.
         21   -1    0    0  501  502 -0.00000000000E+00 -0.00000000000E+00 -0.38806668315E+03  0.38806668315E+03  0.00000000000E+00 0. -1.
      99926    2    1    2    0    0 -0.71054273576E-14  0.00000000000E+00 -0.25848957888E+03  0.51764378742E+03  0.44848436792E+03 0.  0.
         25    1    3    3    0    0 -0.38645328366E+02  0.91567941034E+02 -0.12210204473E+03  0.20108348181E+03  0.12509000000E+03 0.  0.
         25    1    3    3    0    0  0.54368697714E+02 -0.75591494215E+02 -0.53622642086E+02  0.16490277479E+03  0.12509000000E+03 0.  0.
         25    1    3    3    0    0 -0.15723369348E+02 -0.15976446819E+02 -0.82764892064E+02  0.15165753082E+03  0.12509000000E+03 0.  0.
<mgrwt>
<rscale>  2 0.44848437E+03</rscale>
<asrwt>0</asrwt>
<pdfrwt beam="1">  1       21 0.19055456E-01 0.44848437E+03</pdfrwt>
<pdfrwt beam="2">  1       21 0.57068630E-01 0.44848437E+03</pdfrwt>
<totfact> 0.67468704E+04</totfact>
</mgrwt>
</event>
<event>
 6    0  0.3472812E-005  0.4517783E+03  0.7546771E-02  0.1027193E+00
         21   -1    0    0  502  501  0.00000000000E+00  0.00000000000E+00  0.13311790405E+03  0.13311790405E+03  0.00000000000E+00 0.  1.
         21   -1    0    0  501  502 -0.00000000000E+00 -0.00000000000E+00 -0.38331355872E+03  0.38331355872E+03  0.00000000000E+00 0.  1.
      99926    2    1    2    0    0 -0.35527136788E-14 -0.53290705182E-14 -0.25019565467E+03  0.51643146276E+03  0.45177825326E+03 0.  0.
         25    1    3    3    0    0  0.18454595130E+02  0.37160315750E+02 -0.47492505231E+02  0.14008749873E+03  0.12509000000E+03 0.  0.
         25    1    3    3    0    0  0.59840226626E+01 -0.52586727394E+02 -0.20734820230E+03  0.24787488280E+03  0.12509000000E+03 0.  0.
         25    1    3    3    0    0 -0.24438617793E+02  0.15426411645E+02  0.46450528625E+01  0.12846908123E+03  0.12509000000E+03 0.  0.
<mgrwt>
<rscale>  2 0.45177825E+03</rscale>
<asrwt>0</asrwt>
<pdfrwt beam="1">  1       21 0.19576162E-01 0.45177825E+03</pdfrwt>
<pdfrwt beam="2">  1       21 0.56369641E-01 0.45177825E+03</pdfrwt>
<totfact> 0.65796936E+04</totfact>
</mgrwt>
</event>
<event>
 6    0  0.3472812E-005  0.4503593E+03  0.7546771E-02  0.1027615E+00
         21   -1    0    0  502  501  0.00000000000E+00  0.00000000000E+00  0.73983619550E+02  0.73983619550E+02  0.00000000000E+00 0.  1.
         21   -1    0    0  501  502 -0.00000000000E+00 -0.00000000000E+00 -0.68536633908E+03  0.68536633908E+03  0.00000000000E+00 0.  1.
      99926    2    1    2    0    0  0.14210854715E-13  0.17763568394E-14 -0.61138271953E+03  0.75934995863E+03  0.45035933423E+03 0.  0.
         25    1    3    3    0    0  0.92958083509E+02  0.31655790316E+01 -0.11740097744E+03  0.19514539140E+03  0.12509000000E+03 0.  0.
         25    1    3    3    0    0 -0.48367755150E+02  0.23444118994E+02 -0.27186634617E+03  0.30405243748E+03  0.12509000000E+03 0.  0.
         25    1    3    3    0    0 -0.44590328359E+02 -0.26609698025E+02 -0.22211539592E+03  0.26015212976E+03  0.12509000000E+03 0.  0.
<mgrwt>
<rscale>  2 0.45035933E+03</rscale>
<asrwt>0</asrwt>
<pdfrwt beam="1">  1       21 0.10879944E-01 0.45035933E+03</pdfrwt>
<pdfrwt beam="2">  1       21 0.10078917E+00 0.45035933E+03</pdfrwt>
<totfact> 0.51649705E+04</totfact>
</mgrwt>
</event>
<event>
 6    0  0.3472812E-005  0.4557040E+03  0.7546771E-02  0.1026035E+00
         21   -1    0    0  502  501  0.00000000000E+00  0.00000000000E+00  0.36414306748E+03  0.36414306748E+03  0.00000000000E+00 0.  1.
         21   -1    0    0  501  502 -0.00000000000E+00 -0.00000000000E+00 -0.14257179567E+03  0.14257179567E+03  0.00000000000E+00 0.  1.
      99926    2    1    2    0    0 -0.71054273576E-14  0.17763568394E-14  0.22157127181E+03  0.50671486315E+03  0.45570398731E+03 0.  0.
         25    1    3    3    0    0 -0.53246058593E+02  0.51622253880E+02 -0.49984157846E+01  0.14550770465E+03  0.12509000000E+03 0.  0.
         25    1    3    3    0    0  0.15333428861E+02 -0.59270409026E+02  0.16674517280E+03  0.21725458840E+03  0.12509000000E+03 0.  0.
         25    1    3    3    0    0  0.37912629732E+02  0.76481551460E+01  0.59824514795E+02  0.14395257011E+03  0.12509000000E+03 0.  0.
<mgrwt>
<rscale>  2 0.45570399E+03</rscale>
<asrwt>0</asrwt>
<pdfrwt beam="1">  1       21 0.53550451E-01 0.45570399E+03</pdfrwt>
<pdfrwt beam="2">  1       21 0.20966441E-01 0.45570399E+03</pdfrwt>
<totfact> 0.64440630E+04</totfact>
</mgrwt>
</event>
<event>
 6    0  0.3472812E-005  0.4537807E+03  0.7546771E-02  0.1026601E+00
         21   -1    0    0  502  501  0.00000000000E+00  0.00000000000E+00  0.10237423495E+03  0.10237423495E+03  0.00000000000E+00 0.  1.
         21   -1    0    0  501  502 -0.00000000000E+00 -0.00000000000E+00 -0.50285338199E+03  0.50285338199E+03  0.00000000000E+00 0.  1.
      99926    2    1    2    0    0  0.13322676296E-14  0.35527136788E-14 -0.40047914704E+03  0.60522761694E+03  0.45378069714E+03 0.  0.
         25    1    3    3    0    0 -0.19486968192E+02 -0.34870151794E+02 -0.11592375410E+03  0.17516133786E+03  0.12509000000E+03 0.  0.
         25    1    3    3    0    0  0.17775056280E+01  0.18912821984E+02 -0.27458780391E+03  0.30233561570E+03  0.12509000000E+03 0.  0.
         25    1    3    3    0    0  0.17709462564E+02  0.15957329810E+02 -0.99675890270E+01  0.12773066339E+03  0.12509000000E+03 0.  0.
<mgrwt>
<rscale>  2 0.45378070E+03</rscale>
<asrwt>0</asrwt>
<pdfrwt beam="1">  1       21 0.15055035E-01 0.45378070E+03</pdfrwt>
<pdfrwt beam="2">  1       21 0.73949026E-01 0.45378070E+03</pdfrwt>
<totfact> 0.58923173E+04</totfact>
</mgrwt>
</event>
<event>
 6    0  0.3472812E-005  0.5069556E+03  0.7546771E-02  0.1011979E+00
         21   -1    0    0  502  501  0.00000000000E+00  0.00000000000E+00  0.10990677122E+03  0.10990677122E+03  0.00000000000E+00 0.  1.
         21   -1    0    0  501  502 -0.00000000000E+00 -0.00000000000E+00 -0.58459541881E+03  0.58459541881E+03  0.00000000000E+00 0.  1.
      99926    2    1    2    0    0 -0.14210854715E-13  0.00000000000E+00 -0.47468864760E+03  0.69450219003E+03  0.50695559943E+03 0.  0.
         25    1    3    3    0    0  0.70160365162E+02  0.42466938028E+02 -0.24955405685E+03  0.29094785281E+03  0.12509000000E+03 0.  0.
         25    1    3    3    0    0 -0.12206261589E+03 -0.33488188393E+02 -0.19600141873E+03  0.26473534937E+03  0.12509000000E+03 0.  0.
         25    1    3    3    0    0  0.51902250733E+02 -0.89787496356E+01 -0.29133172021E+02  0.13881898785E+03  0.12509000000E+03 0.  0.
<mgrwt>
<rscale>  2 0.50695560E+03</rscale>
<asrwt>0</asrwt>
<pdfrwt beam="1">  1       21 0.16162760E-01 0.50695560E+03</pdfrwt>
<pdfrwt beam="2">  1       21 0.85969915E-01 0.50695560E+03</pdfrwt>
<totfact> 0.36028832E+04</totfact>
</mgrwt>
</event>
<event>
 6    0  0.3472812E-005  0.4617425E+03  0.7546771E-02  0.1024277E+00
         21   -1    0    0  502  501  0.00000000000E+00  0.00000000000E+00  0.28985142200E+03  0.28985142200E+03  0.00000000000E+00 0.  1.
         21   -1    0    0  501  502 -0.00000000000E+00 -0.00000000000E+00 -0.18389264421E+03  0.18389264421E+03  0.00000000000E+00 0.  1.
      99926    2    1    2    0    0  0.00000000000E+00 -0.26645352591E-14  0.10595877779E+03  0.47374406622E+03  0.46174254481E+03 0.  0.
         25    1    3    3    0    0 -0.99462716656E+02  0.41184749567E+02  0.91182011329E+00  0.16503743550E+03  0.12509000000E+03 0.  0.
         25    1    3    3    0    0  0.58498319853E+02 -0.34688902215E+02  0.36556275499E+01  0.14242978999E+03  0.12509000000E+03 0.  0.
         25    1    3    3    0    0  0.40964396803E+02 -0.64958473527E+01  0.10139133013E+03  0.16627684073E+03  0.12509000000E+03 0.  0.
<mgrwt>
<rscale>  2 0.46174254E+03</rscale>
<asrwt>0</asrwt>
<pdfrwt beam="1">  1       21 0.42625209E-01 0.46174254E+03</pdfrwt>
<pdfrwt beam="2">  1       21 0.27043036E-01 0.46174254E+03</pdfrwt>
<totfact> 0.63683430E+04</totfact>
</mgrwt>
</event>
<event>
 6    0  0.3472812E-005  0.3912016E+03  0.7546771E-02  0.1046870E+00
         21   -1    0    0  502  501  0.00000000000E+00  0.00000000000E+00  0.10188388314E+04  0.10188388314E+04  0.00000000000E+00 0. -1.
         21   -1    0    0  501  502 -0.00000000000E+00 -0.00000000000E+00 -0.37552228325E+02  0.37552228325E+02  0.00000000000E+00 0. -1.
      99926    2    1    2    0    0  0.00000000000E+00  0.00000000000E+00  0.98128660309E+03  0.10563910597E+04  0.39120157680E+03 0.  0.
         25    1    3    3    0    0 -0.96625489285E+01  0.24301366564E+02  0.32147066678E+03  0.34594048472E+03  0.12509000000E+03 0.  0.
         25    1    3    3    0    0 -0.31975644703E+02 -0.39500296452E+01  0.29638276842E+03  0.32330836380E+03  0.12509000000E+03 0.  0.
         25    1    3    3    0    0  0.41638193631E+02 -0.20351336919E+02  0.36343316789E+03  0.38714221122E+03  0.12509000000E+03 0.  0.
<mgrwt>
<rscale>  2 0.39120158E+03</rscale>
<asrwt>0</asrwt>
<pdfrwt beam="1">  1       21 0.14982922E+00 0.39120158E+03</pdfrwt>
<pdfrwt beam="2">  1       21 0.55223872E-02 0.39120158E+03</pdfrwt>
<totfact> 0.63071151E+04</totfact>
</mgrwt>
</event>
<event>
 6    0  0.3472812E-005  0.4411259E+03  0.7546771E-02  0.1030402E+00
         21   -1    0    0  502  501  0.00000000000E+00  0.00000000000E+00  0.89058364759E+03  0.89058364759E+03  0.00000000000E+00 0.  1.
         21   -1    0    0  501  502 -0.00000000000E+00 -0.00000000000E+00 -0.54624860366E+02  0.54624860366E+02  0.00000000000E+00 0.  1.
      99926    2    1    2    0    0  0.00000000000E+00 -0.71054273576E-14  0.83595878722E+03  0.94520850795E+03  0.44112586591E+03 0.  0.
         25    1    3    3    0    0  0.18482376759E+02  0.19367596277E+02  0.36842170220E+03  0.38999841126E+03  0.12509000000E+03 0.  0.
         25    1    3    3    0    0  0.41516366191E+02  0.53103231875E+02  0.20194326867E+03  0.24692540120E+03  0.12509000000E+03 0.  0.
         25    1    3    3    0    0 -0.59998742950E+02 -0.72470828152E+02  0.26559381636E+03  0.30828469550E+03  0.12509000000E+03 0.  0.
<mgrwt>
<rscale>  2 0.44112587E+03</rscale>
<asrwt>0</asrwt>
<pdfrwt beam="1">  1       21 0.13096817E+00 0.44112587E+03</pdfrwt>
<pdfrwt beam="2">  1       21 0.80330682E-02 0.44112587E+03</pdfrwt>
<totfact> 0.46141930E+04</totfact>
</mgrwt>
</event>
<event>
 6    0  0.3472812E-005  0.4948467E+03  0.7546771E-02  0.1015133E+00
         21   -1    0    0  502  501  0.00000000000E+00  0.00000000000E+00  0.15071661617E+03  0.15071661617E+03  0.00000000000E+00 0.  1.
         21   -1    0    0  501  502 -0.00000000000E+00 -0.00000000000E+00 -0.40618151257E+03  0.40618151257E+03  0.00000000000E+00 0.  1.
      99926    2    1    2    0    0 -0.35527136788E-14 -0.53290705182E-14 -0.25546489640E+03  0.55689812874E+03  0.49484665555E+03 0.  0.
         25    1    3    3    0    0 -0.57806303165E+02 -0.41703508630E+02  0.30540255810E+02  0.14717665115E+03  0.12509000000E+03 0.  0.
         25    1    3    3    0    0  0.22262619348E+02  0.87714829718E+01 -0.23289582152E+03  0.26544403349E+03  0.12509000000E+03 0.  0.
         25    1    3    3    0    0  0.35543683817E+02  0.32932025658E+02 -0.53109330690E+02  0.14427744411E+03  0.12509000000E+03 0.  0.
<mgrwt>
<rscale>  2 0.49484666E+03</rscale>
<asrwt>0</asrwt>
<pdfrwt beam="1">  1       21 0.22164209E-01 0.49484666E+03</pdfrwt>
<pdfrwt beam="2">  1       21 0.59732574E-01 0.49484666E+03</pdfrwt>
<totfact> 0.45325477E+04</totfact>
</mgrwt>
</event>
<event>
 6    0  0.3472812E-005  0.4396418E+03  0.7546771E-02  0.1030857E+00
         21   -1    0    0  502  501  0.00000000000E+00  0.00000000000E+00  0.59357106583E+03  0.59357106583E+03  0.00000000000E+00 0. -1.
         21   -1    0    0  501  502 -0.00000000000E+00 -0.00000000000E+00 -0.81407671904E+02  0.81407671904E+02  0.00000000000E+00 0. -1.
      99926    2    1    2    0    0 -0.35527136788E-14  0.44408920985E-15  0.51216339392E+03  0.67497873773E+03  0.43964184777E+03 0.  0.
         25    1    3    3    0    0 -0.84848327443E+02 -0.43106569483E+02  0.19010157034E+03  0.24666481336E+03  0.12509000000E+03 0.  0.
         25    1    3    3    0    0  0.67889251786E+02  0.39792960256E+02  0.22433381749E+03  0.26863655739E+03  0.12509000000E+03 0.  0.
         25    1    3    3    0    0  0.16959075657E+02  0.33136092264E+01  0.97728006087E+02  0.15967736698E+03  0.12509000000E+03 0.  0.
<mgrwt>
<rscale>  2 0.43964185E+03</rscale>
<asrwt>0</asrwt>
<pdfrwt beam="1">  1       21 0.87289860E-01 0.43964185E+03</pdfrwt>
<pdfrwt beam="2">  1       21 0.11971717E-01 0.43964185E+03</pdfrwt>
<totfact> 0.61376416E+04</totfact>
</mgrwt>
</event>
<event>
 6    0  0.3472812E-005  0.4517006E+03  0.7546771E-02  0.1027216E+00
         21   -1    0    0  502  501  0.00000000000E+00  0.00000000000E+00  0.51623380166E+03  0.51623380166E+03  0.00000000000E+00 0. -1.
         21   -1    0    0  501  502 -0.00000000000E+00 -0.00000000000E+00 -0.98808650771E+02  0.98808650771E+02  0.00000000000E+00 0. -1.
      99926    2    1    2    0    0 -0.17763568394E-14 -0.14210854715E-13  0.41742515089E+03  0.61504245243E+03  0.45170063283E+03 0.  0.
         25    1    3    3    0    0 -0.41601656647E+01 -0.87405484634E+02  0.13712616629E+03  0.20520262986E+03  0.12509000000E+03 0.  0.
         25    1    3    3    0    0 -0.11031705215E+02 -0.18545375452E+02  0.77882991085E+02  0.14892581331E+03  0.12509000000E+03 0.  0.
         25    1    3    3    0    0  0.15191870880E+02  0.10595086009E+03  0.20241599352E+03  0.26091400926E+03  0.12509000000E+03 0.  0.
<mgrwt>
<rscale>  2 0.45170063E+03</rscale>
<asrwt>0</asrwt>
<pdfrwt beam="1">  1       21 0.75916734E-01 0.45170063E+03</pdfrwt>
<pdfrwt beam="2">  1       21 0.14530684E-01 0.45170063E+03</pdfrwt>
<totfact> 0.59291717E+04</totfact>
</mgrwt>
</event>
<event>
 6    0  0.3472812E-005  0.4839254E+03  0.7546771E-02  0.1018062E+00
         21   -1    0    0  502  501  0.00000000000E+00  0.00000000000E+00  0.55260173814E+02  0.55260173814E+02  0.00000000000E+00 0.  1.
         21   -1    0    0  501  502 -0.00000000000E+00 -0.00000000000E+00 -0.10594601832E+04  0.10594601832E+04  0.00000000000E+00 0.  1.
      99926    2    1    2    0    0  0.00000000000E+00  0.00000000000E+00 -0.10042000094E+04  0.11147203571E+04  0.48392542349E+03 0.  0.
         25    1    3    3    0    0 -0.21121905014E+02 -0.40923429856E+02 -0.26165393937E+03  0.29365141592E+03  0.12509000000E+03 0.  0.
         25    1    3    3    0    0 -0.10824709800E+03  0.39427669462E+02 -0.34167173132E+03  0.38165305635E+03  0.12509000000E+03 0.  0.
         25    1    3    3    0    0  0.12936900301E+03  0.14957603940E+01 -0.40087433874E+03  0.43941588478E+03  0.12509000000E+03 0.  0.
<mgrwt>
<rscale>  2 0.48392542E+03</rscale>
<asrwt>0</asrwt>
<pdfrwt beam="1">  1       21 0.81264956E-02 0.48392542E+03</pdfrwt>
<pdfrwt beam="2">  1       21 0.15580298E+00 0.48392542E+03</pdfrwt>
<totfact> 0.28091577E+04</totfact>
</mgrwt>
</event>
<event>
 6    0  0.3472812E-005  0.4601229E+03  0.7546771E-02  0.1024746E+00
         21   -1    0    0  502  501  0.00000000000E+00  0.00000000000E+00  0.10330071525E+04  0.10330071525E+04  0.00000000000E+00 0.  1.
         21   -1    0    0  501  502 -0.00000000000E+00 -0.00000000000E+00 -0.51237090526E+02  0.51237090526E+02  0.00000000000E+00 0.  1.
      99926    2    1    2    0    0  0.00000000000E+00  0.00000000000E+00  0.98177006202E+03  0.10842442431E+04  0.46012294439E+03 0.  0.
         25    1    3    3    0    0  0.73281784097E+02 -0.60624831317E+01  0.43580977361E+03  0.45933064393E+03  0.12509000000E+03 0.  0.
         25    1    3    3    0    0 -0.76709045049E+02  0.52070982798E+02  0.38879936073E+03  0.41881752094E+03  0.12509000000E+03 0.  0.
         25    1    3    3    0    0  0.34272609522E+01 -0.46008499666E+02  0.15716092767E+03  0.20609607819E+03  0.12509000000E+03 0.  0.
<mgrwt>
<rscale>  2 0.46012294E+03</rscale>
<asrwt>0</asrwt>
<pdfrwt beam="1">  1       21 0.15191280E+00 0.46012294E+03</pdfrwt>
<pdfrwt beam="2">  1       21 0.75348669E-02 0.46012294E+03</pdfrwt>
<totfact> 0.34639919E+04</totfact>
</mgrwt>
</event>
<event>
 6    0  0.3472812E-005  0.4506105E+03  0.7546771E-02  0.1027540E+00
         21   -1    0    0  502  501  0.00000000000E+00  0.00000000000E+00  0.85798522568E+02  0.85798522568E+02  0.00000000000E+00 0.  1.
         21   -1    0    0  501  502 -0.00000000000E+00 -0.00000000000E+00 -0.59164724314E+03  0.59164724314E+03  0.00000000000E+00 0.  1.
      99926    2    1    2    0    0  0.00000000000E+00  0.00000000000E+00 -0.50584872057E+03  0.67744576570E+03  0.45061051627E+03 0.  0.
         25    1    3    3    0    0 -0.57043228346E+02  0.57370131313E+02 -0.12166601611E+03  0.19234185567E+03  0.12509000000E+03 0.  0.
         25    1    3    3    0    0 -0.35285936197E+02 -0.25258933872E+02 -0.21963798676E+03  0.25645947898E+03  0.12509000000E+03 0.  0.
         25    1    3    3    0    0  0.92329164543E+02 -0.32111197441E+02 -0.16454471770E+03  0.22864443105E+03  0.12509000000E+03 0.  0.
<mgrwt>
<rscale>  2 0.45061052E+03</rscale>
<asrwt>0</asrwt>
<pdfrwt beam="1">  1       21 0.12617430E-01 0.45061052E+03</pdfrwt>
<pdfrwt beam="2">  1       21 0.87006944E-01 0.45061052E+03</pdfrwt>
<totfact> 0.56057938E+04</totfact>
</mgrwt>
</event>
<event>
 6    0  0.3472812E-005  0.5188434E+03  0.7546771E-02  0.1008974E+00
         21   -1    0    0  502  501  0.00000000000E+00  0.00000000000E+00  0.14848962123E+03  0.14848962123E+03  0.00000000000E+00 0.  1.
         21   -1    0    0  501  502 -0.00000000000E+00 -0.00000000000E+00 -0.45322771874E+03  0.45322771874E+03  0.00000000000E+00 0.  1.
      99926    2    1    2    0    0  0.00000000000E+00  0.00000000000E+00 -0.30473809751E+03  0.60171733997E+03  0.51884337632E+03 0.  0.
         25    1    3    3    0    0  0.63875385307E+02  0.40206397712E+02 -0.71574414207E+02  0.16268688987E+03  0.12509000000E+03 0.  0.
         25    1    3    3    0    0 -0.11429036220E+03  0.42297224562E+02 -0.21927263291E+03  0.28032006304E+03  0.12509000000E+03 0.  0.
         25    1    3    3    0    0  0.50414976890E+02 -0.82503622274E+02 -0.13891050388E+02  0.15871038707E+03  0.12509000000E+03 0.  0.
<mgrwt>
<rscale>  2 0.51884338E+03</rscale>
<asrwt>0</asrwt>
<pdfrwt beam="1">  1       21 0.21836709E-01 0.51884338E+03</pdfrwt>
<pdfrwt beam="2">  1       21 0.66651135E-01 0.51884338E+03</pdfrwt>
<totfact> 0.36407113E+04</totfact>
</mgrwt>
</event>
<event>
 6    0  0.3472812E-005  0.4543202E+03  0.7546771E-02  0.1026441E+00
         21   -1    0    0  502  501  0.00000000000E+00  0.00000000000E+00  0.19880598498E+03  0.19880598498E+03  0.00000000000E+00 0.  1.
         21   -1    0    0  501  502 -0.00000000000E+00 -0.00000000000E+00 -0.25955815974E+03  0.25955815974E+03  0.00000000000E+00 0.  1.
      99926    2    1    2    0    0  0.00000000000E+00  0.00000000000E+00 -0.60752174763E+02  0.45836414472E+03  0.45432022014E+03 0.  0.
         25    1    3    3    0    0 -0.19763168484E+01 -0.32595182919E+02  0.37610699410E+02  0.13464183818E+03  0.12509000000E+03 0.  0.
         25    1    3    3    0    0  0.26907364685E+02  0.10150305057E+03 -0.47597088258E+02  0.17011721388E+03  0.12509000000E+03 0.  0.
         25    1    3    3    0    0 -0.24931047837E+02 -0.68907867651E+02 -0.50765785914E+02  0.15360509266E+03  0.12509000000E+03 0.  0.
<mgrwt>
<rscale>  2 0.45432022E+03</rscale>
<asrwt>0</asrwt>
<pdfrwt beam="1">  1       21 0.29236174E-01 0.45432022E+03</pdfrwt>
<pdfrwt beam="2">  1       21 0.38170317E-01 0.45432022E+03</pdfrwt>
<totfact> 0.68671467E+04</totfact>
</mgrwt>
</event>
<event>
 6    0  0.3472812E-005  0.4838274E+03  0.7546771E-02  0.1018089E+00
         21   -1    0    0  502  501  0.00000000000E+00  0.00000000000E+00  0.20870358436E+03  0.20870358436E+03  0.00000000000E+00 0. -1.
         21   -1    0    0  501  502 -0.00000000000E+00 -0.00000000000E+00 -0.28040844897E+03  0.28040844897E+03  0.00000000000E+00 0. -1.
      99926    2    1    2    0    0  0.00000000000E+00 -0.71054273576E-14 -0.71704864612E+02  0.48911203334E+03  0.48382744191E+03 0.  0.
         25    1    3    3    0    0  0.62702298446E+02  0.24764662266E+02  0.59631178522E+02  0.15410467962E+03  0.12509000000E+03 0.  0.
         25    1    3    3    0    0  0.16885186961E+02 -0.79628217137E+02 -0.76285255780E+02  0.16760880303E+03  0.12509000000E+03 0.  0.
         25    1    3    3    0    0 -0.79587485407E+02  0.54863554871E+02 -0.55050787354E+02  0.16739855069E+03  0.12509000000E+03 0.  0.
<mgrwt>
<rscale>  2 0.48382744E+03</rscale>
<asrwt>0</asrwt>
<pdfrwt beam="1">  1       21 0.30691704E-01 0.48382744E+03</pdfrwt>
<pdfrwt beam="2">  1       21 0.41236536E-01 0.48382744E+03</pdfrwt>
<totfact> 0.52863668E+04</totfact>
</mgrwt>
</event>
<event>
 6    0  0.3472812E-005  0.4595105E+03  0.7546771E-02  0.1024923E+00
         21   -1    0    0  502  501  0.00000000000E+00  0.00000000000E+00  0.33059871936E+03  0.33059871936E+03  0.00000000000E+00 0.  1.
         21   -1    0    0  501  502 -0.00000000000E+00 -0.00000000000E+00 -0.15967233211E+03  0.15967233211E+03  0.00000000000E+00 0.  1.
      99926    2    1    2    0    0  0.71054273576E-14  0.71054273576E-14  0.17092638724E+03  0.49027105147E+03  0.45951047219E+03 0.  0.
         25    1    3    3    0    0 -0.61222115998E+02 -0.61246041797E+02  0.81744718698E+02  0.17271054472E+03  0.12509000000E+03 0.  0.
         25    1    3    3    0    0 -0.42721173729E+02  0.25936095478E+02  0.15646314394E+02  0.13561008439E+03  0.12509000000E+03 0.  0.
         25    1    3    3    0    0  0.10394328973E+03  0.35309946319E+02  0.73535354153E+02  0.18195042236E+03  0.12509000000E+03 0.  0.
<mgrwt>
<rscale>  2 0.45951047E+03</rscale>
<asrwt>0</asrwt>
<pdfrwt beam="1">  1       21 0.48617459E-01 0.45951047E+03</pdfrwt>
<pdfrwt beam="2">  1       21 0.23481225E-01 0.45951047E+03</pdfrwt>
<totfact> 0.63649894E+04</totfact>
</mgrwt>
</event>
<event>
 6    0  0.3472812E-005  0.4563877E+03  0.7546771E-02  0.1025834E+00
         21   -1    0    0  502  501  0.00000000000E+00  0.00000000000E+00  0.32081041216E+02  0.32081041216E+02  0.00000000000E+00 0.  1.
         21   -1    0    0  501  502 -0.00000000000E+00 -0.00000000000E+00 -0.16231527069E+04  0.16231527069E+04  0.00000000000E+00 0.  1.
      99926    2    1    2    0    0 -0.35527136788E-14  0.00000000000E+00 -0.15910716656E+04  0.16552337481E+04  0.45638768120E+03 0.  0.
         25    1    3    3    0    0 -0.20965947586E+02  0.97257619202E+01 -0.54892031199E+03  0.56346710500E+03  0.12509000000E+03 0.  0.
         25    1    3    3    0    0  0.28887174600E+02 -0.41053883881E+02 -0.20924244301E+03  0.24889716409E+03  0.12509000000E+03 0.  0.
         25    1    3    3    0    0 -0.79212270140E+01  0.31328121961E+02 -0.83290891065E+03  0.84286947898E+03  0.12509000000E+03 0.  0.
<mgrwt>
<rscale>  2 0.45638768E+03</rscale>
<asrwt>0</asrwt>
<pdfrwt beam="1">  1       21 0.47177991E-02 0.45638768E+03</pdfrwt>
<pdfrwt beam="2">  1       21 0.23869898E+00 0.45638768E+03</pdfrwt>
<totfact> 0.19993635E+04</totfact>
</mgrwt>
</event>
<event>
 6    0  0.3472812E-005  0.4546581E+03  0.7546771E-02  0.1026342E+00
         21   -1    0    0  502  501  0.00000000000E+00  0.00000000000E+00  0.63395079208E+03  0.63395079208E+03  0.00000000000E+00 0.  1.
         21   -1    0    0  501  502 -0.00000000000E+00 -0.00000000000E+00 -0.81518150355E+02  0.81518150355E+02  0.00000000000E+00 0.  1.
      99926    2    1    2    0    0  0.88817841970E-14 -0.35527136788E-14  0.55243264173E+03  0.71546894244E+03  0.45465809566E+03 0.  0.
         25    1    3    3    0    0 -0.52336802680E+01  0.20532306145E+02  0.11585738255E+03  0.17181213053E+03  0.12509000000E+03 0.  0.
         25    1    3    3    0    0 -0.88910982363E+02 -0.49684629353E+02  0.25906247354E+03  0.30517961674E+03  0.12509000000E+03 0.  0.
         25    1    3    3    0    0  0.94144662631E+02  0.29152323208E+02  0.17751278563E+03  0.23847719516E+03  0.12509000000E+03 0.  0.
<mgrwt>
<rscale>  2 0.45465810E+03</rscale>
<asrwt>0</asrwt>
<pdfrwt beam="1">  1       21 0.93228055E-01 0.45465810E+03</pdfrwt>
<pdfrwt beam="2">  1       21 0.11987964E-01 0.45465810E+03</pdfrwt>
<totfact> 0.52211444E+04</totfact>
</mgrwt>
</event>
<event>
 6    0  0.3472812E-005  0.4552413E+03  0.7546771E-02  0.1026170E+00
         21   -1    0    0  502  501  0.00000000000E+00  0.00000000000E+00  0.13022100116E+03  0.13022100116E+03  0.00000000000E+00 0. -1.
         21   -1    0    0  501  502 -0.00000000000E+00 -0.00000000000E+00 -0.39787092494E+03  0.39787092494E+03  0.00000000000E+00 0. -1.
      99926    2    1    2    0    0  0.00000000000E+00  0.00000000000E+00 -0.26764992378E+03  0.52809192611E+03  0.45524125551E+03 0.  0.
         25    1    3    3    0    0  0.47522859716E+02  0.18041290679E+02 -0.14639574120E+03  0.19915604813E+03  0.12509000000E+03 0.  0.
         25    1    3    3    0    0  0.60961645498E+02  0.52264329724E+00 -0.54992078164E+02  0.14962697664E+03  0.12509000000E+03 0.  0.
         25    1    3    3    0    0 -0.10848450521E+03 -0.18563933977E+02 -0.66262104411E+02  0.17930890133E+03  0.12509000000E+03 0.  0.
<mgrwt>
<rscale>  2 0.45524126E+03</rscale>
<asrwt>0</asrwt>
<pdfrwt beam="1">  1       21 0.19150147E-01 0.45524126E+03</pdfrwt>
<pdfrwt beam="2">  1       21 0.58510431E-01 0.45524126E+03</pdfrwt>
<totfact> 0.63214916E+04</totfact>
</mgrwt>
</event>
<event>
 6    0  0.3472812E-005  0.4521758E+03  0.7546771E-02  0.1027075E+00
         21   -1    0    0  502  501  0.00000000000E+00  0.00000000000E+00  0.50474084490E+02  0.50474084490E+02  0.00000000000E+00 0.  1.
         21   -1    0    0  501  502 -0.00000000000E+00 -0.00000000000E+00 -0.10127124331E+04  0.10127124331E+04  0.00000000000E+00 0.  1.
      99926    2    1    2    0    0  0.00000000000E+00 -0.14210854715E-13 -0.96223834861E+03  0.10631865176E+04  0.45217577517E+03 0.  0.
         25    1    3    3    0    0  0.21583368574E+01  0.10879031137E+03 -0.31863746563E+03  0.35918982846E+03  0.12509000000E+03 0.  0.
         25    1    3    3    0    0  0.18344885371E+02 -0.32402589443E+02 -0.22642409650E+03  0.26134621137E+03  0.12509000000E+03 0.  0.
         25    1    3    3    0    0 -0.20503222229E+02 -0.76387721926E+02 -0.41717678648E+03  0.44265047776E+03  0.12509000000E+03 0.  0.
<mgrwt>
<rscale>  2 0.45217578E+03</rscale>
<asrwt>0</asrwt>
<pdfrwt beam="1">  1       21 0.74226600E-02 0.45217578E+03</pdfrwt>
<pdfrwt beam="2">  1       21 0.14892829E+00 0.45217578E+03</pdfrwt>
<totfact> 0.37619575E+04</totfact>
</mgrwt>
</event>
<event>
 6    0  0.3472812E-005  0.4527102E+03  0.7546771E-02  0.1026917E+00
         21   -1    0    0  502  501  0.00000000000E+00  0.00000000000E+00  0.11121695458E+04  0.11121695458E+04  0.00000000000E+00 0.  1.
         21   -1    0    0  501  502 -0.00000000000E+00 -0.00000000000E+00 -0.46069093142E+02  0.46069093142E+02  0.00000000000E+00 0.  1.
      99926    2    1    2    0    0  0.71054273576E-14  0.00000000000E+00  0.10661004527E+04  0.11582386390E+04  0.45271024904E+03 0.  0.
         25    1    3    3    0    0 -0.74442591594E+02 -0.27108014220E+02  0.20392314238E+03  0.25200932518E+03  0.12509000000E+03 0.  0.
         25    1    3    3    0    0  0.55191901448E+02  0.52914692129E+02  0.52740493875E+03  0.54740258325E+03  0.12509000000E+03 0.  0.
         25    1    3    3    0    0  0.19250690146E+02 -0.25806677910E+02  0.33477237154E+03  0.35882673053E+03  0.12509000000E+03 0.  0.
<mgrwt>
<rscale>  2 0.45271025E+03</rscale>
<asrwt>0</asrwt>
<pdfrwt beam="1">  1       21 0.16355433E+00 0.45271025E+03</pdfrwt>
<pdfrwt beam="2">  1       21 0.67748674E-02 0.45271025E+03</pdfrwt>
<totfact> 0.34113151E+04</totfact>
</mgrwt>
</event>
<event>
 6    0  0.3472812E-005  0.4543947E+03  0.7546771E-02  0.1026420E+00
         21   -1    0    0  502  501  0.00000000000E+00  0.00000000000E+00  0.74366273240E+03  0.74366273240E+03  0.00000000000E+00 0.  1.
         21   -1    0    0  501  502 -0.00000000000E+00 -0.00000000000E+00 -0.69411350896E+02  0.69411350896E+02  0.00000000000E+00 0.  1.
      99926    2    1    2    0    0  0.71054273576E-14 -0.14210854715E-13  0.67425138150E+03  0.81307408329E+03  0.45439469569E+03 0.  0.
         25    1    3    3    0    0 -0.54566870570E+02  0.27179252097E+02  0.31110747238E+03  0.34081024424E+03  0.12509000000E+03 0.  0.
         25    1    3    3    0    0  0.58282157741E+02 -0.80056069431E+02  0.14681967320E+03  0.21681630175E+03  0.12509000000E+03 0.  0.
         25    1    3    3    0    0 -0.37152871703E+01  0.52876817334E+02  0.21632423591E+03  0.25544753730E+03  0.12509000000E+03 0.  0.
<mgrwt>
<rscale>  2 0.45439470E+03</rscale>
<asrwt>0</asrwt>
<pdfrwt beam="1">  1       21 0.10936216E+00 0.45439470E+03</pdfrwt>
<pdfrwt beam="2">  1       21 0.10207552E-01 0.45439470E+03</pdfrwt>
<totfact> 0.47363498E+04</totfact>
</mgrwt>
</event>
<event>
 6    0  0.3472812E-005  0.4625999E+03  0.7546771E-02  0.1024030E+00
         21   -1    0    0  502  501  0.00000000000E+00  0.00000000000E+00  0.41524737833E+02  0.41524737833E+02  0.00000000000E+00 0.  1.
         21   -1    0    0  501  502 -0.00000000000E+00 -0.00000000000E+00 -0.12883804439E+04  0.12883804439E+04  0.00000000000E+00 0.  1.
      99926    2    1    2    0    0  0.44408920985E-15  0.00000000000E+00 -0.12468557061E+04  0.13299051817E+04  0.46259987100E+03 0.  0.
         25    1    3    3    0    0 -0.18011118584E+02 -0.30668871466E+02 -0.68097388216E+03  0.69328054664E+03  0.12509000000E+03 0.  0.
         25    1    3    3    0    0  0.21320537550E+02 -0.41939974925E+02 -0.36785166465E+03  0.39137690543E+03  0.12509000000E+03 0.  0.
         25    1    3    3    0    0 -0.33094189653E+01  0.72608846391E+02 -0.19803015926E+03  0.24524772966E+03  0.12509000000E+03 0.  0.
<mgrwt>
<rscale>  2 0.46259987E+03</rscale>
<asrwt>0</asrwt>
<pdfrwt beam="1">  1       21 0.61065795E-02 0.46259987E+03</pdfrwt>
<pdfrwt beam="2">  1       21 0.18946770E+00 0.46259987E+03</pdfrwt>
<totfact> 0.26648569E+04</totfact>
</mgrwt>
</event>
<event>
 6    0  0.3472812E-005  0.4525105E+03  0.7546771E-02  0.1026976E+00
         21   -1    0    0  502  501  0.00000000000E+00  0.00000000000E+00  0.11304657430E+03  0.11304657430E+03  0.00000000000E+00 0. -1.
         21   -1    0    0  501  502 -0.00000000000E+00 -0.00000000000E+00 -0.45283489829E+03  0.45283489829E+03  0.00000000000E+00 0. -1.
      99926    2    1    2    0    0 -0.35527136788E-14  0.00000000000E+00 -0.33978832399E+03  0.56588147260E+03  0.45251048154E+03 0.  0.
         25    1    3    3    0    0 -0.28650247478E+02  0.18847906201E+02 -0.17649718759E+01  0.12971778396E+03  0.12509000000E+03 0.  0.
         25    1    3    3    0    0  0.57838739125E+02 -0.33179386754E+02 -0.21636891589E+03  0.25866814128E+03  0.12509000000E+03 0.  0.
         25    1    3    3    0    0 -0.29188491647E+02  0.14331480552E+02 -0.12165443623E+03  0.17749554736E+03  0.12509000000E+03 0.  0.
<mgrwt>
<rscale>  2 0.45251048E+03</rscale>
<asrwt>0</asrwt>
<pdfrwt beam="1">  1       21 0.16624496E-01 0.45251048E+03</pdfrwt>
<pdfrwt beam="2">  1       21 0.66593368E-01 0.45251048E+03</pdfrwt>
<totfact> 0.62041615E+04</totfact>
</mgrwt>
</event>
<event>
 6    0  0.3472812E-005  0.4508106E+03  0.7546771E-02  0.1027481E+00
         21   -1    0    0  502  501  0.00000000000E+00  0.00000000000E+00  0.12215534676E+03  0.12215534676E+03  0.00000000000E+00 0. -1.
         21   -1    0    0  501  502 -0.00000000000E+00 -0.00000000000E+00 -0.41592578663E+03  0.41592578663E+03  0.00000000000E+00 0. -1.
      99926    2    1    2    0    0 -0.17763568394E-14 -0.17763568394E-14 -0.29377043986E+03  0.53808113339E+03  0.45081064181E+03 0.  0.
         25    1    3    3    0    0 -0.14609633174E+02 -0.11798638476E+02 -0.14121007813E+03  0.18957964953E+03  0.12509000000E+03 0.  0.
         25    1    3    3    0    0 -0.37247306570E+02  0.85821388077E+02 -0.53472003224E+02  0.16510431771E+03  0.12509000000E+03 0.  0.
         25    1    3    3    0    0  0.51856939744E+02 -0.74022749600E+02 -0.99088358513E+02  0.18339716615E+03  0.12509000000E+03 0.  0.
<mgrwt>
<rscale>  2 0.45081064E+03</rscale>
<asrwt>0</asrwt>
<pdfrwt beam="1">  1       21 0.17964022E-01 0.45081064E+03</pdfrwt>
<pdfrwt beam="2">  1       21 0.61165556E-01 0.45081064E+03</pdfrwt>
<totfact> 0.64782387E+04</totfact>
</mgrwt>
</event>
<event>
 6    0  0.3472812E-005  0.4518007E+03  0.7546771E-02  0.1027186E+00
         21   -1    0    0  502  501  0.00000000000E+00  0.00000000000E+00  0.32760505925E+02  0.32760505925E+02  0.00000000000E+00 0. -1.
         21   -1    0    0  501  502 -0.00000000000E+00 -0.00000000000E+00 -0.15576979213E+04  0.15576979213E+04  0.00000000000E+00 0. -1.
      99926    2    1    2    0    0  0.00000000000E+00  0.00000000000E+00 -0.15249374153E+04  0.15904584272E+04  0.45180071704E+03 0.  0.
         25    1    3    3    0    0  0.56193752930E+02  0.84871947704E+02 -0.73013165695E+03  0.74773038587E+03  0.12509000000E+03 0.  0.
         25    1    3    3    0    0 -0.34129040269E+02 -0.17235033603E+02 -0.46159470206E+03  0.47976975190E+03  0.12509000000E+03 0.  0.
         25    1    3    3    0    0 -0.22064712661E+02 -0.67636914100E+02 -0.33321105633E+03  0.36295828941E+03  0.12509000000E+03 0.  0.
<mgrwt>
<rscale>  2 0.45180072E+03</rscale>
<asrwt>0</asrwt>
<pdfrwt beam="1">  1       21 0.48177192E-02 0.45180072E+03</pdfrwt>
<pdfrwt beam="2">  1       21 0.22907333E+00 0.45180072E+03</pdfrwt>
<totfact> 0.22192453E+04</totfact>
</mgrwt>
</event>
<event>
 6    0  0.3472812E-005  0.4616780E+03  0.7546771E-02  0.1024296E+00
         21   -1    0    0  502  501  0.00000000000E+00  0.00000000000E+00  0.67351969529E+03  0.67351969529E+03  0.00000000000E+00 0.  1.
         21   -1    0    0  501  502 -0.00000000000E+00 -0.00000000000E+00 -0.79116697630E+02  0.79116697630E+02  0.00000000000E+00 0.  1.
      99926    2    1    2    0    0 -0.35527136788E-14  0.00000000000E+00  0.59440299766E+03  0.75263639292E+03  0.46167804401E+03 0.  0.
         25    1    3    3    0    0 -0.23603179896E+02 -0.68327631121E+02  0.58539685421E+02  0.15588514408E+03  0.12509000000E+03 0.  0.
         25    1    3    3    0    0  0.27741819732E+02  0.40036283799E+02  0.26801356130E+03  0.29975204707E+03  0.12509000000E+03 0.  0.
         25    1    3    3    0    0 -0.41386398358E+01  0.28291347322E+02  0.26784975095E+03  0.29699920177E+03  0.12509000000E+03 0.  0.
<mgrwt>
<rscale>  2 0.46167804E+03</rscale>
<asrwt>0</asrwt>
<pdfrwt beam="1">  1       21 0.99047011E-01 0.46167804E+03</pdfrwt>
<pdfrwt beam="2">  1       21 0.11634809E-01 0.46167804E+03</pdfrwt>
<totfact> 0.47589336E+04</totfact>
</mgrwt>
</event>
<event>
 6    0  0.3472812E-005  0.4551208E+03  0.7546771E-02  0.1026206E+00
         21   -1    0    0  502  501  0.00000000000E+00  0.00000000000E+00  0.16148216993E+03  0.16148216993E+03  0.00000000000E+00 0.  1.
         21   -1    0    0  501  502 -0.00000000000E+00 -0.00000000000E+00 -0.32067773007E+03  0.32067773007E+03  0.00000000000E+00 0.  1.
      99926    2    1    2    0    0  0.00000000000E+00 -0.17763568394E-14 -0.15919556014E+03  0.48215990001E+03  0.45512080023E+03 0.  0.
         25    1    3    3    0    0 -0.50604679052E+02  0.42067842082E+02  0.28343946187E+02  0.14415763686E+03  0.12509000000E+03 0.  0.
         25    1    3    3    0    0  0.38528242474E+02  0.13488116776E+02 -0.14117290470E+03  0.19298614428E+03  0.12509000000E+03 0.  0.
         25    1    3    3    0    0  0.12076436578E+02 -0.55555958859E+02 -0.46366601624E+02  0.14501611887E+03  0.12509000000E+03 0.  0.
<mgrwt>
<rscale>  2 0.45512080E+03</rscale>
<asrwt>0</asrwt>
<pdfrwt beam="1">  1       21 0.23747378E-01 0.45512080E+03</pdfrwt>
<pdfrwt beam="2">  1       21 0.47158489E-01 0.45512080E+03</pdfrwt>
<totfact> 0.66479440E+04</totfact>
</mgrwt>
</event>
<event>
 6    0  0.3472812E-005  0.4470382E+03  0.7546771E-02  0.1028609E+00
         21   -1    0    0  502  501  0.00000000000E+00  0.00000000000E+00  0.30500563484E+02  0.30500563484E+02  0.00000000000E+00 0. -1.
         21   -1    0    0  501  502 -0.00000000000E+00 -0.00000000000E+00 -0.16380280590E+04  0.16380280590E+04  0.00000000000E+00 0. -1.
      99926    2    1    2    0    0  0.00000000000E+00  0.00000000000E+00 -0.16075274956E+04  0.16685286225E+04  0.44703815857E+03 0.  0.
         25    1    3    3    0    0 -0.10869319393E+03  0.35353213734E+01 -0.53506972083E+03  0.56015517774E+03  0.12509000000E+03 0.  0.
         25    1    3    3    0    0  0.57442090056E+02 -0.31975042577E+02 -0.57239628124E+03  0.58958206209E+03  0.12509000000E+03 0.  0.
         25    1    3    3    0    0  0.51251103871E+02  0.28439721203E+02 -0.50006149349E+03  0.51879138270E+03  0.12509000000E+03 0.  0.
<mgrwt>
<rscale>  2 0.44703816E+03</rscale>
<asrwt>0</asrwt>
<pdfrwt beam="1">  1       21 0.44853756E-02 0.44703816E+03</pdfrwt>
<pdfrwt beam="2">  1       21 0.24088656E+00 0.44703816E+03</pdfrwt>
<totfact> 0.21205529E+04</totfact>
</mgrwt>
</event>
<event>
 6    0  0.3472812E-005  0.4508530E+03  0.7546771E-02  0.1027468E+00
         21   -1    0    0  502  501  0.00000000000E+00  0.00000000000E+00  0.52855413907E+03  0.52855413907E+03  0.00000000000E+00 0. -1.
         21   -1    0    0  501  502 -0.00000000000E+00 -0.00000000000E+00 -0.96143602943E+02  0.96143602943E+02  0.00000000000E+00 0. -1.
      99926    2    1    2    0    0  0.14210854715E-13  0.00000000000E+00  0.43241053613E+03  0.62469774202E+03  0.45085296619E+03 0.  0.
         25    1    3    3    0    0  0.10043959832E+03 -0.17962970799E+02  0.11623405579E+03  0.19891868956E+03  0.12509000000E+03 0.  0.
         25    1    3    3    0    0 -0.15867363827E+02 -0.46893833636E+01  0.18803181120E+03  0.22644476959E+03  0.12509000000E+03 0.  0.
         25    1    3    3    0    0 -0.84572234495E+02  0.22652354163E+02  0.12814466914E+03  0.19933428287E+03  0.12509000000E+03 0.  0.
<mgrwt>
<rscale>  2 0.45085297E+03</rscale>
<asrwt>0</asrwt>
<pdfrwt beam="1">  1       21 0.77728548E-01 0.45085297E+03</pdfrwt>
<pdfrwt beam="2">  1       21 0.14138765E-01 0.45085297E+03</pdfrwt>
<totfact> 0.59094440E+04</totfact>
</mgrwt>
</event>
<event>
 6    0  0.3472812E-005  0.4537305E+03  0.7546771E-02  0.1026615E+00
         21   -1    0    0  502  501  0.00000000000E+00  0.00000000000E+00  0.19223358096E+03  0.19223358096E+03  0.00000000000E+00 0.  1.
         21   -1    0    0  501  502 -0.00000000000E+00 -0.00000000000E+00 -0.26773601446E+03  0.26773601446E+03  0.00000000000E+00 0.  1.
      99926    2    1    2    0    0 -0.71054273576E-14  0.00000000000E+00 -0.75502433503E+02  0.45996959542E+03  0.45373054916E+03 0.  0.
         25    1    3    3    0    0  0.26237411960E+02  0.60442938565E+02 -0.94398687999E+01  0.14169816453E+03  0.12509000000E+03 0.  0.
         25    1    3    3    0    0 -0.78217748684E+02 -0.66380251862E+01 -0.86410332831E+02  0.17110328257E+03  0.12509000000E+03 0.  0.
         25    1    3    3    0    0  0.51980336724E+02 -0.53804913379E+02  0.20347768128E+02  0.14716814831E+03  0.12509000000E+03 0.  0.
<mgrwt>
<rscale>  2 0.45373055E+03</rscale>
<asrwt>0</asrwt>
<pdfrwt beam="1">  1       21 0.28269644E-01 0.45373055E+03</pdfrwt>
<pdfrwt beam="2">  1       21 0.39372943E-01 0.45373055E+03</pdfrwt>
<totfact> 0.68877326E+04</totfact>
</mgrwt>
</event>
<event>
 6    0  0.3472812E-005  0.4546603E+03  0.7546771E-02  0.1026341E+00
         21   -1    0    0  502  501  0.00000000000E+00  0.00000000000E+00  0.19744962201E+03  0.19744962201E+03  0.00000000000E+00 0. -1.
         21   -1    0    0  501  502 -0.00000000000E+00 -0.00000000000E+00 -0.26173261956E+03  0.26173261956E+03  0.00000000000E+00 0. -1.
      99926    2    1    2    0    0  0.71054273576E-14  0.00000000000E+00 -0.64282997550E+02  0.45918224156E+03  0.45466034266E+03 0.  0.
         25    1    3    3    0    0 -0.45793220406E+01 -0.66026795018E+02  0.96607695970E+01  0.14184973183E+03  0.12509000000E+03 0.  0.
         25    1    3    3    0    0  0.40395279437E+02  0.78568984625E+02  0.22635008887E+02  0.15480541229E+03  0.12509000000E+03 0.  0.
         25    1    3    3    0    0 -0.35815957396E+02 -0.12542189607E+02 -0.96578776035E+02  0.16252709745E+03  0.12509000000E+03 0.  0.
<mgrwt>
<rscale>  2 0.45466034E+03</rscale>
<asrwt>0</asrwt>
<pdfrwt beam="1">  1       21 0.29036709E-01 0.45466034E+03</pdfrwt>
<pdfrwt beam="2">  1       21 0.38490091E-01 0.45466034E+03</pdfrwt>
<totfact> 0.68425367E+04</totfact>
</mgrwt>
</event>
<event>
 6    0  0.3472812E-005  0.4569572E+03  0.7546771E-02  0.1025667E+00
         21   -1    0    0  502  501  0.00000000000E+00  0.00000000000E+00  0.24868094681E+03  0.24868094681E+03  0.00000000000E+00 0. -1.
         21   -1    0    0  501  502 -0.00000000000E+00 -0.00000000000E+00 -0.20991746749E+03  0.20991746749E+03  0.00000000000E+00 0. -1.
      99926    2    1    2    0    0  0.00000000000E+00  0.00000000000E+00  0.38763479325E+02  0.45859841430E+03  0.45695721711E+03 0.  0.
         25    1    3    3    0    0  0.22748574834E+02  0.61966696560E+02  0.16628202615E+01  0.14144837295E+03  0.12509000000E+03 0.  0.
         25    1    3    3    0    0 -0.98884565845E+02 -0.16434086690E+02  0.44601977912E+01  0.16036096168E+03  0.12509000000E+03 0.  0.
         25    1    3    3    0    0  0.76135991011E+02 -0.45532609870E+02  0.32640461273E+02  0.15678907966E+03  0.12509000000E+03 0.  0.
<mgrwt>
<rscale>  2 0.45695722E+03</rscale>
<asrwt>0</asrwt>
<pdfrwt beam="1">  1       21 0.36570727E-01 0.45695722E+03</pdfrwt>
<pdfrwt beam="2">  1       21 0.30870216E-01 0.45695722E+03</pdfrwt>
<totfact> 0.67227036E+04</totfact>
</mgrwt>
</event>
<event>
 6    0  0.3472812E-005  0.4813632E+03  0.7546771E-02  0.1018761E+00
         21   -1    0    0  502  501  0.00000000000E+00  0.00000000000E+00  0.18196885620E+03  0.18196885620E+03  0.00000000000E+00 0.  1.
         21   -1    0    0  501  502 -0.00000000000E+00 -0.00000000000E+00 -0.31833822758E+03  0.31833822758E+03  0.00000000000E+00 0.  1.
      99926    2    1    2    0    0  0.00000000000E+00  0.71054273576E-14 -0.13636937138E+03  0.50030708378E+03  0.48136324395E+03 0.  0.
         25    1    3    3    0    0 -0.15829388587E+01  0.30056344994E+02 -0.74645201256E+02  0.14874576881E+03  0.12509000000E+03 0.  0.
         25    1    3    3    0    0 -0.10189782275E+03 -0.68302489912E+02 -0.58601473765E+02  0.18474316560E+03  0.12509000000E+03 0.  0.
         25    1    3    3    0    0  0.10348076161E+03  0.38246144918E+02 -0.31226963639E+01  0.16681814936E+03  0.12509000000E+03 0.  0.
<mgrwt>
<rscale>  2 0.48136324E+03</rscale>
<asrwt>0</asrwt>
<pdfrwt beam="1">  1       21 0.26760126E-01 0.48136324E+03</pdfrwt>
<pdfrwt beam="2">  1       21 0.46814445E-01 0.48136324E+03</pdfrwt>
<totfact> 0.53211052E+04</totfact>
</mgrwt>
</event>
<event>
 6    0  0.3472812E-005  0.4587988E+03  0.7546771E-02  0.1025130E+00
         21   -1    0    0  502  501  0.00000000000E+00  0.00000000000E+00  0.24661658388E+03  0.24661658388E+03  0.00000000000E+00 0. -1.
         21   -1    0    0  501  502 -0.00000000000E+00 -0.00000000000E+00 -0.21338423399E+03  0.21338423399E+03  0.00000000000E+00 0. -1.
      99926    2    1    2    0    0  0.00000000000E+00  0.71054273576E-14  0.33232349891E+02  0.46000081787E+03  0.45879882668E+03 0.  0.
         25    1    3    3    0    0  0.64649985829E+02 -0.45066254607E+02  0.80574223966E+02  0.16837547814E+03  0.12509000000E+03 0.  0.
         25    1    3    3    0    0 -0.45210204779E+01  0.43314998798E+02  0.25475771796E+02  0.13488199211E+03  0.12509000000E+03 0.  0.
         25    1    3    3    0    0 -0.60128965351E+02  0.17512558095E+01 -0.72817645871E+02  0.15674334761E+03  0.12509000000E+03 0.  0.
<mgrwt>
<rscale>  2 0.45879883E+03</rscale>
<asrwt>0</asrwt>
<pdfrwt beam="1">  1       21 0.36267145E-01 0.45879883E+03</pdfrwt>
<pdfrwt beam="2">  1       21 0.31380034E-01 0.45879883E+03</pdfrwt>
<totfact> 0.66153070E+04</totfact>
</mgrwt>
</event>
<event>
 6    0  0.3472812E-005  0.4595808E+03  0.7546771E-02  0.1024903E+00
         21   -1    0    0  502  501  0.00000000000E+00  0.00000000000E+00  0.14381018181E+04  0.14381018181E+04  0.00000000000E+00 0. -1.
         21   -1    0    0  501  502 -0.00000000000E+00 -0.00000000000E+00 -0.36717579869E+02  0.36717579869E+02  0.00000000000E+00 0. -1.
      99926    2    1    2    0    0  0.00000000000E+00  0.00000000000E+00  0.14013842382E+04  0.14748193980E+04  0.45958075837E+03 0.  0.
         25    1    3    3    0    0  0.84601873202E+01  0.29236878898E+02  0.15361173752E+03  0.20042565669E+03  0.12509000000E+03 0.  0.
         25    1    3    3    0    0  0.10928056647E+02 -0.26822549087E+02  0.51504124170E+03  0.53080491738E+03  0.12509000000E+03 0.  0.
         25    1    3    3    0    0 -0.19388243968E+02 -0.24143298114E+01  0.73273125900E+03  0.74358882389E+03  0.12509000000E+03 0.  0.
<mgrwt>
<rscale>  2 0.45958076E+03</rscale>
<asrwt>0</asrwt>
<pdfrwt beam="1">  1       21 0.21148552E+00 0.45958076E+03</pdfrwt>
<pdfrwt beam="2">  1       21 0.53996450E-02 0.45958076E+03</pdfrwt>
<totfact> 0.23553736E+04</totfact>
</mgrwt>
</event>
<event>
 6    0  0.3472812E-005  0.4215830E+03  0.7546771E-02  0.1036552E+00
         21   -1    0    0  502  501  0.00000000000E+00  0.00000000000E+00  0.78384071923E+02  0.78384071923E+02  0.00000000000E+00 0. -1.
         21   -1    0    0  501  502 -0.00000000000E+00 -0.00000000000E+00 -0.56686322915E+03  0.56686322915E+03  0.00000000000E+00 0. -1.
      99926    2    1    2    0    0  0.00000000000E+00 -0.44408920985E-15 -0.48847915722E+03  0.64524730107E+03  0.42158296039E+03 0.  0.
         25    1    3    3    0    0  0.19812765378E+02 -0.31503930757E+02 -0.12370887063E+03  0.17982334692E+03  0.12509000000E+03 0.  0.
         25    1    3    3    0    0 -0.47204940146E+02  0.35321359385E+02 -0.98014939526E+02  0.16950026924E+03  0.12509000000E+03 0.  0.
         25    1    3    3    0    0  0.27392174768E+02 -0.38174286278E+01 -0.26675534706E+03  0.29592368490E+03  0.12509000000E+03 0.  0.
<mgrwt>
<rscale>  2 0.42158296E+03</rscale>
<asrwt>0</asrwt>
<pdfrwt beam="1">  1       21 0.11527070E-01 0.42158296E+03</pdfrwt>
<pdfrwt beam="2">  1       21 0.83362237E-01 0.42158296E+03</pdfrwt>
<totfact> 0.73514024E+04</totfact>
</mgrwt>
</event>
<event>
 5    0  0.3472812E-005  0.6183228E+03  0.7546771E-02  0.9868105E-01
         21   -1    0    0  502  501  0.00000000000E+00  0.00000000000E+00  0.59683744063E+03  0.59683744063E+03  0.00000000000E+00 0. -1.
         21   -1    0    0  501  502 -0.00000000000E+00 -0.00000000000E+00 -0.16014539346E+03  0.16014539346E+03  0.00000000000E+00 0. -1.
         25    1    1    2    0    0  0.11453487262E+03  0.15353892306E+03  0.19958549291E+03  0.30360223158E+03  0.12509000000E+03 0.  0.
         25    1    1    2    0    0 -0.63802507626E+01 -0.14890843749E+03  0.20904396359E+03  0.28558942062E+03  0.12509000000E+03 0.  0.
         25    1    1    2    0    0 -0.10815462186E+03 -0.46304855722E+01  0.28062590678E+02  0.16779118190E+03  0.12509000000E+03 0.  0.
<mgrwt>
<rscale>  2 0.61832279E+03</rscale>
<asrwt>0</asrwt>
<pdfrwt beam="1">  1       21 0.87770211E-01 0.61832279E+03</pdfrwt>
<pdfrwt beam="2">  1       21 0.23550793E-01 0.61832279E+03</pdfrwt>
<totfact> 0.16355178E+04</totfact>
</mgrwt>
</event>
<event>
 6    0  0.3472812E-005  0.4488224E+03  0.7546771E-02  0.1028074E+00
         21   -1    0    0  502  501  0.00000000000E+00  0.00000000000E+00  0.55706252855E+03  0.55706252855E+03  0.00000000000E+00 0. -1.
         21   -1    0    0  501  502 -0.00000000000E+00 -0.00000000000E+00 -0.90403476492E+02  0.90403476492E+02  0.00000000000E+00 0. -1.
      99926    2    1    2    0    0 -0.35527136788E-14  0.00000000000E+00  0.46665905206E+03  0.64746600505E+03  0.44882241123E+03 0.  0.
         25    1    3    3    0    0  0.16205677850E+02  0.61235526009E+02  0.54907305582E+02  0.15058132004E+03  0.12509000000E+03 0.  0.
         25    1    3    3    0    0  0.34452495322E+02 -0.54353385102E+02  0.24196584740E+03  0.27988612741E+03  0.12509000000E+03 0.  0.
         25    1    3    3    0    0 -0.50658173171E+02 -0.68821409073E+01  0.16978589908E+03  0.21699855760E+03  0.12509000000E+03 0.  0.
<mgrwt>
<rscale>  2 0.44882241E+03</rscale>
<asrwt>0</asrwt>
<pdfrwt beam="1">  1       21 0.81920958E-01 0.44882241E+03</pdfrwt>
<pdfrwt beam="2">  1       21 0.13294629E-01 0.44882241E+03</pdfrwt>
<totfact> 0.58654463E+04</totfact>
</mgrwt>
</event>
<event>
 5    0  0.3786251E-005  0.5898562E+03  0.7546771E-02  0.9926677E-01
         21   -1    0    0  502  501  0.00000000000E+00  0.00000000000E+00  0.13220396570E+03  0.13220396570E+03  0.00000000000E+00 0.  1.
         21   -1    0    0  501  502 -0.00000000000E+00 -0.00000000000E+00 -0.65794242352E+03  0.65794242352E+03  0.00000000000E+00 0.  1.
         25    1    1    2    0    0 -0.16986871261E+03 -0.26785772329E+02 -0.15437024741E+03  0.26277469153E+03  0.12509000000E+03 0.  0.
         25    1    1    2    0    0  0.71967760048E+01  0.89537554364E+02 -0.11027704174E+03  0.18941304406E+03  0.12509000000E+03 0.  0.
         25    1    1    2    0    0  0.16267193660E+03 -0.62751782035E+02 -0.26109116867E+03  0.33795865363E+03  0.12509000000E+03 0.  0.
<mgrwt>
<rscale>  2 0.58985625E+03</rscale>
<asrwt>0</asrwt>
<pdfrwt beam="1">  1       21 0.19441760E-01 0.58985625E+03</pdfrwt>
<pdfrwt beam="2">  1       21 0.96756236E-01 0.58985625E+03</pdfrwt>
<totfact> 0.18839793E+04</totfact>
</mgrwt>
</event>
<event>
 6    0  0.3472812E-005  0.4812120E+03  0.7546771E-02  0.1018803E+00
         21   -1    0    0  502  501  0.00000000000E+00  0.00000000000E+00  0.11923208254E+03  0.11923208254E+03  0.00000000000E+00 0. -1.
         21   -1    0    0  501  502 -0.00000000000E+00 -0.00000000000E+00 -0.48553420186E+03  0.48553420186E+03  0.00000000000E+00 0. -1.
      99926    2    1    2    0    0  0.00000000000E+00 -0.71054273576E-14 -0.36630211932E+03  0.60476628440E+03  0.48121202824E+03 0.  0.
         25    1    3    3    0    0  0.69587650734E+02  0.33915952075E+02 -0.64665806156E+01  0.14724828591E+03  0.12509000000E+03 0.  0.
         25    1    3    3    0    0 -0.78155889412E+01 -0.62490183412E+02 -0.17215242330E+03  0.22192357108E+03  0.12509000000E+03 0.  0.
         25    1    3    3    0    0 -0.61772061793E+02  0.28574231337E+02 -0.18768311541E+03  0.23559442741E+03  0.12509000000E+03 0.  0.
<mgrwt>
<rscale>  2 0.48121203E+03</rscale>
<asrwt>0</asrwt>
<pdfrwt beam="1">  1       21 0.17534129E-01 0.48121203E+03</pdfrwt>
<pdfrwt beam="2">  1       21 0.71402090E-01 0.48121203E+03</pdfrwt>
<totfact> 0.47709874E+04</totfact>
</mgrwt>
</event>
<event>
 6    0  0.3472812E-005  0.4958424E+03  0.7546771E-02  0.1014870E+00
         21   -1    0    0  502  501  0.00000000000E+00  0.00000000000E+00  0.81961721771E+03  0.81961721771E+03  0.00000000000E+00 0.  1.
         21   -1    0    0  501  502 -0.00000000000E+00 -0.00000000000E+00 -0.74992222792E+02  0.74992222792E+02  0.00000000000E+00 0.  1.
      99926    2    1    2    0    0  0.00000000000E+00 -0.35527136788E-14  0.74462499491E+03  0.89460944050E+03  0.49584238219E+03 0.  0.
         25    1    3    3    0    0  0.27326042824E+02 -0.10813496650E+03  0.24856176344E+03  0.29978382535E+03  0.12509000000E+03 0.  0.
         25    1    3    3    0    0 -0.13113850330E+02  0.80597194807E+02  0.41862005510E+03  0.44447512811E+03  0.12509000000E+03 0.  0.
         25    1    3    3    0    0 -0.14212192493E+02  0.27537771689E+02  0.77443176374E+02  0.15035048704E+03  0.12509000000E+03 0.  0.
<mgrwt>
<rscale>  2 0.49584238E+03</rscale>
<asrwt>0</asrwt>
<pdfrwt beam="1">  1       21 0.12053194E+00 0.49584238E+03</pdfrwt>
<pdfrwt beam="2">  1       21 0.11028269E-01 0.49584238E+03</pdfrwt>
<totfact> 0.31955024E+04</totfact>
</mgrwt>
</event>
<event>
 6    0  0.3472812E-005  0.4564005E+03  0.7546771E-02  0.1025830E+00
         21   -1    0    0  502  501  0.00000000000E+00  0.00000000000E+00  0.10092297435E+04  0.10092297435E+04  0.00000000000E+00 0.  1.
         21   -1    0    0  501  502 -0.00000000000E+00 -0.00000000000E+00 -0.51599105978E+02  0.51599105978E+02  0.00000000000E+00 0.  1.
      99926    2    1    2    0    0  0.00000000000E+00  0.00000000000E+00  0.95763063756E+03  0.10608288495E+04  0.45640049296E+03 0.  0.
         25    1    3    3    0    0 -0.48610181446E+02  0.20770889248E+02  0.60311984691E+03  0.61821957055E+03  0.12509000000E+03 0.  0.
         25    1    3    3    0    0 -0.29303625730E+01 -0.21923311165E+02  0.20311856340E+03  0.23957019325E+03  0.12509000000E+03 0.  0.
         25    1    3    3    0    0  0.51540544019E+02  0.11524219173E+01  0.15139222726E+03  0.20303908572E+03  0.12509000000E+03 0.  0.
<mgrwt>
<rscale>  2 0.45640049E+03</rscale>
<asrwt>0</asrwt>
<pdfrwt beam="1">  1       21 0.14841613E+00 0.45640049E+03</pdfrwt>
<pdfrwt beam="2">  1       21 0.75881045E-02 0.45640049E+03</pdfrwt>
<totfact> 0.36482159E+04</totfact>
</mgrwt>
</event>
<event>
 6    0  0.3472812E-005  0.4463202E+03  0.7546771E-02  0.1028825E+00
         21   -1    0    0  502  501  0.00000000000E+00  0.00000000000E+00  0.53717833472E+03  0.53717833472E+03  0.00000000000E+00 0.  1.
         21   -1    0    0  501  502 -0.00000000000E+00 -0.00000000000E+00 -0.92707439284E+02  0.92707439284E+02  0.00000000000E+00 0.  1.
      99926    2    1    2    0    0  0.14210854715E-13  0.00000000000E+00  0.44447089543E+03  0.62988577400E+03  0.44632018933E+03 0.  0.
         25    1    3    3    0    0  0.87355817113E+02  0.30111795119E+02  0.13606386765E+03  0.20663650009E+03  0.12509000000E+03 0.  0.
         25    1    3    3    0    0  0.16015342669E+01 -0.37932301002E+02  0.10149345760E+03  0.16549880485E+03  0.12509000000E+03 0.  0.
         25    1    3    3    0    0 -0.88957351380E+02  0.78205058827E+01  0.20691357018E+03  0.25775046906E+03  0.12509000000E+03 0.  0.
<mgrwt>
<rscale>  2 0.44632019E+03</rscale>
<asrwt>0</asrwt>
<pdfrwt beam="1">  1       21 0.78996812E-01 0.44632019E+03</pdfrwt>
<pdfrwt beam="2">  1       21 0.13633447E-01 0.44632019E+03</pdfrwt>
<totfact> 0.60944942E+04</totfact>
</mgrwt>
</event>
<event>
 6    0  0.3472812E-005  0.4596349E+03  0.7546771E-02  0.1024887E+00
         21   -1    0    0  502  501  0.00000000000E+00  0.00000000000E+00  0.24133302921E+03  0.24133302921E+03  0.00000000000E+00 0.  1.
         21   -1    0    0  501  502 -0.00000000000E+00 -0.00000000000E+00 -0.21885134604E+03  0.21885134604E+03  0.00000000000E+00 0.  1.
      99926    2    1    2    0    0 -0.35527136788E-14  0.00000000000E+00  0.22481683164E+02  0.46018437525E+03  0.45963489113E+03 0.  0.
         25    1    3    3    0    0  0.24846222720E+02  0.16614870983E+02  0.47020206472E+02  0.13693719961E+03  0.12509000000E+03 0.  0.
         25    1    3    3    0    0 -0.27166203898E+02 -0.58374464132E+02 -0.98769346050E+02  0.17189669141E+03  0.12509000000E+03 0.  0.
         25    1    3    3    0    0  0.23199811782E+01  0.41759593150E+02  0.74230822742E+02  0.15135048423E+03  0.12509000000E+03 0.  0.
<mgrwt>
<rscale>  2 0.45963489E+03</rscale>
<asrwt>0</asrwt>
<pdfrwt beam="1">  1       21 0.35490151E-01 0.45963489E+03</pdfrwt>
<pdfrwt beam="2">  1       21 0.32184021E-01 0.45963489E+03</pdfrwt>
<totfact> 0.65704035E+04</totfact>
</mgrwt>
</event>
<event>
 6    0  0.3472812E-005  0.4510783E+03  0.7546771E-02  0.1027401E+00
         21   -1    0    0  502  501  0.00000000000E+00  0.00000000000E+00  0.17036855727E+04  0.17036855727E+04  0.00000000000E+00 0. -1.
         21   -1    0    0  501  502 -0.00000000000E+00 -0.00000000000E+00 -0.29857563046E+02  0.29857563046E+02  0.00000000000E+00 0. -1.
      99926    2    1    2    0    0  0.00000000000E+00  0.00000000000E+00  0.16738280097E+04  0.17335431358E+04  0.45107826106E+03 0.  0.
         25    1    3    3    0    0 -0.25853174086E+02 -0.73261254755E+02  0.47197950553E+03  0.49441658527E+03  0.12509000000E+03 0.  0.
         25    1    3    3    0    0  0.64850488870E+02 -0.30182567755E+01  0.42930449816E+03  0.45184572148E+03  0.12509000000E+03 0.  0.
         25    1    3    3    0    0 -0.38997314784E+02  0.76279511531E+02  0.77254400601E+03  0.78728082903E+03  0.12509000000E+03 0.  0.
<mgrwt>
<rscale>  2 0.45107826E+03</rscale>
<asrwt>0</asrwt>
<pdfrwt beam="1">  1       21 0.25054193E+00 0.45107826E+03</pdfrwt>
<pdfrwt beam="2">  1       21 0.43908192E-02 0.45107826E+03</pdfrwt>
<totfact> 0.19148491E+04</totfact>
</mgrwt>
</event>
<event>
 6    0  0.3472812E-005  0.4678900E+03  0.7546771E-02  0.1022517E+00
         21   -1    0    0  502  501  0.00000000000E+00  0.00000000000E+00  0.50229251648E+02  0.50229251648E+02  0.00000000000E+00 0.  1.
         21   -1    0    0  501  502 -0.00000000000E+00 -0.00000000000E+00 -0.10896095598E+04  0.10896095598E+04  0.00000000000E+00 0.  1.
      99926    2    1    2    0    0  0.00000000000E+00  0.00000000000E+00 -0.10393803081E+04  0.11398388114E+04  0.46789004168E+03 0.  0.
         25    1    3    3    0    0 -0.81527903072E+02  0.51552594684E+02 -0.41411239079E+03  0.44321670693E+03  0.12509000000E+03 0.  0.
         25    1    3    3    0    0 -0.16743601686E+02  0.72961590033E+01 -0.36209248357E+03  0.38352582298E+03  0.12509000000E+03 0.  0.
         25    1    3    3    0    0  0.98271504758E+02 -0.58848753688E+02 -0.26317543376E+03  0.31309628151E+03  0.12509000000E+03 0.  0.
<mgrwt>
<rscale>  2 0.46789004E+03</rscale>
<asrwt>0</asrwt>
<pdfrwt beam="1">  1       21 0.73866545E-02 0.46789004E+03</pdfrwt>
<pdfrwt beam="2">  1       21 0.16023670E+00 0.46789004E+03</pdfrwt>
<totfact> 0.30900131E+04</totfact>
</mgrwt>
</event>
<event>
 6    0  0.3472812E-005  0.4974221E+03  0.7546771E-02  0.1014454E+00
         21   -1    0    0  502  501  0.00000000000E+00  0.00000000000E+00  0.12469034617E+03  0.12469034617E+03  0.00000000000E+00 0. -1.
         21   -1    0    0  501  502 -0.00000000000E+00 -0.00000000000E+00 -0.49608644065E+03  0.49608644065E+03  0.00000000000E+00 0. -1.
      99926    2    1    2    0    0  0.00000000000E+00  0.14210854715E-13 -0.37139609448E+03  0.62077678682E+03  0.49742211457E+03 0.  0.
         25    1    3    3    0    0  0.52562471272E+02 -0.91073898117E+02 -0.19605977026E+03  0.25523363790E+03  0.12509000000E+03 0.  0.
         25    1    3    3    0    0 -0.38935276843E+02  0.88084430294E+02 -0.10595971263E+02  0.15822327689E+03  0.12509000000E+03 0.  0.
         25    1    3    3    0    0 -0.13627194428E+02  0.29894678229E+01 -0.16474035296E+03  0.20731987203E+03  0.12509000000E+03 0.  0.
<mgrwt>
<rscale>  2 0.49742211E+03</rscale>
<asrwt>0</asrwt>
<pdfrwt beam="1">  1       21 0.18336815E-01 0.49742211E+03</pdfrwt>
<pdfrwt beam="2">  1       21 0.72953889E-01 0.49742211E+03</pdfrwt>
<totfact> 0.41618597E+04</totfact>
</mgrwt>
</event>
<event>
 6    0  0.3472812E-005  0.4562346E+03  0.7546771E-02  0.1025879E+00
         21   -1    0    0  502  501  0.00000000000E+00  0.00000000000E+00  0.14986782387E+03  0.14986782387E+03  0.00000000000E+00 0.  1.
         21   -1    0    0  501  502 -0.00000000000E+00 -0.00000000000E+00 -0.34722267134E+03  0.34722267134E+03  0.00000000000E+00 0.  1.
      99926    2    1    2    0    0 -0.17763568394E-14 -0.66613381478E-15 -0.19735484747E+03  0.49709049522E+03  0.45623461576E+03 0.  0.
         25    1    3    3    0    0  0.26575395678E+02  0.89173938864E+02 -0.78544233579E+02  0.17457075287E+03  0.12509000000E+03 0.  0.
         25    1    3    3    0    0  0.83604552220E+01  0.18731206121E+01 -0.17619109883E+01  0.12539544738E+03  0.12509000000E+03 0.  0.
         25    1    3    3    0    0 -0.34935850900E+02 -0.91047059476E+02 -0.11704870290E+03  0.19712429497E+03  0.12509000000E+03 0.  0.
<mgrwt>
<rscale>  2 0.45623462E+03</rscale>
<asrwt>0</asrwt>
<pdfrwt beam="1">  1       21 0.22039386E-01 0.45623462E+03</pdfrwt>
<pdfrwt beam="2">  1       21 0.51062156E-01 0.45623462E+03</pdfrwt>
<totfact> 0.64837744E+04</totfact>
</mgrwt>
</event>
<event>
 6    0  0.3472812E-005  0.4568403E+03  0.7546771E-02  0.1025702E+00
         21   -1    0    0  502  501  0.00000000000E+00  0.00000000000E+00  0.65752304931E+03  0.65752304931E+03  0.00000000000E+00 0. -1.
         21   -1    0    0  501  502 -0.00000000000E+00 -0.00000000000E+00 -0.79352001807E+02  0.79352001807E+02  0.00000000000E+00 0. -1.
      99926    2    1    2    0    0 -0.71054273576E-14  0.17763568394E-14  0.57817104750E+03  0.73687505111E+03  0.45684032307E+03 0.  0.
         25    1    3    3    0    0  0.48288484875E+02  0.43871613512E+02  0.21834767063E+03  0.25996097710E+03  0.12509000000E+03 0.  0.
         25    1    3    3    0    0 -0.57516730899E+02  0.37916584577E+01  0.63578474204E+02  0.15169799435E+03  0.12509000000E+03 0.  0.
         25    1    3    3    0    0  0.92282460241E+01 -0.47663271970E+02  0.29624490267E+03  0.32521607967E+03  0.12509000000E+03 0.  0.
<mgrwt>
<rscale>  2 0.45684032E+03</rscale>
<asrwt>0</asrwt>
<pdfrwt beam="1">  1       21 0.96694563E-01 0.45684032E+03</pdfrwt>
<pdfrwt beam="2">  1       21 0.11669412E-01 0.45684032E+03</pdfrwt>
<totfact> 0.50215684E+04</totfact>
</mgrwt>
</event>
<event>
 6    0  0.3472812E-005  0.4669785E+03  0.7546771E-02  0.1022776E+00
         21   -1    0    0  502  501  0.00000000000E+00  0.00000000000E+00  0.18137151408E+04  0.18137151408E+04  0.00000000000E+00 0.  1.
         21   -1    0    0  501  502 -0.00000000000E+00 -0.00000000000E+00 -0.30058322410E+02  0.30058322410E+02  0.00000000000E+00 0.  1.
      99926    2    1    2    0    0  0.00000000000E+00  0.71054273576E-14  0.17836568184E+04  0.18437734632E+04  0.46697851969E+03 0.  0.
         25    1    3    3    0    0 -0.81026077667E+02  0.38265051234E+02  0.43933675078E+03  0.46550373585E+03  0.12509000000E+03 0.  0.
         25    1    3    3    0    0  0.34108457465E+02 -0.70205524210E+02  0.93402033918E+03  0.94558643423E+03  0.12509000000E+03 0.  0.
         25    1    3    3    0    0  0.46917620202E+02  0.31940472976E+02  0.41029972844E+03  0.43268329313E+03  0.12509000000E+03 0.  0.
<mgrwt>
<rscale>  2 0.46697852E+03</rscale>
<asrwt>0</asrwt>
<pdfrwt beam="1">  1       21 0.26672274E+00 0.46697852E+03</pdfrwt>
<pdfrwt beam="2">  1       21 0.44203428E-02 0.46697852E+03</pdfrwt>
<totfact> 0.14989786E+04</totfact>
</mgrwt>
</event>
<event>
 5    0  0.3472812E-005  0.5798594E+03  0.7546771E-02  0.9948096E-01
         21   -1    0    0  502  501  0.00000000000E+00  0.00000000000E+00  0.12191971319E+04  0.12191971319E+04  0.00000000000E+00 0.  1.
         21   -1    0    0  501  502 -0.00000000000E+00 -0.00000000000E+00 -0.68946372627E+02  0.68946372627E+02  0.00000000000E+00 0.  1.
         25    1    1    2    0    0  0.27650238220E+02  0.11186528865E+03  0.14102088825E+03  0.22093613897E+03  0.12509000000E+03 0.  0.
         25    1    1    2    0    0 -0.13711497798E+02 -0.84632171751E+02  0.84504446695E+03  0.85854427311E+03  0.12509000000E+03 0.  0.
         25    1    1    2    0    0 -0.13938740422E+02 -0.27233116899E+02  0.16418540408E+03  0.20866309245E+03  0.12509000000E+03 0.  0.
<mgrwt>
<rscale>  2 0.57985936E+03</rscale>
<asrwt>0</asrwt>
<pdfrwt beam="1">  1       21 0.17929368E+00 0.57985936E+03</pdfrwt>
<pdfrwt beam="2">  1       21 0.10139173E-01 0.57985936E+03</pdfrwt>
<totfact> 0.12352117E+04</totfact>
</mgrwt>
</event>
<event>
 6    0  0.3472812E-005  0.4414970E+03  0.7546771E-02  0.1030288E+00
         21   -1    0    0  502  501  0.00000000000E+00  0.00000000000E+00  0.58152406861E+02  0.58152406861E+02  0.00000000000E+00 0.  1.
         21   -1    0    0  501  502 -0.00000000000E+00 -0.00000000000E+00 -0.83796871758E+03  0.83796871758E+03  0.00000000000E+00 0.  1.
      99926    2    1    2    0    0  0.00000000000E+00  0.00000000000E+00 -0.77981631072E+03  0.89612112444E+03  0.44149698890E+03 0.  0.
         25    1    3    3    0    0 -0.24818610698E+02  0.58249028639E+02 -0.31179423603E+03  0.34186556787E+03  0.12509000000E+03 0.  0.
         25    1    3    3    0    0 -0.46302227294E+02 -0.22464114744E+02 -0.14207543081E+03  0.19616694126E+03  0.12509000000E+03 0.  0.
         25    1    3    3    0    0  0.71120837992E+02 -0.35784913896E+02 -0.32594664388E+03  0.35808861531E+03  0.12509000000E+03 0.  0.
<mgrwt>
<rscale>  2 0.44149699E+03</rscale>
<asrwt>0</asrwt>
<pdfrwt beam="1">  1       21 0.85518249E-02 0.44149699E+03</pdfrwt>
<pdfrwt beam="2">  1       21 0.12323069E+00 0.44149699E+03</pdfrwt>
<totfact> 0.48308572E+04</totfact>
</mgrwt>
</event>
<event>
 6    0  0.3472812E-005  0.4540511E+03  0.7546771E-02  0.1026521E+00
         21   -1    0    0  502  501  0.00000000000E+00  0.00000000000E+00  0.30536602862E+02  0.30536602862E+02  0.00000000000E+00 0.  1.
         21   -1    0    0  501  502 -0.00000000000E+00 -0.00000000000E+00 -0.16878303379E+04  0.16878303379E+04  0.00000000000E+00 0.  1.
      99926    2    1    2    0    0  0.00000000000E+00  0.00000000000E+00 -0.16572937350E+04  0.17183669407E+04  0.45405111926E+03 0.  0.
         25    1    3    3    0    0 -0.99583297887E+02  0.51642834082E+02 -0.58134606254E+03  0.60514012266E+03  0.12509000000E+03 0.  0.
         25    1    3    3    0    0  0.65361878723E+02  0.28878354552E+01 -0.44809912114E+03  0.46980937118E+03  0.12509000000E+03 0.  0.
         25    1    3    3    0    0  0.34221419164E+02 -0.54530669537E+02 -0.62784855135E+03  0.64341744690E+03  0.12509000000E+03 0.  0.
<mgrwt>
<rscale>  2 0.45405112E+03</rscale>
<asrwt>0</asrwt>
<pdfrwt beam="1">  1       21 0.44906759E-02 0.45405112E+03</pdfrwt>
<pdfrwt beam="2">  1       21 0.24821040E+00 0.45405112E+03</pdfrwt>
<totfact> 0.19021766E+04</totfact>
</mgrwt>
</event>
<event>
 6    0  0.3472812E-005  0.4573368E+03  0.7546771E-02  0.1025556E+00
         21   -1    0    0  502  501  0.00000000000E+00  0.00000000000E+00  0.39219934129E+02  0.39219934129E+02  0.00000000000E+00 0. -1.
         21   -1    0    0  501  502 -0.00000000000E+00 -0.00000000000E+00 -0.13332313289E+04  0.13332313289E+04  0.00000000000E+00 0. -1.
      99926    2    1    2    0    0  0.00000000000E+00  0.00000000000E+00 -0.12940113948E+04  0.13724512631E+04  0.45733683385E+03 0.  0.
         25    1    3    3    0    0 -0.87401361294E+02 -0.33873293775E+02 -0.52658041994E+03  0.54929122035E+03  0.12509000000E+03 0.  0.
         25    1    3    3    0    0  0.96824703219E+02  0.21847049624E+02 -0.54038768216E+03  0.56348795183E+03  0.12509000000E+03 0.  0.
         25    1    3    3    0    0 -0.94233419243E+01  0.12026244151E+02 -0.22704329271E+03  0.25967209089E+03  0.12509000000E+03 0.  0.
<mgrwt>
<rscale>  2 0.45733683E+03</rscale>
<asrwt>0</asrwt>
<pdfrwt beam="1">  1       21 0.57676367E-02 0.45733683E+03</pdfrwt>
<pdfrwt beam="2">  1       21 0.19606345E+00 0.45733683E+03</pdfrwt>
<totfact> 0.26589255E+04</totfact>
</mgrwt>
</event>
<event>
 6    0  0.3472812E-005  0.4566486E+03  0.7546771E-02  0.1025758E+00
         21   -1    0    0  502  501  0.00000000000E+00  0.00000000000E+00  0.17389713160E+03  0.17389713160E+03  0.00000000000E+00 0. -1.
         21   -1    0    0  501  502 -0.00000000000E+00 -0.00000000000E+00 -0.29978632046E+03  0.29978632046E+03  0.00000000000E+00 0. -1.
      99926    2    1    2    0    0 -0.17763568394E-14  0.00000000000E+00 -0.12588918886E+03  0.47368345206E+03  0.45664857920E+03 0.  0.
         25    1    3    3    0    0 -0.13487991147E+02 -0.96110970836E+02 -0.10407433696E+03  0.18946825680E+03  0.12509000000E+03 0.  0.
         25    1    3    3    0    0 -0.38329895925E+02  0.49734357284E+02 -0.17230653022E+02  0.14102159664E+03  0.12509000000E+03 0.  0.
         25    1    3    3    0    0  0.51817887072E+02  0.46376613553E+02 -0.45841988765E+01  0.14319359862E+03  0.12509000000E+03 0.  0.
<mgrwt>
<rscale>  2 0.45664858E+03</rscale>
<asrwt>0</asrwt>
<pdfrwt beam="1">  1       21 0.25573108E-01 0.45664858E+03</pdfrwt>
<pdfrwt beam="2">  1       21 0.44086224E-01 0.45664858E+03</pdfrwt>
<totfact> 0.66291477E+04</totfact>
</mgrwt>
</event>
<event>
 6    0  0.3472812E-005  0.4549821E+03  0.7546771E-02  0.1026247E+00
         21   -1    0    0  502  501  0.00000000000E+00  0.00000000000E+00  0.54411856138E+03  0.54411856138E+03  0.00000000000E+00 0. -1.
         21   -1    0    0  501  502 -0.00000000000E+00 -0.00000000000E+00 -0.95111941713E+02  0.95111941713E+02  0.00000000000E+00 0. -1.
      99926    2    1    2    0    0  0.00000000000E+00  0.00000000000E+00  0.44900661967E+03  0.63923050309E+03  0.45498207831E+03 0.  0.
         25    1    3    3    0    0 -0.46445518154E+02 -0.20582971202E+02  0.22335254155E+03  0.26098795140E+03  0.12509000000E+03 0.  0.
         25    1    3    3    0    0  0.23357015568E+02 -0.59951733668E+02  0.55961241382E+02  0.15138999037E+03  0.12509000000E+03 0.  0.
         25    1    3    3    0    0  0.23088502586E+02  0.80534704871E+02  0.16969283673E+03  0.22685256132E+03  0.12509000000E+03 0.  0.
<mgrwt>
<rscale>  2 0.45498208E+03</rscale>
<asrwt>0</asrwt>
<pdfrwt beam="1">  1       21 0.80017434E-01 0.45498208E+03</pdfrwt>
<pdfrwt beam="2">  1       21 0.13987051E-01 0.45498208E+03</pdfrwt>
<totfact> 0.56334189E+04</totfact>
</mgrwt>
</event>
<event>
 6    0  0.3472812E-005  0.4546168E+03  0.7546771E-02  0.1026354E+00
         21   -1    0    0  502  501  0.00000000000E+00  0.00000000000E+00  0.45627870768E+03  0.45627870768E+03  0.00000000000E+00 0. -1.
         21   -1    0    0  501  502 -0.00000000000E+00 -0.00000000000E+00 -0.11324023451E+03  0.11324023451E+03  0.00000000000E+00 0. -1.
      99926    2    1    2    0    0  0.00000000000E+00  0.00000000000E+00  0.34303847318E+03  0.56951894219E+03  0.45461679625E+03 0.  0.
         25    1    3    3    0    0 -0.10552827166E+02  0.41212630123E+02  0.10643306967E+03  0.16966245743E+03  0.12509000000E+03 0.  0.
         25    1    3    3    0    0  0.24725611254E+02  0.57069441924E+02  0.37566059998E+02  0.14466165358E+03  0.12509000000E+03 0.  0.
         25    1    3    3    0    0 -0.14172784088E+02 -0.98282072047E+02  0.19903934351E+03  0.25519483118E+03  0.12509000000E+03 0.  0.
<mgrwt>
<rscale>  2 0.45461680E+03</rscale>
<asrwt>0</asrwt>
<pdfrwt beam="1">  1       21 0.67099810E-01 0.45461680E+03</pdfrwt>
<pdfrwt beam="2">  1       21 0.16652976E-01 0.45461680E+03</pdfrwt>
<totfact> 0.60778785E+04</totfact>
</mgrwt>
</event>
<event>
 6    0  0.3472812E-005  0.4575713E+03  0.7546771E-02  0.1025488E+00
         21   -1    0    0  502  501  0.00000000000E+00  0.00000000000E+00  0.32076523077E+03  0.32076523077E+03  0.00000000000E+00 0.  1.
         21   -1    0    0  501  502 -0.00000000000E+00 -0.00000000000E+00 -0.16318123071E+03  0.16318123071E+03  0.00000000000E+00 0.  1.
      99926    2    1    2    0    0  0.71054273576E-14  0.00000000000E+00  0.15758400006E+03  0.48394646147E+03  0.45757126275E+03 0.  0.
         25    1    3    3    0    0  0.43751904873E+02  0.39185479549E+02 -0.37014409118E+02  0.14306399117E+03  0.12509000000E+03 0.  0.
         25    1    3    3    0    0 -0.61635201559E+02 -0.85360725825E+01  0.14598393006E+03  0.20206577776E+03  0.12509000000E+03 0.  0.
         25    1    3    3    0    0  0.17883296686E+02 -0.30649406966E+02  0.48614479112E+02  0.13881669254E+03  0.12509000000E+03 0.  0.
<mgrwt>
<rscale>  2 0.45757126E+03</rscale>
<asrwt>0</asrwt>
<pdfrwt beam="1">  1       21 0.47171358E-01 0.45757126E+03</pdfrwt>
<pdfrwt beam="2">  1       21 0.23997240E-01 0.45757126E+03</pdfrwt>
<totfact> 0.65075524E+04</totfact>
</mgrwt>
</event>
<event>
 6    0  0.3472812E-005  0.4577484E+03  0.7546771E-02  0.1025436E+00
         21   -1    0    0  502  501  0.00000000000E+00  0.00000000000E+00  0.46404817366E+02  0.46404817366E+02  0.00000000000E+00 0.  1.
         21   -1    0    0  501  502 -0.00000000000E+00 -0.00000000000E+00 -0.11288356059E+04  0.11288356059E+04  0.00000000000E+00 0.  1.
      99926    2    1    2    0    0  0.00000000000E+00  0.71054273576E-14 -0.10824307886E+04  0.11752404233E+04  0.45774844677E+03 0.  0.
         25    1    3    3    0    0  0.43475716926E+02  0.15978603130E+02 -0.55102182777E+03  0.56693740087E+03  0.12509000000E+03 0.  0.
         25    1    3    3    0    0 -0.12235947676E+02 -0.37051775224E+02 -0.40823752113E+03  0.42875159967E+03  0.12509000000E+03 0.  0.
         25    1    3    3    0    0 -0.31239769250E+02  0.21073172093E+02 -0.12317143965E+03  0.17955142275E+03  0.12509000000E+03 0.  0.
<mgrwt>
<rscale>  2 0.45774845E+03</rscale>
<asrwt>0</asrwt>
<pdfrwt beam="1">  1       21 0.68242389E-02 0.45774845E+03</pdfrwt>
<pdfrwt beam="2">  1       21 0.16600521E+00 0.45774845E+03</pdfrwt>
<totfact> 0.32254439E+04</totfact>
</mgrwt>
</event>
<event>
 6    0  0.3472812E-005  0.4735471E+03  0.7546771E-02  0.1020924E+00
         21   -1    0    0  502  501  0.00000000000E+00  0.00000000000E+00  0.54142908076E+03  0.54142908076E+03  0.00000000000E+00 0. -1.
         21   -1    0    0  501  502 -0.00000000000E+00 -0.00000000000E+00 -0.10354396768E+03  0.10354396768E+03  0.00000000000E+00 0. -1.
      99926    2    1    2    0    0  0.00000000000E+00 -0.26645352591E-14  0.43788511308E+03  0.64497304844E+03  0.47354710532E+03 0.  0.
         25    1    3    3    0    0  0.39846418925E+02  0.27750591368E+02  0.19700550432E+03  0.23836213889E+03  0.12509000000E+03 0.  0.
         25    1    3    3    0    0  0.60079872470E+02 -0.79093707918E+01  0.19391873220E+03  0.23858778682E+03  0.12509000000E+03 0.  0.
         25    1    3    3    0    0 -0.99926291395E+02 -0.19841220576E+02  0.46960876565E+02  0.16802312274E+03  0.12509000000E+03 0.  0.
<mgrwt>
<rscale>  2 0.47354711E+03</rscale>
<asrwt>0</asrwt>
<pdfrwt beam="1">  1       21 0.79621923E-01 0.47354711E+03</pdfrwt>
<pdfrwt beam="2">  1       21 0.15227054E-01 0.47354711E+03</pdfrwt>
<totfact> 0.48494730E+04</totfact>
</mgrwt>
</event>
<event>
 6    0  0.3472812E-005  0.4544356E+03  0.7546771E-02  0.1026408E+00
         21   -1    0    0  502  501  0.00000000000E+00  0.00000000000E+00  0.14567673753E+03  0.14567673753E+03  0.00000000000E+00 0. -1.
         21   -1    0    0  501  502 -0.00000000000E+00 -0.00000000000E+00 -0.35440063193E+03  0.35440063193E+03  0.00000000000E+00 0. -1.
      99926    2    1    2    0    0 -0.35527136788E-14 -0.71054273576E-14 -0.20872389440E+03  0.50007736945E+03  0.45443559648E+03 0.  0.
         25    1    3    3    0    0  0.27734812286E+02 -0.10428586425E+03 -0.83495554497E+02  0.18510477308E+03  0.12509000000E+03 0.  0.
         25    1    3    3    0    0  0.31163725728E+02  0.60900831993E+02 -0.45962735793E+02  0.14980043498E+03  0.12509000000E+03 0.  0.
         25    1    3    3    0    0 -0.58898538014E+02  0.43385032261E+02 -0.79265604112E+02  0.16517216139E+03  0.12509000000E+03 0.  0.
<mgrwt>
<rscale>  2 0.45443560E+03</rscale>
<asrwt>0</asrwt>
<pdfrwt beam="1">  1       21 0.21423050E-01 0.45443560E+03</pdfrwt>
<pdfrwt beam="2">  1       21 0.52117740E-01 0.45443560E+03</pdfrwt>
<totfact> 0.65558452E+04</totfact>
</mgrwt>
</event>
<event>
 6    0  0.3472812E-005  0.4522793E+03  0.7546771E-02  0.1027045E+00
         21   -1    0    0  502  501  0.00000000000E+00  0.00000000000E+00  0.37845827356E+03  0.37845827356E+03  0.00000000000E+00 0. -1.
         21   -1    0    0  501  502 -0.00000000000E+00 -0.00000000000E+00 -0.13512489298E+03  0.13512489298E+03  0.00000000000E+00 0. -1.
      99926    2    1    2    0    0  0.00000000000E+00 -0.88817841970E-15  0.24333338059E+03  0.51358316654E+03  0.45227926644E+03 0.  0.
         25    1    3    3    0    0 -0.22422519139E+02  0.43004157880E+02  0.76517238683E+02  0.15444909477E+03  0.12509000000E+03 0.  0.
         25    1    3    3    0    0 -0.53996309499E+02 -0.42509297049E+01  0.36016769646E+01  0.13636037555E+03  0.12509000000E+03 0.  0.
         25    1    3    3    0    0  0.76418828638E+02 -0.38753228175E+02  0.16321446494E+03  0.22277369622E+03  0.12509000000E+03 0.  0.
<mgrwt>
<rscale>  2 0.45227927E+03</rscale>
<asrwt>0</asrwt>
<pdfrwt beam="1">  1       21 0.55655628E-01 0.45227927E+03</pdfrwt>
<pdfrwt beam="2">  1       21 0.19871308E-01 0.45227927E+03</pdfrwt>
<totfact> 0.65734281E+04</totfact>
</mgrwt>
</event>
<event>
 6    0  0.3472812E-005  0.4600947E+03  0.7546771E-02  0.1024754E+00
         21   -1    0    0  502  501  0.00000000000E+00  0.00000000000E+00  0.29266199784E+03  0.29266199784E+03  0.00000000000E+00 0. -1.
         21   -1    0    0  501  502 -0.00000000000E+00 -0.00000000000E+00 -0.18082899853E+03  0.18082899853E+03  0.00000000000E+00 0. -1.
      99926    2    1    2    0    0  0.14210854715E-13  0.00000000000E+00  0.11183299931E+03  0.47349099637E+03  0.46009466842E+03 0.  0.
         25    1    3    3    0    0 -0.10925731987E+03 -0.19810525190E+02  0.68501216743E+02  0.18074718158E+03  0.12509000000E+03 0.  0.
         25    1    3    3    0    0  0.43831636727E+02  0.25830382892E+02  0.64875694545E+02  0.14981583662E+03  0.12509000000E+03 0.  0.
         25    1    3    3    0    0  0.65425683142E+02 -0.60198577016E+01 -0.21543911980E+02  0.14292797817E+03  0.12509000000E+03 0.  0.
<mgrwt>
<rscale>  2 0.46009467E+03</rscale>
<asrwt>0</asrwt>
<pdfrwt beam="1">  1       21 0.43038529E-01 0.46009467E+03</pdfrwt>
<pdfrwt beam="2">  1       21 0.26592500E-01 0.46009467E+03</pdfrwt>
<totfact> 0.64529284E+04</totfact>
</mgrwt>
</event>
<event>
 6    0  0.3472812E-005  0.4499177E+03  0.7546771E-02  0.1027747E+00
         21   -1    0    0  502  501  0.00000000000E+00  0.00000000000E+00  0.11784418055E+03  0.11784418055E+03  0.00000000000E+00 0. -1.
         21   -1    0    0  501  502 -0.00000000000E+00 -0.00000000000E+00 -0.42943563102E+03  0.42943563102E+03  0.00000000000E+00 0. -1.
      99926    2    1    2    0    0  0.35527136788E-14 -0.14210854715E-13 -0.31159145048E+03  0.54727981157E+03  0.44991772598E+03 0.  0.
         25    1    3    3    0    0  0.29753237224E+02  0.82753824656E+02 -0.98021496434E+02  0.18162921704E+03  0.12509000000E+03 0.  0.
         25    1    3    3    0    0 -0.32683488977E+02 -0.19302698456E+01 -0.36699130781E+02  0.13441082804E+03  0.12509000000E+03 0.  0.
         25    1    3    3    0    0  0.29302517531E+01 -0.80823554810E+02 -0.17687082326E+03  0.23123976649E+03  0.12509000000E+03 0.  0.
<mgrwt>
<rscale>  2 0.44991773E+03</rscale>
<asrwt>0</asrwt>
<pdfrwt beam="1">  1       21 0.17330026E-01 0.44991773E+03</pdfrwt>
<pdfrwt beam="2">  1       21 0.63152299E-01 0.44991773E+03</pdfrwt>
<totfact> 0.64605671E+04</totfact>
</mgrwt>
</event>
<event>
 6    0  0.3472812E-005  0.4637858E+03  0.7546771E-02  0.1023689E+00
         21   -1    0    0  502  501  0.00000000000E+00  0.00000000000E+00  0.10277197418E+04  0.10277197418E+04  0.00000000000E+00 0. -1.
         21   -1    0    0  501  502 -0.00000000000E+00 -0.00000000000E+00 -0.52323909988E+02  0.52323909988E+02  0.00000000000E+00 0. -1.
      99926    2    1    2    0    0  0.17763568394E-14  0.00000000000E+00  0.97539583178E+03  0.10800436518E+04  0.46378579220E+03 0.  0.
         25    1    3    3    0    0  0.62777615060E+02  0.80016905168E+02  0.38103764283E+03  0.41374016897E+03  0.12509000000E+03 0.  0.
         25    1    3    3    0    0 -0.53999996473E+02  0.17941083194E+02  0.21814946112E+03  0.25782664248E+03  0.12509000000E+03 0.  0.
         25    1    3    3    0    0 -0.87776185866E+01 -0.97957988362E+02  0.37620872784E+03  0.40847684032E+03  0.12509000000E+03 0.  0.
<mgrwt>
<rscale>  2 0.46378579E+03</rscale>
<asrwt>0</asrwt>
<pdfrwt beam="1">  1       21 0.15113524E+00 0.46378579E+03</pdfrwt>
<pdfrwt beam="2">  1       21 0.76946933E-02 0.46378579E+03</pdfrwt>
<totfact> 0.33815568E+04</totfact>
</mgrwt>
</event>
<event>
 6    0  0.3472812E-005  0.4553723E+03  0.7546771E-02  0.1026132E+00
         21   -1    0    0  502  501  0.00000000000E+00  0.00000000000E+00  0.10638254985E+04  0.10638254985E+04  0.00000000000E+00 0. -1.
         21   -1    0    0  501  502 -0.00000000000E+00 -0.00000000000E+00 -0.48730711633E+02  0.48730711633E+02  0.00000000000E+00 0. -1.
      99926    2    1    2    0    0  0.17763568394E-14  0.00000000000E+00  0.10150947869E+04  0.11125562101E+04  0.45537225913E+03 0.  0.
         25    1    3    3    0    0  0.56545531954E+02  0.48229306372E+02  0.23690862252E+03  0.27802278090E+03  0.12509000000E+03 0.  0.
         25    1    3    3    0    0 -0.10072617116E+02 -0.74731886122E+02  0.54815325735E+03  0.56727930869E+03  0.12509000000E+03 0.  0.
         25    1    3    3    0    0 -0.46472914838E+02  0.26502579751E+02  0.23003290700E+03  0.26725412055E+03  0.12509000000E+03 0.  0.
<mgrwt>
<rscale>  2 0.45537226E+03</rscale>
<asrwt>0</asrwt>
<pdfrwt beam="1">  1       21 0.15644491E+00 0.45537226E+03</pdfrwt>
<pdfrwt beam="2">  1       21 0.71662818E-02 0.45537226E+03</pdfrwt>
<totfact> 0.34955781E+04</totfact>
</mgrwt>
</event>
<event>
 6    0  0.3472812E-005  0.4531883E+03  0.7546771E-02  0.1026776E+00
         21   -1    0    0  502  501  0.00000000000E+00  0.00000000000E+00  0.12456866589E+04  0.12456866589E+04  0.00000000000E+00 0. -1.
         21   -1    0    0  501  502 -0.00000000000E+00 -0.00000000000E+00 -0.41218148936E+02  0.41218148936E+02  0.00000000000E+00 0. -1.
      99926    2    1    2    0    0 -0.71054273576E-14  0.00000000000E+00  0.12044685100E+04  0.12869048079E+04  0.45318825331E+03 0.  0.
         25    1    3    3    0    0  0.51198932032E+01  0.16342781808E+02  0.27595560862E+03  0.30346714131E+03  0.12509000000E+03 0.  0.
         25    1    3    3    0    0 -0.67518447532E+02 -0.85256861671E+01  0.22610636264E+03  0.26721344167E+03  0.12509000000E+03 0.  0.
         25    1    3    3    0    0  0.62398554329E+02 -0.78170956404E+01  0.70240653874E+03  0.71622422490E+03  0.12509000000E+03 0.  0.
<mgrwt>
<rscale>  2 0.45318825E+03</rscale>
<asrwt>0</asrwt>
<pdfrwt beam="1">  1       21 0.18318919E+00 0.45318825E+03</pdfrwt>
<pdfrwt beam="2">  1       21 0.60614933E-02 0.45318825E+03</pdfrwt>
<totfact> 0.29916814E+04</totfact>
</mgrwt>
</event>
<event>
 6    0  0.3472812E-005  0.4593478E+03  0.7546771E-02  0.1024971E+00
         21   -1    0    0  502  501  0.00000000000E+00  0.00000000000E+00  0.12209567454E+03  0.12209567454E+03  0.00000000000E+00 0.  1.
         21   -1    0    0  501  502 -0.00000000000E+00 -0.00000000000E+00 -0.43203900437E+03  0.43203900437E+03  0.00000000000E+00 0.  1.
      99926    2    1    2    0    0  0.26645352591E-14  0.00000000000E+00 -0.30994332983E+03  0.55413467892E+03  0.45934777095E+03 0.  0.
         25    1    3    3    0    0  0.23607911328E+02 -0.42584579873E+01 -0.65443778951E+02  0.14319868800E+03  0.12509000000E+03 0.  0.
         25    1    3    3    0    0 -0.29351675091E+02 -0.80636293409E+02 -0.40586620673E+02  0.15703029811E+03  0.12509000000E+03 0.  0.
         25    1    3    3    0    0  0.57437637635E+01  0.84894751396E+02 -0.20391293021E+03  0.25390569281E+03  0.12509000000E+03 0.  0.
<mgrwt>
<rscale>  2 0.45934777E+03</rscale>
<asrwt>0</asrwt>
<pdfrwt beam="1">  1       21 0.17955246E-01 0.45934777E+03</pdfrwt>
<pdfrwt beam="2">  1       21 0.63535149E-01 0.45934777E+03</pdfrwt>
<totfact> 0.59520288E+04</totfact>
</mgrwt>
</event>
<event>
 6    0  0.3472812E-005  0.4555809E+03  0.7546771E-02  0.1026071E+00
         21   -1    0    0  502  501  0.00000000000E+00  0.00000000000E+00  0.11923699104E+03  0.11923699104E+03  0.00000000000E+00 0. -1.
         21   -1    0    0  501  502 -0.00000000000E+00 -0.00000000000E+00 -0.43517103097E+03  0.43517103097E+03  0.00000000000E+00 0. -1.
      99926    2    1    2    0    0  0.00000000000E+00  0.00000000000E+00 -0.31593403993E+03  0.55440802201E+03  0.45558087896E+03 0.  0.
         25    1    3    3    0    0  0.24816071949E+02  0.36920894023E+02 -0.50468280335E+02  0.14203360610E+03  0.12509000000E+03 0.  0.
         25    1    3    3    0    0 -0.22628971169E+02 -0.71882359846E+02 -0.23856815642E+03  0.27971667335E+03  0.12509000000E+03 0.  0.
         25    1    3    3    0    0 -0.21871007792E+01  0.34961465823E+02 -0.26897603174E+02  0.13265774255E+03  0.12509000000E+03 0.  0.
<mgrwt>
<rscale>  2 0.45558088E+03</rscale>
<asrwt>0</asrwt>
<pdfrwt beam="1">  1       21 0.17534852E-01 0.45558088E+03</pdfrwt>
<pdfrwt beam="2">  1       21 0.63995739E-01 0.45558088E+03</pdfrwt>
<totfact> 0.61294010E+04</totfact>
</mgrwt>
</event>
<event>
 6    0  0.3472812E-005  0.4310016E+03  0.7546771E-02  0.1033544E+00
         21   -1    0    0  502  501  0.00000000000E+00  0.00000000000E+00  0.44499107843E+02  0.44499107843E+02  0.00000000000E+00 0. -1.
         21   -1    0    0  501  502 -0.00000000000E+00 -0.00000000000E+00 -0.10436296975E+04  0.10436296975E+04  0.00000000000E+00 0. -1.
      99926    2    1    2    0    0  0.00000000000E+00  0.22204460493E-15 -0.99913058967E+03  0.10881288054E+04  0.43100157985E+03 0.  0.
         25    1    3    3    0    0  0.68945591510E+02 -0.13138396287E+01 -0.22759823271E+03  0.26870743272E+03  0.12509000000E+03 0.  0.
         25    1    3    3    0    0 -0.28100279111E+02 -0.13369270145E+02 -0.24915360726E+03  0.28052342359E+03  0.12509000000E+03 0.  0.
         25    1    3    3    0    0 -0.40845312399E+02  0.14683109774E+02 -0.52237874970E+03  0.53889794906E+03  0.12509000000E+03 0.  0.
<mgrwt>
<rscale>  2 0.43100158E+03</rscale>
<asrwt>0</asrwt>
<pdfrwt beam="1">  1       21 0.65439856E-02 0.43100158E+03</pdfrwt>
<pdfrwt beam="2">  1       21 0.15347497E+00 0.43100158E+03</pdfrwt>
<totfact> 0.43500228E+04</totfact>
</mgrwt>
</event>
<event>
 6    0  0.3472812E-005  0.4686563E+03  0.7546771E-02  0.1022300E+00
         21   -1    0    0  502  501  0.00000000000E+00  0.00000000000E+00  0.96978146377E+03  0.96978146377E+03  0.00000000000E+00 0.  1.
         21   -1    0    0  501  502 -0.00000000000E+00 -0.00000000000E+00 -0.56620670227E+02  0.56620670227E+02  0.00000000000E+00 0.  1.
      99926    2    1    2    0    0  0.14210854715E-13  0.00000000000E+00  0.91316079354E+03  0.10264021340E+04  0.46865627683E+03 0.  0.
         25    1    3    3    0    0 -0.91774236982E+02  0.66900751806E+01  0.21642963456E+03  0.26637673039E+03  0.12509000000E+03 0.  0.
         25    1    3    3    0    0  0.77971278250E+02 -0.24170271239E+02  0.21482252230E+03  0.26164851697E+03  0.12509000000E+03 0.  0.
         25    1    3    3    0    0  0.13802958732E+02  0.17480196058E+02  0.48190863668E+03  0.49837688664E+03  0.12509000000E+03 0.  0.
<mgrwt>
<rscale>  2 0.46865628E+03</rscale>
<asrwt>0</asrwt>
<pdfrwt beam="1">  1       21 0.14261491E+00 0.46865628E+03</pdfrwt>
<pdfrwt beam="2">  1       21 0.83265698E-02 0.46865628E+03</pdfrwt>
<totfact> 0.34344758E+04</totfact>
</mgrwt>
</event>
<event>
 6    0  0.3472812E-005  0.4601309E+03  0.7546771E-02  0.1024743E+00
         21   -1    0    0  502  501  0.00000000000E+00  0.00000000000E+00  0.19592821747E+02  0.19592821747E+02  0.00000000000E+00 0. -1.
         21   -1    0    0  501  502 -0.00000000000E+00 -0.00000000000E+00 -0.27015052764E+04  0.27015052764E+04  0.00000000000E+00 0. -1.
      99926    2    1    2    0    0  0.00000000000E+00  0.00000000000E+00 -0.26819124546E+04  0.27210980981E+04  0.46013090020E+03 0.  0.
         25    1    3    3    0    0 -0.40452283503E+01  0.64643042257E+01 -0.35767679805E+03  0.37899650534E+03  0.12509000000E+03 0.  0.
         25    1    3    3    0    0 -0.69762685782E+02 -0.52748102021E+01 -0.11938751788E+04  0.12024475484E+04  0.12509000000E+03 0.  0.
         25    1    3    3    0    0  0.73807914132E+02 -0.11894940235E+01 -0.11303604778E+04  0.11396540444E+04  0.12509000000E+03 0.  0.
<mgrwt>
<rscale>  2 0.46013090E+03</rscale>
<asrwt>0</asrwt>
<pdfrwt beam="1">  1       21 0.28812970E-02 0.46013090E+03</pdfrwt>
<pdfrwt beam="2">  1       21 0.39728023E+00 0.46013090E+03</pdfrwt>
<totfact> 0.49245848E+03</totfact>
</mgrwt>
</event>
<event>
 6    0  0.3472812E-005  0.4528583E+03  0.7546771E-02  0.1026873E+00
         21   -1    0    0  502  501  0.00000000000E+00  0.00000000000E+00  0.43055761967E+03  0.43055761967E+03  0.00000000000E+00 0. -1.
         21   -1    0    0  501  502 -0.00000000000E+00 -0.00000000000E+00 -0.11907852594E+03  0.11907852594E+03  0.00000000000E+00 0. -1.
      99926    2    1    2    0    0  0.00000000000E+00 -0.44408920985E-14  0.31147909374E+03  0.54963614561E+03  0.45285832964E+03 0.  0.
         25    1    3    3    0    0 -0.80276978536E+02  0.22752267936E+01  0.19854487086E+03  0.24802649815E+03  0.12509000000E+03 0.  0.
         25    1    3    3    0    0  0.74717449450E+01  0.31064426403E+02  0.34449145484E+02  0.13362289207E+03  0.12509000000E+03 0.  0.
         25    1    3    3    0    0  0.72805233591E+02 -0.33339653197E+02  0.78485077398E+02  0.16798675539E+03  0.12509000000E+03 0.  0.
<mgrwt>
<rscale>  2 0.45285833E+03</rscale>
<asrwt>0</asrwt>
<pdfrwt beam="1">  1       21 0.63317296E-01 0.45285833E+03</pdfrwt>
<pdfrwt beam="2">  1       21 0.17511548E-01 0.45285833E+03</pdfrwt>
<totfact> 0.62950482E+04</totfact>
</mgrwt>
</event>
<event>
 6    0  0.3472812E-005  0.4270391E+03  0.7546771E-02  0.1034799E+00
         21   -1    0    0  502  501  0.00000000000E+00  0.00000000000E+00  0.12263215043E+03  0.12263215043E+03  0.00000000000E+00 0. -1.
         21   -1    0    0  501  502 -0.00000000000E+00 -0.00000000000E+00 -0.37176711283E+03  0.37176711283E+03  0.00000000000E+00 0. -1.
      99926    2    1    2    0    0 -0.35527136788E-14  0.17763568394E-14 -0.24913496240E+03  0.49439926327E+03  0.42703911065E+03 0.  0.
         25    1    3    3    0    0  0.27701315618E+02 -0.22276807546E+02 -0.77113317326E+01  0.13027122391E+03  0.12509000000E+03 0.  0.
         25    1    3    3    0    0  0.49889406715E+01  0.88931984710E+01 -0.18231545934E+03  0.22133778106E+03  0.12509000000E+03 0.  0.
         25    1    3    3    0    0 -0.32690256290E+02  0.13383609075E+02 -0.59108171327E+02  0.14279025830E+03  0.12509000000E+03 0.  0.
<mgrwt>
<rscale>  2 0.42703911E+03</rscale>
<asrwt>0</asrwt>
<pdfrwt beam="1">  1       21 0.18034139E-01 0.42703911E+03</pdfrwt>
<pdfrwt beam="2">  1       21 0.54671635E-01 0.42703911E+03</pdfrwt>
<totfact> 0.82505336E+04</totfact>
</mgrwt>
</event>
<event>
 6    0  0.3472812E-005  0.4506924E+03  0.7546771E-02  0.1027516E+00
         21   -1    0    0  502  501  0.00000000000E+00  0.00000000000E+00  0.13981961416E+04  0.13981961416E+04  0.00000000000E+00 0.  1.
         21   -1    0    0  501  502 -0.00000000000E+00 -0.00000000000E+00 -0.36318877006E+02  0.36318877006E+02  0.00000000000E+00 0.  1.
      99926    2    1    2    0    0  0.00000000000E+00  0.00000000000E+00  0.13618772646E+04  0.14345150186E+04  0.45069241706E+03 0.  0.
         25    1    3    3    0    0  0.40748041621E+02 -0.23329701185E+02  0.32623982378E+03  0.35254022263E+03  0.12509000000E+03 0.  0.
         25    1    3    3    0    0 -0.90816828029E+02  0.42150623423E+02  0.38046164182E+03  0.41282313441E+03  0.12509000000E+03 0.  0.
         25    1    3    3    0    0  0.50068786408E+02 -0.18820922238E+02  0.65517579903E+03  0.66915166159E+03  0.12509000000E+03 0.  0.
<mgrwt>
<rscale>  2 0.45069242E+03</rscale>
<asrwt>0</asrwt>
<pdfrwt beam="1">  1       21 0.20561704E+00 0.45069242E+03</pdfrwt>
<pdfrwt beam="2">  1       21 0.53410122E-02 0.45069242E+03</pdfrwt>
<totfact> 0.26295784E+04</totfact>
</mgrwt>
</event>
<event>
 6    0  0.3472812E-005  0.4580637E+03  0.7546771E-02  0.1025344E+00
         21   -1    0    0  502  501  0.00000000000E+00  0.00000000000E+00  0.58484933749E+03  0.58484933749E+03  0.00000000000E+00 0.  1.
         21   -1    0    0  501  502 -0.00000000000E+00 -0.00000000000E+00 -0.89690784760E+02  0.89690784760E+02  0.00000000000E+00 0.  1.
      99926    2    1    2    0    0  0.00000000000E+00  0.00000000000E+00  0.49515855273E+03  0.67454012225E+03  0.45806373376E+03 0.  0.
         25    1    3    3    0    0  0.85945349231E+02  0.22065618928E+02  0.24593380195E+03  0.28983519047E+03  0.12509000000E+03 0.  0.
         25    1    3    3    0    0 -0.10114907846E+03 -0.27596427313E+02  0.10991299404E+03  0.19677670907E+03  0.12509000000E+03 0.  0.
         25    1    3    3    0    0  0.15203729234E+02  0.55308083842E+01  0.13931175675E+03  0.18792822271E+03  0.12509000000E+03 0.  0.
<mgrwt>
<rscale>  2 0.45806373E+03</rscale>
<asrwt>0</asrwt>
<pdfrwt beam="1">  1       21 0.86007254E-01 0.45806373E+03</pdfrwt>
<pdfrwt beam="2">  1       21 0.13189821E-01 0.45806373E+03</pdfrwt>
<totfact> 0.53015654E+04</totfact>
</mgrwt>
</event>
<event>
 6    0  0.3472812E-005  0.4519539E+03  0.7546771E-02  0.1027141E+00
         21   -1    0    0  502  501  0.00000000000E+00  0.00000000000E+00  0.38267232581E+03  0.38267232581E+03  0.00000000000E+00 0. -1.
         21   -1    0    0  501  502 -0.00000000000E+00 -0.00000000000E+00 -0.13344464202E+03  0.13344464202E+03  0.00000000000E+00 0. -1.
      99926    2    1    2    0    0  0.00000000000E+00  0.35527136788E-14  0.24922768379E+03  0.51611696783E+03  0.45195385397E+03 0.  0.
         25    1    3    3    0    0 -0.45257614758E+02 -0.25242446278E+02  0.96092984727E+02  0.16603253477E+03  0.12509000000E+03 0.  0.
         25    1    3    3    0    0  0.99341610107E+02  0.56690343329E+02  0.11594643514E+03  0.20536220307E+03  0.12509000000E+03 0.  0.
         25    1    3    3    0    0 -0.54083995349E+02 -0.31447897050E+02  0.37188263915E+02  0.14472223000E+03  0.12509000000E+03 0.  0.
<mgrwt>
<rscale>  2 0.45195385E+03</rscale>
<asrwt>0</asrwt>
<pdfrwt beam="1">  1       21 0.56275342E-01 0.45195385E+03</pdfrwt>
<pdfrwt beam="2">  1       21 0.19624212E-01 0.45195385E+03</pdfrwt>
<totfact> 0.65726850E+04</totfact>
</mgrwt>
</event>
<event>
 6    0  0.3472812E-005  0.4595366E+03  0.7546771E-02  0.1024916E+00
         21   -1    0    0  502  501  0.00000000000E+00  0.00000000000E+00  0.18698931822E+03  0.18698931822E+03  0.00000000000E+00 0.  1.
         21   -1    0    0  501  502 -0.00000000000E+00 -0.00000000000E+00 -0.28233420215E+03  0.28233420215E+03  0.00000000000E+00 0.  1.
      99926    2    1    2    0    0  0.00000000000E+00  0.00000000000E+00 -0.95344883929E+02  0.46932352036E+03  0.45953663605E+03 0.  0.
         25    1    3    3    0    0 -0.13603787908E+02 -0.95960169324E+02 -0.23211580187E+02  0.15993655835E+03  0.12509000000E+03 0.  0.
         25    1    3    3    0    0 -0.56437053597E+02  0.25227908485E+02 -0.18425922706E+02  0.14074306773E+03  0.12509000000E+03 0.  0.
         25    1    3    3    0    0  0.70040841506E+02  0.70732260839E+02 -0.53707381036E+02  0.16864389429E+03  0.12509000000E+03 0.  0.
<mgrwt>
<rscale>  2 0.45953664E+03</rscale>
<asrwt>0</asrwt>
<pdfrwt beam="1">  1       21 0.27498429E-01 0.45953664E+03</pdfrwt>
<pdfrwt beam="2">  1       21 0.41519735E-01 0.45953664E+03</pdfrwt>
<totfact> 0.65110641E+04</totfact>
</mgrwt>
</event>
<event>
 6    0  0.3472812E-005  0.4573036E+03  0.7546771E-02  0.1025566E+00
         21   -1    0    0  502  501  0.00000000000E+00  0.00000000000E+00  0.19576124047E+03  0.19576124047E+03  0.00000000000E+00 0.  1.
         21   -1    0    0  501  502 -0.00000000000E+00 -0.00000000000E+00 -0.26706840996E+03  0.26706840996E+03  0.00000000000E+00 0.  1.
      99926    2    1    2    0    0  0.14210854715E-13  0.17763568394E-14 -0.71307169483E+02  0.46282965043E+03  0.45730358942E+03 0.  0.
         25    1    3    3    0    0  0.81030600713E+02 -0.18584925133E+02 -0.19649203500E+02  0.15147592876E+03  0.12509000000E+03 0.  0.
         25    1    3    3    0    0 -0.80376471609E+02  0.10015435961E+02  0.42024330978E+02  0.15483616709E+03  0.12509000000E+03 0.  0.
         25    1    3    3    0    0 -0.65412910440E+00  0.85694891721E+01 -0.93682296961E+02  0.15651755459E+03  0.12509000000E+03 0.  0.
<mgrwt>
<rscale>  2 0.45730359E+03</rscale>
<asrwt>0</asrwt>
<pdfrwt beam="1">  1       21 0.28788418E-01 0.45730359E+03</pdfrwt>
<pdfrwt beam="2">  1       21 0.39274766E-01 0.45730359E+03</pdfrwt>
<totfact> 0.66740337E+04</totfact>
</mgrwt>
</event>
<event>
 6    0  0.3472812E-005  0.4808544E+03  0.7546771E-02  0.1018901E+00
         21   -1    0    0  502  501  0.00000000000E+00  0.00000000000E+00  0.32712369337E+03  0.32712369337E+03  0.00000000000E+00 0.  1.
         21   -1    0    0  501  502 -0.00000000000E+00 -0.00000000000E+00 -0.17670761188E+03  0.17670761188E+03  0.00000000000E+00 0.  1.
      99926    2    1    2    0    0  0.00000000000E+00  0.53290705182E-14  0.15041608149E+03  0.50383130525E+03  0.48085443388E+03 0.  0.
         25    1    3    3    0    0 -0.36352888512E+02  0.93800622144E+02  0.10373723872E+03  0.19112564458E+03  0.12509000000E+03 0.  0.
         25    1    3    3    0    0  0.85587464152E+02 -0.12462007300E+02  0.23217974120E+02  0.15384114556E+03  0.12509000000E+03 0.  0.
         25    1    3    3    0    0 -0.49234575640E+02 -0.81338614843E+02  0.23460868646E+02  0.15886451511E+03  0.12509000000E+03 0.  0.
<mgrwt>
<rscale>  2 0.48085443E+03</rscale>
<asrwt>0</asrwt>
<pdfrwt beam="1">  1       21 0.48106426E-01 0.48085443E+03</pdfrwt>
<pdfrwt beam="2">  1       21 0.25986413E-01 0.48085443E+03</pdfrwt>
<totfact> 0.53213249E+04</totfact>
</mgrwt>
</event>
<event>
 6    0  0.3472812E-005  0.4479075E+03  0.7546771E-02  0.1028348E+00
         21   -1    0    0  502  501  0.00000000000E+00  0.00000000000E+00  0.78507940204E+02  0.78507940204E+02  0.00000000000E+00 0.  1.
         21   -1    0    0  501  502 -0.00000000000E+00 -0.00000000000E+00 -0.63885623786E+03  0.63885623786E+03  0.00000000000E+00 0.  1.
      99926    2    1    2    0    0  0.00000000000E+00 -0.17763568394E-14 -0.56034829766E+03  0.71736417806E+03  0.44790752314E+03 0.  0.
         25    1    3    3    0    0  0.27464337297E+02  0.21467526547E+02 -0.15629316501E+03  0.20319991645E+03  0.12509000000E+03 0.  0.
         25    1    3    3    0    0  0.70502629020E+02 -0.30477361446E+02 -0.26449136909E+03  0.30249410355E+03  0.12509000000E+03 0.  0.
         25    1    3    3    0    0 -0.97966966317E+02  0.90098348987E+01 -0.13956376356E+03  0.21167015806E+03  0.12509000000E+03 0.  0.
<mgrwt>
<rscale>  2 0.44790752E+03</rscale>
<asrwt>0</asrwt>
<pdfrwt beam="1">  1       21 0.11545285E-01 0.44790752E+03</pdfrwt>
<pdfrwt beam="2">  1       21 0.93949450E-01 0.44790752E+03</pdfrwt>
<totfact> 0.54973715E+04</totfact>
</mgrwt>
</event>
<event>
 6    0  0.3472812E-005  0.4531981E+03  0.7546771E-02  0.1026773E+00
         21   -1    0    0  502  501  0.00000000000E+00  0.00000000000E+00  0.61193764608E+03  0.61193764608E+03  0.00000000000E+00 0. -1.
         21   -1    0    0  501  502 -0.00000000000E+00 -0.00000000000E+00 -0.83909094297E+02  0.83909094297E+02  0.00000000000E+00 0. -1.
      99926    2    1    2    0    0  0.35527136788E-14  0.35527136788E-14  0.52802855178E+03  0.69584674038E+03  0.45319811848E+03 0.  0.
         25    1    3    3    0    0  0.63317059162E+01  0.47235431305E+02  0.10337861456E+03  0.16913285464E+03  0.12509000000E+03 0.  0.
         25    1    3    3    0    0 -0.21647613725E+02 -0.25566463003E+02  0.36170490157E+03  0.38418772381E+03  0.12509000000E+03 0.  0.
         25    1    3    3    0    0  0.15315907809E+02 -0.21668968302E+02  0.62945035654E+02  0.14252616192E+03  0.12509000000E+03 0.  0.
<mgrwt>
<rscale>  2 0.45319812E+03</rscale>
<asrwt>0</asrwt>
<pdfrwt beam="1">  1       21 0.89990828E-01 0.45319812E+03</pdfrwt>
<pdfrwt beam="2">  1       21 0.12339573E-01 0.45319812E+03</pdfrwt>
<totfact> 0.53889255E+04</totfact>
</mgrwt>
</event>
<event>
 6    0  0.3472812E-005  0.4525110E+03  0.7546771E-02  0.1026976E+00
         21   -1    0    0  502  501  0.00000000000E+00  0.00000000000E+00  0.27612149023E+03  0.27612149023E+03  0.00000000000E+00 0. -1.
         21   -1    0    0  501  502 -0.00000000000E+00 -0.00000000000E+00 -0.18539499672E+03  0.18539499672E+03  0.00000000000E+00 0. -1.
      99926    2    1    2    0    0  0.00000000000E+00 -0.35527136788E-14  0.90726493503E+02  0.46151648695E+03  0.45251096241E+03 0.  0.
         25    1    3    3    0    0  0.74825444379E+02  0.24439547000E+02  0.83029503950E+02  0.16952151843E+03  0.12509000000E+03 0.  0.
         25    1    3    3    0    0 -0.84565867255E+02  0.21945906709E+02  0.32356425123E+02  0.15597261001E+03  0.12509000000E+03 0.  0.
         25    1    3    3    0    0  0.97404228762E+01 -0.46385453709E+02 -0.24659435571E+02  0.13602235852E+03  0.12509000000E+03 0.  0.
<mgrwt>
<rscale>  2 0.45251096E+03</rscale>
<asrwt>0</asrwt>
<pdfrwt beam="1">  1       21 0.40606102E-01 0.45251096E+03</pdfrwt>
<pdfrwt beam="2">  1       21 0.27263970E-01 0.45251096E+03</pdfrwt>
<totfact> 0.69433274E+04</totfact>
</mgrwt>
</event>
<event>
 6    0  0.3472812E-005  0.4583077E+03  0.7546771E-02  0.1025273E+00
         21   -1    0    0  502  501  0.00000000000E+00  0.00000000000E+00  0.33082481326E+03  0.33082481326E+03  0.00000000000E+00 0.  1.
         21   -1    0    0  501  502 -0.00000000000E+00 -0.00000000000E+00 -0.15872895420E+03  0.15872895420E+03  0.00000000000E+00 0.  1.
      99926    2    1    2    0    0  0.14210854715E-13 -0.17763568394E-14  0.17209585906E+03  0.48955376746E+03  0.45830765489E+03 0.  0.
         25    1    3    3    0    0  0.76162190451E+02 -0.10330988840E+02  0.83360690143E+02  0.16883104379E+03  0.12509000000E+03 0.  0.
         25    1    3    3    0    0  0.40333438242E+02  0.14863867486E+00  0.68737330545E+02  0.14832106069E+03  0.12509000000E+03 0.  0.
         25    1    3    3    0    0 -0.11649562869E+03  0.10182350165E+02  0.19997838371E+02  0.17240166298E+03  0.12509000000E+03 0.  0.
<mgrwt>
<rscale>  2 0.45830765E+03</rscale>
<asrwt>0</asrwt>
<pdfrwt beam="1">  1       21 0.48650708E-01 0.45830765E+03</pdfrwt>
<pdfrwt beam="2">  1       21 0.23342493E-01 0.45830765E+03</pdfrwt>
<totfact> 0.64305751E+04</totfact>
</mgrwt>
</event>
<event>
 6    0  0.3472812E-005  0.4544634E+03  0.7546771E-02  0.1026399E+00
         21   -1    0    0  502  501  0.00000000000E+00  0.00000000000E+00  0.10925757841E+03  0.10925757841E+03  0.00000000000E+00 0.  1.
         21   -1    0    0  501  502 -0.00000000000E+00 -0.00000000000E+00 -0.47259186381E+03  0.47259186381E+03  0.00000000000E+00 0.  1.
      99926    2    1    2    0    0  0.71054273576E-14  0.00000000000E+00 -0.36333428540E+03  0.58184944223E+03  0.45446338738E+03 0.  0.
         25    1    3    3    0    0 -0.59067442230E+02 -0.46620793745E+02 -0.13505487694E+03  0.19887128759E+03  0.12509000000E+03 0.  0.
         25    1    3    3    0    0 -0.41670994414E+02  0.22376963461E+02 -0.52575515199E+02  0.14369722742E+03  0.12509000000E+03 0.  0.
         25    1    3    3    0    0  0.10073843664E+03  0.24243830284E+02 -0.17570389326E+03  0.23928092722E+03  0.12509000000E+03 0.  0.
<mgrwt>
<rscale>  2 0.45446339E+03</rscale>
<asrwt>0</asrwt>
<pdfrwt beam="1">  1       21 0.16067291E-01 0.45446339E+03</pdfrwt>
<pdfrwt beam="2">  1       21 0.69498805E-01 0.45446339E+03</pdfrwt>
<totfact> 0.60064015E+04</totfact>
</mgrwt>
</event>
<event>
 6    0  0.3472812E-005  0.4540382E+03  0.7546771E-02  0.1026525E+00
         21   -1    0    0  502  501  0.00000000000E+00  0.00000000000E+00  0.83727178085E+02  0.83727178085E+02  0.00000000000E+00 0. -1.
         21   -1    0    0  501  502 -0.00000000000E+00 -0.00000000000E+00 -0.61554298625E+03  0.61554298625E+03  0.00000000000E+00 0. -1.
      99926    2    1    2    0    0  0.53290705182E-14  0.14210854715E-13 -0.53181580817E+03  0.69927016434E+03  0.45403822407E+03 0.  0.
         25    1    3    3    0    0 -0.71415597826E+02 -0.30307035171E+01 -0.17150261325E+03  0.22398666753E+03  0.12509000000E+03 0.  0.
         25    1    3    3    0    0  0.66194457783E+01  0.80593426546E+02 -0.18138244891E+03  0.23470453412E+03  0.12509000000E+03 0.  0.
         25    1    3    3    0    0  0.64796152047E+02 -0.77562723028E+02 -0.17893074600E+03  0.24057896269E+03  0.12509000000E+03 0.  0.
<mgrwt>
<rscale>  2 0.45403822E+03</rscale>
<asrwt>0</asrwt>
<pdfrwt beam="1">  1       21 0.12312821E-01 0.45403822E+03</pdfrwt>
<pdfrwt beam="2">  1       21 0.90521026E-01 0.45403822E+03</pdfrwt>
<totfact> 0.53345233E+04</totfact>
</mgrwt>
</event>
<event>
 6    0  0.3472812E-005  0.4492289E+03  0.7546771E-02  0.1027952E+00
         21   -1    0    0  502  501  0.00000000000E+00  0.00000000000E+00  0.12362539830E+03  0.12362539830E+03  0.00000000000E+00 0.  1.
         21   -1    0    0  501  502 -0.00000000000E+00 -0.00000000000E+00 -0.40810097925E+03  0.40810097925E+03  0.00000000000E+00 0.  1.
      99926    2    1    2    0    0  0.00000000000E+00  0.71054273576E-14 -0.28447558095E+03  0.53172637754E+03  0.44922887754E+03 0.  0.
         25    1    3    3    0    0 -0.56025116043E+02  0.38536457943E+02 -0.35649126258E+02  0.14677275129E+03  0.12509000000E+03 0.  0.
         25    1    3    3    0    0  0.47883933255E+02 -0.85812597840E+02 -0.14805649509E+03  0.21731292380E+03  0.12509000000E+03 0.  0.
         25    1    3    3    0    0  0.81411827878E+01  0.47276139897E+02 -0.10076995960E+03  0.16764070245E+03  0.12509000000E+03 0.  0.
<mgrwt>
<rscale>  2 0.44922888E+03</rscale>
<asrwt>0</asrwt>
<pdfrwt beam="1">  1       21 0.18180206E-01 0.44922888E+03</pdfrwt>
<pdfrwt beam="2">  1       21 0.60014850E-01 0.44922888E+03</pdfrwt>
<totfact> 0.66056675E+04</totfact>
</mgrwt>
</event>
<event>
 6    0  0.3472812E-005  0.4410327E+03  0.7546771E-02  0.1030430E+00
         21   -1    0    0  502  501  0.00000000000E+00  0.00000000000E+00  0.52690292956E+03  0.52690292956E+03  0.00000000000E+00 0. -1.
         21   -1    0    0  501  502 -0.00000000000E+00 -0.00000000000E+00 -0.92289226832E+02  0.92289226832E+02  0.00000000000E+00 0. -1.
      99926    2    1    2    0    0 -0.88817841970E-15  0.35527136788E-14  0.43461370272E+03  0.61919215639E+03  0.44103271527E+03 0.  0.
         25    1    3    3    0    0  0.30998582785E+01  0.19680578133E+01  0.64421627010E+02  0.14075203906E+03  0.12509000000E+03 0.  0.
         25    1    3    3    0    0 -0.12477073718E+02  0.83818270172E+02  0.18133465316E+03  0.23603165957E+03  0.12509000000E+03 0.  0.
         25    1    3    3    0    0  0.93772154399E+01 -0.85786327985E+02  0.18885742256E+03  0.24240845776E+03  0.12509000000E+03 0.  0.
<mgrwt>
<rscale>  2 0.44103272E+03</rscale>
<asrwt>0</asrwt>
<pdfrwt beam="1">  1       21 0.77485724E-01 0.44103272E+03</pdfrwt>
<pdfrwt beam="2">  1       21 0.13571945E-01 0.44103272E+03</pdfrwt>
<totfact> 0.64317410E+04</totfact>
</mgrwt>
</event>
<event>
 6    0  0.3472812E-005  0.4516147E+03  0.7546771E-02  0.1027242E+00
         21   -1    0    0  502  501  0.00000000000E+00  0.00000000000E+00  0.65940205208E+03  0.65940205208E+03  0.00000000000E+00 0.  1.
         21   -1    0    0  501  502 -0.00000000000E+00 -0.00000000000E+00 -0.77326063736E+02  0.77326063736E+02  0.00000000000E+00 0.  1.
      99926    2    1    2    0    0  0.71054273576E-14  0.00000000000E+00  0.58207598835E+03  0.73672811582E+03  0.45161472565E+03 0.  0.
         25    1    3    3    0    0  0.59560945527E+02  0.63600612433E+02  0.23545765775E+03  0.28050019756E+03  0.12509000000E+03 0.  0.
         25    1    3    3    0    0 -0.25021781783E+02  0.18060826507E+02  0.89541976438E+02  0.15689983003E+03  0.12509000000E+03 0.  0.
         25    1    3    3    0    0 -0.34539163744E+02 -0.81661438940E+02  0.25707635416E+03  0.29932808824E+03  0.12509000000E+03 0.  0.
<mgrwt>
<rscale>  2 0.45161473E+03</rscale>
<asrwt>0</asrwt>
<pdfrwt beam="1">  1       21 0.96970887E-01 0.45161473E+03</pdfrwt>
<pdfrwt beam="2">  1       21 0.11371480E-01 0.45161473E+03</pdfrwt>
<totfact> 0.52332836E+04</totfact>
</mgrwt>
</event>
<event>
 6    0  0.3472812E-005  0.4761919E+03  0.7546771E-02  0.1020187E+00
         21   -1    0    0  502  501  0.00000000000E+00  0.00000000000E+00  0.70383503101E+03  0.70383503101E+03  0.00000000000E+00 0.  1.
         21   -1    0    0  501  502 -0.00000000000E+00 -0.00000000000E+00 -0.80544002722E+02  0.80544002722E+02  0.00000000000E+00 0.  1.
      99926    2    1    2    0    0  0.00000000000E+00  0.71054273576E-14  0.62329102828E+03  0.78437903373E+03  0.47619193884E+03 0.  0.
         25    1    3    3    0    0 -0.69819535360E+02  0.55084505353E+02  0.15952057348E+03  0.22136709718E+03  0.12509000000E+03 0.  0.
         25    1    3    3    0    0 -0.20057293334E+02 -0.96538002801E+02  0.21714010190E+03  0.26929391555E+03  0.12509000000E+03 0.  0.
         25    1    3    3    0    0  0.89876828694E+02  0.41453497449E+02  0.24663035291E+03  0.29371802100E+03  0.12509000000E+03 0.  0.
<mgrwt>
<rscale>  2 0.47619194E+03</rscale>
<asrwt>0</asrwt>
<pdfrwt beam="1">  1       21 0.10350515E+00 0.47619194E+03</pdfrwt>
<pdfrwt beam="2">  1       21 0.11844707E-01 0.47619194E+03</pdfrwt>
<totfact> 0.41231804E+04</totfact>
</mgrwt>
</event>
<event>
 6    0  0.3472812E-005  0.4596496E+03  0.7546771E-02  0.1024883E+00
         21   -1    0    0  502  501  0.00000000000E+00  0.00000000000E+00  0.28476545627E+03  0.28476545627E+03  0.00000000000E+00 0. -1.
         21   -1    0    0  501  502 -0.00000000000E+00 -0.00000000000E+00 -0.18548401196E+03  0.18548401196E+03  0.00000000000E+00 0. -1.
      99926    2    1    2    0    0  0.00000000000E+00  0.00000000000E+00  0.99281444306E+02  0.47024946823E+03  0.45964960262E+03 0.  0.
         25    1    3    3    0    0  0.36767101478E+02 -0.92653385919E+02  0.35789758107E+01  0.15998995856E+03  0.12509000000E+03 0.  0.
         25    1    3    3    0    0 -0.15543352544E+02 -0.10981221069E+02  0.14325010155E+02  0.12733772827E+03  0.12509000000E+03 0.  0.
         25    1    3    3    0    0 -0.21223748933E+02  0.10363460699E+03  0.81377458340E+02  0.18292178140E+03  0.12509000000E+03 0.  0.
<mgrwt>
<rscale>  2 0.45964960E+03</rscale>
<asrwt>0</asrwt>
<pdfrwt beam="1">  1       21 0.41877273E-01 0.45964960E+03</pdfrwt>
<pdfrwt beam="2">  1       21 0.27277060E-01 0.45964960E+03</pdfrwt>
<totfact> 0.64987112E+04</totfact>
</mgrwt>
</event>
<event>
 6    0  0.3472812E-005  0.4546886E+03  0.7546771E-02  0.1026333E+00
         21   -1    0    0  502  501  0.00000000000E+00  0.00000000000E+00  0.97663060748E+02  0.97663060748E+02  0.00000000000E+00 0.  1.
         21   -1    0    0  501  502 -0.00000000000E+00 -0.00000000000E+00 -0.52922185202E+03  0.52922185202E+03  0.00000000000E+00 0.  1.
      99926    2    1    2    0    0  0.00000000000E+00  0.00000000000E+00 -0.43155879127E+03  0.62688491276E+03  0.45468857862E+03 0.  0.
         25    1    3    3    0    0  0.47512161052E+02 -0.68498932941E+02 -0.17106870376E+03  0.22773124241E+03  0.12509000000E+03 0.  0.
         25    1    3    3    0    0  0.17533817071E+02  0.32949343275E+02 -0.20599364163E+03  0.24387288176E+03  0.12509000000E+03 0.  0.
         25    1    3    3    0    0 -0.65045978122E+02  0.35549589666E+02 -0.54496445874E+02  0.15528078860E+03  0.12509000000E+03 0.  0.
<mgrwt>
<rscale>  2 0.45468858E+03</rscale>
<asrwt>0</asrwt>
<pdfrwt beam="1">  1       21 0.14362215E-01 0.45468858E+03</pdfrwt>
<pdfrwt beam="2">  1       21 0.77826743E-01 0.45468858E+03</pdfrwt>
<totfact> 0.57193697E+04</totfact>
</mgrwt>
</event>
<event>
 6    0  0.3472812E-005  0.4527142E+03  0.7546771E-02  0.1026916E+00
         21   -1    0    0  502  501  0.00000000000E+00  0.00000000000E+00  0.13675267940E+03  0.13675267940E+03  0.00000000000E+00 0.  1.
         21   -1    0    0  501  502 -0.00000000000E+00 -0.00000000000E+00 -0.37467301479E+03  0.37467301479E+03  0.00000000000E+00 0.  1.
      99926    2    1    2    0    0  0.00000000000E+00  0.00000000000E+00 -0.23792033539E+03  0.51142569419E+03  0.45271420862E+03 0.  0.
         25    1    3    3    0    0 -0.55892594633E+02 -0.44092072215E+02 -0.27137604210E+02  0.14646518572E+03  0.12509000000E+03 0.  0.
         25    1    3    3    0    0  0.44347771796E+02  0.76333731550E+02 -0.55999777296E+02  0.16302468093E+03  0.12509000000E+03 0.  0.
         25    1    3    3    0    0  0.11544822836E+02 -0.32241659335E+02 -0.15478295388E+03  0.20193582754E+03  0.12509000000E+03 0.  0.
<mgrwt>
<rscale>  2 0.45271421E+03</rscale>
<asrwt>0</asrwt>
<pdfrwt beam="1">  1       21 0.20110688E-01 0.45271421E+03</pdfrwt>
<pdfrwt beam="2">  1       21 0.55098972E-01 0.45271421E+03</pdfrwt>
<totfact> 0.65658126E+04</totfact>
</mgrwt>
</event>
<event>
 6    0  0.3472812E-005  0.4517709E+03  0.7546771E-02  0.1027195E+00
         21   -1    0    0  502  501  0.00000000000E+00  0.00000000000E+00  0.80789777904E+02  0.80789777904E+02  0.00000000000E+00 0. -1.
         21   -1    0    0  501  502 -0.00000000000E+00 -0.00000000000E+00 -0.63156789033E+03  0.63156789033E+03  0.00000000000E+00 0. -1.
      99926    2    1    2    0    0  0.00000000000E+00  0.00000000000E+00 -0.55077811243E+03  0.71235766824E+03  0.45177086932E+03 0.  0.
         25    1    3    3    0    0 -0.67523343945E+02  0.29813020591E+02 -0.27736008860E+03  0.31308839810E+03  0.12509000000E+03 0.  0.
         25    1    3    3    0    0 -0.31709890175E+02 -0.35816345504E+01 -0.11751865335E+03  0.17457516211E+03  0.12509000000E+03 0.  0.
         25    1    3    3    0    0  0.99233234119E+02 -0.26231386040E+02 -0.15589937048E+03  0.22469410803E+03  0.12509000000E+03 0.  0.
<mgrwt>
<rscale>  2 0.45177087E+03</rscale>
<asrwt>0</asrwt>
<pdfrwt beam="1">  1       21 0.11880849E-01 0.45177087E+03</pdfrwt>
<pdfrwt beam="2">  1       21 0.92877635E-01 0.45177087E+03</pdfrwt>
<totfact> 0.53585529E+04</totfact>
</mgrwt>
</event>
<event>
 6    0  0.3472812E-005  0.4553722E+03  0.7546771E-02  0.1026132E+00
         21   -1    0    0  502  501  0.00000000000E+00  0.00000000000E+00  0.46001131354E+02  0.46001131354E+02  0.00000000000E+00 0.  1.
         21   -1    0    0  501  502 -0.00000000000E+00 -0.00000000000E+00 -0.11269499247E+04  0.11269499247E+04  0.00000000000E+00 0.  1.
      99926    2    1    2    0    0  0.00000000000E+00  0.00000000000E+00 -0.10809487934E+04  0.11729510561E+04  0.45537225000E+03 0.  0.
         25    1    3    3    0    0  0.87275814125E+02 -0.69900122428E+02 -0.47730214145E+03  0.50593273978E+03  0.12509000000E+03 0.  0.
         25    1    3    3    0    0 -0.54933065065E+02  0.27155393982E+02 -0.38559398744E+03  0.40998205852E+03  0.12509000000E+03 0.  0.
         25    1    3    3    0    0 -0.32342749059E+02  0.42744728446E+02 -0.21805266449E+03  0.25703625779E+03  0.12509000000E+03 0.  0.
<mgrwt>
<rscale>  2 0.45537225E+03</rscale>
<asrwt>0</asrwt>
<pdfrwt beam="1">  1       21 0.67648712E-02 0.45537225E+03</pdfrwt>
<pdfrwt beam="2">  1       21 0.16572796E+00 0.45537225E+03</pdfrwt>
<totfact> 0.32929630E+04</totfact>
</mgrwt>
</event>
<event>
 6    0  0.3472812E-005  0.4592030E+03  0.7546771E-02  0.1025013E+00
         21   -1    0    0  502  501  0.00000000000E+00  0.00000000000E+00  0.57677715261E+02  0.57677715261E+02  0.00000000000E+00 0. -1.
         21   -1    0    0  501  502 -0.00000000000E+00 -0.00000000000E+00 -0.91398976204E+03  0.91398976204E+03  0.00000000000E+00 0. -1.
      99926    2    1    2    0    0 -0.35527136788E-14  0.00000000000E+00 -0.85631204678E+03  0.97166747730E+03  0.45920296709E+03 0.  0.
         25    1    3    3    0    0 -0.76256654823E+02  0.86107156362E+01 -0.22498257354E+03  0.26861475820E+03  0.12509000000E+03 0.  0.
         25    1    3    3    0    0  0.14000266550E+02 -0.27935032628E+02 -0.47635793785E+03  0.49349849702E+03  0.12509000000E+03 0.  0.
         25    1    3    3    0    0  0.62256388274E+02  0.19324316992E+02 -0.15497153540E+03  0.20955422208E+03  0.12509000000E+03 0.  0.
<mgrwt>
<rscale>  2 0.45920297E+03</rscale>
<asrwt>0</asrwt>
<pdfrwt beam="1">  1       21 0.84820170E-02 0.45920297E+03</pdfrwt>
<pdfrwt beam="2">  1       21 0.13441026E+00 0.45920297E+03</pdfrwt>
<totfact> 0.38979032E+04</totfact>
</mgrwt>
</event>
<event>
 6    0  0.3472812E-005  0.4528019E+03  0.7546771E-02  0.1026890E+00
         21   -1    0    0  502  501  0.00000000000E+00  0.00000000000E+00  0.22403132585E+03  0.22403132585E+03  0.00000000000E+00 0.  1.
         21   -1    0    0  501  502 -0.00000000000E+00 -0.00000000000E+00 -0.22879563471E+03  0.22879563471E+03  0.00000000000E+00 0.  1.
      99926    2    1    2    0    0  0.71054273576E-14 -0.14210854715E-13 -0.47643088586E+01  0.45282696056E+03  0.45280189661E+03 0.  0.
         25    1    3    3    0    0  0.51382348271E+02 -0.37342092945E+01 -0.76188021965E+02  0.15526175583E+03  0.12509000000E+03 0.  0.
         25    1    3    3    0    0 -0.10639176674E+02 -0.63959879658E+02  0.33181591459E+02  0.14475007564E+03  0.12509000000E+03 0.  0.
         25    1    3    3    0    0 -0.40743171597E+02  0.67694088952E+02  0.38242121647E+02  0.15281512909E+03  0.12509000000E+03 0.  0.
<mgrwt>
<rscale>  2 0.45280190E+03</rscale>
<asrwt>0</asrwt>
<pdfrwt beam="1">  1       21 0.32945783E-01 0.45280190E+03</pdfrwt>
<pdfrwt beam="2">  1       21 0.33646417E-01 0.45280190E+03</pdfrwt>
<totfact> 0.69923617E+04</totfact>
</mgrwt>
</event>
<event>
 6    0  0.3472812E-005  0.4545224E+03  0.7546771E-02  0.1026382E+00
         21   -1    0    0  502  501  0.00000000000E+00  0.00000000000E+00  0.61485347106E+02  0.61485347106E+02  0.00000000000E+00 0.  1.
         21   -1    0    0  501  502 -0.00000000000E+00 -0.00000000000E+00 -0.83999948635E+03  0.83999948635E+03  0.00000000000E+00 0.  1.
      99926    2    1    2    0    0  0.00000000000E+00  0.00000000000E+00 -0.77851413924E+03  0.90148483345E+03  0.45452243063E+03 0.  0.
         25    1    3    3    0    0  0.32580253209E+02  0.42432553230E+01 -0.36472623992E+03  0.38697831503E+03  0.12509000000E+03 0.  0.
         25    1    3    3    0    0  0.34773168996E+02  0.21199801489E+02 -0.88259987647E+02  0.15841697631E+03  0.12509000000E+03 0.  0.
         25    1    3    3    0    0 -0.67353422205E+02 -0.25443056812E+02 -0.32552791167E+03  0.35608954211E+03  0.12509000000E+03 0.  0.
<mgrwt>
<rscale>  2 0.45452243E+03</rscale>
<asrwt>0</asrwt>
<pdfrwt beam="1">  1       21 0.90419634E-02 0.45452243E+03</pdfrwt>
<pdfrwt beam="2">  1       21 0.12352933E+00 0.45452243E+03</pdfrwt>
<totfact> 0.43331347E+04</totfact>
</mgrwt>
</event>
<event>
 6    0  0.3472812E-005  0.4643563E+03  0.7546771E-02  0.1023525E+00
         21   -1    0    0  502  501  0.00000000000E+00  0.00000000000E+00  0.24492347055E+02  0.24492347055E+02  0.00000000000E+00 0. -1.
         21   -1    0    0  501  502 -0.00000000000E+00 -0.00000000000E+00 -0.22009609069E+04  0.22009609069E+04  0.00000000000E+00 0. -1.
      99926    2    1    2    0    0  0.00000000000E+00  0.00000000000E+00 -0.21764685599E+04  0.22254532540E+04  0.46435632175E+03 0.  0.
         25    1    3    3    0    0  0.70621631127E+01  0.56379474714E+02 -0.48468883984E+03  0.50378497287E+03  0.12509000000E+03 0.  0.
         25    1    3    3    0    0 -0.64298178466E+02  0.28238462654E+01 -0.46591338083E+03  0.48668780178E+03  0.12509000000E+03 0.  0.
         25    1    3    3    0    0  0.57236015353E+02 -0.59203320980E+02 -0.12258663392E+04  0.12349804793E+04  0.12509000000E+03 0.  0.
<mgrwt>
<rscale>  2 0.46435632E+03</rscale>
<asrwt>0</asrwt>
<pdfrwt beam="1">  1       21 0.36018133E-02 0.46435632E+03</pdfrwt>
<pdfrwt beam="2">  1       21 0.32367094E+00 0.46435632E+03</pdfrwt>
<totfact> 0.96455821E+03</totfact>
</mgrwt>
</event>
<event>
 6    0  0.3472812E-005  0.4492742E+03  0.7546771E-02  0.1027939E+00
         21   -1    0    0  502  501  0.00000000000E+00  0.00000000000E+00  0.19813763011E+03  0.19813763011E+03  0.00000000000E+00 0. -1.
         21   -1    0    0  501  502 -0.00000000000E+00 -0.00000000000E+00 -0.25468071282E+03  0.25468071282E+03  0.00000000000E+00 0. -1.
      99926    2    1    2    0    0  0.71054273576E-14  0.71054273576E-14 -0.56543082706E+02  0.45281834293E+03  0.44927422749E+03 0.  0.
         25    1    3    3    0    0 -0.34000370680E+02 -0.10130608727E+03 -0.43576152915E+02  0.17019206129E+03  0.12509000000E+03 0.  0.
         25    1    3    3    0    0  0.54495281634E+02  0.49348785946E+02 -0.12499752714E+02  0.14563238071E+03  0.12509000000E+03 0.  0.
         25    1    3    3    0    0 -0.20494910953E+02  0.51957301320E+02 -0.46717707700E+00  0.13699390092E+03  0.12509000000E+03 0.  0.
<mgrwt>
<rscale>  2 0.44927423E+03</rscale>
<asrwt>0</asrwt>
<pdfrwt beam="1">  1       21 0.29137887E-01 0.44927423E+03</pdfrwt>
<pdfrwt beam="2">  1       21 0.37453046E-01 0.44927423E+03</pdfrwt>
<totfact> 0.71936202E+04</totfact>
</mgrwt>
</event>
<event>
 6    0  0.3472812E-005  0.4558533E+03  0.7546771E-02  0.1025991E+00
         21   -1    0    0  502  501  0.00000000000E+00  0.00000000000E+00  0.59259377012E+03  0.59259377012E+03  0.00000000000E+00 0.  1.
         21   -1    0    0  501  502 -0.00000000000E+00 -0.00000000000E+00 -0.87666379365E+02  0.87666379365E+02  0.00000000000E+00 0.  1.
      99926    2    1    2    0    0  0.71054273576E-14  0.00000000000E+00  0.50492739076E+03  0.68026014949E+03  0.45585326701E+03 0.  0.
         25    1    3    3    0    0 -0.51888876869E+01 -0.52941976021E+02  0.26299522208E+03  0.29604690898E+03  0.12509000000E+03 0.  0.
         25    1    3    3    0    0  0.50616536082E+02 -0.27304520003E+01  0.18528162506E+03  0.22922974889E+03  0.12509000000E+03 0.  0.
         25    1    3    3    0    0 -0.45427648395E+02  0.55672428021E+02  0.56650543620E+02  0.15498349161E+03  0.12509000000E+03 0.  0.
<mgrwt>
<rscale>  2 0.45585327E+03</rscale>
<asrwt>0</asrwt>
<pdfrwt beam="1">  1       21 0.87146140E-01 0.45585327E+03</pdfrwt>
<pdfrwt beam="2">  1       21 0.12892115E-01 0.45585327E+03</pdfrwt>
<totfact> 0.53627058E+04</totfact>
</mgrwt>
</event>
<event>
 6    0  0.3472812E-005  0.5582972E+03  0.7546771E-02  0.9995915E-01
         21   -1    0    0  502  501  0.00000000000E+00  0.00000000000E+00  0.12390757808E+04  0.12390757808E+04  0.00000000000E+00 0.  1.
         21   -1    0    0  501  502 -0.00000000000E+00 -0.00000000000E+00 -0.62888769083E+02  0.62888769083E+02  0.00000000000E+00 0.  1.
      99926    2    1    2    0    0  0.00000000000E+00  0.00000000000E+00  0.11761870117E+04  0.13019645499E+04  0.55829723501E+03 0.  0.
         25    1    3    3    0    0  0.11162052940E+03  0.13434869153E+03  0.55020646349E+03  0.59066350325E+03  0.12509000000E+03 0.  0.
         25    1    3    3    0    0 -0.21819120530E+02 -0.12382392768E+02  0.35017154442E+03  0.37268890014E+03  0.12509000000E+03 0.  0.
         25    1    3    3    0    0 -0.89801408874E+02 -0.12196629876E+03  0.27580900382E+03  0.33861214650E+03  0.12509000000E+03 0.  0.
<mgrwt>
<rscale>  2 0.55829724E+03</rscale>
<asrwt>0</asrwt>
<pdfrwt beam="1">  1       21 0.18221701E+00 0.55829724E+03</pdfrwt>
<pdfrwt beam="2">  1       21 0.92483492E-02 0.55829724E+03</pdfrwt>
<totfact> 0.13978072E+04</totfact>
</mgrwt>
</event>
<event>
 6    0  0.3472812E-005  0.4494265E+03  0.7546771E-02  0.1027893E+00
         21   -1    0    0  502  501  0.00000000000E+00  0.00000000000E+00  0.68189023006E+02  0.68189023006E+02  0.00000000000E+00 0. -1.
         21   -1    0    0  501  502 -0.00000000000E+00 -0.00000000000E+00 -0.74053029052E+03  0.74053029052E+03  0.00000000000E+00 0. -1.
      99926    2    1    2    0    0  0.14210854715E-13  0.17763568394E-14 -0.67234126751E+03  0.80871931352E+03  0.44942646570E+03 0.  0.
         25    1    3    3    0    0  0.61721108375E+02 -0.13919806791E+02 -0.26786762447E+03  0.30233066100E+03  0.12509000000E+03 0.  0.
         25    1    3    3    0    0 -0.10581738523E+03 -0.15162101687E+02 -0.26350143645E+03  0.31065692244E+03  0.12509000000E+03 0.  0.
         25    1    3    3    0    0  0.44096276857E+02  0.29081908478E+02 -0.14097220659E+03  0.19573173009E+03  0.12509000000E+03 0.  0.
<mgrwt>
<rscale>  2 0.44942647E+03</rscale>
<asrwt>0</asrwt>
<pdfrwt beam="1">  1       21 0.10027797E-01 0.44942647E+03</pdfrwt>
<pdfrwt beam="2">  1       21 0.10890152E+00 0.44942647E+03</pdfrwt>
<totfact> 0.49474608E+04</totfact>
</mgrwt>
</event>
<event>
 6    0  0.3472812E-005  0.4151000E+03  0.7546771E-02  0.1038673E+00
         21   -1    0    0  502  501  0.00000000000E+00  0.00000000000E+00  0.23327224855E+03  0.23327224855E+03  0.00000000000E+00 0. -1.
         21   -1    0    0  501  502 -0.00000000000E+00 -0.00000000000E+00 -0.18466409088E+03  0.18466409088E+03  0.00000000000E+00 0. -1.
      99926    2    1    2    0    0  0.00000000000E+00  0.71054273576E-14  0.48608157667E+02  0.41793633943E+03  0.41510002509E+03 0.  0.
         25    1    3    3    0    0 -0.62639674702E+01 -0.63277780074E+02 -0.10536742025E+02  0.14071903131E+03  0.12509000000E+03 0.  0.
         25    1    3    3    0    0 -0.28071780384E+02  0.26036590120E+02  0.24660070907E+01  0.13084157661E+03  0.12509000000E+03 0.  0.
         25    1    3    3    0    0  0.34335747854E+02  0.37241189954E+02  0.56678892602E+02  0.14637573151E+03  0.12509000000E+03 0.  0.
<mgrwt>
<rscale>  2 0.41510003E+03</rscale>
<asrwt>0</asrwt>
<pdfrwt beam="1">  1       21 0.34304743E-01 0.41510003E+03</pdfrwt>
<pdfrwt beam="2">  1       21 0.27156484E-01 0.41510003E+03</pdfrwt>
<totfact> 0.99429044E+04</totfact>
</mgrwt>
</event>
<event>
 6    0  0.3472812E-005  0.4643452E+03  0.7546771E-02  0.1023528E+00
         21   -1    0    0  502  501  0.00000000000E+00  0.00000000000E+00  0.86917235168E+02  0.86917235168E+02  0.00000000000E+00 0.  1.
         21   -1    0    0  501  502 -0.00000000000E+00 -0.00000000000E+00 -0.62017758526E+03  0.62017758526E+03  0.00000000000E+00 0.  1.
      99926    2    1    2    0    0  0.48849813084E-14 -0.14210854715E-13 -0.53326035009E+03  0.70709482043E+03  0.46434522082E+03 0.  0.
         25    1    3    3    0    0 -0.61005693564E+02  0.75132543765E+02 -0.17132942453E+03  0.23316919520E+03  0.12509000000E+03 0.  0.
         25    1    3    3    0    0  0.36856060129E+01 -0.10665747511E+03 -0.18312227925E+03  0.24611110895E+03  0.12509000000E+03 0.  0.
         25    1    3    3    0    0  0.57320087551E+02  0.31524931346E+02 -0.17880864631E+03  0.22781451628E+03  0.12509000000E+03 0.  0.
<mgrwt>
<rscale>  2 0.46434522E+03</rscale>
<asrwt>0</asrwt>
<pdfrwt beam="1">  1       21 0.12781946E-01 0.46434522E+03</pdfrwt>
<pdfrwt beam="2">  1       21 0.91202588E-01 0.46434522E+03</pdfrwt>
<totfact> 0.48828635E+04</totfact>
</mgrwt>
</event>
<event>
 6    0  0.3472812E-005  0.5650358E+03  0.7546771E-02  0.9980724E-01
         21   -1    0    0  502  501  0.00000000000E+00  0.00000000000E+00  0.16931673690E+04  0.16931673690E+04  0.00000000000E+00 0.  1.
         21   -1    0    0  501  502 -0.00000000000E+00 -0.00000000000E+00 -0.47140263153E+02  0.47140263153E+02  0.00000000000E+00 0.  1.
      99926    2    1    2    0    0  0.00000000000E+00  0.14210854715E-13  0.16460271059E+04  0.17403076322E+04  0.56503576998E+03 0.  0.
         25    1    3    3    0    0 -0.10978896478E+03 -0.87284117674E+02  0.93183120781E+03  0.95059404686E+03  0.12509000000E+03 0.  0.
         25    1    3    3    0    0  0.48116250421E+02 -0.12945578559E+02  0.15793324258E+03  0.20754078821E+03  0.12509000000E+03 0.  0.
         25    1    3    3    0    0  0.61672714362E+02  0.10022969623E+03  0.55626265550E+03  0.58217279712E+03  0.12509000000E+03 0.  0.
<mgrwt>
<rscale>  2 0.56503577E+03</rscale>
<asrwt>0</asrwt>
<pdfrwt beam="1">  1       21 0.24899516E+00 0.56503577E+03</pdfrwt>
<pdfrwt beam="2">  1       21 0.69323928E-02 0.56503577E+03</pdfrwt>
<totfact> 0.85123378E+03</totfact>
</mgrwt>
</event>
<event>
 6    0  0.3472812E-005  0.4629804E+03  0.7546771E-02  0.1023920E+00
         21   -1    0    0  502  501  0.00000000000E+00  0.00000000000E+00  0.19099147882E+03  0.19099147882E+03  0.00000000000E+00 0.  1.
         21   -1    0    0  501  502 -0.00000000000E+00 -0.00000000000E+00 -0.28057647467E+03  0.28057647467E+03  0.00000000000E+00 0.  1.
      99926    2    1    2    0    0  0.71054273576E-14 -0.13114509478E-14 -0.89584995849E+02  0.47156795349E+03  0.46298041349E+03 0.  0.
         25    1    3    3    0    0 -0.29231291135E+02  0.33227258096E+02  0.56692696565E+02  0.14429168031E+03  0.12509000000E+03 0.  0.
         25    1    3    3    0    0 -0.34292844287E+02 -0.43904818482E-01 -0.11994859459E+02  0.13025891851E+03  0.12509000000E+03 0.  0.
         25    1    3    3    0    0  0.63524135422E+02 -0.33183353278E+02 -0.13428283295E+03  0.19701735467E+03  0.12509000000E+03 0.  0.
<mgrwt>
<rscale>  2 0.46298041E+03</rscale>
<asrwt>0</asrwt>
<pdfrwt beam="1">  1       21 0.28086982E-01 0.46298041E+03</pdfrwt>
<pdfrwt beam="2">  1       21 0.41261246E-01 0.46298041E+03</pdfrwt>
<totfact> 0.63218746E+04</totfact>
</mgrwt>
</event>
<event>
 6    0  0.3472812E-005  0.4479959E+03  0.7546771E-02  0.1028321E+00
         21   -1    0    0  502  501  0.00000000000E+00  0.00000000000E+00  0.13295646771E+03  0.13295646771E+03  0.00000000000E+00 0. -1.
         21   -1    0    0  501  502 -0.00000000000E+00 -0.00000000000E+00 -0.37737972783E+03  0.37737972783E+03  0.00000000000E+00 0. -1.
      99926    2    1    2    0    0  0.00000000000E+00  0.00000000000E+00 -0.24442326012E+03  0.51033619555E+03  0.44799587319E+03 0.  0.
         25    1    3    3    0    0  0.39285231170E+02 -0.82103034089E+02 -0.11398433488E+03  0.19215663999E+03  0.12509000000E+03 0.  0.
         25    1    3    3    0    0 -0.29969562009E+02  0.95197592982E+02 -0.46365240058E+02  0.16660732260E+03  0.12509000000E+03 0.  0.
         25    1    3    3    0    0 -0.93156691613E+01 -0.13094558893E+02 -0.84073685179E+02  0.15157223296E+03  0.12509000000E+03 0.  0.
<mgrwt>
<rscale>  2 0.44799587E+03</rscale>
<asrwt>0</asrwt>
<pdfrwt beam="1">  1       21 0.19552422E-01 0.44799587E+03</pdfrwt>
<pdfrwt beam="2">  1       21 0.55497017E-01 0.44799587E+03</pdfrwt>
<totfact> 0.68266474E+04</totfact>
</mgrwt>
</event>
<event>
 6    0  0.3472812E-005  0.4554548E+03  0.7546771E-02  0.1026108E+00
         21   -1    0    0  502  501  0.00000000000E+00  0.00000000000E+00  0.31028085621E+02  0.31028085621E+02  0.00000000000E+00 0.  1.
         21   -1    0    0  501  502 -0.00000000000E+00 -0.00000000000E+00 -0.16713813679E+04  0.16713813679E+04  0.00000000000E+00 0.  1.
      99926    2    1    2    0    0  0.00000000000E+00  0.00000000000E+00 -0.16403532823E+04  0.17024094535E+04  0.45545478014E+03 0.  0.
         25    1    3    3    0    0  0.39284824144E+01  0.25288168090E+02 -0.57595939880E+03  0.58994208325E+03  0.12509000000E+03 0.  0.
         25    1    3    3    0    0  0.97972133438E+02 -0.13176248433E+02 -0.59403169542E+03  0.61505553872E+03  0.12509000000E+03 0.  0.
         25    1    3    3    0    0 -0.10190061585E+03 -0.12111919658E+02 -0.47036218807E+03  0.49741183156E+03  0.12509000000E+03 0.  0.
<mgrwt>
<rscale>  2 0.45545478E+03</rscale>
<asrwt>0</asrwt>
<pdfrwt beam="1">  1       21 0.45629547E-02 0.45545478E+03</pdfrwt>
<pdfrwt beam="2">  1       21 0.24579133E+00 0.45545478E+03</pdfrwt>
<totfact> 0.19143916E+04</totfact>
</mgrwt>
</event>
<event>
 6    0  0.3472812E-005  0.4579868E+03  0.7546771E-02  0.1025367E+00
         21   -1    0    0  502  501  0.00000000000E+00  0.00000000000E+00  0.56005835079E+03  0.56005835079E+03  0.00000000000E+00 0. -1.
         21   -1    0    0  501  502 -0.00000000000E+00 -0.00000000000E+00 -0.93629489450E+02  0.93629489450E+02  0.00000000000E+00 0. -1.
      99926    2    1    2    0    0  0.00000000000E+00  0.71054273576E-14  0.46642886134E+03  0.65368784024E+03  0.45798680089E+03 0.  0.
         25    1    3    3    0    0 -0.38718860089E+02 -0.28875296321E+02  0.69668279475E+02  0.15110959642E+03  0.12509000000E+03 0.  0.
         25    1    3    3    0    0  0.63941009611E+02  0.67134120566E+02  0.29976152588E+03  0.33778680163E+03  0.12509000000E+03 0.  0.
         25    1    3    3    0    0 -0.25222149522E+02 -0.38258824245E+02  0.96999055979E+02  0.16479144219E+03  0.12509000000E+03 0.  0.
<mgrwt>
<rscale>  2 0.45798680E+03</rscale>
<asrwt>0</asrwt>
<pdfrwt beam="1">  1       21 0.82361521E-01 0.45798680E+03</pdfrwt>
<pdfrwt beam="2">  1       21 0.13769043E-01 0.45798680E+03</pdfrwt>
<totfact> 0.54201197E+04</totfact>
</mgrwt>
</event>
<event>
 6    0  0.3472812E-005  0.4470065E+03  0.7546771E-02  0.1028619E+00
         21   -1    0    0  502  501  0.00000000000E+00  0.00000000000E+00  0.30044107183E+03  0.30044107183E+03  0.00000000000E+00 0.  1.
         21   -1    0    0  501  502 -0.00000000000E+00 -0.00000000000E+00 -0.16626788725E+03  0.16626788725E+03  0.00000000000E+00 0.  1.
      99926    2    1    2    0    0  0.00000000000E+00  0.00000000000E+00  0.13417318458E+03  0.46670895908E+03  0.44700649775E+03 0.  0.
         25    1    3    3    0    0 -0.56196121726E+02 -0.63848121370E+02  0.16818870971E+02  0.15220042451E+03  0.12509000000E+03 0.  0.
         25    1    3    3    0    0  0.37474661236E+02  0.11073435353E+02  0.11962350146E+03  0.17743804949E+03  0.12509000000E+03 0.  0.
         25    1    3    3    0    0  0.18721460490E+02  0.52774686017E+02 -0.22691878568E+01  0.13707048508E+03  0.12509000000E+03 0.  0.
<mgrwt>
<rscale>  2 0.44700650E+03</rscale>
<asrwt>0</asrwt>
<pdfrwt beam="1">  1       21 0.44182511E-01 0.44700650E+03</pdfrwt>
<pdfrwt beam="2">  1       21 0.24451160E-01 0.44700650E+03</pdfrwt>
<totfact> 0.72149585E+04</totfact>
</mgrwt>
</event>
<event>
 6    0  0.3472812E-005  0.4618016E+03  0.7546771E-02  0.1024260E+00
         21   -1    0    0  502  501  0.00000000000E+00  0.00000000000E+00  0.44695486853E+03  0.44695486853E+03  0.00000000000E+00 0.  1.
         21   -1    0    0  501  502 -0.00000000000E+00 -0.00000000000E+00 -0.11928536240E+03  0.11928536240E+03  0.00000000000E+00 0.  1.
      99926    2    1    2    0    0  0.00000000000E+00  0.00000000000E+00  0.32766950613E+03  0.56624023093E+03  0.46180157413E+03 0.  0.
         25    1    3    3    0    0 -0.49192671407E+02  0.29325307015E+02  0.80540043543E+02  0.15941800170E+03  0.12509000000E+03 0.  0.
         25    1    3    3    0    0  0.86706603169E+01  0.47925234609E+02  0.23707412498E+02  0.13631418844E+03  0.12509000000E+03 0.  0.
         25    1    3    3    0    0  0.40522011090E+02 -0.77250541625E+02  0.22342205009E+03  0.27050804079E+03  0.12509000000E+03 0.  0.
<mgrwt>
<rscale>  2 0.46180157E+03</rscale>
<asrwt>0</asrwt>
<pdfrwt beam="1">  1       21 0.65728656E-01 0.46180157E+03</pdfrwt>
<pdfrwt beam="2">  1       21 0.17541965E-01 0.46180157E+03</pdfrwt>
<totfact> 0.57642104E+04</totfact>
</mgrwt>
</event>
<event>
 6    0  0.3472812E-005  0.4472726E+03  0.7546771E-02  0.1028538E+00
         21   -1    0    0  502  501  0.00000000000E+00  0.00000000000E+00  0.11256014211E+03  0.11256014211E+03  0.00000000000E+00 0.  1.
         21   -1    0    0  501  502 -0.00000000000E+00 -0.00000000000E+00 -0.44432427795E+03  0.44432427795E+03  0.00000000000E+00 0.  1.
      99926    2    1    2    0    0  0.00000000000E+00  0.35527136788E-14 -0.33176413584E+03  0.55688442006E+03  0.44727264110E+03 0.  0.
         25    1    3    3    0    0 -0.44289748698E+02 -0.30552660130E+02 -0.14130437251E+03  0.19623832621E+03  0.12509000000E+03 0.  0.
         25    1    3    3    0    0  0.42670456843E+02  0.78948054087E+02 -0.16207925718E+03  0.22354139849E+03  0.12509000000E+03 0.  0.
         25    1    3    3    0    0  0.16192918549E+01 -0.48395393957E+02 -0.28380506148E+02  0.13710469537E+03  0.12509000000E+03 0.  0.
<mgrwt>
<rscale>  2 0.44727264E+03</rscale>
<asrwt>0</asrwt>
<pdfrwt beam="1">  1       21 0.16552963E-01 0.44727264E+03</pdfrwt>
<pdfrwt beam="2">  1       21 0.65341804E-01 0.44727264E+03</pdfrwt>
<totfact> 0.65315764E+04</totfact>
</mgrwt>
</event>
<event>
 6    0  0.3472812E-005  0.4558258E+03  0.7546771E-02  0.1025999E+00
         21   -1    0    0  502  501  0.00000000000E+00  0.00000000000E+00  0.12261092462E+03  0.12261092462E+03  0.00000000000E+00 0. -1.
         21   -1    0    0  501  502 -0.00000000000E+00 -0.00000000000E+00 -0.42365144079E+03  0.42365144079E+03  0.00000000000E+00 0. -1.
      99926    2    1    2    0    0  0.71054273576E-14  0.00000000000E+00 -0.30104051617E+03  0.54626236540E+03  0.45582582143E+03 0.  0.
         25    1    3    3    0    0 -0.52106908513E+02 -0.14473410505E+02 -0.71151940505E+02  0.15373586525E+03  0.12509000000E+03 0.  0.
         25    1    3    3    0    0  0.10403331258E+03 -0.42790952178E+02 -0.96213139300E+02  0.19380008253E+03  0.12509000000E+03 0.  0.
         25    1    3    3    0    0 -0.51926404070E+02  0.57264362683E+02 -0.13367543636E+03  0.19872641762E+03  0.12509000000E+03 0.  0.
<mgrwt>
<rscale>  2 0.45582582E+03</rscale>
<asrwt>0</asrwt>
<pdfrwt beam="1">  1       21 0.18031018E-01 0.45582582E+03</pdfrwt>
<pdfrwt beam="2">  1       21 0.62301683E-01 0.45582582E+03</pdfrwt>
<totfact> 0.61709945E+04</totfact>
</mgrwt>
</event>
<event>
 6    0  0.3472812E-005  0.4535134E+03  0.7546771E-02  0.1026679E+00
         21   -1    0    0  502  501  0.00000000000E+00  0.00000000000E+00  0.18571959742E+03  0.18571959742E+03  0.00000000000E+00 0. -1.
         21   -1    0    0  501  502 -0.00000000000E+00 -0.00000000000E+00 -0.27686141720E+03  0.27686141720E+03  0.00000000000E+00 0. -1.
      99926    2    1    2    0    0  0.00000000000E+00  0.00000000000E+00 -0.91141819782E+02  0.46258101463E+03  0.45351335568E+03 0.  0.
         25    1    3    3    0    0  0.95167246252E+00  0.66744359374E+02  0.16223372448E+01  0.14179511722E+03  0.12509000000E+03 0.  0.
         25    1    3    3    0    0  0.23368731497E+02 -0.32594298459E+02 -0.12885475793E+03  0.18400962650E+03  0.12509000000E+03 0.  0.
         25    1    3    3    0    0 -0.24320403959E+02 -0.34150060915E+02  0.36090600904E+02  0.13677627091E+03  0.12509000000E+03 0.  0.
<mgrwt>
<rscale>  2 0.45351336E+03</rscale>
<asrwt>0</asrwt>
<pdfrwt beam="1">  1       21 0.27311706E-01 0.45351336E+03</pdfrwt>
<pdfrwt beam="2">  1       21 0.40714914E-01 0.45351336E+03</pdfrwt>
<totfact> 0.68799647E+04</totfact>
</mgrwt>
</event>
<event>
 6    0  0.3472812E-005  0.4419692E+03  0.7546771E-02  0.1030144E+00
         21   -1    0    0  502  501  0.00000000000E+00  0.00000000000E+00  0.10540851726E+03  0.10540851726E+03  0.00000000000E+00 0. -1.
         21   -1    0    0  501  502 -0.00000000000E+00 -0.00000000000E+00 -0.46328513587E+03  0.46328513587E+03  0.00000000000E+00 0. -1.
      99926    2    1    2    0    0  0.71054273576E-14 -0.35527136788E-14 -0.35787661861E+03  0.56869365313E+03  0.44196922627E+03 0.  0.
         25    1    3    3    0    0  0.92598060297E+02  0.51821055148E+00 -0.16647878032E+03  0.22789770010E+03  0.12509000000E+03 0.  0.
         25    1    3    3    0    0 -0.38346287254E+02 -0.29896153591E+02 -0.52960205237E+02  0.14427927497E+03  0.12509000000E+03 0.  0.
         25    1    3    3    0    0 -0.54251773044E+02  0.29377943039E+02 -0.13843763305E+03  0.19651667807E+03  0.12509000000E+03 0.  0.
<mgrwt>
<rscale>  2 0.44196923E+03</rscale>
<asrwt>0</asrwt>
<pdfrwt beam="1">  1       21 0.15501252E-01 0.44196923E+03</pdfrwt>
<pdfrwt beam="2">  1       21 0.68130167E-01 0.44196923E+03</pdfrwt>
<totfact> 0.67321444E+04</totfact>
</mgrwt>
</event>
<event>
 6    0  0.3472812E-005  0.4373711E+03  0.7546771E-02  0.1031556E+00
         21   -1    0    0  502  501  0.00000000000E+00  0.00000000000E+00  0.74321412371E+02  0.74321412371E+02  0.00000000000E+00 0. -1.
         21   -1    0    0  501  502 -0.00000000000E+00 -0.00000000000E+00 -0.64346678391E+03  0.64346678391E+03  0.00000000000E+00 0. -1.
      99926    2    1    2    0    0  0.00000000000E+00  0.00000000000E+00 -0.56914537154E+03  0.71778819628E+03  0.43737105617E+03 0.  0.
         25    1    3    3    0    0 -0.14479129895E+02 -0.75994083117E+02 -0.13027138315E+03  0.19647617474E+03  0.12509000000E+03 0.  0.
         25    1    3    3    0    0 -0.16381808853E+02  0.73648270656E+02 -0.28774935942E+03  0.32270672968E+03  0.12509000000E+03 0.  0.
         25    1    3    3    0    0  0.30860938748E+02  0.23458124612E+01 -0.15112462896E+03  0.19860529186E+03  0.12509000000E+03 0.  0.
<mgrwt>
<rscale>  2 0.43737106E+03</rscale>
<asrwt>0</asrwt>
<pdfrwt beam="1">  1       21 0.10929620E-01 0.43737106E+03</pdfrwt>
<pdfrwt beam="2">  1       21 0.94627464E-01 0.43737106E+03</pdfrwt>
<totfact> 0.59821516E+04</totfact>
</mgrwt>
</event>
<event>
 6    0  0.3472812E-005  0.4529131E+03  0.7546771E-02  0.1026857E+00
         21   -1    0    0  502  501  0.00000000000E+00  0.00000000000E+00  0.77291325817E+03  0.77291325817E+03  0.00000000000E+00 0.  1.
         21   -1    0    0  501  502 -0.00000000000E+00 -0.00000000000E+00 -0.66349704490E+02  0.66349704490E+02  0.00000000000E+00 0.  1.
      99926    2    1    2    0    0 -0.17763568394E-14 -0.17763568394E-14  0.70656355368E+03  0.83926296266E+03  0.45291308780E+03 0.  0.
         25    1    3    3    0    0 -0.63316027932E+02 -0.60913999007E+02  0.16467712164E+03  0.22468977983E+03  0.12509000000E+03 0.  0.
         25    1    3    3    0    0  0.49863188762E+02  0.48562390883E+02  0.17254456986E+03  0.22419585208E+03  0.12509000000E+03 0.  0.
         25    1    3    3    0    0  0.13452839171E+02  0.12351608124E+02  0.36934186218E+03  0.39037733075E+03  0.12509000000E+03 0.  0.
<mgrwt>
<rscale>  2 0.45291309E+03</rscale>
<asrwt>0</asrwt>
<pdfrwt beam="1">  1       21 0.11366371E+00 0.45291309E+03</pdfrwt>
<pdfrwt beam="2">  1       21 0.97573100E-02 0.45291309E+03</pdfrwt>
<totfact> 0.46683217E+04</totfact>
</mgrwt>
</event>
<event>
 6    0  0.3472812E-005  0.4583035E+03  0.7546771E-02  0.1025274E+00
         21   -1    0    0  502  501  0.00000000000E+00  0.00000000000E+00  0.52045318608E+03  0.52045318608E+03  0.00000000000E+00 0.  1.
         21   -1    0    0  501  502 -0.00000000000E+00 -0.00000000000E+00 -0.10089384451E+03  0.10089384451E+03  0.00000000000E+00 0.  1.
      99926    2    1    2    0    0  0.00000000000E+00 -0.71054273576E-14  0.41955934157E+03  0.62134703059E+03  0.45830349259E+03 0.  0.
         25    1    3    3    0    0 -0.20468752556E+02 -0.68557069394E+02  0.57373414744E+02  0.15510724810E+03  0.12509000000E+03 0.  0.
         25    1    3    3    0    0 -0.46235242912E+02  0.15508630433E+02  0.22470622834E+03  0.26176060143E+03  0.12509000000E+03 0.  0.
         25    1    3    3    0    0  0.66703995468E+02  0.53048438960E+02  0.13747969849E+03  0.20447918105E+03  0.12509000000E+03 0.  0.
<mgrwt>
<rscale>  2 0.45830349E+03</rscale>
<asrwt>0</asrwt>
<pdfrwt beam="1">  1       21 0.76537232E-01 0.45830349E+03</pdfrwt>
<pdfrwt beam="2">  1       21 0.14837330E-01 0.45830349E+03</pdfrwt>
<totfact> 0.55910382E+04</totfact>
</mgrwt>
</event>
<event>
 6    0  0.3472812E-005  0.4470389E+03  0.7546771E-02  0.1028609E+00
         21   -1    0    0  502  501  0.00000000000E+00  0.00000000000E+00  0.11806749256E+04  0.11806749256E+04  0.00000000000E+00 0.  1.
         21   -1    0    0  501  502 -0.00000000000E+00 -0.00000000000E+00 -0.42315584568E+02  0.42315584568E+02  0.00000000000E+00 0.  1.
      99926    2    1    2    0    0 -0.71054273576E-14  0.71054273576E-14  0.11383593410E+04  0.12229905101E+04  0.44703892296E+03 0.  0.
         25    1    3    3    0    0 -0.19157800718E+02 -0.15088931950E+02  0.48382462348E+03  0.50032836376E+03  0.12509000000E+03 0.  0.
         25    1    3    3    0    0  0.79139414194E+02 -0.45174022863E+02  0.34687780797E+03  0.37983609752E+03  0.12509000000E+03 0.  0.
         25    1    3    3    0    0 -0.59981613477E+02  0.60262954814E+02  0.30765690956E+03  0.34282604886E+03  0.12509000000E+03 0.  0.
<mgrwt>
<rscale>  2 0.44703892E+03</rscale>
<asrwt>0</asrwt>
<pdfrwt beam="1">  1       21 0.17362864E+00 0.44703892E+03</pdfrwt>
<pdfrwt beam="2">  1       21 0.62228808E-02 0.44703892E+03</pdfrwt>
<totfact> 0.33462400E+04</totfact>
</mgrwt>
</event>
<event>
 6    0  0.3472812E-005  0.4574648E+03  0.7546771E-02  0.1025519E+00
         21   -1    0    0  502  501  0.00000000000E+00  0.00000000000E+00  0.97685935435E+02  0.97685935435E+02  0.00000000000E+00 0.  1.
         21   -1    0    0  501  502 -0.00000000000E+00 -0.00000000000E+00 -0.53557867113E+03  0.53557867113E+03  0.00000000000E+00 0.  1.
      99926    2    1    2    0    0  0.00000000000E+00  0.00000000000E+00 -0.43789273569E+03  0.63326460656E+03  0.45746476799E+03 0.  0.
         25    1    3    3    0    0 -0.10131091823E+03 -0.23097460582E+02 -0.26220381315E+03  0.30853807313E+03  0.12509000000E+03 0.  0.
         25    1    3    3    0    0  0.46527186001E+02  0.24298617123E+02 -0.10052011704E+03  0.16884017253E+03  0.12509000000E+03 0.  0.
         25    1    3    3    0    0  0.54783732234E+02 -0.12011565411E+01 -0.75168805500E+02  0.15588636090E+03  0.12509000000E+03 0.  0.
<mgrwt>
<rscale>  2 0.45746477E+03</rscale>
<asrwt>0</asrwt>
<pdfrwt beam="1">  1       21 0.14365579E-01 0.45746477E+03</pdfrwt>
<pdfrwt beam="2">  1       21 0.78761567E-01 0.45746477E+03</pdfrwt>
<totfact> 0.55586687E+04</totfact>
</mgrwt>
</event>
<event>
 6    0  0.3472812E-005  0.4597967E+03  0.7546771E-02  0.1024840E+00
         21   -1    0    0  502  501  0.00000000000E+00  0.00000000000E+00  0.87358610552E+03  0.87358610552E+03  0.00000000000E+00 0.  1.
         21   -1    0    0  501  502 -0.00000000000E+00 -0.00000000000E+00 -0.60501484484E+02  0.60501484484E+02  0.00000000000E+00 0.  1.
      99926    2    1    2    0    0  0.00000000000E+00  0.71054273576E-14  0.81308462104E+03  0.93408759001E+03  0.45979672121E+03 0.  0.
         25    1    3    3    0    0  0.65845738463E+02  0.33501352463E+02  0.13141788805E+03  0.19589836980E+03  0.12509000000E+03 0.  0.
         25    1    3    3    0    0 -0.56348685013E+01  0.17502798502E+02  0.22400972219E+03  0.25722745467E+03  0.12509000000E+03 0.  0.
         25    1    3    3    0    0 -0.60210869962E+02 -0.51004150965E+02  0.45765701080E+03  0.48096176554E+03  0.12509000000E+03 0.  0.
<mgrwt>
<rscale>  2 0.45979672E+03</rscale>
<asrwt>0</asrwt>
<pdfrwt beam="1">  1       21 0.12846854E+00 0.45979672E+03</pdfrwt>
<pdfrwt beam="2">  1       21 0.88972776E-02 0.45979672E+03</pdfrwt>
<totfact> 0.40260191E+04</totfact>
</mgrwt>
</event>
<event>
 6    0  0.3472812E-005  0.4637912E+03  0.7546771E-02  0.1023687E+00
         21   -1    0    0  502  501  0.00000000000E+00  0.00000000000E+00  0.90778198872E+03  0.90778198872E+03  0.00000000000E+00 0.  1.
         21   -1    0    0  501  502 -0.00000000000E+00 -0.00000000000E+00 -0.59238420267E+02  0.59238420267E+02  0.00000000000E+00 0.  1.
      99926    2    1    2    0    0  0.00000000000E+00 -0.71054273576E-14  0.84854356845E+03  0.96702040898E+03  0.46379120715E+03 0.  0.
         25    1    3    3    0    0 -0.53142472961E+02  0.90524071780E+01  0.38335479099E+03  0.40683469909E+03  0.12509000000E+03 0.  0.
         25    1    3    3    0    0 -0.22467515590E+02 -0.65312181999E+02  0.14409837404E+03  0.20293427477E+03  0.12509000000E+03 0.  0.
         25    1    3    3    0    0  0.75609988551E+02  0.56259774821E+02  0.32109040342E+03  0.35725143513E+03  0.12509000000E+03 0.  0.
<mgrwt>
<rscale>  2 0.46379121E+03</rscale>
<asrwt>0</asrwt>
<pdfrwt beam="1">  1       21 0.13349734E+00 0.46379121E+03</pdfrwt>
<pdfrwt beam="2">  1       21 0.87115329E-02 0.46379121E+03</pdfrwt>
<totfact> 0.37793865E+04</totfact>
</mgrwt>
</event>
<event>
 6    0  0.3472812E-005  0.4570463E+03  0.7546771E-02  0.1025641E+00
         21   -1    0    0  502  501  0.00000000000E+00  0.00000000000E+00  0.75205437602E+02  0.75205437602E+02  0.00000000000E+00 0. -1.
         21   -1    0    0  501  502 -0.00000000000E+00 -0.00000000000E+00 -0.69440220171E+03  0.69440220171E+03  0.00000000000E+00 0. -1.
      99926    2    1    2    0    0 -0.88817841970E-15  0.00000000000E+00 -0.61919676411E+03  0.76960763932E+03  0.45704626222E+03 0.  0.
         25    1    3    3    0    0  0.86144496959E+01  0.71336334312E+00 -0.83289446389E+02  0.15053025480E+03  0.12509000000E+03 0.  0.
         25    1    3    3    0    0 -0.45542010964E+01  0.40911855523E+02 -0.10496775327E+03  0.16840504148E+03  0.12509000000E+03 0.  0.
         25    1    3    3    0    0 -0.40602485996E+01 -0.41625218866E+02 -0.43093956445E+03  0.45067234303E+03  0.12509000000E+03 0.  0.
<mgrwt>
<rscale>  2 0.45704626E+03</rscale>
<asrwt>0</asrwt>
<pdfrwt beam="1">  1       21 0.11059623E-01 0.45704626E+03</pdfrwt>
<pdfrwt beam="2">  1       21 0.10211798E+00 0.45704626E+03</pdfrwt>
<totfact> 0.48486355E+04</totfact>
</mgrwt>
</event>
<event>
 6    0  0.3472812E-005  0.4643108E+03  0.7546771E-02  0.1023538E+00
         21   -1    0    0  502  501  0.00000000000E+00  0.00000000000E+00  0.35765796990E+03  0.35765796990E+03  0.00000000000E+00 0. -1.
         21   -1    0    0  501  502 -0.00000000000E+00 -0.00000000000E+00 -0.15069181880E+03  0.15069181880E+03  0.00000000000E+00 0. -1.
      99926    2    1    2    0    0 -0.14210854715E-13 -0.71054273576E-14  0.20696615109E+03  0.50834978870E+03  0.46431080105E+03 0.  0.
         25    1    3    3    0    0 -0.36128126219E+02 -0.63483668576E+02  0.17320677959E+02  0.14588670832E+03  0.12509000000E+03 0.  0.
         25    1    3    3    0    0 -0.52659314108E+02  0.22737995671E+02  0.37570544842E+02  0.14265017963E+03  0.12509000000E+03 0.  0.
         25    1    3    3    0    0  0.88787440327E+02  0.40745672905E+02  0.15207492829E+03  0.21981290075E+03  0.12509000000E+03 0.  0.
<mgrwt>
<rscale>  2 0.46431080E+03</rscale>
<asrwt>0</asrwt>
<pdfrwt beam="1">  1       21 0.52596760E-01 0.46431080E+03</pdfrwt>
<pdfrwt beam="2">  1       21 0.22160562E-01 0.46431080E+03</pdfrwt>
<totfact> 0.60120362E+04</totfact>
</mgrwt>
</event>
<event>
 6    0  0.3472812E-005  0.4569026E+03  0.7546771E-02  0.1025683E+00
         21   -1    0    0  502  501  0.00000000000E+00  0.00000000000E+00  0.67413094653E+02  0.67413094653E+02  0.00000000000E+00 0. -1.
         21   -1    0    0  501  502 -0.00000000000E+00 -0.00000000000E+00 -0.77418184714E+03  0.77418184714E+03  0.00000000000E+00 0. -1.
      99926    2    1    2    0    0  0.00000000000E+00  0.00000000000E+00 -0.70676875248E+03  0.84159494179E+03  0.45690258979E+03 0.  0.
         25    1    3    3    0    0  0.35476143941E+02 -0.15343029776E+02 -0.33080986302E+03  0.35577610786E+03  0.12509000000E+03 0.  0.
         25    1    3    3    0    0  0.59741832725E+01 -0.74889227109E+02 -0.15153689968E+03  0.21036878872E+03  0.12509000000E+03 0.  0.
         25    1    3    3    0    0 -0.41450327213E+02  0.90232256885E+02 -0.22442198978E+03  0.27545004521E+03  0.12509000000E+03 0.  0.
<mgrwt>
<rscale>  2 0.45690259E+03</rscale>
<asrwt>0</asrwt>
<pdfrwt beam="1">  1       21 0.99136907E-02 0.45690259E+03</pdfrwt>
<pdfrwt beam="2">  1       21 0.11385027E+00 0.45690259E+03</pdfrwt>
<totfact> 0.45140179E+04</totfact>
</mgrwt>
</event>
<event>
 6    0  0.3472812E-005  0.5272930E+03  0.7546771E-02  0.1006891E+00
         21   -1    0    0  502  501  0.00000000000E+00  0.00000000000E+00  0.27156062082E+03  0.27156062082E+03  0.00000000000E+00 0. -1.
         21   -1    0    0  501  502 -0.00000000000E+00 -0.00000000000E+00 -0.25596306408E+03  0.25596306408E+03  0.00000000000E+00 0. -1.
      99926    2    1    2    0    0  0.00000000000E+00  0.14210854715E-13  0.15597556741E+02  0.52752368490E+03  0.52729304409E+03 0.  0.
         25    1    3    3    0    0 -0.10755031780E+01 -0.49912745312E+02  0.91206174343E+02  0.16266073033E+03  0.12509000000E+03 0.  0.
         25    1    3    3    0    0 -0.86755893210E+02  0.10790431635E+03 -0.75753884883E+02  0.20138541573E+03  0.12509000000E+03 0.  0.
         25    1    3    3    0    0  0.87831396388E+02 -0.57991571039E+02  0.14526728119E+00  0.16347753884E+03  0.12509000000E+03 0.  0.
<mgrwt>
<rscale>  2 0.52729304E+03</rscale>
<asrwt>0</asrwt>
<pdfrwt beam="1">  1       21 0.39935386E-01 0.52729304E+03</pdfrwt>
<pdfrwt beam="2">  1       21 0.37641627E-01 0.52729304E+03</pdfrwt>
<totfact> 0.37073019E+04</totfact>
</mgrwt>
</event>
<event>
 6    0  0.3472812E-005  0.4537141E+03  0.7546771E-02  0.1026620E+00
         21   -1    0    0  502  501  0.00000000000E+00  0.00000000000E+00  0.23401346378E+03  0.23401346378E+03  0.00000000000E+00 0. -1.
         21   -1    0    0  501  502 -0.00000000000E+00 -0.00000000000E+00 -0.21991950128E+03  0.21991950128E+03  0.00000000000E+00 0. -1.
      99926    2    1    2    0    0 -0.44408920985E-15  0.00000000000E+00  0.14093962505E+02  0.45393296506E+03  0.45371411372E+03 0.  0.
         25    1    3    3    0    0 -0.41312436951E+02 -0.54649686990E+02 -0.10128583425E+02  0.14298042536E+03  0.12509000000E+03 0.  0.
         25    1    3    3    0    0 -0.24407584270E+01  0.51295495730E+02  0.90532555008E+02  0.16272933602E+03  0.12509000000E+03 0.  0.
         25    1    3    3    0    0  0.43753195378E+02  0.33541912599E+01 -0.66310009078E+02  0.14822320368E+03  0.12509000000E+03 0.  0.
<mgrwt>
<rscale>  2 0.45371411E+03</rscale>
<asrwt>0</asrwt>
<pdfrwt beam="1">  1       21 0.34413745E-01 0.45371411E+03</pdfrwt>
<pdfrwt beam="2">  1       21 0.32341103E-01 0.45371411E+03</pdfrwt>
<totfact> 0.69332671E+04</totfact>
</mgrwt>
</event>
<event>
 6    0  0.3472812E-005  0.4535669E+03  0.7546771E-02  0.1026664E+00
         21   -1    0    0  502  501  0.00000000000E+00  0.00000000000E+00  0.76531441907E+03  0.76531441907E+03  0.00000000000E+00 0.  1.
         21   -1    0    0  501  502 -0.00000000000E+00 -0.00000000000E+00 -0.67202084919E+02  0.67202084919E+02  0.00000000000E+00 0.  1.
      99926    2    1    2    0    0  0.00000000000E+00 -0.71054273576E-14  0.69811233415E+03  0.83251650398E+03  0.45356686202E+03 0.  0.
         25    1    3    3    0    0 -0.74797907530E+02 -0.18046198913E+02  0.32573096286E+03  0.35730737542E+03  0.12509000000E+03 0.  0.
         25    1    3    3    0    0 -0.97265427659E+01 -0.38191642024E+02  0.13406776025E+03  0.18754967234E+03  0.12509000000E+03 0.  0.
         25    1    3    3    0    0  0.84524450296E+02  0.56237840937E+02  0.23831361104E+03  0.28765945623E+03  0.12509000000E+03 0.  0.
<mgrwt>
<rscale>  2 0.45356686E+03</rscale>
<asrwt>0</asrwt>
<pdfrwt beam="1">  1       21 0.11254623E+00 0.45356686E+03</pdfrwt>
<pdfrwt beam="2">  1       21 0.98826600E-02 0.45356686E+03</pdfrwt>
<totfact> 0.46755408E+04</totfact>
</mgrwt>
</event>
<event>
 6    0  0.3472812E-005  0.4591164E+03  0.7546771E-02  0.1025038E+00
         21   -1    0    0  502  501  0.00000000000E+00  0.00000000000E+00  0.87391230092E+02  0.87391230092E+02  0.00000000000E+00 0.  1.
         21   -1    0    0  501  502 -0.00000000000E+00 -0.00000000000E+00 -0.60300052724E+03  0.60300052724E+03  0.00000000000E+00 0.  1.
      99926    2    1    2    0    0 -0.26645352591E-14  0.71054273576E-14 -0.51560929715E+03  0.69039175733E+03  0.45911635920E+03 0.  0.
         25    1    3    3    0    0  0.78428795928E+01 -0.41715461662E+02 -0.36385006397E+02  0.13701484333E+03  0.12509000000E+03 0.  0.
         25    1    3    3    0    0  0.22351417553E+02  0.51135539682E+02 -0.32243554233E+03  0.35032358805E+03  0.12509000000E+03 0.  0.
         25    1    3    3    0    0 -0.30194297146E+02 -0.94200780204E+01 -0.15678874842E+03  0.20305332596E+03  0.12509000000E+03 0.  0.
<mgrwt>
<rscale>  2 0.45911636E+03</rscale>
<asrwt>0</asrwt>
<pdfrwt beam="1">  1       21 0.12851652E-01 0.45911636E+03</pdfrwt>
<pdfrwt beam="2">  1       21 0.88676546E-01 0.45911636E+03</pdfrwt>
<totfact> 0.51731046E+04</totfact>
</mgrwt>
</event>
<event>
 5    0  0.3472812E-005  0.5880243E+03  0.7546771E-02  0.9930568E-01
         21   -1    0    0  502  501  0.00000000000E+00  0.00000000000E+00  0.32415671601E+03  0.32415671601E+03  0.00000000000E+00 0.  1.
         21   -1    0    0  501  502 -0.00000000000E+00 -0.00000000000E+00 -0.26667085769E+03  0.26667085769E+03  0.00000000000E+00 0.  1.
         25    1    1    2    0    0 -0.41397216710E+02  0.52280802271E+02  0.16382776160E+03  0.21664269064E+03  0.12509000000E+03 0.  0.
         25    1    1    2    0    0 -0.32270433672E+02 -0.97293902439E+02  0.36295368306E+02  0.16574783921E+03  0.12509000000E+03 0.  0.
         25    1    1    2    0    0  0.73667650382E+02  0.45013100168E+02 -0.14263727160E+03  0.20843704385E+03  0.12509000000E+03 0.  0.
<mgrwt>
<rscale>  2 0.58802432E+03</rscale>
<asrwt>0</asrwt>
<pdfrwt beam="1">  1       21 0.47670105E-01 0.58802432E+03</pdfrwt>
<pdfrwt beam="2">  1       21 0.39216303E-01 0.58802432E+03</pdfrwt>
<totfact> 0.23239907E+04</totfact>
</mgrwt>
</event>
<event>
 6    0  0.3472812E-005  0.4554377E+03  0.7546771E-02  0.1026113E+00
         21   -1    0    0  502  501  0.00000000000E+00  0.00000000000E+00  0.26999974587E+03  0.26999974587E+03  0.00000000000E+00 0. -1.
         21   -1    0    0  501  502 -0.00000000000E+00 -0.00000000000E+00 -0.19205899252E+03  0.19205899252E+03  0.00000000000E+00 0. -1.
      99926    2    1    2    0    0  0.14210854715E-13  0.00000000000E+00  0.77940753352E+02  0.46205873839E+03  0.45543771988E+03 0.  0.
         25    1    3    3    0    0 -0.54282746332E+02 -0.71188826232E+02  0.66852362090E+02  0.16772361774E+03  0.12509000000E+03 0.  0.
         25    1    3    3    0    0 -0.30750564332E+02  0.18261948176E+02  0.28365059006E+02  0.13315847938E+03  0.12509000000E+03 0.  0.
         25    1    3    3    0    0  0.85033310665E+02  0.52926878056E+02 -0.17276667743E+02  0.16117664127E+03  0.12509000000E+03 0.  0.
<mgrwt>
<rscale>  2 0.45543772E+03</rscale>
<asrwt>0</asrwt>
<pdfrwt beam="1">  1       21 0.39705845E-01 0.45543772E+03</pdfrwt>
<pdfrwt beam="2">  1       21 0.28243969E-01 0.45543772E+03</pdfrwt>
<totfact> 0.67792784E+04</totfact>
</mgrwt>
</event>
<event>
 6    0  0.3472812E-005  0.4554898E+03  0.7546771E-02  0.1026097E+00
         21   -1    0    0  502  501  0.00000000000E+00  0.00000000000E+00  0.14468215104E+03  0.14468215104E+03  0.00000000000E+00 0. -1.
         21   -1    0    0  501  502 -0.00000000000E+00 -0.00000000000E+00 -0.35849446224E+03  0.35849446224E+03  0.00000000000E+00 0. -1.
      99926    2    1    2    0    0  0.00000000000E+00  0.71054273576E-14 -0.21381231121E+03  0.50317661328E+03  0.45548984591E+03 0.  0.
         25    1    3    3    0    0  0.48472116470E+01  0.60167887625E+02 -0.52357222881E+02  0.14843334211E+03  0.12509000000E+03 0.  0.
         25    1    3    3    0    0  0.54271902736E+01 -0.12042207827E+03 -0.65513827602E+02  0.18566233069E+03  0.12509000000E+03 0.  0.
         25    1    3    3    0    0 -0.10274401921E+02  0.60254190649E+02 -0.95941260723E+02  0.16908094048E+03  0.12509000000E+03 0.  0.
<mgrwt>
<rscale>  2 0.45548985E+03</rscale>
<asrwt>0</asrwt>
<pdfrwt beam="1">  1       21 0.21276787E-01 0.45548985E+03</pdfrwt>
<pdfrwt beam="2">  1       21 0.52719774E-01 0.45548985E+03</pdfrwt>
<totfact> 0.64795760E+04</totfact>
</mgrwt>
</event>
<event>
 6    0  0.3472812E-005  0.4615305E+03  0.7546771E-02  0.1024338E+00
         21   -1    0    0  502  501  0.00000000000E+00  0.00000000000E+00  0.94188300841E+02  0.94188300841E+02  0.00000000000E+00 0. -1.
         21   -1    0    0  501  502 -0.00000000000E+00 -0.00000000000E+00 -0.56538439775E+03  0.56538439775E+03  0.00000000000E+00 0. -1.
      99926    2    1    2    0    0  0.00000000000E+00  0.00000000000E+00 -0.47119609691E+03  0.65957269859E+03  0.46153047893E+03 0.  0.
         25    1    3    3    0    0 -0.12272504296E+02 -0.10455958385E+03 -0.15982350247E+03  0.22863591358E+03  0.12509000000E+03 0.  0.
         25    1    3    3    0    0 -0.86986359338E+01  0.90018196421E+02 -0.99739095743E+02  0.18377795644E+03  0.12509000000E+03 0.  0.
         25    1    3    3    0    0  0.20971140229E+02  0.14541387426E+02 -0.21163349869E+03  0.24715882857E+03  0.12509000000E+03 0.  0.
<mgrwt>
<rscale>  2 0.46153048E+03</rscale>
<asrwt>0</asrwt>
<pdfrwt beam="1">  1       21 0.13851222E-01 0.46153048E+03</pdfrwt>
<pdfrwt beam="2">  1       21 0.83144757E-01 0.46153048E+03</pdfrwt>
<totfact> 0.52401704E+04</totfact>
</mgrwt>
</event>
<event>
 6    0  0.3472812E-005  0.4556864E+03  0.7546771E-02  0.1026040E+00
         21   -1    0    0  502  501  0.00000000000E+00  0.00000000000E+00  0.47809444973E+03  0.47809444973E+03  0.00000000000E+00 0. -1.
         21   -1    0    0  501  502 -0.00000000000E+00 -0.00000000000E+00 -0.10858213790E+03  0.10858213790E+03  0.00000000000E+00 0. -1.
      99926    2    1    2    0    0  0.14210854715E-13  0.00000000000E+00  0.36951231183E+03  0.58667658763E+03  0.45568637228E+03 0.  0.
         25    1    3    3    0    0  0.45070306428E+01  0.26332750098E+01  0.21444755884E+03  0.24831937309E+03  0.12509000000E+03 0.  0.
         25    1    3    3    0    0  0.79989229753E+02  0.11424990492E+02  0.83143959243E+02  0.17055566054E+03  0.12509000000E+03 0.  0.
         25    1    3    3    0    0 -0.84496260396E+02 -0.14058265502E+02  0.71920793753E+02  0.16780155400E+03  0.12509000000E+03 0.  0.
<mgrwt>
<rscale>  2 0.45568637E+03</rscale>
<asrwt>0</asrwt>
<pdfrwt beam="1">  1       21 0.70308006E-01 0.45568637E+03</pdfrwt>
<pdfrwt beam="2">  1       21 0.15967962E-01 0.45568637E+03</pdfrwt>
<totfact> 0.59184199E+04</totfact>
</mgrwt>
</event>
<event>
 6    0  0.3472812E-005  0.4575708E+03  0.7546771E-02  0.1025488E+00
         21   -1    0    0  502  501  0.00000000000E+00  0.00000000000E+00  0.35516664577E+03  0.35516664577E+03  0.00000000000E+00 0. -1.
         21   -1    0    0  501  502 -0.00000000000E+00 -0.00000000000E+00 -0.14737521492E+03  0.14737521492E+03  0.00000000000E+00 0. -1.
      99926    2    1    2    0    0  0.00000000000E+00  0.41078251911E-14  0.20779143085E+03  0.50254186069E+03  0.45757080655E+03 0.  0.
         25    1    3    3    0    0 -0.40283442111E+02 -0.59735793306E+02  0.18331165103E+03  0.23332764563E+03  0.12509000000E+03 0.  0.
         25    1    3    3    0    0  0.19090740949E+02 -0.89002266162E+00  0.32927174131E+00  0.12654194976E+03  0.12509000000E+03 0.  0.
         25    1    3    3    0    0  0.21192701162E+02  0.60625815967E+02  0.24150508076E+02  0.14267226530E+03  0.12509000000E+03 0.  0.
<mgrwt>
<rscale>  2 0.45757081E+03</rscale>
<asrwt>0</asrwt>
<pdfrwt beam="1">  1       21 0.52230389E-01 0.45757081E+03</pdfrwt>
<pdfrwt beam="2">  1       21 0.21672826E-01 0.45757081E+03</pdfrwt>
<totfact> 0.63780918E+04</totfact>
</mgrwt>
</event>
<event>
 6    0  0.3472812E-005  0.4518268E+03  0.7546771E-02  0.1027179E+00
         21   -1    0    0  502  501  0.00000000000E+00  0.00000000000E+00  0.18871632588E+03  0.18871632588E+03  0.00000000000E+00 0.  1.
         21   -1    0    0  501  502 -0.00000000000E+00 -0.00000000000E+00 -0.27044217404E+03  0.27044217404E+03  0.00000000000E+00 0.  1.
      99926    2    1    2    0    0 -0.39968028887E-14  0.35527136788E-14 -0.81725848162E+02  0.45915849992E+03  0.45182675196E+03 0.  0.
         25    1    3    3    0    0  0.35808608823E+01  0.24623075525E+02 -0.13513894397E+03  0.18582023757E+03  0.12509000000E+03 0.  0.
         25    1    3    3    0    0 -0.37712646504E+02  0.17539418727E+01  0.53042883625E+02  0.14101906120E+03  0.12509000000E+03 0.  0.
         25    1    3    3    0    0  0.34131785621E+02 -0.26377017398E+02  0.37021217754E+00  0.13231920115E+03  0.12509000000E+03 0.  0.
<mgrwt>
<rscale>  2 0.45182675E+03</rscale>
<asrwt>0</asrwt>
<pdfrwt beam="1">  1       21 0.27752401E-01 0.45182675E+03</pdfrwt>
<pdfrwt beam="2">  1       21 0.39770908E-01 0.45182675E+03</pdfrwt>
<totfact> 0.69995006E+04</totfact>
</mgrwt>
</event>
<event>
 6    0  0.3472812E-005  0.4355952E+03  0.7546771E-02  0.1032107E+00
         21   -1    0    0  502  501  0.00000000000E+00  0.00000000000E+00  0.67571585368E+03  0.67571585368E+03  0.00000000000E+00 0. -1.
         21   -1    0    0  501  502 -0.00000000000E+00 -0.00000000000E+00 -0.70200817428E+02  0.70200817428E+02  0.00000000000E+00 0. -1.
      99926    2    1    2    0    0 -0.26645352591E-14  0.00000000000E+00  0.60551503625E+03  0.74591667111E+03  0.43559524918E+03 0.  0.
         25    1    3    3    0    0 -0.36553802481E+02 -0.53672134211E+02  0.23661530714E+03  0.27541094775E+03  0.12509000000E+03 0.  0.
         25    1    3    3    0    0 -0.79038099350E+01  0.43763838895E+02  0.28155424658E+03  0.31128450921E+03  0.12509000000E+03 0.  0.
         25    1    3    3    0    0  0.44457612416E+02  0.99082953154E+01  0.87345482539E+02  0.15922121416E+03  0.12509000000E+03 0.  0.
<mgrwt>
<rscale>  2 0.43559525E+03</rscale>
<asrwt>0</asrwt>
<pdfrwt beam="1">  1       21 0.99369975E-01 0.43559525E+03</pdfrwt>
<pdfrwt beam="2">  1       21 0.10323650E-01 0.43559525E+03</pdfrwt>
<totfact> 0.58973072E+04</totfact>
</mgrwt>
</event>
<event>
 6    0  0.3472812E-005  0.4566580E+03  0.7546771E-02  0.1025755E+00
         21   -1    0    0  502  501  0.00000000000E+00  0.00000000000E+00  0.11624755780E+03  0.11624755780E+03  0.00000000000E+00 0.  1.
         21   -1    0    0  501  502 -0.00000000000E+00 -0.00000000000E+00 -0.44847515058E+03  0.44847515058E+03  0.00000000000E+00 0.  1.
      99926    2    1    2    0    0  0.00000000000E+00  0.00000000000E+00 -0.33222759279E+03  0.56472270838E+03  0.45665803831E+03 0.  0.
         25    1    3    3    0    0  0.90082396752E+02 -0.19221507610E+02 -0.97287978606E+02  0.18329419915E+03  0.12509000000E+03 0.  0.
         25    1    3    3    0    0 -0.65385834704E+02  0.71466871927E+02 -0.15807198570E+03  0.22364499083E+03  0.12509000000E+03 0.  0.
         25    1    3    3    0    0 -0.24696562048E+02 -0.52245364317E+02 -0.76867628487E+02  0.15778351840E+03  0.12509000000E+03 0.  0.
<mgrwt>
<rscale>  2 0.45665804E+03</rscale>
<asrwt>0</asrwt>
<pdfrwt beam="1">  1       21 0.17095229E-01 0.45665804E+03</pdfrwt>
<pdfrwt beam="2">  1       21 0.65952230E-01 0.45665804E+03</pdfrwt>
<totfact> 0.60111826E+04</totfact>
</mgrwt>
</event>
<event>
 6    0  0.3472812E-005  0.4569593E+03  0.7546771E-02  0.1025667E+00
         21   -1    0    0  502  501  0.00000000000E+00  0.00000000000E+00  0.86631738096E+02  0.86631738096E+02  0.00000000000E+00 0. -1.
         21   -1    0    0  501  502 -0.00000000000E+00 -0.00000000000E+00 -0.60258467408E+03  0.60258467408E+03  0.00000000000E+00 0. -1.
      99926    2    1    2    0    0  0.00000000000E+00 -0.35527136788E-14 -0.51595293598E+03  0.68921641218E+03  0.45695933152E+03 0.  0.
         25    1    3    3    0    0  0.21992444779E+02  0.27430542011E+02 -0.27822458810E+03  0.30707089049E+03  0.12509000000E+03 0.  0.
         25    1    3    3    0    0 -0.15144773499E+02 -0.94043211222E+02 -0.12042319597E+03  0.19804732760E+03  0.12509000000E+03 0.  0.
         25    1    3    3    0    0 -0.68476712800E+01  0.66612669211E+02 -0.11730515191E+03  0.18409819409E+03  0.12509000000E+03 0.  0.
<mgrwt>
<rscale>  2 0.45695933E+03</rscale>
<asrwt>0</asrwt>
<pdfrwt beam="1">  1       21 0.12739961E-01 0.45695933E+03</pdfrwt>
<pdfrwt beam="2">  1       21 0.88615394E-01 0.45695933E+03</pdfrwt>
<totfact> 0.52675285E+04</totfact>
</mgrwt>
</event>
<event>
 6    0  0.3472812E-005  0.4806259E+03  0.7546771E-02  0.1018963E+00
         21   -1    0    0  502  501  0.00000000000E+00  0.00000000000E+00  0.85987727808E+02  0.85987727808E+02  0.00000000000E+00 0. -1.
         21   -1    0    0  501  502 -0.00000000000E+00 -0.00000000000E+00 -0.67161113711E+03  0.67161113711E+03  0.00000000000E+00 0. -1.
      99926    2    1    2    0    0  0.00000000000E+00  0.14210854715E-13 -0.58562340930E+03  0.75759886491E+03  0.48062590713E+03 0.  0.
         25    1    3    3    0    0  0.37573928106E+02  0.38299120376E+02 -0.11559758420E+03  0.17857472460E+03  0.12509000000E+03 0.  0.
         25    1    3    3    0    0  0.33520697226E+02  0.53107797036E+02 -0.32988378657E+03  0.35835024207E+03  0.12509000000E+03 0.  0.
         25    1    3    3    0    0 -0.71094625331E+02 -0.91406917411E+02 -0.14014203852E+03  0.22067389824E+03  0.12509000000E+03 0.  0.
<mgrwt>
<rscale>  2 0.48062591E+03</rscale>
<asrwt>0</asrwt>
<pdfrwt beam="1">  1       21 0.12645255E-01 0.48062591E+03</pdfrwt>
<pdfrwt beam="2">  1       21 0.98766339E-01 0.48062591E+03</pdfrwt>
<totfact> 0.40986023E+04</totfact>
</mgrwt>
</event>
<event>
 6    0  0.3472812E-005  0.4263183E+03  0.7546771E-02  0.1035029E+00
         21   -1    0    0  502  501  0.00000000000E+00  0.00000000000E+00  0.27272984921E+03  0.27272984921E+03  0.00000000000E+00 0.  1.
         21   -1    0    0  501  502 -0.00000000000E+00 -0.00000000000E+00 -0.16660008755E+03  0.16660008755E+03  0.00000000000E+00 0.  1.
      99926    2    1    2    0    0  0.35527136788E-14  0.15543122345E-14  0.10612976167E+03  0.43932993676E+03  0.42631826963E+03 0.  0.
         25    1    3    3    0    0  0.47502977217E+02  0.38283618067E+02  0.12956785909E+02  0.13977680300E+03  0.12509000000E+03 0.  0.
         25    1    3    3    0    0  0.16097041699E+02  0.13961382968E+01  0.87692629957E+02  0.15361825869E+03  0.12509000000E+03 0.  0.
         25    1    3    3    0    0 -0.63600018915E+02 -0.39679756364E+02  0.54803458029E+01  0.14593487507E+03  0.12509000000E+03 0.  0.
<mgrwt>
<rscale>  2 0.42631827E+03</rscale>
<asrwt>0</asrwt>
<pdfrwt beam="1">  1       21 0.40107331E-01 0.42631827E+03</pdfrwt>
<pdfrwt beam="2">  1       21 0.24500013E-01 0.42631827E+03</pdfrwt>
<totfact> 0.88209242E+04</totfact>
</mgrwt>
</event>
<event>
 6    0  0.3472812E-005  0.4507736E+03  0.7546771E-02  0.1027492E+00
         21   -1    0    0  502  501  0.00000000000E+00  0.00000000000E+00  0.13129035657E+03  0.13129035657E+03  0.00000000000E+00 0.  1.
         21   -1    0    0  501  502 -0.00000000000E+00 -0.00000000000E+00 -0.38692259947E+03  0.38692259947E+03  0.00000000000E+00 0.  1.
      99926    2    1    2    0    0  0.00000000000E+00  0.00000000000E+00 -0.25563224290E+03  0.51821295605E+03  0.45077358419E+03 0.  0.
         25    1    3    3    0    0  0.45487845849E+01  0.68278452311E+02 -0.72603023901E+02  0.16000420517E+03  0.12509000000E+03 0.  0.
         25    1    3    3    0    0 -0.43521315759E+01 -0.81904456749E+01 -0.18001067420E+03  0.21940231397E+03  0.12509000000E+03 0.  0.
         25    1    3    3    0    0 -0.19665300905E+00 -0.60088006636E+02 -0.30185447939E+01  0.13880643691E+03  0.12509000000E+03 0.  0.
<mgrwt>
<rscale>  2 0.45077358E+03</rscale>
<asrwt>0</asrwt>
<pdfrwt beam="1">  1       21 0.19307406E-01 0.45077358E+03</pdfrwt>
<pdfrwt beam="2">  1       21 0.56900382E-01 0.45077358E+03</pdfrwt>
<totfact> 0.66201251E+04</totfact>
</mgrwt>
</event>
<event>
 6    0  0.3472812E-005  0.4829323E+03  0.7546771E-02  0.1018332E+00
         21   -1    0    0  502  501  0.00000000000E+00  0.00000000000E+00  0.82403459481E+02  0.82403459481E+02  0.00000000000E+00 0.  1.
         21   -1    0    0  501  502 -0.00000000000E+00 -0.00000000000E+00 -0.70756627878E+03  0.70756627878E+03  0.00000000000E+00 0.  1.
      99926    2    1    2    0    0  0.00000000000E+00 -0.14210854715E-13 -0.62516281930E+03  0.78996973826E+03  0.48293233142E+03 0.  0.
         25    1    3    3    0    0  0.10670492709E+03 -0.65352706731E+02 -0.32236787687E+03  0.36773016449E+03  0.12509000000E+03 0.  0.
         25    1    3    3    0    0 -0.20688027909E+02  0.64065613270E+02 -0.15750933380E+03  0.21210633097E+03  0.12509000000E+03 0.  0.
         25    1    3    3    0    0 -0.86016899178E+02  0.12870934609E+01 -0.14528560862E+03  0.21013324279E+03  0.12509000000E+03 0.  0.
<mgrwt>
<rscale>  2 0.48293233E+03</rscale>
<asrwt>0</asrwt>
<pdfrwt beam="1">  1       21 0.12118156E-01 0.48293233E+03</pdfrwt>
<pdfrwt beam="2">  1       21 0.10405386E+00 0.48293233E+03</pdfrwt>
<totfact> 0.38979849E+04</totfact>
</mgrwt>
</event>
<event>
 6    0  0.3472812E-005  0.4520738E+03  0.7546771E-02  0.1027105E+00
         21   -1    0    0  502  501  0.00000000000E+00  0.00000000000E+00  0.11673985896E+03  0.11673985896E+03  0.00000000000E+00 0. -1.
         21   -1    0    0  501  502 -0.00000000000E+00 -0.00000000000E+00 -0.43766265822E+03  0.43766265822E+03  0.00000000000E+00 0. -1.
      99926    2    1    2    0    0  0.00000000000E+00 -0.35527136788E-14 -0.32092279926E+03  0.55440251718E+03  0.45207378599E+03 0.  0.
         25    1    3    3    0    0  0.17358775612E+00 -0.29631061894E+02 -0.21158321517E+03  0.24757422120E+03  0.12509000000E+03 0.  0.
         25    1    3    3    0    0  0.35238046092E+02  0.57394339702E+02 -0.99662277380E+02  0.17353935506E+03  0.12509000000E+03 0.  0.
         25    1    3    3    0    0 -0.35411633848E+02 -0.27763277807E+02 -0.96773067066E+01  0.13328894092E+03  0.12509000000E+03 0.  0.
<mgrwt>
<rscale>  2 0.45207379E+03</rscale>
<asrwt>0</asrwt>
<pdfrwt beam="1">  1       21 0.17167626E-01 0.45207379E+03</pdfrwt>
<pdfrwt beam="2">  1       21 0.64362155E-01 0.45207379E+03</pdfrwt>
<totfact> 0.63022830E+04</totfact>
</mgrwt>
</event>
<event>
 6    0  0.3472812E-005  0.4407396E+03  0.7546771E-02  0.1030520E+00
         21   -1    0    0  502  501  0.00000000000E+00  0.00000000000E+00  0.26815668648E+03  0.26815668648E+03  0.00000000000E+00 0.  1.
         21   -1    0    0  501  502 -0.00000000000E+00 -0.00000000000E+00 -0.18109874158E+03  0.18109874158E+03  0.00000000000E+00 0.  1.
      99926    2    1    2    0    0  0.00000000000E+00  0.00000000000E+00  0.87057944900E+02  0.44925542806E+03  0.44073955333E+03 0.  0.
         25    1    3    3    0    0 -0.39975229776E+02 -0.57723084114E+02 -0.31546476338E+02  0.14687634835E+03  0.12509000000E+03 0.  0.
         25    1    3    3    0    0  0.31675424072E+02  0.66108182609E+02  0.98138621778E+02  0.17507804398E+03  0.12509000000E+03 0.  0.
         25    1    3    3    0    0  0.82998057044E+01 -0.83850984952E+01  0.20465799460E+02  0.12730103573E+03  0.12509000000E+03 0.  0.
<mgrwt>
<rscale>  2 0.44073955E+03</rscale>
<asrwt>0</asrwt>
<pdfrwt beam="1">  1       21 0.39434807E-01 0.44073955E+03</pdfrwt>
<pdfrwt beam="2">  1       21 0.26632168E-01 0.44073955E+03</pdfrwt>
<totfact> 0.77402020E+04</totfact>
</mgrwt>
</event>
<event>
 6    0  0.3472812E-005  0.4556474E+03  0.7546771E-02  0.1026051E+00
         21   -1    0    0  502  501  0.00000000000E+00  0.00000000000E+00  0.24306821877E+03  0.24306821877E+03  0.00000000000E+00 0. -1.
         21   -1    0    0  501  502 -0.00000000000E+00 -0.00000000000E+00 -0.21353530071E+03  0.21353530071E+03  0.00000000000E+00 0. -1.
      99926    2    1    2    0    0  0.00000000000E+00  0.00000000000E+00  0.29532918069E+02  0.45660351948E+03  0.45564743031E+03 0.  0.
         25    1    3    3    0    0 -0.42204748416E+02  0.41861201097E+02 -0.88321306244E+01  0.13877721563E+03  0.12509000000E+03 0.  0.
         25    1    3    3    0    0 -0.22439929364E+02  0.57065844999E+02 -0.82031448864E+01  0.13955235857E+03  0.12509000000E+03 0.  0.
         25    1    3    3    0    0  0.64644677779E+02 -0.98927046096E+02  0.46568193580E+02  0.17827394529E+03  0.12509000000E+03 0.  0.
<mgrwt>
<rscale>  2 0.45564743E+03</rscale>
<asrwt>0</asrwt>
<pdfrwt beam="1">  1       21 0.35745326E-01 0.45564743E+03</pdfrwt>
<pdfrwt beam="2">  1       21 0.31402250E-01 0.45564743E+03</pdfrwt>
<totfact> 0.68076173E+04</totfact>
</mgrwt>
</event>
<event>
 6    0  0.3472812E-005  0.4532015E+03  0.7546771E-02  0.1026772E+00
         21   -1    0    0  502  501  0.00000000000E+00  0.00000000000E+00  0.11716793410E+04  0.11716793410E+04  0.00000000000E+00 0.  1.
         21   -1    0    0  501  502 -0.00000000000E+00 -0.00000000000E+00 -0.43824182080E+02  0.43824182080E+02  0.00000000000E+00 0.  1.
      99926    2    1    2    0    0  0.35527136788E-14  0.00000000000E+00  0.11278551589E+04  0.12155035230E+04  0.45320145092E+03 0.  0.
         25    1    3    3    0    0  0.32534038678E+02  0.19191451560E+02  0.18397190634E+03  0.22565448347E+03  0.12509000000E+03 0.  0.
         25    1    3    3    0    0 -0.11204121511E+02 -0.75852221438E+02  0.62515746705E+03  0.64214364323E+03  0.12509000000E+03 0.  0.
         25    1    3    3    0    0 -0.21329917167E+02  0.56660769878E+02  0.31872578549E+03  0.34770539634E+03  0.12509000000E+03 0.  0.
<mgrwt>
<rscale>  2 0.45320145E+03</rscale>
<asrwt>0</asrwt>
<pdfrwt beam="1">  1       21 0.17230577E+00 0.45320145E+03</pdfrwt>
<pdfrwt beam="2">  1       21 0.64447334E-02 0.45320145E+03</pdfrwt>
<totfact> 0.32115941E+04</totfact>
</mgrwt>
</event>
<event>
 6    0  0.3472812E-005  0.4555723E+03  0.7546771E-02  0.1026073E+00
         21   -1    0    0  502  501  0.00000000000E+00  0.00000000000E+00  0.10647873288E+04  0.10647873288E+04  0.00000000000E+00 0.  1.
         21   -1    0    0  501  502 -0.00000000000E+00 -0.00000000000E+00 -0.48729471290E+02  0.48729471290E+02  0.00000000000E+00 0.  1.
      99926    2    1    2    0    0  0.00000000000E+00  0.00000000000E+00  0.10160578575E+04  0.11135168000E+04  0.45557227118E+03 0.  0.
         25    1    3    3    0    0  0.99801128252E+01 -0.28191372090E+02  0.19891531948E+03  0.23687373965E+03  0.12509000000E+03 0.  0.
         25    1    3    3    0    0  0.12558590699E+02  0.10930370788E+03  0.43929046686E+03  0.46981766797E+03  0.12509000000E+03 0.  0.
         25    1    3    3    0    0 -0.22538703524E+02 -0.81112335786E+02  0.37785207112E+03  0.40682539243E+03  0.12509000000E+03 0.  0.
<mgrwt>
<rscale>  2 0.45557227E+03</rscale>
<asrwt>0</asrwt>
<pdfrwt beam="1">  1       21 0.15658636E+00 0.45557227E+03</pdfrwt>
<pdfrwt beam="2">  1       21 0.71660994E-02 0.45557227E+03</pdfrwt>
<totfact> 0.34868180E+04</totfact>
</mgrwt>
</event>
<event>
 6    0  0.3472812E-005  0.4574543E+03  0.7546771E-02  0.1025522E+00
         21   -1    0    0  502  501  0.00000000000E+00  0.00000000000E+00  0.34735067189E+02  0.34735067189E+02  0.00000000000E+00 0. -1.
         21   -1    0    0  501  502 -0.00000000000E+00 -0.00000000000E+00 -0.15061468949E+04  0.15061468949E+04  0.00000000000E+00 0. -1.
      99926    2    1    2    0    0  0.00000000000E+00 -0.44408920985E-15 -0.14714118277E+04  0.15408819621E+04  0.45745431943E+03 0.  0.
         25    1    3    3    0    0 -0.86858805030E+02  0.20301474580E+01 -0.33119746890E+03  0.36453785128E+03  0.12509000000E+03 0.  0.
         25    1    3    3    0    0  0.39365606209E+02 -0.52462008545E+01 -0.32984290357E+03  0.35499439814E+03  0.12509000000E+03 0.  0.
         25    1    3    3    0    0  0.47493198821E+02  0.32160533966E+01 -0.81037145526E+03  0.82134971268E+03  0.12509000000E+03 0.  0.
<mgrwt>
<rscale>  2 0.45745432E+03</rscale>
<asrwt>0</asrwt>
<pdfrwt beam="1">  1       21 0.51080986E-02 0.45745432E+03</pdfrwt>
<pdfrwt beam="2">  1       21 0.22149217E+00 0.45745432E+03</pdfrwt>
<totfact> 0.22365379E+04</totfact>
</mgrwt>
</event>
<event>
 6    0  0.3472812E-005  0.4344935E+03  0.7546771E-02  0.1032450E+00
         21   -1    0    0  502  501  0.00000000000E+00  0.00000000000E+00  0.89908543224E+03  0.89908543224E+03  0.00000000000E+00 0.  1.
         21   -1    0    0  501  502 -0.00000000000E+00 -0.00000000000E+00 -0.52493515599E+02  0.52493515599E+02  0.00000000000E+00 0.  1.
      99926    2    1    2    0    0 -0.71054273576E-14  0.44408920985E-15  0.84659191664E+03  0.95157894784E+03  0.43449352198E+03 0.  0.
         25    1    3    3    0    0  0.68809632278E+02 -0.20492688540E+02  0.21803372612E+03  0.26142098157E+03  0.12509000000E+03 0.  0.
         25    1    3    3    0    0 -0.63228960465E+02 -0.26427245555E+01  0.20867245227E+03  0.25138931137E+03  0.12509000000E+03 0.  0.
         25    1    3    3    0    0 -0.55806718136E+01  0.23135413095E+02  0.41988573825E+03  0.43876865490E+03  0.12509000000E+03 0.  0.
<mgrwt>
<rscale>  2 0.43449352E+03</rscale>
<asrwt>0</asrwt>
<pdfrwt beam="1">  1       21 0.13221844E+00 0.43449352E+03</pdfrwt>
<pdfrwt beam="2">  1       21 0.77196352E-02 0.43449352E+03</pdfrwt>
<totfact> 0.48381431E+04</totfact>
</mgrwt>
</event>
<event>
 6    0  0.3472812E-005  0.4556769E+03  0.7546771E-02  0.1026043E+00
         21   -1    0    0  502  501  0.00000000000E+00  0.00000000000E+00  0.45122076483E+03  0.45122076483E+03  0.00000000000E+00 0.  1.
         21   -1    0    0  501  502 -0.00000000000E+00 -0.00000000000E+00 -0.11504426981E+03  0.11504426981E+03  0.00000000000E+00 0.  1.
      99926    2    1    2    0    0  0.00000000000E+00  0.00000000000E+00  0.33617649502E+03  0.56626503465E+03  0.45567691807E+03 0.  0.
         25    1    3    3    0    0  0.60410433741E+02  0.66711887026E+01  0.56908333681E+02  0.15026640278E+03  0.12509000000E+03 0.  0.
         25    1    3    3    0    0  0.19722760661E+02  0.52667002671E+02  0.74262088634E+02  0.15596527295E+03  0.12509000000E+03 0.  0.
         25    1    3    3    0    0 -0.80133194402E+02 -0.59338191374E+02  0.20500607271E+03  0.26003335891E+03  0.12509000000E+03 0.  0.
<mgrwt>
<rscale>  2 0.45567692E+03</rscale>
<asrwt>0</asrwt>
<pdfrwt beam="1">  1       21 0.66355994E-01 0.45567692E+03</pdfrwt>
<pdfrwt beam="2">  1       21 0.16918275E-01 0.45567692E+03</pdfrwt>
<totfact> 0.60479900E+04</totfact>
</mgrwt>
</event>
<event>
 6    0  0.3472812E-005  0.5184673E+03  0.7546771E-02  0.1009068E+00
         21   -1    0    0  502  501  0.00000000000E+00  0.00000000000E+00  0.17308762256E+03  0.17308762256E+03  0.00000000000E+00 0.  1.
         21   -1    0    0  501  502 -0.00000000000E+00 -0.00000000000E+00 -0.38825470900E+03  0.38825470900E+03  0.00000000000E+00 0.  1.
      99926    2    1    2    0    0  0.00000000000E+00  0.00000000000E+00 -0.21516708644E+03  0.56134233155E+03  0.51846729705E+03 0.  0.
         25    1    3    3    0    0 -0.67913224295E+02  0.12399249105E+03 -0.12964574840E+03  0.22900190403E+03  0.12509000000E+03 0.  0.
         25    1    3    3    0    0 -0.26150811760E+02 -0.81800477513E+02 -0.76665457732E+02  0.17000083408E+03  0.12509000000E+03 0.  0.
         25    1    3    3    0    0  0.94064036055E+02 -0.42192013533E+02 -0.88558803038E+01  0.16233959345E+03  0.12509000000E+03 0.  0.
<mgrwt>
<rscale>  2 0.51846730E+03</rscale>
<asrwt>0</asrwt>
<pdfrwt beam="1">  1       21 0.25454063E-01 0.51846730E+03</pdfrwt>
<pdfrwt beam="2">  1       21 0.57096280E-01 0.51846730E+03</pdfrwt>
<totfact> 0.38067322E+04</totfact>
</mgrwt>
</event>
<event>
 6    0  0.3472812E-005  0.4674173E+03  0.7546771E-02  0.1022652E+00
         21   -1    0    0  502  501  0.00000000000E+00  0.00000000000E+00  0.22175281092E+03  0.22175281092E+03  0.00000000000E+00 0.  1.
         21   -1    0    0  501  502 -0.00000000000E+00 -0.00000000000E+00 -0.24630913938E+03  0.24630913938E+03  0.00000000000E+00 0.  1.
      99926    2    1    2    0    0  0.00000000000E+00  0.17763568394E-14 -0.24556328457E+02  0.46806195030E+03  0.46741734676E+03 0.  0.
         25    1    3    3    0    0 -0.26087448875E+02  0.14579985464E+02 -0.87265611345E+02  0.15542176806E+03  0.12509000000E+03 0.  0.
         25    1    3    3    0    0  0.95849223942E+02 -0.49485454521E+01  0.61063806133E+02  0.16907944391E+03  0.12509000000E+03 0.  0.
         25    1    3    3    0    0 -0.69761775066E+02 -0.96314400116E+01  0.16454767550E+01  0.14356073833E+03  0.12509000000E+03 0.  0.
<mgrwt>
<rscale>  2 0.46741735E+03</rscale>
<asrwt>0</asrwt>
<pdfrwt beam="1">  1       21 0.32610708E-01 0.46741735E+03</pdfrwt>
<pdfrwt beam="2">  1       21 0.36221932E-01 0.46741735E+03</pdfrwt>
<totfact> 0.61297350E+04</totfact>
</mgrwt>
</event>
<event>
 6    0  0.3472812E-005  0.4594502E+03  0.7546771E-02  0.1024941E+00
         21   -1    0    0  502  501  0.00000000000E+00  0.00000000000E+00  0.24909360860E+04  0.24909360860E+04  0.00000000000E+00 0. -1.
         21   -1    0    0  501  502 -0.00000000000E+00 -0.00000000000E+00 -0.21186263699E+02  0.21186263699E+02  0.00000000000E+00 0. -1.
      99926    2    1    2    0    0  0.85487172896E-14 -0.35527136788E-14  0.24697498223E+04  0.25121223497E+04  0.45945023136E+03 0.  0.
         25    1    3    3    0    0  0.10666203406E+03 -0.19993113539E+02  0.10185622413E+04  0.10319365589E+04  0.12509000000E+03 0.  0.
         25    1    3    3    0    0 -0.10638477525E+03  0.36792379090E+01  0.88525419816E+03  0.90036312710E+03  0.12509000000E+03 0.  0.
         25    1    3    3    0    0 -0.27725880928E+00  0.16313875630E+02  0.56593338279E+03  0.57982266364E+03  0.12509000000E+03 0.  0.
<mgrwt>
<rscale>  2 0.45945023E+03</rscale>
<asrwt>0</asrwt>
<pdfrwt beam="1">  1       21 0.36631393E+00 0.45945023E+03</pdfrwt>
<pdfrwt beam="2">  1       21 0.31156287E-02 0.45945023E+03</pdfrwt>
<totfact> 0.67712288E+03</totfact>
</mgrwt>
</event>
<event>
 6    0  0.3472812E-005  0.4394741E+03  0.7546771E-02  0.1030908E+00
         21   -1    0    0  502  501  0.00000000000E+00  0.00000000000E+00  0.75279663745E+02  0.75279663745E+02  0.00000000000E+00 0.  1.
         21   -1    0    0  501  502 -0.00000000000E+00 -0.00000000000E+00 -0.64139995641E+03  0.64139995641E+03  0.00000000000E+00 0.  1.
      99926    2    1    2    0    0  0.00000000000E+00 -0.71054273576E-14 -0.56612029267E+03  0.71667962016E+03  0.43947410865E+03 0.  0.
         25    1    3    3    0    0  0.62520217936E+02 -0.44619064200E+02 -0.23322448544E+03  0.27557359680E+03  0.12509000000E+03 0.  0.
         25    1    3    3    0    0 -0.61251818479E+02  0.25378085239E+01 -0.93613221569E+02  0.16783673344E+03  0.12509000000E+03 0.  0.
         25    1    3    3    0    0 -0.12683994573E+01  0.42081255676E+02 -0.23928258565E+03  0.27326928992E+03  0.12509000000E+03 0.  0.
<mgrwt>
<rscale>  2 0.43947411E+03</rscale>
<asrwt>0</asrwt>
<pdfrwt beam="1">  1       21 0.11070540E-01 0.43947411E+03</pdfrwt>
<pdfrwt beam="2">  1       21 0.94323514E-01 0.43947411E+03</pdfrwt>
<totfact> 0.58874203E+04</totfact>
</mgrwt>
</event>
<event>
 6    0  0.3472812E-005  0.4502960E+03  0.7546771E-02  0.1027634E+00
         21   -1    0    0  502  501  0.00000000000E+00  0.00000000000E+00  0.90896644496E+03  0.90896644496E+03  0.00000000000E+00 0.  1.
         21   -1    0    0  501  502 -0.00000000000E+00 -0.00000000000E+00 -0.55768409044E+02  0.55768409044E+02  0.00000000000E+00 0.  1.
      99926    2    1    2    0    0  0.00000000000E+00  0.35527136788E-14  0.85319803592E+03  0.96473485400E+03  0.45029595828E+03 0.  0.
         25    1    3    3    0    0  0.67542792680E+02  0.43464247566E+02  0.28305634210E+03  0.31971795471E+03  0.12509000000E+03 0.  0.
         25    1    3    3    0    0 -0.79791787524E+02  0.31837297659E+02  0.33801932553E+03  0.37051979085E+03  0.12509000000E+03 0.  0.
         25    1    3    3    0    0  0.12248994843E+02 -0.75301545225E+02  0.23212236828E+03  0.27449710845E+03  0.12509000000E+03 0.  0.
<mgrwt>
<rscale>  2 0.45029596E+03</rscale>
<asrwt>0</asrwt>
<pdfrwt beam="1">  1       21 0.13367153E+00 0.45029596E+03</pdfrwt>
<pdfrwt beam="2">  1       21 0.82012372E-02 0.45029596E+03</pdfrwt>
<totfact> 0.42076166E+04</totfact>
</mgrwt>
</event>
<event>
 6    0  0.3472812E-005  0.4537504E+03  0.7546771E-02  0.1026610E+00
         21   -1    0    0  502  501  0.00000000000E+00  0.00000000000E+00  0.68965344455E+02  0.68965344455E+02  0.00000000000E+00 0.  1.
         21   -1    0    0  501  502 -0.00000000000E+00 -0.00000000000E+00 -0.74635105075E+03  0.74635105075E+03  0.00000000000E+00 0.  1.
      99926    2    1    2    0    0  0.00000000000E+00  0.00000000000E+00 -0.67738570630E+03  0.81531639521E+03  0.45375040407E+03 0.  0.
         25    1    3    3    0    0  0.29042180106E+02  0.17015420371E+02 -0.45556759870E+03  0.47362677061E+03  0.12509000000E+03 0.  0.
         25    1    3    3    0    0  0.15117785683E+02 -0.85014520592E+01 -0.12047709750E+03  0.17453670460E+03  0.12509000000E+03 0.  0.
         25    1    3    3    0    0 -0.44159965788E+02 -0.85139683122E+01 -0.10134101010E+03  0.16715291999E+03  0.12509000000E+03 0.  0.
<mgrwt>
<rscale>  2 0.45375040E+03</rscale>
<asrwt>0</asrwt>
<pdfrwt beam="1">  1       21 0.10141963E-01 0.45375040E+03</pdfrwt>
<pdfrwt beam="2">  1       21 0.10975750E+00 0.45375040E+03</pdfrwt>
<totfact> 0.47496908E+04</totfact>
</mgrwt>
</event>
<event>
 6    0  0.3472812E-005  0.4466160E+03  0.7546771E-02  0.1028736E+00
         21   -1    0    0  502  501  0.00000000000E+00  0.00000000000E+00  0.33529562638E+02  0.33529562638E+02  0.00000000000E+00 0. -1.
         21   -1    0    0  501  502 -0.00000000000E+00 -0.00000000000E+00 -0.14872390174E+04  0.14872390174E+04  0.00000000000E+00 0. -1.
      99926    2    1    2    0    0 -0.14210854715E-13 -0.22204460493E-15 -0.14537094547E+04  0.15207685800E+04  0.44661604893E+03 0.  0.
         25    1    3    3    0    0 -0.10160464418E+03 -0.66954233022E+00 -0.55881325519E+03  0.58158723703E+03  0.12509000000E+03 0.  0.
         25    1    3    3    0    0  0.80592334151E+02 -0.35559104567E+02 -0.46897598998E+03  0.49330068064E+03  0.12509000000E+03 0.  0.
         25    1    3    3    0    0  0.21012310029E+02  0.36228646897E+02 -0.42592020955E+03  0.44588066232E+03  0.12509000000E+03 0.  0.
<mgrwt>
<rscale>  2 0.44661605E+03</rscale>
<asrwt>0</asrwt>
<pdfrwt beam="1">  1       21 0.49308183E-02 0.44661605E+03</pdfrwt>
<pdfrwt beam="2">  1       21 0.21871161E+00 0.44661605E+03</pdfrwt>
<totfact> 0.24854170E+04</totfact>
</mgrwt>
</event>
<event>
 6    0  0.3472812E-005  0.4571253E+03  0.7546771E-02  0.1025618E+00
         21   -1    0    0  502  501  0.00000000000E+00  0.00000000000E+00  0.10460585595E+04  0.10460585595E+04  0.00000000000E+00 0. -1.
         21   -1    0    0  501  502 -0.00000000000E+00 -0.00000000000E+00 -0.49940678656E+02  0.49940678656E+02  0.00000000000E+00 0. -1.
      99926    2    1    2    0    0  0.00000000000E+00 -0.14210854715E-13  0.99611788088E+03  0.10959992382E+04  0.45712525363E+03 0.  0.
         25    1    3    3    0    0 -0.60611622635E+02  0.22791646584E+02  0.32245768921E+03  0.35188023159E+03  0.12509000000E+03 0.  0.
         25    1    3    3    0    0  0.44382583183E+02 -0.10175324221E+03  0.35764641423E+03  0.39481894801E+03  0.12509000000E+03 0.  0.
         25    1    3    3    0    0  0.16229039452E+02  0.78961595627E+02  0.31601377743E+03  0.34930005859E+03  0.12509000000E+03 0.  0.
<mgrwt>
<rscale>  2 0.45712525E+03</rscale>
<asrwt>0</asrwt>
<pdfrwt beam="1">  1       21 0.15383213E+00 0.45712525E+03</pdfrwt>
<pdfrwt beam="2">  1       21 0.73442181E-02 0.45712525E+03</pdfrwt>
<totfact> 0.35048581E+04</totfact>
</mgrwt>
</event>
<event>
 6    0  0.3472812E-005  0.4587229E+03  0.7546771E-02  0.1025152E+00
         21   -1    0    0  502  501  0.00000000000E+00  0.00000000000E+00  0.23803964854E+03  0.23803964854E+03  0.00000000000E+00 0. -1.
         21   -1    0    0  501  502 -0.00000000000E+00 -0.00000000000E+00 -0.22099959803E+03  0.22099959803E+03  0.00000000000E+00 0. -1.
      99926    2    1    2    0    0  0.00000000000E+00  0.00000000000E+00  0.17040050517E+02  0.45903924657E+03  0.45872286467E+03 0.  0.
         25    1    3    3    0    0 -0.35982254911E+02  0.61014083705E+01  0.50350775231E+01  0.13040249215E+03  0.12509000000E+03 0.  0.
         25    1    3    3    0    0  0.86178249662E+01  0.43006386182E+02 -0.87822201493E+02  0.15900963284E+03  0.12509000000E+03 0.  0.
         25    1    3    3    0    0  0.27364429945E+02 -0.49107794552E+02  0.99827174488E+02  0.16962712159E+03  0.12509000000E+03 0.  0.
<mgrwt>
<rscale>  2 0.45872286E+03</rscale>
<asrwt>0</asrwt>
<pdfrwt beam="1">  1       21 0.35005831E-01 0.45872286E+03</pdfrwt>
<pdfrwt beam="2">  1       21 0.32499941E-01 0.45872286E+03</pdfrwt>
<totfact> 0.66260689E+04</totfact>
</mgrwt>
</event>
<event>
 6    0  0.3472812E-005  0.4692433E+03  0.7546771E-02  0.1022134E+00
         21   -1    0    0  502  501  0.00000000000E+00  0.00000000000E+00  0.22161808743E+03  0.22161808743E+03  0.00000000000E+00 0.  1.
         21   -1    0    0  501  502 -0.00000000000E+00 -0.00000000000E+00 -0.24838822250E+03  0.24838822250E+03  0.00000000000E+00 0.  1.
      99926    2    1    2    0    0  0.00000000000E+00  0.00000000000E+00 -0.26770135071E+02  0.47000630994E+03  0.46924331775E+03 0.  0.
         25    1    3    3    0    0 -0.23193074231E+02  0.60645634416E+02 -0.75698005882E+02  0.15997971078E+03  0.12509000000E+03 0.  0.
         25    1    3    3    0    0  0.81694853884E+02  0.10503472627E+02  0.11358266861E+02  0.15020283091E+03  0.12509000000E+03 0.  0.
         25    1    3    3    0    0 -0.58501779653E+02 -0.71149107043E+02  0.37569603950E+02  0.15982376825E+03  0.12509000000E+03 0.  0.
<mgrwt>
<rscale>  2 0.46924332E+03</rscale>
<asrwt>0</asrwt>
<pdfrwt beam="1">  1       21 0.32590895E-01 0.46924332E+03</pdfrwt>
<pdfrwt beam="2">  1       21 0.36527680E-01 0.46924332E+03</pdfrwt>
<totfact> 0.60309330E+04</totfact>
</mgrwt>
</event>
<event>
 5    0  0.7834729E-005  0.6003991E+03  0.7546771E-02  0.9904578E-01
         21   -1    0    0  502  501  0.00000000000E+00  0.00000000000E+00  0.20371539640E+03  0.20371539640E+03  0.00000000000E+00 0. -1.
         21   -1    0    0  501  502 -0.00000000000E+00 -0.00000000000E+00 -0.44238079169E+03  0.44238079169E+03  0.00000000000E+00 0. -1.
         25    1    1    2    0    0 -0.20263026233E+02 -0.45856678751E+02  0.63225265627E+02  0.14885686928E+03  0.12509000000E+03 0.  0.
         25    1    1    2    0    0 -0.12904942520E+03  0.13389076682E+02 -0.21756253798E+03  0.28251369445E+03  0.12509000000E+03 0.  0.
         25    1    1    2    0    0  0.14931245143E+03  0.32467602069E+02 -0.84328122930E+02  0.21472562435E+03  0.12509000000E+03 0.  0.
<mgrwt>
<rscale>  2 0.60039913E+03</rscale>
<asrwt>0</asrwt>
<pdfrwt beam="1">  1       21 0.29958147E-01 0.60039913E+03</pdfrwt>
<pdfrwt beam="2">  1       21 0.65055998E-01 0.60039913E+03</pdfrwt>
<totfact> 0.20349243E+04</totfact>
</mgrwt>
</event>
<event>
 6    0  0.3472812E-005  0.4307537E+03  0.7546771E-02  0.1033622E+00
         21   -1    0    0  502  501  0.00000000000E+00  0.00000000000E+00  0.43418233992E+02  0.43418233992E+02  0.00000000000E+00 0.  1.
         21   -1    0    0  501  502 -0.00000000000E+00 -0.00000000000E+00 -0.10683804151E+04  0.10683804151E+04  0.00000000000E+00 0.  1.
      99926    2    1    2    0    0  0.71054273576E-14  0.00000000000E+00 -0.10249621811E+04  0.11117986491E+04  0.43075371550E+03 0.  0.
         25    1    3    3    0    0 -0.14000296098E+02 -0.68120454338E+02 -0.23889714653E+03  0.27848834681E+03  0.12509000000E+03 0.  0.
         25    1    3    3    0    0 -0.34704937556E+02  0.37380355403E+02 -0.45816801300E+03  0.47766846232E+03  0.12509000000E+03 0.  0.
         25    1    3    3    0    0  0.48705233654E+02  0.30740098935E+02 -0.32789702156E+03  0.35564183994E+03  0.12509000000E+03 0.  0.
<mgrwt>
<rscale>  2 0.43075372E+03</rscale>
<asrwt>0</asrwt>
<pdfrwt beam="1">  1       21 0.63850343E-02 0.43075372E+03</pdfrwt>
<pdfrwt beam="2">  1       21 0.15711477E+00 0.43075372E+03</pdfrwt>
<totfact> 0.42581880E+04</totfact>
</mgrwt>
</event>
<event>
 6    0  0.3472812E-005  0.5015569E+03  0.7546771E-02  0.1013373E+00
         21   -1    0    0  502  501  0.00000000000E+00  0.00000000000E+00  0.14969054166E+04  0.14969054166E+04  0.00000000000E+00 0. -1.
         21   -1    0    0  501  502 -0.00000000000E+00 -0.00000000000E+00 -0.42013231566E+02  0.42013231566E+02  0.00000000000E+00 0. -1.
      99926    2    1    2    0    0  0.00000000000E+00  0.00000000000E+00  0.14548921851E+04  0.15389186482E+04  0.50155691163E+03 0.  0.
         25    1    3    3    0    0 -0.98560376870E+02 -0.19792023152E+02  0.54167857569E+03  0.56495049299E+03  0.12509000000E+03 0.  0.
         25    1    3    3    0    0  0.13018322059E+01  0.10074754086E+03  0.44176185278E+03  0.47005617157E+03  0.12509000000E+03 0.  0.
         25    1    3    3    0    0  0.97258544665E+02 -0.80955517708E+02  0.47145175658E+03  0.50391198363E+03  0.12509000000E+03 0.  0.
<mgrwt>
<rscale>  2 0.50155691E+03</rscale>
<asrwt>0</asrwt>
<pdfrwt beam="1">  1       21 0.22013311E+00 0.50155691E+03</pdfrwt>
<pdfrwt beam="2">  1       21 0.61784174E-02 0.50155691E+03</pdfrwt>
<totfact> 0.16161364E+04</totfact>
</mgrwt>
</event>
<event>
 6    0  0.3472812E-005  0.4539424E+03  0.7546771E-02  0.1026553E+00
         21   -1    0    0  502  501  0.00000000000E+00  0.00000000000E+00  0.20386301095E+03  0.20386301095E+03  0.00000000000E+00 0.  1.
         21   -1    0    0  501  502 -0.00000000000E+00 -0.00000000000E+00 -0.25269875639E+03  0.25269875639E+03  0.00000000000E+00 0.  1.
      99926    2    1    2    0    0  0.00000000000E+00  0.00000000000E+00 -0.48835745444E+02  0.45656176734E+03  0.45394241635E+03 0.  0.
         25    1    3    3    0    0  0.79162624581E+02  0.89008590782E+01  0.32503218464E+02  0.15182198040E+03  0.12509000000E+03 0.  0.
         25    1    3    3    0    0  0.12580616241E+02 -0.32834335744E+02 -0.45913709768E+01  0.13001905359E+03  0.12509000000E+03 0.  0.
         25    1    3    3    0    0 -0.91743240822E+02  0.23933476666E+02 -0.76747592932E+02  0.17472073335E+03  0.12509000000E+03 0.  0.
<mgrwt>
<rscale>  2 0.45394242E+03</rscale>
<asrwt>0</asrwt>
<pdfrwt beam="1">  1       21 0.29979854E-01 0.45394242E+03</pdfrwt>
<pdfrwt beam="2">  1       21 0.37161582E-01 0.45394242E+03</pdfrwt>
<totfact> 0.69011971E+04</totfact>
</mgrwt>
</event>
<event>
 5    0  0.3472812E-005  0.7401091E+03  0.7546771E-02  0.9650997E-01
         21   -1    0    0  502  501  0.00000000000E+00  0.00000000000E+00  0.23124264382E+03  0.23124264382E+03  0.00000000000E+00 0. -1.
         21   -1    0    0  501  502 -0.00000000000E+00 -0.00000000000E+00 -0.59219340613E+03  0.59219340613E+03  0.00000000000E+00 0. -1.
         25    1    1    2    0    0 -0.21273915220E+02 -0.57513612228E+01 -0.47252079147E+03  0.48929445541E+03  0.12509000000E+03 0.  0.
         25    1    1    2    0    0 -0.16715399128E+02  0.77207637352E+02  0.11133174120E+03  0.18515584930E+03  0.12509000000E+03 0.  0.
         25    1    1    2    0    0  0.37989314348E+02 -0.71456276130E+02  0.23828795934E+00  0.14898574524E+03  0.12509000000E+03 0.  0.
<mgrwt>
<rscale>  2 0.74010910E+03</rscale>
<asrwt>0</asrwt>
<pdfrwt beam="1">  1       21 0.34006271E-01 0.74010910E+03</pdfrwt>
<pdfrwt beam="2">  1       21 0.87087265E-01 0.74010910E+03</pdfrwt>
<totfact> 0.78372661E+03</totfact>
</mgrwt>
</event>
<event>
 6    0  0.3472812E-005  0.4528885E+03  0.7546771E-02  0.1026864E+00
         21   -1    0    0  502  501  0.00000000000E+00  0.00000000000E+00  0.47224060934E+03  0.47224060934E+03  0.00000000000E+00 0.  1.
         21   -1    0    0  501  502 -0.00000000000E+00 -0.00000000000E+00 -0.10858234180E+03  0.10858234180E+03  0.00000000000E+00 0.  1.
      99926    2    1    2    0    0  0.00000000000E+00  0.00000000000E+00  0.36365826755E+03  0.58082295114E+03  0.45288846863E+03 0.  0.
         25    1    3    3    0    0  0.10279842873E+02 -0.72513694973E+02  0.10698891996E+03  0.18016117290E+03  0.12509000000E+03 0.  0.
         25    1    3    3    0    0 -0.76978507869E+02  0.17014419357E+02  0.17067283188E+03  0.22581387199E+03  0.12509000000E+03 0.  0.
         25    1    3    3    0    0  0.66698664996E+02  0.55499275616E+02  0.85996515709E+02  0.17484790625E+03  0.12509000000E+03 0.  0.
<mgrwt>
<rscale>  2 0.45288847E+03</rscale>
<asrwt>0</asrwt>
<pdfrwt beam="1">  1       21 0.69447148E-01 0.45288847E+03</pdfrwt>
<pdfrwt beam="2">  1       21 0.15967992E-01 0.45288847E+03</pdfrwt>
<totfact> 0.60884444E+04</totfact>
</mgrwt>
</event>
<event>
 6    0  0.3472812E-005  0.4572703E+03  0.7546771E-02  0.1025576E+00
         21   -1    0    0  502  501  0.00000000000E+00  0.00000000000E+00  0.25519195553E+04  0.25519195553E+04  0.00000000000E+00 0. -1.
         21   -1    0    0  501  502 -0.00000000000E+00 -0.00000000000E+00 -0.20484201876E+02  0.20484201876E+02  0.00000000000E+00 0. -1.
      99926    2    1    2    0    0  0.00000000000E+00 -0.71054273576E-14  0.25314353535E+04  0.25724037572E+04  0.45727031543E+03 0.  0.
         25    1    3    3    0    0  0.19626023513E+02  0.37418459192E+02  0.10536387422E+04  0.10618791970E+04  0.12509000000E+03 0.  0.
         25    1    3    3    0    0 -0.34940895650E+02  0.58191372536E+02  0.49402410951E+03  0.51411519226E+03  0.12509000000E+03 0.  0.
         25    1    3    3    0    0  0.15314872137E+02 -0.95609831729E+02  0.98377250180E+03  0.99640936800E+03  0.12509000000E+03 0.  0.
<mgrwt>
<rscale>  2 0.45727032E+03</rscale>
<asrwt>0</asrwt>
<pdfrwt beam="1">  1       21 0.37528207E+00 0.45727032E+03</pdfrwt>
<pdfrwt beam="2">  1       21 0.30123844E-02 0.45727032E+03</pdfrwt>
<totfact> 0.63070601E+03</totfact>
</mgrwt>
</event>
<event>
 6    0  0.3472812E-005  0.4606861E+03  0.7546771E-02  0.1024582E+00
         21   -1    0    0  502  501  0.00000000000E+00  0.00000000000E+00  0.54049381637E+03  0.54049381637E+03  0.00000000000E+00 0. -1.
         21   -1    0    0  501  502 -0.00000000000E+00 -0.00000000000E+00 -0.98165651329E+02  0.98165651329E+02  0.00000000000E+00 0. -1.
      99926    2    1    2    0    0  0.00000000000E+00  0.00000000000E+00  0.44232816504E+03  0.63865946770E+03  0.46068612969E+03 0.  0.
         25    1    3    3    0    0  0.27006767191E+02 -0.46824001879E+01  0.74732358269E+02  0.14826909259E+03  0.12509000000E+03 0.  0.
         25    1    3    3    0    0  0.76016564066E+02 -0.52305213990E+01  0.99854530387E+02  0.17726903764E+03  0.12509000000E+03 0.  0.
         25    1    3    3    0    0 -0.10302333126E+03  0.99129215869E+01  0.26774127638E+03  0.31312133747E+03  0.12509000000E+03 0.  0.
<mgrwt>
<rscale>  2 0.46068613E+03</rscale>
<asrwt>0</asrwt>
<pdfrwt beam="1">  1       21 0.79484383E-01 0.46068613E+03</pdfrwt>
<pdfrwt beam="2">  1       21 0.14436125E-01 0.46068613E+03</pdfrwt>
<totfact> 0.53899740E+04</totfact>
</mgrwt>
</event>
<event>
 6    0  0.3472812E-005  0.4566134E+03  0.7546771E-02  0.1025768E+00
         21   -1    0    0  502  501  0.00000000000E+00  0.00000000000E+00  0.86867287637E+02  0.86867287637E+02  0.00000000000E+00 0. -1.
         21   -1    0    0  501  502 -0.00000000000E+00 -0.00000000000E+00 -0.60004111289E+03  0.60004111289E+03  0.00000000000E+00 0. -1.
      99926    2    1    2    0    0 -0.53290705182E-14  0.35527136788E-14 -0.51317382526E+03  0.68690840053E+03  0.45661337671E+03 0.  0.
         25    1    3    3    0    0 -0.12695192064E+02  0.23025924147E+02 -0.28638257639E+03  0.31361417258E+03  0.12509000000E+03 0.  0.
         25    1    3    3    0    0  0.71860099698E+02  0.26330281043E+02 -0.13952881765E+03  0.20241777759E+03  0.12509000000E+03 0.  0.
         25    1    3    3    0    0 -0.59164907634E+02 -0.49356205190E+02 -0.87262431215E+02  0.17087645036E+03  0.12509000000E+03 0.  0.
<mgrwt>
<rscale>  2 0.45661338E+03</rscale>
<asrwt>0</asrwt>
<pdfrwt beam="1">  1       21 0.12774601E-01 0.45661338E+03</pdfrwt>
<pdfrwt beam="2">  1       21 0.88241341E-01 0.45661338E+03</pdfrwt>
<totfact> 0.52944015E+04</totfact>
</mgrwt>
</event>
<event>
 6    0  0.3472812E-005  0.4518056E+03  0.7546771E-02  0.1027185E+00
         21   -1    0    0  502  501  0.00000000000E+00  0.00000000000E+00  0.87852757773E+03  0.87852757773E+03  0.00000000000E+00 0. -1.
         21   -1    0    0  501  502 -0.00000000000E+00 -0.00000000000E+00 -0.58088190958E+02  0.58088190958E+02  0.00000000000E+00 0. -1.
      99926    2    1    2    0    0 -0.17763568394E-14  0.00000000000E+00  0.82043938677E+03  0.93661576869E+03  0.45180561173E+03 0.  0.
         25    1    3    3    0    0 -0.15937158857E+02  0.33426265964E+02  0.90984861663E+02  0.15905049966E+03  0.12509000000E+03 0.  0.
         25    1    3    3    0    0  0.34222279058E+02 -0.41914104628E+02  0.29405682485E+03  0.32410628024E+03  0.12509000000E+03 0.  0.
         25    1    3    3    0    0 -0.18285120200E+02  0.84878386642E+01  0.43539770026E+03  0.45345898879E+03  0.12509000000E+03 0.  0.
<mgrwt>
<rscale>  2 0.45180561E+03</rscale>
<asrwt>0</asrwt>
<pdfrwt beam="1">  1       21 0.12919522E+00 0.45180561E+03</pdfrwt>
<pdfrwt beam="2">  1       21 0.85423816E-02 0.45180561E+03</pdfrwt>
<totfact> 0.42745540E+04</totfact>
</mgrwt>
</event>
<event>
 6    0  0.3472812E-005  0.4506044E+03  0.7546771E-02  0.1027542E+00
         21   -1    0    0  502  501  0.00000000000E+00  0.00000000000E+00  0.89332502424E+03  0.89332502424E+03  0.00000000000E+00 0. -1.
         21   -1    0    0  501  502 -0.00000000000E+00 -0.00000000000E+00 -0.56822629008E+02  0.56822629008E+02  0.00000000000E+00 0. -1.
      99926    2    1    2    0    0  0.00000000000E+00 -0.17763568394E-14  0.83650239523E+03  0.95014765325E+03  0.45060437830E+03 0.  0.
         25    1    3    3    0    0  0.47413195034E+02 -0.60935422073E+02  0.35255065777E+03  0.38196938506E+03  0.12509000000E+03 0.  0.
         25    1    3    3    0    0 -0.23293197729E+02  0.76536477684E+01  0.10598088892E+03  0.16577276104E+03  0.12509000000E+03 0.  0.
         25    1    3    3    0    0 -0.24119997305E+02  0.53281774305E+02  0.37797084854E+03  0.40240550716E+03  0.12509000000E+03 0.  0.
<mgrwt>
<rscale>  2 0.45060438E+03</rscale>
<asrwt>0</asrwt>
<pdfrwt beam="1">  1       21 0.13137132E+00 0.45060438E+03</pdfrwt>
<pdfrwt beam="2">  1       21 0.83562695E-02 0.45060438E+03</pdfrwt>
<totfact> 0.42579667E+04</totfact>
</mgrwt>
</event>
<event>
 6    0  0.3472812E-005  0.4556508E+03  0.7546771E-02  0.1026050E+00
         21   -1    0    0  502  501  0.00000000000E+00  0.00000000000E+00  0.39422167432E+03  0.39422167432E+03  0.00000000000E+00 0. -1.
         21   -1    0    0  501  502 -0.00000000000E+00 -0.00000000000E+00 -0.13166298750E+03  0.13166298750E+03  0.00000000000E+00 0. -1.
      99926    2    1    2    0    0  0.71054273576E-14  0.00000000000E+00  0.26255868682E+03  0.52588466183E+03  0.45565075828E+03 0.  0.
         25    1    3    3    0    0  0.60672903105E+01 -0.11082606590E+01  0.10621832069E+03  0.16421900013E+03  0.12509000000E+03 0.  0.
         25    1    3    3    0    0 -0.40382711411E+02 -0.94117203058E+02  0.51746736015E+02  0.16974700021E+03  0.12509000000E+03 0.  0.
         25    1    3    3    0    0  0.34315421101E+02  0.95225463717E+02  0.10459363012E+03  0.19191866149E+03  0.12509000000E+03 0.  0.
<mgrwt>
<rscale>  2 0.45565076E+03</rscale>
<asrwt>0</asrwt>
<pdfrwt beam="1">  1       21 0.57973776E-01 0.45565076E+03</pdfrwt>
<pdfrwt beam="2">  1       21 0.19362204E-01 0.45565076E+03</pdfrwt>
<totfact> 0.63159521E+04</totfact>
</mgrwt>
</event>
<event>
 6    0  0.3472812E-005  0.4534636E+03  0.7546771E-02  0.1026694E+00
         21   -1    0    0  502  501  0.00000000000E+00  0.00000000000E+00  0.19676082134E+03  0.19676082134E+03  0.00000000000E+00 0.  1.
         21   -1    0    0  501  502 -0.00000000000E+00 -0.00000000000E+00 -0.26126799346E+03  0.26126799346E+03  0.00000000000E+00 0.  1.
      99926    2    1    2    0    0  0.00000000000E+00  0.10658141036E-13 -0.64507172125E+02  0.45802881480E+03  0.45346358170E+03 0.  0.
         25    1    3    3    0    0  0.38575488140E+02  0.25999799465E+02 -0.87222574156E+02  0.15943444860E+03  0.12509000000E+03 0.  0.
         25    1    3    3    0    0 -0.71130810627E+02  0.40034376333E+02 -0.10367245169E+02  0.14972418436E+03  0.12509000000E+03 0.  0.
         25    1    3    3    0    0  0.32555322487E+02 -0.66034175798E+02  0.33082647200E+02  0.14887018184E+03  0.12509000000E+03 0.  0.
<mgrwt>
<rscale>  2 0.45346358E+03</rscale>
<asrwt>0</asrwt>
<pdfrwt beam="1">  1       21 0.28935415E-01 0.45346358E+03</pdfrwt>
<pdfrwt beam="2">  1       21 0.38421764E-01 0.45346358E+03</pdfrwt>
<totfact> 0.69168075E+04</totfact>
</mgrwt>
</event>
<event>
 6    0  0.3472812E-005  0.4596957E+03  0.7546771E-02  0.1024870E+00
         21   -1    0    0  502  501  0.00000000000E+00  0.00000000000E+00  0.26124028962E+04  0.26124028962E+04  0.00000000000E+00 0. -1.
         21   -1    0    0  501  502 -0.00000000000E+00 -0.00000000000E+00 -0.20222770624E+02  0.20222770624E+02  0.00000000000E+00 0. -1.
      99926    2    1    2    0    0  0.00000000000E+00  0.00000000000E+00  0.25921801255E+04  0.26326256668E+04  0.45969565822E+03 0.  0.
         25    1    3    3    0    0 -0.25293236797E+02 -0.12879465721E+02  0.39030163737E+03  0.41083878188E+03  0.12509000000E+03 0.  0.
         25    1    3    3    0    0  0.25165750242E+02  0.83891587323E+02  0.10913139686E+04  0.11019459150E+04  0.12509000000E+03 0.  0.
         25    1    3    3    0    0  0.12748655504E+00 -0.71012121602E+02  0.11105645195E+04  0.11198409699E+04  0.12509000000E+03 0.  0.
<mgrwt>
<rscale>  2 0.45969566E+03</rscale>
<asrwt>0</asrwt>
<pdfrwt beam="1">  1       21 0.38417666E+00 0.45969566E+03</pdfrwt>
<pdfrwt beam="2">  1       21 0.29739387E-02 0.45969566E+03</pdfrwt>
<totfact> 0.56583959E+03</totfact>
</mgrwt>
</event>
<event>
 6    0  0.3472812E-005  0.4445263E+03  0.7546771E-02  0.1029367E+00
         21   -1    0    0  502  501  0.00000000000E+00  0.00000000000E+00  0.13490891909E+03  0.13490891909E+03  0.00000000000E+00 0.  1.
         21   -1    0    0  501  502 -0.00000000000E+00 -0.00000000000E+00 -0.36617966865E+03  0.36617966865E+03  0.00000000000E+00 0.  1.
      99926    2    1    2    0    0  0.00000000000E+00  0.35527136788E-14 -0.23127074956E+03  0.50108858775E+03  0.44452627950E+03 0.  0.
         25    1    3    3    0    0  0.48383753793E+02  0.28896210503E+02 -0.58263082499E+02  0.14905728260E+03  0.12509000000E+03 0.  0.
         25    1    3    3    0    0 -0.56535165002E+02 -0.11230693853E+02 -0.95750379611E-01  0.13773115346E+03  0.12509000000E+03 0.  0.
         25    1    3    3    0    0  0.81514112092E+01 -0.17665516649E+02 -0.17291191668E+03  0.21430015169E+03  0.12509000000E+03 0.  0.
<mgrwt>
<rscale>  2 0.44452628E+03</rscale>
<asrwt>0</asrwt>
<pdfrwt beam="1">  1       21 0.19839547E-01 0.44452628E+03</pdfrwt>
<pdfrwt beam="2">  1       21 0.53849952E-01 0.44452628E+03</pdfrwt>
<totfact> 0.70907905E+04</totfact>
</mgrwt>
</event>
<event>
 6    0  0.3472812E-005  0.4498187E+03  0.7546771E-02  0.1027776E+00
         21   -1    0    0  502  501  0.00000000000E+00  0.00000000000E+00  0.77843690661E+03  0.77843690661E+03  0.00000000000E+00 0. -1.
         21   -1    0    0  501  502 -0.00000000000E+00 -0.00000000000E+00 -0.64981787186E+02  0.64981787186E+02  0.00000000000E+00 0. -1.
      99926    2    1    2    0    0  0.00000000000E+00  0.00000000000E+00  0.71345511943E+03  0.84341869380E+03  0.44981872528E+03 0.  0.
         25    1    3    3    0    0  0.24228420025E+02 -0.42878298046E+02  0.11328874557E+03  0.17580504189E+03  0.12509000000E+03 0.  0.
         25    1    3    3    0    0  0.46857653839E+02  0.48677765887E+02  0.36691009915E+03  0.39349166900E+03  0.12509000000E+03 0.  0.
         25    1    3    3    0    0 -0.71086073864E+02 -0.57994678407E+01  0.23325627471E+03  0.27412198292E+03  0.12509000000E+03 0.  0.
<mgrwt>
<rscale>  2 0.44981873E+03</rscale>
<asrwt>0</asrwt>
<pdfrwt beam="1">  1       21 0.11447601E+00 0.44981873E+03</pdfrwt>
<pdfrwt beam="2">  1       21 0.95561456E-02 0.44981873E+03</pdfrwt>
<totfact> 0.47642444E+04</totfact>
</mgrwt>
</event>
<event>
 5    0  0.3571156E-005  0.5755986E+03  0.7546771E-02  0.9957366E-01
         21   -1    0    0  502  501  0.00000000000E+00  0.00000000000E+00  0.89571901876E+03  0.89571901876E+03  0.00000000000E+00 0.  1.
         21   -1    0    0  501  502 -0.00000000000E+00 -0.00000000000E+00 -0.92471435146E+02  0.92471435146E+02  0.00000000000E+00 0.  1.
         25    1    1    2    0    0  0.37484099741E+02  0.16626989917E+03  0.22827926923E+03  0.31114252355E+03  0.12509000000E+03 0.  0.
         25    1    1    2    0    0 -0.97743026641E+02 -0.11437150523E+03  0.23246919963E+03  0.30384860925E+03  0.12509000000E+03 0.  0.
         25    1    1    2    0    0  0.60258926900E+02 -0.51898393948E+02  0.34249911475E+03  0.37319932110E+03  0.12509000000E+03 0.  0.
<mgrwt>
<rscale>  2 0.57559855E+03</rscale>
<asrwt>0</asrwt>
<pdfrwt beam="1">  1       21 0.13172338E+00 0.57559855E+03</pdfrwt>
<pdfrwt beam="2">  1       21 0.13598741E-01 0.57559855E+03</pdfrwt>
<totfact> 0.16988691E+04</totfact>
</mgrwt>
</event>
<event>
 6    0  0.3472812E-005  0.4575380E+03  0.7546771E-02  0.1025498E+00
         21   -1    0    0  502  501  0.00000000000E+00  0.00000000000E+00  0.26133180616E+02  0.26133180616E+02  0.00000000000E+00 0. -1.
         21   -1    0    0  501  502 -0.00000000000E+00 -0.00000000000E+00 -0.20026365976E+04  0.20026365976E+04  0.00000000000E+00 0. -1.
      99926    2    1    2    0    0  0.00000000000E+00 -0.88817841970E-15 -0.19765034170E+04  0.20287697782E+04  0.45753803738E+03 0.  0.
         25    1    3    3    0    0  0.58884375854E+02 -0.17704094979E+02 -0.10791241033E+04  0.10880887570E+04  0.12509000000E+03 0.  0.
         25    1    3    3    0    0 -0.15254037015E+02  0.26279236951E+01 -0.25309120477E+03  0.28274061905E+03  0.12509000000E+03 0.  0.
         25    1    3    3    0    0 -0.43630338839E+02  0.15076171284E+02 -0.64428810888E+03  0.65794040213E+03  0.12509000000E+03 0.  0.
<mgrwt>
<rscale>  2 0.45753804E+03</rscale>
<asrwt>0</asrwt>
<pdfrwt beam="1">  1       21 0.38431145E-02 0.45753804E+03</pdfrwt>
<pdfrwt beam="2">  1       21 0.29450541E+00 0.45753804E+03</pdfrwt>
<totfact> 0.12987846E+04</totfact>
</mgrwt>
</event>
<event>
 6    0  0.3472812E-005  0.4680555E+03  0.7546771E-02  0.1022470E+00
         21   -1    0    0  502  501  0.00000000000E+00  0.00000000000E+00  0.10746597965E+03  0.10746597965E+03  0.00000000000E+00 0.  1.
         21   -1    0    0  501  502 -0.00000000000E+00 -0.00000000000E+00 -0.50964030161E+03  0.50964030161E+03  0.00000000000E+00 0.  1.
      99926    2    1    2    0    0  0.00000000000E+00  0.00000000000E+00 -0.40217432196E+03  0.61710628125E+03  0.46805552781E+03 0.  0.
         25    1    3    3    0    0  0.73141494574E+02 -0.49211084818E+02 -0.14069969098E+03  0.20788294841E+03  0.12509000000E+03 0.  0.
         25    1    3    3    0    0 -0.14217054043E+02  0.10086665202E+03 -0.17560880559E+03  0.23845789318E+03  0.12509000000E+03 0.  0.
         25    1    3    3    0    0 -0.58924440531E+02 -0.51655567205E+02 -0.85865825388E+02  0.17076543967E+03  0.12509000000E+03 0.  0.
<mgrwt>
<rscale>  2 0.46805553E+03</rscale>
<asrwt>0</asrwt>
<pdfrwt beam="1">  1       21 0.15803821E-01 0.46805553E+03</pdfrwt>
<pdfrwt beam="2">  1       21 0.74947100E-01 0.46805553E+03</pdfrwt>
<totfact> 0.52058442E+04</totfact>
</mgrwt>
</event>
<event>
 6    0  0.3472812E-005  0.4528328E+03  0.7546771E-02  0.1026881E+00
         21   -1    0    0  502  501  0.00000000000E+00  0.00000000000E+00  0.18230952894E+03  0.18230952894E+03  0.00000000000E+00 0. -1.
         21   -1    0    0  501  502 -0.00000000000E+00 -0.00000000000E+00 -0.28119426255E+03  0.28119426255E+03  0.00000000000E+00 0. -1.
      99926    2    1    2    0    0  0.17763568394E-14  0.00000000000E+00 -0.98884733611E+02  0.46350379149E+03  0.45283283250E+03 0.  0.
         25    1    3    3    0    0 -0.35909488622E+00  0.60047714134E+02 -0.40390427210E+02  0.14451557574E+03  0.12509000000E+03 0.  0.
         25    1    3    3    0    0 -0.13455600374E+02  0.28772354322E+02 -0.95521087374E+02  0.16056365650E+03  0.12509000000E+03 0.  0.
         25    1    3    3    0    0  0.13814695260E+02 -0.88820068455E+02  0.37026780973E+02  0.15842455925E+03  0.12509000000E+03 0.  0.
<mgrwt>
<rscale>  2 0.45283283E+03</rscale>
<asrwt>0</asrwt>
<pdfrwt beam="1">  1       21 0.26810225E-01 0.45283283E+03</pdfrwt>
<pdfrwt beam="2">  1       21 0.41352097E-01 0.45283283E+03</pdfrwt>
<totfact> 0.69102716E+04</totfact>
</mgrwt>
</event>
<event>
 6    0  0.3472812E-005  0.4486326E+03  0.7546771E-02  0.1028131E+00
         21   -1    0    0  502  501  0.00000000000E+00  0.00000000000E+00  0.79622383454E+02  0.79622383454E+02  0.00000000000E+00 0.  1.
         21   -1    0    0  501  502 -0.00000000000E+00 -0.00000000000E+00 -0.63195561835E+03  0.63195561835E+03  0.00000000000E+00 0.  1.
      99926    2    1    2    0    0  0.00000000000E+00  0.35527136788E-14 -0.55233323490E+03  0.71157800181E+03  0.44863264514E+03 0.  0.
         25    1    3    3    0    0 -0.97154725719E+02  0.12496544626E+02 -0.24913919097E+03  0.29548781520E+03  0.12509000000E+03 0.  0.
         25    1    3    3    0    0  0.44425027171E+02 -0.41999276556E+02 -0.10653090921E+03  0.17531076689E+03  0.12509000000E+03 0.  0.
         25    1    3    3    0    0  0.52729698548E+02  0.29502731931E+02 -0.19666313471E+03  0.24077941971E+03  0.12509000000E+03 0.  0.
<mgrwt>
<rscale>  2 0.44863265E+03</rscale>
<asrwt>0</asrwt>
<pdfrwt beam="1">  1       21 0.11709174E-01 0.44863265E+03</pdfrwt>
<pdfrwt beam="2">  1       21 0.92934649E-01 0.44863265E+03</pdfrwt>
<totfact> 0.54981766E+04</totfact>
</mgrwt>
</event>
<event>
 6    0  0.3472812E-005  0.4580453E+03  0.7546771E-02  0.1025350E+00
         21   -1    0    0  502  501  0.00000000000E+00  0.00000000000E+00  0.10754077560E+03  0.10754077560E+03  0.00000000000E+00 0.  1.
         21   -1    0    0  501  502 -0.00000000000E+00 -0.00000000000E+00 -0.48773466843E+03  0.48773466843E+03  0.00000000000E+00 0.  1.
      99926    2    1    2    0    0  0.88817841970E-15  0.00000000000E+00 -0.38019389283E+03  0.59527544404E+03  0.45804525773E+03 0.  0.
         25    1    3    3    0    0 -0.15171533776E+02 -0.43397789203E+02 -0.40044108279E+02  0.13915668239E+03  0.12509000000E+03 0.  0.
         25    1    3    3    0    0  0.77120459079E+01 -0.36158771332E+02 -0.70394624622E+02  0.14822227792E+03  0.12509000000E+03 0.  0.
         25    1    3    3    0    0  0.74594878680E+01  0.79556560535E+02 -0.26975515993E+03  0.30789648373E+03  0.12509000000E+03 0.  0.
<mgrwt>
<rscale>  2 0.45804526E+03</rscale>
<asrwt>0</asrwt>
<pdfrwt beam="1">  1       21 0.15814820E-01 0.45804526E+03</pdfrwt>
<pdfrwt beam="2">  1       21 0.71725687E-01 0.45804526E+03</pdfrwt>
<totfact> 0.57571993E+04</totfact>
</mgrwt>
</event>
<event>
 6    0  0.3472812E-005  0.4535711E+03  0.7546771E-02  0.1026662E+00
         21   -1    0    0  502  501  0.00000000000E+00  0.00000000000E+00  0.88478598346E+03  0.88478598346E+03  0.00000000000E+00 0. -1.
         21   -1    0    0  501  502 -0.00000000000E+00 -0.00000000000E+00 -0.58128946783E+02  0.58128946783E+02  0.00000000000E+00 0. -1.
      99926    2    1    2    0    0 -0.71054273576E-14  0.17763568394E-14  0.82665703668E+03  0.94291493025E+03  0.45357106322E+03 0.  0.
         25    1    3    3    0    0 -0.57354269783E+02 -0.51235423131E+02  0.45200568652E+03  0.47525911836E+03  0.12509000000E+03 0.  0.
         25    1    3    3    0    0 -0.12592814504E+02  0.13068306947E+02  0.21755781497E+03  0.25161134827E+03  0.12509000000E+03 0.  0.
         25    1    3    3    0    0  0.69947084287E+02  0.38167116184E+02  0.15709353520E+03  0.21604446362E+03  0.12509000000E+03 0.  0.
<mgrwt>
<rscale>  2 0.45357106E+03</rscale>
<asrwt>0</asrwt>
<pdfrwt beam="1">  1       21 0.13011558E+00 0.45357106E+03</pdfrwt>
<pdfrwt beam="2">  1       21 0.85483751E-02 0.45357106E+03</pdfrwt>
<totfact> 0.41895251E+04</totfact>
</mgrwt>
</event>
<event>
 6    0  0.3472812E-005  0.4164902E+03  0.7546771E-02  0.1038215E+00
         21   -1    0    0  502  501  0.00000000000E+00  0.00000000000E+00  0.34031081181E+03  0.34031081181E+03  0.00000000000E+00 0. -1.
         21   -1    0    0  501  502 -0.00000000000E+00 -0.00000000000E+00 -0.12743065000E+03  0.12743065000E+03  0.00000000000E+00 0. -1.
      99926    2    1    2    0    0  0.00000000000E+00 -0.53290705182E-14  0.21288016181E+03  0.46774146182E+03  0.41649023015E+03 0.  0.
         25    1    3    3    0    0  0.48398156657E+02  0.96082294811E+01  0.92659891794E+02  0.16330359239E+03  0.12509000000E+03 0.  0.
         25    1    3    3    0    0 -0.47403856007E+01  0.33911674524E+02  0.16705262879E+02  0.13076332373E+03  0.12509000000E+03 0.  0.
         25    1    3    3    0    0 -0.43657771056E+02 -0.43519904005E+02  0.10351500714E+03  0.17367454569E+03  0.12509000000E+03 0.  0.
<mgrwt>
<rscale>  2 0.41649023E+03</rscale>
<asrwt>0</asrwt>
<pdfrwt beam="1">  1       21 0.50045708E-01 0.41649023E+03</pdfrwt>
<pdfrwt beam="2">  1       21 0.18739802E-01 0.41649023E+03</pdfrwt>
<totfact> 0.92921895E+04</totfact>
</mgrwt>
</event>
<event>
 6    0  0.3472812E-005  0.4528224E+03  0.7546771E-02  0.1026884E+00
         21   -1    0    0  502  501  0.00000000000E+00  0.00000000000E+00  0.22177945331E+03  0.22177945331E+03  0.00000000000E+00 0.  1.
         21   -1    0    0  501  502 -0.00000000000E+00 -0.00000000000E+00 -0.23113966000E+03  0.23113966000E+03  0.00000000000E+00 0.  1.
      99926    2    1    2    0    0  0.14210854715E-13 -0.71054273576E-14 -0.93602066849E+01  0.45291911331E+03  0.45282238210E+03 0.  0.
         25    1    3    3    0    0 -0.10077177113E+03  0.53789240329E+02 -0.66597059205E+01  0.16952903000E+03  0.12509000000E+03 0.  0.
         25    1    3    3    0    0  0.68834024929E+02 -0.36030605715E+02  0.27051710434E+02  0.14971850478E+03  0.12509000000E+03 0.  0.
         25    1    3    3    0    0  0.31937746196E+02 -0.17758634613E+02 -0.29752211198E+02  0.13367157853E+03  0.12509000000E+03 0.  0.
<mgrwt>
<rscale>  2 0.45282238E+03</rscale>
<asrwt>0</asrwt>
<pdfrwt beam="1">  1       21 0.32614626E-01 0.45282238E+03</pdfrwt>
<pdfrwt beam="2">  1       21 0.33991126E-01 0.45282238E+03</pdfrwt>
<totfact> 0.69905247E+04</totfact>
</mgrwt>
</event>
<event>
 6    0  0.3472812E-005  0.4547940E+03  0.7546771E-02  0.1026302E+00
         21   -1    0    0  502  501  0.00000000000E+00  0.00000000000E+00  0.81813770553E+02  0.81813770553E+02  0.00000000000E+00 0.  1.
         21   -1    0    0  501  502 -0.00000000000E+00 -0.00000000000E+00 -0.63203772165E+03  0.63203772165E+03  0.00000000000E+00 0.  1.
      99926    2    1    2    0    0  0.00000000000E+00 -0.35527136788E-14 -0.55022395110E+03  0.71385149221E+03  0.45479397155E+03 0.  0.
         25    1    3    3    0    0 -0.23584419445E+02  0.28059317594E+02 -0.34122191917E+03  0.36527175687E+03  0.12509000000E+03 0.  0.
         25    1    3    3    0    0  0.36290596460E+02 -0.37649275576E+02 -0.16820872709E+03  0.21604666004E+03  0.12509000000E+03 0.  0.
         25    1    3    3    0    0 -0.12706177014E+02  0.95899579825E+01 -0.40793304833E+02  0.13253307530E+03  0.12509000000E+03 0.  0.
<mgrwt>
<rscale>  2 0.45479397E+03</rscale>
<asrwt>0</asrwt>
<pdfrwt beam="1">  1       21 0.12031437E-01 0.45479397E+03</pdfrwt>
<pdfrwt beam="2">  1       21 0.92946721E-01 0.45479397E+03</pdfrwt>
<totfact> 0.52242002E+04</totfact>
</mgrwt>
</event>
<event>
 6    0  0.3472812E-005  0.4521665E+03  0.7546771E-02  0.1027078E+00
         21   -1    0    0  502  501  0.00000000000E+00  0.00000000000E+00  0.17877672980E+03  0.17877672980E+03  0.00000000000E+00 0. -1.
         21   -1    0    0  501  502 -0.00000000000E+00 -0.00000000000E+00 -0.28590763617E+03  0.28590763617E+03  0.00000000000E+00 0. -1.
      99926    2    1    2    0    0  0.00000000000E+00  0.35527136788E-14 -0.10713090637E+03  0.46468436597E+03  0.45216648358E+03 0.  0.
         25    1    3    3    0    0  0.11670027490E+01  0.22556099523E+02 -0.54360587432E+01  0.12722892107E+03  0.12509000000E+03 0.  0.
         25    1    3    3    0    0  0.76857728926E+02  0.24483113683E+02  0.59265803592E+01  0.14896028265E+03  0.12509000000E+03 0.  0.
         25    1    3    3    0    0 -0.78024731675E+02 -0.47039213206E+02 -0.10762142799E+03  0.18849516226E+03  0.12509000000E+03 0.  0.
<mgrwt>
<rscale>  2 0.45216648E+03</rscale>
<asrwt>0</asrwt>
<pdfrwt beam="1">  1       21 0.26290696E-01 0.45216648E+03</pdfrwt>
<pdfrwt beam="2">  1       21 0.42045240E-01 0.45216648E+03</pdfrwt>
<totfact> 0.69379641E+04</totfact>
</mgrwt>
</event>
<event>
 6    0  0.3472812E-005  0.4442149E+03  0.7546771E-02  0.1029461E+00
         21   -1    0    0  502  501  0.00000000000E+00  0.00000000000E+00  0.64908730547E+03  0.64908730547E+03  0.00000000000E+00 0.  1.
         21   -1    0    0  501  502 -0.00000000000E+00 -0.00000000000E+00 -0.76001673769E+02  0.76001673769E+02  0.00000000000E+00 0.  1.
      99926    2    1    2    0    0  0.00000000000E+00  0.00000000000E+00  0.57308563170E+03  0.72508897924E+03  0.44421491032E+03 0.  0.
         25    1    3    3    0    0  0.66912767060E+02 -0.12225689146E+02  0.91777033886E+02  0.16940282737E+03  0.12509000000E+03 0.  0.
         25    1    3    3    0    0 -0.23081269549E+02  0.21891750536E+02  0.14529612413E+03  0.19434625166E+03  0.12509000000E+03 0.  0.
         25    1    3    3    0    0 -0.43831497511E+02 -0.96660613900E+01  0.33601247368E+03  0.36133990022E+03  0.12509000000E+03 0.  0.
<mgrwt>
<rscale>  2 0.44421491E+03</rscale>
<asrwt>0</asrwt>
<pdfrwt beam="1">  1       21 0.95454013E-01 0.44421491E+03</pdfrwt>
<pdfrwt beam="2">  1       21 0.11176717E-01 0.44421491E+03</pdfrwt>
<totfact> 0.56177302E+04</totfact>
</mgrwt>
</event>
<event>
 6    0  0.3472812E-005  0.4552298E+03  0.7546771E-02  0.1026174E+00
         21   -1    0    0  502  501  0.00000000000E+00  0.00000000000E+00  0.50107665632E+03  0.50107665632E+03  0.00000000000E+00 0. -1.
         21   -1    0    0  501  502 -0.00000000000E+00 -0.00000000000E+00 -0.10339445162E+03  0.10339445162E+03  0.00000000000E+00 0. -1.
      99926    2    1    2    0    0  0.00000000000E+00  0.00000000000E+00  0.39768220470E+03  0.60447110794E+03  0.45522981492E+03 0.  0.
         25    1    3    3    0    0  0.10028136402E+02 -0.22477696998E+02  0.15819055108E+03  0.20316881880E+03  0.12509000000E+03 0.  0.
         25    1    3    3    0    0 -0.71493709517E+02 -0.19317638511E+02  0.33629429192E+02  0.14920780230E+03  0.12509000000E+03 0.  0.
         25    1    3    3    0    0  0.61465573116E+02  0.41795335510E+02  0.20586222443E+03  0.25209448684E+03  0.12509000000E+03 0.  0.
<mgrwt>
<rscale>  2 0.45522981E+03</rscale>
<asrwt>0</asrwt>
<pdfrwt beam="1">  1       21 0.73687743E-01 0.45522981E+03</pdfrwt>
<pdfrwt beam="2">  1       21 0.15205067E-01 0.45522981E+03</pdfrwt>
<totfact> 0.58297984E+04</totfact>
</mgrwt>
</event>
<event>
 6    0  0.3472812E-005  0.4519380E+03  0.7546771E-02  0.1027146E+00
         21   -1    0    0  502  501  0.00000000000E+00  0.00000000000E+00  0.15313259021E+04  0.15313259021E+04  0.00000000000E+00 0.  1.
         21   -1    0    0  501  502 -0.00000000000E+00 -0.00000000000E+00 -0.33344959447E+02  0.33344959447E+02  0.00000000000E+00 0.  1.
      99926    2    1    2    0    0  0.14210854715E-13 -0.17763568394E-14  0.14979809427E+04  0.15646708616E+04  0.45193804932E+03 0.  0.
         25    1    3    3    0    0  0.70033268737E+02 -0.35888579087E+02  0.79406354880E+03  0.80769862973E+03  0.12509000000E+03 0.  0.
         25    1    3    3    0    0 -0.82075703465E+02  0.10725784954E+02  0.36381072980E+03  0.39351901959E+03  0.12509000000E+03 0.  0.
         25    1    3    3    0    0  0.12042434728E+02  0.25162794133E+02  0.34010666407E+03  0.36345321224E+03  0.12509000000E+03 0.  0.
<mgrwt>
<rscale>  2 0.45193805E+03</rscale>
<asrwt>0</asrwt>
<pdfrwt beam="1">  1       21 0.22519494E+00 0.45193805E+03</pdfrwt>
<pdfrwt beam="2">  1       21 0.49036715E-02 0.45193805E+03</pdfrwt>
<totfact> 0.22774525E+04</totfact>
</mgrwt>
</event>
<event>
 6    0  0.3472812E-005  0.4452514E+03  0.7546771E-02  0.1029148E+00
         21   -1    0    0  502  501  0.00000000000E+00  0.00000000000E+00  0.64901503873E+02  0.64901503873E+02  0.00000000000E+00 0. -1.
         21   -1    0    0  501  502 -0.00000000000E+00 -0.00000000000E+00 -0.76365268459E+03  0.76365268459E+03  0.00000000000E+00 0. -1.
      99926    2    1    2    0    0  0.00000000000E+00  0.00000000000E+00 -0.69875118071E+03  0.82855418846E+03  0.44525142410E+03 0.  0.
         25    1    3    3    0    0 -0.42136435786E+02  0.97244967741E+02 -0.27856484330E+03  0.32323047968E+03  0.12509000000E+03 0.  0.
         25    1    3    3    0    0  0.53418715618E+02 -0.39778331200E+02 -0.23264239203E+03  0.27240753566E+03  0.12509000000E+03 0.  0.
         25    1    3    3    0    0 -0.11282279832E+02 -0.57466636541E+02 -0.18754394538E+03  0.23291617312E+03  0.12509000000E+03 0.  0.
<mgrwt>
<rscale>  2 0.44525142E+03</rscale>
<asrwt>0</asrwt>
<pdfrwt beam="1">  1       21 0.95443391E-02 0.44525142E+03</pdfrwt>
<pdfrwt beam="2">  1       21 0.11230186E+00 0.44525142E+03</pdfrwt>
<totfact> 0.50141079E+04</totfact>
</mgrwt>
</event>
<event>
 6    0  0.3472812E-005  0.4481900E+03  0.7546771E-02  0.1028263E+00
         21   -1    0    0  502  501  0.00000000000E+00  0.00000000000E+00  0.24357237299E+03  0.24357237299E+03  0.00000000000E+00 0. -1.
         21   -1    0    0  501  502 -0.00000000000E+00 -0.00000000000E+00 -0.20617518649E+03  0.20617518649E+03  0.00000000000E+00 0. -1.
      99926    2    1    2    0    0  0.00000000000E+00  0.71054273576E-14  0.37397186492E+02  0.44974755948E+03  0.44819004641E+03 0.  0.
         25    1    3    3    0    0  0.26891657644E+02 -0.32078823830E+02 -0.50948409057E+01  0.13200635474E+03  0.12509000000E+03 0.  0.
         25    1    3    3    0    0  0.40180599469E+02  0.85952734071E+02 -0.94420508073E+01  0.15728640593E+03  0.12509000000E+03 0.  0.
         25    1    3    3    0    0 -0.67072257113E+02 -0.53873910241E+02  0.51934078205E+02  0.16045479880E+03  0.12509000000E+03 0.  0.
<mgrwt>
<rscale>  2 0.44819005E+03</rscale>
<asrwt>0</asrwt>
<pdfrwt beam="1">  1       21 0.35819467E-01 0.44819005E+03</pdfrwt>
<pdfrwt beam="2">  1       21 0.30319880E-01 0.44819005E+03</pdfrwt>
<totfact> 0.72808657E+04</totfact>
</mgrwt>
</event>
<event>
 6    0  0.3472812E-005  0.4523207E+03  0.7546771E-02  0.1027032E+00
         21   -1    0    0  502  501  0.00000000000E+00  0.00000000000E+00  0.18849604927E+03  0.18849604927E+03  0.00000000000E+00 0.  1.
         21   -1    0    0  501  502 -0.00000000000E+00 -0.00000000000E+00 -0.27135057643E+03  0.27135057643E+03  0.00000000000E+00 0.  1.
      99926    2    1    2    0    0 -0.71054273576E-14  0.00000000000E+00 -0.82854527158E+02  0.45984662569E+03  0.45232073409E+03 0.  0.
         25    1    3    3    0    0 -0.19095884022E+02  0.43676379279E+02 -0.11053805567E+03  0.17360428781E+03  0.12509000000E+03 0.  0.
         25    1    3    3    0    0 -0.43762366090E+02  0.13146563539E+02  0.22527983556E+02  0.13506663156E+03  0.12509000000E+03 0.  0.
         25    1    3    3    0    0  0.62858250113E+02 -0.56822942818E+02  0.51555449598E+01  0.15117570632E+03  0.12509000000E+03 0.  0.
<mgrwt>
<rscale>  2 0.45232073E+03</rscale>
<asrwt>0</asrwt>
<pdfrwt beam="1">  1       21 0.27720007E-01 0.45232073E+03</pdfrwt>
<pdfrwt beam="2">  1       21 0.39904496E-01 0.45232073E+03</pdfrwt>
<totfact> 0.69666396E+04</totfact>
</mgrwt>
</event>
<event>
 6    0  0.3472812E-005  0.4337505E+03  0.7546771E-02  0.1032682E+00
         21   -1    0    0  502  501  0.00000000000E+00  0.00000000000E+00  0.18203820902E+03  0.18203820902E+03  0.00000000000E+00 0. -1.
         21   -1    0    0  501  502 -0.00000000000E+00 -0.00000000000E+00 -0.25837914494E+03  0.25837914494E+03  0.00000000000E+00 0. -1.
      99926    2    1    2    0    0 -0.35527136788E-14  0.00000000000E+00 -0.76340935920E+02  0.44041735396E+03  0.43375051259E+03 0.  0.
         25    1    3    3    0    0 -0.39608572770E+02  0.45232103926E+02 -0.81831426885E+02  0.16111695376E+03  0.12509000000E+03 0.  0.
         25    1    3    3    0    0  0.59577603113E+02  0.13880087931E+02 -0.27041288465E+01  0.13927299827E+03  0.12509000000E+03 0.  0.
         25    1    3    3    0    0 -0.19969030343E+02 -0.59112191856E+02  0.81946198115E+01  0.14002740194E+03  0.12509000000E+03 0.  0.
<mgrwt>
<rscale>  2 0.43375051E+03</rscale>
<asrwt>0</asrwt>
<pdfrwt beam="1">  1       21 0.26770325E-01 0.43375051E+03</pdfrwt>
<pdfrwt beam="2">  1       21 0.37996933E-01 0.43375051E+03</pdfrwt>
<totfact> 0.82794856E+04</totfact>
</mgrwt>
</event>
<event>
 6    0  0.3472812E-005  0.4532004E+03  0.7546771E-02  0.1026772E+00
         21   -1    0    0  502  501  0.00000000000E+00  0.00000000000E+00  0.12640352058E+03  0.12640352058E+03  0.00000000000E+00 0. -1.
         21   -1    0    0  501  502 -0.00000000000E+00 -0.00000000000E+00 -0.40622014995E+03  0.40622014995E+03  0.00000000000E+00 0. -1.
      99926    2    1    2    0    0 -0.71054273576E-14  0.00000000000E+00 -0.27981662937E+03  0.53262367052E+03  0.45320042843E+03 0.  0.
         25    1    3    3    0    0  0.67978181618E+02 -0.10554917041E+02 -0.11513133563E+03  0.18339894218E+03  0.12509000000E+03 0.  0.
         25    1    3    3    0    0  0.23937387699E+02  0.64993347330E+02 -0.86250402157E+02  0.16698435166E+03  0.12509000000E+03 0.  0.
         25    1    3    3    0    0 -0.91915569317E+02 -0.54438430289E+02 -0.78434891579E+02  0.18224037668E+03  0.12509000000E+03 0.  0.
<mgrwt>
<rscale>  2 0.45320043E+03</rscale>
<asrwt>0</asrwt>
<pdfrwt beam="1">  1       21 0.18588753E-01 0.45320043E+03</pdfrwt>
<pdfrwt beam="2">  1       21 0.59738257E-01 0.45320043E+03</pdfrwt>
<totfact> 0.63935423E+04</totfact>
</mgrwt>
</event>
<event>
 6    0  0.3472812E-005  0.4577153E+03  0.7546771E-02  0.1025446E+00
         21   -1    0    0  502  501  0.00000000000E+00  0.00000000000E+00  0.26469245474E+03  0.26469245474E+03  0.00000000000E+00 0. -1.
         21   -1    0    0  501  502 -0.00000000000E+00 -0.00000000000E+00 -0.19787429077E+03  0.19787429077E+03  0.00000000000E+00 0. -1.
      99926    2    1    2    0    0  0.00000000000E+00  0.71054273576E-14  0.66818163970E+02  0.46256674551E+03  0.45771533404E+03 0.  0.
         25    1    3    3    0    0  0.94391056518E+02 -0.13679439816E+02 -0.22573491749E+02  0.15891466029E+03  0.12509000000E+03 0.  0.
         25    1    3    3    0    0 -0.86553677905E+02 -0.19001239444E+02  0.14372593592E+02  0.15396969119E+03  0.12509000000E+03 0.  0.
         25    1    3    3    0    0 -0.78373786130E+01  0.32680679260E+02  0.75019062127E+02  0.14968239403E+03  0.12509000000E+03 0.  0.
<mgrwt>
<rscale>  2 0.45771533E+03</rscale>
<asrwt>0</asrwt>
<pdfrwt beam="1">  1       21 0.38925361E-01 0.45771533E+03</pdfrwt>
<pdfrwt beam="2">  1       21 0.29099160E-01 0.45771533E+03</pdfrwt>
<totfact> 0.66541320E+04</totfact>
</mgrwt>
</event>
<event>
 6    0  0.3472812E-005  0.4607371E+03  0.7546771E-02  0.1024568E+00
         21   -1    0    0  502  501  0.00000000000E+00  0.00000000000E+00  0.63831469056E+02  0.63831469056E+02  0.00000000000E+00 0. -1.
         21   -1    0    0  501  502 -0.00000000000E+00 -0.00000000000E+00 -0.83140286696E+03  0.83140286696E+03  0.00000000000E+00 0. -1.
      99926    2    1    2    0    0  0.00000000000E+00  0.00000000000E+00 -0.76757139791E+03  0.89523433602E+03  0.46073708935E+03 0.  0.
         25    1    3    3    0    0  0.16068078814E+02 -0.86948582806E+01 -0.30885728694E+03  0.33372760676E+03  0.12509000000E+03 0.  0.
         25    1    3    3    0    0 -0.29392443418E+02  0.82452218021E+02 -0.34266893447E+03  0.37514236062E+03  0.12509000000E+03 0.  0.
         25    1    3    3    0    0  0.13324364604E+02 -0.73757359740E+02 -0.11604517650E+03  0.18636436864E+03  0.12509000000E+03 0.  0.
<mgrwt>
<rscale>  2 0.46073709E+03</rscale>
<asrwt>0</asrwt>
<pdfrwt beam="1">  1       21 0.93869812E-02 0.46073709E+03</pdfrwt>
<pdfrwt beam="2">  1       21 0.12226512E+00 0.46073709E+03</pdfrwt>
<totfact> 0.41542530E+04</totfact>
</mgrwt>
</event>
<event>
 6    0  0.3472812E-005  0.4572885E+03  0.7546771E-02  0.1025571E+00
         21   -1    0    0  502  501  0.00000000000E+00  0.00000000000E+00  0.30469003467E+03  0.30469003467E+03  0.00000000000E+00 0.  1.
         21   -1    0    0  501  502 -0.00000000000E+00 -0.00000000000E+00 -0.17157829110E+03  0.17157829110E+03  0.00000000000E+00 0.  1.
      99926    2    1    2    0    0  0.00000000000E+00  0.35527136788E-14  0.13311174357E+03  0.47626832576E+03  0.45728851051E+03 0.  0.
         25    1    3    3    0    0  0.71144815607E+01 -0.30819996174E+02  0.99700324475E+02  0.16305873424E+03  0.12509000000E+03 0.  0.
         25    1    3    3    0    0 -0.83943488218E+02 -0.20006764701E+02  0.41867307809E+02  0.15762981765E+03  0.12509000000E+03 0.  0.
         25    1    3    3    0    0  0.76829006658E+02  0.50826760875E+02 -0.84558887139E+01  0.15557977388E+03  0.12509000000E+03 0.  0.
<mgrwt>
<rscale>  2 0.45728851E+03</rscale>
<asrwt>0</asrwt>
<pdfrwt beam="1">  1       21 0.44807358E-01 0.45728851E+03</pdfrwt>
<pdfrwt beam="2">  1       21 0.25232101E-01 0.45728851E+03</pdfrwt>
<totfact> 0.65770164E+04</totfact>
</mgrwt>
</event>
<event>
 6    0  0.3472812E-005  0.4513700E+03  0.7546771E-02  0.1027314E+00
         21   -1    0    0  502  501  0.00000000000E+00  0.00000000000E+00  0.34267011655E+03  0.34267011655E+03  0.00000000000E+00 0.  1.
         21   -1    0    0  501  502 -0.00000000000E+00 -0.00000000000E+00 -0.14863775683E+03  0.14863775683E+03  0.00000000000E+00 0.  1.
      99926    2    1    2    0    0  0.17763568394E-14  0.00000000000E+00  0.19403235971E+03  0.49130787338E+03  0.45136999217E+03 0.  0.
         25    1    3    3    0    0  0.22629829631E+02 -0.51428075939E+02  0.12956125048E+03  0.18865466310E+03  0.12509000000E+03 0.  0.
         25    1    3    3    0    0 -0.59715266360E+01  0.97892986112E+02  0.16206551948E+02  0.15977752122E+03  0.12509000000E+03 0.  0.
         25    1    3    3    0    0 -0.16658302995E+02 -0.46464910173E+02  0.48264557290E+02  0.14287568907E+03  0.12509000000E+03 0.  0.
<mgrwt>
<rscale>  2 0.45136999E+03</rscale>
<asrwt>0</asrwt>
<pdfrwt beam="1">  1       21 0.50392664E-01 0.45136999E+03</pdfrwt>
<pdfrwt beam="2">  1       21 0.21858494E-01 0.45136999E+03</pdfrwt>
<totfact> 0.67819115E+04</totfact>
</mgrwt>
</event>
<event>
 6    0  0.3472812E-005  0.4404624E+03  0.7546771E-02  0.1030605E+00
         21   -1    0    0  502  501  0.00000000000E+00  0.00000000000E+00  0.32359254140E+02  0.32359254140E+02  0.00000000000E+00 0.  1.
         21   -1    0    0  501  502 -0.00000000000E+00 -0.00000000000E+00 -0.14988536929E+04  0.14988536929E+04  0.00000000000E+00 0.  1.
      99926    2    1    2    0    0 -0.35527136788E-14  0.00000000000E+00 -0.14664944388E+04  0.15312129470E+04  0.44046242776E+03 0.  0.
         25    1    3    3    0    0  0.24613672997E+02  0.68478342639E+02 -0.28919540025E+03  0.32338306068E+03  0.12509000000E+03 0.  0.
         25    1    3    3    0    0 -0.19337190616E+01 -0.45153659260E+02 -0.45433683857E+03  0.47340475621E+03  0.12509000000E+03 0.  0.
         25    1    3    3    0    0 -0.22679953935E+02 -0.23324683379E+02 -0.72296219993E+03  0.73442513014E+03  0.12509000000E+03 0.  0.
<mgrwt>
<rscale>  2 0.44046243E+03</rscale>
<asrwt>0</asrwt>
<pdfrwt beam="1">  1       21 0.47587147E-02 0.44046243E+03</pdfrwt>
<pdfrwt beam="2">  1       21 0.22041962E+00 0.44046243E+03</pdfrwt>
<totfact> 0.25818967E+04</totfact>
</mgrwt>
</event>
<event>
 6    0  0.3472812E-005  0.4545052E+03  0.7546771E-02  0.1026387E+00
         21   -1    0    0  502  501  0.00000000000E+00  0.00000000000E+00  0.11463983411E+03  0.11463983411E+03  0.00000000000E+00 0.  1.
         21   -1    0    0  501  502 -0.00000000000E+00 -0.00000000000E+00 -0.45048699303E+03  0.45048699303E+03  0.00000000000E+00 0.  1.
      99926    2    1    2    0    0 -0.71054273576E-14  0.71054273576E-14 -0.33584715892E+03  0.56512682714E+03  0.45450524375E+03 0.  0.
         25    1    3    3    0    0 -0.34742755825E+02 -0.29135466569E+02 -0.17858428629E+03  0.22270112237E+03  0.12509000000E+03 0.  0.
         25    1    3    3    0    0 -0.53033894845E+02  0.59112969190E+02 -0.84020078815E+02  0.17033443243E+03  0.12509000000E+03 0.  0.
         25    1    3    3    0    0  0.87776650670E+02 -0.29977502621E+02 -0.73242793811E+02  0.17209127233E+03  0.12509000000E+03 0.  0.
<mgrwt>
<rscale>  2 0.45450524E+03</rscale>
<asrwt>0</asrwt>
<pdfrwt beam="1">  1       21 0.16858799E-01 0.45450524E+03</pdfrwt>
<pdfrwt beam="2">  1       21 0.66248087E-01 0.45450524E+03</pdfrwt>
<totfact> 0.61116643E+04</totfact>
</mgrwt>
</event>
<event>
 6    0  0.3472812E-005  0.4494840E+03  0.7546771E-02  0.1027876E+00
         21   -1    0    0  502  501  0.00000000000E+00  0.00000000000E+00  0.43617861624E+03  0.43617861624E+03  0.00000000000E+00 0. -1.
         21   -1    0    0  501  502 -0.00000000000E+00 -0.00000000000E+00 -0.11579881206E+03  0.11579881206E+03  0.00000000000E+00 0. -1.
      99926    2    1    2    0    0  0.00000000000E+00  0.00000000000E+00  0.32037980418E+03  0.55197742830E+03  0.44948399574E+03 0.  0.
         25    1    3    3    0    0 -0.37930583982E+02 -0.80386783409E+02  0.58853959505E+02  0.16435346299E+03  0.12509000000E+03 0.  0.
         25    1    3    3    0    0  0.26558804795E+02 -0.81202619671E+01  0.15266856884E+03  0.19931509922E+03  0.12509000000E+03 0.  0.
         25    1    3    3    0    0  0.11371779186E+02  0.88507045376E+02  0.10885727583E+03  0.18830886608E+03  0.12509000000E+03 0.  0.
<mgrwt>
<rscale>  2 0.44948400E+03</rscale>
<asrwt>0</asrwt>
<pdfrwt beam="1">  1       21 0.64143914E-01 0.44948400E+03</pdfrwt>
<pdfrwt beam="2">  1       21 0.17029237E-01 0.44948400E+03</pdfrwt>
<totfact> 0.64505254E+04</totfact>
</mgrwt>
</event>
<event>
 6    0  0.3472812E-005  0.5316338E+03  0.7546771E-02  0.1005837E+00
         21   -1    0    0  502  501  0.00000000000E+00  0.00000000000E+00  0.94248889839E+02  0.94248889839E+02  0.00000000000E+00 0. -1.
         21   -1    0    0  501  502 -0.00000000000E+00 -0.00000000000E+00 -0.74970249819E+03  0.74970249819E+03  0.00000000000E+00 0. -1.
      99926    2    1    2    0    0 -0.35527136788E-14  0.00000000000E+00 -0.65545360835E+03  0.84395138802E+03  0.53163381444E+03 0.  0.
         25    1    3    3    0    0 -0.31199694547E+02 -0.75938218525E+02 -0.48495092104E+03  0.50750855942E+03  0.12509000000E+03 0.  0.
         25    1    3    3    0    0  0.29905672177E+02  0.64257365219E+02 -0.15238171756E+03  0.20950191923E+03  0.12509000000E+03 0.  0.
         25    1    3    3    0    0  0.12940223699E+01  0.11680853306E+02 -0.18120969746E+02  0.12694090937E+03  0.12509000000E+03 0.  0.
<mgrwt>
<rscale>  2 0.53163381E+03</rscale>
<asrwt>0</asrwt>
<pdfrwt beam="1">  1       21 0.13860130E-01 0.53163381E+03</pdfrwt>
<pdfrwt beam="2">  1       21 0.11025037E+00 0.53163381E+03</pdfrwt>
<totfact> 0.26104735E+04</totfact>
</mgrwt>
</event>
<event>
 6    0  0.3472812E-005  0.4519220E+03  0.7546771E-02  0.1027150E+00
         21   -1    0    0  502  501  0.00000000000E+00  0.00000000000E+00  0.14662496287E+03  0.14662496287E+03  0.00000000000E+00 0.  1.
         21   -1    0    0  501  502 -0.00000000000E+00 -0.00000000000E+00 -0.34822423496E+03  0.34822423496E+03  0.00000000000E+00 0.  1.
      99926    2    1    2    0    0 -0.35527136788E-14  0.00000000000E+00 -0.20159927209E+03  0.49484919782E+03  0.45192196459E+03 0.  0.
         25    1    3    3    0    0 -0.59354972072E+02  0.12162699777E+02  0.18502690686E+02  0.14021698056E+03  0.12509000000E+03 0.  0.
         25    1    3    3    0    0  0.40476457519E+02 -0.73624598250E+01 -0.46243527084E+02  0.13956547326E+03  0.12509000000E+03 0.  0.
         25    1    3    3    0    0  0.18878514553E+02 -0.48002399521E+01 -0.17385843569E+03  0.21506674401E+03  0.12509000000E+03 0.  0.
<mgrwt>
<rscale>  2 0.45192196E+03</rscale>
<asrwt>0</asrwt>
<pdfrwt beam="1">  1       21 0.21562495E-01 0.45192196E+03</pdfrwt>
<pdfrwt beam="2">  1       21 0.51209446E-01 0.45192196E+03</pdfrwt>
<totfact> 0.67262632E+04</totfact>
</mgrwt>
</event>
<event>
 6    0  0.3472812E-005  0.4504490E+03  0.7546771E-02  0.1027588E+00
         21   -1    0    0  502  501  0.00000000000E+00  0.00000000000E+00  0.51940156280E+03  0.51940156280E+03  0.00000000000E+00 0.  1.
         21   -1    0    0  501  502 -0.00000000000E+00 -0.00000000000E+00 -0.97662518222E+02  0.97662518222E+02  0.00000000000E+00 0.  1.
      99926    2    1    2    0    0  0.71054273576E-14 -0.14210854715E-13  0.42173904458E+03  0.61706408102E+03  0.45044895201E+03 0.  0.
         25    1    3    3    0    0  0.46820073005E+02 -0.38930475524E+02  0.16274279082E+03  0.21410377209E+03  0.12509000000E+03 0.  0.
         25    1    3    3    0    0  0.36108154480E+02  0.77863722156E+02  0.10549374183E+03  0.18477823388E+03  0.12509000000E+03 0.  0.
         25    1    3    3    0    0 -0.82928227485E+02 -0.38933246632E+02  0.15350251192E+03  0.21818207505E+03  0.12509000000E+03 0.  0.
<mgrwt>
<rscale>  2 0.45044895E+03</rscale>
<asrwt>0</asrwt>
<pdfrwt beam="1">  1       21 0.76382582E-01 0.45044895E+03</pdfrwt>
<pdfrwt beam="2">  1       21 0.14362135E-01 0.45044895E+03</pdfrwt>
<totfact> 0.59758969E+04</totfact>
</mgrwt>
</event>
<event>
 6    0  0.3472812E-005  0.4583736E+03  0.7546771E-02  0.1025254E+00
         21   -1    0    0  502  501  0.00000000000E+00  0.00000000000E+00  0.16501632577E+04  0.16501632577E+04  0.00000000000E+00 0.  1.
         21   -1    0    0  501  502 -0.00000000000E+00 -0.00000000000E+00 -0.31831152212E+02  0.31831152212E+02  0.00000000000E+00 0.  1.
      99926    2    1    2    0    0 -0.22204460493E-14  0.00000000000E+00  0.16183321054E+04  0.16819944099E+04  0.45837363724E+03 0.  0.
         25    1    3    3    0    0  0.27602455330E+01 -0.34225585171E+02  0.48286135602E+03  0.49998160654E+03  0.12509000000E+03 0.  0.
         25    1    3    3    0    0 -0.10072726948E+03  0.49307433402E+02  0.54055077637E+03  0.56605640685E+03  0.12509000000E+03 0.  0.
         25    1    3    3    0    0  0.97967023942E+02 -0.15081848232E+02  0.59491997306E+03  0.61595639648E+03  0.12509000000E+03 0.  0.
<mgrwt>
<rscale>  2 0.45837364E+03</rscale>
<asrwt>0</asrwt>
<pdfrwt beam="1">  1       21 0.24267101E+00 0.45837364E+03</pdfrwt>
<pdfrwt beam="2">  1       21 0.46810529E-02 0.45837364E+03</pdfrwt>
<totfact> 0.19132760E+04</totfact>
</mgrwt>
</event>
<event>
 6    0  0.3472812E-005  0.4434391E+03  0.7546771E-02  0.1029697E+00
         21   -1    0    0  502  501  0.00000000000E+00  0.00000000000E+00  0.33623026973E+03  0.33623026973E+03  0.00000000000E+00 0. -1.
         21   -1    0    0  501  502 -0.00000000000E+00 -0.00000000000E+00 -0.14620801286E+03  0.14620801286E+03  0.00000000000E+00 0. -1.
      99926    2    1    2    0    0  0.00000000000E+00  0.00000000000E+00  0.19002225687E+03  0.48243828259E+03  0.44343910338E+03 0.  0.
         25    1    3    3    0    0 -0.61272933252E+02  0.82462451140E+02  0.24801489259E+02  0.16375912239E+03  0.12509000000E+03 0.  0.
         25    1    3    3    0    0  0.31265937797E+02 -0.54943042500E+02  0.73029908168E+02  0.15804167923E+03  0.12509000000E+03 0.  0.
         25    1    3    3    0    0  0.30006995456E+02 -0.27519408639E+02  0.92190859444E+02  0.16063748097E+03  0.12509000000E+03 0.  0.
<mgrwt>
<rscale>  2 0.44343910E+03</rscale>
<asrwt>0</asrwt>
<pdfrwt beam="1">  1       21 0.49445628E-01 0.44343910E+03</pdfrwt>
<pdfrwt beam="2">  1       21 0.21501178E-01 0.44343910E+03</pdfrwt>
<totfact> 0.72995857E+04</totfact>
</mgrwt>
</event>
<event>
 6    0  0.3472812E-005  0.4524493E+03  0.7546771E-02  0.1026994E+00
         21   -1    0    0  502  501  0.00000000000E+00  0.00000000000E+00  0.21928738820E+03  0.21928738820E+03  0.00000000000E+00 0. -1.
         21   -1    0    0  501  502 -0.00000000000E+00 -0.00000000000E+00 -0.23338140251E+03  0.23338140251E+03  0.00000000000E+00 0. -1.
      99926    2    1    2    0    0  0.00000000000E+00  0.14210854715E-13 -0.14094014305E+02  0.45266879071E+03  0.45244932628E+03 0.  0.
         25    1    3    3    0    0  0.46248727175E+01  0.53478708656E+01 -0.84980496749E+01  0.12557752235E+03  0.12509000000E+03 0.  0.
         25    1    3    3    0    0 -0.45710598733E+02  0.89985015374E+02 -0.27506033149E+02  0.16306701625E+03  0.12509000000E+03 0.  0.
         25    1    3    3    0    0  0.41085726015E+02 -0.95332886239E+02  0.21910068520E+02  0.16402425212E+03  0.12509000000E+03 0.  0.
<mgrwt>
<rscale>  2 0.45244933E+03</rscale>
<asrwt>0</asrwt>
<pdfrwt beam="1">  1       21 0.32248146E-01 0.45244933E+03</pdfrwt>
<pdfrwt beam="2">  1       21 0.34320794E-01 0.45244933E+03</pdfrwt>
<totfact> 0.70133422E+04</totfact>
</mgrwt>
</event>
<event>
 6    0  0.3472812E-005  0.4529281E+03  0.7546771E-02  0.1026852E+00
         21   -1    0    0  502  501  0.00000000000E+00  0.00000000000E+00  0.30215855623E+03  0.30215855623E+03  0.00000000000E+00 0. -1.
         21   -1    0    0  501  502 -0.00000000000E+00 -0.00000000000E+00 -0.16973200022E+03  0.16973200022E+03  0.00000000000E+00 0. -1.
      99926    2    1    2    0    0  0.00000000000E+00  0.00000000000E+00  0.13242655601E+03  0.47189055646E+03  0.45292814500E+03 0.  0.
         25    1    3    3    0    0 -0.83135760026E+02  0.63343025974E+02  0.10955282138E+03  0.19640066779E+03  0.12509000000E+03 0.  0.
         25    1    3    3    0    0  0.28959414553E+02 -0.47092038213E+02  0.19670965501E+02  0.13816932633E+03  0.12509000000E+03 0.  0.
         25    1    3    3    0    0  0.54176345472E+02 -0.16250987761E+02  0.32027691269E+01  0.13732056234E+03  0.12509000000E+03 0.  0.
<mgrwt>
<rscale>  2 0.45292815E+03</rscale>
<asrwt>0</asrwt>
<pdfrwt beam="1">  1       21 0.44435082E-01 0.45292815E+03</pdfrwt>
<pdfrwt beam="2">  1       21 0.24960588E-01 0.45292815E+03</pdfrwt>
<totfact> 0.68413178E+04</totfact>
</mgrwt>
</event>
<event>
 6    0  0.3472812E-005  0.4595461E+03  0.7546771E-02  0.1024913E+00
         21   -1    0    0  502  501  0.00000000000E+00  0.00000000000E+00  0.21655711297E+03  0.21655711297E+03  0.00000000000E+00 0.  1.
         21   -1    0    0  501  502 -0.00000000000E+00 -0.00000000000E+00 -0.24379550440E+03  0.24379550440E+03  0.00000000000E+00 0.  1.
      99926    2    1    2    0    0 -0.71054273576E-14 -0.10658141036E-13 -0.27238391432E+02  0.46035261736E+03  0.45954608294E+03 0.  0.
         25    1    3    3    0    0  0.17421299144E+02 -0.19737045569E+02  0.17163080605E+02  0.12897725407E+03  0.12509000000E+03 0.  0.
         25    1    3    3    0    0 -0.57895647105E+02 -0.31066046573E+02 -0.10691303981E+03  0.17718609253E+03  0.12509000000E+03 0.  0.
         25    1    3    3    0    0  0.40474347961E+02  0.50803092142E+02  0.62511567773E+02  0.15418927077E+03  0.12509000000E+03 0.  0.
<mgrwt>
<rscale>  2 0.45954608E+03</rscale>
<asrwt>0</asrwt>
<pdfrwt beam="1">  1       21 0.31846635E-01 0.45954608E+03</pdfrwt>
<pdfrwt beam="2">  1       21 0.35852280E-01 0.45954608E+03</pdfrwt>
<totfact> 0.65738420E+04</totfact>
</mgrwt>
</event>
<event>
 6    0  0.3472812E-005  0.4426884E+03  0.7546771E-02  0.1029925E+00
         21   -1    0    0  502  501  0.00000000000E+00  0.00000000000E+00  0.13086483063E+03  0.13086483063E+03  0.00000000000E+00 0.  1.
         21   -1    0    0  501  502 -0.00000000000E+00 -0.00000000000E+00 -0.37438064779E+03  0.37438064779E+03  0.00000000000E+00 0.  1.
      99926    2    1    2    0    0  0.14210854715E-13  0.44408920985E-15 -0.24351581716E+03  0.50524547843E+03  0.44268842346E+03 0.  0.
         25    1    3    3    0    0 -0.90481694096E+02  0.53153956142E+00 -0.14353411105E+03  0.21080030511E+03  0.12509000000E+03 0.  0.
         25    1    3    3    0    0  0.64056617147E+01 -0.44656617725E+01 -0.33959990361E+02  0.12985285396E+03  0.12509000000E+03 0.  0.
         25    1    3    3    0    0  0.84076032381E+02  0.39341222111E+01 -0.66021715751E+02  0.16459231935E+03  0.12509000000E+03 0.  0.
<mgrwt>
<rscale>  2 0.44268842E+03</rscale>
<asrwt>0</asrwt>
<pdfrwt beam="1">  1       21 0.19244828E-01 0.44268842E+03</pdfrwt>
<pdfrwt beam="2">  1       21 0.55055978E-01 0.44268842E+03</pdfrwt>
<totfact> 0.71652440E+04</totfact>
</mgrwt>
</event>
<event>
 6    0  0.3472812E-005  0.4542977E+03  0.7546771E-02  0.1026448E+00
         21   -1    0    0  502  501  0.00000000000E+00  0.00000000000E+00  0.45174530187E+02  0.45174530187E+02  0.00000000000E+00 0.  1.
         21   -1    0    0  501  502 -0.00000000000E+00 -0.00000000000E+00 -0.11421615376E+04  0.11421615376E+04  0.00000000000E+00 0.  1.
      99926    2    1    2    0    0 -0.14210854715E-13  0.71054273576E-14 -0.10969870074E+04  0.11873360678E+04  0.45429774755E+03 0.  0.
         25    1    3    3    0    0  0.78359178914E+02 -0.24759568833E+02 -0.25405525030E+03  0.29486399487E+03  0.12509000000E+03 0.  0.
         25    1    3    3    0    0 -0.15961949795E+02 -0.30821315831E+02 -0.26225789005E+03  0.29262851253E+03  0.12509000000E+03 0.  0.
         25    1    3    3    0    0 -0.62397229119E+02  0.55580884665E+02 -0.58067386704E+03  0.59984356036E+03  0.12509000000E+03 0.  0.
<mgrwt>
<rscale>  2 0.45429775E+03</rscale>
<asrwt>0</asrwt>
<pdfrwt beam="1">  1       21 0.66433132E-02 0.45429775E+03</pdfrwt>
<pdfrwt beam="2">  1       21 0.16796493E+00 0.45429775E+03</pdfrwt>
<totfact> 0.32738668E+04</totfact>
</mgrwt>
</event>
<event>
 6    0  0.3472812E-005  0.4562236E+03  0.7546771E-02  0.1025882E+00
         21   -1    0    0  502  501  0.00000000000E+00  0.00000000000E+00  0.73999855638E+02  0.73999855638E+02  0.00000000000E+00 0.  1.
         21   -1    0    0  501  502 -0.00000000000E+00 -0.00000000000E+00 -0.70317680547E+03  0.70317680547E+03  0.00000000000E+00 0.  1.
      99926    2    1    2    0    0 -0.14210854715E-13  0.00000000000E+00 -0.62917694984E+03  0.77717666111E+03  0.45622355087E+03 0.  0.
         25    1    3    3    0    0  0.10334886640E+03  0.18129248387E+02 -0.24910261265E+03  0.29784102733E+03  0.12509000000E+03 0.  0.
         25    1    3    3    0    0 -0.85312040596E+02  0.71367710726E+01 -0.27090934193E+03  0.31043269386E+03  0.12509000000E+03 0.  0.
         25    1    3    3    0    0 -0.18036825803E+02 -0.25266019460E+02 -0.10916499526E+03  0.16890293992E+03  0.12509000000E+03 0.  0.
<mgrwt>
<rscale>  2 0.45622355E+03</rscale>
<asrwt>0</asrwt>
<pdfrwt beam="1">  1       21 0.10882332E-01 0.45622355E+03</pdfrwt>
<pdfrwt beam="2">  1       21 0.10340835E+00 0.45622355E+03</pdfrwt>
<totfact> 0.48421861E+04</totfact>
</mgrwt>
</event>
<event>
 6    0  0.3472812E-005  0.5204980E+03  0.7546771E-02  0.1008563E+00
         21   -1    0    0  502  501  0.00000000000E+00  0.00000000000E+00  0.22774144867E+03  0.22774144867E+03  0.00000000000E+00 0.  1.
         21   -1    0    0  501  502 -0.00000000000E+00 -0.00000000000E+00 -0.29739659960E+03  0.29739659960E+03  0.00000000000E+00 0.  1.
      99926    2    1    2    0    0  0.00000000000E+00  0.00000000000E+00 -0.69655150937E+02  0.52513804827E+03  0.52049796319E+03 0.  0.
         25    1    3    3    0    0  0.36387108450E+02 -0.45388816423E+02 -0.88345921543E+02  0.16381903513E+03  0.12509000000E+03 0.  0.
         25    1    3    3    0    0  0.18692437441E+02  0.99391835524E+02 -0.84543007174E+02  0.18172278984E+03  0.12509000000E+03 0.  0.
         25    1    3    3    0    0 -0.55079545891E+02 -0.54003019101E+02  0.10323377778E+03  0.17959622330E+03  0.12509000000E+03 0.  0.
<mgrwt>
<rscale>  2 0.52049796E+03</rscale>
<asrwt>0</asrwt>
<pdfrwt beam="1">  1       21 0.33491390E-01 0.52049796E+03</pdfrwt>
<pdfrwt beam="2">  1       21 0.43734794E-01 0.52049796E+03</pdfrwt>
<totfact> 0.38969744E+04</totfact>
</mgrwt>
</event>
<event>
 6    0  0.3472812E-005  0.4343047E+03  0.7546771E-02  0.1032509E+00
         21   -1    0    0  502  501  0.00000000000E+00  0.00000000000E+00  0.22099593381E+03  0.22099593381E+03  0.00000000000E+00 0.  1.
         21   -1    0    0  501  502 -0.00000000000E+00 -0.00000000000E+00 -0.21337565506E+03  0.21337565506E+03  0.00000000000E+00 0.  1.
      99926    2    1    2    0    0 -0.35527136788E-14 -0.35527136788E-14  0.76202787487E+01  0.43437158888E+03  0.43430474160E+03 0.  0.
         25    1    3    3    0    0 -0.18686400017E+02 -0.31325310698E+02 -0.54629728310E+02  0.14128825836E+03  0.12509000000E+03 0.  0.
         25    1    3    3    0    0  0.74869239682E+02  0.11217100341E+02  0.47350051714E+02  0.15369047429E+03  0.12509000000E+03 0.  0.
         25    1    3    3    0    0 -0.56182839665E+02  0.20108210356E+02  0.14899955345E+02  0.13939285622E+03  0.12509000000E+03 0.  0.
<mgrwt>
<rscale>  2 0.43430474E+03</rscale>
<asrwt>0</asrwt>
<pdfrwt beam="1">  1       21 0.32499402E-01 0.43430474E+03</pdfrwt>
<pdfrwt beam="2">  1       21 0.31378772E-01 0.43430474E+03</pdfrwt>
<totfact> 0.82959866E+04</totfact>
</mgrwt>
</event>
<event>
 6    0  0.3472812E-005  0.4387518E+03  0.7546771E-02  0.1031130E+00
         21   -1    0    0  502  501  0.00000000000E+00  0.00000000000E+00  0.13290040546E+03  0.13290040546E+03  0.00000000000E+00 0. -1.
         21   -1    0    0  501  502 -0.00000000000E+00 -0.00000000000E+00 -0.36211919580E+03  0.36211919580E+03  0.00000000000E+00 0. -1.
      99926    2    1    2    0    0  0.71054273576E-14  0.00000000000E+00 -0.22921879034E+03  0.49501960126E+03  0.43875181114E+03 0.  0.
         25    1    3    3    0    0  0.46169545504E+02  0.61344122233E+02 -0.64140354411E+02  0.16017559561E+03  0.12509000000E+03 0.  0.
         25    1    3    3    0    0  0.37506903728E+01  0.22882018635E+02 -0.42278606802E+02  0.13406208692E+03  0.12509000000E+03 0.  0.
         25    1    3    3    0    0 -0.49920235877E+02 -0.84226140867E+02 -0.12279982913E+03  0.20078191873E+03  0.12509000000E+03 0.  0.
<mgrwt>
<rscale>  2 0.43875181E+03</rscale>
<asrwt>0</asrwt>
<pdfrwt beam="1">  1       21 0.19544177E-01 0.43875181E+03</pdfrwt>
<pdfrwt beam="2">  1       21 0.53252823E-01 0.43875181E+03</pdfrwt>
<totfact> 0.74814981E+04</totfact>
</mgrwt>
</event>
<event>
 6    0  0.3472812E-005  0.4542256E+03  0.7546771E-02  0.1026469E+00
         21   -1    0    0  502  501  0.00000000000E+00  0.00000000000E+00  0.14135124524E+03  0.14135124524E+03  0.00000000000E+00 0. -1.
         21   -1    0    0  501  502 -0.00000000000E+00 -0.00000000000E+00 -0.36490819198E+03  0.36490819198E+03  0.00000000000E+00 0. -1.
      99926    2    1    2    0    0 -0.71054273576E-14  0.00000000000E+00 -0.22355694674E+03  0.50625943722E+03  0.45422561502E+03 0.  0.
         25    1    3    3    0    0  0.71942022954E+02 -0.83688958777E+00 -0.12604237857E+03  0.19159995915E+03  0.12509000000E+03 0.  0.
         25    1    3    3    0    0 -0.54372417561E+02 -0.71078888237E+02 -0.51261289847E+02  0.16212278088E+03  0.12509000000E+03 0.  0.
         25    1    3    3    0    0 -0.17569605393E+02  0.71915777825E+02 -0.46253278327E+02  0.15253669719E+03  0.12509000000E+03 0.  0.
<mgrwt>
<rscale>  2 0.45422562E+03</rscale>
<asrwt>0</asrwt>
<pdfrwt beam="1">  1       21 0.20786948E-01 0.45422562E+03</pdfrwt>
<pdfrwt beam="2">  1       21 0.53662969E-01 0.45422562E+03</pdfrwt>
<totfact> 0.65233137E+04</totfact>
</mgrwt>
</event>
<event>
 6    0  0.3472812E-005  0.4577296E+03  0.7546771E-02  0.1025442E+00
         21   -1    0    0  502  501  0.00000000000E+00  0.00000000000E+00  0.97996418294E+03  0.97996418294E+03  0.00000000000E+00 0.  1.
         21   -1    0    0  501  502 -0.00000000000E+00 -0.00000000000E+00 -0.53450005408E+02  0.53450005408E+02  0.00000000000E+00 0.  1.
      99926    2    1    2    0    0  0.00000000000E+00  0.00000000000E+00  0.92651417753E+03  0.10334141883E+04  0.45772957465E+03 0.  0.
         25    1    3    3    0    0  0.84148117290E+02  0.53201677483E+00  0.43872666825E+03  0.46390708792E+03  0.12509000000E+03 0.  0.
         25    1    3    3    0    0 -0.80461321123E+02 -0.22072313378E+02  0.35622160447E+03  0.38665559714E+03  0.12509000000E+03 0.  0.
         25    1    3    3    0    0 -0.36867961667E+01  0.21540296603E+02  0.13156590481E+03  0.18285150328E+03  0.12509000000E+03 0.  0.
<mgrwt>
<rscale>  2 0.45772957E+03</rscale>
<asrwt>0</asrwt>
<pdfrwt beam="1">  1       21 0.14411237E+00 0.45772957E+03</pdfrwt>
<pdfrwt beam="2">  1       21 0.78602955E-02 0.45772957E+03</pdfrwt>
<totfact> 0.37095148E+04</totfact>
</mgrwt>
</event>
<event>
 6    0  0.3472812E-005  0.4568311E+03  0.7546771E-02  0.1025704E+00
         21   -1    0    0  502  501  0.00000000000E+00  0.00000000000E+00  0.11747861764E+03  0.11747861764E+03  0.00000000000E+00 0. -1.
         21   -1    0    0  501  502 -0.00000000000E+00 -0.00000000000E+00 -0.44411201699E+03  0.44411201699E+03  0.00000000000E+00 0. -1.
      99926    2    1    2    0    0  0.17763568394E-14 -0.14210854715E-13 -0.32663339935E+03  0.56159063462E+03  0.45683111029E+03 0.  0.
         25    1    3    3    0    0 -0.36987505507E+02  0.27937708075E+01 -0.81393437641E+02  0.15377997435E+03  0.12509000000E+03 0.  0.
         25    1    3    3    0    0  0.30128431074E+02  0.66684859827E+02 -0.21833133058E+03  0.26205089372E+03  0.12509000000E+03 0.  0.
         25    1    3    3    0    0  0.68590744333E+01 -0.69478630635E+02 -0.26908631127E+02  0.14575976655E+03  0.12509000000E+03 0.  0.
<mgrwt>
<rscale>  2 0.45683111E+03</rscale>
<asrwt>0</asrwt>
<pdfrwt beam="1">  1       21 0.17276268E-01 0.45683111E+03</pdfrwt>
<pdfrwt beam="2">  1       21 0.65310589E-01 0.45683111E+03</pdfrwt>
<totfact> 0.60229948E+04</totfact>
</mgrwt>
</event>
<event>
 6    0  0.4358830E-005  0.5483657E+03  0.7546771E-02  0.1001873E+00
         21   -1    0    0  502  501  0.00000000000E+00  0.00000000000E+00  0.58321382934E+03  0.58321382934E+03  0.00000000000E+00 0. -1.
         21   -1    0    0  501  502 -0.00000000000E+00 -0.00000000000E+00 -0.12889993983E+03  0.12889993983E+03  0.00000000000E+00 0. -1.
      99926    2    1    2    0    0  0.00000000000E+00  0.00000000000E+00  0.45431388951E+03  0.71211376916E+03  0.54836567183E+03 0.  0.
         25    1    3    3    0    0 -0.11457383078E+03  0.30170548861E+02  0.27853007281E+03  0.32751173151E+03  0.12509000000E+03 0.  0.
         25    1    3    3    0    0  0.27406757219E+02  0.78926846329E+02  0.10826862735E+03  0.18533801871E+03  0.12509000000E+03 0.  0.
         25    1    3    3    0    0  0.87167073565E+02 -0.10909739519E+03  0.67515189351E+02  0.19926401894E+03  0.12509000000E+03 0.  0.
<mgrwt>
<rscale>  2 0.54836567E+03</rscale>
<asrwt>0</asrwt>
<pdfrwt beam="1">  1       21 0.85766738E-01 0.54836567E+03</pdfrwt>
<pdfrwt beam="2">  1       21 0.18955874E-01 0.54836567E+03</pdfrwt>
<totfact> 0.26595901E+04</totfact>
</mgrwt>
</event>
<event>
 6    0  0.3472812E-005  0.4495323E+03  0.7546771E-02  0.1027862E+00
         21   -1    0    0  502  501  0.00000000000E+00  0.00000000000E+00  0.45512520169E+03  0.45512520169E+03  0.00000000000E+00 0.  1.
         21   -1    0    0  501  502 -0.00000000000E+00 -0.00000000000E+00 -0.11100202998E+03  0.11100202998E+03  0.00000000000E+00 0.  1.
      99926    2    1    2    0    0  0.71054273576E-14  0.00000000000E+00  0.34412317171E+03  0.56612723167E+03  0.44953229598E+03 0.  0.
         25    1    3    3    0    0 -0.65911688206E+02  0.31451229363E+02  0.16538436385E+03  0.21984773453E+03  0.12509000000E+03 0.  0.
         25    1    3    3    0    0  0.42804549557E+02 -0.66963274914E+02  0.15050712884E+03  0.21122550410E+03  0.12509000000E+03 0.  0.
         25    1    3    3    0    0  0.23107138649E+02  0.35512045551E+02  0.28231679018E+02  0.13505399304E+03  0.12509000000E+03 0.  0.
<mgrwt>
<rscale>  2 0.44953230E+03</rscale>
<asrwt>0</asrwt>
<pdfrwt beam="1">  1       21 0.66930176E-01 0.44953230E+03</pdfrwt>
<pdfrwt beam="2">  1       21 0.16323828E-01 0.44953230E+03</pdfrwt>
<totfact> 0.63515493E+04</totfact>
</mgrwt>
</event>
<event>
 6    0  0.3472812E-005  0.5453869E+03  0.7546771E-02  0.1002567E+00
         21   -1    0    0  502  501  0.00000000000E+00  0.00000000000E+00  0.59315578760E+02  0.59315578760E+02  0.00000000000E+00 0.  1.
         21   -1    0    0  501  502 -0.00000000000E+00 -0.00000000000E+00 -0.12536623316E+04  0.12536623316E+04  0.00000000000E+00 0.  1.
      99926    2    1    2    0    0  0.28421709430E-13  0.35527136788E-14 -0.11943467529E+04  0.13129779104E+04  0.54538686002E+03 0.  0.
         25    1    3    3    0    0 -0.14538731166E+02  0.10722285634E+02 -0.28311872549E+03  0.31004848481E+03  0.12509000000E+03 0.  0.
         25    1    3    3    0    0  0.17159144003E+03  0.33931145886E+01 -0.54711301980E+03  0.58688610484E+03  0.12509000000E+03 0.  0.
         25    1    3    3    0    0 -0.15705270886E+03 -0.14115400222E+02 -0.36411500760E+03  0.41604332075E+03  0.12509000000E+03 0.  0.
<mgrwt>
<rscale>  2 0.54538686E+03</rscale>
<asrwt>0</asrwt>
<pdfrwt beam="1">  1       21 0.87228806E-02 0.54538686E+03</pdfrwt>
<pdfrwt beam="2">  1       21 0.18436208E+00 0.54538686E+03</pdfrwt>
<totfact> 0.15045117E+04</totfact>
</mgrwt>
</event>
<event>
 6    0  0.3472812E-005  0.4544543E+03  0.7546771E-02  0.1026402E+00
         21   -1    0    0  502  501  0.00000000000E+00  0.00000000000E+00  0.95166715815E+02  0.95166715815E+02  0.00000000000E+00 0. -1.
         21   -1    0    0  501  502 -0.00000000000E+00 -0.00000000000E+00 -0.54254454935E+03  0.54254454935E+03  0.00000000000E+00 0. -1.
      99926    2    1    2    0    0  0.00000000000E+00  0.00000000000E+00 -0.44737783353E+03  0.63771126516E+03  0.45445432310E+03 0.  0.
         25    1    3    3    0    0  0.23989347089E+02  0.56128084199E+02 -0.34745159653E+02  0.14345934905E+03  0.12509000000E+03 0.  0.
         25    1    3    3    0    0 -0.11559013050E+02 -0.58538354886E+02 -0.27426666570E+03  0.30729474741E+03  0.12509000000E+03 0.  0.
         25    1    3    3    0    0 -0.12430334040E+02  0.24102706876E+01 -0.13836600818E+03  0.18695716870E+03  0.12509000000E+03 0.  0.
<mgrwt>
<rscale>  2 0.45445432E+03</rscale>
<asrwt>0</asrwt>
<pdfrwt beam="1">  1       21 0.13995105E-01 0.45445432E+03</pdfrwt>
<pdfrwt beam="2">  1       21 0.79785965E-01 0.45445432E+03</pdfrwt>
<totfact> 0.56658661E+04</totfact>
</mgrwt>
</event>
<event>
 6    0  0.3472812E-005  0.4556293E+03  0.7546771E-02  0.1026057E+00
         21   -1    0    0  502  501  0.00000000000E+00  0.00000000000E+00  0.28393465674E+03  0.28393465674E+03  0.00000000000E+00 0. -1.
         21   -1    0    0  501  502 -0.00000000000E+00 -0.00000000000E+00 -0.18278681246E+03  0.18278681246E+03  0.00000000000E+00 0. -1.
      99926    2    1    2    0    0 -0.35527136788E-14 -0.17763568394E-14  0.10114784428E+03  0.46672146920E+03  0.45562928288E+03 0.  0.
         25    1    3    3    0    0  0.49626905701E+02 -0.10780990143E+02 -0.42434036266E+01  0.13507247718E+03  0.12509000000E+03 0.  0.
         25    1    3    3    0    0  0.31160912935E+02 -0.15387486127E+02  0.12373576611E+03  0.17934833464E+03  0.12509000000E+03 0.  0.
         25    1    3    3    0    0 -0.80787818635E+02  0.26168476270E+02 -0.18344518201E+02  0.15230065738E+03  0.12509000000E+03 0.  0.
<mgrwt>
<rscale>  2 0.45562928E+03</rscale>
<asrwt>0</asrwt>
<pdfrwt beam="1">  1       21 0.41755097E-01 0.45562928E+03</pdfrwt>
<pdfrwt beam="2">  1       21 0.26880413E-01 0.45562928E+03</pdfrwt>
<totfact> 0.67343971E+04</totfact>
</mgrwt>
</event>
<event>
 6    0  0.3472812E-005  0.4345970E+03  0.7546771E-02  0.1032418E+00
         21   -1    0    0  502  501  0.00000000000E+00  0.00000000000E+00  0.11654423805E+03  0.11654423805E+03  0.00000000000E+00 0. -1.
         21   -1    0    0  501  502 -0.00000000000E+00 -0.00000000000E+00 -0.40515633634E+03  0.40515633634E+03  0.00000000000E+00 0. -1.
      99926    2    1    2    0    0 -0.71054273576E-14  0.44408920985E-14 -0.28861209829E+03  0.52170057439E+03  0.43459699267E+03 0.  0.
         25    1    3    3    0    0 -0.16707709861E+02  0.53356653833E+02 -0.97219681537E+02  0.16800373405E+03  0.12509000000E+03 0.  0.
         25    1    3    3    0    0  0.52917897812E+02 -0.49838636022E+02 -0.16735886767E+03  0.22122543307E+03  0.12509000000E+03 0.  0.
         25    1    3    3    0    0 -0.36210187951E+02 -0.35180178108E+01 -0.24033549083E+02  0.13247140726E+03  0.12509000000E+03 0.  0.
<mgrwt>
<rscale>  2 0.43459699E+03</rscale>
<asrwt>0</asrwt>
<pdfrwt beam="1">  1       21 0.17138859E-01 0.43459699E+03</pdfrwt>
<pdfrwt beam="2">  1       21 0.59581813E-01 0.43459699E+03</pdfrwt>
<totfact> 0.75208884E+04</totfact>
</mgrwt>
</event>
<event>
 6    0  0.3472812E-005  0.4514021E+03  0.7546771E-02  0.1027305E+00
         21   -1    0    0  502  501  0.00000000000E+00  0.00000000000E+00  0.11813272104E+03  0.11813272104E+03  0.00000000000E+00 0. -1.
         21   -1    0    0  501  502 -0.00000000000E+00 -0.00000000000E+00 -0.43121803258E+03  0.43121803258E+03  0.00000000000E+00 0. -1.
      99926    2    1    2    0    0  0.00000000000E+00  0.00000000000E+00 -0.31308531154E+03  0.54935075363E+03  0.45140208042E+03 0.  0.
         25    1    3    3    0    0 -0.51943709033E+02  0.16002266668E+02 -0.67696805198E+01  0.13655606219E+03  0.12509000000E+03 0.  0.
         25    1    3    3    0    0 -0.10647631285E+02 -0.43957818250E+02 -0.12984940444E+03  0.18588716408E+03  0.12509000000E+03 0.  0.
         25    1    3    3    0    0  0.62591340318E+02  0.27955551582E+02 -0.17646622658E+03  0.22690752735E+03  0.12509000000E+03 0.  0.
<mgrwt>
<rscale>  2 0.45140208E+03</rscale>
<asrwt>0</asrwt>
<pdfrwt beam="1">  1       21 0.17372459E-01 0.45140208E+03</pdfrwt>
<pdfrwt beam="2">  1       21 0.63414416E-01 0.45140208E+03</pdfrwt>
<totfact> 0.63703589E+04</totfact>
</mgrwt>
</event>
<event>
 6    0  0.3472812E-005  0.5354706E+03  0.7546771E-02  0.1004914E+00
         21   -1    0    0  502  501  0.00000000000E+00  0.00000000000E+00  0.13538580137E+03  0.13538580137E+03  0.00000000000E+00 0.  1.
         21   -1    0    0  501  502 -0.00000000000E+00 -0.00000000000E+00 -0.52946614134E+03  0.52946614134E+03  0.00000000000E+00 0.  1.
      99926    2    1    2    0    0  0.00000000000E+00  0.00000000000E+00 -0.39408033996E+03  0.66485194271E+03  0.53547062607E+03 0.  0.
         25    1    3    3    0    0 -0.61393442791E+02 -0.41605156462E+01 -0.24621131834E+03  0.28293813120E+03  0.12509000000E+03 0.  0.
         25    1    3    3    0    0 -0.67558827331E+02  0.72854796437E+02 -0.69842614171E+02  0.17434883243E+03  0.12509000000E+03 0.  0.
         25    1    3    3    0    0  0.12895227012E+03 -0.68694280791E+02 -0.78026407456E+02  0.20756497909E+03  0.12509000000E+03 0.  0.
<mgrwt>
<rscale>  2 0.53547063E+03</rscale>
<asrwt>0</asrwt>
<pdfrwt beam="1">  1       21 0.19909677E-01 0.53547063E+03</pdfrwt>
<pdfrwt beam="2">  1       21 0.77862668E-01 0.53547063E+03</pdfrwt>
<totfact> 0.30423426E+04</totfact>
</mgrwt>
</event>
<event>
 6    0  0.3472812E-005  0.4554540E+03  0.7546771E-02  0.1026108E+00
         21   -1    0    0  502  501  0.00000000000E+00  0.00000000000E+00  0.14595195858E+03  0.14595195858E+03  0.00000000000E+00 0.  1.
         21   -1    0    0  501  502 -0.00000000000E+00 -0.00000000000E+00 -0.35531956609E+03  0.35531956609E+03  0.00000000000E+00 0.  1.
      99926    2    1    2    0    0  0.00000000000E+00  0.00000000000E+00 -0.20936760750E+03  0.50127152467E+03  0.45545400028E+03 0.  0.
         25    1    3    3    0    0 -0.53734325399E+02 -0.26723945368E+01 -0.36711010512E+02  0.14103093920E+03  0.12509000000E+03 0.  0.
         25    1    3    3    0    0 -0.38220323753E+02 -0.25276938060E+02 -0.99060491263E+01  0.13358650626E+03  0.12509000000E+03 0.  0.
         25    1    3    3    0    0  0.91954649152E+02  0.27949332597E+02 -0.16275054786E+03  0.22665407921E+03  0.12509000000E+03 0.  0.
<mgrwt>
<rscale>  2 0.45545400E+03</rscale>
<asrwt>0</asrwt>
<pdfrwt beam="1">  1       21 0.21463523E-01 0.45545400E+03</pdfrwt>
<pdfrwt beam="2">  1       21 0.52252877E-01 0.45545400E+03</pdfrwt>
<totfact> 0.64947053E+04</totfact>
</mgrwt>
</event>
<event>
 6    0  0.3472812E-005  0.4497367E+03  0.7546771E-02  0.1027801E+00
         21   -1    0    0  502  501  0.00000000000E+00  0.00000000000E+00  0.50554928282E+02  0.50554928282E+02  0.00000000000E+00 0.  1.
         21   -1    0    0  501  502 -0.00000000000E+00 -0.00000000000E+00 -0.10002143586E+04  0.10002143586E+04  0.00000000000E+00 0.  1.
      99926    2    1    2    0    0  0.00000000000E+00  0.00000000000E+00 -0.94965943034E+03  0.10507692869E+04  0.44973665702E+03 0.  0.
         25    1    3    3    0    0  0.35019554302E+02 -0.95847693066E+02 -0.28655810904E+03  0.32890151627E+03  0.12509000000E+03 0.  0.
         25    1    3    3    0    0 -0.59427932624E+02  0.67170481048E+02 -0.38433193490E+03  0.41400736344E+03  0.12509000000E+03 0.  0.
         25    1    3    3    0    0  0.24408378323E+02  0.28677212019E+02 -0.27876938640E+03  0.30786040719E+03  0.12509000000E+03 0.  0.
<mgrwt>
<rscale>  2 0.44973666E+03</rscale>
<asrwt>0</asrwt>
<pdfrwt beam="1">  1       21 0.74345491E-02 0.44973666E+03</pdfrwt>
<pdfrwt beam="2">  1       21 0.14709033E+00 0.44973666E+03</pdfrwt>
<totfact> 0.38819574E+04</totfact>
</mgrwt>
</event>
<event>
 6    0  0.3472812E-005  0.4568044E+03  0.7546771E-02  0.1025712E+00
         21   -1    0    0  502  501  0.00000000000E+00  0.00000000000E+00  0.83854709534E+03  0.83854709534E+03  0.00000000000E+00 0. -1.
         21   -1    0    0  501  502 -0.00000000000E+00 -0.00000000000E+00 -0.62211852715E+02  0.62211852715E+02  0.00000000000E+00 0. -1.
      99926    2    1    2    0    0  0.00000000000E+00  0.00000000000E+00  0.77633524262E+03  0.90075894805E+03  0.45680441500E+03 0.  0.
         25    1    3    3    0    0  0.69011839595E+02  0.38653890525E+02  0.48202683762E+03  0.50423619222E+03  0.12509000000E+03 0.  0.
         25    1    3    3    0    0 -0.21035717033E+02 -0.21149816259E+02  0.11918148345E+03  0.17533268439E+03  0.12509000000E+03 0.  0.
         25    1    3    3    0    0 -0.47976122562E+02 -0.17504074266E+02  0.17512692156E+03  0.22119007144E+03  0.12509000000E+03 0.  0.
<mgrwt>
<rscale>  2 0.45680441E+03</rscale>
<asrwt>0</asrwt>
<pdfrwt beam="1">  1       21 0.12331574E+00 0.45680441E+03</pdfrwt>
<pdfrwt beam="2">  1       21 0.91488024E-02 0.45680441E+03</pdfrwt>
<totfact> 0.42595922E+04</totfact>
</mgrwt>
</event>
<event>
 6    0  0.3472812E-005  0.4522323E+03  0.7546771E-02  0.1027058E+00
         21   -1    0    0  502  501  0.00000000000E+00  0.00000000000E+00  0.57615662804E+03  0.57615662804E+03  0.00000000000E+00 0.  1.
         21   -1    0    0  501  502 -0.00000000000E+00 -0.00000000000E+00 -0.88740630801E+02  0.88740630801E+02  0.00000000000E+00 0.  1.
      99926    2    1    2    0    0  0.14210854715E-13  0.00000000000E+00  0.48741599724E+03  0.66489725884E+03  0.45223225277E+03 0.  0.
         25    1    3    3    0    0 -0.91786284852E+01 -0.71081839941E+02  0.10028098170E+03  0.17561508643E+03  0.12509000000E+03 0.  0.
         25    1    3    3    0    0 -0.68789679136E+02  0.36091966412E+02  0.17725365044E+03  0.23043657412E+03  0.12509000000E+03 0.  0.
         25    1    3    3    0    0  0.77968307622E+02  0.34989873529E+02  0.20988136509E+03  0.25884559830E+03  0.12509000000E+03 0.  0.
<mgrwt>
<rscale>  2 0.45223225E+03</rscale>
<asrwt>0</asrwt>
<pdfrwt beam="1">  1       21 0.84728914E-01 0.45223225E+03</pdfrwt>
<pdfrwt beam="2">  1       21 0.13050093E-01 0.45223225E+03</pdfrwt>
<totfact> 0.56063772E+04</totfact>
</mgrwt>
</event>
<event>
 6    0  0.3472812E-005  0.4572988E+03  0.7546771E-02  0.1025568E+00
         21   -1    0    0  502  501  0.00000000000E+00  0.00000000000E+00  0.35971495432E+03  0.35971495432E+03  0.00000000000E+00 0.  1.
         21   -1    0    0  501  502 -0.00000000000E+00 -0.00000000000E+00 -0.14533883348E+03  0.14533883348E+03  0.00000000000E+00 0.  1.
      99926    2    1    2    0    0 -0.35527136788E-14  0.14210854715E-13  0.21437612084E+03  0.50505378780E+03  0.45729881630E+03 0.  0.
         25    1    3    3    0    0 -0.35585435670E+02  0.79539625743E+02  0.90337162464E+02  0.17720379882E+03  0.12509000000E+03 0.  0.
         25    1    3    3    0    0  0.67181976192E+02 -0.64683828719E+01  0.10839667493E+03  0.17875291644E+03  0.12509000000E+03 0.  0.
         25    1    3    3    0    0 -0.31596540522E+02 -0.73071242871E+02  0.15642283452E+02  0.14909707254E+03  0.12509000000E+03 0.  0.
<mgrwt>
<rscale>  2 0.45729882E+03</rscale>
<asrwt>0</asrwt>
<pdfrwt beam="1">  1       21 0.52899258E-01 0.45729882E+03</pdfrwt>
<pdfrwt beam="2">  1       21 0.21373358E-01 0.45729882E+03</pdfrwt>
<totfact> 0.63745929E+04</totfact>
</mgrwt>
</event>
<event>
 6    0  0.3472812E-005  0.4627358E+03  0.7546771E-02  0.1023991E+00
         21   -1    0    0  502  501  0.00000000000E+00  0.00000000000E+00  0.84835169389E+03  0.84835169389E+03  0.00000000000E+00 0. -1.
         21   -1    0    0  501  502 -0.00000000000E+00 -0.00000000000E+00 -0.63100121840E+02  0.63100121840E+02  0.00000000000E+00 0. -1.
      99926    2    1    2    0    0  0.00000000000E+00  0.00000000000E+00  0.78525157205E+03  0.91145181573E+03  0.46273575720E+03 0.  0.
         25    1    3    3    0    0  0.10743796386E+03 -0.65986709299E+02  0.25357236909E+03  0.30958620181E+03  0.12509000000E+03 0.  0.
         25    1    3    3    0    0 -0.66063425151E+02  0.44402962781E+02  0.29320110918E+03  0.32855805845E+03  0.12509000000E+03 0.  0.
         25    1    3    3    0    0 -0.41374538712E+02  0.21583746518E+02  0.23847809378E+03  0.27330755547E+03  0.12509000000E+03 0.  0.
<mgrwt>
<rscale>  2 0.46273576E+03</rscale>
<asrwt>0</asrwt>
<pdfrwt beam="1">  1       21 0.12475760E+00 0.46273576E+03</pdfrwt>
<pdfrwt beam="2">  1       21 0.92794302E-02 0.46273576E+03</pdfrwt>
<totfact> 0.40248993E+04</totfact>
</mgrwt>
</event>
<event>
 6    0  0.3472812E-005  0.4467218E+03  0.7546771E-02  0.1028704E+00
         21   -1    0    0  502  501  0.00000000000E+00  0.00000000000E+00  0.28973323108E+02  0.28973323108E+02  0.00000000000E+00 0.  1.
         21   -1    0    0  501  502 -0.00000000000E+00 -0.00000000000E+00 -0.17219319913E+04  0.17219319913E+04  0.00000000000E+00 0.  1.
      99926    2    1    2    0    0  0.00000000000E+00  0.00000000000E+00 -0.16929586681E+04  0.17509053144E+04  0.44672180136E+03 0.  0.
         25    1    3    3    0    0  0.10108031934E+02  0.84577781119E+02 -0.87679595949E+03  0.88976077461E+03  0.12509000000E+03 0.  0.
         25    1    3    3    0    0 -0.72242797510E+01 -0.68506786300E+02 -0.51958709307E+03  0.53885399263E+03  0.12509000000E+03 0.  0.
         25    1    3    3    0    0 -0.28837521827E+01 -0.16070994819E+02 -0.29657561559E+03  0.32229054712E+03  0.12509000000E+03 0.  0.
<mgrwt>
<rscale>  2 0.44672180E+03</rscale>
<asrwt>0</asrwt>
<pdfrwt beam="1">  1       21 0.42607818E-02 0.44672180E+03</pdfrwt>
<pdfrwt beam="2">  1       21 0.25322535E+00 0.44672180E+03</pdfrwt>
<totfact> 0.19441968E+04</totfact>
</mgrwt>
</event>
<event>
 6    0  0.3472812E-005  0.4262599E+03  0.7546771E-02  0.1035048E+00
         21   -1    0    0  502  501  0.00000000000E+00  0.00000000000E+00  0.59700121324E+02  0.59700121324E+02  0.00000000000E+00 0. -1.
         21   -1    0    0  501  502 -0.00000000000E+00 -0.00000000000E+00 -0.76087579872E+03  0.76087579872E+03  0.00000000000E+00 0. -1.
      99926    2    1    2    0    0 -0.35527136788E-14  0.17763568394E-14 -0.70117567740E+03  0.82057592005E+03  0.42625990896E+03 0.  0.
         25    1    3    3    0    0 -0.27016905674E+02  0.15848790132E+02 -0.35829989766E+03  0.38079840087E+03  0.12509000000E+03 0.  0.
         25    1    3    3    0    0 -0.17074096160E+02 -0.77937415604E+01 -0.93800942879E+02  0.15747505248E+03  0.12509000000E+03 0.  0.
         25    1    3    3    0    0  0.44091001833E+02 -0.80550485714E+01 -0.24907483686E+03  0.28230246671E+03  0.12509000000E+03 0.  0.
<mgrwt>
<rscale>  2 0.42625991E+03</rscale>
<asrwt>0</asrwt>
<pdfrwt beam="1">  1       21 0.87794297E-02 0.42625991E+03</pdfrwt>
<pdfrwt beam="2">  1       21 0.11189350E+00 0.42625991E+03</pdfrwt>
<totfact> 0.59008659E+04</totfact>
</mgrwt>
</event>
<event>
 6    0  0.3472812E-005  0.4458461E+03  0.7546771E-02  0.1028968E+00
         21   -1    0    0  502  501  0.00000000000E+00  0.00000000000E+00  0.46280604066E+03  0.46280604066E+03  0.00000000000E+00 0.  1.
         21   -1    0    0  501  502 -0.00000000000E+00 -0.00000000000E+00 -0.10737689380E+03  0.10737689380E+03  0.00000000000E+00 0.  1.
      99926    2    1    2    0    0  0.71054273576E-14 -0.39968028887E-14  0.35542914686E+03  0.57018293447E+03  0.44584605002E+03 0.  0.
         25    1    3    3    0    0 -0.46670423407E+02  0.51143661535E+02  0.23222615472E+03  0.27270918131E+03  0.12509000000E+03 0.  0.
         25    1    3    3    0    0  0.54592324296E+02 -0.32270956307E+01  0.65044101505E+02  0.15122492936E+03  0.12509000000E+03 0.  0.
         25    1    3    3    0    0 -0.79219008893E+01 -0.47916565904E+02  0.58158890634E+02  0.14624882380E+03  0.12509000000E+03 0.  0.
<mgrwt>
<rscale>  2 0.44584605E+03</rscale>
<asrwt>0</asrwt>
<pdfrwt beam="1">  1       21 0.68059711E-01 0.44584605E+03</pdfrwt>
<pdfrwt beam="2">  1       21 0.15790720E-01 0.44584605E+03</pdfrwt>
<totfact> 0.65140954E+04</totfact>
</mgrwt>
</event>
<event>
 6    0  0.3472812E-005  0.4575849E+03  0.7546771E-02  0.1025484E+00
         21   -1    0    0  502  501  0.00000000000E+00  0.00000000000E+00  0.19578943170E+03  0.19578943170E+03  0.00000000000E+00 0.  1.
         21   -1    0    0  501  502 -0.00000000000E+00 -0.00000000000E+00 -0.26735859091E+03  0.26735859091E+03  0.00000000000E+00 0.  1.
      99926    2    1    2    0    0  0.14210854715E-13  0.00000000000E+00 -0.71569159205E+02  0.46314802261E+03  0.45758490611E+03 0.  0.
         25    1    3    3    0    0  0.82538896848E+02  0.19974948892E+02 -0.66092583804E+02  0.16500729017E+03  0.12509000000E+03 0.  0.
         25    1    3    3    0    0  0.42493272675E+01 -0.44816228655E+02  0.37263154205E+02  0.13806738172E+03  0.12509000000E+03 0.  0.
         25    1    3    3    0    0 -0.86788224115E+02  0.24841279763E+02 -0.42739729606E+02  0.16007335072E+03  0.12509000000E+03 0.  0.
<mgrwt>
<rscale>  2 0.45758491E+03</rscale>
<asrwt>0</asrwt>
<pdfrwt beam="1">  1       21 0.28792564E-01 0.45758491E+03</pdfrwt>
<pdfrwt beam="2">  1       21 0.39317440E-01 0.45758491E+03</pdfrwt>
<totfact> 0.66568892E+04</totfact>
</mgrwt>
</event>
<event>
 6    0  0.3472812E-005  0.5209871E+03  0.7546771E-02  0.1008442E+00
         21   -1    0    0  502  501  0.00000000000E+00  0.00000000000E+00  0.15474528018E+03  0.15474528018E+03  0.00000000000E+00 0. -1.
         21   -1    0    0  501  502 -0.00000000000E+00 -0.00000000000E+00 -0.43850709054E+03  0.43850709054E+03  0.00000000000E+00 0. -1.
      99926    2    1    2    0    0  0.71054273576E-14  0.00000000000E+00 -0.28376181035E+03  0.59325237072E+03  0.52098714989E+03 0.  0.
         25    1    3    3    0    0 -0.10866622832E+03  0.90636428989E+00 -0.17583835062E+02  0.16663093959E+03  0.12509000000E+03 0.  0.
         25    1    3    3    0    0  0.75076758707E+02  0.21876473122E+02 -0.21825435815E+02  0.14912731984E+03  0.12509000000E+03 0.  0.
         25    1    3    3    0    0  0.33589469616E+02 -0.22782837412E+02 -0.24435253948E+03  0.27749411129E+03  0.12509000000E+03 0.  0.
<mgrwt>
<rscale>  2 0.52098715E+03</rscale>
<asrwt>0</asrwt>
<pdfrwt beam="1">  1       21 0.22756659E-01 0.52098715E+03</pdfrwt>
<pdfrwt beam="2">  1       21 0.64486336E-01 0.52098715E+03</pdfrwt>
<totfact> 0.36178101E+04</totfact>
</mgrwt>
</event>
<event>
 6    0  0.3472812E-005  0.5042866E+03  0.7546771E-02  0.1012666E+00
         21   -1    0    0  502  501  0.00000000000E+00  0.00000000000E+00  0.12366401946E+03  0.12366401946E+03  0.00000000000E+00 0. -1.
         21   -1    0    0  501  502 -0.00000000000E+00 -0.00000000000E+00 -0.51410467946E+03  0.51410467946E+03  0.00000000000E+00 0. -1.
      99926    2    1    2    0    0  0.00000000000E+00  0.00000000000E+00 -0.39044066000E+03  0.63776869892E+03  0.50428662915E+03 0.  0.
         25    1    3    3    0    0  0.85793528713E+01 -0.47431630235E+02 -0.30722855265E+03  0.33520181459E+03  0.12509000000E+03 0.  0.
         25    1    3    3    0    0 -0.12715991147E+02 -0.38520709217E+02 -0.72969640716E+02  0.15039154908E+03  0.12509000000E+03 0.  0.
         25    1    3    3    0    0  0.41366382761E+01  0.85952339452E+02 -0.10242466628E+02  0.15217533524E+03  0.12509000000E+03 0.  0.
<mgrwt>
<rscale>  2 0.50428663E+03</rscale>
<asrwt>0</asrwt>
<pdfrwt beam="1">  1       21 0.18185885E-01 0.50428663E+03</pdfrwt>
<pdfrwt beam="2">  1       21 0.75603631E-01 0.50428663E+03</pdfrwt>
<totfact> 0.38912869E+04</totfact>
</mgrwt>
</event>
<event>
 6    0  0.3472812E-005  0.4705706E+03  0.7546771E-02  0.1021759E+00
         21   -1    0    0  502  501  0.00000000000E+00  0.00000000000E+00  0.44593117577E+02  0.44593117577E+02  0.00000000000E+00 0. -1.
         21   -1    0    0  501  502 -0.00000000000E+00 -0.00000000000E+00 -0.12414286377E+04  0.12414286377E+04  0.00000000000E+00 0. -1.
      99926    2    1    2    0    0 -0.10658141036E-13  0.00000000000E+00 -0.11968355202E+04  0.12860217553E+04  0.47057060345E+03 0.  0.
         25    1    3    3    0    0  0.19464263319E+02 -0.15284972317E+02 -0.65023103714E+03  0.66261632766E+03  0.12509000000E+03 0.  0.
         25    1    3    3    0    0 -0.76140180245E+02  0.35664241217E+02 -0.36435685485E+03  0.39430025479E+03  0.12509000000E+03 0.  0.
         25    1    3    3    0    0  0.56675916925E+02 -0.20379268900E+02 -0.18224762817E+03  0.22910517287E+03  0.12509000000E+03 0.  0.
<mgrwt>
<rscale>  2 0.47057060E+03</rscale>
<asrwt>0</asrwt>
<pdfrwt beam="1">  1       21 0.65578120E-02 0.47057060E+03</pdfrwt>
<pdfrwt beam="2">  1       21 0.18256302E+00 0.47057060E+03</pdfrwt>
<totfact> 0.26201705E+04</totfact>
</mgrwt>
</event>
<event>
 6    0  0.3472812E-005  0.4521489E+03  0.7546771E-02  0.1027083E+00
         21   -1    0    0  502  501  0.00000000000E+00  0.00000000000E+00  0.40526931182E+02  0.40526931182E+02  0.00000000000E+00 0.  1.
         21   -1    0    0  501  502 -0.00000000000E+00 -0.00000000000E+00 -0.12611280076E+04  0.12611280076E+04  0.00000000000E+00 0.  1.
      99926    2    1    2    0    0 -0.71054273576E-14  0.00000000000E+00 -0.12206010764E+04  0.13016549387E+04  0.45214886033E+03 0.  0.
         25    1    3    3    0    0  0.33788608312E+02 -0.34825806561E+01 -0.36184887428E+03  0.38436429899E+03  0.12509000000E+03 0.  0.
         25    1    3    3    0    0 -0.92925491977E+02 -0.61175834688E+02 -0.50347367802E+03  0.53057599113E+03  0.12509000000E+03 0.  0.
         25    1    3    3    0    0  0.59136883665E+02  0.64658415344E+02 -0.35527852407E+03  0.38671464861E+03  0.12509000000E+03 0.  0.
<mgrwt>
<rscale>  2 0.45214886E+03</rscale>
<asrwt>0</asrwt>
<pdfrwt beam="1">  1       21 0.59598421E-02 0.45214886E+03</pdfrwt>
<pdfrwt beam="2">  1       21 0.18546002E+00 0.45214886E+03</pdfrwt>
<totfact> 0.29720204E+04</totfact>
</mgrwt>
</event>
<event>
 6    0  0.3472812E-005  0.5129081E+03  0.7546771E-02  0.1010464E+00
         21   -1    0    0  502  501  0.00000000000E+00  0.00000000000E+00  0.98697179914E+03  0.98697179914E+03  0.00000000000E+00 0.  1.
         21   -1    0    0  501  502 -0.00000000000E+00 -0.00000000000E+00 -0.66636846058E+02  0.66636846058E+02  0.00000000000E+00 0.  1.
      99926    2    1    2    0    0 -0.35527136788E-14  0.62172489379E-14  0.92033495308E+03  0.10536086452E+04  0.51290813151E+03 0.  0.
         25    1    3    3    0    0  0.18116102154E+02 -0.62388984517E+01  0.68290701571E+02  0.14379932209E+03  0.12509000000E+03 0.  0.
         25    1    3    3    0    0  0.71595330951E+02 -0.42353522648E+02  0.31422961829E+03  0.34829222416E+03  0.12509000000E+03 0.  0.
         25    1    3    3    0    0 -0.89711433105E+02  0.48592421100E+02  0.53781463322E+03  0.56151709895E+03  0.12509000000E+03 0.  0.
<mgrwt>
<rscale>  2 0.51290813E+03</rscale>
<asrwt>0</asrwt>
<pdfrwt beam="1">  1       21 0.14514290E+00 0.51290813E+03</pdfrwt>
<pdfrwt beam="2">  1       21 0.97995368E-02 0.51290813E+03</pdfrwt>
<totfact> 0.24207145E+04</totfact>
</mgrwt>
</event>
<event>
 6    0  0.3472812E-005  0.4552132E+03  0.7546771E-02  0.1026179E+00
         21   -1    0    0  502  501  0.00000000000E+00  0.00000000000E+00  0.48092019087E+03  0.48092019087E+03  0.00000000000E+00 0.  1.
         21   -1    0    0  501  502 -0.00000000000E+00 -0.00000000000E+00 -0.10772007436E+03  0.10772007436E+03  0.00000000000E+00 0.  1.
      99926    2    1    2    0    0  0.00000000000E+00  0.00000000000E+00  0.37320011651E+03  0.58864026524E+03  0.45521317522E+03 0.  0.
         25    1    3    3    0    0 -0.32238590157E+02  0.76295220638E+02  0.11742828066E+03  0.19051823164E+03  0.12509000000E+03 0.  0.
         25    1    3    3    0    0  0.47058255276E+02 -0.86423912193E+02  0.21047774976E+03  0.26387869037E+03  0.12509000000E+03 0.  0.
         25    1    3    3    0    0 -0.14819665119E+02  0.10128691555E+02  0.45294086096E+02  0.13424334323E+03  0.12509000000E+03 0.  0.
<mgrwt>
<rscale>  2 0.45521318E+03</rscale>
<asrwt>0</asrwt>
<pdfrwt beam="1">  1       21 0.70723557E-01 0.45521318E+03</pdfrwt>
<pdfrwt beam="2">  1       21 0.15841188E-01 0.45521318E+03</pdfrwt>
<totfact> 0.59283043E+04</totfact>
</mgrwt>
</event>
