<event>
 7    0  0.4714446E-002  0.4648881E+03  0.7546771E-02  0.1023373E+00
         21   -1    0    0  502  501  0.00000000000E+00  0.00000000000E+00  0.50814344483E+03  0.50814344483E+03  0.00000000000E+00 0.  1.
         21   -1    0    0  501  502 -0.00000000000E+00 -0.00000000000E+00 -0.10632871122E+03  0.10632871122E+03  0.00000000000E+00 0.  1.
      99926    2    1    2    0    0 -0.88817841970E-15  0.00000000000E+00  0.40181473361E+03  0.61447215606E+03  0.46488810527E+03 0.  0.
      99925    2    3    3    0    0 -0.56126309000E+01 -0.47827970876E+02  0.10211803373E+03  0.28616645028E+03  0.26295271064E+03 0.  0.
         25    1    4    4    0    0 -0.10136715366E+02  0.14115719434E+01  0.82598768185E+02  0.15024916020E+03  0.12509000000E+03 0.  0.
         25    1    3    3    0    0  0.56126309000E+01  0.47827970876E+02  0.29969669988E+03  0.32830570577E+03  0.12509000000E+03 0.  0.
         25    1    4    4    0    0  0.45240844661E+01 -0.49239542819E+02  0.19519265543E+02  0.13591729009E+03  0.12509000000E+03 0.  0.
<mgrwt>
<rscale>  2 0.46488811E+03</rscale>
<asrwt>0</asrwt>
<pdfrwt beam="1">  1       21 0.74726976E-01 0.46488811E+03</pdfrwt>
<pdfrwt beam="2">  1       21 0.15636575E-01 0.46488811E+03</pdfrwt>
<totfact> 0.53494292E+04</totfact>
</mgrwt>
</event>
<event>
 7    0  0.4714446E-002  0.4564648E+03  0.7546771E-02  0.1025812E+00
         21   -1    0    0  502  501  0.00000000000E+00  0.00000000000E+00  0.32768628365E+03  0.32768628365E+03  0.00000000000E+00 0. -1.
         21   -1    0    0  501  502 -0.00000000000E+00 -0.00000000000E+00 -0.15896307952E+03  0.15896307952E+03  0.00000000000E+00 0. -1.
      99926    2    1    2    0    0 -0.88817841970E-15 -0.35527136788E-14  0.16872320412E+03  0.48664936317E+03  0.45646476651E+03 0.  0.
      99925    2    3    3    0    0 -0.44163008373E+01  0.12823980181E+02 -0.14879351957E+02  0.26407046732E+03  0.26330183899E+03 0.  0.
         25    1    3    3    0    0  0.44163008373E+01 -0.12823980181E+02  0.18360255608E+03  0.22257889585E+03  0.12509000000E+03 0.  0.
         25    1    4    4    0    0  0.15896485262E+02  0.39386040339E+02  0.89776978182E+01  0.13240870657E+03  0.12509000000E+03 0.  0.
         25    1    4    4    0    0 -0.20312786100E+02 -0.26562060158E+02 -0.23857049775E+02  0.13166176075E+03  0.12509000000E+03 0.  0.
<mgrwt>
<rscale>  2 0.45646477E+03</rscale>
<asrwt>0</asrwt>
<pdfrwt beam="1">  1       21 0.48189159E-01 0.45646477E+03</pdfrwt>
<pdfrwt beam="2">  1       21 0.23376924E-01 0.45646477E+03</pdfrwt>
<totfact> 0.65454748E+04</totfact>
</mgrwt>
</event>
<event>
 7    0  0.4714446E-002  0.4749818E+03  0.7546771E-02  0.1020524E+00
         21   -1    0    0  502  501  0.00000000000E+00  0.00000000000E+00  0.32581088077E+02  0.32581088077E+02  0.00000000000E+00 0.  1.
         21   -1    0    0  501  502 -0.00000000000E+00 -0.00000000000E+00 -0.17311244695E+04  0.17311244695E+04  0.00000000000E+00 0.  1.
      99926    2    1    2    0    0  0.14210854715E-13  0.35527136788E-14 -0.16985433814E+04  0.17637055576E+04  0.47498176307E+03 0.  0.
      99925    2    3    3    0    0  0.12668543444E+03 -0.17163039202E+02 -0.94454678665E+03  0.98878482470E+03  0.26302666818E+03 0.  0.
         25    1    4    4    0    0  0.85181128311E+02  0.26289466984E+02 -0.48536200805E+03  0.50908815313E+03  0.12509000000E+03 0.  0.
         25    1    4    4    0    0  0.41504306129E+02 -0.43452506186E+02 -0.45918477859E+03  0.47969667157E+03  0.12509000000E+03 0.  0.
         25    1    3    3    0    0 -0.12668543444E+03  0.17163039202E+02 -0.75399659479E+03  0.77492073290E+03  0.12509000000E+03 0.  0.
<mgrwt>
<rscale>  2 0.47498176E+03</rscale>
<asrwt>0</asrwt>
<pdfrwt beam="1">  1       21 0.47913353E-02 0.47498176E+03</pdfrwt>
<pdfrwt beam="2">  1       21 0.25457719E+00 0.47498176E+03</pdfrwt>
<totfact> 0.15431200E+04</totfact>
</mgrwt>
</event>
<event>
 7    0  0.4714446E-002  0.4572779E+03  0.7546771E-02  0.1025574E+00
         21   -1    0    0  502  501  0.00000000000E+00  0.00000000000E+00  0.48611385941E+03  0.48611385941E+03  0.00000000000E+00 0.  1.
         21   -1    0    0  501  502 -0.00000000000E+00 -0.00000000000E+00 -0.10753809735E+03  0.10753809735E+03  0.00000000000E+00 0.  1.
      99926    2    1    2    0    0  0.00000000000E+00  0.00000000000E+00  0.37857576206E+03  0.59365195676E+03  0.45727785660E+03 0.  0.
      99925    2    3    3    0    0  0.10220450096E+02  0.11213841840E+03  0.26979063931E+03  0.39324937814E+03  0.26301825387E+03 0.  0.
         25    1    3    3    0    0 -0.10220450096E+02 -0.11213841840E+03  0.10878512275E+03  0.20040257861E+03  0.12509000000E+03 0.  0.
         25    1    4    4    0    0  0.43327676772E+02  0.42323366601E+02  0.12599637721E+03  0.18759304386E+03  0.12509000000E+03 0.  0.
         25    1    4    4    0    0 -0.33107226676E+02  0.69815051803E+02  0.14379426211E+03  0.20565633429E+03  0.12509000000E+03 0.  0.
<mgrwt>
<rscale>  2 0.45727786E+03</rscale>
<asrwt>0</asrwt>
<pdfrwt beam="1">  1       21 0.71487331E-01 0.45727786E+03</pdfrwt>
<pdfrwt beam="2">  1       21 0.15814426E-01 0.45727786E+03</pdfrwt>
<totfact> 0.58019214E+04</totfact>
</mgrwt>
</event>
<event>
 7    0  0.4714446E-002  0.4547846E+03  0.7546771E-02  0.1026305E+00
         21   -1    0    0  502  501  0.00000000000E+00  0.00000000000E+00  0.47218628985E+03  0.47218628985E+03  0.00000000000E+00 0.  1.
         21   -1    0    0  501  502 -0.00000000000E+00 -0.00000000000E+00 -0.10950607607E+03  0.10950607607E+03  0.00000000000E+00 0.  1.
      99926    2    1    2    0    0  0.00000000000E+00  0.00000000000E+00  0.36268021378E+03  0.58169236592E+03  0.45478464256E+03 0.  0.
      99925    2    3    3    0    0 -0.46735741957E+02  0.43330236039E+02  0.34761646930E+03  0.44049688643E+03  0.26294211966E+03 0.  0.
         25    1    3    3    0    0  0.46735741957E+02 -0.43330236039E+02  0.15063744472E+02  0.14119547949E+03  0.12509000000E+03 0.  0.
         25    1    4    4    0    0 -0.37025414323E+02  0.17475083793E+02  0.11428250264E+03  0.17431080967E+03  0.12509000000E+03 0.  0.
         25    1    4    4    0    0 -0.97103276346E+01  0.25855152245E+02  0.23333396666E+03  0.26618607676E+03  0.12509000000E+03 0.  0.
<mgrwt>
<rscale>  2 0.45478464E+03</rscale>
<asrwt>0</asrwt>
<pdfrwt beam="1">  1       21 0.69439159E-01 0.45478464E+03</pdfrwt>
<pdfrwt beam="2">  1       21 0.16103835E-01 0.45478464E+03</pdfrwt>
<totfact> 0.59921490E+04</totfact>
</mgrwt>
</event>
<event>
 6    0  0.4714446E-002  0.4541779E+03  0.7546771E-02  0.1026483E+00
         21   -1    0    0  502  501  0.00000000000E+00  0.00000000000E+00  0.68814027493E+03  0.68814027493E+03  0.00000000000E+00 0.  1.
         21   -1    0    0  501  502 -0.00000000000E+00 -0.00000000000E+00 -0.74940220733E+02  0.74940220733E+02  0.00000000000E+00 0.  1.
      99926    2    1    2    0    0  0.00000000000E+00 -0.35527136788E-14  0.61320005420E+03  0.76308049567E+03  0.45417786868E+03 0.  0.
         25    1    3    3    0    0 -0.36483072947E+02 -0.30564663673E+02  0.10175625815E+03  0.16812809833E+03  0.12509000000E+03 0.  0.
         25    1    3    3    0    0 -0.40571893434E+02  0.49379594407E+02  0.15623217072E+03  0.21009622116E+03  0.12509000000E+03 0.  0.
         25    1    3    3    0    0  0.77054966381E+02 -0.18814930733E+02  0.35521162533E+03  0.38485617617E+03  0.12509000000E+03 0.  0.
<mgrwt>
<rscale>  2 0.45417787E+03</rscale>
<asrwt>0</asrwt>
<pdfrwt beam="1">  1       21 0.10119710E+00 0.45417787E+03</pdfrwt>
<pdfrwt beam="2">  1       21 0.11020621E-01 0.45417787E+03</pdfrwt>
<totfact> 0.49923573E+04</totfact>
</mgrwt>
</event>
<event>
 7    0  0.4714446E-002  0.4313586E+03  0.7546771E-02  0.1033432E+00
         21   -1    0    0  502  501  0.00000000000E+00  0.00000000000E+00  0.21360611783E+03  0.21360611783E+03  0.00000000000E+00 0.  1.
         21   -1    0    0  501  502 -0.00000000000E+00 -0.00000000000E+00 -0.21777258215E+03  0.21777258215E+03  0.00000000000E+00 0.  1.
      99926    2    1    2    0    0  0.00000000000E+00 -0.71054273576E-14 -0.41664643165E+01  0.43137869998E+03  0.43135857865E+03 0.  0.
      99925    2    3    3    0    0 -0.66566615105E+02 -0.59174872577E+02 -0.83311231034E+01  0.27776349151E+03  0.26296457901E+03 0.  0.
         25    1    4    4    0    0  0.14219331685E+01 -0.41794265113E+02  0.13883998143E+02  0.13262373843E+03  0.12509000000E+03 0.  0.
         25    1    3    3    0    0  0.66566615105E+02  0.59174872577E+02  0.41646587868E+01  0.15361520847E+03  0.12509000000E+03 0.  0.
         25    1    4    4    0    0 -0.67988548273E+02 -0.17380607464E+02 -0.22215121246E+02  0.14513975308E+03  0.12509000000E+03 0.  0.
<mgrwt>
<rscale>  2 0.43135858E+03</rscale>
<asrwt>0</asrwt>
<pdfrwt beam="1">  1       21 0.31412664E-01 0.43135858E+03</pdfrwt>
<pdfrwt beam="2">  1       21 0.32025380E-01 0.43135858E+03</pdfrwt>
<totfact> 0.85302827E+04</totfact>
</mgrwt>
</event>
<event>
 7    0  0.4714446E-002  0.4670630E+03  0.7546771E-02  0.1022752E+00
         21   -1    0    0  502  501  0.00000000000E+00  0.00000000000E+00  0.17659506457E+03  0.17659506457E+03  0.00000000000E+00 0.  1.
         21   -1    0    0  501  502 -0.00000000000E+00 -0.00000000000E+00 -0.30882488336E+03  0.30882488336E+03  0.00000000000E+00 0.  1.
      99926    2    1    2    0    0 -0.71054273576E-14 -0.14210854715E-13 -0.13222981879E+03  0.48541994793E+03  0.46706295172E+03 0.  0.
      99925    2    3    3    0    0  0.37664195038E+02  0.11783849741E+03 -0.70056743599E+02  0.29882546130E+03  0.26283874512E+03 0.  0.
         25    1    4    4    0    0  0.69420734969E+01  0.64426605233E+02 -0.74397201672E+02  0.15931550949E+03  0.12509000000E+03 0.  0.
         25    1    4    4    0    0  0.30722121542E+02  0.53411892182E+02  0.43404580724E+01  0.13950995181E+03  0.12509000000E+03 0.  0.
         25    1    3    3    0    0 -0.37664195038E+02 -0.11783849741E+03 -0.62173075191E+02  0.18659448663E+03  0.12509000000E+03 0.  0.
<mgrwt>
<rscale>  2 0.46706295E+03</rscale>
<asrwt>0</asrwt>
<pdfrwt beam="1">  1       21 0.25969863E-01 0.46706295E+03</pdfrwt>
<pdfrwt beam="2">  1       21 0.45415424E-01 0.46706295E+03</pdfrwt>
<totfact> 0.60322062E+04</totfact>
</mgrwt>
</event>
<event>
 7    0  0.4714446E-002  0.4520468E+03  0.7546771E-02  0.1027113E+00
         21   -1    0    0  502  501  0.00000000000E+00  0.00000000000E+00  0.12629119497E+03  0.12629119497E+03  0.00000000000E+00 0.  1.
         21   -1    0    0  501  502 -0.00000000000E+00 -0.00000000000E+00 -0.40451423141E+03  0.40451423141E+03  0.00000000000E+00 0.  1.
      99926    2    1    2    0    0 -0.31086244690E-14  0.00000000000E+00 -0.27822303644E+03  0.53080542638E+03  0.45204683680E+03 0.  0.
      99925    2    3    3    0    0  0.28645165864E+01  0.65634793384E+02 -0.27962506049E+03  0.38950572599E+03  0.26307490296E+03 0.  0.
         25    1    4    4    0    0  0.20724901985E+02  0.65960204239E+02 -0.12551000420E+03  0.19021182760E+03  0.12509000000E+03 0.  0.
         25    1    4    4    0    0 -0.17860385398E+02 -0.32541085515E+00 -0.15411505630E+03  0.19929389839E+03  0.12509000000E+03 0.  0.
         25    1    3    3    0    0 -0.28645165864E+01 -0.65634793384E+02  0.14020240523E+01  0.14129970039E+03  0.12509000000E+03 0.  0.
<mgrwt>
<rscale>  2 0.45204684E+03</rscale>
<asrwt>0</asrwt>
<pdfrwt beam="1">  1       21 0.18572235E-01 0.45204684E+03</pdfrwt>
<pdfrwt beam="2">  1       21 0.59487386E-01 0.45204684E+03</pdfrwt>
<totfact> 0.64651112E+04</totfact>
</mgrwt>
</event>
<event>
 7    0  0.4714446E-002  0.4567194E+03  0.7546771E-02  0.1025737E+00
         21   -1    0    0  502  501  0.00000000000E+00  0.00000000000E+00  0.10927798285E+03  0.10927798285E+03  0.00000000000E+00 0. -1.
         21   -1    0    0  501  502 -0.00000000000E+00 -0.00000000000E+00 -0.47720636203E+03  0.47720636203E+03  0.00000000000E+00 0. -1.
      99926    2    1    2    0    0  0.00000000000E+00  0.88817841970E-15 -0.36792837918E+03  0.58648434488E+03  0.45671938276E+03 0.  0.
      99925    2    3    3    0    0  0.78564715602E+02  0.70905841665E+01 -0.33812689123E+03  0.43562571004E+03  0.26309175919E+03 0.  0.
         25    1    3    3    0    0 -0.78564715602E+02 -0.70905841665E+01 -0.29801487948E+02  0.15085863484E+03  0.12509000000E+03 0.  0.
         25    1    4    4    0    0  0.76985643703E+02 -0.10254649831E+02 -0.16224574107E+03  0.21909617928E+03  0.12509000000E+03 0.  0.
         25    1    4    4    0    0  0.15790718982E+01  0.17345233998E+02 -0.17588115017E+03  0.21652953077E+03  0.12509000000E+03 0.  0.
<mgrwt>
<rscale>  2 0.45671938E+03</rscale>
<asrwt>0</asrwt>
<pdfrwt beam="1">  1       21 0.16070292E-01 0.45671938E+03</pdfrwt>
<pdfrwt beam="2">  1       21 0.70177405E-01 0.45671938E+03</pdfrwt>
<totfact> 0.58715935E+04</totfact>
</mgrwt>
</event>
<event>
 7    0  0.4714446E-002  0.4580012E+03  0.7546771E-02  0.1025363E+00
         21   -1    0    0  502  501  0.00000000000E+00  0.00000000000E+00  0.53100736035E+02  0.53100736035E+02  0.00000000000E+00 0.  1.
         21   -1    0    0  501  502 -0.00000000000E+00 -0.00000000000E+00 -0.98758102785E+03  0.98758102785E+03  0.00000000000E+00 0.  1.
      99926    2    1    2    0    0  0.00000000000E+00  0.00000000000E+00 -0.93448029181E+03  0.10406817639E+04  0.45800122041E+03 0.  0.
      99925    2    3    3    0    0 -0.42106954061E+02  0.38524235116E+02 -0.81588269803E+03  0.85910530720E+03  0.26294531682E+03 0.  0.
         25    1    3    3    0    0  0.42106954061E+02 -0.38524235116E+02 -0.11859759378E+03  0.18157645669E+03  0.12509000000E+03 0.  0.
         25    1    4    4    0    0 -0.34555562624E+02  0.29872936429E+02 -0.53652352667E+03  0.55280329414E+03  0.12509000000E+03 0.  0.
         25    1    4    4    0    0 -0.75513914366E+01  0.86512986873E+01 -0.27935917136E+03  0.30630201306E+03  0.12509000000E+03 0.  0.
<mgrwt>
<rscale>  2 0.45800122E+03</rscale>
<asrwt>0</asrwt>
<pdfrwt beam="1">  1       21 0.78089323E-02 0.45800122E+03</pdfrwt>
<pdfrwt beam="2">  1       21 0.14523249E+00 0.45800122E+03</pdfrwt>
<totfact> 0.36752571E+04</totfact>
</mgrwt>
</event>
<event>
 7    0  0.4714446E-002  0.4595075E+03  0.7546771E-02  0.1024924E+00
         21   -1    0    0  502  501  0.00000000000E+00  0.00000000000E+00  0.13587587647E+03  0.13587587647E+03  0.00000000000E+00 0.  1.
         21   -1    0    0  501  502 -0.00000000000E+00 -0.00000000000E+00 -0.38849271410E+03  0.38849271410E+03  0.00000000000E+00 0.  1.
      99926    2    1    2    0    0 -0.71054273576E-14  0.00000000000E+00 -0.25261683763E+03  0.52436859057E+03  0.45950751040E+03 0.  0.
      99925    2    3    3    0    0  0.55880270455E+02  0.98507584382E+02 -0.12307213540E+03  0.31163475033E+03  0.26295079063E+03 0.  0.
         25    1    4    4    0    0  0.38120411742E+02  0.90048829646E+02 -0.56150534316E+02  0.16841124700E+03  0.12509000000E+03 0.  0.
         25    1    3    3    0    0 -0.55880270455E+02 -0.98507584382E+02 -0.12954470223E+03  0.21273384024E+03  0.12509000000E+03 0.  0.
         25    1    4    4    0    0  0.17759858713E+02  0.84587547356E+01 -0.66921601087E+02  0.14322350333E+03  0.12509000000E+03 0.  0.
<mgrwt>
<rscale>  2 0.45950751E+03</rscale>
<asrwt>0</asrwt>
<pdfrwt beam="1">  1       21 0.19981747E-01 0.45950751E+03</pdfrwt>
<pdfrwt beam="2">  1       21 0.57131281E-01 0.45950751E+03</pdfrwt>
<totfact> 0.61366582E+04</totfact>
</mgrwt>
</event>
<event>
 7    0  0.4714446E-002  0.4552534E+03  0.7546771E-02  0.1026167E+00
         21   -1    0    0  502  501  0.00000000000E+00  0.00000000000E+00  0.51104601748E+02  0.51104601748E+02  0.00000000000E+00 0. -1.
         21   -1    0    0  501  502 -0.00000000000E+00 -0.00000000000E+00 -0.10138794859E+04  0.10138794859E+04  0.00000000000E+00 0. -1.
      99926    2    1    2    0    0  0.71054273576E-14  0.00000000000E+00 -0.96277488413E+03  0.10649840876E+04  0.45525336834E+03 0.  0.
      99925    2    3    3    0    0  0.50103365662E+02  0.29322633865E+02 -0.37694125362E+03  0.46313799862E+03  0.26275831668E+03 0.  0.
         25    1    4    4    0    0 -0.85344065399E+00  0.22946834487E+02 -0.13167354359E+03  0.18306478568E+03  0.12509000000E+03 0.  0.
         25    1    3    3    0    0 -0.50103365662E+02 -0.29322633865E+02 -0.58583363051E+03  0.60184608900E+03  0.12509000000E+03 0.  0.
         25    1    4    4    0    0  0.50956806316E+02  0.63757993787E+01 -0.24526771003E+03  0.28007321295E+03  0.12509000000E+03 0.  0.
<mgrwt>
<rscale>  2 0.45525337E+03</rscale>
<asrwt>0</asrwt>
<pdfrwt beam="1">  1       21 0.75153829E-02 0.45525337E+03</pdfrwt>
<pdfrwt beam="2">  1       21 0.14909992E+00 0.45525337E+03</pdfrwt>
<totfact> 0.36659801E+04</totfact>
</mgrwt>
</event>
<event>
 6    0  0.4714446E-002  0.4558352E+03  0.7546771E-02  0.1025996E+00
         21   -1    0    0  502  501  0.00000000000E+00  0.00000000000E+00  0.96228403404E+02  0.96228403404E+02  0.00000000000E+00 0. -1.
         21   -1    0    0  501  502 -0.00000000000E+00 -0.00000000000E+00 -0.53982440950E+03  0.53982440950E+03  0.00000000000E+00 0. -1.
      99926    2    1    2    0    0  0.00000000000E+00  0.00000000000E+00 -0.44359600610E+03  0.63605281291E+03  0.45583523798E+03 0.  0.
         25    1    3    3    0    0  0.85073531701E+02 -0.58377158415E+02 -0.90430915516E+02  0.18566275071E+03  0.12509000000E+03 0.  0.
         25    1    3    3    0    0 -0.16591779276E+02  0.51414245588E+02 -0.15937723087E+03  0.20968386110E+03  0.12509000000E+03 0.  0.
         25    1    3    3    0    0 -0.68481752425E+02  0.69629128268E+01 -0.19378785972E+03  0.24070620109E+03  0.12509000000E+03 0.  0.
<mgrwt>
<rscale>  2 0.45583524E+03</rscale>
<asrwt>0</asrwt>
<pdfrwt beam="1">  1       21 0.14151236E-01 0.45583524E+03</pdfrwt>
<pdfrwt beam="2">  1       21 0.79385940E-01 0.45583524E+03</pdfrwt>
<totfact> 0.56141216E+04</totfact>
</mgrwt>
</event>
<event>
 7    0  0.4714446E-002  0.4524163E+03  0.7546771E-02  0.1027004E+00
         21   -1    0    0  502  501  0.00000000000E+00  0.00000000000E+00  0.17667741277E+04  0.17667741277E+04  0.00000000000E+00 0.  1.
         21   -1    0    0  501  502 -0.00000000000E+00 -0.00000000000E+00 -0.28962456943E+02  0.28962456943E+02  0.00000000000E+00 0.  1.
      99926    2    1    2    0    0  0.00000000000E+00  0.00000000000E+00  0.17378116707E+04  0.17957365846E+04  0.45241626673E+03 0.  0.
      99925    2    3    3    0    0 -0.15166776736E+02 -0.77587248175E+01  0.15298312676E+04  0.15524392663E+04  0.26342691435E+03 0.  0.
         25    1    4    4    0    0 -0.17252072375E+02 -0.13431150705E+02  0.99881052775E+03  0.10068505392E+04  0.12509000000E+03 0.  0.
         25    1    3    3    0    0  0.15166776736E+02  0.77587248175E+01  0.20798040312E+03  0.24329731834E+03  0.12509000000E+03 0.  0.
         25    1    4    4    0    0  0.20852956392E+01  0.56724258878E+01  0.53102073984E+03  0.54558872708E+03  0.12509000000E+03 0.  0.
<mgrwt>
<rscale>  2 0.45241627E+03</rscale>
<asrwt>0</asrwt>
<pdfrwt beam="1">  1       21 0.25981965E+00 0.45241627E+03</pdfrwt>
<pdfrwt beam="2">  1       21 0.42591860E-02 0.45241627E+03</pdfrwt>
<totfact> 0.17693785E+04</totfact>
</mgrwt>
</event>
<event>
 7    0  0.4714446E-002  0.4533914E+03  0.7546771E-02  0.1026715E+00
         21   -1    0    0  502  501  0.00000000000E+00  0.00000000000E+00  0.16085851079E+04  0.16085851079E+04  0.00000000000E+00 0. -1.
         21   -1    0    0  501  502 -0.00000000000E+00 -0.00000000000E+00 -0.31947918169E+02  0.31947918169E+02  0.00000000000E+00 0. -1.
      99926    2    1    2    0    0  0.00000000000E+00 -0.35527136788E-14  0.15766371898E+04  0.16405330261E+04  0.45339142204E+03 0.  0.
      99925    2    3    3    0    0 -0.69151348381E+02  0.98779190275E+01  0.13086709400E+04  0.13366697322E+04  0.26303395504E+03 0.  0.
         25    1    4    4    0    0 -0.19124179373E+02 -0.22440783048E+02  0.50213039352E+03  0.51831627717E+03  0.12509000000E+03 0.  0.
         25    1    3    3    0    0  0.69151348381E+02 -0.98779190275E+01  0.26796624973E+03  0.30386329387E+03  0.12509000000E+03 0.  0.
         25    1    4    4    0    0 -0.50027169009E+02  0.32318702076E+02  0.80654054651E+03  0.81835345506E+03  0.12509000000E+03 0.  0.
<mgrwt>
<rscale>  2 0.45339142E+03</rscale>
<asrwt>0</asrwt>
<pdfrwt beam="1">  1       21 0.23655658E+00 0.45339142E+03</pdfrwt>
<pdfrwt beam="2">  1       21 0.46982243E-02 0.45339142E+03</pdfrwt>
<totfact> 0.20787560E+04</totfact>
</mgrwt>
</event>
<event>
 7    0  0.4714446E-002  0.4611325E+03  0.7546771E-02  0.1024453E+00
         21   -1    0    0  502  501  0.00000000000E+00  0.00000000000E+00  0.23635660337E+03  0.23635660337E+03  0.00000000000E+00 0.  1.
         21   -1    0    0  501  502 -0.00000000000E+00 -0.00000000000E+00 -0.22491771631E+03  0.22491771631E+03  0.00000000000E+00 0.  1.
      99926    2    1    2    0    0  0.00000000000E+00  0.00000000000E+00  0.11438887060E+02  0.46127431968E+03  0.46113246455E+03 0.  0.
      99925    2    3    3    0    0 -0.16116672138E+02  0.10980552829E+03 -0.35316900319E+02  0.28763500122E+03  0.26300115839E+03 0.  0.
         25    1    4    4    0    0  0.30857577450E+02  0.56910413801E+02 -0.60623748164E+01  0.14097959346E+03  0.12509000000E+03 0.  0.
         25    1    4    4    0    0 -0.46974249588E+02  0.52895114486E+02 -0.29254525503E+02  0.14665540775E+03  0.12509000000E+03 0.  0.
         25    1    3    3    0    0  0.16116672138E+02 -0.10980552829E+03  0.46755787379E+02  0.17363931846E+03  0.12509000000E+03 0.  0.
<mgrwt>
<rscale>  2 0.46113246E+03</rscale>
<asrwt>0</asrwt>
<pdfrwt beam="1">  1       21 0.34758324E-01 0.46113246E+03</pdfrwt>
<pdfrwt beam="2">  1       21 0.33076135E-01 0.46113246E+03</pdfrwt>
<totfact> 0.64856535E+04</totfact>
</mgrwt>
</event>
<event>
 7    0  0.4714446E-002  0.4502723E+03  0.7546771E-02  0.1027641E+00
         21   -1    0    0  502  501  0.00000000000E+00  0.00000000000E+00  0.20659825311E+03  0.20659825311E+03  0.00000000000E+00 0. -1.
         21   -1    0    0  501  502 -0.00000000000E+00 -0.00000000000E+00 -0.24533743701E+03  0.24533743701E+03  0.00000000000E+00 0. -1.
      99926    2    1    2    0    0  0.00000000000E+00 -0.71054273576E-14 -0.38739183901E+02  0.45193569012E+03  0.45027229943E+03 0.  0.
      99925    2    3    3    0    0 -0.32329830492E+02  0.63578277715E+02 -0.10658972081E+03  0.29275460206E+03  0.26316624614E+03 0.  0.
         25    1    3    3    0    0  0.32329830492E+02 -0.63578277715E+02  0.67850536908E+02  0.15918108806E+03  0.12509000000E+03 0.  0.
         25    1    4    4    0    0 -0.44425957278E+01 -0.65733045650E+01 -0.63018688529E+02  0.14029186788E+03  0.12509000000E+03 0.  0.
         25    1    4    4    0    0 -0.27887234764E+02  0.70151582280E+02 -0.43571032280E+02  0.15246273418E+03  0.12509000000E+03 0.  0.
<mgrwt>
<rscale>  2 0.45027230E+03</rscale>
<asrwt>0</asrwt>
<pdfrwt beam="1">  1       21 0.30382096E-01 0.45027230E+03</pdfrwt>
<pdfrwt beam="2">  1       21 0.36079035E-01 0.45027230E+03</pdfrwt>
<totfact> 0.71427399E+04</totfact>
</mgrwt>
</event>
<event>
 7    0  0.4714446E-002  0.4561323E+03  0.7546771E-02  0.1025909E+00
         21   -1    0    0  502  501  0.00000000000E+00  0.00000000000E+00  0.92149328378E+02  0.92149328378E+02  0.00000000000E+00 0.  1.
         21   -1    0    0  501  502 -0.00000000000E+00 -0.00000000000E+00 -0.56445508987E+03  0.56445508987E+03  0.00000000000E+00 0.  1.
      99926    2    1    2    0    0  0.35527136788E-14 -0.14210854715E-13 -0.47230576149E+03  0.65660441825E+03  0.45613225026E+03 0.  0.
      99925    2    3    3    0    0 -0.29355312371E+02  0.11013555296E+03 -0.28977085698E+03  0.40769063025E+03  0.26315950686E+03 0.  0.
         25    1    3    3    0    0  0.29355312371E+02 -0.11013555296E+03 -0.18253490452E+03  0.24891378800E+03  0.12509000000E+03 0.  0.
         25    1    4    4    0    0 -0.25871269233E+02  0.70262538274E+02 -0.99546430074E+02  0.17653086613E+03  0.12509000000E+03 0.  0.
         25    1    4    4    0    0 -0.34840431383E+01  0.39873014685E+02 -0.19022442690E+03  0.23115976412E+03  0.12509000000E+03 0.  0.
<mgrwt>
<rscale>  2 0.45613225E+03</rscale>
<asrwt>0</asrwt>
<pdfrwt beam="1">  1       21 0.13551372E-01 0.45613225E+03</pdfrwt>
<pdfrwt beam="2">  1       21 0.83008102E-01 0.45613225E+03</pdfrwt>
<totfact> 0.54831302E+04</totfact>
</mgrwt>
</event>
<event>
 7    0  0.4714446E-002  0.4521080E+03  0.7546771E-02  0.1027095E+00
         21   -1    0    0  502  501  0.00000000000E+00  0.00000000000E+00  0.77468820644E+03  0.77468820644E+03  0.00000000000E+00 0. -1.
         21   -1    0    0  501  502 -0.00000000000E+00 -0.00000000000E+00 -0.65962556525E+02  0.65962556525E+02  0.00000000000E+00 0. -1.
      99926    2    1    2    0    0  0.00000000000E+00  0.00000000000E+00  0.70872564991E+03  0.84065076296E+03  0.45210801632E+03 0.  0.
      99925    2    3    3    0    0  0.90074672515E+02 -0.27061198282E+02  0.33964610446E+03  0.43976053603E+03  0.26302870127E+03 0.  0.
         25    1    3    3    0    0 -0.90074672515E+02  0.27061198282E+02  0.36907954545E+03  0.40089022693E+03  0.12509000000E+03 0.  0.
         25    1    4    4    0    0  0.31107346693E+02  0.24246972319E+02  0.14466653064E+03  0.19527287542E+03  0.12509000000E+03 0.  0.
         25    1    4    4    0    0  0.58967325822E+02 -0.51308170601E+02  0.19497957382E+03  0.24448766061E+03  0.12509000000E+03 0.  0.
<mgrwt>
<rscale>  2 0.45210802E+03</rscale>
<asrwt>0</asrwt>
<pdfrwt beam="1">  1       21 0.11392473E+00 0.45210802E+03</pdfrwt>
<pdfrwt beam="2">  1       21 0.97003764E-02 0.45210802E+03</pdfrwt>
<totfact> 0.46915968E+04</totfact>
</mgrwt>
</event>
<event>
 7    0  0.4714446E-002  0.4546158E+03  0.7546771E-02  0.1026354E+00
         21   -1    0    0  502  501  0.00000000000E+00  0.00000000000E+00  0.52560381990E+03  0.52560381990E+03  0.00000000000E+00 0.  1.
         21   -1    0    0  501  502 -0.00000000000E+00 -0.00000000000E+00 -0.98303863253E+02  0.98303863253E+02  0.00000000000E+00 0.  1.
      99926    2    1    2    0    0  0.00000000000E+00 -0.14210854715E-13  0.42729995665E+03  0.62390768316E+03  0.45461582039E+03 0.  0.
      99925    2    3    3    0    0  0.66045292613E+02  0.78328566338E+02  0.20436890168E+03  0.34851140803E+03  0.26305172224E+03 0.  0.
         25    1    4    4    0    0  0.33558855444E+02  0.24442339699E+02  0.52304982413E+02  0.14179895639E+03  0.12509000000E+03 0.  0.
         25    1    3    3    0    0 -0.66045292613E+02 -0.78328566338E+02  0.22293105497E+03  0.27539627512E+03  0.12509000000E+03 0.  0.
         25    1    4    4    0    0  0.32486437169E+02  0.53886226639E+02  0.15206391927E+03  0.20671245164E+03  0.12509000000E+03 0.  0.
<mgrwt>
<rscale>  2 0.45461582E+03</rscale>
<asrwt>0</asrwt>
<pdfrwt beam="1">  1       21 0.77294678E-01 0.45461582E+03</pdfrwt>
<pdfrwt beam="2">  1       21 0.14456451E-01 0.45461582E+03</pdfrwt>
<totfact> 0.57404228E+04</totfact>
</mgrwt>
</event>
<event>
 7    0  0.4714446E-002  0.4482848E+03  0.7546771E-02  0.1028235E+00
         21   -1    0    0  502  501  0.00000000000E+00  0.00000000000E+00  0.14467478728E+04  0.14467478728E+04  0.00000000000E+00 0. -1.
         21   -1    0    0  501  502 -0.00000000000E+00 -0.00000000000E+00 -0.34726039698E+02  0.34726039698E+02  0.00000000000E+00 0. -1.
      99926    2    1    2    0    0  0.00000000000E+00  0.71054273576E-14  0.14120218331E+04  0.14814739125E+04  0.44828483831E+03 0.  0.
      99925    2    3    3    0    0 -0.26075589153E+02 -0.63756467028E+02  0.11636200569E+04  0.11949503115E+04  0.26296347006E+03 0.  0.
         25    1    4    4    0    0  0.11550870938E+02 -0.26781110835E+02  0.42606714487E+03  0.44500715787E+03  0.12509000000E+03 0.  0.
         25    1    3    3    0    0  0.26075589153E+02  0.63756467028E+02  0.24840177624E+03  0.28652360108E+03  0.12509000000E+03 0.  0.
         25    1    4    4    0    0 -0.37626460091E+02 -0.36975356193E+02  0.73755291203E+03  0.74994315359E+03  0.12509000000E+03 0.  0.
<mgrwt>
<rscale>  2 0.44828484E+03</rscale>
<asrwt>0</asrwt>
<pdfrwt beam="1">  1       21 0.21275700E+00 0.44828484E+03</pdfrwt>
<pdfrwt beam="2">  1       21 0.51067715E-02 0.44828484E+03</pdfrwt>
<totfact> 0.25543513E+04</totfact>
</mgrwt>
</event>
<event>
 7    0  0.4714446E-002  0.4583868E+03  0.7546771E-02  0.1025250E+00
         21   -1    0    0  502  501  0.00000000000E+00  0.00000000000E+00  0.22185977359E+03  0.22185977359E+03  0.00000000000E+00 0.  1.
         21   -1    0    0  501  502 -0.00000000000E+00 -0.00000000000E+00 -0.23676940942E+03  0.23676940942E+03  0.00000000000E+00 0.  1.
      99926    2    1    2    0    0  0.00000000000E+00  0.71054273576E-14 -0.14909635828E+02  0.45862918301E+03  0.45838676930E+03 0.  0.
      99925    2    3    3    0    0  0.93068901920E+02  0.61549420501E+02  0.23454503706E+02  0.28667143538E+03  0.26302138021E+03 0.  0.
         25    1    4    4    0    0  0.52011786749E+02  0.31202162336E+02 -0.28514429180E+02  0.14191328925E+03  0.12509000000E+03 0.  0.
         25    1    3    3    0    0 -0.93068901920E+02 -0.61549420501E+02 -0.38364139533E+02  0.17195774763E+03  0.12509000000E+03 0.  0.
         25    1    4    4    0    0  0.41057115171E+02  0.30347258166E+02  0.51968932885E+02  0.14475814613E+03  0.12509000000E+03 0.  0.
<mgrwt>
<rscale>  2 0.45838677E+03</rscale>
<asrwt>0</asrwt>
<pdfrwt beam="1">  1       21 0.32626437E-01 0.45838677E+03</pdfrwt>
<pdfrwt beam="2">  1       21 0.34819031E-01 0.45838677E+03</pdfrwt>
<totfact> 0.66466402E+04</totfact>
</mgrwt>
</event>
<event>
 7    0  0.4714446E-002  0.4687091E+03  0.7546771E-02  0.1022285E+00
         21   -1    0    0  502  501  0.00000000000E+00  0.00000000000E+00  0.63257037426E+03  0.63257037426E+03  0.00000000000E+00 0. -1.
         21   -1    0    0  501  502 -0.00000000000E+00 -0.00000000000E+00 -0.86823642887E+02  0.86823642887E+02  0.00000000000E+00 0. -1.
      99926    2    1    2    0    0  0.00000000000E+00  0.00000000000E+00  0.54574673138E+03  0.71939401715E+03  0.46870913913E+03 0.  0.
      99925    2    3    3    0    0  0.42486563361E+02 -0.93785664826E+02  0.22867870858E+03  0.36333152520E+03  0.26289729259E+03 0.  0.
         25    1    3    3    0    0 -0.42486563361E+02  0.93785664826E+02  0.31706802280E+03  0.35606249195E+03  0.12509000000E+03 0.  0.
         25    1    4    4    0    0 -0.16036215849E+02 -0.42794854122E+02  0.12996649033E+03  0.18608427249E+03  0.12509000000E+03 0.  0.
         25    1    4    4    0    0  0.58522779210E+02 -0.50990810704E+02  0.98712218246E+02  0.17724725271E+03  0.12509000000E+03 0.  0.
<mgrwt>
<rscale>  2 0.46870914E+03</rscale>
<asrwt>0</asrwt>
<pdfrwt beam="1">  1       21 0.93025052E-01 0.46870914E+03</pdfrwt>
<pdfrwt beam="2">  1       21 0.12768183E-01 0.46870914E+03</pdfrwt>
<totfact> 0.46627356E+04</totfact>
</mgrwt>
</event>
<event>
 7    0  0.4714446E-002  0.4581477E+03  0.7546771E-02  0.1025320E+00
         21   -1    0    0  502  501  0.00000000000E+00  0.00000000000E+00  0.88205450675E+03  0.88205450675E+03  0.00000000000E+00 0.  1.
         21   -1    0    0  501  502 -0.00000000000E+00 -0.00000000000E+00 -0.59491590326E+02  0.59491590326E+02  0.00000000000E+00 0.  1.
      99926    2    1    2    0    0  0.00000000000E+00  0.14210854715E-13  0.82256291643E+03  0.94154609708E+03  0.45814768519E+03 0.  0.
      99925    2    3    3    0    0 -0.28777600588E+02 -0.11098334140E+03  0.47873463102E+03  0.55812615718E+03  0.26300666917E+03 0.  0.
         25    1    3    3    0    0  0.28777600588E+02  0.11098334140E+03  0.34382828541E+03  0.38341993990E+03  0.12509000000E+03 0.  0.
         25    1    4    4    0    0 -0.40571802152E+02 -0.34674667473E+02  0.27618932971E+03  0.30785785298E+03  0.12509000000E+03 0.  0.
         25    1    4    4    0    0  0.11794201565E+02 -0.76308673926E+02  0.20254530131E+03  0.25026830420E+03  0.12509000000E+03 0.  0.
<mgrwt>
<rscale>  2 0.45814769E+03</rscale>
<asrwt>0</asrwt>
<pdfrwt beam="1">  1       21 0.12971389E+00 0.45814769E+03</pdfrwt>
<pdfrwt beam="2">  1       21 0.87487638E-02 0.45814769E+03</pdfrwt>
<totfact> 0.40479340E+04</totfact>
</mgrwt>
</event>
<event>
 7    0  0.4714446E-002  0.4533261E+03  0.7546771E-02  0.1026735E+00
         21   -1    0    0  502  501  0.00000000000E+00  0.00000000000E+00  0.14882008045E+03  0.14882008045E+03  0.00000000000E+00 0. -1.
         21   -1    0    0  501  502 -0.00000000000E+00 -0.00000000000E+00 -0.34522314040E+03  0.34522314040E+03  0.00000000000E+00 0. -1.
      99926    2    1    2    0    0  0.00000000000E+00  0.35527136788E-14 -0.19640305995E+03  0.49404322085E+03  0.45332608806E+03 0.  0.
      99925    2    3    3    0    0  0.10663518337E+03 -0.19695640759E+02 -0.15240210747E+03  0.32274648266E+03  0.26302073893E+03 0.  0.
         25    1    3    3    0    0 -0.10663518337E+03  0.19695640759E+02 -0.44000952472E+02  0.17129673819E+03  0.12509000000E+03 0.  0.
         25    1    4    4    0    0  0.47191817428E+02  0.26720382400E+02 -0.54096670359E+02  0.14667993834E+03  0.12509000000E+03 0.  0.
         25    1    4    4    0    0  0.59443365943E+02 -0.46416023158E+02 -0.98305437116E+02  0.17606654431E+03  0.12509000000E+03 0.  0.
<mgrwt>
<rscale>  2 0.45332609E+03</rscale>
<asrwt>0</asrwt>
<pdfrwt beam="1">  1       21 0.21885306E-01 0.45332609E+03</pdfrwt>
<pdfrwt beam="2">  1       21 0.50768108E-01 0.45332609E+03</pdfrwt>
<totfact> 0.66571437E+04</totfact>
</mgrwt>
</event>
<event>
 7    0  0.4714446E-002  0.4529738E+03  0.7546771E-02  0.1026839E+00
         21   -1    0    0  502  501  0.00000000000E+00  0.00000000000E+00  0.37322218009E+03  0.37322218009E+03  0.00000000000E+00 0.  1.
         21   -1    0    0  501  502 -0.00000000000E+00 -0.00000000000E+00 -0.13744176619E+03  0.13744176619E+03  0.00000000000E+00 0.  1.
      99926    2    1    2    0    0  0.00000000000E+00  0.00000000000E+00  0.23578041390E+03  0.51066394627E+03  0.45297379885E+03 0.  0.
      99925    2    3    3    0    0  0.54639176922E+02 -0.87485102422E+02  0.19565604693E+03  0.34364132587E+03  0.26299997975E+03 0.  0.
         25    1    4    4    0    0  0.10404971472E+01 -0.68222575644E+02  0.12267395997E+03  0.18802077283E+03  0.12509000000E+03 0.  0.
         25    1    4    4    0    0  0.53598679774E+02 -0.19262526778E+02  0.72982086958E+02  0.15562055304E+03  0.12509000000E+03 0.  0.
         25    1    3    3    0    0 -0.54639176922E+02  0.87485102422E+02  0.40124366970E+02  0.16702262040E+03  0.12509000000E+03 0.  0.
<mgrwt>
<rscale>  2 0.45297380E+03</rscale>
<asrwt>0</asrwt>
<pdfrwt beam="1">  1       21 0.54885614E-01 0.45297380E+03</pdfrwt>
<pdfrwt beam="2">  1       21 0.20212025E-01 0.45297380E+03</pdfrwt>
<totfact> 0.65575905E+04</totfact>
</mgrwt>
</event>
<event>
 7    0  0.4714446E-002  0.4570783E+03  0.7546771E-02  0.1025632E+00
         21   -1    0    0  502  501  0.00000000000E+00  0.00000000000E+00  0.63351350715E+02  0.63351350715E+02  0.00000000000E+00 0.  1.
         21   -1    0    0  501  502 -0.00000000000E+00 -0.00000000000E+00 -0.82445178345E+03  0.82445178345E+03  0.00000000000E+00 0.  1.
      99926    2    1    2    0    0 -0.14210854715E-13 -0.14210854715E-13 -0.76110043273E+03  0.88780313416E+03  0.45707826061E+03 0.  0.
      99925    2    3    3    0    0  0.87862417815E+02  0.69940827903E+02 -0.42889184469E+03  0.51548394591E+03  0.26299041841E+03 0.  0.
         25    1    3    3    0    0 -0.87862417815E+02 -0.69940827903E+02 -0.33220858804E+03  0.37231918825E+03  0.12509000000E+03 0.  0.
         25    1    4    4    0    0  0.77475387075E+02  0.63309753172E+02 -0.23398006101E+03  0.28355729139E+03  0.12509000000E+03 0.  0.
         25    1    4    4    0    0  0.10387030740E+02  0.66310747309E+01 -0.19491178368E+03  0.23192665452E+03  0.12509000000E+03 0.  0.
<mgrwt>
<rscale>  2 0.45707826E+03</rscale>
<asrwt>0</asrwt>
<pdfrwt beam="1">  1       21 0.93163754E-02 0.45707826E+03</pdfrwt>
<pdfrwt beam="2">  1       21 0.12124291E+00 0.45707826E+03</pdfrwt>
<totfact> 0.43060168E+04</totfact>
</mgrwt>
</event>
<event>
 7    0  0.4714446E-002  0.4421024E+03  0.7546771E-02  0.1030104E+00
         21   -1    0    0  502  501  0.00000000000E+00  0.00000000000E+00  0.61243469836E+02  0.61243469836E+02  0.00000000000E+00 0. -1.
         21   -1    0    0  501  502 -0.00000000000E+00 -0.00000000000E+00 -0.79785876754E+03  0.79785876754E+03  0.00000000000E+00 0. -1.
      99926    2    1    2    0    0  0.00000000000E+00  0.00000000000E+00 -0.73661529771E+03  0.85910223738E+03  0.44210242869E+03 0.  0.
      99925    2    3    3    0    0 -0.77127213280E+02  0.60538954597E+02 -0.51177600829E+03  0.58375920366E+03  0.26314739814E+03 0.  0.
         25    1    4    4    0    0 -0.32741790828E+02  0.18097991236E+02 -0.32870022283E+03  0.35368192878E+03  0.12509000000E+03 0.  0.
         25    1    3    3    0    0  0.77127213280E+02 -0.60538954597E+02 -0.22483928942E+03  0.27534303372E+03  0.12509000000E+03 0.  0.
         25    1    4    4    0    0 -0.44385422452E+02  0.42440963361E+02 -0.18307578546E+03  0.23007727489E+03  0.12509000000E+03 0.  0.
<mgrwt>
<rscale>  2 0.44210243E+03</rscale>
<asrwt>0</asrwt>
<pdfrwt beam="1">  1       21 0.90063938E-02 0.44210243E+03</pdfrwt>
<pdfrwt beam="2">  1       21 0.11733216E+00 0.44210243E+03</pdfrwt>
<totfact> 0.49893856E+04</totfact>
</mgrwt>
</event>
<event>
 7    0  0.4714446E-002  0.4194572E+03  0.7546771E-02  0.1037243E+00
         21   -1    0    0  502  501  0.00000000000E+00  0.00000000000E+00  0.55079159407E+02  0.55079159407E+02  0.00000000000E+00 0. -1.
         21   -1    0    0  501  502 -0.00000000000E+00 -0.00000000000E+00 -0.79859758267E+03  0.79859758267E+03  0.00000000000E+00 0. -1.
      99926    2    1    2    0    0  0.00000000000E+00 -0.88817841970E-15 -0.74351842326E+03  0.85367674208E+03  0.41945718999E+03 0.  0.
      99925    2    3    3    0    0 -0.65043556191E+02 -0.10885421034E+01 -0.40968727558E+03  0.49129215026E+03  0.26323461780E+03 0.  0.
         25    1    3    3    0    0  0.65043556191E+02  0.10885421034E+01 -0.33383114768E+03  0.36238459182E+03  0.12509000000E+03 0.  0.
         25    1    4    4    0    0 -0.43976878268E+02  0.10159456225E+02 -0.27761717601E+03  0.30782460085E+03  0.12509000000E+03 0.  0.
         25    1    4    4    0    0 -0.21066677923E+02 -0.11247998328E+02 -0.13207009958E+03  0.18346754941E+03  0.12509000000E+03 0.  0.
<mgrwt>
<rscale>  2 0.41945719E+03</rscale>
<asrwt>0</asrwt>
<pdfrwt beam="1">  1       21 0.80998772E-02 0.41945719E+03</pdfrwt>
<pdfrwt beam="2">  1       21 0.11744081E+00 0.41945719E+03</pdfrwt>
<totfact> 0.60439983E+04</totfact>
</mgrwt>
</event>
<event>
 7    0  0.4714446E-002  0.4819847E+03  0.7546771E-02  0.1018591E+00
         21   -1    0    0  502  501  0.00000000000E+00  0.00000000000E+00  0.14505969470E+04  0.14505969470E+04  0.00000000000E+00 0.  1.
         21   -1    0    0  501  502 -0.00000000000E+00 -0.00000000000E+00 -0.40036839509E+02  0.40036839509E+02  0.00000000000E+00 0.  1.
      99926    2    1    2    0    0  0.00000000000E+00  0.00000000000E+00  0.14105601075E+04  0.14906337865E+04  0.48198471826E+03 0.  0.
      99925    2    3    3    0    0 -0.11537267610E+03 -0.72788620360E+02  0.90466582687E+03  0.95194503694E+03  0.26300201027E+03 0.  0.
         25    1    4    4    0    0 -0.60235961722E+02 -0.42178546192E+02  0.58866141293E+03  0.60628142641E+03  0.12509000000E+03 0.  0.
         25    1    4    4    0    0 -0.55136714376E+02 -0.30610074168E+02  0.31600441394E+03  0.34566361053E+03  0.12509000000E+03 0.  0.
         25    1    3    3    0    0  0.11537267610E+03  0.72788620360E+02  0.50589428058E+03  0.53868874953E+03  0.12509000000E+03 0.  0.
<mgrwt>
<rscale>  2 0.48198472E+03</rscale>
<asrwt>0</asrwt>
<pdfrwt beam="1">  1       21 0.21332305E+00 0.48198472E+03</pdfrwt>
<pdfrwt beam="2">  1       21 0.58877715E-02 0.48198472E+03</pdfrwt>
<totfact> 0.19574069E+04</totfact>
</mgrwt>
</event>
<event>
 7    0  0.4714446E-002  0.4539283E+03  0.7546771E-02  0.1026557E+00
         21   -1    0    0  502  501  0.00000000000E+00  0.00000000000E+00  0.42207089103E+03  0.42207089103E+03  0.00000000000E+00 0. -1.
         21   -1    0    0  501  502 -0.00000000000E+00 -0.00000000000E+00 -0.12204755687E+03  0.12204755687E+03  0.00000000000E+00 0. -1.
      99926    2    1    2    0    0  0.00000000000E+00 -0.71054273576E-14  0.30002333416E+03  0.54411844790E+03  0.45392828101E+03 0.  0.
      99925    2    3    3    0    0  0.92986126259E+02  0.59343107621E+02  0.20730842337E+03  0.35330024415E+03  0.26396260344E+03 0.  0.
         25    1    4    4    0    0  0.22873453981E+02 -0.80699954793E+01  0.99145759620E+02  0.16144878282E+03  0.12509000000E+03 0.  0.
         25    1    3    3    0    0 -0.92986126259E+02 -0.59343107621E+02  0.92714910792E+02  0.19081820375E+03  0.12509000000E+03 0.  0.
         25    1    4    4    0    0  0.70112672278E+02  0.67413103101E+02  0.10816266375E+03  0.19185146132E+03  0.12509000000E+03 0.  0.
<mgrwt>
<rscale>  2 0.45392828E+03</rscale>
<asrwt>0</asrwt>
<pdfrwt beam="1">  1       21 0.62069248E-01 0.45392828E+03</pdfrwt>
<pdfrwt beam="2">  1       21 0.17948170E-01 0.45392828E+03</pdfrwt>
<totfact> 0.62787635E+04</totfact>
</mgrwt>
</event>
<event>
 7    0  0.4714446E-002  0.4594492E+03  0.7546771E-02  0.1024941E+00
         21   -1    0    0  502  501  0.00000000000E+00  0.00000000000E+00  0.11891389888E+03  0.11891389888E+03  0.00000000000E+00 0. -1.
         21   -1    0    0  501  502 -0.00000000000E+00 -0.00000000000E+00 -0.44379500092E+03  0.44379500092E+03  0.00000000000E+00 0. -1.
      99926    2    1    2    0    0 -0.17763568394E-14  0.00000000000E+00 -0.32488110204E+03  0.56270889979E+03  0.45944920877E+03 0.  0.
      99925    2    3    3    0    0  0.13247257114E+02 -0.68951341235E+02 -0.31870053015E+03  0.41912796496E+03  0.26299894640E+03 0.  0.
         25    1    4    4    0    0 -0.28249368655E+02 -0.21892943639E+02 -0.12723054872E+03  0.18196826217E+03  0.12509000000E+03 0.  0.
         25    1    4    4    0    0  0.41496625769E+02 -0.47058397596E+02 -0.19146998144E+03  0.23715970279E+03  0.12509000000E+03 0.  0.
         25    1    3    3    0    0 -0.13247257114E+02  0.68951341235E+02 -0.61805718868E+01  0.14358093483E+03  0.12509000000E+03 0.  0.
<mgrwt>
<rscale>  2 0.45944921E+03</rscale>
<asrwt>0</asrwt>
<pdfrwt beam="1">  1       21 0.17487338E-01 0.45944921E+03</pdfrwt>
<pdfrwt beam="2">  1       21 0.65263971E-01 0.45944921E+03</pdfrwt>
<totfact> 0.58932994E+04</totfact>
</mgrwt>
</event>
<event>
 7    0  0.4714446E-002  0.4514973E+03  0.7546771E-02  0.1027276E+00
         21   -1    0    0  502  501  0.00000000000E+00  0.00000000000E+00  0.97088999862E+02  0.97088999862E+02  0.00000000000E+00 0.  1.
         21   -1    0    0  501  502 -0.00000000000E+00 -0.00000000000E+00 -0.52490447946E+03  0.52490447946E+03  0.00000000000E+00 0.  1.
      99926    2    1    2    0    0  0.00000000000E+00  0.00000000000E+00 -0.42781547959E+03  0.62199347932E+03  0.45149729095E+03 0.  0.
      99925    2    3    3    0    0  0.55731507388E+02 -0.45332948927E+02 -0.15555332188E+03  0.31387780656E+03  0.26298548312E+03 0.  0.
         25    1    3    3    0    0 -0.55731507388E+02  0.45332948927E+02 -0.27226215772E+03  0.30811567276E+03  0.12509000000E+03 0.  0.
         25    1    4    4    0    0 -0.53134507460E+01 -0.44765739298E+02 -0.66846376516E+02  0.14882254643E+03  0.12509000000E+03 0.  0.
         25    1    4    4    0    0  0.61044958134E+02 -0.56720962971E+00 -0.88706945361E+02  0.16505526013E+03  0.12509000000E+03 0.  0.
<mgrwt>
<rscale>  2 0.45149729E+03</rscale>
<asrwt>0</asrwt>
<pdfrwt beam="1">  1       21 0.14277795E-01 0.45149729E+03</pdfrwt>
<pdfrwt beam="2">  1       21 0.77191833E-01 0.45149729E+03</pdfrwt>
<totfact> 0.58958293E+04</totfact>
</mgrwt>
</event>
<event>
 7    0  0.4714446E-002  0.4588998E+03  0.7546771E-02  0.1025101E+00
         21   -1    0    0  502  501  0.00000000000E+00  0.00000000000E+00  0.12213704390E+03  0.12213704390E+03  0.00000000000E+00 0. -1.
         21   -1    0    0  501  502 -0.00000000000E+00 -0.00000000000E+00 -0.43105072247E+03  0.43105072247E+03  0.00000000000E+00 0. -1.
      99926    2    1    2    0    0 -0.17763568394E-14  0.00000000000E+00 -0.30891367856E+03  0.55318776637E+03  0.45889981920E+03 0.  0.
      99925    2    3    3    0    0 -0.11572640065E+02 -0.11475714267E+03 -0.21605653692E+03  0.35934998717E+03  0.26296170508E+03 0.  0.
         25    1    4    4    0    0 -0.46416327873E+01 -0.56420855982E+02 -0.57061407783E+02  0.14868883651E+03  0.12509000000E+03 0.  0.
         25    1    4    4    0    0 -0.69310072782E+01 -0.58336286691E+02 -0.15899512914E+03  0.21066115066E+03  0.12509000000E+03 0.  0.
         25    1    3    3    0    0  0.11572640065E+02  0.11475714267E+03 -0.92857141645E+02  0.19383777920E+03  0.12509000000E+03 0.  0.
<mgrwt>
<rscale>  2 0.45889982E+03</rscale>
<asrwt>0</asrwt>
<pdfrwt beam="1">  1       21 0.17961330E-01 0.45889982E+03</pdfrwt>
<pdfrwt beam="2">  1       21 0.63389812E-01 0.45889982E+03</pdfrwt>
<totfact> 0.59790195E+04</totfact>
</mgrwt>
</event>
<event>
 7    0  0.4714446E-002  0.4401022E+03  0.7546771E-02  0.1030715E+00
         21   -1    0    0  502  501  0.00000000000E+00  0.00000000000E+00  0.44966725594E+02  0.44966725594E+02  0.00000000000E+00 0. -1.
         21   -1    0    0  501  502 -0.00000000000E+00 -0.00000000000E+00 -0.10768515152E+04  0.10768515152E+04  0.00000000000E+00 0. -1.
      99926    2    1    2    0    0  0.71054273576E-14  0.00000000000E+00 -0.10318847896E+04  0.11218182408E+04  0.44010219990E+03 0.  0.
      99925    2    3    3    0    0  0.45916127488E+02  0.86227684361E+02 -0.62460471664E+03  0.68470490280E+03  0.26295674085E+03 0.  0.
         25    1    4    4    0    0  0.25974673597E+02  0.93795074724E+00 -0.29083618705E+03  0.31766139082E+03  0.12509000000E+03 0.  0.
         25    1    4    4    0    0  0.19941453892E+02  0.85289733613E+02 -0.33376852959E+03  0.36704351198E+03  0.12509000000E+03 0.  0.
         25    1    3    3    0    0 -0.45916127488E+02 -0.86227684361E+02 -0.40728007293E+03  0.43711333795E+03  0.12509000000E+03 0.  0.
<mgrwt>
<rscale>  2 0.44010220E+03</rscale>
<asrwt>0</asrwt>
<pdfrwt beam="1">  1       21 0.66127534E-02 0.44010220E+03</pdfrwt>
<pdfrwt beam="2">  1       21 0.15836052E+00 0.44010220E+03</pdfrwt>
<totfact> 0.39083070E+04</totfact>
</mgrwt>
</event>
<event>
 7    0  0.4714446E-002  0.4487266E+03  0.7546771E-02  0.1028102E+00
         21   -1    0    0  502  501  0.00000000000E+00  0.00000000000E+00  0.36804033785E+03  0.36804033785E+03  0.00000000000E+00 0.  1.
         21   -1    0    0  501  502 -0.00000000000E+00 -0.00000000000E+00 -0.13677545713E+03  0.13677545713E+03  0.00000000000E+00 0.  1.
      99926    2    1    2    0    0  0.00000000000E+00  0.00000000000E+00  0.23126488071E+03  0.50481579498E+03  0.44872657801E+03 0.  0.
      99925    2    3    3    0    0  0.95122318694E+02 -0.25284035245E+02  0.98668080441E+02  0.29765171148E+03  0.26300877038E+03 0.  0.
         25    1    4    4    0    0  0.50088738255E+02 -0.39703329317E+02  0.82605789418E+02  0.16296153106E+03  0.12509000000E+03 0.  0.
         25    1    4    4    0    0  0.45033580439E+02  0.14419294072E+02  0.16062291023E+02  0.13469018042E+03  0.12509000000E+03 0.  0.
         25    1    3    3    0    0 -0.95122318694E+02  0.25284035245E+02  0.13259680027E+03  0.20716408350E+03  0.12509000000E+03 0.  0.
<mgrwt>
<rscale>  2 0.44872658E+03</rscale>
<asrwt>0</asrwt>
<pdfrwt beam="1">  1       21 0.54123579E-01 0.44872658E+03</pdfrwt>
<pdfrwt beam="2">  1       21 0.20114038E-01 0.44872658E+03</pdfrwt>
<totfact> 0.68269990E+04</totfact>
</mgrwt>
</event>
<event>
 7    0  0.4714446E-002  0.4495672E+03  0.7546771E-02  0.1027851E+00
         21   -1    0    0  502  501  0.00000000000E+00  0.00000000000E+00  0.21141025159E+03  0.21141025159E+03  0.00000000000E+00 0. -1.
         21   -1    0    0  501  502 -0.00000000000E+00 -0.00000000000E+00 -0.23900292810E+03  0.23900292810E+03  0.00000000000E+00 0. -1.
      99926    2    1    2    0    0 -0.14210854715E-13  0.00000000000E+00 -0.27592676514E+02  0.45041317969E+03  0.44956721038E+03 0.  0.
      99925    2    3    3    0    0  0.82606870087E+02 -0.75254920123E+01 -0.86685806676E+02  0.28910591344E+03  0.26303473552E+03 0.  0.
         25    1    4    4    0    0  0.47491510050E+02  0.74143190582E+01 -0.84271269782E+02  0.15830214991E+03  0.12509000000E+03 0.  0.
         25    1    3    3    0    0 -0.82606870087E+02  0.75254920123E+01  0.59093130162E+02  0.16130726626E+03  0.12509000000E+03 0.  0.
         25    1    4    4    0    0  0.35115360037E+02 -0.14939811071E+02 -0.24145368942E+01  0.13080376353E+03  0.12509000000E+03 0.  0.
<mgrwt>
<rscale>  2 0.44956721E+03</rscale>
<asrwt>0</asrwt>
<pdfrwt beam="1">  1       21 0.31089743E-01 0.44956721E+03</pdfrwt>
<pdfrwt beam="2">  1       21 0.35147489E-01 0.44956721E+03</pdfrwt>
<totfact> 0.71951861E+04</totfact>
</mgrwt>
</event>
<event>
 7    0  0.4714446E-002  0.4506639E+03  0.7546771E-02  0.1027524E+00
         21   -1    0    0  502  501  0.00000000000E+00  0.00000000000E+00  0.33793738435E+02  0.33793738435E+02  0.00000000000E+00 0.  1.
         21   -1    0    0  501  502 -0.00000000000E+00 -0.00000000000E+00 -0.15024817865E+04  0.15024817865E+04  0.00000000000E+00 0.  1.
      99926    2    1    2    0    0 -0.17763568394E-14  0.00000000000E+00 -0.14686880481E+04  0.15362755249E+04  0.45066385032E+03 0.  0.
      99925    2    3    3    0    0  0.13626029148E+02  0.12203940661E+02 -0.56207862090E+03  0.62089431125E+03  0.26314019996E+03 0.  0.
         25    1    4    4    0    0 -0.27483140484E+02  0.13104130314E+02 -0.22857782466E+03  0.26234018234E+03  0.12509000000E+03 0.  0.
         25    1    3    3    0    0 -0.13626029148E+02 -0.12203940661E+02 -0.90660942716E+03  0.91538121367E+03  0.12509000000E+03 0.  0.
         25    1    4    4    0    0  0.41109169632E+02 -0.90018965340E+00 -0.33350079624E+03  0.35855412891E+03  0.12509000000E+03 0.  0.
<mgrwt>
<rscale>  2 0.45066385E+03</rscale>
<asrwt>0</asrwt>
<pdfrwt beam="1">  1       21 0.49696687E-02 0.45066385E+03</pdfrwt>
<pdfrwt beam="2">  1       21 0.22095315E+00 0.45066385E+03</pdfrwt>
<totfact> 0.23691818E+04</totfact>
</mgrwt>
</event>
<event>
 7    0  0.4714446E-002  0.4538171E+03  0.7546771E-02  0.1026590E+00
         21   -1    0    0  502  501  0.00000000000E+00  0.00000000000E+00  0.10552923923E+03  0.10552923923E+03  0.00000000000E+00 0.  1.
         21   -1    0    0  501  502 -0.00000000000E+00 -0.00000000000E+00 -0.48789784527E+03  0.48789784527E+03  0.00000000000E+00 0.  1.
      99926    2    1    2    0    0  0.35527136788E-14  0.14210854715E-13 -0.38236860604E+03  0.59342708449E+03  0.45381709280E+03 0.  0.
      99925    2    3    3    0    0 -0.22192665393E+02 -0.93440962719E+02 -0.31601439658E+03  0.42233027820E+03  0.26319961460E+03 0.  0.
         25    1    3    3    0    0  0.22192665393E+02  0.93440962719E+02 -0.66354209459E+02  0.17109680629E+03  0.12509000000E+03 0.  0.
         25    1    4    4    0    0  0.14701533412E+02 -0.65802310252E+02 -0.12415439097E+03  0.18870055648E+03  0.12509000000E+03 0.  0.
         25    1    4    4    0    0 -0.36894198805E+02 -0.27638652468E+02 -0.19186000561E+03  0.23362972171E+03  0.12509000000E+03 0.  0.
<mgrwt>
<rscale>  2 0.45381709E+03</rscale>
<asrwt>0</asrwt>
<pdfrwt beam="1">  1       21 0.15519006E-01 0.45381709E+03</pdfrwt>
<pdfrwt beam="2">  1       21 0.71749684E-01 0.45381709E+03</pdfrwt>
<totfact> 0.59640256E+04</totfact>
</mgrwt>
</event>
<event>
 7    0  0.4714446E-002  0.4503073E+03  0.7546771E-02  0.1027630E+00
         21   -1    0    0  502  501  0.00000000000E+00  0.00000000000E+00  0.75878259297E+02  0.75878259297E+02  0.00000000000E+00 0.  1.
         21   -1    0    0  501  502 -0.00000000000E+00 -0.00000000000E+00 -0.66809862956E+03  0.66809862956E+03  0.00000000000E+00 0.  1.
      99926    2    1    2    0    0 -0.35527136788E-14  0.00000000000E+00 -0.59222037026E+03  0.74397688886E+03  0.45030727753E+03 0.  0.
      99925    2    3    3    0    0 -0.31113385780E+02  0.61843885336E+02 -0.51370246354E+03  0.58086564245E+03  0.26214874519E+03 0.  0.
         25    1    3    3    0    0  0.31113385780E+02 -0.61843885336E+02 -0.78517906728E+02  0.16311124641E+03  0.12509000000E+03 0.  0.
         25    1    4    4    0    0 -0.47430272317E+02  0.53055353259E+02 -0.25160724030E+03  0.28985895314E+03  0.12509000000E+03 0.  0.
         25    1    4    4    0    0  0.16316886537E+02  0.87885320774E+01 -0.26209522323E+03  0.29100668931E+03  0.12509000000E+03 0.  0.
<mgrwt>
<rscale>  2 0.45030728E+03</rscale>
<asrwt>0</asrwt>
<pdfrwt beam="1">  1       21 0.11158569E-01 0.45030728E+03</pdfrwt>
<pdfrwt beam="2">  1       21 0.98249789E-01 0.45030728E+03</pdfrwt>
<totfact> 0.52489051E+04</totfact>
</mgrwt>
</event>
<event>
 6    0  0.4714446E-002  0.4541925E+03  0.7546771E-02  0.1026479E+00
         21   -1    0    0  502  501  0.00000000000E+00  0.00000000000E+00  0.39671251690E+03  0.39671251690E+03  0.00000000000E+00 0.  1.
         21   -1    0    0  501  502 -0.00000000000E+00 -0.00000000000E+00 -0.13000022791E+03  0.13000022791E+03  0.00000000000E+00 0.  1.
      99926    2    1    2    0    0  0.00000000000E+00  0.00000000000E+00  0.26671228898E+03  0.52671274481E+03  0.45419254777E+03 0.  0.
         25    1    3    3    0    0  0.49009303716E+02 -0.12472037479E+02  0.80332271789E+02  0.15702944170E+03  0.12509000000E+03 0.  0.
         25    1    3    3    0    0  0.52467217947E+02  0.60802731488E+02  0.11030903583E+03  0.18510908298E+03  0.12509000000E+03 0.  0.
         25    1    3    3    0    0 -0.10147652166E+03 -0.48330694009E+02  0.76070981360E+02  0.18457422013E+03  0.12509000000E+03 0.  0.
<mgrwt>
<rscale>  2 0.45419255E+03</rscale>
<asrwt>0</asrwt>
<pdfrwt beam="1">  1       21 0.58340076E-01 0.45419255E+03</pdfrwt>
<pdfrwt beam="2">  1       21 0.19117681E-01 0.45419255E+03</pdfrwt>
<totfact> 0.63837221E+04</totfact>
</mgrwt>
</event>
<event>
 7    0  0.4714446E-002  0.4620305E+03  0.7546771E-02  0.1024194E+00
         21   -1    0    0  502  501  0.00000000000E+00  0.00000000000E+00  0.11389518920E+03  0.11389518920E+03  0.00000000000E+00 0.  1.
         21   -1    0    0  501  502 -0.00000000000E+00 -0.00000000000E+00 -0.46857154217E+03  0.46857154217E+03  0.00000000000E+00 0.  1.
      99926    2    1    2    0    0 -0.35527136788E-14  0.00000000000E+00 -0.35467635297E+03  0.58246673137E+03  0.46203049444E+03 0.  0.
      99925    2    3    3    0    0  0.20310848932E+02  0.59814466529E+02 -0.93674107200E+02  0.28622361940E+03  0.26298064749E+03 0.  0.
         25    1    4    4    0    0  0.46495279443E+02  0.19707515660E+02 -0.31382747727E+02  0.13850119905E+03  0.12509000000E+03 0.  0.
         25    1    3    3    0    0 -0.20310848932E+02 -0.59814466529E+02 -0.26100224577E+03  0.29624311197E+03  0.12509000000E+03 0.  0.
         25    1    4    4    0    0 -0.26184430511E+02  0.40106950869E+02 -0.62291359473E+02  0.14772242035E+03  0.12509000000E+03 0.  0.
<mgrwt>
<rscale>  2 0.46203049E+03</rscale>
<asrwt>0</asrwt>
<pdfrwt beam="1">  1       21 0.16749292E-01 0.46203049E+03</pdfrwt>
<pdfrwt beam="2">  1       21 0.68907580E-01 0.46203049E+03</pdfrwt>
<totfact> 0.56560930E+04</totfact>
</mgrwt>
</event>
<event>
 7    0  0.4714446E-002  0.4562469E+03  0.7546771E-02  0.1025875E+00
         21   -1    0    0  502  501  0.00000000000E+00  0.00000000000E+00  0.42269986411E+02  0.42269986411E+02  0.00000000000E+00 0. -1.
         21   -1    0    0  501  502 -0.00000000000E+00 -0.00000000000E+00 -0.12311408316E+04  0.12311408316E+04  0.00000000000E+00 0. -1.
      99926    2    1    2    0    0  0.00000000000E+00  0.17763568394E-14 -0.11888708452E+04  0.12734108181E+04  0.45624689028E+03 0.  0.
      99925    2    3    3    0    0 -0.87444343404E+02 -0.59334663553E+01 -0.54343916256E+03  0.61015273532E+03  0.26320812639E+03 0.  0.
         25    1    3    3    0    0  0.87444343404E+02  0.59334663553E+01 -0.64543168267E+03  0.66325808273E+03  0.12509000000E+03 0.  0.
         25    1    4    4    0    0 -0.66475050770E+02  0.25249770449E+02 -0.32865166976E+03  0.35876999793E+03  0.12509000000E+03 0.  0.
         25    1    4    4    0    0 -0.20969292634E+02 -0.31183236804E+02 -0.21478749281E+03  0.25138273739E+03  0.12509000000E+03 0.  0.
<mgrwt>
<rscale>  2 0.45624689E+03</rscale>
<asrwt>0</asrwt>
<pdfrwt beam="1">  1       21 0.62161737E-02 0.45624689E+03</pdfrwt>
<pdfrwt beam="2">  1       21 0.18105014E+00 0.45624689E+03</pdfrwt>
<totfact> 0.29608443E+04</totfact>
</mgrwt>
</event>
<event>
 7    0  0.4714446E-002  0.4637843E+03  0.7546771E-02  0.1023689E+00
         21   -1    0    0  502  501  0.00000000000E+00  0.00000000000E+00  0.62104308279E+03  0.62104308279E+03  0.00000000000E+00 0.  1.
         21   -1    0    0  501  502 -0.00000000000E+00 -0.00000000000E+00 -0.86586548751E+02  0.86586548751E+02  0.00000000000E+00 0.  1.
      99926    2    1    2    0    0  0.00000000000E+00  0.71054273576E-14  0.53445653404E+03  0.70762963154E+03  0.46378433421E+03 0.  0.
      99925    2    3    3    0    0  0.10385477317E+03 -0.44673400427E+02  0.26545812998E+03  0.39015652071E+03  0.26262628441E+03 0.  0.
         25    1    4    4    0    0  0.73429285937E+02 -0.13989594492E+02  0.93390395092E+02  0.17308045176E+03  0.12509000000E+03 0.  0.
         25    1    3    3    0    0 -0.10385477317E+03  0.44673400427E+02  0.26899840406E+03  0.31747311083E+03  0.12509000000E+03 0.  0.
         25    1    4    4    0    0  0.30425487228E+02 -0.30683805935E+02  0.17206773489E+03  0.21707606895E+03  0.12509000000E+03 0.  0.
<mgrwt>
<rscale>  2 0.46378433E+03</rscale>
<asrwt>0</asrwt>
<pdfrwt beam="1">  1       21 0.91329863E-01 0.46378433E+03</pdfrwt>
<pdfrwt beam="2">  1       21 0.12733316E-01 0.46378433E+03</pdfrwt>
<totfact> 0.49014017E+04</totfact>
</mgrwt>
</event>
<event>
 7    0  0.4714446E-002  0.4564211E+03  0.7546771E-02  0.1025824E+00
         21   -1    0    0  502  501  0.00000000000E+00  0.00000000000E+00  0.63702644616E+02  0.63702644616E+02  0.00000000000E+00 0. -1.
         21   -1    0    0  501  502 -0.00000000000E+00 -0.00000000000E+00 -0.81754950415E+03  0.81754950415E+03  0.00000000000E+00 0. -1.
      99926    2    1    2    0    0  0.00000000000E+00  0.00000000000E+00 -0.75384685953E+03  0.88125214876E+03  0.45642114552E+03 0.  0.
      99925    2    3    3    0    0  0.10207165236E+03 -0.34941914061E+02 -0.39982328590E+03  0.49058636020E+03  0.26301474728E+03 0.  0.
         25    1    4    4    0    0  0.84376013855E+02  0.70173812104E+01 -0.21935922518E+03  0.26633537715E+03  0.12509000000E+03 0.  0.
         25    1    4    4    0    0  0.17695638502E+02 -0.41959295272E+02 -0.18046406073E+03  0.22425098304E+03  0.12509000000E+03 0.  0.
         25    1    3    3    0    0 -0.10207165236E+03  0.34941914061E+02 -0.35402357363E+03  0.39066578857E+03  0.12509000000E+03 0.  0.
<mgrwt>
<rscale>  2 0.45642115E+03</rscale>
<asrwt>0</asrwt>
<pdfrwt beam="1">  1       21 0.93680359E-02 0.45642115E+03</pdfrwt>
<pdfrwt beam="2">  1       21 0.12022787E+00 0.45642115E+03</pdfrwt>
<totfact> 0.43567300E+04</totfact>
</mgrwt>
</event>
<event>
 7    0  0.4714446E-002  0.4574550E+03  0.7546771E-02  0.1025522E+00
         21   -1    0    0  502  501  0.00000000000E+00  0.00000000000E+00  0.38428525188E+02  0.38428525188E+02  0.00000000000E+00 0. -1.
         21   -1    0    0  501  502 -0.00000000000E+00 -0.00000000000E+00 -0.13613916777E+04  0.13613916777E+04  0.00000000000E+00 0. -1.
      99926    2    1    2    0    0  0.00000000000E+00  0.00000000000E+00 -0.13229631525E+04  0.13998202029E+04  0.45745502238E+03 0.  0.
      99925    2    3    3    0    0  0.61793619852E+02  0.72876046506E+02 -0.63199097072E+03  0.69114578277E+03  0.26294588106E+03 0.  0.
         25    1    4    4    0    0  0.33755782596E+02  0.65220910963E+02 -0.40710368374E+03  0.43217373532E+03  0.12509000000E+03 0.  0.
         25    1    3    3    0    0 -0.61793619852E+02 -0.72876046506E+02 -0.69097218177E+03  0.70867442009E+03  0.12509000000E+03 0.  0.
         25    1    4    4    0    0  0.28037837256E+02  0.76551355423E+01 -0.22488728697E+03  0.25897204745E+03  0.12509000000E+03 0.  0.
<mgrwt>
<rscale>  2 0.45745502E+03</rscale>
<asrwt>0</asrwt>
<pdfrwt beam="1">  1       21 0.56512551E-02 0.45745502E+03</pdfrwt>
<pdfrwt beam="2">  1       21 0.20020461E+00 0.45745502E+03</pdfrwt>
<totfact> 0.25840280E+04</totfact>
</mgrwt>
</event>
<event>
 7    0  0.4714446E-002  0.4489505E+03  0.7546771E-02  0.1028035E+00
         21   -1    0    0  502  501  0.00000000000E+00  0.00000000000E+00  0.12225742986E+03  0.12225742986E+03  0.00000000000E+00 0.  1.
         21   -1    0    0  501  502 -0.00000000000E+00 -0.00000000000E+00 -0.41215601286E+03  0.41215601286E+03  0.00000000000E+00 0.  1.
      99926    2    1    2    0    0  0.00000000000E+00  0.00000000000E+00 -0.28989858300E+03  0.53441344273E+03  0.44895048651E+03 0.  0.
      99925    2    3    3    0    0 -0.67893566546E+02 -0.62101304035E+01 -0.84614619528E+02  0.28453924266E+03  0.26297308737E+03 0.  0.
         25    1    4    4    0    0 -0.19280406200E+01 -0.13373303092E+02 -0.14862525841E+02  0.12669240447E+03  0.12509000000E+03 0.  0.
         25    1    4    4    0    0 -0.65965525926E+02  0.71631726886E+01 -0.69752093688E+02  0.15784683819E+03  0.12509000000E+03 0.  0.
         25    1    3    3    0    0  0.67893566546E+02  0.62101304035E+01 -0.20528396347E+03  0.24987420006E+03  0.12509000000E+03 0.  0.
<mgrwt>
<rscale>  2 0.44895049E+03</rscale>
<asrwt>0</asrwt>
<pdfrwt beam="1">  1       21 0.17979034E-01 0.44895049E+03</pdfrwt>
<pdfrwt beam="2">  1       21 0.60611178E-01 0.44895049E+03</pdfrwt>
<totfact> 0.66012862E+04</totfact>
</mgrwt>
</event>
<event>
 7    0  0.4714446E-002  0.4549877E+03  0.7546771E-02  0.1026245E+00
         21   -1    0    0  502  501  0.00000000000E+00  0.00000000000E+00  0.20472687886E+03  0.20472687886E+03  0.00000000000E+00 0. -1.
         21   -1    0    0  501  502 -0.00000000000E+00 -0.00000000000E+00 -0.25279270231E+03  0.25279270231E+03  0.00000000000E+00 0. -1.
      99926    2    1    2    0    0 -0.14210854715E-13 -0.71054273576E-14 -0.48065823452E+02  0.45751958117E+03  0.45498774025E+03 0.  0.
      99925    2    3    3    0    0  0.98453080477E+02  0.55574102178E+02 -0.33771424919E+02  0.28830572885E+03  0.26305549654E+03 0.  0.
         25    1    4    4    0    0  0.27650412766E+02  0.56484207630E+02 -0.35941974680E+02  0.14454876230E+03  0.12509000000E+03 0.  0.
         25    1    4    4    0    0  0.70802667711E+02 -0.91010545196E+00  0.21705497616E+01  0.14375696656E+03  0.12509000000E+03 0.  0.
         25    1    3    3    0    0 -0.98453080477E+02 -0.55574102178E+02 -0.14294398533E+02  0.16921385232E+03  0.12509000000E+03 0.  0.
<mgrwt>
<rscale>  2 0.45498774E+03</rscale>
<asrwt>0</asrwt>
<pdfrwt beam="1">  1       21 0.30106894E-01 0.45498774E+03</pdfrwt>
<pdfrwt beam="2">  1       21 0.37175397E-01 0.45498774E+03</pdfrwt>
<totfact> 0.68368258E+04</totfact>
</mgrwt>
</event>
<event>
 7    0  0.4714446E-002  0.4662017E+03  0.7546771E-02  0.1022998E+00
         21   -1    0    0  502  501  0.00000000000E+00  0.00000000000E+00  0.58123776670E+03  0.58123776670E+03  0.00000000000E+00 0.  1.
         21   -1    0    0  501  502 -0.00000000000E+00 -0.00000000000E+00 -0.93483266847E+02  0.93483266847E+02  0.00000000000E+00 0.  1.
      99926    2    1    2    0    0  0.00000000000E+00  0.00000000000E+00  0.48775449985E+03  0.67472103355E+03  0.46620169560E+03 0.  0.
      99925    2    3    3    0    0  0.88698343809E+02 -0.82820586121E+02  0.33527298955E+03  0.44315081792E+03  0.26315019328E+03 0.  0.
         25    1    4    4    0    0  0.36193507059E+02 -0.19543156121E+01  0.12846401660E+03  0.18293250385E+03  0.12509000000E+03 0.  0.
         25    1    3    3    0    0 -0.88698343809E+02  0.82820586121E+02  0.15248151031E+03  0.23157021563E+03  0.12509000000E+03 0.  0.
         25    1    4    4    0    0  0.52504836750E+02 -0.80866270508E+02  0.20680897295E+03  0.26021831408E+03  0.12509000000E+03 0.  0.
<mgrwt>
<rscale>  2 0.46620170E+03</rscale>
<asrwt>0</asrwt>
<pdfrwt beam="1">  1       21 0.85476141E-01 0.46620170E+03</pdfrwt>
<pdfrwt beam="2">  1       21 0.13747539E-01 0.46620170E+03</pdfrwt>
<totfact> 0.49756294E+04</totfact>
</mgrwt>
</event>
<event>
 7    0  0.4714446E-002  0.4512757E+03  0.7546771E-02  0.1027342E+00
         21   -1    0    0  502  501  0.00000000000E+00  0.00000000000E+00  0.77974694227E+03  0.77974694227E+03  0.00000000000E+00 0.  1.
         21   -1    0    0  501  502 -0.00000000000E+00 -0.00000000000E+00 -0.65293548823E+02  0.65293548823E+02  0.00000000000E+00 0.  1.
      99926    2    1    2    0    0  0.00000000000E+00  0.35527136788E-14  0.71445339344E+03  0.84504049109E+03  0.45127572523E+03 0.  0.
      99925    2    3    3    0    0  0.10749584938E+03 -0.17568776971E+02  0.47402332488E+03  0.55294779086E+03  0.26303826210E+03 0.  0.
         25    1    4    4    0    0  0.20304991301E+02  0.13252644465E+02  0.24389655506E+03  0.27517442273E+03  0.12509000000E+03 0.  0.
         25    1    3    3    0    0 -0.10749584938E+03  0.17568776971E+02  0.24043006857E+03  0.29209270023E+03  0.12509000000E+03 0.  0.
         25    1    4    4    0    0  0.87190858079E+02 -0.30821421436E+02  0.23012676982E+03  0.27777336812E+03  0.12509000000E+03 0.  0.
<mgrwt>
<rscale>  2 0.45127573E+03</rscale>
<asrwt>0</asrwt>
<pdfrwt beam="1">  1       21 0.11466866E+00 0.45127573E+03</pdfrwt>
<pdfrwt beam="2">  1       21 0.96019929E-02 0.45127573E+03</pdfrwt>
<totfact> 0.47020865E+04</totfact>
</mgrwt>
</event>
<event>
 7    0  0.4714446E-002  0.4567808E+03  0.7546771E-02  0.1025719E+00
         21   -1    0    0  502  501  0.00000000000E+00  0.00000000000E+00  0.60167004592E+03  0.60167004592E+03  0.00000000000E+00 0. -1.
         21   -1    0    0  501  502 -0.00000000000E+00 -0.00000000000E+00 -0.86695661490E+02  0.86695661490E+02  0.00000000000E+00 0. -1.
      99926    2    1    2    0    0  0.00000000000E+00  0.71054273576E-14  0.51497438443E+03  0.68836570741E+03  0.45678083423E+03 0.  0.
      99925    2    3    3    0    0 -0.61095411997E+02 -0.48124957671E+02  0.45088857276E+03  0.52773208616E+03  0.26296765734E+03 0.  0.
         25    1    4    4    0    0 -0.45108130864E+02 -0.21194984834E+01  0.28367883590E+03  0.31330564275E+03  0.12509000000E+03 0.  0.
         25    1    3    3    0    0  0.61095411997E+02  0.48124957671E+02  0.64085811676E+02  0.16063362125E+03  0.12509000000E+03 0.  0.
         25    1    4    4    0    0 -0.15987281133E+02 -0.46005459188E+02  0.16720973686E+03  0.21442644341E+03  0.12509000000E+03 0.  0.
<mgrwt>
<rscale>  2 0.45678083E+03</rscale>
<asrwt>0</asrwt>
<pdfrwt beam="1">  1       21 0.88480887E-01 0.45678083E+03</pdfrwt>
<pdfrwt beam="2">  1       21 0.12749362E-01 0.45678083E+03</pdfrwt>
<totfact> 0.52795267E+04</totfact>
</mgrwt>
</event>
<event>
 7    0  0.4714446E-002  0.4595934E+03  0.7546771E-02  0.1024899E+00
         21   -1    0    0  502  501  0.00000000000E+00  0.00000000000E+00  0.37515233419E+03  0.37515233419E+03  0.00000000000E+00 0. -1.
         21   -1    0    0  501  502 -0.00000000000E+00 -0.00000000000E+00 -0.14076023405E+03  0.14076023405E+03  0.00000000000E+00 0. -1.
      99926    2    1    2    0    0 -0.35527136788E-14 -0.14210854715E-13  0.23439210015E+03  0.51591256824E+03  0.45959343061E+03 0.  0.
      99925    2    3    3    0    0 -0.55644025754E+01 -0.90794835894E+02  0.63514515265E+02  0.28543193583E+03  0.26298789238E+03 0.  0.
         25    1    4    4    0    0  0.19541457581E+02 -0.59340509937E+02  0.64593814475E+02  0.15402283484E+03  0.12509000000E+03 0.  0.
         25    1    3    3    0    0  0.55644025754E+01  0.90794835894E+02  0.17087758488E+03  0.23048063241E+03  0.12509000000E+03 0.  0.
         25    1    4    4    0    0 -0.25105860157E+02 -0.31454325957E+02 -0.10792992102E+01  0.13140910099E+03  0.12509000000E+03 0.  0.
<mgrwt>
<rscale>  2 0.45959343E+03</rscale>
<asrwt>0</asrwt>
<pdfrwt beam="1">  1       21 0.55169461E-01 0.45959343E+03</pdfrwt>
<pdfrwt beam="2">  1       21 0.20700034E-01 0.45959343E+03</pdfrwt>
<totfact> 0.61880049E+04</totfact>
</mgrwt>
</event>
<event>
 7    0  0.4714446E-002  0.4574325E+03  0.7546771E-02  0.1025528E+00
         21   -1    0    0  502  501  0.00000000000E+00  0.00000000000E+00  0.29216896859E+03  0.29216896859E+03  0.00000000000E+00 0.  1.
         21   -1    0    0  501  502 -0.00000000000E+00 -0.00000000000E+00 -0.17904408699E+03  0.17904408699E+03  0.00000000000E+00 0.  1.
      99926    2    1    2    0    0  0.00000000000E+00 -0.14210854715E-13  0.11312488159E+03  0.47121305558E+03  0.45743251405E+03 0.  0.
      99925    2    3    3    0    0  0.78713455360E+02  0.81068945519E+02  0.46634993672E+02  0.29000490102E+03  0.26298296143E+03 0.  0.
         25    1    4    4    0    0  0.29269935865E+02  0.47329371357E+02 -0.15999995136E+02  0.13784159925E+03  0.12509000000E+03 0.  0.
         25    1    4    4    0    0  0.49443519495E+02  0.33739574162E+02  0.62634988808E+02  0.15216330178E+03  0.12509000000E+03 0.  0.
         25    1    3    3    0    0 -0.78713455360E+02 -0.81068945519E+02  0.66489887918E+02  0.18120815456E+03  0.12509000000E+03 0.  0.
<mgrwt>
<rscale>  2 0.45743251E+03</rscale>
<asrwt>0</asrwt>
<pdfrwt beam="1">  1       21 0.42966025E-01 0.45743251E+03</pdfrwt>
<pdfrwt beam="2">  1       21 0.26330013E-01 0.45743251E+03</pdfrwt>
<totfact> 0.66061623E+04</totfact>
</mgrwt>
</event>
<event>
 7    0  0.4714446E-002  0.4596717E+03  0.7546771E-02  0.1024876E+00
         21   -1    0    0  502  501  0.00000000000E+00  0.00000000000E+00  0.24078637590E+03  0.24078637590E+03  0.00000000000E+00 0.  1.
         21   -1    0    0  501  502 -0.00000000000E+00 -0.00000000000E+00 -0.21938330866E+03  0.21938330866E+03  0.00000000000E+00 0.  1.
      99926    2    1    2    0    0  0.00000000000E+00  0.00000000000E+00  0.21403067246E+02  0.46016968456E+03  0.45967167338E+03 0.  0.
      99925    2    3    3    0    0 -0.37999976579E+02  0.11115711124E+03  0.10589583299E+02  0.28822684193E+03  0.26298796842E+03 0.  0.
         25    1    4    4    0    0 -0.29832081406E+02  0.26007735121E+02  0.32351571306E+02  0.13513137176E+03  0.12509000000E+03 0.  0.
         25    1    3    3    0    0  0.37999976579E+02 -0.11115711124E+03  0.10813483947E+02  0.17194284264E+03  0.12509000000E+03 0.  0.
         25    1    4    4    0    0 -0.81678951730E+01  0.85149376117E+02 -0.21761988007E+02  0.15309547017E+03  0.12509000000E+03 0.  0.
<mgrwt>
<rscale>  2 0.45967167E+03</rscale>
<asrwt>0</asrwt>
<pdfrwt beam="1">  1       21 0.35409761E-01 0.45967167E+03</pdfrwt>
<pdfrwt beam="2">  1       21 0.32262251E-01 0.45967167E+03</pdfrwt>
<totfact> 0.65685957E+04</totfact>
</mgrwt>
</event>
<event>
 7    0  0.4714446E-002  0.4562121E+03  0.7546771E-02  0.1025886E+00
         21   -1    0    0  502  501  0.00000000000E+00  0.00000000000E+00  0.98760037815E+03  0.98760037815E+03  0.00000000000E+00 0. -1.
         21   -1    0    0  501  502 -0.00000000000E+00 -0.00000000000E+00 -0.52685658345E+02  0.52685658345E+02  0.00000000000E+00 0. -1.
      99926    2    1    2    0    0  0.00000000000E+00 -0.35527136788E-14  0.93491471981E+03  0.10402860365E+04  0.45621212656E+03 0.  0.
      99925    2    3    3    0    0  0.10202639841E+03 -0.31839197832E+02  0.67926197481E+03  0.73626473031E+03  0.26318397023E+03 0.  0.
         25    1    4    4    0    0  0.50233320079E+02 -0.50905590126E+02  0.29289408742E+03  0.32641878025E+03  0.12509000000E+03 0.  0.
         25    1    4    4    0    0  0.51793078328E+02  0.19066392295E+02  0.38636788739E+03  0.40984595007E+03  0.12509000000E+03 0.  0.
         25    1    3    3    0    0 -0.10202639841E+03  0.31839197832E+02  0.25565274500E+03  0.30402130619E+03  0.12509000000E+03 0.  0.
<mgrwt>
<rscale>  2 0.45621213E+03</rscale>
<asrwt>0</asrwt>
<pdfrwt beam="1">  1       21 0.14523534E+00 0.45621213E+03</pdfrwt>
<pdfrwt beam="2">  1       21 0.77478915E-02 0.45621213E+03</pdfrwt>
<totfact> 0.37281851E+04</totfact>
</mgrwt>
</event>
<event>
 7    0  0.4714446E-002  0.4402311E+03  0.7546771E-02  0.1030676E+00
         21   -1    0    0  502  501  0.00000000000E+00  0.00000000000E+00  0.13669688764E+04  0.13669688764E+04  0.00000000000E+00 0.  1.
         21   -1    0    0  501  502 -0.00000000000E+00 -0.00000000000E+00 -0.35444007844E+02  0.35444007844E+02  0.00000000000E+00 0.  1.
      99926    2    1    2    0    0  0.71054273576E-14  0.00000000000E+00  0.13315248685E+04  0.14024128842E+04  0.44023110102E+03 0.  0.
      99925    2    3    3    0    0 -0.52928745705E+02  0.80221764214E+02  0.77927899910E+03  0.82807849384E+03  0.26306130452E+03 0.  0.
         25    1    3    3    0    0  0.52928745705E+02 -0.80221764214E+02  0.55224586942E+03  0.57433439037E+03  0.12509000000E+03 0.  0.
         25    1    4    4    0    0  0.37679656593E+01  0.55441644976E+02  0.31948239102E+03  0.34756938852E+03  0.12509000000E+03 0.  0.
         25    1    4    4    0    0 -0.56696711364E+02  0.24780119238E+02  0.45979660808E+03  0.48050910532E+03  0.12509000000E+03 0.  0.
<mgrwt>
<rscale>  2 0.44023110E+03</rscale>
<asrwt>0</asrwt>
<pdfrwt beam="1">  1       21 0.20102480E+00 0.44023110E+03</pdfrwt>
<pdfrwt beam="2">  1       21 0.52123550E-02 0.44023110E+03</pdfrwt>
<totfact> 0.29512469E+04</totfact>
</mgrwt>
</event>
<event>
 7    0  0.4714446E-002  0.4463560E+03  0.7546771E-02  0.1028814E+00
         21   -1    0    0  502  501  0.00000000000E+00  0.00000000000E+00  0.35776162595E+03  0.35776162595E+03  0.00000000000E+00 0.  1.
         21   -1    0    0  501  502 -0.00000000000E+00 -0.00000000000E+00 -0.13922238411E+03  0.13922238411E+03  0.00000000000E+00 0.  1.
      99926    2    1    2    0    0  0.00000000000E+00  0.00000000000E+00  0.21853924184E+03  0.49698401006E+03  0.44635603058E+03 0.  0.
      99925    2    3    3    0    0 -0.57500703250E+02  0.42179717822E+02  0.22376508065E+03  0.35289973971E+03  0.26340454723E+03 0.  0.
         25    1    3    3    0    0  0.57500703250E+02 -0.42179717822E+02 -0.52258388081E+01  0.14408427035E+03  0.12509000000E+03 0.  0.
         25    1    4    4    0    0 -0.33115484085E+02  0.53533305879E+02  0.15001132529E+03  0.20521538914E+03  0.12509000000E+03 0.  0.
         25    1    4    4    0    0 -0.24385219166E+02 -0.11353588057E+02  0.73753755360E+02  0.14768435058E+03  0.12509000000E+03 0.  0.
<mgrwt>
<rscale>  2 0.44635603E+03</rscale>
<asrwt>0</asrwt>
<pdfrwt beam="1">  1       21 0.52612004E-01 0.44635603E+03</pdfrwt>
<pdfrwt beam="2">  1       21 0.20473880E-01 0.44635603E+03</pdfrwt>
<totfact> 0.70175896E+04</totfact>
</mgrwt>
</event>
<event>
 7    0  0.4714446E-002  0.4594461E+03  0.7546771E-02  0.1024942E+00
         21   -1    0    0  502  501  0.00000000000E+00  0.00000000000E+00  0.11036439422E+03  0.11036439422E+03  0.00000000000E+00 0.  1.
         21   -1    0    0  501  502 -0.00000000000E+00 -0.00000000000E+00 -0.47816753012E+03  0.47816753012E+03  0.00000000000E+00 0.  1.
      99926    2    1    2    0    0  0.00000000000E+00  0.00000000000E+00 -0.36780313591E+03  0.58853192434E+03  0.45944605688E+03 0.  0.
      99925    2    3    3    0    0  0.81124824715E+01 -0.99892931846E+02 -0.15254997922E+03  0.32015562179E+03  0.26302797532E+03 0.  0.
         25    1    4    4    0    0  0.45213389784E+01 -0.16666037321E+02 -0.99537070969E+02  0.16078972574E+03  0.12509000000E+03 0.  0.
         25    1    3    3    0    0 -0.81124824715E+01  0.99892931846E+02 -0.21525315669E+03  0.26837630255E+03  0.12509000000E+03 0.  0.
         25    1    4    4    0    0  0.35911434931E+01 -0.83226894525E+02 -0.53012908251E+02  0.15936589605E+03  0.12509000000E+03 0.  0.
<mgrwt>
<rscale>  2 0.45944606E+03</rscale>
<asrwt>0</asrwt>
<pdfrwt beam="1">  1       21 0.16230058E-01 0.45944606E+03</pdfrwt>
<pdfrwt beam="2">  1       21 0.70318755E-01 0.45944606E+03</pdfrwt>
<totfact> 0.57347750E+04</totfact>
</mgrwt>
</event>
<event>
 7    0  0.4714446E-002  0.4332512E+03  0.7546771E-02  0.1032838E+00
         21   -1    0    0  502  501  0.00000000000E+00  0.00000000000E+00  0.15453417294E+03  0.15453417294E+03  0.00000000000E+00 0. -1.
         21   -1    0    0  501  502 -0.00000000000E+00 -0.00000000000E+00 -0.30366514473E+03  0.30366514473E+03  0.00000000000E+00 0. -1.
      99926    2    1    2    0    0  0.00000000000E+00  0.00000000000E+00 -0.14913097179E+03  0.45819931766E+03  0.43325116037E+03 0.  0.
      99925    2    3    3    0    0  0.38780660789E+02  0.68065106518E+02 -0.14535159277E+03  0.31055586138E+03  0.26302292513E+03 0.  0.
         25    1    3    3    0    0 -0.38780660789E+02 -0.68065106518E+02 -0.37793790274E+01  0.14764345628E+03  0.12509000000E+03 0.  0.
         25    1    4    4    0    0  0.34221596371E+02  0.27048858107E+02 -0.11489235644E+03  0.17535826200E+03  0.12509000000E+03 0.  0.
         25    1    4    4    0    0  0.45590644181E+01  0.41016248411E+02 -0.30459236329E+02  0.13519759939E+03  0.12509000000E+03 0.  0.
<mgrwt>
<rscale>  2 0.43325116E+03</rscale>
<asrwt>0</asrwt>
<pdfrwt beam="1">  1       21 0.22725614E-01 0.43325116E+03</pdfrwt>
<pdfrwt beam="2">  1       21 0.44656639E-01 0.43325116E+03</pdfrwt>
<totfact> 0.81506574E+04</totfact>
</mgrwt>
</event>
<event>
 7    0  0.4714446E-002  0.4480064E+03  0.7546771E-02  0.1028318E+00
         21   -1    0    0  502  501  0.00000000000E+00  0.00000000000E+00  0.27644417868E+03  0.27644417868E+03  0.00000000000E+00 0.  1.
         21   -1    0    0  501  502 -0.00000000000E+00 -0.00000000000E+00 -0.18151018294E+03  0.18151018294E+03  0.00000000000E+00 0.  1.
      99926    2    1    2    0    0 -0.17763568394E-14 -0.71054273576E-14  0.94933995747E+02  0.45795436162E+03  0.44800639926E+03 0.  0.
      99925    2    3    3    0    0  0.86646520417E+01  0.60920883412E+02  0.14891018696E+03  0.30846400224E+03  0.26303871705E+03 0.  0.
         25    1    4    4    0    0  0.35356268856E+02  0.31903507159E+02  0.10511230427E+03  0.17018814332E+03  0.12509000000E+03 0.  0.
         25    1    3    3    0    0 -0.86646520417E+01 -0.60920883412E+02 -0.53976191210E+02  0.14949035938E+03  0.12509000000E+03 0.  0.
         25    1    4    4    0    0 -0.26691616815E+02  0.29017376253E+02  0.43797882685E+02  0.13827585892E+03  0.12509000000E+03 0.  0.
<mgrwt>
<rscale>  2 0.44800640E+03</rscale>
<asrwt>0</asrwt>
<pdfrwt beam="1">  1       21 0.40653556E-01 0.44800640E+03</pdfrwt>
<pdfrwt beam="2">  1       21 0.26692674E-01 0.44800640E+03</pdfrwt>
<totfact> 0.72269290E+04</totfact>
</mgrwt>
</event>
<event>
 7    0  0.4714446E-002  0.4612059E+03  0.7546771E-02  0.1024432E+00
         21   -1    0    0  502  501  0.00000000000E+00  0.00000000000E+00  0.14445506490E+03  0.14445506490E+03  0.00000000000E+00 0. -1.
         21   -1    0    0  501  502 -0.00000000000E+00 -0.00000000000E+00 -0.36812634301E+03  0.36812634301E+03  0.00000000000E+00 0. -1.
      99926    2    1    2    0    0  0.00000000000E+00  0.00000000000E+00 -0.22367127811E+03  0.51258140791E+03  0.46120587494E+03 0.  0.
      99925    2    3    3    0    0  0.64530665133E+02  0.69984636067E+02 -0.60851447980E+02  0.28626335469E+03  0.26302424506E+03 0.  0.
         25    1    4    4    0    0  0.71864192202E+02  0.48196935028E+02 -0.25189539391E+02  0.15417336885E+03  0.12509000000E+03 0.  0.
         25    1    4    4    0    0 -0.73335270692E+01  0.21787701039E+02 -0.35661908590E+02  0.13208998584E+03  0.12509000000E+03 0.  0.
         25    1    3    3    0    0 -0.64530665133E+02 -0.69984636067E+02 -0.16281983013E+03  0.22631805321E+03  0.12509000000E+03 0.  0.
<mgrwt>
<rscale>  2 0.46120587E+03</rscale>
<asrwt>0</asrwt>
<pdfrwt beam="1">  1       21 0.21243392E-01 0.46120587E+03</pdfrwt>
<pdfrwt beam="2">  1       21 0.54136226E-01 0.46120587E+03</pdfrwt>
<totfact> 0.61319249E+04</totfact>
</mgrwt>
</event>
<event>
 7    0  0.4714446E-002  0.4552653E+03  0.7546771E-02  0.1026163E+00
         21   -1    0    0  502  501  0.00000000000E+00  0.00000000000E+00  0.10563118114E+04  0.10563118114E+04  0.00000000000E+00 0.  1.
         21   -1    0    0  501  502 -0.00000000000E+00 -0.00000000000E+00 -0.49054280212E+02  0.49054280212E+02  0.00000000000E+00 0.  1.
      99926    2    1    2    0    0  0.00000000000E+00  0.00000000000E+00  0.10072575312E+04  0.11053660917E+04  0.45526526593E+03 0.  0.
      99925    2    3    3    0    0  0.10483484061E+03 -0.32511783057E+02  0.70354645100E+03  0.75904934618E+03  0.26292763524E+03 0.  0.
         25    1    4    4    0    0  0.97630209389E+01 -0.10996343474E+02  0.33105658811E+03  0.35420644938E+03  0.12509000000E+03 0.  0.
         25    1    4    4    0    0  0.95071819669E+02 -0.21515439583E+02  0.37248986289E+03  0.40484289680E+03  0.12509000000E+03 0.  0.
         25    1    3    3    0    0 -0.10483484061E+03  0.32511783057E+02  0.30371108023E+03  0.34631674548E+03  0.12509000000E+03 0.  0.
<mgrwt>
<rscale>  2 0.45526527E+03</rscale>
<asrwt>0</asrwt>
<pdfrwt beam="1">  1       21 0.15533996E+00 0.45526527E+03</pdfrwt>
<pdfrwt beam="2">  1       21 0.72138654E-02 0.45526527E+03</pdfrwt>
<totfact> 0.35234933E+04</totfact>
</mgrwt>
</event>
<event>
 7    0  0.4714446E-002  0.4227113E+03  0.7546771E-02  0.1036187E+00
         21   -1    0    0  502  501  0.00000000000E+00  0.00000000000E+00  0.70585559406E+03  0.70585559406E+03  0.00000000000E+00 0. -1.
         21   -1    0    0  501  502 -0.00000000000E+00 -0.00000000000E+00 -0.63286607492E+02  0.63286607492E+02  0.00000000000E+00 0. -1.
      99926    2    1    2    0    0 -0.17763568394E-14  0.00000000000E+00  0.64256898657E+03  0.76914220155E+03  0.42271127701E+03 0.  0.
      99925    2    3    3    0    0 -0.14178764374E+02  0.32662008031E+02  0.28893993630E+03  0.39235465210E+03  0.26303619923E+03 0.  0.
         25    1    4    4    0    0 -0.40996011776E+02  0.25838282214E+02  0.11748171513E+03  0.17831923985E+03  0.12509000000E+03 0.  0.
         25    1    3    3    0    0  0.14178764374E+02 -0.32662008031E+02  0.35362905027E+03  0.37678754945E+03  0.12509000000E+03 0.  0.
         25    1    4    4    0    0  0.26817247402E+02  0.68237258172E+01  0.17145822117E+03  0.21403541225E+03  0.12509000000E+03 0.  0.
<mgrwt>
<rscale>  2 0.42271128E+03</rscale>
<asrwt>0</asrwt>
<pdfrwt beam="1">  1       21 0.10380229E+00 0.42271128E+03</pdfrwt>
<pdfrwt beam="2">  1       21 0.93068544E-02 0.42271128E+03</pdfrwt>
<totfact> 0.64051174E+04</totfact>
</mgrwt>
</event>
<event>
 7    0  0.4714446E-002  0.4619167E+03  0.7546771E-02  0.1024227E+00
         21   -1    0    0  502  501  0.00000000000E+00  0.00000000000E+00  0.46350972106E+03  0.46350972106E+03  0.00000000000E+00 0. -1.
         21   -1    0    0  501  502 -0.00000000000E+00 -0.00000000000E+00 -0.11508229327E+03  0.11508229327E+03  0.00000000000E+00 0. -1.
      99926    2    1    2    0    0 -0.14210854715E-13  0.14210854715E-13  0.34842742779E+03  0.57859201433E+03  0.46191670960E+03 0.  0.
      99925    2    3    3    0    0 -0.78813844341E+02  0.79028841730E+02  0.16421795433E+03  0.32951809338E+03  0.26297805508E+03 0.  0.
         25    1    4    4    0    0 -0.31219278451E+02  0.17515258086E+01  0.54490570729E+02  0.13998014712E+03  0.12509000000E+03 0.  0.
         25    1    3    3    0    0  0.78813844341E+02 -0.79028841730E+02  0.18420947346E+03  0.24907392095E+03  0.12509000000E+03 0.  0.
         25    1    4    4    0    0 -0.47594565889E+02  0.77277315922E+02  0.10972738360E+03  0.18953794626E+03  0.12509000000E+03 0.  0.
<mgrwt>
<rscale>  2 0.46191671E+03</rscale>
<asrwt>0</asrwt>
<pdfrwt beam="1">  1       21 0.68163194E-01 0.46191671E+03</pdfrwt>
<pdfrwt beam="2">  1       21 0.16923867E-01 0.46191671E+03</pdfrwt>
<totfact> 0.56842914E+04</totfact>
</mgrwt>
</event>
<event>
 6    0  0.4714446E-002  0.4483784E+03  0.7546771E-02  0.1028207E+00
         21   -1    0    0  502  501  0.00000000000E+00  0.00000000000E+00  0.73584063224E+02  0.73584063224E+02  0.00000000000E+00 0.  1.
         21   -1    0    0  501  502 -0.00000000000E+00 -0.00000000000E+00 -0.68303929518E+03  0.68303929518E+03  0.00000000000E+00 0.  1.
      99926    2    1    2    0    0  0.71054273576E-14 -0.17763568394E-14 -0.60945523195E+03  0.75662335840E+03  0.44837844141E+03 0.  0.
         25    1    3    3    0    0 -0.15931051857E+02  0.17867687319E+02 -0.11050996208E+03  0.16862091354E+03  0.12509000000E+03 0.  0.
         25    1    3    3    0    0  0.50262365959E+02  0.70547021545E+01 -0.40226670323E+03  0.42431366097E+03  0.12509000000E+03 0.  0.
         25    1    3    3    0    0 -0.34331314102E+02 -0.24922389474E+02 -0.96678566640E+02  0.16368878389E+03  0.12509000000E+03 0.  0.
<mgrwt>
<rscale>  2 0.44837844E+03</rscale>
<asrwt>0</asrwt>
<pdfrwt beam="1">  1       21 0.10821185E-01 0.44837844E+03</pdfrwt>
<pdfrwt beam="2">  1       21 0.10044696E+00 0.44837844E+03</pdfrwt>
<totfact> 0.52616479E+04</totfact>
</mgrwt>
</event>
<event>
 7    0  0.4714446E-002  0.4471227E+03  0.7546771E-02  0.1028584E+00
         21   -1    0    0  502  501  0.00000000000E+00  0.00000000000E+00  0.97054833576E+03  0.97054833576E+03  0.00000000000E+00 0.  1.
         21   -1    0    0  501  502 -0.00000000000E+00 -0.00000000000E+00 -0.51496334991E+02  0.51496334991E+02  0.00000000000E+00 0.  1.
      99926    2    1    2    0    0  0.00000000000E+00  0.00000000000E+00  0.91905200077E+03  0.10220446707E+04  0.44712272241E+03 0.  0.
      99925    2    3    3    0    0  0.64258918155E+02 -0.18832939425E+02  0.76939890432E+03  0.81582283499E+03  0.26288464380E+03 0.  0.
         25    1    3    3    0    0 -0.64258918155E+02  0.18832939425E+02  0.14965309645E+03  0.20622183576E+03  0.12509000000E+03 0.  0.
         25    1    4    4    0    0  0.64891939387E+02 -0.16478786536E+02  0.48017566474E+03  0.50069820383E+03  0.12509000000E+03 0.  0.
         25    1    4    4    0    0 -0.63302123201E+00 -0.23541528885E+01  0.28922323958E+03  0.31512463116E+03  0.12509000000E+03 0.  0.
<mgrwt>
<rscale>  2 0.44712272E+03</rscale>
<asrwt>0</asrwt>
<pdfrwt beam="1">  1       21 0.14272768E+00 0.44712272E+03</pdfrwt>
<pdfrwt beam="2">  1       21 0.75729911E-02 0.44712272E+03</pdfrwt>
<totfact> 0.40770520E+04</totfact>
</mgrwt>
</event>
<event>
 6    0  0.4714446E-002  0.4509147E+03  0.7546771E-02  0.1027450E+00
         21   -1    0    0  502  501  0.00000000000E+00  0.00000000000E+00  0.21851546833E+03  0.21851546833E+03  0.00000000000E+00 0.  1.
         21   -1    0    0  501  502 -0.00000000000E+00 -0.00000000000E+00 -0.23261978321E+03  0.23261978321E+03  0.00000000000E+00 0.  1.
      99926    2    1    2    0    0  0.00000000000E+00  0.00000000000E+00 -0.14104314878E+02  0.45113525154E+03  0.45091471864E+03 0.  0.
         25    1    3    3    0    0  0.54365532336E+02  0.50219442480E+02  0.30498079106E+02  0.14851008194E+03  0.12509000000E+03 0.  0.
         25    1    3    3    0    0 -0.21791430910E+02  0.49140982690E+02 -0.15827173760E+02  0.13706826828E+03  0.12509000000E+03 0.  0.
         25    1    3    3    0    0 -0.32574101426E+02 -0.99360425170E+02 -0.28775220224E+02  0.16555690131E+03  0.12509000000E+03 0.  0.
<mgrwt>
<rscale>  2 0.45091472E+03</rscale>
<asrwt>0</asrwt>
<pdfrwt beam="1">  1       21 0.32134628E-01 0.45091472E+03</pdfrwt>
<pdfrwt beam="2">  1       21 0.34208791E-01 0.45091472E+03</pdfrwt>
<totfact> 0.71119983E+04</totfact>
</mgrwt>
</event>
<event>
 7    0  0.4714446E-002  0.4501876E+03  0.7546771E-02  0.1027666E+00
         21   -1    0    0  502  501  0.00000000000E+00  0.00000000000E+00  0.11564317969E+04  0.11564317969E+04  0.00000000000E+00 0. -1.
         21   -1    0    0  501  502 -0.00000000000E+00 -0.00000000000E+00 -0.43813406790E+02  0.43813406790E+02  0.00000000000E+00 0. -1.
      99926    2    1    2    0    0 -0.71054273576E-14  0.00000000000E+00  0.11126183901E+04  0.12002452037E+04  0.45018759086E+03 0.  0.
      99925    2    3    3    0    0 -0.40903039582E+02 -0.72294230339E+02  0.88993003562E+03  0.93166164925E+03  0.26290387216E+03 0.  0.
         25    1    4    4    0    0 -0.29812823040E+02  0.29633193161E+01  0.44901329769E+03  0.46707390773E+03  0.12509000000E+03 0.  0.
         25    1    3    3    0    0  0.40903039582E+02  0.72294230339E+02  0.22268835445E+03  0.26858355440E+03  0.12509000000E+03 0.  0.
         25    1    4    4    0    0 -0.11090216543E+02 -0.75257549655E+02  0.44091673793E+03  0.46458774152E+03  0.12509000000E+03 0.  0.
<mgrwt>
<rscale>  2 0.45018759E+03</rscale>
<asrwt>0</asrwt>
<pdfrwt beam="1">  1       21 0.17006348E+00 0.45018759E+03</pdfrwt>
<pdfrwt beam="2">  1       21 0.64431488E-02 0.45018759E+03</pdfrwt>
<totfact> 0.33382165E+04</totfact>
</mgrwt>
</event>
<event>
 7    0  0.4714446E-002  0.4530127E+03  0.7546771E-02  0.1026827E+00
         21   -1    0    0  502  501  0.00000000000E+00  0.00000000000E+00  0.70545387937E+03  0.70545387937E+03  0.00000000000E+00 0.  1.
         21   -1    0    0  501  502 -0.00000000000E+00 -0.00000000000E+00 -0.72726393728E+02  0.72726393728E+02  0.00000000000E+00 0.  1.
      99926    2    1    2    0    0 -0.35527136788E-14  0.00000000000E+00  0.63272748565E+03  0.77818027310E+03  0.45301265584E+03 0.  0.
      99925    2    3    3    0    0 -0.27028488763E+02  0.10206853651E+03  0.33736283489E+03  0.44048764605E+03  0.26280631386E+03 0.  0.
         25    1    4    4    0    0 -0.45118289452E+02  0.26815075377E+02  0.14919224043E+03  0.20164459084E+03  0.12509000000E+03 0.  0.
         25    1    4    4    0    0  0.18089800688E+02  0.75253461136E+02  0.18817059447E+03  0.23884305521E+03  0.12509000000E+03 0.  0.
         25    1    3    3    0    0  0.27028488763E+02 -0.10206853651E+03  0.29536465075E+03  0.33769262705E+03  0.12509000000E+03 0.  0.
<mgrwt>
<rscale>  2 0.45301266E+03</rscale>
<asrwt>0</asrwt>
<pdfrwt beam="1">  1       21 0.10374321E+00 0.45301266E+03</pdfrwt>
<pdfrwt beam="2">  1       21 0.10695058E-01 0.45301266E+03</pdfrwt>
<totfact> 0.49607683E+04</totfact>
</mgrwt>
</event>
<event>
 7    0  0.4714446E-002  0.4434348E+03  0.7546771E-02  0.1029698E+00
         21   -1    0    0  502  501  0.00000000000E+00  0.00000000000E+00  0.16576359485E+03  0.16576359485E+03  0.00000000000E+00 0. -1.
         21   -1    0    0  501  502 -0.00000000000E+00 -0.00000000000E+00 -0.29655847118E+03  0.29655847118E+03  0.00000000000E+00 0. -1.
      99926    2    1    2    0    0  0.00000000000E+00  0.00000000000E+00 -0.13079487633E+03  0.46232206604E+03  0.44343476755E+03 0.  0.
      99925    2    3    3    0    0 -0.49930756788E+02  0.58792037709E+02 -0.15995923164E+02  0.27583911261E+03  0.26435158845E+03 0.  0.
         25    1    4    4    0    0  0.32723261934E+01  0.54583967905E+02  0.11799146522E+02  0.13702863069E+03  0.12509000000E+03 0.  0.
         25    1    4    4    0    0 -0.53203082981E+02  0.42080698036E+01 -0.27795069686E+02  0.13881048191E+03  0.12509000000E+03 0.  0.
         25    1    3    3    0    0  0.49930756788E+02 -0.58792037709E+02 -0.11479895317E+03  0.18648295343E+03  0.12509000000E+03 0.  0.
<mgrwt>
<rscale>  2 0.44343477E+03</rscale>
<asrwt>0</asrwt>
<pdfrwt beam="1">  1       21 0.24376999E-01 0.44343477E+03</pdfrwt>
<pdfrwt beam="2">  1       21 0.43611539E-01 0.44343477E+03</pdfrwt>
<totfact> 0.74626690E+04</totfact>
</mgrwt>
</event>
<event>
 7    0  0.4714446E-002  0.4516829E+03  0.7546771E-02  0.1027221E+00
         21   -1    0    0  502  501  0.00000000000E+00  0.00000000000E+00  0.10590665976E+03  0.10590665976E+03  0.00000000000E+00 0.  1.
         21   -1    0    0  501  502 -0.00000000000E+00 -0.00000000000E+00 -0.48159738900E+03  0.48159738900E+03  0.00000000000E+00 0.  1.
      99926    2    1    2    0    0  0.00000000000E+00  0.00000000000E+00 -0.37569072923E+03  0.58750404876E+03  0.45168294552E+03 0.  0.
      99925    2    3    3    0    0  0.38896354137E+02  0.10286784720E+03 -0.23289476962E+03  0.36811190091E+03  0.26300509030E+03 0.  0.
         25    1    4    4    0    0  0.20229286945E+02  0.87235429346E+02 -0.97284911666E+02  0.18201952181E+03  0.12509000000E+03 0.  0.
         25    1    3    3    0    0 -0.38896354137E+02 -0.10286784720E+03 -0.14279595962E+03  0.21939214785E+03  0.12509000000E+03 0.  0.
         25    1    4    4    0    0  0.18667067192E+02  0.15632417857E+02 -0.13560985795E+03  0.18609237910E+03  0.12509000000E+03 0.  0.
<mgrwt>
<rscale>  2 0.45168295E+03</rscale>
<asrwt>0</asrwt>
<pdfrwt beam="1">  1       21 0.15574509E-01 0.45168295E+03</pdfrwt>
<pdfrwt beam="2">  1       21 0.70823144E-01 0.45168295E+03</pdfrwt>
<totfact> 0.61038728E+04</totfact>
</mgrwt>
</event>
<event>
 7    0  0.4714446E-002  0.4559500E+03  0.7546771E-02  0.1025962E+00
         21   -1    0    0  502  501  0.00000000000E+00  0.00000000000E+00  0.12153642630E+03  0.12153642630E+03  0.00000000000E+00 0. -1.
         21   -1    0    0  501  502 -0.00000000000E+00 -0.00000000000E+00 -0.42762980055E+03  0.42762980055E+03  0.00000000000E+00 0. -1.
      99926    2    1    2    0    0  0.00000000000E+00  0.00000000000E+00 -0.30609337425E+03  0.54916622685E+03  0.45594998734E+03 0.  0.
      99925    2    3    3    0    0 -0.10321206683E+02  0.95737513110E+02 -0.11855286666E+03  0.30403126646E+03  0.26288406202E+03 0.  0.
         25    1    4    4    0    0 -0.37951309947E+01  0.21648179822E+02 -0.90165199641E+02  0.15575724072E+03  0.12509000000E+03 0.  0.
         25    1    3    3    0    0  0.10321206683E+02 -0.95737513110E+02 -0.18754050758E+03  0.24513496040E+03  0.12509000000E+03 0.  0.
         25    1    4    4    0    0 -0.65260756879E+01  0.74089333288E+02 -0.28387667022E+02  0.14827402574E+03  0.12509000000E+03 0.  0.
<mgrwt>
<rscale>  2 0.45594999E+03</rscale>
<asrwt>0</asrwt>
<pdfrwt beam="1">  1       21 0.17873004E-01 0.45594999E+03</pdfrwt>
<pdfrwt beam="2">  1       21 0.62886734E-01 0.45594999E+03</pdfrwt>
<totfact> 0.61458393E+04</totfact>
</mgrwt>
</event>
<event>
 7    0  0.4714446E-002  0.4547569E+03  0.7546771E-02  0.1026313E+00
         21   -1    0    0  502  501  0.00000000000E+00  0.00000000000E+00  0.50240155276E+02  0.50240155276E+02  0.00000000000E+00 0.  1.
         21   -1    0    0  501  502 -0.00000000000E+00 -0.00000000000E+00 -0.10290765213E+04  0.10290765213E+04  0.00000000000E+00 0.  1.
      99926    2    1    2    0    0  0.14210854715E-13  0.00000000000E+00 -0.97883636607E+03  0.10793166766E+04  0.45475692066E+03 0.  0.
      99925    2    3    3    0    0  0.99879402886E+02 -0.30938146575E+02 -0.51408318205E+03  0.58679653065E+03  0.26289843339E+03 0.  0.
         25    1    4    4    0    0  0.36050860736E+02 -0.53365925972E+02 -0.25213463473E+03  0.28873338696E+03  0.12509000000E+03 0.  0.
         25    1    3    3    0    0 -0.99879402886E+02  0.30938146575E+02 -0.46475318402E+03  0.49252014597E+03  0.12509000000E+03 0.  0.
         25    1    4    4    0    0  0.63828542150E+02  0.22427779397E+02 -0.26194854732E+03  0.29806314369E+03  0.12509000000E+03 0.  0.
<mgrwt>
<rscale>  2 0.45475692E+03</rscale>
<asrwt>0</asrwt>
<pdfrwt beam="1">  1       21 0.73882580E-02 0.45475692E+03</pdfrwt>
<pdfrwt beam="2">  1       21 0.15133479E+00 0.45475692E+03</pdfrwt>
<totfact> 0.36288493E+04</totfact>
</mgrwt>
</event>
<event>
 7    0  0.4714446E-002  0.4440598E+03  0.7546771E-02  0.1029508E+00
         21   -1    0    0  502  501  0.00000000000E+00  0.00000000000E+00  0.10713894304E+04  0.10713894304E+04  0.00000000000E+00 0. -1.
         21   -1    0    0  501  502 -0.00000000000E+00 -0.00000000000E+00 -0.46012476172E+02  0.46012476172E+02  0.00000000000E+00 0. -1.
      99926    2    1    2    0    0 -0.71054273576E-14 -0.14210854715E-13  0.10253769542E+04  0.11174019065E+04  0.44405981865E+03 0.  0.
      99925    2    3    3    0    0 -0.38380443562E+02 -0.76943479076E+02  0.51146155558E+03  0.58153820889E+03  0.26305970453E+03 0.  0.
         25    1    4    4    0    0 -0.42079673507E+02 -0.48636109230E+01  0.25714917820E+03  0.28908054515E+03  0.12509000000E+03 0.  0.
         25    1    3    3    0    0  0.38380443562E+02  0.76943479076E+02  0.51391539861E+03  0.53586369764E+03  0.12509000000E+03 0.  0.
         25    1    4    4    0    0  0.36992299449E+01 -0.72079868153E+02  0.25431237738E+03  0.29245766375E+03  0.12509000000E+03 0.  0.
<mgrwt>
<rscale>  2 0.44405982E+03</rscale>
<asrwt>0</asrwt>
<pdfrwt beam="1">  1       21 0.15755725E+00 0.44405982E+03</pdfrwt>
<pdfrwt beam="2">  1       21 0.67665413E-02 0.44405982E+03</pdfrwt>
<totfact> 0.38031311E+04</totfact>
</mgrwt>
</event>
<event>
 7    0  0.4714446E-002  0.4554120E+03  0.7546771E-02  0.1026120E+00
         21   -1    0    0  502  501  0.00000000000E+00  0.00000000000E+00  0.10027389344E+03  0.10027389344E+03  0.00000000000E+00 0. -1.
         21   -1    0    0  501  502 -0.00000000000E+00 -0.00000000000E+00 -0.51708389536E+03  0.51708389536E+03  0.00000000000E+00 0. -1.
      99926    2    1    2    0    0  0.00000000000E+00  0.00000000000E+00 -0.41681000192E+03  0.61735778880E+03  0.45541196920E+03 0.  0.
      99925    2    3    3    0    0 -0.83379699176E+02  0.51733324858E+02 -0.18539401423E+03  0.33659208827E+03  0.26323902111E+03 0.  0.
         25    1    3    3    0    0  0.83379699176E+02 -0.51733324858E+02 -0.23141598770E+03  0.28076570054E+03  0.12509000000E+03 0.  0.
         25    1    4    4    0    0 -0.21324929627E+02  0.55528544762E+02 -0.11572905115E+03  0.18049624175E+03  0.12509000000E+03 0.  0.
         25    1    4    4    0    0 -0.62054769549E+02 -0.37952199038E+01 -0.69664963076E+02  0.15609584651E+03  0.12509000000E+03 0.  0.
<mgrwt>
<rscale>  2 0.45541197E+03</rscale>
<asrwt>0</asrwt>
<pdfrwt beam="1">  1       21 0.14746161E-01 0.45541197E+03</pdfrwt>
<pdfrwt beam="2">  1       21 0.76041749E-01 0.45541197E+03</pdfrwt>
<totfact> 0.57435286E+04</totfact>
</mgrwt>
</event>
<event>
 7    0  0.4714446E-002  0.4526727E+03  0.7546771E-02  0.1026928E+00
         21   -1    0    0  502  501  0.00000000000E+00  0.00000000000E+00  0.20802742124E+03  0.20802742124E+03  0.00000000000E+00 0. -1.
         21   -1    0    0  501  502 -0.00000000000E+00 -0.00000000000E+00 -0.24625668264E+03  0.24625668264E+03  0.00000000000E+00 0. -1.
      99926    2    1    2    0    0  0.00000000000E+00 -0.71054273576E-14 -0.38229261402E+02  0.45428410387E+03  0.45267269700E+03 0.  0.
      99925    2    3    3    0    0 -0.19769487914E+02 -0.47422765089E+02  0.74090216790E+02  0.27849182707E+03  0.26349304777E+03 0.  0.
         25    1    4    4    0    0 -0.16238901730E+01 -0.14756042325E+02 -0.46115028393E+01  0.12605217913E+03  0.12509000000E+03 0.  0.
         25    1    3    3    0    0  0.19769487914E+02  0.47422765089E+02 -0.11231947819E+03  0.17579227680E+03  0.12509000000E+03 0.  0.
         25    1    4    4    0    0 -0.18145597741E+02 -0.32666722764E+02  0.78701719629E+02  0.15243964795E+03  0.12509000000E+03 0.  0.
<mgrwt>
<rscale>  2 0.45267270E+03</rscale>
<asrwt>0</asrwt>
<pdfrwt beam="1">  1       21 0.30592268E-01 0.45267270E+03</pdfrwt>
<pdfrwt beam="2">  1       21 0.36214218E-01 0.45267270E+03</pdfrwt>
<totfact> 0.69887027E+04</totfact>
</mgrwt>
</event>
<event>
 7    0  0.4714446E-002  0.4589106E+03  0.7546771E-02  0.1025098E+00
         21   -1    0    0  502  501  0.00000000000E+00  0.00000000000E+00  0.58017431487E+03  0.58017431487E+03  0.00000000000E+00 0. -1.
         21   -1    0    0  501  502 -0.00000000000E+00 -0.00000000000E+00 -0.90748125074E+02  0.90748125074E+02  0.00000000000E+00 0. -1.
      99926    2    1    2    0    0  0.14210854715E-13  0.00000000000E+00  0.48942618980E+03  0.67092243995E+03  0.45891058515E+03 0.  0.
      99925    2    3    3    0    0  0.10371961780E+03 -0.18740703705E+02  0.23320955715E+03  0.36694309190E+03  0.26296684593E+03 0.  0.
         25    1    4    4    0    0  0.16271636627E+02 -0.18195128315E+02  0.13386271353E+03  0.18483117439E+03  0.12509000000E+03 0.  0.
         25    1    3    3    0    0 -0.10371961780E+03  0.18740703705E+02  0.25621663265E+03  0.30397934804E+03  0.12509000000E+03 0.  0.
         25    1    4    4    0    0  0.87447981168E+02 -0.54557539050E+00  0.99346843615E+02  0.18211191751E+03  0.12509000000E+03 0.  0.
<mgrwt>
<rscale>  2 0.45891059E+03</rscale>
<asrwt>0</asrwt>
<pdfrwt beam="1">  1       21 0.85319750E-01 0.45891059E+03</pdfrwt>
<pdfrwt beam="2">  1       21 0.13345313E-01 0.45891059E+03</pdfrwt>
<totfact> 0.52861884E+04</totfact>
</mgrwt>
</event>
<event>
 7    0  0.4714446E-002  0.4554726E+03  0.7546771E-02  0.1026103E+00
         21   -1    0    0  502  501  0.00000000000E+00  0.00000000000E+00  0.36689498298E+03  0.36689498298E+03  0.00000000000E+00 0.  1.
         21   -1    0    0  501  502 -0.00000000000E+00 -0.00000000000E+00 -0.14135879222E+03  0.14135879222E+03  0.00000000000E+00 0.  1.
      99926    2    1    2    0    0  0.00000000000E+00  0.71054273576E-14  0.22553619075E+03  0.50825377520E+03  0.45547264096E+03 0.  0.
      99925    2    3    3    0    0 -0.49384789825E+02  0.52055871396E+02  0.43730213790E+02  0.27619862535E+03  0.26310583010E+03 0.  0.
         25    1    4    4    0    0 -0.20735716107E+02  0.29868222249E+01 -0.13124311863E+02  0.12750939844E+03  0.12509000000E+03 0.  0.
         25    1    4    4    0    0 -0.28649073717E+02  0.49069049171E+02  0.56854525653E+02  0.14868922691E+03  0.12509000000E+03 0.  0.
         25    1    3    3    0    0  0.49384789825E+02 -0.52055871396E+02  0.18180597696E+03  0.23205514985E+03  0.12509000000E+03 0.  0.
<mgrwt>
<rscale>  2 0.45547264E+03</rscale>
<asrwt>0</asrwt>
<pdfrwt beam="1">  1       21 0.53955144E-01 0.45547264E+03</pdfrwt>
<pdfrwt beam="2">  1       21 0.20788058E-01 0.45547264E+03</pdfrwt>
<totfact> 0.64452497E+04</totfact>
</mgrwt>
</event>
<event>
 7    0  0.4714446E-002  0.4012933E+03  0.7546771E-02  0.1043333E+00
         21   -1    0    0  502  501  0.00000000000E+00  0.00000000000E+00  0.77388179317E+03  0.77388179317E+03  0.00000000000E+00 0. -1.
         21   -1    0    0  501  502 -0.00000000000E+00 -0.00000000000E+00 -0.52022263822E+02  0.52022263822E+02  0.00000000000E+00 0. -1.
      99926    2    1    2    0    0  0.00000000000E+00 -0.88817841970E-15  0.72185952935E+03  0.82590405699E+03  0.40129332320E+03 0.  0.
      99925    2    3    3    0    0 -0.47718058995E+02 -0.40134239885E+01  0.47423614801E+03  0.54437614041E+03  0.26296832024E+03 0.  0.
         25    1    4    4    0    0 -0.58231838676E+02  0.81079425873E-01  0.29312422685E+03  0.32397573069E+03  0.12509000000E+03 0.  0.
         25    1    3    3    0    0  0.47718058995E+02  0.40134239885E+01  0.24762338134E+03  0.28152791658E+03  0.12509000000E+03 0.  0.
         25    1    4    4    0    0  0.10513779681E+02 -0.40945034144E+01  0.18111192116E+03  0.22040040972E+03  0.12509000000E+03 0.  0.
<mgrwt>
<rscale>  2 0.40129332E+03</rscale>
<asrwt>0</asrwt>
<pdfrwt beam="1">  1       21 0.11380614E+00 0.40129332E+03</pdfrwt>
<pdfrwt beam="2">  1       21 0.76503334E-02 0.40129332E+03</pdfrwt>
<totfact> 0.72638133E+04</totfact>
</mgrwt>
</event>
<event>
 7    0  0.4714446E-002  0.4610922E+03  0.7546771E-02  0.1024465E+00
         21   -1    0    0  502  501  0.00000000000E+00  0.00000000000E+00  0.11868212708E+04  0.11868212708E+04  0.00000000000E+00 0.  1.
         21   -1    0    0  501  502 -0.00000000000E+00 -0.00000000000E+00 -0.44784765895E+02  0.44784765895E+02  0.00000000000E+00 0.  1.
      99926    2    1    2    0    0  0.00000000000E+00  0.00000000000E+00  0.11420365049E+04  0.12316060367E+04  0.46109223707E+03 0.  0.
      99925    2    3    3    0    0 -0.11281679521E+03 -0.36910657873E+02  0.72078302212E+03  0.77642252336E+03  0.26308505063E+03 0.  0.
         25    1    4    4    0    0 -0.35416632102E+02 -0.53388028414E+02  0.35910550835E+03  0.38562792123E+03  0.12509000000E+03 0.  0.
         25    1    4    4    0    0 -0.77400163109E+02  0.16477370541E+02  0.36167751377E+03  0.39079460213E+03  0.12509000000E+03 0.  0.
         25    1    3    3    0    0  0.11281679521E+03  0.36910657873E+02  0.42125348276E+03  0.45518351330E+03  0.12509000000E+03 0.  0.
<mgrwt>
<rscale>  2 0.46109224E+03</rscale>
<asrwt>0</asrwt>
<pdfrwt beam="1">  1       21 0.17453252E+00 0.46109224E+03</pdfrwt>
<pdfrwt beam="2">  1       21 0.65859957E-02 0.46109224E+03</pdfrwt>
<totfact> 0.29731981E+04</totfact>
</mgrwt>
</event>
<event>
 7    0  0.4714446E-002  0.4649449E+03  0.7546771E-02  0.1023357E+00
         21   -1    0    0  502  501  0.00000000000E+00  0.00000000000E+00  0.10262956624E+03  0.10262956624E+03  0.00000000000E+00 0. -1.
         21   -1    0    0  501  502 -0.00000000000E+00 -0.00000000000E+00 -0.52658739905E+03  0.52658739905E+03  0.00000000000E+00 0. -1.
      99926    2    1    2    0    0 -0.71054273576E-14  0.00000000000E+00 -0.42395783282E+03  0.62921696529E+03  0.46494488426E+03 0.  0.
      99925    2    3    3    0    0  0.63488390473E+02 -0.13237649617E+02 -0.12415895598E+03  0.29795742091E+03  0.26297750328E+03 0.  0.
         25    1    4    4    0    0  0.21680722587E+02  0.98087830942E+01 -0.21263479824E+02  0.12909651286E+03  0.12509000000E+03 0.  0.
         25    1    3    3    0    0 -0.63488390473E+02  0.13237649617E+02 -0.29979887683E+03  0.33125954438E+03  0.12509000000E+03 0.  0.
         25    1    4    4    0    0  0.41807667885E+02 -0.23046432711E+02 -0.10289547616E+03  0.16886090805E+03  0.12509000000E+03 0.  0.
<mgrwt>
<rscale>  2 0.46494488E+03</rscale>
<asrwt>0</asrwt>
<pdfrwt beam="1">  1       21 0.15092583E-01 0.46494488E+03</pdfrwt>
<pdfrwt beam="2">  1       21 0.77439324E-01 0.46494488E+03</pdfrwt>
<totfact> 0.52657303E+04</totfact>
</mgrwt>
</event>
<event>
 7    0  0.4714446E-002  0.4534264E+03  0.7546771E-02  0.1026705E+00
         21   -1    0    0  502  501  0.00000000000E+00  0.00000000000E+00  0.62235204232E+03  0.62235204232E+03  0.00000000000E+00 0. -1.
         21   -1    0    0  501  502 -0.00000000000E+00 -0.00000000000E+00 -0.82588092696E+02  0.82588092696E+02  0.00000000000E+00 0. -1.
      99926    2    1    2    0    0  0.00000000000E+00  0.00000000000E+00  0.53976394962E+03  0.70494013502E+03  0.45342636959E+03 0.  0.
      99925    2    3    3    0    0  0.32373066450E+02  0.65235619676E+02  0.47070349494E+03  0.54456383999E+03  0.26397782893E+03 0.  0.
         25    1    4    4    0    0  0.21468412772E+02  0.31255730420E+02  0.15282222183E+03  0.20109687471E+03  0.12509000000E+03 0.  0.
         25    1    4    4    0    0  0.10904653677E+02  0.33979889256E+02  0.31788127311E+03  0.34346696528E+03  0.12509000000E+03 0.  0.
         25    1    3    3    0    0 -0.32373066450E+02 -0.65235619676E+02  0.69060454679E+02  0.16037629503E+03  0.12509000000E+03 0.  0.
<mgrwt>
<rscale>  2 0.45342637E+03</rscale>
<asrwt>0</asrwt>
<pdfrwt beam="1">  1       21 0.91522356E-01 0.45342637E+03</pdfrwt>
<pdfrwt beam="2">  1       21 0.12145308E-01 0.45342637E+03</pdfrwt>
<totfact> 0.53292389E+04</totfact>
</mgrwt>
</event>
<event>
 7    0  0.4714446E-002  0.4555864E+03  0.7546771E-02  0.1026069E+00
         21   -1    0    0  502  501  0.00000000000E+00  0.00000000000E+00  0.18721155382E+04  0.18721155382E+04  0.00000000000E+00 0. -1.
         21   -1    0    0  501  502 -0.00000000000E+00 -0.00000000000E+00 -0.27717169036E+02  0.27717169036E+02  0.00000000000E+00 0. -1.
      99926    2    1    2    0    0  0.00000000000E+00  0.00000000000E+00  0.18443983692E+04  0.18998327073E+04  0.45558640378E+03 0.  0.
      99925    2    3    3    0    0  0.94357613065E+02  0.40656847413E+02  0.95674679378E+03  0.99754164235E+03  0.26299916813E+03 0.  0.
         25    1    4    4    0    0  0.37954888867E+02  0.25713317177E+00  0.33614167427E+03  0.36066518128E+03  0.12509000000E+03 0.  0.
         25    1    3    3    0    0 -0.94357613065E+02 -0.40656847413E+02  0.88765157541E+03  0.90229106491E+03  0.12509000000E+03 0.  0.
         25    1    4    4    0    0  0.56402724199E+02  0.40399714241E+02  0.62060511951E+03  0.63687646107E+03  0.12509000000E+03 0.  0.
<mgrwt>
<rscale>  2 0.45558640E+03</rscale>
<asrwt>0</asrwt>
<pdfrwt beam="1">  1       21 0.27531102E+00 0.45558640E+03</pdfrwt>
<pdfrwt beam="2">  1       21 0.40760555E-02 0.45558640E+03</pdfrwt>
<totfact> 0.15344902E+04</totfact>
</mgrwt>
</event>
<event>
 7    0  0.4714446E-002  0.4543134E+03  0.7546771E-02  0.1026444E+00
         21   -1    0    0  502  501  0.00000000000E+00  0.00000000000E+00  0.46324633818E+03  0.46324633818E+03  0.00000000000E+00 0.  1.
         21   -1    0    0  501  502 -0.00000000000E+00 -0.00000000000E+00 -0.11138816881E+03  0.11138816881E+03  0.00000000000E+00 0.  1.
      99926    2    1    2    0    0  0.00000000000E+00  0.00000000000E+00  0.35185816937E+03  0.57463450700E+03  0.45431337783E+03 0.  0.
      99925    2    3    3    0    0 -0.93030390749E+02 -0.37266693654E+02  0.15695161026E+03  0.32228646373E+03  0.26304238571E+03 0.  0.
         25    1    4    4    0    0 -0.58073657253E+02 -0.31209054072E+02  0.12420005133E+03  0.18820126347E+03  0.12509000000E+03 0.  0.
         25    1    3    3    0    0  0.93030390749E+02  0.37266693654E+02  0.19490655911E+03  0.25234804327E+03  0.12509000000E+03 0.  0.
         25    1    4    4    0    0 -0.34956733496E+02 -0.60576395817E+01  0.32751558928E+02  0.13408520025E+03  0.12509000000E+03 0.  0.
<mgrwt>
<rscale>  2 0.45431338E+03</rscale>
<asrwt>0</asrwt>
<pdfrwt beam="1">  1       21 0.68124461E-01 0.45431338E+03</pdfrwt>
<pdfrwt beam="2">  1       21 0.16380613E-01 0.45431338E+03</pdfrwt>
<totfact> 0.60595697E+04</totfact>
</mgrwt>
</event>
<event>
 7    0  0.4714446E-002  0.4542231E+03  0.7546771E-02  0.1026470E+00
         21   -1    0    0  502  501  0.00000000000E+00  0.00000000000E+00  0.25354721128E+03  0.25354721128E+03  0.00000000000E+00 0.  1.
         21   -1    0    0  501  502 -0.00000000000E+00 -0.00000000000E+00 -0.20343211245E+03  0.20343211245E+03  0.00000000000E+00 0.  1.
      99926    2    1    2    0    0  0.00000000000E+00  0.00000000000E+00  0.50115098831E+02  0.45697932374E+03  0.45422305005E+03 0.  0.
      99925    2    3    3    0    0  0.65146325034E+02  0.84305783240E+02  0.68368580445E+02  0.29165477491E+03  0.26274842756E+03 0.  0.
         25    1    4    4    0    0  0.65486995890E+02  0.66525903023E+02  0.25004916710E+02  0.15807275655E+03  0.12509000000E+03 0.  0.
         25    1    4    4    0    0 -0.34067085606E+00  0.17779880218E+02  0.43363663735E+02  0.13358201836E+03  0.12509000000E+03 0.  0.
         25    1    3    3    0    0 -0.65146325034E+02 -0.84305783240E+02 -0.18253481614E+02  0.16532454882E+03  0.12509000000E+03 0.  0.
<mgrwt>
<rscale>  2 0.45422305E+03</rscale>
<asrwt>0</asrwt>
<pdfrwt beam="1">  1       21 0.37286355E-01 0.45422305E+03</pdfrwt>
<pdfrwt beam="2">  1       21 0.29916487E-01 0.45422305E+03</pdfrwt>
<totfact> 0.68826636E+04</totfact>
</mgrwt>
</event>
<event>
 7    0  0.4714446E-002  0.4451714E+03  0.7546771E-02  0.1029172E+00
         21   -1    0    0  502  501  0.00000000000E+00  0.00000000000E+00  0.50451512184E+03  0.50451512184E+03  0.00000000000E+00 0. -1.
         21   -1    0    0  501  502 -0.00000000000E+00 -0.00000000000E+00 -0.98202012680E+02  0.98202012680E+02  0.00000000000E+00 0. -1.
      99926    2    1    2    0    0  0.00000000000E+00  0.00000000000E+00  0.40631310916E+03  0.60271713452E+03  0.44517142942E+03 0.  0.
      99925    2    3    3    0    0  0.33524546012E+02  0.50040736896E+02  0.14376744638E+03  0.30572268393E+03  0.26300058992E+03 0.  0.
         25    1    4    4    0    0 -0.11257284951E+02  0.37030784402E+02  0.10155751052E+03  0.16570890592E+03  0.12509000000E+03 0.  0.
         25    1    3    3    0    0 -0.33524546012E+02 -0.50040736896E+02  0.26254566278E+03  0.29699445059E+03  0.12509000000E+03 0.  0.
         25    1    4    4    0    0  0.44781830963E+02  0.13009952494E+02  0.42209935859E+02  0.14001377801E+03  0.12509000000E+03 0.  0.
<mgrwt>
<rscale>  2 0.44517143E+03</rscale>
<asrwt>0</asrwt>
<pdfrwt beam="1">  1       21 0.74193399E-01 0.44517143E+03</pdfrwt>
<pdfrwt beam="2">  1       21 0.14441473E-01 0.44517143E+03</pdfrwt>
<totfact> 0.63283909E+04</totfact>
</mgrwt>
</event>
<event>
 7    0  0.4714446E-002  0.4532392E+03  0.7546771E-02  0.1026760E+00
         21   -1    0    0  502  501  0.00000000000E+00  0.00000000000E+00  0.16669998988E+03  0.16669998988E+03  0.00000000000E+00 0.  1.
         21   -1    0    0  501  502 -0.00000000000E+00 -0.00000000000E+00 -0.30807704137E+03  0.30807704137E+03  0.00000000000E+00 0.  1.
      99926    2    1    2    0    0 -0.14210854715E-13  0.00000000000E+00 -0.14137705149E+03  0.47477703124E+03  0.45323918488E+03 0.  0.
      99925    2    3    3    0    0  0.79271316790E+02 -0.47657379772E+02 -0.15413706850E+03  0.31868252895E+03  0.26314473368E+03 0.  0.
         25    1    3    3    0    0 -0.79271316790E+02  0.47657379772E+02  0.12760017005E+02  0.15609450229E+03  0.12509000000E+03 0.  0.
         25    1    4    4    0    0  0.48653659438E+02 -0.51563141252E+02 -0.47470184950E+02  0.15141619026E+03  0.12509000000E+03 0.  0.
         25    1    4    4    0    0  0.30617657352E+02  0.39057614809E+01 -0.10666688355E+03  0.16726633869E+03  0.12509000000E+03 0.  0.
<mgrwt>
<rscale>  2 0.45323918E+03</rscale>
<asrwt>0</asrwt>
<pdfrwt beam="1">  1       21 0.24514705E-01 0.45323918E+03</pdfrwt>
<pdfrwt beam="2">  1       21 0.45305447E-01 0.45323918E+03</pdfrwt>
<totfact> 0.68027973E+04</totfact>
</mgrwt>
</event>
<event>
 7    0  0.4714446E-002  0.4601131E+03  0.7546771E-02  0.1024748E+00
         21   -1    0    0  502  501  0.00000000000E+00  0.00000000000E+00  0.74227018202E+03  0.74227018202E+03  0.00000000000E+00 0.  1.
         21   -1    0    0  501  502 -0.00000000000E+00 -0.00000000000E+00 -0.71302907967E+02  0.71302907967E+02  0.00000000000E+00 0.  1.
      99926    2    1    2    0    0  0.00000000000E+00  0.00000000000E+00  0.67096727405E+03  0.81357308998E+03  0.46011312728E+03 0.  0.
      99925    2    3    3    0    0 -0.58750680412E+02 -0.65295973002E+01  0.60073681124E+03  0.65841477053E+03  0.26292777636E+03 0.  0.
         25    1    4    4    0    0 -0.70449564051E+02 -0.29128105160E+01  0.30736843841E+03  0.33925578930E+03  0.12509000000E+03 0.  0.
         25    1    3    3    0    0  0.58750680412E+02  0.65295973002E+01  0.70230462813E+02  0.15515831946E+03  0.12509000000E+03 0.  0.
         25    1    4    4    0    0  0.11698883638E+02 -0.36167867842E+01  0.29336837283E+03  0.31915898123E+03  0.12509000000E+03 0.  0.
<mgrwt>
<rscale>  2 0.46011313E+03</rscale>
<asrwt>0</asrwt>
<pdfrwt beam="1">  1       21 0.10915738E+00 0.46011313E+03</pdfrwt>
<pdfrwt beam="2">  1       21 0.10485722E-01 0.46011313E+03</pdfrwt>
<totfact> 0.45271364E+04</totfact>
</mgrwt>
</event>
<event>
 7    0  0.4714446E-002  0.4520364E+03  0.7546771E-02  0.1027116E+00
         21   -1    0    0  502  501  0.00000000000E+00  0.00000000000E+00  0.23469249286E+04  0.23469249286E+04  0.00000000000E+00 0.  1.
         21   -1    0    0  501  502 -0.00000000000E+00 -0.00000000000E+00 -0.21766455238E+02  0.21766455238E+02  0.00000000000E+00 0.  1.
      99926    2    1    2    0    0  0.00000000000E+00  0.00000000000E+00  0.23251584734E+04  0.23686913839E+04  0.45203644281E+03 0.  0.
      99925    2    3    3    0    0 -0.44065734961E+02  0.98412486381E+02  0.15858544859E+04  0.16111660044E+04  0.26323874507E+03 0.  0.
         25    1    3    3    0    0  0.44065734961E+02 -0.98412486381E+02  0.73930398754E+03  0.75752537949E+03  0.12509000000E+03 0.  0.
         25    1    4    4    0    0 -0.46549960600E+02  0.85141918590E+02  0.84453534405E+03  0.85924589064E+03  0.12509000000E+03 0.  0.
         25    1    4    4    0    0  0.24842256389E+01  0.13270567791E+02  0.74131914180E+03  0.75192011374E+03  0.12509000000E+03 0.  0.
<mgrwt>
<rscale>  2 0.45203644E+03</rscale>
<asrwt>0</asrwt>
<pdfrwt beam="1">  1       21 0.34513585E+00 0.45203644E+03</pdfrwt>
<pdfrwt beam="2">  1       21 0.32009509E-02 0.45203644E+03</pdfrwt>
<totfact> 0.87705568E+03</totfact>
</mgrwt>
</event>
<event>
 7    0  0.4714446E-002  0.4521917E+03  0.7546771E-02  0.1027070E+00
         21   -1    0    0  502  501  0.00000000000E+00  0.00000000000E+00  0.57110260916E+02  0.57110260916E+02  0.00000000000E+00 0. -1.
         21   -1    0    0  501  502 -0.00000000000E+00 -0.00000000000E+00 -0.89509879126E+03  0.89509879126E+03  0.00000000000E+00 0. -1.
      99926    2    1    2    0    0  0.00000000000E+00  0.00000000000E+00 -0.83798853035E+03  0.95220905218E+03  0.45219166518E+03 0.  0.
      99925    2    3    3    0    0 -0.10725707429E+03  0.26077221815E+02 -0.51587497579E+03  0.58945741316E+03  0.26296187898E+03 0.  0.
         25    1    3    3    0    0  0.10725707429E+03 -0.26077221815E+02 -0.32211355456E+03  0.36275163902E+03  0.12509000000E+03 0.  0.
         25    1    4    4    0    0 -0.22259107822E+02 -0.13741189880E+02 -0.20758151293E+03  0.24376603699E+03  0.12509000000E+03 0.  0.
         25    1    4    4    0    0 -0.84997966467E+02  0.39818411694E+02 -0.30829346286E+03  0.34569137616E+03  0.12509000000E+03 0.  0.
<mgrwt>
<rscale>  2 0.45219167E+03</rscale>
<asrwt>0</asrwt>
<pdfrwt beam="1">  1       21 0.83985683E-02 0.45219167E+03</pdfrwt>
<pdfrwt beam="2">  1       21 0.13163217E+00 0.45219167E+03</pdfrwt>
<totfact> 0.41965500E+04</totfact>
</mgrwt>
</event>
<event>
 7    0  0.4714446E-002  0.4616537E+03  0.7546771E-02  0.1024303E+00
         21   -1    0    0  502  501  0.00000000000E+00  0.00000000000E+00  0.24263361630E+03  0.24263361630E+03  0.00000000000E+00 0.  1.
         21   -1    0    0  501  502 -0.00000000000E+00 -0.00000000000E+00 -0.21959459586E+03  0.21959459586E+03  0.00000000000E+00 0.  1.
      99926    2    1    2    0    0  0.00000000000E+00  0.17763568394E-14  0.23039020441E+02  0.46222821216E+03  0.46165368368E+03 0.  0.
      99925    2    3    3    0    0 -0.42392560485E+02  0.11984320770E+02  0.12548026294E+03  0.29464996360E+03  0.26293069720E+03 0.  0.
         25    1    4    4    0    0  0.19154032198E+02  0.26887706139E+01  0.66611097576E+02  0.14303374727E+03  0.12509000000E+03 0.  0.
         25    1    3    3    0    0  0.42392560485E+02 -0.11984320770E+02 -0.10244124250E+03  0.16757824857E+03  0.12509000000E+03 0.  0.
         25    1    4    4    0    0 -0.61546592683E+02  0.92955501561E+01  0.58869165361E+02  0.15161621633E+03  0.12509000000E+03 0.  0.
<mgrwt>
<rscale>  2 0.46165368E+03</rscale>
<asrwt>0</asrwt>
<pdfrwt beam="1">  1       21 0.35681414E-01 0.46165368E+03</pdfrwt>
<pdfrwt beam="2">  1       21 0.32293323E-01 0.46165368E+03</pdfrwt>
<totfact> 0.64525284E+04</totfact>
</mgrwt>
</event>
<event>
 7    0  0.4714446E-002  0.4536886E+03  0.7546771E-02  0.1026628E+00
         21   -1    0    0  502  501  0.00000000000E+00  0.00000000000E+00  0.65973115426E+03  0.65973115426E+03  0.00000000000E+00 0. -1.
         21   -1    0    0  501  502 -0.00000000000E+00 -0.00000000000E+00 -0.77998931797E+02  0.77998931797E+02  0.00000000000E+00 0. -1.
      99926    2    1    2    0    0  0.00000000000E+00  0.00000000000E+00  0.58173222246E+03  0.73773008605E+03  0.45368855090E+03 0.  0.
      99925    2    3    3    0    0  0.73318741085E+02 -0.83848956147E+02  0.38505675668E+03  0.47939884098E+03  0.26296056287E+03 0.  0.
         25    1    4    4    0    0  0.63004216640E+02 -0.40352300962E+02  0.25365110280E+03  0.29254782440E+03  0.12509000000E+03 0.  0.
         25    1    4    4    0    0  0.10314524446E+02 -0.43496655185E+02  0.13140565388E+03  0.18685101659E+03  0.12509000000E+03 0.  0.
         25    1    3    3    0    0 -0.73318741085E+02  0.83848956147E+02  0.19667546578E+03  0.25833124507E+03  0.12509000000E+03 0.  0.
<mgrwt>
<rscale>  2 0.45368855E+03</rscale>
<asrwt>0</asrwt>
<pdfrwt beam="1">  1       21 0.97019284E-01 0.45368855E+03</pdfrwt>
<pdfrwt beam="2">  1       21 0.11470432E-01 0.45368855E+03</pdfrwt>
<totfact> 0.51430104E+04</totfact>
</mgrwt>
</event>
<event>
 7    0  0.4714446E-002  0.4654750E+03  0.7546771E-02  0.1023205E+00
         21   -1    0    0  502  501  0.00000000000E+00  0.00000000000E+00  0.10128421343E+03  0.10128421343E+03  0.00000000000E+00 0. -1.
         21   -1    0    0  501  502 -0.00000000000E+00 -0.00000000000E+00 -0.53479950341E+03  0.53479950341E+03  0.00000000000E+00 0. -1.
      99926    2    1    2    0    0  0.88817841970E-15 -0.14210854715E-13 -0.43351528998E+03  0.63608371684E+03  0.46547501349E+03 0.  0.
      99925    2    3    3    0    0  0.27781339272E+01 -0.11861751950E+03 -0.22773576491E+03  0.36762412025E+03  0.26307048716E+03 0.  0.
         25    1    3    3    0    0 -0.27781339272E+01  0.11861751950E+03 -0.20577952508E+03  0.26845959659E+03  0.12509000000E+03 0.  0.
         25    1    4    4    0    0  0.12595204682E+02 -0.18245153124E+02 -0.86479771842E+02  0.15368078550E+03  0.12509000000E+03 0.  0.
         25    1    4    4    0    0 -0.98170707550E+01 -0.10037236638E+03 -0.14125599307E+03  0.21394333476E+03  0.12509000000E+03 0.  0.
<mgrwt>
<rscale>  2 0.46547501E+03</rscale>
<asrwt>0</asrwt>
<pdfrwt beam="1">  1       21 0.14894738E-01 0.46547501E+03</pdfrwt>
<pdfrwt beam="2">  1       21 0.78646984E-01 0.46547501E+03</pdfrwt>
<totfact> 0.52069820E+04</totfact>
</mgrwt>
</event>
<event>
 7    0  0.4714446E-002  0.4553446E+03  0.7546771E-02  0.1026140E+00
         21   -1    0    0  502  501  0.00000000000E+00  0.00000000000E+00  0.66910706091E+03  0.66910706091E+03  0.00000000000E+00 0. -1.
         21   -1    0    0  501  502 -0.00000000000E+00 -0.00000000000E+00 -0.77468444789E+02  0.77468444789E+02  0.00000000000E+00 0. -1.
      99926    2    1    2    0    0  0.00000000000E+00  0.14210854715E-13  0.59163861612E+03  0.74657550570E+03  0.45534463171E+03 0.  0.
      99925    2    3    3    0    0  0.62548598969E+02  0.67485095816E+02  0.26317354744E+03  0.38325281878E+03  0.26297498291E+03 0.  0.
         25    1    4    4    0    0  0.50871115151E+02  0.71715918442E+02  0.14363604926E+03  0.20978528562E+03  0.12509000000E+03 0.  0.
         25    1    4    4    0    0  0.11677483818E+02 -0.42308226257E+01  0.11953749818E+03  0.17346753316E+03  0.12509000000E+03 0.  0.
         25    1    3    3    0    0 -0.62548598969E+02 -0.67485095816E+02  0.32846506868E+03  0.36332268692E+03  0.12509000000E+03 0.  0.
<mgrwt>
<rscale>  2 0.45534463E+03</rscale>
<asrwt>0</asrwt>
<pdfrwt beam="1">  1       21 0.98398094E-01 0.45534463E+03</pdfrwt>
<pdfrwt beam="2">  1       21 0.11392419E-01 0.45534463E+03</pdfrwt>
<totfact> 0.50309659E+04</totfact>
</mgrwt>
</event>
<event>
 7    0  0.4714446E-002  0.5174006E+03  0.7546771E-02  0.1009334E+00
         21   -1    0    0  502  501  0.00000000000E+00  0.00000000000E+00  0.16711564720E+03  0.16711564720E+03  0.00000000000E+00 0.  1.
         21   -1    0    0  501  502 -0.00000000000E+00 -0.00000000000E+00 -0.40047616625E+03  0.40047616625E+03  0.00000000000E+00 0.  1.
      99926    2    1    2    0    0  0.71054273576E-14  0.00000000000E+00 -0.23336051905E+03  0.56759181345E+03  0.51740055551E+03 0.  0.
      99925    2    3    3    0    0 -0.46127486121E+02 -0.15273272860E+03 -0.18570993263E+03  0.35932967611E+03  0.26301065699E+03 0.  0.
         25    1    4    4    0    0 -0.53753233653E+02 -0.98473477149E+02 -0.12726465699E+03  0.21078481171E+03  0.12509000000E+03 0.  0.
         25    1    3    3    0    0  0.46127486121E+02  0.15273272860E+03 -0.47650586414E+02  0.20826213734E+03  0.12509000000E+03 0.  0.
         25    1    4    4    0    0  0.76257475326E+01 -0.54259251453E+02 -0.58445275641E+02  0.14854486440E+03  0.12509000000E+03 0.  0.
<mgrwt>
<rscale>  2 0.51740056E+03</rscale>
<asrwt>0</asrwt>
<pdfrwt beam="1">  1       21 0.24575831E-01 0.51740056E+03</pdfrwt>
<pdfrwt beam="2">  1       21 0.58893553E-01 0.51740056E+03</pdfrwt>
<totfact> 0.38104694E+04</totfact>
</mgrwt>
</event>
<event>
 7    0  0.4714446E-002  0.4437045E+03  0.7546771E-02  0.1029616E+00
         21   -1    0    0  502  501  0.00000000000E+00  0.00000000000E+00  0.67407107667E+03  0.67407107667E+03  0.00000000000E+00 0. -1.
         21   -1    0    0  501  502 -0.00000000000E+00 -0.00000000000E+00 -0.73016657917E+02  0.73016657917E+02  0.00000000000E+00 0. -1.
      99926    2    1    2    0    0 -0.71054273576E-14  0.00000000000E+00  0.60105441875E+03  0.74708773458E+03  0.44370448371E+03 0.  0.
      99925    2    3    3    0    0 -0.49860393035E+02  0.28845883623E+02  0.24011536980E+03  0.36076837323E+03  0.26302145258E+03 0.  0.
         25    1    4    4    0    0 -0.10591252067E+02  0.17246656907E+02  0.67123362637E+02  0.14339691666E+03  0.12509000000E+03 0.  0.
         25    1    3    3    0    0  0.49860393035E+02 -0.28845883623E+02  0.36093904895E+03  0.38631936135E+03  0.12509000000E+03 0.  0.
         25    1    4    4    0    0 -0.39269140968E+02  0.11599226715E+02  0.17299200716E+03  0.21737145658E+03  0.12509000000E+03 0.  0.
<mgrwt>
<rscale>  2 0.44370448E+03</rscale>
<asrwt>0</asrwt>
<pdfrwt beam="1">  1       21 0.99128096E-01 0.44370448E+03</pdfrwt>
<pdfrwt beam="2">  1       21 0.10737744E-01 0.44370448E+03</pdfrwt>
<totfact> 0.55156027E+04</totfact>
</mgrwt>
</event>
<event>
 7    0  0.4714446E-002  0.4508004E+03  0.7546771E-02  0.1027484E+00
         21   -1    0    0  502  501  0.00000000000E+00  0.00000000000E+00  0.14060155967E+03  0.14060155967E+03  0.00000000000E+00 0. -1.
         21   -1    0    0  501  502 -0.00000000000E+00 -0.00000000000E+00 -0.36134195793E+03  0.36134195793E+03  0.00000000000E+00 0. -1.
      99926    2    1    2    0    0  0.14210854715E-13 -0.35527136788E-14 -0.22074039826E+03  0.50194351760E+03  0.45080036761E+03 0.  0.
      99925    2    3    3    0    0 -0.10335037717E+03  0.10256983253E+02 -0.17694248703E+03  0.33356219056E+03  0.26299921119E+03 0.  0.
         25    1    4    4    0    0 -0.24568546209E+02  0.34474398980E+02 -0.96225588056E+02  0.16339819321E+03  0.12509000000E+03 0.  0.
         25    1    4    4    0    0 -0.78781830962E+02 -0.24217415727E+02 -0.80716898973E+02  0.17016399735E+03  0.12509000000E+03 0.  0.
         25    1    3    3    0    0  0.10335037717E+03 -0.10256983253E+02 -0.43797911228E+02  0.16838132704E+03  0.12509000000E+03 0.  0.
<mgrwt>
<rscale>  2 0.45080037E+03</rscale>
<asrwt>0</asrwt>
<pdfrwt beam="1">  1       21 0.20676700E-01 0.45080037E+03</pdfrwt>
<pdfrwt beam="2">  1       21 0.53138523E-01 0.45080037E+03</pdfrwt>
<totfact> 0.67351602E+04</totfact>
</mgrwt>
</event>
<event>
 7    0  0.4714446E-002  0.4564992E+03  0.7546771E-02  0.1025801E+00
         21   -1    0    0  502  501  0.00000000000E+00  0.00000000000E+00  0.36960609391E+03  0.36960609391E+03  0.00000000000E+00 0. -1.
         21   -1    0    0  501  502 -0.00000000000E+00 -0.00000000000E+00 -0.14095512191E+03  0.14095512191E+03  0.00000000000E+00 0. -1.
      99926    2    1    2    0    0  0.00000000000E+00  0.14210854715E-13  0.22865097200E+03  0.51056121583E+03  0.45649916551E+03 0.  0.
      99925    2    3    3    0    0 -0.18776095449E+02  0.11203002127E+03  0.15860139760E+03  0.32764670465E+03  0.26323885033E+03 0.  0.
         25    1    4    4    0    0 -0.43818200573E+02  0.76558063944E+02  0.69895140594E+02  0.16826767555E+03  0.12509000000E+03 0.  0.
         25    1    4    4    0    0  0.25042105123E+02  0.35471957321E+02  0.88706257006E+02  0.15937902910E+03  0.12509000000E+03 0.  0.
         25    1    3    3    0    0  0.18776095449E+02 -0.11203002127E+03  0.70049574399E+02  0.18291451118E+03  0.12509000000E+03 0.  0.
<mgrwt>
<rscale>  2 0.45649917E+03</rscale>
<asrwt>0</asrwt>
<pdfrwt beam="1">  1       21 0.54353837E-01 0.45649917E+03</pdfrwt>
<pdfrwt beam="2">  1       21 0.20728694E-01 0.45649917E+03</pdfrwt>
<totfact> 0.63772744E+04</totfact>
</mgrwt>
</event>
<event>
 7    0  0.4714446E-002  0.4579835E+03  0.7546771E-02  0.1025368E+00
         21   -1    0    0  502  501  0.00000000000E+00  0.00000000000E+00  0.11061580839E+03  0.11061580839E+03  0.00000000000E+00 0.  1.
         21   -1    0    0  501  502 -0.00000000000E+00 -0.00000000000E+00 -0.47404813577E+03  0.47404813577E+03  0.00000000000E+00 0.  1.
      99926    2    1    2    0    0  0.00000000000E+00  0.00000000000E+00 -0.36343232738E+03  0.58466394416E+03  0.45798348334E+03 0.  0.
      99925    2    3    3    0    0 -0.37687212994E+02  0.34838756179E+02 -0.36085658689E+03  0.44943004495E+03  0.26293692029E+03 0.  0.
         25    1    3    3    0    0  0.37687212994E+02 -0.34838756179E+02 -0.25757404978E+01  0.13523389921E+03  0.12509000000E+03 0.  0.
         25    1    4    4    0    0 -0.32924390899E+02  0.23130094087E+02 -0.12103596907E+03  0.17865114239E+03  0.12509000000E+03 0.  0.
         25    1    4    4    0    0 -0.47628220951E+01  0.11708662092E+02 -0.23982061782E+03  0.27077890256E+03  0.12509000000E+03 0.  0.
<mgrwt>
<rscale>  2 0.45798348E+03</rscale>
<asrwt>0</asrwt>
<pdfrwt beam="1">  1       21 0.16267031E-01 0.45798348E+03</pdfrwt>
<pdfrwt beam="2">  1       21 0.69712960E-01 0.45798348E+03</pdfrwt>
<totfact> 0.58246437E+04</totfact>
</mgrwt>
</event>
<event>
 7    0  0.4714446E-002  0.4616668E+03  0.7546771E-02  0.1024299E+00
         21   -1    0    0  502  501  0.00000000000E+00  0.00000000000E+00  0.14004944765E+03  0.14004944765E+03  0.00000000000E+00 0.  1.
         21   -1    0    0  501  502 -0.00000000000E+00 -0.00000000000E+00 -0.38046602819E+03  0.38046602819E+03  0.00000000000E+00 0.  1.
      99926    2    1    2    0    0  0.00000000000E+00  0.00000000000E+00 -0.24041658054E+03  0.52051547584E+03  0.46166679368E+03 0.  0.
      99925    2    3    3    0    0  0.99068046833E+02 -0.65750013504E+02 -0.13842554434E+03  0.32004796789E+03  0.26292875127E+03 0.  0.
         25    1    3    3    0    0 -0.99068046833E+02  0.65750013504E+02 -0.10199103621E+03  0.20046750795E+03  0.12509000000E+03 0.  0.
         25    1    4    4    0    0  0.69556204296E+02 -0.30867339109E+01 -0.48589393465E+02  0.15118211118E+03  0.12509000000E+03 0.  0.
         25    1    4    4    0    0  0.29511842538E+02 -0.62663279593E+02 -0.89836150874E+02  0.16886585671E+03  0.12509000000E+03 0.  0.
<mgrwt>
<rscale>  2 0.46166679E+03</rscale>
<asrwt>0</asrwt>
<pdfrwt beam="1">  1       21 0.20595507E-01 0.46166679E+03</pdfrwt>
<pdfrwt beam="2">  1       21 0.55950887E-01 0.46166679E+03</pdfrwt>
<totfact> 0.60583380E+04</totfact>
</mgrwt>
</event>
<event>
 7    0  0.4714446E-002  0.4541793E+03  0.7546771E-02  0.1026483E+00
         21   -1    0    0  502  501  0.00000000000E+00  0.00000000000E+00  0.68833986057E+03  0.68833986057E+03  0.00000000000E+00 0.  1.
         21   -1    0    0  501  502 -0.00000000000E+00 -0.00000000000E+00 -0.74918958944E+02  0.74918958944E+02  0.00000000000E+00 0.  1.
      99926    2    1    2    0    0  0.14210854715E-13 -0.88817841970E-15  0.61342090162E+03  0.76325881951E+03  0.45417928510E+03 0.  0.
      99925    2    3    3    0    0  0.10624661273E+03  0.10685791969E+01  0.32453966017E+03  0.43100987016E+03  0.26297154329E+03 0.  0.
         25    1    3    3    0    0 -0.10624661273E+03 -0.10685791969E+01  0.28888124146E+03  0.33224894935E+03  0.12509000000E+03 0.  0.
         25    1    4    4    0    0  0.18489313794E+02 -0.14301398335E+02  0.11730501678E+03  0.17307327865E+03  0.12509000000E+03 0.  0.
         25    1    4    4    0    0  0.87757298932E+02  0.15369977532E+02  0.20723464339E+03  0.25793659152E+03  0.12509000000E+03 0.  0.
<mgrwt>
<rscale>  2 0.45417929E+03</rscale>
<asrwt>0</asrwt>
<pdfrwt beam="1">  1       21 0.10122645E+00 0.45417929E+03</pdfrwt>
<pdfrwt beam="2">  1       21 0.11017494E-01 0.45417929E+03</pdfrwt>
<totfact> 0.49913841E+04</totfact>
</mgrwt>
</event>
<event>
 6    0  0.4714446E-002  0.4579183E+03  0.7546771E-02  0.1025387E+00
         21   -1    0    0  502  501  0.00000000000E+00  0.00000000000E+00  0.11013630812E+03  0.11013630812E+03  0.00000000000E+00 0. -1.
         21   -1    0    0  501  502 -0.00000000000E+00 -0.00000000000E+00 -0.47597638112E+03  0.47597638112E+03  0.00000000000E+00 0. -1.
      99926    2    1    2    0    0  0.71054273576E-14  0.00000000000E+00 -0.36584007301E+03  0.58611268924E+03  0.45791825195E+03 0.  0.
         25    1    3    3    0    0 -0.60654643162E+02  0.16051376697E+02 -0.18076759108E+02  0.14110602308E+03  0.12509000000E+03 0.  0.
         25    1    3    3    0    0  0.67278161240E+02 -0.10296137914E+02 -0.24278273101E+03  0.28146638167E+03  0.12509000000E+03 0.  0.
         25    1    3    3    0    0 -0.66235180778E+01 -0.57552387835E+01 -0.10498058289E+03  0.16354028449E+03  0.12509000000E+03 0.  0.
<mgrwt>
<rscale>  2 0.45791825E+03</rscale>
<asrwt>0</asrwt>
<pdfrwt beam="1">  1       21 0.16196516E-01 0.45791825E+03</pdfrwt>
<pdfrwt beam="2">  1       21 0.69996527E-01 0.45791825E+03</pdfrwt>
<totfact> 0.58187429E+04</totfact>
</mgrwt>
</event>
<event>
 7    0  0.4714446E-002  0.4547942E+03  0.7546771E-02  0.1026302E+00
         21   -1    0    0  502  501  0.00000000000E+00  0.00000000000E+00  0.66470899441E+03  0.66470899441E+03  0.00000000000E+00 0. -1.
         21   -1    0    0  501  502 -0.00000000000E+00 -0.00000000000E+00 -0.77792611164E+02  0.77792611164E+02  0.00000000000E+00 0. -1.
      99926    2    1    2    0    0  0.14210854715E-13  0.35527136788E-14  0.58691638325E+03  0.74250160557E+03  0.45479423189E+03 0.  0.
      99925    2    3    3    0    0  0.82866655576E+02  0.29439370303E+02  0.25344888211E+03  0.37564789966E+03  0.26294761749E+03 0.  0.
         25    1    4    4    0    0  0.18474023441E+02  0.95036279369E+01  0.16566044806E+03  0.20862047032E+03  0.12509000000E+03 0.  0.
         25    1    4    4    0    0  0.64392632135E+02  0.19935742366E+02  0.87788434043E+02  0.16702742933E+03  0.12509000000E+03 0.  0.
         25    1    3    3    0    0 -0.82866655576E+02 -0.29439370303E+02  0.33346750114E+03  0.36685370592E+03  0.12509000000E+03 0.  0.
<mgrwt>
<rscale>  2 0.45479423E+03</rscale>
<asrwt>0</asrwt>
<pdfrwt beam="1">  1       21 0.97751320E-01 0.45479423E+03</pdfrwt>
<pdfrwt beam="2">  1       21 0.11440090E-01 0.45479423E+03</pdfrwt>
<totfact> 0.50737415E+04</totfact>
</mgrwt>
</event>
<event>
 7    0  0.4714446E-002  0.4520959E+03  0.7546771E-02  0.1027099E+00
         21   -1    0    0  502  501  0.00000000000E+00  0.00000000000E+00  0.59013295021E+02  0.59013295021E+02  0.00000000000E+00 0. -1.
         21   -1    0    0  501  502 -0.00000000000E+00 -0.00000000000E+00 -0.86586713347E+03  0.86586713347E+03  0.00000000000E+00 0. -1.
      99926    2    1    2    0    0  0.00000000000E+00 -0.17763568394E-14 -0.80685383845E+03  0.92488042850E+03  0.45209588627E+03 0.  0.
      99925    2    3    3    0    0  0.96439195279E+02 -0.13658015527E+02 -0.40230485744E+03  0.49037560008E+03  0.26292959336E+03 0.  0.
         25    1    4    4    0    0  0.70959039515E+02  0.18402520702E+02 -0.17052971868E+03  0.22383415984E+03  0.12509000000E+03 0.  0.
         25    1    3    3    0    0 -0.96439195279E+02  0.13658015527E+02 -0.40454898101E+03  0.43450482841E+03  0.12509000000E+03 0.  0.
         25    1    4    4    0    0  0.25480155764E+02 -0.32060536229E+02 -0.23177513876E+03  0.26654144024E+03  0.12509000000E+03 0.  0.
<mgrwt>
<rscale>  2 0.45209589E+03</rscale>
<asrwt>0</asrwt>
<pdfrwt beam="1">  1       21 0.86784262E-02 0.45209589E+03</pdfrwt>
<pdfrwt beam="2">  1       21 0.12733339E+00 0.45209589E+03</pdfrwt>
<totfact> 0.43146928E+04</totfact>
</mgrwt>
</event>
<event>
 7    0  0.4714446E-002  0.4535170E+03  0.7546771E-02  0.1026678E+00
         21   -1    0    0  502  501  0.00000000000E+00  0.00000000000E+00  0.31699359521E+03  0.31699359521E+03  0.00000000000E+00 0.  1.
         21   -1    0    0  501  502 -0.00000000000E+00 -0.00000000000E+00 -0.16220964044E+03  0.16220964044E+03  0.00000000000E+00 0.  1.
      99926    2    1    2    0    0  0.88817841970E-15  0.00000000000E+00  0.15478395478E+03  0.47920323565E+03  0.45351699902E+03 0.  0.
      99925    2    3    3    0    0 -0.45646574044E+01 -0.59911617132E+02 -0.18384653861E+01  0.26994662629E+03  0.26316831710E+03 0.  0.
         25    1    4    4    0    0  0.85924470744E+01 -0.39531179755E+02 -0.39152483196E+02  0.13717495894E+03  0.12509000000E+03 0.  0.
         25    1    3    3    0    0  0.45646574044E+01  0.59911617132E+02  0.15662242016E+03  0.20925660936E+03  0.12509000000E+03 0.  0.
         25    1    4    4    0    0 -0.13157104479E+02 -0.20380437377E+02  0.37314017810E+02  0.13277166735E+03  0.12509000000E+03 0.  0.
<mgrwt>
<rscale>  2 0.45351700E+03</rscale>
<asrwt>0</asrwt>
<pdfrwt beam="1">  1       21 0.46616705E-01 0.45351700E+03</pdfrwt>
<pdfrwt beam="2">  1       21 0.23854359E-01 0.45351700E+03</pdfrwt>
<totfact> 0.67549792E+04</totfact>
</mgrwt>
</event>
<event>
 7    0  0.4714446E-002  0.4473858E+03  0.7546771E-02  0.1028504E+00
         21   -1    0    0  502  501  0.00000000000E+00  0.00000000000E+00  0.19743030225E+03  0.19743030225E+03  0.00000000000E+00 0. -1.
         21   -1    0    0  501  502 -0.00000000000E+00 -0.00000000000E+00 -0.25344901357E+03  0.25344901357E+03  0.00000000000E+00 0. -1.
      99926    2    1    2    0    0 -0.14210854715E-13 -0.33306690739E-15 -0.56018711314E+02  0.45087931582E+03  0.44738580824E+03 0.  0.
      99925    2    3    3    0    0  0.10013167283E+03  0.70659335563E+00 -0.70205031955E+02  0.29002033729E+03  0.26297566114E+03 0.  0.
         25    1    4    4    0    0  0.56057014828E+02 -0.15406960076E+02  0.24069651567E+01  0.13796037443E+03  0.12509000000E+03 0.  0.
         25    1    3    3    0    0 -0.10013167283E+03 -0.70659335563E+00  0.14186320641E+02  0.16085897853E+03  0.12509000000E+03 0.  0.
         25    1    4    4    0    0  0.44074658006E+02  0.16113553432E+02 -0.72611997111E+02  0.15205996287E+03  0.12509000000E+03 0.  0.
<mgrwt>
<rscale>  2 0.44738581E+03</rscale>
<asrwt>0</asrwt>
<pdfrwt beam="1">  1       21 0.29033868E-01 0.44738581E+03</pdfrwt>
<pdfrwt beam="2">  1       21 0.37271914E-01 0.44738581E+03</pdfrwt>
<totfact> 0.73195013E+04</totfact>
</mgrwt>
</event>
<event>
 7    0  0.4714446E-002  0.4503390E+03  0.7546771E-02  0.1027621E+00
         21   -1    0    0  502  501  0.00000000000E+00  0.00000000000E+00  0.46260693571E+02  0.46260693571E+02  0.00000000000E+00 0.  1.
         21   -1    0    0  501  502 -0.00000000000E+00 -0.00000000000E+00 -0.10959908889E+04  0.10959908889E+04  0.00000000000E+00 0.  1.
      99926    2    1    2    0    0  0.71054273576E-14 -0.14210854715E-13 -0.10497301953E+04  0.11422515825E+04  0.45033897752E+03 0.  0.
      99925    2    3    3    0    0  0.61409898834E+02 -0.75719722911E+02 -0.54133475774E+03  0.60969352819E+03  0.26301753986E+03 0.  0.
         25    1    4    4    0    0  0.63815658345E+01 -0.29506341788E+01 -0.22619054673E+03  0.25857127093E+03  0.12509000000E+03 0.  0.
         25    1    3    3    0    0 -0.61409898834E+02  0.75719722911E+02 -0.50839543758E+03  0.53255805427E+03  0.12509000000E+03 0.  0.
         25    1    4    4    0    0  0.55028333000E+02 -0.72769088732E+02 -0.31514421101E+03  0.35112225726E+03  0.12509000000E+03 0.  0.
<mgrwt>
<rscale>  2 0.45033898E+03</rscale>
<asrwt>0</asrwt>
<pdfrwt beam="1">  1       21 0.68030445E-02 0.45033898E+03</pdfrwt>
<pdfrwt beam="2">  1       21 0.16117510E+00 0.45033898E+03</pdfrwt>
<totfact> 0.35307495E+04</totfact>
</mgrwt>
</event>
<event>
 7    0  0.4714446E-002  0.4543913E+03  0.7546771E-02  0.1026421E+00
         21   -1    0    0  502  501  0.00000000000E+00  0.00000000000E+00  0.29735906451E+03  0.29735906451E+03  0.00000000000E+00 0. -1.
         21   -1    0    0  501  502 -0.00000000000E+00 -0.00000000000E+00 -0.17358767063E+03  0.17358767063E+03  0.00000000000E+00 0. -1.
      99926    2    1    2    0    0 -0.56066262744E-14  0.14210854715E-13  0.12377139388E+03  0.47094673514E+03  0.45439131747E+03 0.  0.
      99925    2    3    3    0    0 -0.32982656546E+00  0.11076169538E+03  0.56185755724E+02  0.29071469433E+03  0.26284963840E+03 0.  0.
         25    1    4    4    0    0 -0.37031796650E+02  0.68905952328E+02  0.39869743696E+02  0.15282829840E+03  0.12509000000E+03 0.  0.
         25    1    4    4    0    0  0.36701970084E+02  0.41855743049E+02  0.16316012028E+02  0.13788639593E+03  0.12509000000E+03 0.  0.
         25    1    3    3    0    0  0.32982656546E+00 -0.11076169538E+03  0.67585638155E+02  0.18023204081E+03  0.12509000000E+03 0.  0.
<mgrwt>
<rscale>  2 0.45439132E+03</rscale>
<asrwt>0</asrwt>
<pdfrwt beam="1">  1       21 0.43729275E-01 0.45439132E+03</pdfrwt>
<pdfrwt beam="2">  1       21 0.25527598E-01 0.45439132E+03</pdfrwt>
<totfact> 0.67691663E+04</totfact>
</mgrwt>
</event>
<event>
 7    0  0.4714446E-002  0.4543253E+03  0.7546771E-02  0.1026440E+00
         21   -1    0    0  502  501  0.00000000000E+00  0.00000000000E+00  0.45788194205E+03  0.45788194205E+03  0.00000000000E+00 0. -1.
         21   -1    0    0  501  502 -0.00000000000E+00 -0.00000000000E+00 -0.11269908023E+03  0.11269908023E+03  0.00000000000E+00 0. -1.
      99926    2    1    2    0    0  0.14210854715E-13 -0.13322676296E-14  0.34518286182E+03  0.57058102228E+03  0.45432531834E+03 0.  0.
      99925    2    3    3    0    0  0.10910215481E+03  0.47267710877E+00  0.25240861888E+03  0.38042826300E+03  0.26289170546E+03 0.  0.
         25    1    4    4    0    0  0.88289481378E+02  0.20088715954E+02  0.11589471139E+03  0.19307428948E+03  0.12509000000E+03 0.  0.
         25    1    3    3    0    0 -0.10910215481E+03 -0.47267710877E+00  0.92774242948E+02  0.19015275928E+03  0.12509000000E+03 0.  0.
         25    1    4    4    0    0  0.20812673430E+02 -0.19616038846E+02  0.13651390749E+03  0.18735397352E+03  0.12509000000E+03 0.  0.
<mgrwt>
<rscale>  2 0.45432532E+03</rscale>
<asrwt>0</asrwt>
<pdfrwt beam="1">  1       21 0.67335579E-01 0.45432532E+03</pdfrwt>
<pdfrwt beam="2">  1       21 0.16573394E-01 0.45432532E+03</pdfrwt>
<totfact> 0.60850638E+04</totfact>
</mgrwt>
</event>
<event>
 7    0  0.4714446E-002  0.4491670E+03  0.7546771E-02  0.1027971E+00
         21   -1    0    0  502  501  0.00000000000E+00  0.00000000000E+00  0.22062731149E+03  0.22062731149E+03  0.00000000000E+00 0.  1.
         21   -1    0    0  501  502 -0.00000000000E+00 -0.00000000000E+00 -0.22861067162E+03  0.22861067162E+03  0.00000000000E+00 0.  1.
      99926    2    1    2    0    0  0.00000000000E+00  0.00000000000E+00 -0.79833601325E+01  0.44923798311E+03  0.44916704179E+03 0.  0.
      99925    2    3    3    0    0 -0.70981746598E+02 -0.47366186487E+02  0.60957445261E+02  0.28285797613E+03  0.26269918263E+03 0.  0.
         25    1    4    4    0    0  0.37001209478E+01 -0.31296712681E+02  0.38158667876E+02  0.13452422516E+03  0.12509000000E+03 0.  0.
         25    1    3    3    0    0  0.70981746598E+02  0.47366186487E+02 -0.68940805393E+02  0.16638000697E+03  0.12509000000E+03 0.  0.
         25    1    4    4    0    0 -0.74681867546E+02 -0.16069473805E+02  0.22798777385E+02  0.14833375098E+03  0.12509000000E+03 0.  0.
<mgrwt>
<rscale>  2 0.44916704E+03</rscale>
<asrwt>0</asrwt>
<pdfrwt beam="1">  1       21 0.32445193E-01 0.44916704E+03</pdfrwt>
<pdfrwt beam="2">  1       21 0.33619216E-01 0.44916704E+03</pdfrwt>
<totfact> 0.72275647E+04</totfact>
</mgrwt>
</event>
<event>
 7    0  0.4714446E-002  0.4061800E+03  0.7546771E-02  0.1041661E+00
         21   -1    0    0  502  501  0.00000000000E+00  0.00000000000E+00  0.25135678496E+03  0.25135678496E+03  0.00000000000E+00 0. -1.
         21   -1    0    0  501  502 -0.00000000000E+00 -0.00000000000E+00 -0.16409160587E+03  0.16409160587E+03  0.00000000000E+00 0. -1.
      99926    2    1    2    0    0  0.00000000000E+00  0.35527136788E-14  0.87265179094E+02  0.41544839083E+03  0.40617995268E+03 0.  0.
      99925    2    3    3    0    0  0.33271237162E+02  0.16879217485E+02  0.14637869963E+02  0.26606928474E+03  0.26303367434E+03 0.  0.
         25    1    4    4    0    0  0.36018902215E+02  0.39779820968E+02 -0.10093145247E+02  0.13648873636E+03  0.12509000000E+03 0.  0.
         25    1    3    3    0    0 -0.33271237162E+02 -0.16879217485E+02  0.72627309130E+02  0.14937910609E+03  0.12509000000E+03 0.  0.
         25    1    4    4    0    0 -0.27476650530E+01 -0.22900603483E+02  0.24731015210E+02  0.12958054837E+03  0.12509000000E+03 0.  0.
<mgrwt>
<rscale>  2 0.40617995E+03</rscale>
<asrwt>0</asrwt>
<pdfrwt beam="1">  1       21 0.36964233E-01 0.40617995E+03</pdfrwt>
<pdfrwt beam="2">  1       21 0.24131119E-01 0.40617995E+03</pdfrwt>
<totfact> 0.10777529E+05</totfact>
</mgrwt>
</event>
<event>
 7    0  0.4714446E-002  0.4565851E+03  0.7546771E-02  0.1025776E+00
         21   -1    0    0  502  501  0.00000000000E+00  0.00000000000E+00  0.69851600280E+02  0.69851600280E+02  0.00000000000E+00 0. -1.
         21   -1    0    0  501  502 -0.00000000000E+00 -0.00000000000E+00 -0.74611725969E+03  0.74611725969E+03  0.00000000000E+00 0. -1.
      99926    2    1    2    0    0  0.00000000000E+00  0.00000000000E+00 -0.67626565941E+03  0.81596885997E+03  0.45658508336E+03 0.  0.
      99925    2    3    3    0    0 -0.17526006236E+02 -0.11310374162E+03 -0.41322103684E+03  0.50301583022E+03  0.26300890271E+03 0.  0.
         25    1    4    4    0    0 -0.25084181226E+02 -0.57580490384E+02 -0.14347449488E+03  0.20044243014E+03  0.12509000000E+03 0.  0.
         25    1    4    4    0    0  0.75581749904E+01 -0.55523251239E+02 -0.26974654196E+03  0.30257340008E+03  0.12509000000E+03 0.  0.
         25    1    3    3    0    0  0.17526006236E+02  0.11310374162E+03 -0.26304462257E+03  0.31295302975E+03  0.12509000000E+03 0.  0.
<mgrwt>
<rscale>  2 0.45658508E+03</rscale>
<asrwt>0</asrwt>
<pdfrwt beam="1">  1       21 0.10272295E-01 0.45658508E+03</pdfrwt>
<pdfrwt beam="2">  1       21 0.10972312E+00 0.45658508E+03</pdfrwt>
<totfact> 0.46422006E+04</totfact>
</mgrwt>
</event>
<event>
 7    0  0.4714446E-002  0.4563064E+03  0.7546771E-02  0.1025858E+00
         21   -1    0    0  502  501  0.00000000000E+00  0.00000000000E+00  0.11028593131E+04  0.11028593131E+04  0.00000000000E+00 0.  1.
         21   -1    0    0  501  502 -0.00000000000E+00 -0.00000000000E+00 -0.47199022079E+02  0.47199022079E+02  0.00000000000E+00 0.  1.
      99926    2    1    2    0    0  0.00000000000E+00  0.00000000000E+00  0.10556602910E+04  0.11500583352E+04  0.45630639298E+03 0.  0.
      99925    2    3    3    0    0 -0.83592291839E+02  0.77861146724E+02  0.64924639472E+03  0.70975185938E+03  0.26301481215E+03 0.  0.
         25    1    3    3    0    0  0.83592291839E+02 -0.77861146724E+02  0.40641389628E+03  0.44030647578E+03  0.12509000000E+03 0.  0.
         25    1    4    4    0    0 -0.60236451727E+02  0.78332899072E+02  0.36976495535E+03  0.40266375986E+03  0.12509000000E+03 0.  0.
         25    1    4    4    0    0 -0.23355840112E+02 -0.47175234791E+00  0.27948143937E+03  0.30708809953E+03  0.12509000000E+03 0.  0.
<mgrwt>
<rscale>  2 0.45630639E+03</rscale>
<asrwt>0</asrwt>
<pdfrwt beam="1">  1       21 0.16218518E+00 0.45630639E+03</pdfrwt>
<pdfrwt beam="2">  1       21 0.69410334E-02 0.45630639E+03</pdfrwt>
<totfact> 0.33438662E+04</totfact>
</mgrwt>
</event>
<event>
 7    0  0.4714446E-002  0.4443228E+03  0.7546771E-02  0.1029429E+00
         21   -1    0    0  502  501  0.00000000000E+00  0.00000000000E+00  0.39683178252E+02  0.39683178252E+02  0.00000000000E+00 0.  1.
         21   -1    0    0  501  502 -0.00000000000E+00 -0.00000000000E+00 -0.12437433995E+04  0.12437433995E+04  0.00000000000E+00 0.  1.
      99926    2    1    2    0    0  0.71054273576E-14  0.00000000000E+00 -0.12040602213E+04  0.12834265778E+04  0.44432281518E+03 0.  0.
      99925    2    3    3    0    0 -0.54296586049E+02  0.34667375741E+02 -0.53361662888E+03  0.59837762705E+03  0.26298123840E+03 0.  0.
         25    1    4    4    0    0 -0.66056897145E+02  0.77909461236E+01 -0.25993223434E+03  0.29603460448E+03  0.12509000000E+03 0.  0.
         25    1    3    3    0    0  0.54296586049E+02 -0.34667375741E+02 -0.67044359239E+03  0.68504895071E+03  0.12509000000E+03 0.  0.
         25    1    4    4    0    0  0.11760311097E+02  0.26876429617E+02 -0.27368439454E+03  0.30234302258E+03  0.12509000000E+03 0.  0.
<mgrwt>
<rscale>  2 0.44432282E+03</rscale>
<asrwt>0</asrwt>
<pdfrwt beam="1">  1       21 0.58357611E-02 0.44432282E+03</pdfrwt>
<pdfrwt beam="2">  1       21 0.18290345E+00 0.44432282E+03</pdfrwt>
<totfact> 0.32191478E+04</totfact>
</mgrwt>
</event>
<event>
 7    0  0.4714446E-002  0.4552480E+03  0.7546771E-02  0.1026168E+00
         21   -1    0    0  502  501  0.00000000000E+00  0.00000000000E+00  0.29453963869E+03  0.29453963869E+03  0.00000000000E+00 0. -1.
         21   -1    0    0  501  502 -0.00000000000E+00 -0.00000000000E+00 -0.17591076313E+03  0.17591076313E+03  0.00000000000E+00 0. -1.
      99926    2    1    2    0    0  0.00000000000E+00  0.00000000000E+00  0.11862887555E+03  0.47045040182E+03  0.45524803180E+03 0.  0.
      99925    2    3    3    0    0 -0.92924173770E+02 -0.60160285879E+02  0.49232468900E+02  0.28957052062E+03  0.26300777241E+03 0.  0.
         25    1    4    4    0    0 -0.87945505668E+02 -0.41731284146E+02  0.34104199030E+02  0.16213117077E+03  0.12509000000E+03 0.  0.
         25    1    3    3    0    0  0.92924173770E+02  0.60160285879E+02  0.69396406655E+02  0.18087988120E+03  0.12509000000E+03 0.  0.
         25    1    4    4    0    0 -0.49786681019E+01 -0.18429001733E+02  0.15128269869E+02  0.12743934985E+03  0.12509000000E+03 0.  0.
<mgrwt>
<rscale>  2 0.45524803E+03</rscale>
<asrwt>0</asrwt>
<pdfrwt beam="1">  1       21 0.43314653E-01 0.45524803E+03</pdfrwt>
<pdfrwt beam="2">  1       21 0.25869230E-01 0.45524803E+03</pdfrwt>
<totfact> 0.67269766E+04</totfact>
</mgrwt>
</event>
<event>
 7    0  0.4714446E-002  0.4542384E+03  0.7546771E-02  0.1026466E+00
         21   -1    0    0  502  501  0.00000000000E+00  0.00000000000E+00  0.39684397957E+03  0.39684397957E+03  0.00000000000E+00 0. -1.
         21   -1    0    0  501  502 -0.00000000000E+00 -0.00000000000E+00 -0.12998339670E+03  0.12998339670E+03  0.00000000000E+00 0. -1.
      99926    2    1    2    0    0  0.00000000000E+00  0.00000000000E+00  0.26686058287E+03  0.52682737626E+03  0.45423838861E+03 0.  0.
      99925    2    3    3    0    0  0.47242415855E+02  0.69151608494E+02  0.81057861289E+02  0.28769571742E+03  0.26302976663E+03 0.  0.
         25    1    4    4    0    0  0.54946727269E+02  0.88453382231E+01  0.42865102512E+02  0.14346535456E+03  0.12509000000E+03 0.  0.
         25    1    3    3    0    0 -0.47242415855E+02 -0.69151608494E+02  0.18580272158E+03  0.23913165884E+03  0.12509000000E+03 0.  0.
         25    1    4    4    0    0 -0.77043114140E+01  0.60306270271E+02  0.38192758777E+02  0.14423036286E+03  0.12509000000E+03 0.  0.
<mgrwt>
<rscale>  2 0.45423839E+03</rscale>
<asrwt>0</asrwt>
<pdfrwt beam="1">  1       21 0.58359408E-01 0.45423839E+03</pdfrwt>
<pdfrwt beam="2">  1       21 0.19115205E-01 0.45423839E+03</pdfrwt>
<totfact> 0.63806148E+04</totfact>
</mgrwt>
</event>
<event>
 7    0  0.4714446E-002  0.4563239E+03  0.7546771E-02  0.1025853E+00
         21   -1    0    0  502  501  0.00000000000E+00  0.00000000000E+00  0.75445971910E+02  0.75445971910E+02  0.00000000000E+00 0.  1.
         21   -1    0    0  501  502 -0.00000000000E+00 -0.00000000000E+00 -0.69000199888E+03  0.69000199888E+03  0.00000000000E+00 0.  1.
      99926    2    1    2    0    0  0.00000000000E+00  0.00000000000E+00 -0.61455602697E+03  0.76544797079E+03  0.45632388246E+03 0.  0.
      99925    2    3    3    0    0 -0.19196047810E+02  0.79010841676E+02 -0.25119407126E+03  0.37264952335E+03  0.26297909511E+03 0.  0.
         25    1    3    3    0    0  0.19196047810E+02 -0.79010841676E+02 -0.36336195571E+03  0.39279844744E+03  0.12509000000E+03 0.  0.
         25    1    4    4    0    0 -0.31300827466E+02  0.72016548750E+02 -0.11489011811E+03  0.18711860526E+03  0.12509000000E+03 0.  0.
         25    1    4    4    0    0  0.12104779657E+02  0.69942929260E+01 -0.13630395315E+03  0.18553091809E+03  0.12509000000E+03 0.  0.
<mgrwt>
<rscale>  2 0.45632388E+03</rscale>
<asrwt>0</asrwt>
<pdfrwt beam="1">  1       21 0.11094996E-01 0.45632388E+03</pdfrwt>
<pdfrwt beam="2">  1       21 0.10147088E+00 0.45632388E+03</pdfrwt>
<totfact> 0.48970323E+04</totfact>
</mgrwt>
</event>
<event>
 7    0  0.4714446E-002  0.4470045E+03  0.7546771E-02  0.1028619E+00
         21   -1    0    0  502  501  0.00000000000E+00  0.00000000000E+00  0.16542363713E+02  0.16542363713E+02  0.00000000000E+00 0. -1.
         21   -1    0    0  501  502 -0.00000000000E+00 -0.00000000000E+00 -0.30197171712E+04  0.30197171712E+04  0.00000000000E+00 0. -1.
      99926    2    1    2    0    0 -0.14210854715E-13  0.00000000000E+00 -0.30031748075E+04  0.30362595349E+04  0.44700451791E+03 0.  0.
      99925    2    3    3    0    0 -0.97251440797E+02  0.32912171674E+02 -0.20693082480E+04  0.20884751117E+04  0.26296504204E+03 0.  0.
         25    1    4    4    0    0 -0.27796423915E+02  0.39269644083E+02 -0.11981555480E+04  0.12056280402E+04  0.12509000000E+03 0.  0.
         25    1    4    4    0    0 -0.69455016883E+02 -0.63574724089E+01 -0.87115269999E+03  0.88284707148E+03  0.12509000000E+03 0.  0.
         25    1    3    3    0    0  0.97251440797E+02 -0.32912171674E+02 -0.93386655951E+03  0.94778442320E+03  0.12509000000E+03 0.  0.
<mgrwt>
<rscale>  2 0.44700452E+03</rscale>
<asrwt>0</asrwt>
<pdfrwt beam="1">  1       21 0.24326956E-02 0.44700452E+03</pdfrwt>
<pdfrwt beam="2">  1       21 0.44407696E+00 0.44700452E+03</pdfrwt>
<totfact> 0.32478370E+03</totfact>
</mgrwt>
</event>
<event>
 7    0  0.4714446E-002  0.4585730E+03  0.7546771E-02  0.1025196E+00
         21   -1    0    0  502  501  0.00000000000E+00  0.00000000000E+00  0.90266022748E+02  0.90266022748E+02  0.00000000000E+00 0. -1.
         21   -1    0    0  501  502 -0.00000000000E+00 -0.00000000000E+00 -0.58241513574E+03  0.58241513574E+03  0.00000000000E+00 0. -1.
      99926    2    1    2    0    0  0.00000000000E+00  0.00000000000E+00 -0.49214911299E+03  0.67268115849E+03  0.45857299481E+03 0.  0.
      99925    2    3    3    0    0  0.52899391127E+02  0.10040826885E+03 -0.27067614038E+03  0.39415297009E+03  0.26307950286E+03 0.  0.
         25    1    3    3    0    0 -0.52899391127E+02 -0.10040826885E+03 -0.22147297261E+03  0.27852818840E+03  0.12509000000E+03 0.  0.
         25    1    4    4    0    0 -0.10325537831E+02  0.63223900746E+02 -0.14940788853E+03  0.20511972994E+03  0.12509000000E+03 0.  0.
         25    1    4    4    0    0  0.63224928959E+02  0.37184368107E+02 -0.12126825186E+03  0.18903324015E+03  0.12509000000E+03 0.  0.
<mgrwt>
<rscale>  2 0.45857299E+03</rscale>
<asrwt>0</asrwt>
<pdfrwt beam="1">  1       21 0.13274415E-01 0.45857299E+03</pdfrwt>
<pdfrwt beam="2">  1       21 0.85649285E-01 0.45857299E+03</pdfrwt>
<totfact> 0.52905799E+04</totfact>
</mgrwt>
</event>
<event>
 7    0  0.4714446E-002  0.4372689E+03  0.7546771E-02  0.1031588E+00
         21   -1    0    0  502  501  0.00000000000E+00  0.00000000000E+00  0.43169128447E+03  0.43169128447E+03  0.00000000000E+00 0. -1.
         21   -1    0    0  501  502 -0.00000000000E+00 -0.00000000000E+00 -0.11072966375E+03  0.11072966375E+03  0.00000000000E+00 0. -1.
      99926    2    1    2    0    0  0.00000000000E+00  0.00000000000E+00  0.32096162072E+03  0.54242094822E+03  0.43726893680E+03 0.  0.
      99925    2    3    3    0    0  0.87011591061E+02 -0.70362271856E+01  0.25370590431E+03  0.37571352498E+03  0.26300844378E+03 0.  0.
         25    1    4    4    0    0  0.76293148471E+02 -0.10632337497E+02  0.17047263784E+03  0.22503804002E+03  0.12509000000E+03 0.  0.
         25    1    4    4    0    0  0.10718442589E+02  0.35961103119E+01  0.83233266473E+02  0.15067548496E+03  0.12509000000E+03 0.  0.
         25    1    3    3    0    0 -0.87011591061E+02  0.70362271856E+01  0.67255716412E+02  0.16670742324E+03  0.12509000000E+03 0.  0.
<mgrwt>
<rscale>  2 0.43726894E+03</rscale>
<asrwt>0</asrwt>
<pdfrwt beam="1">  1       21 0.63484012E-01 0.43726894E+03</pdfrwt>
<pdfrwt beam="2">  1       21 0.16283774E-01 0.43726894E+03</pdfrwt>
<totfact> 0.71945937E+04</totfact>
</mgrwt>
</event>
<event>
 7    0  0.4714446E-002  0.4645437E+03  0.7546771E-02  0.1023472E+00
         21   -1    0    0  502  501  0.00000000000E+00  0.00000000000E+00  0.50934051726E+02  0.50934051726E+02  0.00000000000E+00 0. -1.
         21   -1    0    0  501  502 -0.00000000000E+00 -0.00000000000E+00 -0.10592171840E+04  0.10592171840E+04  0.00000000000E+00 0. -1.
      99926    2    1    2    0    0  0.00000000000E+00  0.00000000000E+00 -0.10082831323E+04  0.11101512358E+04  0.46454374537E+03 0.  0.
      99925    2    3    3    0    0 -0.88532396310E+02  0.72275084985E+02 -0.73089015355E+03  0.78510347640E+03  0.26291705723E+03 0.  0.
         25    1    3    3    0    0  0.88532396310E+02 -0.72275084985E+02 -0.27739297876E+03  0.32504775937E+03  0.12509000000E+03 0.  0.
         25    1    4    4    0    0 -0.26279283651E+02  0.72314766175E+02 -0.38486759112E+03  0.41193518537E+03  0.12509000000E+03 0.  0.
         25    1    4    4    0    0 -0.62253112658E+02 -0.39681189550E-01 -0.34602256244E+03  0.37316829102E+03  0.12509000000E+03 0.  0.
<mgrwt>
<rscale>  2 0.46454375E+03</rscale>
<asrwt>0</asrwt>
<pdfrwt beam="1">  1       21 0.74903026E-02 0.46454375E+03</pdfrwt>
<pdfrwt beam="2">  1       21 0.15576722E+00 0.46454375E+03</pdfrwt>
<totfact> 0.32643326E+04</totfact>
</mgrwt>
</event>
<event>
 7    0  0.4714446E-002  0.4547754E+03  0.7546771E-02  0.1026307E+00
         21   -1    0    0  502  501  0.00000000000E+00  0.00000000000E+00  0.33035196097E+03  0.33035196097E+03  0.00000000000E+00 0.  1.
         21   -1    0    0  501  502 -0.00000000000E+00 -0.00000000000E+00 -0.15651536728E+03  0.15651536728E+03  0.00000000000E+00 0.  1.
      99926    2    1    2    0    0  0.71054273576E-14  0.00000000000E+00  0.17383659369E+03  0.48686732825E+03  0.45477536654E+03 0.  0.
      99925    2    3    3    0    0  0.59516149494E+02 -0.82733210228E+02  0.57332896958E+02  0.28785080739E+03  0.26302864885E+03 0.  0.
         25    1    4    4    0    0  0.47438684307E+02 -0.18051222223E+02 -0.86306912391E+00  0.13499825325E+03  0.12509000000E+03 0.  0.
         25    1    3    3    0    0 -0.59516149494E+02  0.82733210228E+02  0.11650369673E+03  0.19901652086E+03  0.12509000000E+03 0.  0.
         25    1    4    4    0    0  0.12077465188E+02 -0.64681988004E+02  0.58195966082E+02  0.15285255414E+03  0.12509000000E+03 0.  0.
<mgrwt>
<rscale>  2 0.45477537E+03</rscale>
<asrwt>0</asrwt>
<pdfrwt beam="1">  1       21 0.48581171E-01 0.45477537E+03</pdfrwt>
<pdfrwt beam="2">  1       21 0.23016966E-01 0.45477537E+03</pdfrwt>
<totfact> 0.66321698E+04</totfact>
</mgrwt>
</event>
<event>
 7    0  0.4714446E-002  0.4326202E+03  0.7546771E-02  0.1033035E+00
         21   -1    0    0  502  501  0.00000000000E+00  0.00000000000E+00  0.12077168776E+03  0.12077168776E+03  0.00000000000E+00 0.  1.
         21   -1    0    0  501  502 -0.00000000000E+00 -0.00000000000E+00 -0.38742579208E+03  0.38742579208E+03  0.00000000000E+00 0.  1.
      99926    2    1    2    0    0  0.14210854715E-13  0.00000000000E+00 -0.26665410432E+03  0.50819747984E+03  0.43262023435E+03 0.  0.
      99925    2    3    3    0    0 -0.76134209417E+02  0.11580039516E+02 -0.11522108817E+03  0.29722359132E+03  0.26293620694E+03 0.  0.
         25    1    3    3    0    0  0.76134209417E+02 -0.11580039516E+02 -0.15143301615E+03  0.21097388853E+03  0.12509000000E+03 0.  0.
         25    1    4    4    0    0 -0.79895511333E+02  0.85011705242E+01 -0.58052134782E+02  0.15960301089E+03  0.12509000000E+03 0.  0.
         25    1    4    4    0    0  0.37613019165E+01  0.30788689914E+01 -0.57168953385E+02  0.13762058043E+03  0.12509000000E+03 0.  0.
<mgrwt>
<rscale>  2 0.43262023E+03</rscale>
<asrwt>0</asrwt>
<pdfrwt beam="1">  1       21 0.17760542E-01 0.43262023E+03</pdfrwt>
<pdfrwt beam="2">  1       21 0.56974381E-01 0.43262023E+03</pdfrwt>
<totfact> 0.77579166E+04</totfact>
</mgrwt>
</event>
<event>
 7    0  0.4714446E-002  0.4530053E+03  0.7546771E-02  0.1026830E+00
         21   -1    0    0  502  501  0.00000000000E+00  0.00000000000E+00  0.80813796924E+03  0.80813796924E+03  0.00000000000E+00 0. -1.
         21   -1    0    0  501  502 -0.00000000000E+00 -0.00000000000E+00 -0.63483516143E+02  0.63483516143E+02  0.00000000000E+00 0. -1.
      99926    2    1    2    0    0 -0.14210854715E-13 -0.14210854715E-13  0.74465445309E+03  0.87162148538E+03  0.45300525302E+03 0.  0.
      99925    2    3    3    0    0 -0.87230252850E+02 -0.62599654251E+02  0.52551722197E+03  0.59740174158E+03  0.26304497055E+03 0.  0.
         25    1    3    3    0    0  0.87230252850E+02  0.62599654251E+02  0.21913723112E+03  0.27421974380E+03  0.12509000000E+03 0.  0.
         25    1    4    4    0    0 -0.72307546040E+02 -0.60255435433E+02  0.25968807487E+03  0.30322351993E+03  0.12509000000E+03 0.  0.
         25    1    4    4    0    0 -0.14922706810E+02 -0.23442188180E+01  0.26582914711E+03  0.29417822165E+03  0.12509000000E+03 0.  0.
<mgrwt>
<rscale>  2 0.45300525E+03</rscale>
<asrwt>0</asrwt>
<pdfrwt beam="1">  1       21 0.11884381E+00 0.45300525E+03</pdfrwt>
<pdfrwt beam="2">  1       21 0.93358116E-02 0.45300525E+03</pdfrwt>
<totfact> 0.45185334E+04</totfact>
</mgrwt>
</event>
<event>
 7    0  0.4714446E-002  0.4563015E+03  0.7546771E-02  0.1025859E+00
         21   -1    0    0  502  501  0.00000000000E+00  0.00000000000E+00  0.11842090758E+04  0.11842090758E+04  0.00000000000E+00 0.  1.
         21   -1    0    0  501  502 -0.00000000000E+00 -0.00000000000E+00 -0.43955712646E+02  0.43955712646E+02  0.00000000000E+00 0.  1.
      99926    2    1    2    0    0  0.00000000000E+00  0.00000000000E+00  0.11402533632E+04  0.12281647885E+04  0.45630145233E+03 0.  0.
      99925    2    3    3    0    0  0.58368908558E+02  0.83161202789E+02  0.57563577244E+03  0.64099935437E+03  0.26306066724E+03 0.  0.
         25    1    4    4    0    0  0.65689855795E+02  0.50633859461E+02  0.26661345548E+03  0.30595618579E+03  0.12509000000E+03 0.  0.
         25    1    4    4    0    0 -0.73209472368E+01  0.32527343328E+02  0.30902231696E+03  0.33504316858E+03  0.12509000000E+03 0.  0.
         25    1    3    3    0    0 -0.58368908558E+02 -0.83161202789E+02  0.56461759072E+03  0.58716543409E+03  0.12509000000E+03 0.  0.
<mgrwt>
<rscale>  2 0.45630145E+03</rscale>
<asrwt>0</asrwt>
<pdfrwt beam="1">  1       21 0.17414837E+00 0.45630145E+03</pdfrwt>
<pdfrwt beam="2">  1       21 0.64640761E-02 0.45630145E+03</pdfrwt>
<totfact> 0.30959467E+04</totfact>
</mgrwt>
</event>
<event>
 7    0  0.4714446E-002  0.4539611E+03  0.7546771E-02  0.1026547E+00
         21   -1    0    0  502  501  0.00000000000E+00  0.00000000000E+00  0.16924850776E+04  0.16924850776E+04  0.00000000000E+00 0.  1.
         21   -1    0    0  501  502 -0.00000000000E+00 -0.00000000000E+00 -0.30440544325E+02  0.30440544325E+02  0.00000000000E+00 0.  1.
      99926    2    1    2    0    0  0.00000000000E+00 -0.71054273576E-14  0.16620445333E+04  0.17229256220E+04  0.45396108655E+03 0.  0.
      99925    2    3    3    0    0  0.85144044656E+02 -0.59715209882E+02  0.12059491326E+04  0.12386881417E+04  0.26309615611E+03 0.  0.
         25    1    3    3    0    0 -0.85144044656E+02  0.59715209882E+02  0.45609540071E+03  0.48423748025E+03  0.12509000000E+03 0.  0.
         25    1    4    4    0    0  0.39106646862E+02 -0.66832442512E+02  0.55299008139E+03  0.57222499370E+03  0.12509000000E+03 0.  0.
         25    1    4    4    0    0  0.46037397793E+02  0.71172326304E+01  0.65295905121E+03  0.66646314801E+03  0.12509000000E+03 0.  0.
<mgrwt>
<rscale>  2 0.45396109E+03</rscale>
<asrwt>0</asrwt>
<pdfrwt beam="1">  1       21 0.24889480E+00 0.45396109E+03</pdfrwt>
<pdfrwt beam="2">  1       21 0.44765518E-02 0.45396109E+03</pdfrwt>
<totfact> 0.18940842E+04</totfact>
</mgrwt>
</event>
<event>
 7    0  0.4714446E-002  0.4375545E+03  0.7546771E-02  0.1031500E+00
         21   -1    0    0  502  501  0.00000000000E+00  0.00000000000E+00  0.39843748315E+02  0.39843748315E+02  0.00000000000E+00 0. -1.
         21   -1    0    0  501  502 -0.00000000000E+00 -0.00000000000E+00 -0.12012796389E+04  0.12012796389E+04  0.00000000000E+00 0. -1.
      99926    2    1    2    0    0  0.00000000000E+00 -0.71054273576E-14 -0.11614358906E+04  0.12411233872E+04  0.43755449301E+03 0.  0.
      99925    2    3    3    0    0  0.66670250513E+02 -0.39583925374E+02 -0.90305293804E+03  0.94376658518E+03  0.26301891367E+03 0.  0.
         25    1    4    4    0    0  0.16616258902E+02  0.11103948704E+02 -0.34758934029E+03  0.36995304475E+03  0.12509000000E+03 0.  0.
         25    1    4    4    0    0  0.50053991611E+02 -0.50687874078E+02 -0.55546359775E+03  0.57381354043E+03  0.12509000000E+03 0.  0.
         25    1    3    3    0    0 -0.66670250513E+02  0.39583925374E+02 -0.25838295256E+03  0.29735680205E+03  0.12509000000E+03 0.  0.
<mgrwt>
<rscale>  2 0.43755449E+03</rscale>
<asrwt>0</asrwt>
<pdfrwt beam="1">  1       21 0.58593757E-02 0.43755449E+03</pdfrwt>
<pdfrwt beam="2">  1       21 0.17665874E+00 0.43755449E+03</pdfrwt>
<totfact> 0.35447481E+04</totfact>
</mgrwt>
</event>
<event>
 7    0  0.4714446E-002  0.4037814E+03  0.7546771E-02  0.1042478E+00
         21   -1    0    0  502  501  0.00000000000E+00  0.00000000000E+00  0.21395523141E+03  0.21395523141E+03  0.00000000000E+00 0. -1.
         21   -1    0    0  501  502 -0.00000000000E+00 -0.00000000000E+00 -0.19050646845E+03  0.19050646845E+03  0.00000000000E+00 0. -1.
      99926    2    1    2    0    0  0.88817841970E-15  0.00000000000E+00  0.23448762955E+02  0.40446169986E+03  0.40378140395E+03 0.  0.
      99925    2    3    3    0    0 -0.31732648510E+01  0.16726339776E+02  0.65150486642E+02  0.27150914475E+03  0.26302621490E+03 0.  0.
         25    1    4    4    0    0  0.18426660711E+02 -0.20637880466E+02  0.52942235646E+02  0.13862125505E+03  0.12509000000E+03 0.  0.
         25    1    4    4    0    0 -0.21599925562E+02  0.37364220242E+02  0.12208250997E+02  0.13288788971E+03  0.12509000000E+03 0.  0.
         25    1    3    3    0    0  0.31732648510E+01 -0.16726339776E+02 -0.41701723688E+02  0.13295255511E+03  0.12509000000E+03 0.  0.
<mgrwt>
<rscale>  2 0.40378140E+03</rscale>
<asrwt>0</asrwt>
<pdfrwt beam="1">  1       21 0.31464005E-01 0.40378140E+03</pdfrwt>
<pdfrwt beam="2">  1       21 0.28015657E-01 0.40378140E+03</pdfrwt>
<totfact> 0.11147080E+05</totfact>
</mgrwt>
</event>
<event>
 7    0  0.4714446E-002  0.4368215E+03  0.7546771E-02  0.1031727E+00
         21   -1    0    0  502  501  0.00000000000E+00  0.00000000000E+00  0.21767420623E+03  0.21767420623E+03  0.00000000000E+00 0. -1.
         21   -1    0    0  501  502 -0.00000000000E+00 -0.00000000000E+00 -0.21914975861E+03  0.21914975861E+03  0.00000000000E+00 0. -1.
      99926    2    1    2    0    0  0.00000000000E+00  0.22204460493E-14 -0.14755523788E+01  0.43682396484E+03  0.43682147269E+03 0.  0.
      99925    2    3    3    0    0 -0.91003426163E+02 -0.25536476726E+01 -0.27468062933E+02  0.27994419115E+03  0.26329852067E+03 0.  0.
         25    1    3    3    0    0  0.91003426163E+02  0.25536476726E+01  0.25992510555E+02  0.15687977370E+03  0.12509000000E+03 0.  0.
         25    1    4    4    0    0 -0.66794363331E+02 -0.36565512112E+02 -0.82304005336E+01  0.14667573501E+03  0.12509000000E+03 0.  0.
         25    1    4    4    0    0 -0.24209062832E+02  0.34011864439E+02 -0.19237662400E+02  0.13326845613E+03  0.12509000000E+03 0.  0.
<mgrwt>
<rscale>  2 0.43682147E+03</rscale>
<asrwt>0</asrwt>
<pdfrwt beam="1">  1       21 0.32010913E-01 0.43682147E+03</pdfrwt>
<pdfrwt beam="2">  1       21 0.32227906E-01 0.43682147E+03</pdfrwt>
<totfact> 0.81028800E+04</totfact>
</mgrwt>
</event>
<event>
 7    0  0.4714446E-002  0.4602820E+03  0.7546771E-02  0.1024699E+00
         21   -1    0    0  502  501  0.00000000000E+00  0.00000000000E+00  0.25600905675E+03  0.25600905675E+03  0.00000000000E+00 0.  1.
         21   -1    0    0  501  502 -0.00000000000E+00 -0.00000000000E+00 -0.20688674994E+03  0.20688674994E+03  0.00000000000E+00 0.  1.
      99926    2    1    2    0    0  0.00000000000E+00 -0.35527136788E-14  0.49122306813E+02  0.46289580670E+03  0.46028200794E+03 0.  0.
      99925    2    3    3    0    0 -0.19427939183E+02 -0.21487029849E+02  0.14595560211E+03  0.30207499819E+03  0.26288234910E+03 0.  0.
         25    1    4    4    0    0 -0.22945178070E+02  0.23560445608E+02  0.91113668813E+02  0.15821120232E+03  0.12509000000E+03 0.  0.
         25    1    3    3    0    0  0.19427939183E+02  0.21487029849E+02 -0.96833295293E+02  0.16082080851E+03  0.12509000000E+03 0.  0.
         25    1    4    4    0    0  0.35172388865E+01 -0.45047475457E+02  0.54841933294E+02  0.14386379587E+03  0.12509000000E+03 0.  0.
<mgrwt>
<rscale>  2 0.46028201E+03</rscale>
<asrwt>0</asrwt>
<pdfrwt beam="1">  1       21 0.37648391E-01 0.46028201E+03</pdfrwt>
<pdfrwt beam="2">  1       21 0.30424522E-01 0.46028201E+03</pdfrwt>
<totfact> 0.65180646E+04</totfact>
</mgrwt>
</event>
<event>
 7    0  0.4714446E-002  0.4599363E+03  0.7546771E-02  0.1024800E+00
         21   -1    0    0  502  501  0.00000000000E+00  0.00000000000E+00  0.12249195780E+04  0.12249195780E+04  0.00000000000E+00 0. -1.
         21   -1    0    0  501  502 -0.00000000000E+00 -0.00000000000E+00 -0.43174555529E+02  0.43174555529E+02  0.00000000000E+00 0. -1.
      99926    2    1    2    0    0  0.00000000000E+00  0.71054273576E-14  0.11817450225E+04  0.12680941335E+04  0.45993633620E+03 0.  0.
      99925    2    3    3    0    0  0.75084572634E+02  0.50213091331E+02  0.94896681529E+03  0.98882320875E+03  0.26281985095E+03 0.  0.
         25    1    4    4    0    0  0.61856515139E+02  0.26537927145E+02  0.38116831336E+03  0.40677669704E+03  0.12509000000E+03 0.  0.
         25    1    4    4    0    0  0.13228057495E+02  0.23675164186E+02  0.56779850193E+03  0.58204651172E+03  0.12509000000E+03 0.  0.
         25    1    3    3    0    0 -0.75084572634E+02 -0.50213091331E+02  0.23277820719E+03  0.27927092479E+03  0.12509000000E+03 0.  0.
<mgrwt>
<rscale>  2 0.45993634E+03</rscale>
<asrwt>0</asrwt>
<pdfrwt beam="1">  1       21 0.18013521E+00 0.45993634E+03</pdfrwt>
<pdfrwt beam="2">  1       21 0.63492001E-02 0.45993634E+03</pdfrwt>
<totfact> 0.28928074E+04</totfact>
</mgrwt>
</event>
<event>
 6    0  0.4714446E-002  0.4441173E+03  0.7546771E-02  0.1029491E+00
         21   -1    0    0  502  501  0.00000000000E+00  0.00000000000E+00  0.44549024522E+03  0.44549024522E+03  0.00000000000E+00 0. -1.
         21   -1    0    0  501  502 -0.00000000000E+00 -0.00000000000E+00 -0.11068715039E+03  0.11068715039E+03  0.00000000000E+00 0. -1.
      99926    2    1    2    0    0  0.00000000000E+00  0.00000000000E+00  0.33480309482E+03  0.55617739561E+03  0.44411730780E+03 0.  0.
         25    1    3    3    0    0  0.35654952619E+02 -0.28069495383E+01  0.87127243916E+02  0.15658166989E+03  0.12509000000E+03 0.  0.
         25    1    3    3    0    0 -0.32704824850E+01  0.78645422748E+02  0.60147129591E+02  0.15956498323E+03  0.12509000000E+03 0.  0.
         25    1    3    3    0    0 -0.32384470134E+02 -0.75838473210E+02  0.18752872131E+03  0.24003074249E+03  0.12509000000E+03 0.  0.
<mgrwt>
<rscale>  2 0.44411731E+03</rscale>
<asrwt>0</asrwt>
<pdfrwt beam="1">  1       21 0.65513271E-01 0.44411731E+03</pdfrwt>
<pdfrwt beam="2">  1       21 0.16277522E-01 0.44411731E+03</pdfrwt>
<totfact> 0.67048439E+04</totfact>
</mgrwt>
</event>
<event>
 7    0  0.4714446E-002  0.4557334E+03  0.7546771E-02  0.1026026E+00
         21   -1    0    0  502  501  0.00000000000E+00  0.00000000000E+00  0.44955274501E+02  0.44955274501E+02  0.00000000000E+00 0. -1.
         21   -1    0    0  501  502 -0.00000000000E+00 -0.00000000000E+00 -0.11549974457E+04  0.11549974457E+04  0.00000000000E+00 0. -1.
      99926    2    1    2    0    0  0.88817841970E-15  0.00000000000E+00 -0.11100421712E+04  0.11999527202E+04  0.45573337476E+03 0.  0.
      99925    2    3    3    0    0  0.45444632807E+01 -0.11392866102E+03 -0.70036095765E+03  0.75668463339E+03  0.26280367474E+03 0.  0.
         25    1    4    4    0    0  0.15797026417E+02 -0.70479269983E+02 -0.45851634970E+03  0.48073030338E+03  0.12509000000E+03 0.  0.
         25    1    4    4    0    0 -0.11252563136E+02 -0.43449391036E+02 -0.24184460795E+03  0.27595433001E+03  0.12509000000E+03 0.  0.
         25    1    3    3    0    0 -0.45444632807E+01  0.11392866102E+03 -0.40968121351E+03  0.44326808677E+03  0.12509000000E+03 0.  0.
<mgrwt>
<rscale>  2 0.45573337E+03</rscale>
<asrwt>0</asrwt>
<pdfrwt beam="1">  1       21 0.66110701E-02 0.45573337E+03</pdfrwt>
<pdfrwt beam="2">  1       21 0.16985256E+00 0.45573337E+03</pdfrwt>
<totfact> 0.31974386E+04</totfact>
</mgrwt>
</event>
<event>
 7    0  0.4714446E-002  0.4618886E+03  0.7546771E-02  0.1024235E+00
         21   -1    0    0  502  501  0.00000000000E+00  0.00000000000E+00  0.89407939863E+03  0.89407939863E+03  0.00000000000E+00 0.  1.
         21   -1    0    0  501  502 -0.00000000000E+00 -0.00000000000E+00 -0.59653849294E+02  0.59653849294E+02  0.00000000000E+00 0.  1.
      99926    2    1    2    0    0  0.00000000000E+00  0.00000000000E+00  0.83442554933E+03  0.95373324792E+03  0.46188863464E+03 0.  0.
      99925    2    3    3    0    0 -0.37193021907E+02  0.10119829673E+03  0.41539982920E+03  0.50333955528E+03  0.26300052028E+03 0.  0.
         25    1    4    4    0    0 -0.61965813504E+01  0.89988146219E+02  0.24293196586E+03  0.28774939134E+03  0.12509000000E+03 0.  0.
         25    1    4    4    0    0 -0.30996440556E+02  0.11210150506E+02  0.17246786334E+03  0.21559016394E+03  0.12509000000E+03 0.  0.
         25    1    3    3    0    0  0.37193021907E+02 -0.10119829673E+03  0.41902572014E+03  0.45039369265E+03  0.12509000000E+03 0.  0.
<mgrwt>
<rscale>  2 0.46188863E+03</rscale>
<asrwt>0</asrwt>
<pdfrwt beam="1">  1       21 0.13148226E+00 0.46188863E+03</pdfrwt>
<pdfrwt beam="2">  1       21 0.87726254E-02 0.46188863E+03</pdfrwt>
<totfact> 0.38854465E+04</totfact>
</mgrwt>
</event>
<event>
 7    0  0.4714446E-002  0.4572965E+03  0.7546771E-02  0.1025568E+00
         21   -1    0    0  502  501  0.00000000000E+00  0.00000000000E+00  0.10910249955E+03  0.10910249955E+03  0.00000000000E+00 0.  1.
         21   -1    0    0  501  502 -0.00000000000E+00 -0.00000000000E+00 -0.47918253230E+03  0.47918253230E+03  0.00000000000E+00 0.  1.
      99926    2    1    2    0    0  0.00000000000E+00  0.35527136788E-14 -0.37008003275E+03  0.58828503185E+03  0.45729645534E+03 0.  0.
      99925    2    3    3    0    0  0.10952189453E+03 -0.18339497164E+02 -0.27280343389E+03  0.39478664084E+03  0.26287524742E+03 0.  0.
         25    1    4    4    0    0  0.44721502709E+02 -0.43307128919E+02 -0.16124391838E+03  0.21336032793E+03  0.12509000000E+03 0.  0.
         25    1    3    3    0    0 -0.10952189453E+03  0.18339497164E+02 -0.97276598857E+02  0.19349839101E+03  0.12509000000E+03 0.  0.
         25    1    4    4    0    0  0.64800391823E+02  0.24967631755E+02 -0.11155951552E+03  0.18142631292E+03  0.12509000000E+03 0.  0.
<mgrwt>
<rscale>  2 0.45729646E+03</rscale>
<asrwt>0</asrwt>
<pdfrwt beam="1">  1       21 0.16044486E-01 0.45729646E+03</pdfrwt>
<pdfrwt beam="2">  1       21 0.70468018E-01 0.45729646E+03</pdfrwt>
<totfact> 0.58339057E+04</totfact>
</mgrwt>
</event>
<event>
 7    0  0.4714446E-002  0.4558285E+03  0.7546771E-02  0.1025998E+00
         21   -1    0    0  502  501  0.00000000000E+00  0.00000000000E+00  0.16161057152E+04  0.16161057152E+04  0.00000000000E+00 0. -1.
         21   -1    0    0  501  502 -0.00000000000E+00 -0.00000000000E+00 -0.32142014928E+02  0.32142014928E+02  0.00000000000E+00 0. -1.
      99926    2    1    2    0    0  0.00000000000E+00 -0.14210854715E-13  0.15839637003E+04  0.16482477301E+04  0.45582845029E+03 0.  0.
      99925    2    3    3    0    0 -0.60415423256E+02 -0.76437524280E+02  0.78080113538E+03  0.82958398216E+03  0.26280496945E+03 0.  0.
         25    1    4    4    0    0 -0.64273895981E+02 -0.42032041823E+02  0.34662836846E+03  0.37642603545E+03  0.12509000000E+03 0.  0.
         25    1    4    4    0    0  0.38584727251E+01 -0.34405482457E+02  0.43417276692E+03  0.45315794671E+03  0.12509000000E+03 0.  0.
         25    1    3    3    0    0  0.60415423256E+02  0.76437524280E+02  0.80316256489E+03  0.81866374796E+03  0.12509000000E+03 0.  0.
<mgrwt>
<rscale>  2 0.45582845E+03</rscale>
<asrwt>0</asrwt>
<pdfrwt beam="1">  1       21 0.23766255E+00 0.45582845E+03</pdfrwt>
<pdfrwt beam="2">  1       21 0.47267680E-02 0.45582845E+03</pdfrwt>
<totfact> 0.20230693E+04</totfact>
</mgrwt>
</event>
<event>
 7    0  0.4714446E-002  0.4575959E+03  0.7546771E-02  0.1025481E+00
         21   -1    0    0  502  501  0.00000000000E+00  0.00000000000E+00  0.10555803397E+03  0.10555803397E+03  0.00000000000E+00 0. -1.
         21   -1    0    0  501  502 -0.00000000000E+00 -0.00000000000E+00 -0.49592147285E+03  0.49592147285E+03  0.00000000000E+00 0. -1.
      99926    2    1    2    0    0 -0.71054273576E-14  0.17763568394E-14 -0.39036343888E+03  0.60147950681E+03  0.45759587269E+03 0.  0.
      99925    2    3    3    0    0  0.34737392892E+02 -0.11078869197E+02 -0.38942892309E+03  0.47118058422E+03  0.26272957390E+03 0.  0.
         25    1    4    4    0    0  0.35105608176E+02 -0.29670997347E+02 -0.24738111786E+03  0.28099412339E+03  0.12509000000E+03 0.  0.
         25    1    3    3    0    0 -0.34737392892E+02  0.11078869197E+02 -0.93451578647E+00  0.13029892259E+03  0.12509000000E+03 0.  0.
         25    1    4    4    0    0 -0.36821528392E+00  0.18592128149E+02 -0.14204780523E+03  0.19018646083E+03  0.12509000000E+03 0.  0.
<mgrwt>
<rscale>  2 0.45759587E+03</rscale>
<asrwt>0</asrwt>
<pdfrwt beam="1">  1       21 0.15523240E-01 0.45759587E+03</pdfrwt>
<pdfrwt beam="2">  1       21 0.72929630E-01 0.45759587E+03</pdfrwt>
<totfact> 0.57400907E+04</totfact>
</mgrwt>
</event>
<event>
 7    0  0.4714446E-002  0.4525392E+03  0.7546771E-02  0.1026968E+00
         21   -1    0    0  502  501  0.00000000000E+00  0.00000000000E+00  0.40119981941E+03  0.40119981941E+03  0.00000000000E+00 0. -1.
         21   -1    0    0  501  502 -0.00000000000E+00 -0.00000000000E+00 -0.12761207463E+03  0.12761207463E+03  0.00000000000E+00 0. -1.
      99926    2    1    2    0    0  0.00000000000E+00  0.00000000000E+00  0.27358774478E+03  0.52881189404E+03  0.45253924160E+03 0.  0.
      99925    2    3    3    0    0 -0.21239939697E+02 -0.85873122635E+02  0.25067629236E+03  0.37389975448E+03  0.26293933639E+03 0.  0.
         25    1    4    4    0    0  0.80607629936E+01 -0.35182351881E+02  0.74372289272E+02  0.14993838500E+03  0.12509000000E+03 0.  0.
         25    1    4    4    0    0 -0.29300702691E+02 -0.50690770754E+02  0.17630400309E+03  0.22396136949E+03  0.12509000000E+03 0.  0.
         25    1    3    3    0    0  0.21239939697E+02  0.85873122635E+02  0.22911452417E+02  0.15491213955E+03  0.12509000000E+03 0.  0.
<mgrwt>
<rscale>  2 0.45253924E+03</rscale>
<asrwt>0</asrwt>
<pdfrwt beam="1">  1       21 0.58999973E-01 0.45253924E+03</pdfrwt>
<pdfrwt beam="2">  1       21 0.18766482E-01 0.45253924E+03</pdfrwt>
<totfact> 0.64536576E+04</totfact>
</mgrwt>
</event>
<event>
 7    0  0.4714446E-002  0.4565998E+03  0.7546771E-02  0.1025772E+00
         21   -1    0    0  502  501  0.00000000000E+00  0.00000000000E+00  0.38153229377E+02  0.38153229377E+02  0.00000000000E+00 0.  1.
         21   -1    0    0  501  502 -0.00000000000E+00 -0.00000000000E+00 -0.13660928509E+04  0.13660928509E+04  0.00000000000E+00 0.  1.
      99926    2    1    2    0    0  0.00000000000E+00  0.71054273576E-14 -0.13279396215E+04  0.14042460803E+04  0.45659984184E+03 0.  0.
      99925    2    3    3    0    0  0.94239779310E+02  0.53294148819E+02 -0.95088772820E+03  0.99249732113E+03  0.26294877544E+03 0.  0.
         25    1    4    4    0    0  0.56314221186E+01  0.15846697398E+02 -0.44709816759E+03  0.46457196461E+03  0.12509000000E+03 0.  0.
         25    1    3    3    0    0 -0.94239779310E+02 -0.53294148819E+02 -0.37705189334E+03  0.41174875916E+03  0.12509000000E+03 0.  0.
         25    1    4    4    0    0  0.88608357191E+02  0.37447451421E+02 -0.50378956061E+03  0.52792535652E+03  0.12509000000E+03 0.  0.
<mgrwt>
<rscale>  2 0.45659984E+03</rscale>
<asrwt>0</asrwt>
<pdfrwt beam="1">  1       21 0.56107681E-02 0.45659984E+03</pdfrwt>
<pdfrwt beam="2">  1       21 0.20089604E+00 0.45659984E+03</pdfrwt>
<totfact> 0.25895619E+04</totfact>
</mgrwt>
</event>
<event>
 7    0  0.4714446E-002  0.4633212E+03  0.7546771E-02  0.1023822E+00
         21   -1    0    0  502  501  0.00000000000E+00  0.00000000000E+00  0.43584778221E+03  0.43584778221E+03  0.00000000000E+00 0. -1.
         21   -1    0    0  501  502 -0.00000000000E+00 -0.00000000000E+00 -0.12313159409E+03  0.12313159409E+03  0.00000000000E+00 0. -1.
      99926    2    1    2    0    0  0.00000000000E+00  0.00000000000E+00  0.31271618812E+03  0.55897937630E+03  0.46332119401E+03 0.  0.
      99925    2    3    3    0    0  0.97024710251E+02  0.17295998452E+02  0.11097609728E+03  0.30195891347E+03  0.26296491267E+03 0.  0.
         25    1    4    4    0    0  0.79526638346E+02  0.31388652504E+02  0.79143528282E+02  0.17094133462E+03  0.12509000000E+03 0.  0.
         25    1    3    3    0    0 -0.97024710251E+02 -0.17295998452E+02  0.20174009084E+03  0.25702046283E+03  0.12509000000E+03 0.  0.
         25    1    4    4    0    0  0.17498071905E+02 -0.14092654053E+02  0.31832569003E+02  0.13101757885E+03  0.12509000000E+03 0.  0.
<mgrwt>
<rscale>  2 0.46332119E+03</rscale>
<asrwt>0</asrwt>
<pdfrwt beam="1">  1       21 0.64095262E-01 0.46332119E+03</pdfrwt>
<pdfrwt beam="2">  1       21 0.18107588E-01 0.46332119E+03</pdfrwt>
<totfact> 0.57404165E+04</totfact>
</mgrwt>
</event>
<event>
 7    0  0.4714446E-002  0.4459815E+03  0.7546771E-02  0.1028927E+00
         21   -1    0    0  502  501  0.00000000000E+00  0.00000000000E+00  0.13228310785E+03  0.13228310785E+03  0.00000000000E+00 0.  1.
         21   -1    0    0  501  502 -0.00000000000E+00 -0.00000000000E+00 -0.37589745573E+03  0.37589745573E+03  0.00000000000E+00 0.  1.
      99926    2    1    2    0    0  0.00000000000E+00 -0.14210854715E-13 -0.24361434788E+03  0.50818056358E+03  0.44598154077E+03 0.  0.
      99925    2    3    3    0    0  0.67901882203E+02  0.78653114259E+02 -0.14345366155E+03  0.31719195351E+03  0.26312507363E+03 0.  0.
         25    1    4    4    0    0  0.54352578016E+02  0.66807613860E+02 -0.49566014664E+02  0.15975530638E+03  0.12509000000E+03 0.  0.
         25    1    3    3    0    0 -0.67901882203E+02 -0.78653114259E+02 -0.10016068633E+03  0.19098861007E+03  0.12509000000E+03 0.  0.
         25    1    4    4    0    0  0.13549304188E+02  0.11845500399E+02 -0.93887646884E+02  0.15743664713E+03  0.12509000000E+03 0.  0.
<mgrwt>
<rscale>  2 0.44598154E+03</rscale>
<asrwt>0</asrwt>
<pdfrwt beam="1">  1       21 0.19453398E-01 0.44598154E+03</pdfrwt>
<pdfrwt beam="2">  1       21 0.55279037E-01 0.44598154E+03</pdfrwt>
<totfact> 0.69545038E+04</totfact>
</mgrwt>
</event>
<event>
 7    0  0.4714446E-002  0.4629943E+03  0.7546771E-02  0.1023916E+00
         21   -1    0    0  502  501  0.00000000000E+00  0.00000000000E+00  0.99577326581E+03  0.99577326581E+03  0.00000000000E+00 0. -1.
         21   -1    0    0  501  502 -0.00000000000E+00 -0.00000000000E+00 -0.53818397206E+02  0.53818397206E+02  0.00000000000E+00 0. -1.
      99926    2    1    2    0    0  0.00000000000E+00  0.00000000000E+00  0.94195486861E+03  0.10495916630E+04  0.46299425978E+03 0.  0.
      99925    2    3    3    0    0 -0.52414456346E+02  0.81191582018E+02  0.75201040978E+03  0.80247680356E+03  0.26288783847E+03 0.  0.
         25    1    4    4    0    0 -0.29140441459E+02  0.80919878739E+02  0.37434757272E+03  0.40395643999E+03  0.12509000000E+03 0.  0.
         25    1    4    4    0    0 -0.23274014887E+02  0.27170327927E+00  0.37766283706E+03  0.39852036358E+03  0.12509000000E+03 0.  0.
         25    1    3    3    0    0  0.52414456346E+02 -0.81191582018E+02  0.18994445883E+03  0.24711485946E+03  0.12509000000E+03 0.  0.
<mgrwt>
<rscale>  2 0.46299426E+03</rscale>
<asrwt>0</asrwt>
<pdfrwt beam="1">  1       21 0.14643723E+00 0.46299426E+03</pdfrwt>
<pdfrwt beam="2">  1       21 0.79144708E-02 0.46299426E+03</pdfrwt>
<totfact> 0.35053488E+04</totfact>
</mgrwt>
</event>
<event>
 7    0  0.4714446E-002  0.4531673E+03  0.7546771E-02  0.1026782E+00
         21   -1    0    0  502  501  0.00000000000E+00  0.00000000000E+00  0.19617630583E+04  0.19617630583E+04  0.00000000000E+00 0.  1.
         21   -1    0    0  501  502 -0.00000000000E+00 -0.00000000000E+00 -0.26170410968E+02  0.26170410968E+02  0.00000000000E+00 0.  1.
      99926    2    1    2    0    0 -0.14210854715E-13  0.00000000000E+00  0.19355926474E+04  0.19879334693E+04  0.45316727798E+03 0.  0.
      99925    2    3    3    0    0 -0.81902218883E+02 -0.53247500419E+02  0.14551582058E+04  0.14819611079E+04  0.26302100993E+03 0.  0.
         25    1    4    4    0    0 -0.43170115732E+02 -0.68012530097E+02  0.77884286679E+03  0.79292690861E+03  0.12509000000E+03 0.  0.
         25    1    4    4    0    0 -0.38732103152E+02  0.14765029678E+02  0.67631533905E+03  0.68903419933E+03  0.12509000000E+03 0.  0.
         25    1    3    3    0    0  0.81902218883E+02  0.53247500419E+02  0.48043444153E+03  0.50597236136E+03  0.12509000000E+03 0.  0.
<mgrwt>
<rscale>  2 0.45316728E+03</rscale>
<asrwt>0</asrwt>
<pdfrwt beam="1">  1       21 0.28849447E+00 0.45316728E+03</pdfrwt>
<pdfrwt beam="2">  1       21 0.38485912E-02 0.45316728E+03</pdfrwt>
<totfact> 0.14107354E+04</totfact>
</mgrwt>
</event>
<event>
 7    0  0.4714446E-002  0.4606140E+03  0.7546771E-02  0.1024603E+00
         21   -1    0    0  502  501  0.00000000000E+00  0.00000000000E+00  0.11168007813E+03  0.11168007813E+03  0.00000000000E+00 0.  1.
         21   -1    0    0  501  502 -0.00000000000E+00 -0.00000000000E+00 -0.47493970020E+03  0.47493970020E+03  0.00000000000E+00 0.  1.
      99926    2    1    2    0    0  0.00000000000E+00  0.00000000000E+00 -0.36325962207E+03  0.58661977834E+03  0.46061395041E+03 0.  0.
      99925    2    3    3    0    0 -0.98192913747E+02  0.32513793077E+02 -0.30071042556E+03  0.41266890845E+03  0.26300165952E+03 0.  0.
         25    1    4    4    0    0 -0.85517670774E+02  0.26786963739E+02 -0.19430738596E+03  0.24785818885E+03  0.12509000000E+03 0.  0.
         25    1    4    4    0    0 -0.12675242973E+02  0.57268293378E+01 -0.10640303960E+03  0.16481071960E+03  0.12509000000E+03 0.  0.
         25    1    3    3    0    0  0.98192913747E+02 -0.32513793077E+02 -0.62549196507E+02  0.17395086989E+03  0.12509000000E+03 0.  0.
<mgrwt>
<rscale>  2 0.46061395E+03</rscale>
<asrwt>0</asrwt>
<pdfrwt beam="1">  1       21 0.16423541E-01 0.46061395E+03</pdfrwt>
<pdfrwt beam="2">  1       21 0.69844072E-01 0.46061395E+03</pdfrwt>
<totfact> 0.56940389E+04</totfact>
</mgrwt>
</event>
<event>
 7    0  0.4714446E-002  0.4532331E+03  0.7546771E-02  0.1026762E+00
         21   -1    0    0  502  501  0.00000000000E+00  0.00000000000E+00  0.13268912314E+03  0.13268912314E+03  0.00000000000E+00 0. -1.
         21   -1    0    0  501  502 -0.00000000000E+00 -0.00000000000E+00 -0.38703299133E+03  0.38703299133E+03  0.00000000000E+00 0. -1.
      99926    2    1    2    0    0  0.00000000000E+00  0.00000000000E+00 -0.25434386819E+03  0.51972211446E+03  0.45323313314E+03 0.  0.
      99925    2    3    3    0    0  0.71944599017E+02  0.40612181391E+02 -0.74298969264E+02  0.28543799564E+03  0.26292420564E+03 0.  0.
         25    1    4    4    0    0  0.32869840820E+02 -0.15778152813E+02 -0.15829588989E+02  0.13125342102E+03  0.12509000000E+03 0.  0.
         25    1    4    4    0    0  0.39074758197E+02  0.56390334204E+02 -0.58469380275E+02  0.15418457462E+03  0.12509000000E+03 0.  0.
         25    1    3    3    0    0 -0.71944599017E+02 -0.40612181391E+02 -0.18004489893E+03  0.23428411883E+03  0.12509000000E+03 0.  0.
<mgrwt>
<rscale>  2 0.45323313E+03</rscale>
<asrwt>0</asrwt>
<pdfrwt beam="1">  1       21 0.19513106E-01 0.45323313E+03</pdfrwt>
<pdfrwt beam="2">  1       21 0.56916617E-01 0.45323313E+03</pdfrwt>
<totfact> 0.64809921E+04</totfact>
</mgrwt>
</event>
<event>
 7    0  0.4714446E-002  0.4540467E+03  0.7546771E-02  0.1026522E+00
         21   -1    0    0  502  501  0.00000000000E+00  0.00000000000E+00  0.59101137405E+03  0.59101137405E+03  0.00000000000E+00 0.  1.
         21   -1    0    0  501  502 -0.00000000000E+00 -0.00000000000E+00 -0.87205770846E+02  0.87205770846E+02  0.00000000000E+00 0.  1.
      99926    2    1    2    0    0  0.00000000000E+00  0.00000000000E+00  0.50380560320E+03  0.67821714489E+03  0.45404670444E+03 0.  0.
      99925    2    3    3    0    0 -0.24059858755E+01  0.10881245754E+03  0.35891654051E+03  0.45802112252E+03  0.26289984012E+03 0.  0.
         25    1    4    4    0    0 -0.13947328256E+01  0.67674257052E+02  0.12390796666E+03  0.18863309002E+03  0.12509000000E+03 0.  0.
         25    1    3    3    0    0  0.24059858755E+01 -0.10881245754E+03  0.14488906269E+03  0.22019602238E+03  0.12509000000E+03 0.  0.
         25    1    4    4    0    0 -0.10112530499E+01  0.41138200485E+02  0.23500857385E+03  0.26938803250E+03  0.12509000000E+03 0.  0.
<mgrwt>
<rscale>  2 0.45404670E+03</rscale>
<asrwt>0</asrwt>
<pdfrwt beam="1">  1       21 0.86913436E-01 0.45404670E+03</pdfrwt>
<pdfrwt beam="2">  1       21 0.12824378E-01 0.45404670E+03</pdfrwt>
<totfact> 0.54510212E+04</totfact>
</mgrwt>
</event>
<event>
 7    0  0.4714446E-002  0.4558690E+03  0.7546771E-02  0.1025986E+00
         21   -1    0    0  502  501  0.00000000000E+00  0.00000000000E+00  0.16815277455E+03  0.16815277455E+03  0.00000000000E+00 0.  1.
         21   -1    0    0  501  502 -0.00000000000E+00 -0.00000000000E+00 -0.30896983220E+03  0.30896983220E+03  0.00000000000E+00 0.  1.
      99926    2    1    2    0    0  0.17763568394E-14  0.44408920985E-15 -0.14081705765E+03  0.47712260674E+03  0.45586899230E+03 0.  0.
      99925    2    3    3    0    0  0.14414274964E+02  0.25413986689E+01  0.30099672043E+02  0.26481559645E+03  0.26269198662E+03 0.  0.
         25    1    4    4    0    0  0.17933853910E+02  0.39836593534E+02  0.13477495787E+02  0.13318306309E+03  0.12509000000E+03 0.  0.
         25    1    4    4    0    0 -0.35195789466E+01 -0.37295194865E+02  0.16622176256E+02  0.13163253336E+03  0.12509000000E+03 0.  0.
         25    1    3    3    0    0 -0.14414274964E+02 -0.25413986689E+01 -0.17091672969E+03  0.21230701029E+03  0.12509000000E+03 0.  0.
<mgrwt>
<rscale>  2 0.45586899E+03</rscale>
<asrwt>0</asrwt>
<pdfrwt beam="1">  1       21 0.24728350E-01 0.45586899E+03</pdfrwt>
<pdfrwt beam="2">  1       21 0.45436739E-01 0.45586899E+03</pdfrwt>
<totfact> 0.66450679E+04</totfact>
</mgrwt>
</event>
<event>
 7    0  0.4714446E-002  0.4563871E+03  0.7546771E-02  0.1025834E+00
         21   -1    0    0  502  501  0.00000000000E+00  0.00000000000E+00  0.46608591983E+02  0.46608591983E+02  0.00000000000E+00 0.  1.
         21   -1    0    0  501  502 -0.00000000000E+00 -0.00000000000E+00 -0.11172250581E+04  0.11172250581E+04  0.00000000000E+00 0.  1.
      99926    2    1    2    0    0  0.00000000000E+00  0.00000000000E+00 -0.10706164661E+04  0.11638336501E+04  0.45638705891E+03 0.  0.
      99925    2    3    3    0    0  0.40624480550E+02 -0.94513424160E+02 -0.80089947703E+03  0.84922611987E+03  0.26298649127E+03 0.  0.
         25    1    4    4    0    0  0.34401223616E+02 -0.87422444354E+02 -0.41907461529E+03  0.44732222082E+03  0.12509000000E+03 0.  0.
         25    1    3    3    0    0 -0.40624480550E+02  0.94513424160E+02 -0.26971698907E+03  0.31460753020E+03  0.12509000000E+03 0.  0.
         25    1    4    4    0    0  0.62232569334E+01 -0.70909798060E+01 -0.38182486174E+03  0.40190389904E+03  0.12509000000E+03 0.  0.
<mgrwt>
<rscale>  2 0.45638706E+03</rscale>
<asrwt>0</asrwt>
<pdfrwt beam="1">  1       21 0.68542044E-02 0.45638706E+03</pdfrwt>
<pdfrwt beam="2">  1       21 0.16429781E+00 0.45638706E+03</pdfrwt>
<totfact> 0.32966064E+04</totfact>
</mgrwt>
</event>
<event>
 7    0  0.4714446E-002  0.4419140E+03  0.7546771E-02  0.1030161E+00
         21   -1    0    0  502  501  0.00000000000E+00  0.00000000000E+00  0.92053845258E+02  0.92053845258E+02  0.00000000000E+00 0. -1.
         21   -1    0    0  501  502 -0.00000000000E+00 -0.00000000000E+00 -0.53036345635E+03  0.53036345635E+03  0.00000000000E+00 0. -1.
      99926    2    1    2    0    0  0.71054273576E-14  0.00000000000E+00 -0.43830961109E+03  0.62241730161E+03  0.44191399861E+03 0.  0.
      99925    2    3    3    0    0  0.57357731322E+02 -0.27371362412E+02 -0.16975819829E+03  0.31942147615E+03  0.26300785677E+03 0.  0.
         25    1    4    4    0    0  0.70046516991E+02 -0.12725944048E+02 -0.93817391946E+02  0.17180708753E+03  0.12509000000E+03 0.  0.
         25    1    3    3    0    0 -0.57357731322E+02  0.27371362412E+02 -0.26855141281E+03  0.30299582545E+03  0.12509000000E+03 0.  0.
         25    1    4    4    0    0 -0.12688785668E+02 -0.14645418364E+02 -0.75940806340E+02  0.14761438862E+03  0.12509000000E+03 0.  0.
<mgrwt>
<rscale>  2 0.44191400E+03</rscale>
<asrwt>0</asrwt>
<pdfrwt beam="1">  1       21 0.13537330E-01 0.44191400E+03</pdfrwt>
<pdfrwt beam="2">  1       21 0.77994627E-01 0.44191400E+03</pdfrwt>
<totfact> 0.63644256E+04</totfact>
</mgrwt>
</event>
<event>
 7    0  0.4714446E-002  0.4604203E+03  0.7546771E-02  0.1024659E+00
         21   -1    0    0  502  501  0.00000000000E+00  0.00000000000E+00  0.95646121083E+02  0.95646121083E+02  0.00000000000E+00 0. -1.
         21   -1    0    0  501  502 -0.00000000000E+00 -0.00000000000E+00 -0.55409161543E+03  0.55409161543E+03  0.00000000000E+00 0. -1.
      99926    2    1    2    0    0  0.00000000000E+00  0.00000000000E+00 -0.45844549435E+03  0.64973773651E+03  0.46042030251E+03 0.  0.
      99925    2    3    3    0    0  0.47667845685E+02  0.76826206258E+02 -0.39455558064E+03  0.48269307586E+03  0.26295248580E+03 0.  0.
         25    1    3    3    0    0 -0.47667845685E+02 -0.76826206258E+02 -0.63889913711E+02  0.16704466066E+03  0.12509000000E+03 0.  0.
         25    1    4    4    0    0  0.55669355994E+01  0.18423241114E+02 -0.13065136804E+03  0.18190023270E+03  0.12509000000E+03 0.  0.
         25    1    4    4    0    0  0.42100910085E+02  0.58402965144E+02 -0.26390421260E+03  0.30079284316E+03  0.12509000000E+03 0.  0.
<mgrwt>
<rscale>  2 0.46042030E+03</rscale>
<asrwt>0</asrwt>
<pdfrwt beam="1">  1       21 0.14065606E-01 0.46042030E+03</pdfrwt>
<pdfrwt beam="2">  1       21 0.81484060E-01 0.46042030E+03</pdfrwt>
<totfact> 0.53396322E+04</totfact>
</mgrwt>
</event>
<event>
 7    0  0.4714446E-002  0.4428079E+03  0.7546771E-02  0.1029889E+00
         21   -1    0    0  502  501  0.00000000000E+00  0.00000000000E+00  0.21829611679E+02  0.21829611679E+02  0.00000000000E+00 0.  1.
         21   -1    0    0  501  502 -0.00000000000E+00 -0.00000000000E+00 -0.22455607605E+04  0.22455607605E+04  0.00000000000E+00 0.  1.
      99926    2    1    2    0    0  0.00000000000E+00 -0.35527136788E-14 -0.22237311488E+04  0.22673903722E+04  0.44280794664E+03 0.  0.
      99925    2    3    3    0    0 -0.72225422333E+02 -0.45821310509E+01 -0.17786328746E+04  0.17994186963E+04  0.26293579946E+03 0.  0.
         25    1    4    4    0    0 -0.96211358110E+01  0.28537427715E+02 -0.88235784644E+03  0.89168931154E+03  0.12509000000E+03 0.  0.
         25    1    3    3    0    0  0.72225422333E+02  0.45821310509E+01 -0.44509827424E+03  0.46797167584E+03  0.12509000000E+03 0.  0.
         25    1    4    4    0    0 -0.62604286522E+02 -0.33119558766E+02 -0.89627502812E+03  0.90772938478E+03  0.12509000000E+03 0.  0.
<mgrwt>
<rscale>  2 0.44280795E+03</rscale>
<asrwt>0</asrwt>
<pdfrwt beam="1">  1       21 0.32102387E-02 0.44280795E+03</pdfrwt>
<pdfrwt beam="2">  1       21 0.33022935E+00 0.44280795E+03</pdfrwt>
<totfact> 0.10802225E+04</totfact>
</mgrwt>
</event>
<event>
 7    0  0.4714446E-002  0.4513461E+03  0.7546771E-02  0.1027321E+00
         21   -1    0    0  502  501  0.00000000000E+00  0.00000000000E+00  0.13199165753E+03  0.13199165753E+03  0.00000000000E+00 0.  1.
         21   -1    0    0  501  502 -0.00000000000E+00 -0.00000000000E+00 -0.38584497260E+03  0.38584497260E+03  0.00000000000E+00 0.  1.
      99926    2    1    2    0    0 -0.35527136788E-14  0.35527136788E-14 -0.25385331507E+03  0.51783663013E+03  0.45134606450E+03 0.  0.
      99925    2    3    3    0    0  0.27557749954E+02  0.17536037986E+02 -0.40135158996E+02  0.26805692610E+03  0.26301471904E+03 0.  0.
         25    1    4    4    0    0  0.39661266424E+02  0.32379120250E+02 -0.41863921320E+02  0.14149741867E+03  0.12509000000E+03 0.  0.
         25    1    3    3    0    0 -0.27557749954E+02 -0.17536037986E+02 -0.21371815607E+03  0.24977970403E+03  0.12509000000E+03 0.  0.
         25    1    4    4    0    0 -0.12103516470E+02 -0.14843082265E+02  0.17287623239E+01  0.12655950743E+03  0.12509000000E+03 0.  0.
<mgrwt>
<rscale>  2 0.45134606E+03</rscale>
<asrwt>0</asrwt>
<pdfrwt beam="1">  1       21 0.19410538E-01 0.45134606E+03</pdfrwt>
<pdfrwt beam="2">  1       21 0.56741908E-01 0.45134606E+03</pdfrwt>
<totfact> 0.65925412E+04</totfact>
</mgrwt>
</event>
<event>
 7    0  0.4714446E-002  0.4592186E+03  0.7546771E-02  0.1025008E+00
         21   -1    0    0  502  501  0.00000000000E+00  0.00000000000E+00  0.33452754508E+03  0.33452754508E+03  0.00000000000E+00 0.  1.
         21   -1    0    0  501  502 -0.00000000000E+00 -0.00000000000E+00 -0.15759670254E+03  0.15759670254E+03  0.00000000000E+00 0.  1.
      99926    2    1    2    0    0  0.00000000000E+00  0.00000000000E+00  0.17693084254E+03  0.49212424763E+03  0.45921863209E+03 0.  0.
      99925    2    3    3    0    0  0.29649700081E+02  0.11265587591E+03  0.98658716987E+02  0.30412295819E+03  0.26303380042E+03 0.  0.
         25    1    4    4    0    0  0.27200520847E+02  0.98094686754E+02  0.63730157818E+02  0.17341129438E+03  0.12509000000E+03 0.  0.
         25    1    4    4    0    0  0.24491792346E+01  0.14561189156E+02  0.34928559169E+02  0.13071166380E+03  0.12509000000E+03 0.  0.
         25    1    3    3    0    0 -0.29649700081E+02 -0.11265587591E+03  0.78272125557E+02  0.18800128944E+03  0.12509000000E+03 0.  0.
<mgrwt>
<rscale>  2 0.45921863E+03</rscale>
<asrwt>0</asrwt>
<pdfrwt beam="1">  1       21 0.49195227E-01 0.45921863E+03</pdfrwt>
<pdfrwt beam="2">  1       21 0.23175986E-01 0.45921863E+03</pdfrwt>
<totfact> 0.63668434E+04</totfact>
</mgrwt>
</event>
<event>
 7    0  0.4714446E-002  0.4581873E+03  0.7546771E-02  0.1025308E+00
         21   -1    0    0  502  501  0.00000000000E+00  0.00000000000E+00  0.33373781462E+02  0.33373781462E+02  0.00000000000E+00 0.  1.
         21   -1    0    0  501  502 -0.00000000000E+00 -0.00000000000E+00 -0.15726089101E+04  0.15726089101E+04  0.00000000000E+00 0.  1.
      99926    2    1    2    0    0  0.00000000000E+00  0.00000000000E+00 -0.15392351286E+04  0.16059826916E+04  0.45818732453E+03 0.  0.
      99925    2    3    3    0    0 -0.60753484273E+02  0.96006576145E+02 -0.88226711287E+03  0.92762973745E+03  0.26304642714E+03 0.  0.
         25    1    3    3    0    0  0.60753484273E+02 -0.96006576145E+02 -0.65696801576E+03  0.67835295411E+03  0.12509000000E+03 0.  0.
         25    1    4    4    0    0 -0.25607229647E+02  0.48376737032E+02 -0.30775026315E+03  0.33668051839E+03  0.12509000000E+03 0.  0.
         25    1    4    4    0    0 -0.35146254626E+02  0.47629839113E+02 -0.57451684973E+03  0.59094921906E+03  0.12509000000E+03 0.  0.
<mgrwt>
<rscale>  2 0.45818732E+03</rscale>
<asrwt>0</asrwt>
<pdfrwt beam="1">  1       21 0.49079077E-02 0.45818732E+03</pdfrwt>
<pdfrwt beam="2">  1       21 0.23126608E+00 0.45818732E+03</pdfrwt>
<totfact> 0.20775963E+04</totfact>
</mgrwt>
</event>
<event>
 7    0  0.4714446E-002  0.4543289E+03  0.7546771E-02  0.1026439E+00
         21   -1    0    0  502  501  0.00000000000E+00  0.00000000000E+00  0.18726744402E+04  0.18726744402E+04  0.00000000000E+00 0. -1.
         21   -1    0    0  501  502 -0.00000000000E+00 -0.00000000000E+00 -0.27556145827E+02  0.27556145827E+02  0.00000000000E+00 0. -1.
      99926    2    1    2    0    0  0.00000000000E+00  0.00000000000E+00  0.18451182943E+04  0.19002305860E+04  0.45432891152E+03 0.  0.
      99925    2    3    3    0    0 -0.72359838492E+02 -0.41194874003E+02  0.14781845723E+04  0.15037197685E+04  0.26307897809E+03 0.  0.
         25    1    4    4    0    0 -0.56096134731E+02 -0.32092233956E+02  0.96301794496E+03  0.97325626544E+03  0.12509000000E+03 0.  0.
         25    1    4    4    0    0 -0.16263703761E+02 -0.91026400470E+01  0.51516662730E+03  0.53046350308E+03  0.12509000000E+03 0.  0.
         25    1    3    3    0    0  0.72359838492E+02  0.41194874003E+02  0.36693372207E+03  0.39651081746E+03  0.12509000000E+03 0.  0.
<mgrwt>
<rscale>  2 0.45432891E+03</rscale>
<asrwt>0</asrwt>
<pdfrwt beam="1">  1       21 0.27539321E+00 0.45432891E+03</pdfrwt>
<pdfrwt beam="2">  1       21 0.40523757E-02 0.45432891E+03</pdfrwt>
<totfact> 0.15488303E+04</totfact>
</mgrwt>
</event>
<event>
 7    0  0.4714446E-002  0.4289110E+03  0.7546771E-02  0.1034205E+00
         21   -1    0    0  502  501  0.00000000000E+00  0.00000000000E+00  0.49128836384E+02  0.49128836384E+02  0.00000000000E+00 0.  1.
         21   -1    0    0  501  502 -0.00000000000E+00 -0.00000000000E+00 -0.93613380597E+03  0.93613380597E+03  0.00000000000E+00 0.  1.
      99926    2    1    2    0    0  0.00000000000E+00 -0.71054273576E-14 -0.88700496958E+03  0.98526264235E+03  0.42891101449E+03 0.  0.
      99925    2    3    3    0    0 -0.39008005815E+02  0.33947569571E+02 -0.41322859139E+03  0.49252982770E+03  0.26297091177E+03 0.  0.
         25    1    3    3    0    0  0.39008005815E+02 -0.33947569571E+02 -0.47377637820E+03  0.49273281465E+03  0.12509000000E+03 0.  0.
         25    1    4    4    0    0 -0.22569040179E+02 -0.93923946911E+01 -0.14566714235E+03  0.19355620143E+03  0.12509000000E+03 0.  0.
         25    1    4    4    0    0 -0.16438965635E+02  0.43339964262E+02 -0.26756144904E+03  0.29897362627E+03  0.12509000000E+03 0.  0.
<mgrwt>
<rscale>  2 0.42891101E+03</rscale>
<asrwt>0</asrwt>
<pdfrwt beam="1">  1       21 0.72248297E-02 0.42891101E+03</pdfrwt>
<pdfrwt beam="2">  1       21 0.13766672E+00 0.42891101E+03</pdfrwt>
<totfact> 0.48993144E+04</totfact>
</mgrwt>
</event>
<event>
 7    0  0.4714446E-002  0.4571399E+03  0.7546771E-02  0.1025614E+00
         21   -1    0    0  502  501  0.00000000000E+00  0.00000000000E+00  0.75699760275E+02  0.75699760275E+02  0.00000000000E+00 0. -1.
         21   -1    0    0  501  502 -0.00000000000E+00 -0.00000000000E+00 -0.69015033475E+03  0.69015033475E+03  0.00000000000E+00 0. -1.
      99926    2    1    2    0    0  0.00000000000E+00  0.14210854715E-13 -0.61445057448E+03  0.76585009503E+03  0.45713986873E+03 0.  0.
      99925    2    3    3    0    0  0.45030945284E+02 -0.10548138472E+03 -0.37703560130E+03  0.47401540527E+03  0.26340207143E+03 0.  0.
         25    1    4    4    0    0  0.63172674007E+02 -0.58898873839E+02 -0.21472289365E+03  0.26308419420E+03  0.12509000000E+03 0.  0.
         25    1    4    4    0    0 -0.18141728723E+02 -0.46582510876E+02 -0.16231270764E+03  0.21093121107E+03  0.12509000000E+03 0.  0.
         25    1    3    3    0    0 -0.45030945284E+02  0.10548138472E+03 -0.23741497318E+03  0.29183468976E+03  0.12509000000E+03 0.  0.
<mgrwt>
<rscale>  2 0.45713987E+03</rscale>
<asrwt>0</asrwt>
<pdfrwt beam="1">  1       21 0.11132319E-01 0.45713987E+03</pdfrwt>
<pdfrwt beam="2">  1       21 0.10149269E+00 0.45713987E+03</pdfrwt>
<totfact> 0.48638539E+04</totfact>
</mgrwt>
</event>
<event>
 7    0  0.4714446E-002  0.4485280E+03  0.7546771E-02  0.1028162E+00
         21   -1    0    0  502  501  0.00000000000E+00  0.00000000000E+00  0.82421798370E+03  0.82421798370E+03  0.00000000000E+00 0.  1.
         21   -1    0    0  501  502 -0.00000000000E+00 -0.00000000000E+00 -0.61020688569E+02  0.61020688569E+02  0.00000000000E+00 0.  1.
      99926    2    1    2    0    0  0.00000000000E+00 -0.35527136788E-14  0.76319729513E+03  0.88523867227E+03  0.44852803211E+03 0.  0.
      99925    2    3    3    0    0 -0.74529349279E+02 -0.21617565500E+02  0.33763309606E+03  0.43493395469E+03  0.26296291439E+03 0.  0.
         25    1    3    3    0    0  0.74529349279E+02  0.21617565500E+02  0.42556419907E+03  0.45030471758E+03  0.12509000000E+03 0.  0.
         25    1    4    4    0    0 -0.62101323007E+02 -0.43596185049E+02  0.17090721458E+03  0.22497552259E+03  0.12509000000E+03 0.  0.
         25    1    4    4    0    0 -0.12428026272E+02  0.21978619550E+02  0.16672588148E+03  0.20995843210E+03  0.12509000000E+03 0.  0.
<mgrwt>
<rscale>  2 0.44852803E+03</rscale>
<asrwt>0</asrwt>
<pdfrwt beam="1">  1       21 0.12120852E+00 0.44852803E+03</pdfrwt>
<pdfrwt beam="2">  1       21 0.89736311E-02 0.44852803E+03</pdfrwt>
<totfact> 0.46174235E+04</totfact>
</mgrwt>
</event>
<event>
 7    0  0.4714446E-002  0.4446300E+03  0.7546771E-02  0.1029336E+00
         21   -1    0    0  502  501  0.00000000000E+00  0.00000000000E+00  0.30289699069E+03  0.30289699069E+03  0.00000000000E+00 0. -1.
         21   -1    0    0  501  502 -0.00000000000E+00 -0.00000000000E+00 -0.16317084094E+03  0.16317084094E+03  0.00000000000E+00 0. -1.
      99926    2    1    2    0    0  0.00000000000E+00  0.00000000000E+00  0.13972614976E+03  0.46606783163E+03  0.44462998859E+03 0.  0.
      99925    2    3    3    0    0  0.40169247145E+02  0.77232055860E+02  0.30892699039E+02  0.27879640571E+03  0.26304888921E+03 0.  0.
         25    1    4    4    0    0  0.23588756499E+02  0.21548439787E+02 -0.22211066675E+02  0.13100230637E+03  0.12509000000E+03 0.  0.
         25    1    4    4    0    0  0.16580490646E+02  0.55683616073E+02  0.53103765714E+02  0.14779409935E+03  0.12509000000E+03 0.  0.
         25    1    3    3    0    0 -0.40169247145E+02 -0.77232055860E+02  0.10883345072E+03  0.18727142591E+03  0.12509000000E+03 0.  0.
<mgrwt>
<rscale>  2 0.44462999E+03</rscale>
<asrwt>0</asrwt>
<pdfrwt beam="1">  1       21 0.44543675E-01 0.44462999E+03</pdfrwt>
<pdfrwt beam="2">  1       21 0.23995712E-01 0.44462999E+03</pdfrwt>
<totfact> 0.73601289E+04</totfact>
</mgrwt>
</event>
<event>
 7    0  0.4714446E-002  0.4610592E+03  0.7546771E-02  0.1024474E+00
         21   -1    0    0  502  501  0.00000000000E+00  0.00000000000E+00  0.56466927321E+03  0.56466927321E+03  0.00000000000E+00 0.  1.
         21   -1    0    0  501  502 -0.00000000000E+00 -0.00000000000E+00 -0.94115079724E+02  0.94115079724E+02  0.00000000000E+00 0.  1.
      99926    2    1    2    0    0  0.00000000000E+00  0.00000000000E+00  0.47055419349E+03  0.65878435294E+03  0.46105918781E+03 0.  0.
      99925    2    3    3    0    0  0.16792481900E+02  0.91287888017E+02  0.18757313779E+03  0.33576538765E+03  0.26256284501E+03 0.  0.
         25    1    4    4    0    0 -0.34575234456E+01  0.58139702790E+02  0.52557876503E+02  0.14765506423E+03  0.12509000000E+03 0.  0.
         25    1    4    4    0    0  0.20250005346E+02  0.33148185227E+02  0.13501526128E+03  0.18811032343E+03  0.12509000000E+03 0.  0.
         25    1    3    3    0    0 -0.16792481900E+02 -0.91287888017E+02  0.28298105570E+03  0.32301896529E+03  0.12509000000E+03 0.  0.
<mgrwt>
<rscale>  2 0.46105919E+03</rscale>
<asrwt>0</asrwt>
<pdfrwt beam="1">  1       21 0.83039598E-01 0.46105919E+03</pdfrwt>
<pdfrwt beam="2">  1       21 0.13840453E-01 0.46105919E+03</pdfrwt>
<totfact> 0.52637270E+04</totfact>
</mgrwt>
</event>
<event>
 7    0  0.4714446E-002  0.4512612E+03  0.7546771E-02  0.1027347E+00
         21   -1    0    0  502  501  0.00000000000E+00  0.00000000000E+00  0.58691236834E+02  0.58691236834E+02  0.00000000000E+00 0. -1.
         21   -1    0    0  501  502 -0.00000000000E+00 -0.00000000000E+00 -0.86740651187E+03  0.86740651187E+03  0.00000000000E+00 0. -1.
      99926    2    1    2    0    0  0.00000000000E+00 -0.14210854715E-13 -0.80871527504E+03  0.92609774871E+03  0.45126117059E+03 0.  0.
      99925    2    3    3    0    0 -0.13361630506E+02 -0.76510107866E+02 -0.35288996317E+03  0.44708151431E+03  0.26328354403E+03 0.  0.
         25    1    3    3    0    0  0.13361630506E+02  0.76510107866E+02 -0.45582531187E+03  0.47901623440E+03  0.12509000000E+03 0.  0.
         25    1    4    4    0    0 -0.30385838673E+02 -0.27716425779E+02 -0.22597065524E+03  0.26153727188E+03  0.12509000000E+03 0.  0.
         25    1    4    4    0    0  0.17024208167E+02 -0.48793682087E+02 -0.12691930792E+03  0.18554424243E+03  0.12509000000E+03 0.  0.
<mgrwt>
<rscale>  2 0.45126117E+03</rscale>
<asrwt>0</asrwt>
<pdfrwt beam="1">  1       21 0.86310645E-02 0.45126117E+03</pdfrwt>
<pdfrwt beam="2">  1       21 0.12755978E+00 0.45126117E+03</pdfrwt>
<totfact> 0.43378950E+04</totfact>
</mgrwt>
</event>
<event>
 7    0  0.4714446E-002  0.4572497E+03  0.7546771E-02  0.1025582E+00
         21   -1    0    0  502  501  0.00000000000E+00  0.00000000000E+00  0.26214184338E+03  0.26214184338E+03  0.00000000000E+00 0. -1.
         21   -1    0    0  501  502 -0.00000000000E+00 -0.00000000000E+00 -0.19939327355E+03  0.19939327355E+03  0.00000000000E+00 0. -1.
      99926    2    1    2    0    0  0.71054273576E-14 -0.88817841970E-15  0.62748569831E+02  0.46153511693E+03  0.45724969234E+03 0.  0.
      99925    2    3    3    0    0  0.34550082228E+02 -0.40624042778E+01 -0.71510843285E+02  0.27476437666E+03  0.26300465901E+03 0.  0.
         25    1    4    4    0    0  0.26270155980E+02 -0.14561889555E+02 -0.75003226381E+02  0.14891326936E+03  0.12509000000E+03 0.  0.
         25    1    4    4    0    0  0.82799262482E+01  0.10499485277E+02  0.34923830969E+01  0.12585110730E+03  0.12509000000E+03 0.  0.
         25    1    3    3    0    0 -0.34550082228E+02  0.40624042778E+01  0.13425941312E+03  0.18677074027E+03  0.12509000000E+03 0.  0.
<mgrwt>
<rscale>  2 0.45724969E+03</rscale>
<asrwt>0</asrwt>
<pdfrwt beam="1">  1       21 0.38550271E-01 0.45724969E+03</pdfrwt>
<pdfrwt beam="2">  1       21 0.29322540E-01 0.45724969E+03</pdfrwt>
<totfact> 0.66861220E+04</totfact>
</mgrwt>
</event>
<event>
 7    0  0.4714446E-002  0.4361454E+03  0.7546771E-02  0.1031936E+00
         21   -1    0    0  502  501  0.00000000000E+00  0.00000000000E+00  0.50350378135E+02  0.50350378135E+02  0.00000000000E+00 0. -1.
         21   -1    0    0  501  502 -0.00000000000E+00 -0.00000000000E+00 -0.94449533635E+03  0.94449533635E+03  0.00000000000E+00 0. -1.
      99926    2    1    2    0    0  0.00000000000E+00  0.00000000000E+00 -0.89414495821E+03  0.99484571448E+03  0.43614537637E+03 0.  0.
      99925    2    3    3    0    0  0.67260475985E+02  0.38497945615E+02 -0.69575299105E+03  0.74783773044E+03  0.26302658244E+03 0.  0.
         25    1    3    3    0    0 -0.67260475985E+02 -0.38497945615E+02 -0.19839196716E+03  0.24700798404E+03  0.12509000000E+03 0.  0.
         25    1    4    4    0    0  0.43401985079E+02 -0.14315913460E+02 -0.39865465514E+03  0.42031145577E+03  0.12509000000E+03 0.  0.
         25    1    4    4    0    0  0.23858490906E+02  0.52813859075E+02 -0.29709833592E+03  0.32752627467E+03  0.12509000000E+03 0.  0.
<mgrwt>
<rscale>  2 0.43614538E+03</rscale>
<asrwt>0</asrwt>
<pdfrwt beam="1">  1       21 0.74044683E-02 0.43614538E+03</pdfrwt>
<pdfrwt beam="2">  1       21 0.13889636E+00 0.43614538E+03</pdfrwt>
<totfact> 0.45741515E+04</totfact>
</mgrwt>
</event>
<event>
 7    0  0.4714446E-002  0.4541958E+03  0.7546771E-02  0.1026478E+00
         21   -1    0    0  502  501  0.00000000000E+00  0.00000000000E+00  0.57772682660E+02  0.57772682660E+02  0.00000000000E+00 0.  1.
         21   -1    0    0  501  502 -0.00000000000E+00 -0.00000000000E+00 -0.89269607577E+03  0.89269607577E+03  0.00000000000E+00 0.  1.
      99926    2    1    2    0    0  0.00000000000E+00  0.00000000000E+00 -0.83492339311E+03  0.95046875843E+03  0.45419575999E+03 0.  0.
      99925    2    3    3    0    0  0.63552653330E+02  0.40852392489E+02 -0.69996481809E+03  0.75154871723E+03  0.26299595073E+03 0.  0.
         25    1    3    3    0    0 -0.63552653330E+02 -0.40852392489E+02 -0.13495857503E+03  0.19892004120E+03  0.12509000000E+03 0.  0.
         25    1    4    4    0    0  0.46254365939E+02  0.28898517058E+02 -0.25963325575E+03  0.29331131286E+03  0.12509000000E+03 0.  0.
         25    1    4    4    0    0  0.17298287391E+02  0.11953875431E+02 -0.44033156233E+03  0.45823740438E+03  0.12509000000E+03 0.  0.
<mgrwt>
<rscale>  2 0.45419576E+03</rscale>
<asrwt>0</asrwt>
<pdfrwt beam="1">  1       21 0.84959827E-02 0.45419576E+03</pdfrwt>
<pdfrwt beam="2">  1       21 0.13127884E+00 0.45419576E+03</pdfrwt>
<totfact> 0.41381465E+04</totfact>
</mgrwt>
</event>
<event>
 7    0  0.4714446E-002  0.4558539E+03  0.7546771E-02  0.1025991E+00
         21   -1    0    0  502  501  0.00000000000E+00  0.00000000000E+00  0.31092123108E+02  0.31092123108E+02  0.00000000000E+00 0.  1.
         21   -1    0    0  501  502 -0.00000000000E+00 -0.00000000000E+00 -0.16708638841E+04  0.16708638841E+04  0.00000000000E+00 0.  1.
      99926    2    1    2    0    0  0.00000000000E+00  0.00000000000E+00 -0.16397717610E+04  0.17019560072E+04  0.45585394846E+03 0.  0.
      99925    2    3    3    0    0  0.14211155426E+02 -0.53332496002E+02 -0.14032798494E+04  0.14287852833E+04  0.26303372003E+03 0.  0.
         25    1    4    4    0    0  0.14727224382E+02 -0.63672867553E+02 -0.83129777253E+03  0.84319310950E+03  0.12509000000E+03 0.  0.
         25    1    3    3    0    0 -0.14211155426E+02  0.53332496002E+02 -0.23649191155E+03  0.27317072390E+03  0.12509000000E+03 0.  0.
         25    1    4    4    0    0 -0.51606895586E+00  0.10340371550E+02 -0.57198207691E+03  0.58559217380E+03  0.12509000000E+03 0.  0.
<mgrwt>
<rscale>  2 0.45585395E+03</rscale>
<asrwt>0</asrwt>
<pdfrwt beam="1">  1       21 0.45723701E-02 0.45585395E+03</pdfrwt>
<pdfrwt beam="2">  1       21 0.24571533E+00 0.45585395E+03</pdfrwt>
<totfact> 0.19094089E+04</totfact>
</mgrwt>
</event>
<event>
 7    0  0.4714446E-002  0.4592417E+03  0.7546771E-02  0.1025001E+00
         21   -1    0    0  502  501  0.00000000000E+00  0.00000000000E+00  0.52919610938E+03  0.52919610938E+03  0.00000000000E+00 0.  1.
         21   -1    0    0  501  502 -0.00000000000E+00 -0.00000000000E+00 -0.99633630392E+02  0.99633630392E+02  0.00000000000E+00 0.  1.
      99926    2    1    2    0    0  0.00000000000E+00  0.71054273576E-14  0.42956247899E+03  0.62882973978E+03  0.45924167741E+03 0.  0.
      99925    2    3    3    0    0 -0.69814331566E+02 -0.62778095734E+02  0.36508489970E+03  0.45965528388E+03  0.26302255762E+03 0.  0.
         25    1    3    3    0    0  0.69814331566E+02  0.62778095734E+02  0.64477579295E+02  0.16917445590E+03  0.12509000000E+03 0.  0.
         25    1    4    4    0    0 -0.45864209478E+02 -0.46797898354E+02  0.13065692195E+03  0.19238583200E+03  0.12509000000E+03 0.  0.
         25    1    4    4    0    0 -0.23950122088E+02 -0.15980197380E+02  0.23442797775E+03  0.26726945188E+03  0.12509000000E+03 0.  0.
<mgrwt>
<rscale>  2 0.45924168E+03</rscale>
<asrwt>0</asrwt>
<pdfrwt beam="1">  1       21 0.77822956E-01 0.45924168E+03</pdfrwt>
<pdfrwt beam="2">  1       21 0.14652005E-01 0.45924168E+03</pdfrwt>
<totfact> 0.55070497E+04</totfact>
</mgrwt>
</event>
<event>
 7    0  0.4714446E-002  0.4443060E+03  0.7546771E-02  0.1029434E+00
         21   -1    0    0  502  501  0.00000000000E+00  0.00000000000E+00  0.32367797866E+03  0.32367797866E+03  0.00000000000E+00 0.  1.
         21   -1    0    0  501  502 -0.00000000000E+00 -0.00000000000E+00 -0.15247236018E+03  0.15247236018E+03  0.00000000000E+00 0.  1.
      99926    2    1    2    0    0 -0.14210854715E-13  0.14210854715E-13  0.17120561848E+03  0.47615033884E+03  0.44430595469E+03 0.  0.
      99925    2    3    3    0    0 -0.67428803273E+02  0.76258407455E+02  0.12636763859E+03  0.30875875972E+03  0.26268080136E+03 0.  0.
         25    1    4    4    0    0 -0.47220189650E+02  0.17340545939E+02  0.96663170903E+02  0.16589670748E+03  0.12509000000E+03 0.  0.
         25    1    3    3    0    0  0.67428803273E+02 -0.76258407455E+02  0.44837979892E+02  0.16739157912E+03  0.12509000000E+03 0.  0.
         25    1    4    4    0    0 -0.20208613623E+02  0.58917861516E+02  0.29704467689E+02  0.14286205224E+03  0.12509000000E+03 0.  0.
<mgrwt>
<rscale>  2 0.44430595E+03</rscale>
<asrwt>0</asrwt>
<pdfrwt beam="1">  1       21 0.47599703E-01 0.44430595E+03</pdfrwt>
<pdfrwt beam="2">  1       21 0.22422406E-01 0.44430595E+03</pdfrwt>
<totfact> 0.72982766E+04</totfact>
</mgrwt>
</event>
<event>
 7    0  0.4714446E-002  0.4578631E+03  0.7546771E-02  0.1025403E+00
         21   -1    0    0  502  501  0.00000000000E+00  0.00000000000E+00  0.31344816471E+03  0.31344816471E+03  0.00000000000E+00 0.  1.
         21   -1    0    0  501  502 -0.00000000000E+00 -0.00000000000E+00 -0.16720361290E+03  0.16720361290E+03  0.00000000000E+00 0.  1.
      99926    2    1    2    0    0  0.00000000000E+00  0.00000000000E+00  0.14624455182E+03  0.48065177761E+03  0.45786314809E+03 0.  0.
      99925    2    3    3    0    0  0.67446024168E+01 -0.81580652308E+02  0.57362064935E+01  0.27549087563E+03  0.26298560037E+03 0.  0.
         25    1    4    4    0    0  0.77637489458E+01 -0.71013867559E+02  0.31208505457E+02  0.14739309379E+03  0.12509000000E+03 0.  0.
         25    1    4    4    0    0 -0.10191465290E+01 -0.10566784750E+02 -0.25472298963E+02  0.12809778185E+03  0.12509000000E+03 0.  0.
         25    1    3    3    0    0 -0.67446024168E+01  0.81580652308E+02  0.14050834532E+03  0.20516090197E+03  0.12509000000E+03 0.  0.
<mgrwt>
<rscale>  2 0.45786315E+03</rscale>
<asrwt>0</asrwt>
<pdfrwt beam="1">  1       21 0.46095318E-01 0.45786315E+03</pdfrwt>
<pdfrwt beam="2">  1       21 0.24588767E-01 0.45786315E+03</pdfrwt>
<totfact> 0.65159280E+04</totfact>
</mgrwt>
</event>
<event>
 7    0  0.4714446E-002  0.4582609E+03  0.7546771E-02  0.1025287E+00
         21   -1    0    0  502  501  0.00000000000E+00  0.00000000000E+00  0.10226940280E+03  0.10226940280E+03  0.00000000000E+00 0. -1.
         21   -1    0    0  501  502 -0.00000000000E+00 -0.00000000000E+00 -0.51335744435E+03  0.51335744435E+03  0.00000000000E+00 0. -1.
      99926    2    1    2    0    0  0.00000000000E+00  0.14210854715E-13 -0.41108804155E+03  0.61562684715E+03  0.45826088315E+03 0.  0.
      99925    2    3    3    0    0 -0.85949512508E+02  0.75233688765E+02 -0.28641808055E+03  0.40529964040E+03  0.26303052107E+03 0.  0.
         25    1    4    4    0    0 -0.12802573254E+02  0.95111504263E+01 -0.14767902031E+03  0.19419312296E+03  0.12509000000E+03 0.  0.
         25    1    4    4    0    0 -0.73146939255E+02  0.65722538339E+02 -0.13873906024E+03  0.21110651744E+03  0.12509000000E+03 0.  0.
         25    1    3    3    0    0  0.85949512508E+02 -0.75233688765E+02 -0.12466996099E+03  0.21032720675E+03  0.12509000000E+03 0.  0.
<mgrwt>
<rscale>  2 0.45826088E+03</rscale>
<asrwt>0</asrwt>
<pdfrwt beam="1">  1       21 0.15039618E-01 0.45826088E+03</pdfrwt>
<pdfrwt beam="2">  1       21 0.75493740E-01 0.45826088E+03</pdfrwt>
<totfact> 0.56263512E+04</totfact>
</mgrwt>
</event>
<event>
 7    0  0.4714446E-002  0.4475996E+03  0.7546771E-02  0.1028440E+00
         21   -1    0    0  502  501  0.00000000000E+00  0.00000000000E+00  0.17009073416E+03  0.17009073416E+03  0.00000000000E+00 0.  1.
         21   -1    0    0  501  502 -0.00000000000E+00 -0.00000000000E+00 -0.29446845902E+03  0.29446845902E+03  0.00000000000E+00 0.  1.
      99926    2    1    2    0    0  0.00000000000E+00  0.55511151231E-15 -0.12437772486E+03  0.46455919318E+03  0.44759962637E+03 0.  0.
      99925    2    3    3    0    0 -0.52208977687E+02 -0.65740110771E+00  0.16897129759E+02  0.26877282447E+03  0.26311044953E+03 0.  0.
         25    1    3    3    0    0  0.52208977687E+02  0.65740110771E+00 -0.14127485461E+03  0.19578636871E+03  0.12509000000E+03 0.  0.
         25    1    4    4    0    0 -0.23341954432E+02 -0.40021594960E+02  0.17173441763E+02  0.13449539063E+03  0.12509000000E+03 0.  0.
         25    1    4    4    0    0 -0.28867023256E+02  0.39364193852E+02 -0.27631200448E+00  0.13427743384E+03  0.12509000000E+03 0.  0.
<mgrwt>
<rscale>  2 0.44759963E+03</rscale>
<asrwt>0</asrwt>
<pdfrwt beam="1">  1       21 0.25013343E-01 0.44759963E+03</pdfrwt>
<pdfrwt beam="2">  1       21 0.43304185E-01 0.44759963E+03</pdfrwt>
<totfact> 0.71976173E+04</totfact>
</mgrwt>
</event>
<event>
 7    0  0.4714446E-002  0.4699597E+03  0.7546771E-02  0.1021932E+00
         21   -1    0    0  502  501  0.00000000000E+00  0.00000000000E+00  0.28610585051E+03  0.28610585051E+03  0.00000000000E+00 0. -1.
         21   -1    0    0  501  502 -0.00000000000E+00 -0.00000000000E+00 -0.19298983705E+03  0.19298983705E+03  0.00000000000E+00 0. -1.
      99926    2    1    2    0    0  0.00000000000E+00  0.00000000000E+00  0.93116013462E+02  0.47909568757E+03  0.46995966410E+03 0.  0.
      99925    2    3    3    0    0 -0.11136672114E+03  0.71662677653E+01 -0.28686809243E+01  0.28592614642E+03  0.26323303346E+03 0.  0.
         25    1    3    3    0    0  0.11136672114E+03 -0.71662677653E+01  0.95984694386E+02  0.19316954115E+03  0.12509000000E+03 0.  0.
         25    1    4    4    0    0 -0.54380236053E+02 -0.15230485656E+02 -0.37767887584E+02  0.14234851316E+03  0.12509000000E+03 0.  0.
         25    1    4    4    0    0 -0.56986485087E+02  0.22396753421E+02  0.34899206659E+02  0.14357763326E+03  0.12509000000E+03 0.  0.
<mgrwt>
<rscale>  2 0.46995966E+03</rscale>
<asrwt>0</asrwt>
<pdfrwt beam="1">  1       21 0.42074390E-01 0.46995966E+03</pdfrwt>
<pdfrwt beam="2">  1       21 0.28380858E-01 0.46995966E+03</pdfrwt>
<totfact> 0.59393149E+04</totfact>
</mgrwt>
</event>
<event>
 7    0  0.4714446E-002  0.4571418E+03  0.7546771E-02  0.1025613E+00
         21   -1    0    0  502  501  0.00000000000E+00  0.00000000000E+00  0.74425652061E+03  0.74425652061E+03  0.00000000000E+00 0. -1.
         21   -1    0    0  501  502 -0.00000000000E+00 -0.00000000000E+00 -0.70197109081E+02  0.70197109081E+02  0.00000000000E+00 0. -1.
      99926    2    1    2    0    0  0.14210854715E-13  0.00000000000E+00  0.67405941153E+03  0.81445362969E+03  0.45714179928E+03 0.  0.
      99925    2    3    3    0    0 -0.11222181021E+03  0.24540135854E+02  0.43819828477E+03  0.52380963410E+03  0.26298829451E+03 0.  0.
         25    1    4    4    0    0 -0.64009214601E+02  0.52491093622E+02  0.23342515455E+03  0.27746586338E+03  0.12509000000E+03 0.  0.
         25    1    3    3    0    0  0.11222181021E+03 -0.24540135854E+02  0.23586112676E+03  0.29064399559E+03  0.12509000000E+03 0.  0.
         25    1    4    4    0    0 -0.48212595609E+02 -0.27950957769E+02  0.20477313021E+03  0.24634377072E+03  0.12509000000E+03 0.  0.
<mgrwt>
<rscale>  2 0.45714180E+03</rscale>
<asrwt>0</asrwt>
<pdfrwt beam="1">  1       21 0.10944948E+00 0.45714180E+03</pdfrwt>
<pdfrwt beam="2">  1       21 0.10323105E-01 0.45714180E+03</pdfrwt>
<totfact> 0.46290733E+04</totfact>
</mgrwt>
</event>
<event>
 7    0  0.4714446E-002  0.4558820E+03  0.7546771E-02  0.1025982E+00
         21   -1    0    0  502  501  0.00000000000E+00  0.00000000000E+00  0.61178566534E+02  0.61178566534E+02  0.00000000000E+00 0. -1.
         21   -1    0    0  501  502 -0.00000000000E+00 -0.00000000000E+00 -0.84926947355E+03  0.84926947355E+03  0.00000000000E+00 0. -1.
      99926    2    1    2    0    0  0.00000000000E+00  0.00000000000E+00 -0.78809090702E+03  0.91044804008E+03  0.45588195399E+03 0.  0.
      99925    2    3    3    0    0 -0.10000636740E+03  0.36939077259E+02 -0.58013431974E+03  0.64538348334E+03  0.26191266232E+03 0.  0.
         25    1    4    4    0    0 -0.70530388774E+02  0.15968086663E+02 -0.22782517217E+03  0.26978015625E+03  0.12509000000E+03 0.  0.
         25    1    4    4    0    0 -0.29475978623E+02  0.20970990596E+02 -0.35230914757E+03  0.37560332709E+03  0.12509000000E+03 0.  0.
         25    1    3    3    0    0  0.10000636740E+03 -0.36939077259E+02 -0.20795658728E+03  0.26506455674E+03  0.12509000000E+03 0.  0.
<mgrwt>
<rscale>  2 0.45588195E+03</rscale>
<asrwt>0</asrwt>
<pdfrwt beam="1">  1       21 0.89968481E-02 0.45588195E+03</pdfrwt>
<pdfrwt beam="2">  1       21 0.12489257E+00 0.45588195E+03</pdfrwt>
<totfact> 0.42490962E+04</totfact>
</mgrwt>
</event>
<event>
 7    0  0.4714446E-002  0.4528782E+03  0.7546771E-02  0.1026867E+00
         21   -1    0    0  502  501  0.00000000000E+00  0.00000000000E+00  0.16017252269E+02  0.16017252269E+02  0.00000000000E+00 0. -1.
         21   -1    0    0  501  502 -0.00000000000E+00 -0.00000000000E+00 -0.32012143432E+04  0.32012143432E+04  0.00000000000E+00 0. -1.
      99926    2    1    2    0    0  0.14210854715E-13  0.00000000000E+00 -0.31851970909E+04  0.32172315955E+04  0.45287816331E+03 0.  0.
      99925    2    3    3    0    0 -0.83990789758E+02 -0.88915992270E+01 -0.14956755958E+04  0.15209816422E+04  0.26307062699E+03 0.  0.
         25    1    3    3    0    0  0.83990789758E+02  0.88915992270E+01 -0.16895214951E+04  0.16962499532E+04  0.12509000000E+03 0.  0.
         25    1    4    4    0    0 -0.25076651044E+02  0.15166796327E+02 -0.54107190646E+03  0.55611616250E+03  0.12509000000E+03 0.  0.
         25    1    4    4    0    0 -0.58914138715E+02 -0.24058395554E+02 -0.95460368938E+03  0.96486547975E+03  0.12509000000E+03 0.  0.
<mgrwt>
<rscale>  2 0.45287816E+03</rscale>
<asrwt>0</asrwt>
<pdfrwt beam="1">  1       21 0.23554746E-02 0.45287816E+03</pdfrwt>
<pdfrwt beam="2">  1       21 0.47076756E+00 0.45287816E+03</pdfrwt>
<totfact> 0.22457114E+03</totfact>
</mgrwt>
</event>
<event>
 7    0  0.4714446E-002  0.4513200E+03  0.7546771E-02  0.1027329E+00
         21   -1    0    0  502  501  0.00000000000E+00  0.00000000000E+00  0.33418907269E+03  0.33418907269E+03  0.00000000000E+00 0. -1.
         21   -1    0    0  501  502 -0.00000000000E+00 -0.00000000000E+00 -0.15237609095E+03  0.15237609095E+03  0.00000000000E+00 0. -1.
      99926    2    1    2    0    0  0.00000000000E+00  0.00000000000E+00  0.18181298175E+03  0.48656516364E+03  0.45131995096E+03 0.  0.
      99925    2    3    3    0    0  0.75494684669E+02  0.67196557819E+02  0.16079259853E+03  0.32437950026E+03  0.26296953369E+03 0.  0.
         25    1    4    4    0    0  0.14549724607E+02  0.29083503094E+02  0.37435777858E+02  0.13456035896E+03  0.12509000000E+03 0.  0.
         25    1    3    3    0    0 -0.75494684669E+02 -0.67196557819E+02  0.21020383211E+02  0.16218566338E+03  0.12509000000E+03 0.  0.
         25    1    4    4    0    0  0.60944960062E+02  0.38113054725E+02  0.12335682068E+03  0.18981914130E+03  0.12509000000E+03 0.  0.
<mgrwt>
<rscale>  2 0.45131995E+03</rscale>
<asrwt>0</asrwt>
<pdfrwt beam="1">  1       21 0.49145452E-01 0.45131995E+03</pdfrwt>
<pdfrwt beam="2">  1       21 0.22408249E-01 0.45131995E+03</pdfrwt>
<totfact> 0.68195866E+04</totfact>
</mgrwt>
</event>
<event>
 7    0  0.4714446E-002  0.4564039E+03  0.7546771E-02  0.1025829E+00
         21   -1    0    0  502  501  0.00000000000E+00  0.00000000000E+00  0.94832710579E+03  0.94832710579E+03  0.00000000000E+00 0.  1.
         21   -1    0    0  501  502 -0.00000000000E+00 -0.00000000000E+00 -0.54913678817E+02  0.54913678817E+02  0.00000000000E+00 0.  1.
      99926    2    1    2    0    0  0.00000000000E+00  0.00000000000E+00  0.89341342697E+03  0.10032407846E+04  0.45640390051E+03 0.  0.
      99925    2    3    3    0    0  0.61669600914E+02  0.69881374650E+02  0.41555435204E+03  0.50056459679E+03  0.26304552812E+03 0.  0.
         25    1    3    3    0    0 -0.61669600914E+02 -0.69881374650E+02  0.47785907493E+03  0.50267618781E+03  0.12509000000E+03 0.  0.
         25    1    4    4    0    0  0.53216281930E+01  0.41967565832E+02  0.14626818459E+03  0.19705706339E+03  0.12509000000E+03 0.  0.
         25    1    4    4    0    0  0.56347972721E+02  0.27913808818E+02  0.26928616745E+03  0.30350753340E+03  0.12509000000E+03 0.  0.
<mgrwt>
<rscale>  2 0.45640390E+03</rscale>
<asrwt>0</asrwt>
<pdfrwt beam="1">  1       21 0.13945986E+00 0.45640390E+03</pdfrwt>
<pdfrwt beam="2">  1       21 0.80755416E-02 0.45640390E+03</pdfrwt>
<totfact> 0.38615869E+04</totfact>
</mgrwt>
</event>
<event>
 7    0  0.4714446E-002  0.4444075E+03  0.7546771E-02  0.1029403E+00
         21   -1    0    0  502  501  0.00000000000E+00  0.00000000000E+00  0.20771479831E+03  0.20771479831E+03  0.00000000000E+00 0. -1.
         21   -1    0    0  501  502 -0.00000000000E+00 -0.00000000000E+00 -0.23770341595E+03  0.23770341595E+03  0.00000000000E+00 0. -1.
      99926    2    1    2    0    0  0.35527136788E-14  0.00000000000E+00 -0.29988617640E+02  0.44541821425E+03  0.44440754764E+03 0.  0.
      99925    2    3    3    0    0 -0.17788307187E+02 -0.10060754997E+03 -0.11697395627E+01  0.28135621738E+03  0.26214814473E+03 0.  0.
         25    1    4    4    0    0 -0.44971380840E+02 -0.35470907805E+02  0.39513296192E+01  0.13763622888E+03  0.12509000000E+03 0.  0.
         25    1    3    3    0    0  0.17788307187E+02  0.10060754997E+03 -0.28818878078E+02  0.16406199687E+03  0.12509000000E+03 0.  0.
         25    1    4    4    0    0  0.27183073653E+02 -0.65136642163E+02 -0.51210691819E+01  0.14371998850E+03  0.12509000000E+03 0.  0.
<mgrwt>
<rscale>  2 0.44440755E+03</rscale>
<asrwt>0</asrwt>
<pdfrwt beam="1">  1       21 0.30546294E-01 0.44440755E+03</pdfrwt>
<pdfrwt beam="2">  1       21 0.34956384E-01 0.44440755E+03</pdfrwt>
<totfact> 0.75429738E+04</totfact>
</mgrwt>
</event>
<event>
 7    0  0.4714446E-002  0.4563022E+03  0.7546771E-02  0.1025859E+00
         21   -1    0    0  502  501  0.00000000000E+00  0.00000000000E+00  0.62147356774E+02  0.62147356774E+02  0.00000000000E+00 0.  1.
         21   -1    0    0  501  502 -0.00000000000E+00 -0.00000000000E+00 -0.83757279351E+03  0.83757279351E+03  0.00000000000E+00 0.  1.
      99926    2    1    2    0    0  0.00000000000E+00  0.00000000000E+00 -0.77542543673E+03  0.89972015028E+03  0.45630224730E+03 0.  0.
      99925    2    3    3    0    0  0.71661961388E+02 -0.87705794654E+02 -0.52718627162E+03  0.59955697079E+03  0.26213632544E+03 0.  0.
         25    1    3    3    0    0 -0.71661961388E+02  0.87705794654E+02 -0.24823916511E+03  0.30016317949E+03  0.12509000000E+03 0.  0.
         25    1    4    4    0    0  0.41627133209E+01 -0.33878926851E+02 -0.29251594219E+03  0.31996592694E+03  0.12509000000E+03 0.  0.
         25    1    4    4    0    0  0.67499248067E+02 -0.53826867802E+02 -0.23467032943E+03  0.27959104385E+03  0.12509000000E+03 0.  0.
<mgrwt>
<rscale>  2 0.45630225E+03</rscale>
<asrwt>0</asrwt>
<pdfrwt beam="1">  1       21 0.91393179E-02 0.45630225E+03</pdfrwt>
<pdfrwt beam="2">  1       21 0.12317246E+00 0.45630225E+03</pdfrwt>
<totfact> 0.42807653E+04</totfact>
</mgrwt>
</event>
<event>
 7    0  0.4714446E-002  0.4561280E+03  0.7546771E-02  0.1025910E+00
         21   -1    0    0  502  501  0.00000000000E+00  0.00000000000E+00  0.77148517004E+03  0.77148517004E+03  0.00000000000E+00 0.  1.
         21   -1    0    0  501  502 -0.00000000000E+00 -0.00000000000E+00 -0.67419559229E+02  0.67419559229E+02  0.00000000000E+00 0.  1.
      99926    2    1    2    0    0  0.00000000000E+00 -0.14210854715E-13  0.70406561081E+03  0.83890472926E+03  0.45612800885E+03 0.  0.
      99925    2    3    3    0    0 -0.78852449770E+02  0.80754536338E+02  0.47536548014E+03  0.55484441553E+03  0.26294672798E+03 0.  0.
         25    1    4    4    0    0 -0.41582609041E+02  0.77676203330E+02  0.21908438990E+03  0.26722309768E+03  0.12509000000E+03 0.  0.
         25    1    3    3    0    0  0.78852449770E+02 -0.80754536338E+02  0.22870013066E+03  0.28406031373E+03  0.12509000000E+03 0.  0.
         25    1    4    4    0    0 -0.37269840729E+02  0.30783330083E+01  0.25628109025E+03  0.28762131785E+03  0.12509000000E+03 0.  0.
<mgrwt>
<rscale>  2 0.45612801E+03</rscale>
<asrwt>0</asrwt>
<pdfrwt beam="1">  1       21 0.11345370E+00 0.45612801E+03</pdfrwt>
<pdfrwt beam="2">  1       21 0.99146415E-02 0.45612801E+03</pdfrwt>
<totfact> 0.45535543E+04</totfact>
</mgrwt>
</event>
<event>
 7    0  0.4714446E-002  0.4499322E+03  0.7546771E-02  0.1027742E+00
         21   -1    0    0  502  501  0.00000000000E+00  0.00000000000E+00  0.66434322094E+03  0.66434322094E+03  0.00000000000E+00 0.  1.
         21   -1    0    0  501  502 -0.00000000000E+00 -0.00000000000E+00 -0.76180108242E+02  0.76180108242E+02  0.00000000000E+00 0.  1.
      99926    2    1    2    0    0  0.00000000000E+00  0.00000000000E+00  0.58816311269E+03  0.74052332918E+03  0.44993216591E+03 0.  0.
      99925    2    3    3    0    0 -0.10685838106E+03 -0.15655910356E+01  0.34244496205E+03  0.44481049156E+03  0.26299554499E+03 0.  0.
         25    1    4    4    0    0 -0.50189265593E+02 -0.90689514174E+00  0.10639195605E+03  0.17171645597E+03  0.12509000000E+03 0.  0.
         25    1    4    4    0    0 -0.56669115471E+02 -0.65869589390E+00  0.23605300601E+03  0.27309403559E+03  0.12509000000E+03 0.  0.
         25    1    3    3    0    0  0.10685838106E+03  0.15655910356E+01  0.24571815064E+03  0.29571283762E+03  0.12509000000E+03 0.  0.
<mgrwt>
<rscale>  2 0.44993217E+03</rscale>
<asrwt>0</asrwt>
<pdfrwt beam="1">  1       21 0.97697530E-01 0.44993217E+03</pdfrwt>
<pdfrwt beam="2">  1       21 0.11202957E-01 0.44993217E+03</pdfrwt>
<totfact> 0.52830943E+04</totfact>
</mgrwt>
</event>
<event>
 7    0  0.4714446E-002  0.4514612E+03  0.7546771E-02  0.1027287E+00
         21   -1    0    0  502  501  0.00000000000E+00  0.00000000000E+00  0.19520122897E+04  0.19520122897E+04  0.00000000000E+00 0.  1.
         21   -1    0    0  501  502 -0.00000000000E+00 -0.00000000000E+00 -0.26103475946E+02  0.26103475946E+02  0.00000000000E+00 0.  1.
      99926    2    1    2    0    0  0.00000000000E+00  0.00000000000E+00  0.19259088138E+04  0.19781157657E+04  0.45146120920E+03 0.  0.
      99925    2    3    3    0    0 -0.45797851727E+02  0.78833568056E+02  0.14848485871E+04  0.15106825551E+04  0.26281986424E+03 0.  0.
         25    1    3    3    0    0  0.45797851727E+02 -0.78833568056E+02  0.44106022672E+03  0.46743321060E+03  0.12509000000E+03 0.  0.
         25    1    4    4    0    0 -0.37431439510E+02  0.64911013900E+02  0.63520867373E+03  0.65173009726E+03  0.12509000000E+03 0.  0.
         25    1    4    4    0    0 -0.83664122175E+01  0.13922554156E+02  0.84963991334E+03  0.85895245783E+03  0.12509000000E+03 0.  0.
<mgrwt>
<rscale>  2 0.45146121E+03</rscale>
<asrwt>0</asrwt>
<pdfrwt beam="1">  1       21 0.28706053E+00 0.45146121E+03</pdfrwt>
<pdfrwt beam="2">  1       21 0.38387478E-02 0.45146121E+03</pdfrwt>
<totfact> 0.14463614E+04</totfact>
</mgrwt>
</event>
<event>
 7    0  0.4714446E-002  0.4745197E+03  0.7546771E-02  0.1020652E+00
         21   -1    0    0  502  501  0.00000000000E+00  0.00000000000E+00  0.10056433340E+03  0.10056433340E+03  0.00000000000E+00 0. -1.
         21   -1    0    0  501  502 -0.00000000000E+00 -0.00000000000E+00 -0.55976334570E+03  0.55976334570E+03  0.00000000000E+00 0. -1.
      99926    2    1    2    0    0  0.00000000000E+00  0.00000000000E+00 -0.45919901230E+03  0.66032767910E+03  0.47451966332E+03 0.  0.
      99925    2    3    3    0    0  0.10548947374E+02  0.59562172874E+02 -0.12306316322E+03  0.29660560131E+03  0.26300457764E+03 0.  0.
         25    1    4    4    0    0  0.94940683484E+01  0.16740170651E+02 -0.18229632183E+02  0.12786789369E+03  0.12509000000E+03 0.  0.
         25    1    3    3    0    0 -0.10548947374E+02 -0.59562172874E+02 -0.33613584909E+03  0.36372207779E+03  0.12509000000E+03 0.  0.
         25    1    4    4    0    0  0.10548790252E+01  0.42822002223E+02 -0.10483353103E+03  0.16873770762E+03  0.12509000000E+03 0.  0.
<mgrwt>
<rscale>  2 0.47451966E+03</rscale>
<asrwt>0</asrwt>
<pdfrwt beam="1">  1       21 0.14788873E-01 0.47451966E+03</pdfrwt>
<pdfrwt beam="2">  1       21 0.82318138E-01 0.47451966E+03</pdfrwt>
<totfact> 0.47382752E+04</totfact>
</mgrwt>
</event>
<event>
 7    0  0.4714446E-002  0.4568241E+03  0.7546771E-02  0.1025706E+00
         21   -1    0    0  502  501  0.00000000000E+00  0.00000000000E+00  0.24440963153E+02  0.24440963153E+02  0.00000000000E+00 0.  1.
         21   -1    0    0  501  502 -0.00000000000E+00 -0.00000000000E+00 -0.21346156832E+04  0.21346156832E+04  0.00000000000E+00 0.  1.
      99926    2    1    2    0    0  0.00000000000E+00  0.00000000000E+00 -0.21101747200E+04  0.21590566463E+04  0.45682409419E+03 0.  0.
      99925    2    3    3    0    0 -0.78429828338E+02 -0.19625669933E+02 -0.17115892219E+04  0.17335518728E+04  0.26292209153E+03 0.  0.
         25    1    4    4    0    0  0.21455269442E+01 -0.28195688502E+01 -0.81144313692E+03  0.82103594672E+03  0.12509000000E+03 0.  0.
         25    1    4    4    0    0 -0.80575355283E+02 -0.16806101082E+02 -0.90014608503E+03  0.91251592611E+03  0.12509000000E+03 0.  0.
         25    1    3    3    0    0  0.78429828338E+02  0.19625669933E+02 -0.39858549807E+03  0.42550477349E+03  0.12509000000E+03 0.  0.
<mgrwt>
<rscale>  2 0.45682409E+03</rscale>
<asrwt>0</asrwt>
<pdfrwt beam="1">  1       21 0.35942573E-02 0.45682409E+03</pdfrwt>
<pdfrwt beam="2">  1       21 0.31391424E+00 0.45682409E+03</pdfrwt>
<totfact> 0.11124006E+04</totfact>
</mgrwt>
</event>
<event>
 7    0  0.4714446E-002  0.4517505E+03  0.7546771E-02  0.1027201E+00
         21   -1    0    0  502  501  0.00000000000E+00  0.00000000000E+00  0.36911176612E+03  0.36911176612E+03  0.00000000000E+00 0.  1.
         21   -1    0    0  501  502 -0.00000000000E+00 -0.00000000000E+00 -0.13822273446E+03  0.13822273446E+03  0.00000000000E+00 0.  1.
      99926    2    1    2    0    0 -0.14210854715E-13  0.22204460493E-14  0.23088903166E+03  0.50733450058E+03  0.45175054017E+03 0.  0.
      99925    2    3    3    0    0 -0.10506593236E+03 -0.35396673520E+01  0.18256532638E+03  0.33694063925E+03  0.26295915386E+03 0.  0.
         25    1    4    4    0    0 -0.39959184305E+02  0.19890459169E+02  0.49796642344E+02  0.14184350695E+03  0.12509000000E+03 0.  0.
         25    1    3    3    0    0  0.10506593236E+03  0.35396673520E+01  0.48323705282E+02  0.17039386133E+03  0.12509000000E+03 0.  0.
         25    1    4    4    0    0 -0.65106748054E+02 -0.23430126521E+02  0.13276868403E+03  0.19509713230E+03  0.12509000000E+03 0.  0.
<mgrwt>
<rscale>  2 0.45175054E+03</rscale>
<asrwt>0</asrwt>
<pdfrwt beam="1">  1       21 0.54281142E-01 0.45175054E+03</pdfrwt>
<pdfrwt beam="2">  1       21 0.20326873E-01 0.45175054E+03</pdfrwt>
<totfact> 0.66455777E+04</totfact>
</mgrwt>
</event>
<event>
 7    0  0.4714446E-002  0.4524355E+03  0.7546771E-02  0.1026998E+00
         21   -1    0    0  502  501  0.00000000000E+00  0.00000000000E+00  0.46450690931E+03  0.46450690931E+03  0.00000000000E+00 0. -1.
         21   -1    0    0  501  502 -0.00000000000E+00 -0.00000000000E+00 -0.11016944578E+03  0.11016944578E+03  0.00000000000E+00 0. -1.
      99926    2    1    2    0    0  0.00000000000E+00  0.00000000000E+00  0.35433746352E+03  0.57467635509E+03  0.45243549269E+03 0.  0.
      99925    2    3    3    0    0  0.94402846569E+02 -0.45260829814E+02  0.17773387619E+03  0.33426675604E+03  0.26302945328E+03 0.  0.
         25    1    4    4    0    0  0.19943617541E+02 -0.27053399855E+02  0.47090454525E+02  0.13782109175E+03  0.12509000000E+03 0.  0.
         25    1    4    4    0    0  0.74459229028E+02 -0.18207429960E+02  0.13064342166E+03  0.19644566429E+03  0.12509000000E+03 0.  0.
         25    1    3    3    0    0 -0.94402846569E+02  0.45260829814E+02  0.17660358733E+03  0.24040959905E+03  0.12509000000E+03 0.  0.
<mgrwt>
<rscale>  2 0.45243549E+03</rscale>
<asrwt>0</asrwt>
<pdfrwt beam="1">  1       21 0.68309839E-01 0.45243549E+03</pdfrwt>
<pdfrwt beam="2">  1       21 0.16201389E-01 0.45243549E+03</pdfrwt>
<totfact> 0.61502352E+04</totfact>
</mgrwt>
</event>
<event>
 7    0  0.4714446E-002  0.4229504E+03  0.7546771E-02  0.1036110E+00
         21   -1    0    0  502  501  0.00000000000E+00  0.00000000000E+00  0.16272630220E+03  0.16272630220E+03  0.00000000000E+00 0.  1.
         21   -1    0    0  501  502 -0.00000000000E+00 -0.00000000000E+00 -0.27482807070E+03  0.27482807070E+03  0.00000000000E+00 0.  1.
      99926    2    1    2    0    0  0.71054273576E-14  0.00000000000E+00 -0.11210176850E+03  0.43755437290E+03  0.42295037858E+03 0.  0.
      99925    2    3    3    0    0  0.48312548121E+02 -0.37192499174E+02 -0.12559666208E+03  0.29774377046E+03  0.26298183782E+03 0.  0.
         25    1    4    4    0    0  0.30007935206E+02 -0.25561891835E+02 -0.20119290171E+02  0.13268828293E+03  0.12509000000E+03 0.  0.
         25    1    4    4    0    0  0.18304612915E+02 -0.11630607339E+02 -0.10547737191E+03  0.16505548754E+03  0.12509000000E+03 0.  0.
         25    1    3    3    0    0 -0.48312548121E+02  0.37192499174E+02  0.13494893583E+02  0.13981060244E+03  0.12509000000E+03 0.  0.
<mgrwt>
<rscale>  2 0.42295038E+03</rscale>
<asrwt>0</asrwt>
<pdfrwt beam="1">  1       21 0.23930339E-01 0.42295038E+03</pdfrwt>
<pdfrwt beam="2">  1       21 0.40415892E-01 0.42295038E+03</pdfrwt>
<totfact> 0.90937260E+04</totfact>
</mgrwt>
</event>
<event>
 7    0  0.4714446E-002  0.4496700E+03  0.7546771E-02  0.1027820E+00
         21   -1    0    0  502  501  0.00000000000E+00  0.00000000000E+00  0.17429701289E+03  0.17429701289E+03  0.00000000000E+00 0.  1.
         21   -1    0    0  501  502 -0.00000000000E+00 -0.00000000000E+00 -0.29002668161E+03  0.29002668161E+03  0.00000000000E+00 0.  1.
      99926    2    1    2    0    0  0.00000000000E+00 -0.35527136788E-14 -0.11572966872E+03  0.46432369450E+03  0.44967003130E+03 0.  0.
      99925    2    3    3    0    0 -0.25686178674E+02 -0.21390366691E+02  0.33074178868E+02  0.26707405389E+03  0.26290173334E+03 0.  0.
         25    1    4    4    0    0  0.58165361112E+01 -0.46222464005E+02  0.11881141342E+02  0.13401126031E+03  0.12509000000E+03 0.  0.
         25    1    3    3    0    0  0.25686178674E+02  0.21390366691E+02 -0.14880384759E+03  0.19724964061E+03  0.12509000000E+03 0.  0.
         25    1    4    4    0    0 -0.31502714785E+02  0.24832097313E+02  0.21193037526E+02  0.13306279358E+03  0.12509000000E+03 0.  0.
<mgrwt>
<rscale>  2 0.44967003E+03</rscale>
<asrwt>0</asrwt>
<pdfrwt beam="1">  1       21 0.25631914E-01 0.44967003E+03</pdfrwt>
<pdfrwt beam="2">  1       21 0.42650982E-01 0.44967003E+03</pdfrwt>
<totfact> 0.70806994E+04</totfact>
</mgrwt>
</event>
<event>
 7    0  0.4714446E-002  0.4540234E+03  0.7546771E-02  0.1026529E+00
         21   -1    0    0  502  501  0.00000000000E+00  0.00000000000E+00  0.32282499521E+03  0.32282499521E+03  0.00000000000E+00 0. -1.
         21   -1    0    0  501  502 -0.00000000000E+00 -0.00000000000E+00 -0.15963545422E+03  0.15963545422E+03  0.00000000000E+00 0. -1.
      99926    2    1    2    0    0  0.00000000000E+00  0.00000000000E+00  0.16318954099E+03  0.48246044943E+03  0.45402341236E+03 0.  0.
      99925    2    3    3    0    0  0.39269688283E+02  0.87356766408E+02  0.16508059494E+03  0.32490284968E+03  0.26293905348E+03 0.  0.
         25    1    4    4    0    0  0.42903147512E+02  0.79584576283E+02  0.95657762260E+02  0.18158276468E+03  0.12509000000E+03 0.  0.
         25    1    4    4    0    0 -0.36334592294E+01  0.77721901247E+01  0.69422832683E+02  0.14332008500E+03  0.12509000000E+03 0.  0.
         25    1    3    3    0    0 -0.39269688283E+02 -0.87356766408E+02 -0.18910539481E+01  0.15755759975E+03  0.12509000000E+03 0.  0.
<mgrwt>
<rscale>  2 0.45402341E+03</rscale>
<asrwt>0</asrwt>
<pdfrwt beam="1">  1       21 0.47474264E-01 0.45402341E+03</pdfrwt>
<pdfrwt beam="2">  1       21 0.23475802E-01 0.45402341E+03</pdfrwt>
<totfact> 0.67039633E+04</totfact>
</mgrwt>
</event>
<event>
 7    0  0.4714446E-002  0.4544017E+03  0.7546771E-02  0.1026417E+00
         21   -1    0    0  502  501  0.00000000000E+00  0.00000000000E+00  0.11623542167E+03  0.11623542167E+03  0.00000000000E+00 0.  1.
         21   -1    0    0  501  502 -0.00000000000E+00 -0.00000000000E+00 -0.44410059741E+03  0.44410059741E+03  0.00000000000E+00 0.  1.
      99926    2    1    2    0    0  0.14210854715E-13  0.00000000000E+00 -0.32786517573E+03  0.56033601908E+03  0.45440167344E+03 0.  0.
      99925    2    3    3    0    0  0.10039745866E+03 -0.26667746643E+02 -0.15205298374E+03  0.32086106555E+03  0.26275634171E+03 0.  0.
         25    1    4    4    0    0  0.23954447260E+02 -0.27448910063E+02 -0.10361535092E+03  0.16646593422E+03  0.12509000000E+03 0.  0.
         25    1    3    3    0    0 -0.10039745866E+03  0.26667746643E+02 -0.17581219199E+03  0.23947495353E+03  0.12509000000E+03 0.  0.
         25    1    4    4    0    0  0.76443011396E+02  0.78116341919E+00 -0.48437632821E+02  0.15439513134E+03  0.12509000000E+03 0.  0.
<mgrwt>
<rscale>  2 0.45440167E+03</rscale>
<asrwt>0</asrwt>
<pdfrwt beam="1">  1       21 0.17093444E-01 0.45440167E+03</pdfrwt>
<pdfrwt beam="2">  1       21 0.65308911E-01 0.45440167E+03</pdfrwt>
<totfact> 0.61479066E+04</totfact>
</mgrwt>
</event>
<event>
 7    0  0.4714446E-002  0.4621114E+03  0.7546771E-02  0.1024171E+00
         21   -1    0    0  502  501  0.00000000000E+00  0.00000000000E+00  0.85156786969E+02  0.85156786969E+02  0.00000000000E+00 0. -1.
         21   -1    0    0  501  502 -0.00000000000E+00 -0.00000000000E+00 -0.62692272615E+03  0.62692272615E+03  0.00000000000E+00 0. -1.
      99926    2    1    2    0    0  0.71054273576E-14  0.00000000000E+00 -0.54176593919E+03  0.71207951312E+03  0.46211135038E+03 0.  0.
      99925    2    3    3    0    0 -0.45222187113E+02  0.10293273403E+03 -0.27466443121E+03  0.39643585707E+03  0.26283197115E+03 0.  0.
         25    1    4    4    0    0 -0.32837927413E+01  0.62435428667E+02 -0.91580872387E+02  0.16716318475E+03  0.12509000000E+03 0.  0.
         25    1    3    3    0    0  0.45222187113E+02 -0.10293273403E+03 -0.26710150798E+03  0.31564365605E+03  0.12509000000E+03 0.  0.
         25    1    4    4    0    0 -0.41938394372E+02  0.40497305364E+02 -0.18308355882E+03  0.22927267232E+03  0.12509000000E+03 0.  0.
<mgrwt>
<rscale>  2 0.46211135E+03</rscale>
<asrwt>0</asrwt>
<pdfrwt beam="1">  1       21 0.12523057E-01 0.46211135E+03</pdfrwt>
<pdfrwt beam="2">  1       21 0.92194518E-01 0.46211135E+03</pdfrwt>
<totfact> 0.49428051E+04</totfact>
</mgrwt>
</event>
<event>
 7    0  0.4714446E-002  0.4585295E+03  0.7546771E-02  0.1025209E+00
         21   -1    0    0  502  501  0.00000000000E+00  0.00000000000E+00  0.20745216312E+03  0.20745216312E+03  0.00000000000E+00 0. -1.
         21   -1    0    0  501  502 -0.00000000000E+00 -0.00000000000E+00 -0.25337077413E+03  0.25337077413E+03  0.00000000000E+00 0. -1.
      99926    2    1    2    0    0  0.00000000000E+00  0.00000000000E+00 -0.45918611007E+02  0.46082293725E+03  0.45852945452E+03 0.  0.
      99925    2    3    3    0    0 -0.54162759503E+02  0.10006154500E+03 -0.37806192017E+01  0.28655579819E+03  0.26297151003E+03 0.  0.
         25    1    4    4    0    0 -0.59161410464E+02  0.77852067900E+02 -0.11418300050E+02  0.15918197963E+03  0.12509000000E+03 0.  0.
         25    1    3    3    0    0  0.54162759503E+02 -0.10006154500E+03 -0.42137991805E+02  0.17426713907E+03  0.12509000000E+03 0.  0.
         25    1    4    4    0    0  0.49986509612E+01  0.22209477099E+02  0.76376808481E+01  0.12737381855E+03  0.12509000000E+03 0.  0.
<mgrwt>
<rscale>  2 0.45852945E+03</rscale>
<asrwt>0</asrwt>
<pdfrwt beam="1">  1       21 0.30507671E-01 0.45852945E+03</pdfrwt>
<pdfrwt beam="2">  1       21 0.37260408E-01 0.45852945E+03</pdfrwt>
<totfact> 0.66236330E+04</totfact>
</mgrwt>
</event>
<event>
 7    0  0.4714446E-002  0.4571802E+03  0.7546771E-02  0.1025602E+00
         21   -1    0    0  502  501  0.00000000000E+00  0.00000000000E+00  0.28048393269E+03  0.28048393269E+03  0.00000000000E+00 0.  1.
         21   -1    0    0  501  502 -0.00000000000E+00 -0.00000000000E+00 -0.18629746057E+03  0.18629746057E+03  0.00000000000E+00 0.  1.
      99926    2    1    2    0    0  0.35527136788E-14  0.00000000000E+00  0.94186472122E+02  0.46678139326E+03  0.45718024625E+03 0.  0.
      99925    2    3    3    0    0  0.20370226420E+02  0.82578278871E+02  0.13846602130E+03  0.30916697501E+03  0.26301570507E+03 0.  0.
         25    1    4    4    0    0 -0.41107052005E+01  0.80716164767E+02  0.76531784848E+02  0.16744139077E+03  0.12509000000E+03 0.  0.
         25    1    3    3    0    0 -0.20370226420E+02 -0.82578278871E+02 -0.44279549180E+02  0.15761441825E+03  0.12509000000E+03 0.  0.
         25    1    4    4    0    0  0.24480931620E+02  0.18621141041E+01  0.61934236455E+02  0.14172558424E+03  0.12509000000E+03 0.  0.
<mgrwt>
<rscale>  2 0.45718025E+03</rscale>
<asrwt>0</asrwt>
<pdfrwt beam="1">  1       21 0.41247637E-01 0.45718025E+03</pdfrwt>
<pdfrwt beam="2">  1       21 0.27396685E-01 0.45718025E+03</pdfrwt>
<totfact> 0.66517922E+04</totfact>
</mgrwt>
</event>
<event>
 7    0  0.4714446E-002  0.4545509E+03  0.7546771E-02  0.1026374E+00
         21   -1    0    0  502  501  0.00000000000E+00  0.00000000000E+00  0.89609619372E+02  0.89609619372E+02  0.00000000000E+00 0.  1.
         21   -1    0    0  501  502 -0.00000000000E+00 -0.00000000000E+00 -0.57643513342E+03  0.57643513342E+03  0.00000000000E+00 0.  1.
      99926    2    1    2    0    0 -0.35527136788E-14  0.00000000000E+00 -0.48682551405E+03  0.66604475280E+03  0.45455091199E+03 0.  0.
      99925    2    3    3    0    0  0.23457942853E+02 -0.74302242519E+02 -0.42579010100E+03  0.50653322320E+03  0.26307336957E+03 0.  0.
         25    1    4    4    0    0  0.22701781811E+02 -0.45182652859E+02 -0.28873015400E+03  0.31869962809E+03  0.12509000000E+03 0.  0.
         25    1    4    4    0    0  0.75616104140E+00 -0.29119589660E+02 -0.13705994700E+03  0.18783359511E+03  0.12509000000E+03 0.  0.
         25    1    3    3    0    0 -0.23457942853E+02  0.74302242519E+02 -0.61035413054E+02  0.15951152959E+03  0.12509000000E+03 0.  0.
<mgrwt>
<rscale>  2 0.45455091E+03</rscale>
<asrwt>0</asrwt>
<pdfrwt beam="1">  1       21 0.13177885E-01 0.45455091E+03</pdfrwt>
<pdfrwt beam="2">  1       21 0.84769872E-01 0.45455091E+03</pdfrwt>
<totfact> 0.54979830E+04</totfact>
</mgrwt>
</event>
<event>
 7    0  0.4714446E-002  0.4502773E+03  0.7546771E-02  0.1027639E+00
         21   -1    0    0  502  501  0.00000000000E+00  0.00000000000E+00  0.10450443297E+04  0.10450443297E+04  0.00000000000E+00 0.  1.
         21   -1    0    0  501  502 -0.00000000000E+00 -0.00000000000E+00 -0.48502649836E+02  0.48502649836E+02  0.00000000000E+00 0.  1.
      99926    2    1    2    0    0 -0.35527136788E-14  0.71054273576E-14  0.99654167987E+03  0.10935469795E+04  0.45027733315E+03 0.  0.
      99925    2    3    3    0    0 -0.25472879018E+02  0.47869737154E+02  0.40077523459E+03  0.48237961726E+03  0.26292380490E+03 0.  0.
         25    1    4    4    0    0 -0.48038907675E+02  0.36272749373E+02  0.23803558570E+03  0.27555742987E+03  0.12509000000E+03 0.  0.
         25    1    3    3    0    0  0.25472879018E+02 -0.47869737154E+02  0.59576644527E+03  0.61116736228E+03  0.12509000000E+03 0.  0.
         25    1    4    4    0    0  0.22566028657E+02  0.11596987781E+02  0.16273964890E+03  0.20682218739E+03  0.12509000000E+03 0.  0.
<mgrwt>
<rscale>  2 0.45027733E+03</rscale>
<asrwt>0</asrwt>
<pdfrwt beam="1">  1       21 0.15368298E+00 0.45027733E+03</pdfrwt>
<pdfrwt beam="2">  1       21 0.71327433E-02 0.45027733E+03</pdfrwt>
<totfact> 0.37065766E+04</totfact>
</mgrwt>
</event>
<event>
 7    0  0.4714446E-002  0.4559971E+03  0.7546771E-02  0.1025949E+00
         21   -1    0    0  502  501  0.00000000000E+00  0.00000000000E+00  0.17649841787E+02  0.17649841787E+02  0.00000000000E+00 0.  1.
         21   -1    0    0  501  502 -0.00000000000E+00 -0.00000000000E+00 -0.29452577010E+04  0.29452577010E+04  0.00000000000E+00 0.  1.
      99926    2    1    2    0    0  0.00000000000E+00  0.00000000000E+00 -0.29276078592E+04  0.29629075428E+04  0.45599707212E+03 0.  0.
      99925    2    3    3    0    0  0.74992056063E+02  0.86250189329E+02 -0.17875818712E+04  0.18103583399E+04  0.26246041411E+03 0.  0.
         25    1    4    4    0    0  0.52401543598E+02  0.79051205554E+02 -0.88033390075E+03  0.89422049841E+03  0.12509000000E+03 0.  0.
         25    1    4    4    0    0  0.22590512464E+02  0.71989837742E+01 -0.90724797044E+03  0.91613784147E+03  0.12509000000E+03 0.  0.
         25    1    3    3    0    0 -0.74992056063E+02 -0.86250189329E+02 -0.11400259880E+04  0.11525492029E+04  0.12509000000E+03 0.  0.
<mgrwt>
<rscale>  2 0.45599707E+03</rscale>
<asrwt>0</asrwt>
<pdfrwt beam="1">  1       21 0.25955640E-02 0.45599707E+03</pdfrwt>
<pdfrwt beam="2">  1       21 0.43312630E+00 0.45599707E+03</pdfrwt>
<totfact> 0.34324767E+03</totfact>
</mgrwt>
</event>
<event>
 7    0  0.4714446E-002  0.4561823E+03  0.7546771E-02  0.1025894E+00
         21   -1    0    0  502  501  0.00000000000E+00  0.00000000000E+00  0.54140506281E+03  0.54140506281E+03  0.00000000000E+00 0.  1.
         21   -1    0    0  501  502 -0.00000000000E+00 -0.00000000000E+00 -0.96093636188E+02  0.96093636188E+02  0.00000000000E+00 0.  1.
      99926    2    1    2    0    0  0.00000000000E+00  0.71054273576E-14  0.44531142662E+03  0.63749869900E+03  0.45618233695E+03 0.  0.
      99925    2    3    3    0    0 -0.94713145918E+02 -0.43203080784E+02  0.34567573800E+03  0.44667976716E+03  0.26304754771E+03 0.  0.
         25    1    4    4    0    0 -0.13939720371E+02 -0.27730570430E+02  0.12157555362E+03  0.17717625032E+03  0.12509000000E+03 0.  0.
         25    1    3    3    0    0  0.94713145918E+02  0.43203080784E+02  0.99635688627E+02  0.19081893184E+03  0.12509000000E+03 0.  0.
         25    1    4    4    0    0 -0.80773425547E+02 -0.15472510354E+02  0.22410018438E+03  0.26950351684E+03  0.12509000000E+03 0.  0.
<mgrwt>
<rscale>  2 0.45618234E+03</rscale>
<asrwt>0</asrwt>
<pdfrwt beam="1">  1       21 0.79618390E-01 0.45618234E+03</pdfrwt>
<pdfrwt beam="2">  1       21 0.14131417E-01 0.45618234E+03</pdfrwt>
<totfact> 0.55904010E+04</totfact>
</mgrwt>
</event>
<event>
 7    0  0.4714446E-002  0.4755561E+03  0.7546771E-02  0.1020364E+00
         21   -1    0    0  502  501  0.00000000000E+00  0.00000000000E+00  0.81722238316E+03  0.81722238316E+03  0.00000000000E+00 0.  1.
         21   -1    0    0  501  502 -0.00000000000E+00 -0.00000000000E+00 -0.69183612563E+02  0.69183612563E+02  0.00000000000E+00 0.  1.
      99926    2    1    2    0    0  0.00000000000E+00 -0.71054273576E-14  0.74803877059E+03  0.88640599572E+03  0.47555608180E+03 0.  0.
      99925    2    3    3    0    0 -0.11766197226E+03  0.58405402823E+02  0.47841106183E+03  0.56144116650E+03  0.26283741850E+03 0.  0.
         25    1    4    4    0    0 -0.33122177850E+02  0.48742965442E+01  0.16778747611E+03  0.21194570690E+03  0.12509000000E+03 0.  0.
         25    1    3    3    0    0  0.11766197226E+03 -0.58405402823E+02  0.26962770877E+03  0.32496482922E+03  0.12509000000E+03 0.  0.
         25    1    4    4    0    0 -0.84539794413E+02  0.53531106279E+02  0.31062358571E+03  0.34949545960E+03  0.12509000000E+03 0.  0.
<mgrwt>
<rscale>  2 0.47555608E+03</rscale>
<asrwt>0</asrwt>
<pdfrwt beam="1">  1       21 0.12017976E+00 0.47555608E+03</pdfrwt>
<pdfrwt beam="2">  1       21 0.10174061E-01 0.47555608E+03</pdfrwt>
<totfact> 0.37427830E+04</totfact>
</mgrwt>
</event>
<event>
 7    0  0.4714446E-002  0.4508877E+03  0.7546771E-02  0.1027458E+00
         21   -1    0    0  502  501  0.00000000000E+00  0.00000000000E+00  0.17425496779E+02  0.17425496779E+02  0.00000000000E+00 0.  1.
         21   -1    0    0  501  502 -0.00000000000E+00 -0.00000000000E+00 -0.29166984312E+04  0.29166984312E+04  0.00000000000E+00 0.  1.
      99926    2    1    2    0    0  0.00000000000E+00 -0.71054273576E-14 -0.28992729345E+04  0.29341239280E+04  0.45088765394E+03 0.  0.
      99925    2    3    3    0    0  0.94349181916E+02  0.32026746980E+02 -0.21224904544E+04  0.21410501546E+04  0.26306378477E+03 0.  0.
         25    1    4    4    0    0  0.83465679556E+02 -0.42057003332E+01 -0.11735430472E+04  0.11831462290E+04  0.12509000000E+03 0.  0.
         25    1    4    4    0    0  0.10883502360E+02  0.36232447313E+02 -0.94894740722E+03  0.95790392557E+03  0.12509000000E+03 0.  0.
         25    1    3    3    0    0 -0.94349181916E+02 -0.32026746980E+02 -0.77678248009E+03  0.79307377345E+03  0.12509000000E+03 0.  0.
<mgrwt>
<rscale>  2 0.45088765E+03</rscale>
<asrwt>0</asrwt>
<pdfrwt beam="1">  1       21 0.25625758E-02 0.45088765E+03</pdfrwt>
<pdfrwt beam="2">  1       21 0.42892579E+00 0.45088765E+03</pdfrwt>
<totfact> 0.37495931E+03</totfact>
</mgrwt>
</event>
<event>
 7    0  0.4714446E-002  0.4570708E+03  0.7546771E-02  0.1025634E+00
         21   -1    0    0  502  501  0.00000000000E+00  0.00000000000E+00  0.44895872359E+02  0.44895872359E+02  0.00000000000E+00 0. -1.
         21   -1    0    0  501  502 -0.00000000000E+00 -0.00000000000E+00 -0.11633236309E+04  0.11633236309E+04  0.00000000000E+00 0. -1.
      99926    2    1    2    0    0  0.00000000000E+00  0.00000000000E+00 -0.11184277585E+04  0.12082195032E+04  0.45707080083E+03 0.  0.
      99925    2    3    3    0    0 -0.75650673290E+02  0.82354445367E+02 -0.77447370289E+03  0.82552226059E+03  0.26300609732E+03 0.  0.
         25    1    3    3    0    0  0.75650673290E+02 -0.82354445367E+02 -0.34395405563E+03  0.38269724264E+03  0.12509000000E+03 0.  0.
         25    1    4    4    0    0 -0.43417143515E+02  0.33504505298E-01 -0.34352958526E+03  0.36816454680E+03  0.12509000000E+03 0.  0.
         25    1    4    4    0    0 -0.32233529775E+02  0.82320940862E+02 -0.43094411763E+03  0.45735771379E+03  0.12509000000E+03 0.  0.
<mgrwt>
<rscale>  2 0.45707080E+03</rscale>
<asrwt>0</asrwt>
<pdfrwt beam="1">  1       21 0.66023339E-02 0.45707080E+03</pdfrwt>
<pdfrwt beam="2">  1       21 0.17107701E+00 0.45707080E+03</pdfrwt>
<totfact> 0.31387173E+04</totfact>
</mgrwt>
</event>
<event>
 7    0  0.4714446E-002  0.4508290E+03  0.7546771E-02  0.1027475E+00
         21   -1    0    0  502  501  0.00000000000E+00  0.00000000000E+00  0.17179436806E+03  0.17179436806E+03  0.00000000000E+00 0. -1.
         21   -1    0    0  501  502 -0.00000000000E+00 -0.00000000000E+00 -0.29577042238E+03  0.29577042238E+03  0.00000000000E+00 0. -1.
      99926    2    1    2    0    0  0.00000000000E+00  0.71054273576E-14 -0.12397605432E+03  0.46756479044E+03  0.45082898223E+03 0.  0.
      99925    2    3    3    0    0 -0.58342657270E+02 -0.35020146383E+02 -0.16631099615E+03  0.31900493143E+03  0.26358020132E+03 0.  0.
         25    1    3    3    0    0  0.58342657270E+02  0.35020146383E+02  0.42334941831E+02  0.14855985901E+03  0.12509000000E+03 0.  0.
         25    1    4    4    0    0 -0.14195759813E+01  0.14607034957E+02 -0.71621027571E+02  0.14488775089E+03  0.12509000000E+03 0.  0.
         25    1    4    4    0    0 -0.56923081288E+02 -0.49627181340E+02 -0.94689968579E+02  0.17411718054E+03  0.12509000000E+03 0.  0.
<mgrwt>
<rscale>  2 0.45082898E+03</rscale>
<asrwt>0</asrwt>
<pdfrwt beam="1">  1       21 0.25263878E-01 0.45082898E+03</pdfrwt>
<pdfrwt beam="2">  1       21 0.43495650E-01 0.45082898E+03</pdfrwt>
<totfact> 0.69901810E+04</totfact>
</mgrwt>
</event>
<event>
 7    0  0.4714446E-002  0.4553964E+03  0.7546771E-02  0.1026125E+00
         21   -1    0    0  502  501  0.00000000000E+00  0.00000000000E+00  0.32188260863E+03  0.32188260863E+03  0.00000000000E+00 0.  1.
         21   -1    0    0  501  502 -0.00000000000E+00 -0.00000000000E+00 -0.16107263642E+03  0.16107263642E+03  0.00000000000E+00 0.  1.
      99926    2    1    2    0    0  0.00000000000E+00  0.00000000000E+00  0.16080997221E+03  0.48295524505E+03  0.45539644438E+03 0.  0.
      99925    2    3    3    0    0  0.80084467125E+02  0.58065501470E+02  0.15913351722E+03  0.32347031492E+03  0.26367488314E+03 0.  0.
         25    1    4    4    0    0  0.79123047253E+02  0.38512758559E+02  0.10641640927E+03  0.18632136066E+03  0.12509000000E+03 0.  0.
         25    1    4    4    0    0  0.96141987221E+00  0.19552742911E+02  0.52717107957E+02  0.13714895426E+03  0.12509000000E+03 0.  0.
         25    1    3    3    0    0 -0.80084467125E+02 -0.58065501470E+02  0.16764549900E+01  0.15948493013E+03  0.12509000000E+03 0.  0.
<mgrwt>
<rscale>  2 0.45539644E+03</rscale>
<asrwt>0</asrwt>
<pdfrwt beam="1">  1       21 0.47335678E-01 0.45539644E+03</pdfrwt>
<pdfrwt beam="2">  1       21 0.23687152E-01 0.45539644E+03</pdfrwt>
<totfact> 0.66276786E+04</totfact>
</mgrwt>
</event>
<event>
 7    0  0.4714446E-002  0.4565262E+03  0.7546771E-02  0.1025794E+00
         21   -1    0    0  502  501  0.00000000000E+00  0.00000000000E+00  0.13207650700E+04  0.13207650700E+04  0.00000000000E+00 0.  1.
         21   -1    0    0  501  502 -0.00000000000E+00 -0.00000000000E+00 -0.39449886323E+02  0.39449886323E+02  0.00000000000E+00 0.  1.
      99926    2    1    2    0    0  0.00000000000E+00  0.00000000000E+00  0.12813151837E+04  0.13602149563E+04  0.45652615203E+03 0.  0.
      99925    2    3    3    0    0 -0.54187029336E+02 -0.80503712652E+02  0.98667092833E+03  0.10257305363E+04  0.26303332580E+03 0.  0.
         25    1    4    4    0    0 -0.10606418637E+02 -0.10118510695E+02  0.54198983187E+03  0.55643091784E+03  0.12509000000E+03 0.  0.
         25    1    3    3    0    0  0.54187029336E+02  0.80503712652E+02  0.29464425535E+03  0.33448441998E+03  0.12509000000E+03 0.  0.
         25    1    4    4    0    0 -0.43580610699E+02 -0.70385201957E+02  0.44468109647E+03  0.46929961851E+03  0.12509000000E+03 0.  0.
<mgrwt>
<rscale>  2 0.45652615E+03</rscale>
<asrwt>0</asrwt>
<pdfrwt beam="1">  1       21 0.19423013E+00 0.45652615E+03</pdfrwt>
<pdfrwt beam="2">  1       21 0.58014547E-02 0.45652615E+03</pdfrwt>
<totfact> 0.27089004E+04</totfact>
</mgrwt>
</event>
<event>
 7    0  0.4714446E-002  0.4560379E+03  0.7546771E-02  0.1025937E+00
         21   -1    0    0  502  501  0.00000000000E+00  0.00000000000E+00  0.52820318419E+03  0.52820318419E+03  0.00000000000E+00 0.  1.
         21   -1    0    0  501  502 -0.00000000000E+00 -0.00000000000E+00 -0.98433036999E+02  0.98433036999E+02  0.00000000000E+00 0.  1.
      99926    2    1    2    0    0  0.00000000000E+00  0.00000000000E+00  0.42977014719E+03  0.62663622119E+03  0.45603790883E+03 0.  0.
      99925    2    3    3    0    0  0.32358674305E+02  0.57696551414E+02  0.14241445408E+03  0.30632890265E+03  0.26302004490E+03 0.  0.
         25    1    4    4    0    0  0.22367578278E+02  0.29016142482E+02  0.26298190230E+02  0.13297122994E+03  0.12509000000E+03 0.  0.
         25    1    3    3    0    0 -0.32358674305E+02 -0.57696551414E+02  0.28735569311E+03  0.32030731854E+03  0.12509000000E+03 0.  0.
         25    1    4    4    0    0  0.99910960265E+01  0.28680408932E+02  0.11611626385E+03  0.17335767271E+03  0.12509000000E+03 0.  0.
<mgrwt>
<rscale>  2 0.45603791E+03</rscale>
<asrwt>0</asrwt>
<pdfrwt beam="1">  1       21 0.77676938E-01 0.45603791E+03</pdfrwt>
<pdfrwt beam="2">  1       21 0.14475447E-01 0.45603791E+03</pdfrwt>
<totfact> 0.56602731E+04</totfact>
</mgrwt>
</event>
<event>
 7    0  0.4714446E-002  0.4489077E+03  0.7546771E-02  0.1028048E+00
         21   -1    0    0  502  501  0.00000000000E+00  0.00000000000E+00  0.37979847046E+03  0.37979847046E+03  0.00000000000E+00 0. -1.
         21   -1    0    0  501  502 -0.00000000000E+00 -0.00000000000E+00 -0.13264803608E+03  0.13264803608E+03  0.00000000000E+00 0. -1.
      99926    2    1    2    0    0 -0.35527136788E-14  0.14210854715E-13  0.24715043437E+03  0.51244650654E+03  0.44890765738E+03 0.  0.
      99925    2    3    3    0    0  0.19585942204E+02  0.93511239344E+02  0.10062289957E+03  0.29739816878E+03  0.26304513275E+03 0.  0.
         25    1    3    3    0    0 -0.19585942204E+02 -0.93511239344E+02  0.14652753480E+03  0.21504833776E+03  0.12509000000E+03 0.  0.
         25    1    4    4    0    0 -0.15382113632E+02  0.65232729098E+02  0.23883584061E+02  0.14390917988E+03  0.12509000000E+03 0.  0.
         25    1    4    4    0    0  0.34968055837E+02  0.28278510247E+02  0.76739315507E+02  0.15348898891E+03  0.12509000000E+03 0.  0.
<mgrwt>
<rscale>  2 0.44890766E+03</rscale>
<asrwt>0</asrwt>
<pdfrwt beam="1">  1       21 0.55852716E-01 0.44890766E+03</pdfrwt>
<pdfrwt beam="2">  1       21 0.19507064E-01 0.44890766E+03</pdfrwt>
<totfact> 0.67614771E+04</totfact>
</mgrwt>
</event>
<event>
 7    0  0.4714446E-002  0.4593112E+03  0.7546771E-02  0.1024981E+00
         21   -1    0    0  502  501  0.00000000000E+00  0.00000000000E+00  0.11276658729E+03  0.11276658729E+03  0.00000000000E+00 0. -1.
         21   -1    0    0  501  502 -0.00000000000E+00 -0.00000000000E+00 -0.46770681895E+03  0.46770681895E+03  0.00000000000E+00 0. -1.
      99926    2    1    2    0    0  0.00000000000E+00  0.00000000000E+00 -0.35494023166E+03  0.58047340624E+03  0.45931123142E+03 0.  0.
      99925    2    3    3    0    0  0.87890689815E+02 -0.34150729794E+02 -0.31026755625E+03  0.41758018438E+03  0.26308973417E+03 0.  0.
         25    1    4    4    0    0  0.34340292614E+02  0.18882857103E+02 -0.11991364729E+03  0.17765868652E+03  0.12509000000E+03 0.  0.
         25    1    3    3    0    0 -0.87890689815E+02  0.34150729794E+02 -0.44672675414E+02  0.16289322187E+03  0.12509000000E+03 0.  0.
         25    1    4    4    0    0  0.53550397201E+02 -0.53033586897E+02 -0.19035390896E+03  0.23992149786E+03  0.12509000000E+03 0.  0.
<mgrwt>
<rscale>  2 0.45931123E+03</rscale>
<asrwt>0</asrwt>
<pdfrwt beam="1">  1       21 0.16583322E-01 0.45931123E+03</pdfrwt>
<pdfrwt beam="2">  1       21 0.68780414E-01 0.45931123E+03</pdfrwt>
<totfact> 0.57897837E+04</totfact>
</mgrwt>
</event>
<event>
 7    0  0.4714446E-002  0.4577811E+03  0.7546771E-02  0.1025427E+00
         21   -1    0    0  502  501  0.00000000000E+00  0.00000000000E+00  0.44811312574E+03  0.44811312574E+03  0.00000000000E+00 0.  1.
         21   -1    0    0  501  502 -0.00000000000E+00 -0.00000000000E+00 -0.11691441947E+03  0.11691441947E+03  0.00000000000E+00 0.  1.
      99926    2    1    2    0    0  0.00000000000E+00  0.00000000000E+00  0.33119870627E+03  0.56502754521E+03  0.45778110906E+03 0.  0.
      99925    2    3    3    0    0 -0.79699200672E+02 -0.82276043722E+02  0.22372971777E+03  0.36423311912E+03  0.26360855164E+03 0.  0.
         25    1    4    4    0    0 -0.51940779608E+01 -0.63393722928E+02  0.10142699495E+03  0.17314931694E+03  0.12509000000E+03 0.  0.
         25    1    4    4    0    0 -0.74505122712E+02 -0.18882320794E+02  0.12230272282E+03  0.19108380219E+03  0.12509000000E+03 0.  0.
         25    1    3    3    0    0  0.79699200672E+02  0.82276043722E+02  0.10746898850E+03  0.20079442609E+03  0.12509000000E+03 0.  0.
<mgrwt>
<rscale>  2 0.45778111E+03</rscale>
<asrwt>0</asrwt>
<pdfrwt beam="1">  1       21 0.65898988E-01 0.45778111E+03</pdfrwt>
<pdfrwt beam="2">  1       21 0.17193297E-01 0.45778111E+03</pdfrwt>
<totfact> 0.59563289E+04</totfact>
</mgrwt>
</event>
<event>
 7    0  0.4714446E-002  0.4550225E+03  0.7546771E-02  0.1026235E+00
         21   -1    0    0  502  501  0.00000000000E+00  0.00000000000E+00  0.42181940492E+03  0.42181940492E+03  0.00000000000E+00 0.  1.
         21   -1    0    0  501  502 -0.00000000000E+00 -0.00000000000E+00 -0.12270977276E+03  0.12270977276E+03  0.00000000000E+00 0.  1.
      99926    2    1    2    0    0  0.00000000000E+00  0.00000000000E+00  0.29910963216E+03  0.54452917768E+03  0.45502247559E+03 0.  0.
      99925    2    3    3    0    0 -0.10644532945E+03 -0.35499089780E+02  0.17058198628E+03  0.33296912145E+03  0.26301982484E+03 0.  0.
         25    1    4    4    0    0 -0.62036043072E+02 -0.57939546597E+02  0.95788014387E+02  0.17896455934E+03  0.12509000000E+03 0.  0.
         25    1    4    4    0    0 -0.44409286380E+02  0.22440456816E+02  0.74793971894E+02  0.15400456211E+03  0.12509000000E+03 0.  0.
         25    1    3    3    0    0  0.10644532945E+03  0.35499089780E+02  0.12852764588E+03  0.21156005623E+03  0.12509000000E+03 0.  0.
<mgrwt>
<rscale>  2 0.45502248E+03</rscale>
<asrwt>0</asrwt>
<pdfrwt beam="1">  1       21 0.62032265E-01 0.45502248E+03</pdfrwt>
<pdfrwt beam="2">  1       21 0.18045555E-01 0.45502248E+03</pdfrwt>
<totfact> 0.62218417E+04</totfact>
</mgrwt>
</event>
<event>
 7    0  0.4714446E-002  0.4534051E+03  0.7546771E-02  0.1026711E+00
         21   -1    0    0  502  501  0.00000000000E+00  0.00000000000E+00  0.33145402277E+02  0.33145402277E+02  0.00000000000E+00 0. -1.
         21   -1    0    0  501  502 -0.00000000000E+00 -0.00000000000E+00 -0.15505635252E+04  0.15505635252E+04  0.00000000000E+00 0. -1.
      99926    2    1    2    0    0  0.00000000000E+00  0.00000000000E+00 -0.15174181229E+04  0.15837089275E+04  0.45340512480E+03 0.  0.
      99925    2    3    3    0    0  0.92724209373E+02  0.35876098116E+02 -0.77916761606E+03  0.82836384581E+03  0.26305819452E+03 0.  0.
         25    1    3    3    0    0 -0.92724209373E+02 -0.35876098116E+02 -0.73825050686E+03  0.75534508167E+03  0.12509000000E+03 0.  0.
         25    1    4    4    0    0  0.31062716869E+02  0.88476323345E+01 -0.48158757067E+03  0.49861535205E+03  0.12509000000E+03 0.  0.
         25    1    4    4    0    0  0.61661492504E+02  0.27028465782E+02 -0.29758004539E+03  0.32974849376E+03  0.12509000000E+03 0.  0.
<mgrwt>
<rscale>  2 0.45340512E+03</rscale>
<asrwt>0</asrwt>
<pdfrwt beam="1">  1       21 0.48743233E-02 0.45340512E+03</pdfrwt>
<pdfrwt beam="2">  1       21 0.22802407E+00 0.45340512E+03</pdfrwt>
<totfact> 0.22072138E+04</totfact>
</mgrwt>
</event>
<event>
 7    0  0.4714446E-002  0.4601217E+03  0.7546771E-02  0.1024746E+00
         21   -1    0    0  502  501  0.00000000000E+00  0.00000000000E+00  0.23736715337E+03  0.23736715337E+03  0.00000000000E+00 0.  1.
         21   -1    0    0  501  502 -0.00000000000E+00 -0.00000000000E+00 -0.22297944026E+03  0.22297944026E+03  0.00000000000E+00 0.  1.
      99926    2    1    2    0    0  0.00000000000E+00  0.00000000000E+00  0.14387713106E+02  0.46034659364E+03  0.46012170127E+03 0.  0.
      99925    2    3    3    0    0 -0.10969357880E+03 -0.27706306179E+02 -0.23848312130E+02  0.28740202923E+03  0.26311758547E+03 0.  0.
         25    1    4    4    0    0 -0.58477160763E+02 -0.52694144725E+02 -0.25238756466E+02  0.14993583343E+03  0.12509000000E+03 0.  0.
         25    1    3    3    0    0  0.10969357880E+03  0.27706306179E+02  0.38236025237E+02  0.17294456441E+03  0.12509000000E+03 0.  0.
         25    1    4    4    0    0 -0.51216418034E+02  0.24987838546E+02  0.13904443352E+01  0.13746619580E+03  0.12509000000E+03 0.  0.
<mgrwt>
<rscale>  2 0.46012170E+03</rscale>
<asrwt>0</asrwt>
<pdfrwt beam="1">  1       21 0.34906935E-01 0.46012170E+03</pdfrwt>
<pdfrwt beam="2">  1       21 0.32791094E-01 0.46012170E+03</pdfrwt>
<totfact> 0.65440446E+04</totfact>
</mgrwt>
</event>
<event>
 7    0  0.4714446E-002  0.4582795E+03  0.7546771E-02  0.1025281E+00
         21   -1    0    0  502  501  0.00000000000E+00  0.00000000000E+00  0.44982425031E+02  0.44982425031E+02  0.00000000000E+00 0.  1.
         21   -1    0    0  501  502 -0.00000000000E+00 -0.00000000000E+00 -0.11672340322E+04  0.11672340322E+04  0.00000000000E+00 0.  1.
      99926    2    1    2    0    0  0.35527136788E-14  0.00000000000E+00 -0.11222516072E+04  0.12122164573E+04  0.45827946648E+03 0.  0.
      99925    2    3    3    0    0 -0.21687981657E+02  0.45397938987E+02 -0.98127961748E+03  0.10171473634E+04  0.26295955904E+03 0.  0.
         25    1    3    3    0    0  0.21687981657E+02 -0.45397938987E+02 -0.14097198973E+03  0.19506909391E+03  0.12509000000E+03 0.  0.
         25    1    4    4    0    0  0.14223220367E+02  0.85321174196E+01 -0.58384599027E+03  0.59732633081E+03  0.12509000000E+03 0.  0.
         25    1    4    4    0    0 -0.35911202024E+02  0.36865821568E+02 -0.39743362722E+03  0.41982103255E+03  0.12509000000E+03 0.  0.
<mgrwt>
<rscale>  2 0.45827947E+03</rscale>
<asrwt>0</asrwt>
<pdfrwt beam="1">  1       21 0.66150626E-02 0.45827947E+03</pdfrwt>
<pdfrwt beam="2">  1       21 0.17165206E+00 0.45827947E+03</pdfrwt>
<totfact> 0.30972387E+04</totfact>
</mgrwt>
</event>
<event>
 7    0  0.4714446E-002  0.4520684E+03  0.7546771E-02  0.1027107E+00
         21   -1    0    0  502  501  0.00000000000E+00  0.00000000000E+00  0.81047391029E+03  0.81047391029E+03  0.00000000000E+00 0.  1.
         21   -1    0    0  501  502 -0.00000000000E+00 -0.00000000000E+00 -0.63038983444E+02  0.63038983444E+02  0.00000000000E+00 0.  1.
      99926    2    1    2    0    0 -0.14210854715E-13  0.00000000000E+00  0.74743492685E+03  0.87351289374E+03  0.45206836391E+03 0.  0.
      99925    2    3    3    0    0  0.61555334474E+02  0.36854583197E+02  0.30870438896E+03  0.41169116138E+03  0.26276204651E+03 0.  0.
         25    1    4    4    0    0  0.64308197812E+02  0.26032399571E+01  0.13575515593E+03  0.19549754890E+03  0.12509000000E+03 0.  0.
         25    1    3    3    0    0 -0.61555334474E+02 -0.36854583197E+02  0.43873053789E+03  0.46182173236E+03  0.12509000000E+03 0.  0.
         25    1    4    4    0    0 -0.27528633387E+01  0.34251343240E+02  0.17294923303E+03  0.21619361248E+03  0.12509000000E+03 0.  0.
<mgrwt>
<rscale>  2 0.45206836E+03</rscale>
<asrwt>0</asrwt>
<pdfrwt beam="1">  1       21 0.11918733E+00 0.45206836E+03</pdfrwt>
<pdfrwt beam="2">  1       21 0.92704392E-02 0.45206836E+03</pdfrwt>
<totfact> 0.45433063E+04</totfact>
</mgrwt>
</event>
<event>
 7    0  0.4714446E-002  0.4564979E+03  0.7546771E-02  0.1025802E+00
         21   -1    0    0  502  501  0.00000000000E+00  0.00000000000E+00  0.11392991129E+03  0.11392991129E+03  0.00000000000E+00 0.  1.
         21   -1    0    0  501  502 -0.00000000000E+00 -0.00000000000E+00 -0.45727746586E+03  0.45727746586E+03  0.00000000000E+00 0.  1.
      99926    2    1    2    0    0  0.71054273576E-14  0.71054273576E-14 -0.34334755457E+03  0.57120737715E+03  0.45649789099E+03 0.  0.
      99925    2    3    3    0    0 -0.57643677962E+02 -0.51618801837E+02 -0.11028305415E+03  0.29561009166E+03  0.26312673742E+03 0.  0.
         25    1    4    4    0    0 -0.65492906741E+02 -0.15084526327E+02 -0.40942156913E+02  0.14778576413E+03  0.12509000000E+03 0.  0.
         25    1    3    3    0    0  0.57643677962E+02  0.51618801837E+02 -0.23306450042E+03  0.27559728549E+03  0.12509000000E+03 0.  0.
         25    1    4    4    0    0  0.78492287792E+01 -0.36534275510E+02 -0.69340897235E+02  0.14782432753E+03  0.12509000000E+03 0.  0.
<mgrwt>
<rscale>  2 0.45649789E+03</rscale>
<asrwt>0</asrwt>
<pdfrwt beam="1">  1       21 0.16754398E-01 0.45649789E+03</pdfrwt>
<pdfrwt beam="2">  1       21 0.67246688E-01 0.45649789E+03</pdfrwt>
<totfact> 0.59775305E+04</totfact>
</mgrwt>
</event>
<event>
 7    0  0.4714446E-002  0.4578813E+03  0.7546771E-02  0.1025397E+00
         21   -1    0    0  502  501  0.00000000000E+00  0.00000000000E+00  0.49813962521E+02  0.49813962521E+02  0.00000000000E+00 0.  1.
         21   -1    0    0  501  502 -0.00000000000E+00 -0.00000000000E+00 -0.10521913866E+04  0.10521913866E+04  0.00000000000E+00 0.  1.
      99926    2    1    2    0    0  0.00000000000E+00  0.35527136788E-14 -0.10023774241E+04  0.11020053491E+04  0.45788130469E+03 0.  0.
      99925    2    3    3    0    0 -0.96129561470E+02 -0.96161954301E+01 -0.78384894097E+03  0.83231002133E+03  0.26265461263E+03 0.  0.
         25    1    4    4    0    0 -0.46621379484E+02  0.35198640847E+02 -0.38810993966E+03  0.41193364842E+03  0.12509000000E+03 0.  0.
         25    1    3    3    0    0  0.96129561470E+02  0.96161954301E+01 -0.21852848309E+03  0.26969532777E+03  0.12509000000E+03 0.  0.
         25    1    4    4    0    0 -0.49508181986E+02 -0.44814836277E+02 -0.39573900132E+03  0.42037637291E+03  0.12509000000E+03 0.  0.
<mgrwt>
<rscale>  2 0.45788130E+03</rscale>
<asrwt>0</asrwt>
<pdfrwt beam="1">  1       21 0.73255824E-02 0.45788130E+03</pdfrwt>
<pdfrwt beam="2">  1       21 0.15473403E+00 0.45788130E+03</pdfrwt>
<totfact> 0.34639596E+04</totfact>
</mgrwt>
</event>
<event>
 7    0  0.4714446E-002  0.4654335E+03  0.7546771E-02  0.1023217E+00
         21   -1    0    0  502  501  0.00000000000E+00  0.00000000000E+00  0.69034234159E+02  0.69034234159E+02  0.00000000000E+00 0. -1.
         21   -1    0    0  501  502 -0.00000000000E+00 -0.00000000000E+00 -0.78449593539E+03  0.78449593539E+03  0.00000000000E+00 0. -1.
      99926    2    1    2    0    0  0.00000000000E+00  0.35527136788E-14 -0.71546170123E+03  0.85353016955E+03  0.46543345862E+03 0.  0.
      99925    2    3    3    0    0 -0.71504746990E+02  0.25188601753E+02 -0.62308719621E+03  0.68053319912E+03  0.26294559613E+03 0.  0.
         25    1    4    4    0    0 -0.64974170922E+02  0.38793691987E+02 -0.36943065259E+03  0.39730732260E+03  0.12509000000E+03 0.  0.
         25    1    3    3    0    0  0.71504746990E+02 -0.25188601753E+02 -0.92374505025E+02  0.17299697043E+03  0.12509000000E+03 0.  0.
         25    1    4    4    0    0 -0.65305760683E+01 -0.13605090234E+02 -0.25365654362E+03  0.28322587651E+03  0.12509000000E+03 0.  0.
<mgrwt>
<rscale>  2 0.46543346E+03</rscale>
<asrwt>0</asrwt>
<pdfrwt beam="1">  1       21 0.10152093E-01 0.46543346E+03</pdfrwt>
<pdfrwt beam="2">  1       21 0.11536705E+00 0.46543346E+03</pdfrwt>
<totfact> 0.41757841E+04</totfact>
</mgrwt>
</event>
<event>
 7    0  0.4714446E-002  0.4644079E+03  0.7546771E-02  0.1023511E+00
         21   -1    0    0  502  501  0.00000000000E+00  0.00000000000E+00  0.15865968985E+03  0.15865968985E+03  0.00000000000E+00 0.  1.
         21   -1    0    0  501  502 -0.00000000000E+00 -0.00000000000E+00 -0.33983856674E+03  0.33983856674E+03  0.00000000000E+00 0.  1.
      99926    2    1    2    0    0  0.00000000000E+00 -0.14210854715E-13 -0.18117887689E+03  0.49849825659E+03  0.46440793101E+03 0.  0.
      99925    2    3    3    0    0 -0.63765597742E+02 -0.10112214004E+03 -0.88360595842E+02  0.30214530892E+03  0.26304458584E+03 0.  0.
         25    1    4    4    0    0  0.74622839327E+01 -0.47144635959E+02 -0.55515975072E+02  0.14494079470E+03  0.12509000000E+03 0.  0.
         25    1    3    3    0    0  0.63765597742E+02  0.10112214004E+03 -0.92818281051E+02  0.19635294767E+03  0.12509000000E+03 0.  0.
         25    1    4    4    0    0 -0.71227881675E+02 -0.53977504084E+02 -0.32844620770E+02  0.15720451421E+03  0.12509000000E+03 0.  0.
<mgrwt>
<rscale>  2 0.46440793E+03</rscale>
<asrwt>0</asrwt>
<pdfrwt beam="1">  1       21 0.23332307E-01 0.46440793E+03</pdfrwt>
<pdfrwt beam="2">  1       21 0.49976260E-01 0.46440793E+03</pdfrwt>
<totfact> 0.60713580E+04</totfact>
</mgrwt>
</event>
<event>
 7    0  0.4714446E-002  0.4541844E+03  0.7546771E-02  0.1026482E+00
         21   -1    0    0  502  501  0.00000000000E+00  0.00000000000E+00  0.29804220298E+02  0.29804220298E+02  0.00000000000E+00 0. -1.
         21   -1    0    0  501  502 -0.00000000000E+00 -0.00000000000E+00 -0.17303210002E+04  0.17303210002E+04  0.00000000000E+00 0. -1.
      99926    2    1    2    0    0  0.00000000000E+00 -0.17763568394E-14 -0.17005167799E+04  0.17601252205E+04  0.45418440429E+03 0.  0.
      99925    2    3    3    0    0 -0.11037832496E+03  0.99561534050E+01 -0.99823608276E+03  0.10382331335E+04  0.26300240100E+03 0.  0.
         25    1    3    3    0    0  0.11037832496E+03 -0.99561534050E+01 -0.70228069711E+03  0.72189208698E+03  0.12509000000E+03 0.  0.
         25    1    4    4    0    0 -0.88978126855E+02 -0.28624716513E+01 -0.63339071057E+03  0.65173353538E+03  0.12509000000E+03 0.  0.
         25    1    4    4    0    0 -0.21400198105E+02  0.12818625056E+02 -0.36484537219E+03  0.38649959811E+03  0.12509000000E+03 0.  0.
<mgrwt>
<rscale>  2 0.45418440E+03</rscale>
<asrwt>0</asrwt>
<pdfrwt beam="1">  1       21 0.43829734E-02 0.45418440E+03</pdfrwt>
<pdfrwt beam="2">  1       21 0.25445898E+00 0.45418440E+03</pdfrwt>
<totfact> 0.18153044E+04</totfact>
</mgrwt>
</event>
<event>
 7    0  0.4714446E-002  0.4558167E+03  0.7546771E-02  0.1026002E+00
         21   -1    0    0  502  501  0.00000000000E+00  0.00000000000E+00  0.79466656264E+03  0.79466656264E+03  0.00000000000E+00 0. -1.
         21   -1    0    0  501  502 -0.00000000000E+00 -0.00000000000E+00 -0.65363534614E+02  0.65363534614E+02  0.00000000000E+00 0. -1.
      99926    2    1    2    0    0  0.00000000000E+00  0.00000000000E+00  0.72930302803E+03  0.86003009726E+03  0.45581669725E+03 0.  0.
      99925    2    3    3    0    0  0.84331871620E+02  0.47706061361E+02  0.34720442979E+03  0.44646682551E+03  0.26342736637E+03 0.  0.
         25    1    3    3    0    0 -0.84331871620E+02 -0.47706061361E+02  0.38209859824E+03  0.41356327174E+03  0.12509000000E+03 0.  0.
         25    1    4    4    0    0  0.23167816063E+02  0.35905245919E+02  0.11378545426E+03  0.17441494227E+03  0.12509000000E+03 0.  0.
         25    1    4    4    0    0  0.61164055557E+02  0.11800815442E+02  0.23341897553E+03  0.27205188324E+03  0.12509000000E+03 0.  0.
<mgrwt>
<rscale>  2 0.45581670E+03</rscale>
<asrwt>0</asrwt>
<pdfrwt beam="1">  1       21 0.11686272E+00 0.45581670E+03</pdfrwt>
<pdfrwt beam="2">  1       21 0.96122850E-02 0.45581670E+03</pdfrwt>
<totfact> 0.44706874E+04</totfact>
</mgrwt>
</event>
<event>
 7    0  0.4714446E-002  0.4505040E+03  0.7546771E-02  0.1027572E+00
         21   -1    0    0  502  501  0.00000000000E+00  0.00000000000E+00  0.50379594434E+02  0.50379594434E+02  0.00000000000E+00 0.  1.
         21   -1    0    0  501  502 -0.00000000000E+00 -0.00000000000E+00 -0.10071234190E+04  0.10071234190E+04  0.00000000000E+00 0.  1.
      99926    2    1    2    0    0  0.71054273576E-14  0.00000000000E+00 -0.95674382459E+03  0.10575030135E+04  0.45050402616E+03 0.  0.
      99925    2    3    3    0    0  0.63424972598E+02  0.81778627219E+02 -0.52477063910E+03  0.59602840733E+03  0.26297370147E+03 0.  0.
         25    1    3    3    0    0 -0.63424972598E+02 -0.81778627219E+02 -0.43197318548E+03  0.46147460612E+03  0.12509000000E+03 0.  0.
         25    1    4    4    0    0  0.11795951534E+02  0.66751243574E+02 -0.21697686072E+03  0.25946356041E+03  0.12509000000E+03 0.  0.
         25    1    4    4    0    0  0.51629021065E+02  0.15027383645E+02 -0.30779377838E+03  0.33656484692E+03  0.12509000000E+03 0.  0.
<mgrwt>
<rscale>  2 0.45050403E+03</rscale>
<asrwt>0</asrwt>
<pdfrwt beam="1">  1       21 0.74087639E-02 0.45050403E+03</pdfrwt>
<pdfrwt beam="2">  1       21 0.14810639E+00 0.45050403E+03</pdfrwt>
<totfact> 0.38330713E+04</totfact>
</mgrwt>
</event>
<event>
 7    0  0.4714446E-002  0.4541688E+03  0.7546771E-02  0.1026486E+00
         21   -1    0    0  502  501  0.00000000000E+00  0.00000000000E+00  0.35368028717E+02  0.35368028717E+02  0.00000000000E+00 0.  1.
         21   -1    0    0  501  502 -0.00000000000E+00 -0.00000000000E+00 -0.14580210292E+04  0.14580210292E+04  0.00000000000E+00 0.  1.
      99926    2    1    2    0    0  0.00000000000E+00  0.00000000000E+00 -0.14226530005E+04  0.14933890579E+04  0.45416882161E+03 0.  0.
      99925    2    3    3    0    0  0.84412845497E+02  0.49755732884E+02 -0.10770031913E+04  0.11129650049E+04  0.26297160793E+03 0.  0.
         25    1    4    4    0    0  0.75295271405E+02  0.51495525205E+02 -0.56596226561E+03  0.58675545264E+03  0.12509000000E+03 0.  0.
         25    1    3    3    0    0 -0.84412845497E+02 -0.49755732884E+02 -0.34564980917E+03  0.38042405303E+03  0.12509000000E+03 0.  0.
         25    1    4    4    0    0  0.91175740922E+01 -0.17397923207E+01 -0.51104092569E+03  0.52620955223E+03  0.12509000000E+03 0.  0.
<mgrwt>
<rscale>  2 0.45416882E+03</rscale>
<asrwt>0</asrwt>
<pdfrwt beam="1">  1       21 0.52011800E-02 0.45416882E+03</pdfrwt>
<pdfrwt beam="2">  1       21 0.21441489E+00 0.45416882E+03</pdfrwt>
<totfact> 0.24096805E+04</totfact>
</mgrwt>
</event>
<event>
 7    0  0.4714446E-002  0.4543336E+03  0.7546771E-02  0.1026438E+00
         21   -1    0    0  502  501  0.00000000000E+00  0.00000000000E+00  0.16580722837E+03  0.16580722837E+03  0.00000000000E+00 0. -1.
         21   -1    0    0  501  502 -0.00000000000E+00 -0.00000000000E+00 -0.31123349485E+03  0.31123349485E+03  0.00000000000E+00 0. -1.
      99926    2    1    2    0    0  0.00000000000E+00  0.00000000000E+00 -0.14542626648E+03  0.47704072321E+03  0.45433363580E+03 0.  0.
      99925    2    3    3    0    0 -0.81460231115E+02  0.22187807335E+02 -0.13588191463E+02  0.27664897146E+03  0.26310063932E+03 0.  0.
         25    1    4    4    0    0 -0.40916735577E+02  0.51730605938E+02 -0.11158993226E+02  0.14185297343E+03  0.12509000000E+03 0.  0.
         25    1    3    3    0    0  0.81460231115E+02 -0.22187807335E+02 -0.13183807502E+03  0.20039175176E+03  0.12509000000E+03 0.  0.
         25    1    4    4    0    0 -0.40543495538E+02 -0.29542798603E+02 -0.24291982374E+01  0.13479599803E+03  0.12509000000E+03 0.  0.
<mgrwt>
<rscale>  2 0.45433364E+03</rscale>
<asrwt>0</asrwt>
<pdfrwt beam="1">  1       21 0.24383416E-01 0.45433364E+03</pdfrwt>
<pdfrwt beam="2">  1       21 0.45769632E-01 0.45433364E+03</pdfrwt>
<totfact> 0.67271223E+04</totfact>
</mgrwt>
</event>
<event>
 7    0  0.4714446E-002  0.4554553E+03  0.7546771E-02  0.1026108E+00
         21   -1    0    0  502  501  0.00000000000E+00  0.00000000000E+00  0.55531839318E+03  0.55531839318E+03  0.00000000000E+00 0.  1.
         21   -1    0    0  501  502 -0.00000000000E+00 -0.00000000000E+00 -0.93387647101E+02  0.93387647101E+02  0.00000000000E+00 0.  1.
      99926    2    1    2    0    0  0.00000000000E+00 -0.14210854715E-13  0.46193074608E+03  0.64870604028E+03  0.45545528049E+03 0.  0.
      99925    2    3    3    0    0 -0.48627522906E+02 -0.99261659296E+02  0.25331730268E+03  0.38152709303E+03  0.26301283977E+03 0.  0.
         25    1    4    4    0    0  0.27809271750E+01 -0.21544020861E+02  0.89568719731E+02  0.15537677447E+03  0.12509000000E+03 0.  0.
         25    1    3    3    0    0  0.48627522906E+02  0.99261659296E+02  0.20861344339E+03  0.26717894725E+03  0.12509000000E+03 0.  0.
         25    1    4    4    0    0 -0.51408450081E+02 -0.77717638435E+02  0.16374858295E+03  0.22615031856E+03  0.12509000000E+03 0.  0.
<mgrwt>
<rscale>  2 0.45545528E+03</rscale>
<asrwt>0</asrwt>
<pdfrwt beam="1">  1       21 0.81664468E-01 0.45545528E+03</pdfrwt>
<pdfrwt beam="2">  1       21 0.13733478E-01 0.45545528E+03</pdfrwt>
<totfact> 0.55576206E+04</totfact>
</mgrwt>
</event>
<event>
 7    0  0.4714446E-002  0.4126923E+03  0.7546771E-02  0.1039471E+00
         21   -1    0    0  502  501  0.00000000000E+00  0.00000000000E+00  0.74803877098E+02  0.74803877098E+02  0.00000000000E+00 0.  1.
         21   -1    0    0  501  502 -0.00000000000E+00 -0.00000000000E+00 -0.56920482320E+03  0.56920482320E+03  0.00000000000E+00 0.  1.
      99926    2    1    2    0    0 -0.26645352591E-14  0.71054273576E-14 -0.49440094610E+03  0.64400870030E+03  0.41269227101E+03 0.  0.
      99925    2    3    3    0    0 -0.68684542476E+01  0.56700673042E+02 -0.37695986222E+03  0.46317159606E+03  0.26299628834E+03 0.  0.
         25    1    3    3    0    0  0.68684542476E+01 -0.56700673042E+02 -0.11744108388E+03  0.18083710424E+03  0.12509000000E+03 0.  0.
         25    1    4    4    0    0 -0.31167306242E+02  0.47381496916E+02 -0.15527279537E+03  0.20730064233E+03  0.12509000000E+03 0.  0.
         25    1    4    4    0    0  0.24298851994E+02  0.93191761264E+01 -0.22168706685E+03  0.25587095373E+03  0.12509000000E+03 0.  0.
<mgrwt>
<rscale>  2 0.41269227E+03</rscale>
<asrwt>0</asrwt>
<pdfrwt beam="1">  1       21 0.11000570E-01 0.41269227E+03</pdfrwt>
<pdfrwt beam="2">  1       21 0.83706590E-01 0.41269227E+03</pdfrwt>
<totfact> 0.79400454E+04</totfact>
</mgrwt>
</event>
<event>
 7    0  0.4714446E-002  0.4559180E+03  0.7546771E-02  0.1025972E+00
         21   -1    0    0  502  501  0.00000000000E+00  0.00000000000E+00  0.23204473984E+04  0.23204473984E+04  0.00000000000E+00 0.  1.
         21   -1    0    0  501  502 -0.00000000000E+00 -0.00000000000E+00 -0.22394521033E+02  0.22394521033E+02  0.00000000000E+00 0.  1.
      99926    2    1    2    0    0  0.00000000000E+00  0.00000000000E+00  0.22980528774E+04  0.23428419194E+04  0.45591801048E+03 0.  0.
      99925    2    3    3    0    0 -0.66041638491E+02 -0.91740064555E+02  0.15202822506E+04  0.15470075187E+04  0.26305209353E+03 0.  0.
         25    1    4    4    0    0 -0.23508571569E+02 -0.13950837951E+02  0.83678912599E+03  0.84652869313E+03  0.12509000000E+03 0.  0.
         25    1    3    3    0    0  0.66041638491E+02  0.91740064555E+02  0.77777062676E+03  0.79583440074E+03  0.12509000000E+03 0.  0.
         25    1    4    4    0    0 -0.42533066922E+02 -0.77789226604E+02  0.68349312463E+03  0.70047882557E+03  0.12509000000E+03 0.  0.
<mgrwt>
<rscale>  2 0.45591801E+03</rscale>
<asrwt>0</asrwt>
<pdfrwt beam="1">  1       21 0.34124210E+00 0.45591801E+03</pdfrwt>
<pdfrwt beam="2">  1       21 0.32933135E-02 0.45591801E+03</pdfrwt>
<totfact> 0.88135077E+03</totfact>
</mgrwt>
</event>
<event>
 7    0  0.4714446E-002  0.4462913E+03  0.7546771E-02  0.1028834E+00
         21   -1    0    0  502  501  0.00000000000E+00  0.00000000000E+00  0.65237967869E+03  0.65237967869E+03  0.00000000000E+00 0.  1.
         21   -1    0    0  501  502 -0.00000000000E+00 -0.00000000000E+00 -0.76326695692E+02  0.76326695692E+02  0.00000000000E+00 0.  1.
      99926    2    1    2    0    0  0.00000000000E+00  0.00000000000E+00  0.57605298300E+03  0.72870637438E+03  0.44629131836E+03 0.  0.
      99925    2    3    3    0    0  0.92924570931E+02  0.49073700993E+02  0.36326181495E+03  0.46043264605E+03  0.26267065184E+03 0.  0.
         25    1    4    4    0    0  0.22529830706E+02 -0.99766884122E+01  0.17265493319E+03  0.21462609729E+03  0.12509000000E+03 0.  0.
         25    1    3    3    0    0 -0.92924570931E+02 -0.49073700993E+02  0.21279116805E+03  0.26827372833E+03  0.12509000000E+03 0.  0.
         25    1    4    4    0    0  0.70394740225E+02  0.59050389406E+02  0.19060688175E+03  0.24580654876E+03  0.12509000000E+03 0.  0.
<mgrwt>
<rscale>  2 0.44629132E+03</rscale>
<asrwt>0</asrwt>
<pdfrwt beam="1">  1       21 0.95938185E-01 0.44629132E+03</pdfrwt>
<pdfrwt beam="2">  1       21 0.11224514E-01 0.44629132E+03</pdfrwt>
<totfact> 0.55045915E+04</totfact>
</mgrwt>
</event>
<event>
 7    0  0.4714446E-002  0.4418961E+03  0.7546771E-02  0.1030167E+00
         21   -1    0    0  502  501  0.00000000000E+00  0.00000000000E+00  0.72621224416E+03  0.72621224416E+03  0.00000000000E+00 0. -1.
         21   -1    0    0  501  502 -0.00000000000E+00 -0.00000000000E+00 -0.67222823789E+02  0.67222823789E+02  0.00000000000E+00 0. -1.
      99926    2    1    2    0    0  0.71054273576E-14 -0.17763568394E-14  0.65898942037E+03  0.79343506795E+03  0.44189608608E+03 0.  0.
      99925    2    3    3    0    0  0.61335123852E+02  0.14542322693E+02  0.28002143728E+03  0.38940819152E+03  0.26316013703E+03 0.  0.
         25    1    3    3    0    0 -0.61335123852E+02 -0.14542322693E+02  0.37896798309E+03  0.40402687642E+03  0.12509000000E+03 0.  0.
         25    1    4    4    0    0  0.16943574544E+02 -0.24597697007E+02  0.16671415668E+03  0.21055462368E+03  0.12509000000E+03 0.  0.
         25    1    4    4    0    0  0.44391549308E+02  0.39140019700E+02  0.11330728060E+03  0.17885356784E+03  0.12509000000E+03 0.  0.
<mgrwt>
<rscale>  2 0.44189609E+03</rscale>
<asrwt>0</asrwt>
<pdfrwt beam="1">  1       21 0.10679591E+00 0.44189609E+03</pdfrwt>
<pdfrwt beam="2">  1       21 0.98857098E-02 0.44189609E+03</pdfrwt>
<totfact> 0.53364153E+04</totfact>
</mgrwt>
</event>
<event>
 7    0  0.4714446E-002  0.4582596E+03  0.7546771E-02  0.1025287E+00
         21   -1    0    0  502  501  0.00000000000E+00  0.00000000000E+00  0.14425950446E+03  0.14425950446E+03  0.00000000000E+00 0. -1.
         21   -1    0    0  501  502 -0.00000000000E+00 -0.00000000000E+00 -0.36393074154E+03  0.36393074154E+03  0.00000000000E+00 0. -1.
      99926    2    1    2    0    0  0.00000000000E+00  0.00000000000E+00 -0.21967123708E+03  0.50819024600E+03  0.45825961390E+03 0.  0.
      99925    2    3    3    0    0 -0.64226676629E+02  0.47213488032E+02 -0.23161493256E+03  0.35938050370E+03  0.26297279329E+03 0.  0.
         25    1    4    4    0    0 -0.91659950458E+01  0.32683607233E+02 -0.15491276509E+03  0.20198442152E+03  0.12509000000E+03 0.  0.
         25    1    3    3    0    0  0.64226676629E+02 -0.47213488032E+02  0.11943695477E+02  0.14880974230E+03  0.12509000000E+03 0.  0.
         25    1    4    4    0    0 -0.55060681584E+02  0.14529880799E+02 -0.76702167464E+02  0.15739608218E+03  0.12509000000E+03 0.  0.
<mgrwt>
<rscale>  2 0.45825961E+03</rscale>
<asrwt>0</asrwt>
<pdfrwt beam="1">  1       21 0.21214633E-01 0.45825961E+03</pdfrwt>
<pdfrwt beam="2">  1       21 0.53519226E-01 0.45825961E+03</pdfrwt>
<totfact> 0.63051900E+04</totfact>
</mgrwt>
</event>
<event>
 7    0  0.4714446E-002  0.4517932E+03  0.7546771E-02  0.1027189E+00
         21   -1    0    0  502  501  0.00000000000E+00  0.00000000000E+00  0.32895398205E+02  0.32895398205E+02  0.00000000000E+00 0.  1.
         21   -1    0    0  501  502 -0.00000000000E+00 -0.00000000000E+00 -0.15512587885E+04  0.15512587885E+04  0.00000000000E+00 0.  1.
      99926    2    1    2    0    0  0.00000000000E+00  0.71054273576E-14 -0.15183633903E+04  0.15841541867E+04  0.45179320741E+03 0.  0.
      99925    2    3    3    0    0 -0.41991914797E+02 -0.57011502823E+02 -0.12552886265E+04  0.12843718126E+04  0.26238861424E+03 0.  0.
         25    1    4    4    0    0 -0.32715082510E+02 -0.55564927050E+02 -0.53272009128E+03  0.55099540969E+03  0.12509000000E+03 0.  0.
         25    1    4    4    0    0 -0.92768322874E+01 -0.14465757726E+01 -0.72256853520E+03  0.73337640292E+03  0.12509000000E+03 0.  0.
         25    1    3    3    0    0  0.41991914797E+02  0.57011502823E+02 -0.26307476380E+03  0.29978237408E+03  0.12509000000E+03 0.  0.
<mgrwt>
<rscale>  2 0.45179321E+03</rscale>
<asrwt>0</asrwt>
<pdfrwt beam="1">  1       21 0.48375567E-02 0.45179321E+03</pdfrwt>
<pdfrwt beam="2">  1       21 0.22812638E+00 0.45179321E+03</pdfrwt>
<totfact> 0.22341075E+04</totfact>
</mgrwt>
</event>
<event>
 7    0  0.4714446E-002  0.4645805E+03  0.7546771E-02  0.1023461E+00
         21   -1    0    0  502  501  0.00000000000E+00  0.00000000000E+00  0.68668826873E+02  0.68668826873E+02  0.00000000000E+00 0. -1.
         21   -1    0    0  501  502 -0.00000000000E+00 -0.00000000000E+00 -0.78578248103E+03  0.78578248103E+03  0.00000000000E+00 0. -1.
      99926    2    1    2    0    0 -0.71054273576E-14  0.00000000000E+00 -0.71711365416E+03  0.85445130790E+03  0.46458050389E+03 0.  0.
      99925    2    3    3    0    0  0.57016138777E+02 -0.43747233367E+02 -0.62884690772E+03  0.68532653995E+03  0.26279150005E+03 0.  0.
         25    1    4    4    0    0  0.66038472740E+02 -0.36423441588E+02 -0.36322051885E+03  0.39148997483E+03  0.12509000000E+03 0.  0.
         25    1    3    3    0    0 -0.57016138777E+02  0.43747233367E+02 -0.88266746432E+02  0.16912476795E+03  0.12509000000E+03 0.  0.
         25    1    4    4    0    0 -0.90223339631E+01 -0.73237917783E+01 -0.26562638888E+03  0.29383656513E+03  0.12509000000E+03 0.  0.
<mgrwt>
<rscale>  2 0.46458050E+03</rscale>
<asrwt>0</asrwt>
<pdfrwt beam="1">  1       21 0.10098356E-01 0.46458050E+03</pdfrwt>
<pdfrwt beam="2">  1       21 0.11555625E+00 0.46458050E+03</pdfrwt>
<totfact> 0.41994784E+04</totfact>
</mgrwt>
</event>
<event>
 7    0  0.4714446E-002  0.4531966E+03  0.7546771E-02  0.1026773E+00
         21   -1    0    0  502  501  0.00000000000E+00  0.00000000000E+00  0.55492108979E+02  0.55492108979E+02  0.00000000000E+00 0.  1.
         21   -1    0    0  501  502 -0.00000000000E+00 -0.00000000000E+00 -0.92529903208E+03  0.92529903208E+03  0.00000000000E+00 0.  1.
      99926    2    1    2    0    0  0.00000000000E+00  0.00000000000E+00 -0.86980692310E+03  0.98079114106E+03  0.45319662279E+03 0.  0.
      99925    2    3    3    0    0 -0.58682141537E+02  0.69114360741E+02 -0.40799903743E+03  0.49382664547E+03  0.26302310286E+03 0.  0.
         25    1    4    4    0    0  0.51877734753E+01  0.37961221598E+02 -0.23366523983E+03  0.26779641473E+03  0.12509000000E+03 0.  0.
         25    1    4    4    0    0 -0.63869915012E+02  0.31153139143E+02 -0.17433379760E+03  0.22603023074E+03  0.12509000000E+03 0.  0.
         25    1    3    3    0    0  0.58682141537E+02 -0.69114360741E+02 -0.46180788567E+03  0.48696449559E+03  0.12509000000E+03 0.  0.
<mgrwt>
<rscale>  2 0.45319662E+03</rscale>
<asrwt>0</asrwt>
<pdfrwt beam="1">  1       21 0.81606044E-02 0.45319662E+03</pdfrwt>
<pdfrwt beam="2">  1       21 0.13607339E+00 0.45319662E+03</pdfrwt>
<totfact> 0.40486055E+04</totfact>
</mgrwt>
</event>
<event>
 7    0  0.4714446E-002  0.4561869E+03  0.7546771E-02  0.1025893E+00
         21   -1    0    0  502  501  0.00000000000E+00  0.00000000000E+00  0.27004266891E+03  0.27004266891E+03  0.00000000000E+00 0.  1.
         21   -1    0    0  501  502 -0.00000000000E+00 -0.00000000000E+00 -0.19266078339E+03  0.19266078339E+03  0.00000000000E+00 0.  1.
      99926    2    1    2    0    0 -0.17763568394E-14  0.00000000000E+00  0.77381885520E+02  0.46270345230E+03  0.45618694475E+03 0.  0.
      99925    2    3    3    0    0  0.10166132310E+02 -0.96894501424E+02 -0.11772868560E+02  0.28080245470E+03  0.26309603471E+03 0.  0.
         25    1    4    4    0    0  0.11736377285E+02 -0.21082775973E+02  0.25334771241E+02  0.12989066452E+03  0.12509000000E+03 0.  0.
         25    1    3    3    0    0 -0.10166132310E+02  0.96894501424E+02  0.89154754080E+02  0.18190099760E+03  0.12509000000E+03 0.  0.
         25    1    4    4    0    0 -0.15702449756E+01 -0.75811725452E+02 -0.37107639802E+02  0.15091179019E+03  0.12509000000E+03 0.  0.
<mgrwt>
<rscale>  2 0.45618694E+03</rscale>
<asrwt>0</asrwt>
<pdfrwt beam="1">  1       21 0.39712157E-01 0.45618694E+03</pdfrwt>
<pdfrwt beam="2">  1       21 0.28332468E-01 0.45618694E+03</pdfrwt>
<totfact> 0.67343243E+04</totfact>
</mgrwt>
</event>
<event>
 7    0  0.4714446E-002  0.4461106E+03  0.7546771E-02  0.1028888E+00
         21   -1    0    0  502  501  0.00000000000E+00  0.00000000000E+00  0.16292902753E+04  0.16292902753E+04  0.00000000000E+00 0.  1.
         21   -1    0    0  501  502 -0.00000000000E+00 -0.00000000000E+00 -0.30537024487E+02  0.30537024487E+02  0.00000000000E+00 0.  1.
      99926    2    1    2    0    0  0.00000000000E+00  0.71054273576E-14  0.15987532508E+04  0.16598272998E+04  0.44611064561E+03 0.  0.
      99925    2    3    3    0    0 -0.32078943035E+02  0.50315478067E+02  0.69473465340E+03  0.74524660981E+03  0.26301248045E+03 0.  0.
         25    1    4    4    0    0 -0.26017197408E+01 -0.41239961128E+01  0.40007342978E+03  0.41920166222E+03  0.12509000000E+03 0.  0.
         25    1    4    4    0    0 -0.29477223294E+02  0.54439474180E+02  0.29466122362E+03  0.32604494759E+03  0.12509000000E+03 0.  0.
         25    1    3    3    0    0  0.32078943035E+02 -0.50315478067E+02  0.90401859739E+03  0.91458068996E+03  0.12509000000E+03 0.  0.
<mgrwt>
<rscale>  2 0.44611065E+03</rscale>
<asrwt>0</asrwt>
<pdfrwt beam="1">  1       21 0.23960145E+00 0.44611065E+03</pdfrwt>
<pdfrwt beam="2">  1       21 0.44907400E-02 0.44611065E+03</pdfrwt>
<totfact> 0.21561231E+04</totfact>
</mgrwt>
</event>
<event>
 6    0  0.4714446E-002  0.4526713E+03  0.7546771E-02  0.1026928E+00
         21   -1    0    0  502  501  0.00000000000E+00  0.00000000000E+00  0.41983497439E+03  0.41983497439E+03  0.00000000000E+00 0. -1.
         21   -1    0    0  501  502 -0.00000000000E+00 -0.00000000000E+00 -0.12201894308E+03  0.12201894308E+03  0.00000000000E+00 0. -1.
      99926    2    1    2    0    0  0.00000000000E+00  0.00000000000E+00  0.29781603131E+03  0.54185391748E+03  0.45267127077E+03 0.  0.
         25    1    3    3    0    0  0.44008101399E+02  0.23539957053E+02  0.14119458288E+03  0.19512626913E+03  0.12509000000E+03 0.  0.
         25    1    3    3    0    0 -0.10218978298E+03 -0.49021624356E+02  0.92398342209E+02  0.19243397087E+03  0.12509000000E+03 0.  0.
         25    1    3    3    0    0  0.58181681582E+02  0.25481667303E+02  0.64223106214E+02  0.15429367749E+03  0.12509000000E+03 0.  0.
<mgrwt>
<rscale>  2 0.45267127E+03</rscale>
<asrwt>0</asrwt>
<pdfrwt beam="1">  1       21 0.61740437E-01 0.45267127E+03</pdfrwt>
<pdfrwt beam="2">  1       21 0.17943962E-01 0.45267127E+03</pdfrwt>
<totfact> 0.63571490E+04</totfact>
</mgrwt>
</event>
<event>
 7    0  0.4714446E-002  0.4488502E+03  0.7546771E-02  0.1028065E+00
         21   -1    0    0  502  501  0.00000000000E+00  0.00000000000E+00  0.19817128278E+03  0.19817128278E+03  0.00000000000E+00 0. -1.
         21   -1    0    0  501  502 -0.00000000000E+00 -0.00000000000E+00 -0.25415700142E+03  0.25415700142E+03  0.00000000000E+00 0. -1.
      99926    2    1    2    0    0  0.00000000000E+00  0.14210854715E-13 -0.55985718640E+02  0.45232828420E+03  0.44885017098E+03 0.  0.
      99925    2    3    3    0    0 -0.38650691043E+02 -0.99875936476E+02 -0.31375345631E+02  0.28582826268E+03  0.26314312613E+03 0.  0.
         25    1    4    4    0    0 -0.19022425137E+02 -0.85262160310E+02  0.69414194478E+01  0.15273238047E+03  0.12509000000E+03 0.  0.
         25    1    4    4    0    0 -0.19628265905E+02 -0.14613776167E+02 -0.38316765078E+02  0.13309588221E+03  0.12509000000E+03 0.  0.
         25    1    3    3    0    0  0.38650691043E+02  0.99875936476E+02 -0.24610373009E+02  0.16650002152E+03  0.12509000000E+03 0.  0.
<mgrwt>
<rscale>  2 0.44885017E+03</rscale>
<asrwt>0</asrwt>
<pdfrwt beam="1">  1       21 0.29142836E-01 0.44885017E+03</pdfrwt>
<pdfrwt beam="2">  1       21 0.37376030E-01 0.44885017E+03</pdfrwt>
<totfact> 0.72220830E+04</totfact>
</mgrwt>
</event>
<event>
 7    0  0.4714446E-002  0.4556457E+03  0.7546771E-02  0.1026052E+00
         21   -1    0    0  502  501  0.00000000000E+00  0.00000000000E+00  0.18203979015E+03  0.18203979015E+03  0.00000000000E+00 0.  1.
         21   -1    0    0  501  502 -0.00000000000E+00 -0.00000000000E+00 -0.28512037302E+03  0.28512037302E+03  0.00000000000E+00 0.  1.
      99926    2    1    2    0    0  0.00000000000E+00  0.00000000000E+00 -0.10308058286E+03  0.46716016317E+03  0.45564570830E+03 0.  0.
      99925    2    3    3    0    0  0.11242489872E+03  0.62357050347E+01 -0.46876168825E+02  0.28972091688E+03  0.26279762671E+03 0.  0.
         25    1    4    4    0    0  0.99496202684E+02  0.76702699118E+01 -0.30424802048E+02  0.16288494120E+03  0.12509000000E+03 0.  0.
         25    1    3    3    0    0 -0.11242489872E+03 -0.62357050347E+01 -0.56204414040E+02  0.17743924630E+03  0.12509000000E+03 0.  0.
         25    1    4    4    0    0  0.12928696036E+02 -0.14345648771E+01 -0.16451366778E+02  0.12683597568E+03  0.12509000000E+03 0.  0.
<mgrwt>
<rscale>  2 0.45564571E+03</rscale>
<asrwt>0</asrwt>
<pdfrwt beam="1">  1       21 0.26770558E-01 0.45564571E+03</pdfrwt>
<pdfrwt beam="2">  1       21 0.41929466E-01 0.45564571E+03</pdfrwt>
<totfact> 0.67302465E+04</totfact>
</mgrwt>
</event>
<event>
 7    0  0.4714446E-002  0.4222700E+03  0.7546771E-02  0.1036330E+00
         21   -1    0    0  502  501  0.00000000000E+00  0.00000000000E+00  0.51879202645E+02  0.51879202645E+02  0.00000000000E+00 0.  1.
         21   -1    0    0  501  502 -0.00000000000E+00 -0.00000000000E+00 -0.85926504123E+03  0.85926504123E+03  0.00000000000E+00 0.  1.
      99926    2    1    2    0    0  0.71054273576E-14  0.71054273576E-14 -0.80738583859E+03  0.91114424388E+03  0.42226998567E+03 0.  0.
      99925    2    3    3    0    0  0.51545067917E+02  0.39296966612E+02 -0.62087563249E+03  0.67740355274E+03  0.26303588471E+03 0.  0.
         25    1    4    4    0    0  0.14656420349E+02 -0.12502233799E+02 -0.23689284048E+03  0.26858302716E+03  0.12509000000E+03 0.  0.
         25    1    4    4    0    0  0.36888647568E+02  0.51799200411E+02 -0.38398279200E+03  0.40882052558E+03  0.12509000000E+03 0.  0.
         25    1    3    3    0    0 -0.51545067917E+02 -0.39296966612E+02 -0.18651020610E+03  0.23374069113E+03  0.12509000000E+03 0.  0.
<mgrwt>
<rscale>  2 0.42226999E+03</rscale>
<asrwt>0</asrwt>
<pdfrwt beam="1">  1       21 0.76292949E-02 0.42226999E+03</pdfrwt>
<pdfrwt beam="2">  1       21 0.12636250E+00 0.42226999E+03</pdfrwt>
<totfact> 0.55710099E+04</totfact>
</mgrwt>
</event>
<event>
 7    0  0.4714446E-002  0.4480993E+03  0.7546771E-02  0.1028290E+00
         21   -1    0    0  502  501  0.00000000000E+00  0.00000000000E+00  0.15208673305E+03  0.15208673305E+03  0.00000000000E+00 0. -1.
         21   -1    0    0  501  502 -0.00000000000E+00 -0.00000000000E+00 -0.33006321205E+03  0.33006321205E+03  0.00000000000E+00 0. -1.
      99926    2    1    2    0    0  0.00000000000E+00  0.00000000000E+00 -0.17797647900E+03  0.48214994510E+03  0.44809925517E+03 0.  0.
      99925    2    3    3    0    0 -0.57061908442E+02  0.82879449475E+02 -0.15069890494E+03  0.31931064184E+03  0.26291455171E+03 0.  0.
         25    1    3    3    0    0  0.57061908442E+02 -0.82879449475E+02 -0.27277574063E+02  0.16283930326E+03  0.12509000000E+03 0.  0.
         25    1    4    4    0    0 -0.41850185235E+02  0.80817485253E+02 -0.71116061816E+02  0.17025835156E+03  0.12509000000E+03 0.  0.
         25    1    4    4    0    0 -0.15211723207E+02  0.20619642218E+01 -0.79582843121E+02  0.14905229028E+03  0.12509000000E+03 0.  0.
<mgrwt>
<rscale>  2 0.44809926E+03</rscale>
<asrwt>0</asrwt>
<pdfrwt beam="1">  1       21 0.22365696E-01 0.44809926E+03</pdfrwt>
<pdfrwt beam="2">  1       21 0.48538708E-01 0.44809926E+03</pdfrwt>
<totfact> 0.70317795E+04</totfact>
</mgrwt>
</event>
<event>
 7    0  0.4714446E-002  0.4609769E+03  0.7546771E-02  0.1024498E+00
         21   -1    0    0  502  501  0.00000000000E+00  0.00000000000E+00  0.11127660582E+03  0.11127660582E+03  0.00000000000E+00 0. -1.
         21   -1    0    0  501  502 -0.00000000000E+00 -0.00000000000E+00 -0.47741318215E+03  0.47741318215E+03  0.00000000000E+00 0. -1.
      99926    2    1    2    0    0 -0.35527136788E-14  0.28421709430E-13 -0.36613657633E+03  0.58868978797E+03  0.46097686920E+03 0.  0.
      99925    2    3    3    0    0 -0.25651274351E+02  0.11567539284E+03 -0.22034447998E+03  0.36298726729E+03  0.26300053607E+03 0.  0.
         25    1    4    4    0    0 -0.16619409683E+02  0.10053862653E+03 -0.13682371507E+03  0.21154776602E+03  0.12509000000E+03 0.  0.
         25    1    4    4    0    0 -0.90318646684E+01  0.15136766314E+02 -0.83520764915E+02  0.15143950127E+03  0.12509000000E+03 0.  0.
         25    1    3    3    0    0  0.25651274351E+02 -0.11567539284E+03 -0.14579209635E+03  0.22570252068E+03  0.12509000000E+03 0.  0.
<mgrwt>
<rscale>  2 0.46097687E+03</rscale>
<asrwt>0</asrwt>
<pdfrwt beam="1">  1       21 0.16364207E-01 0.46097687E+03</pdfrwt>
<pdfrwt beam="2">  1       21 0.70207821E-01 0.46097687E+03</pdfrwt>
<totfact> 0.56655604E+04</totfact>
</mgrwt>
</event>
<event>
 7    0  0.4714446E-002  0.4570243E+03  0.7546771E-02  0.1025648E+00
         21   -1    0    0  502  501  0.00000000000E+00  0.00000000000E+00  0.28075264581E+03  0.28075264581E+03  0.00000000000E+00 0.  1.
         21   -1    0    0  501  502 -0.00000000000E+00 -0.00000000000E+00 -0.18599219591E+03  0.18599219591E+03  0.00000000000E+00 0.  1.
      99926    2    1    2    0    0  0.00000000000E+00  0.00000000000E+00  0.94760449895E+02  0.46674484172E+03  0.45702429301E+03 0.  0.
      99925    2    3    3    0    0  0.60812961244E+02  0.85733127716E+02  0.11183060697E+02  0.28322080098E+03  0.26275573413E+03 0.  0.
         25    1    4    4    0    0  0.62540824981E+02  0.56321841400E+02  0.28837284629E+02  0.15350114557E+03  0.12509000000E+03 0.  0.
         25    1    4    4    0    0 -0.17278637364E+01  0.29411286315E+02 -0.17654223932E+02  0.12971965541E+03  0.12509000000E+03 0.  0.
         25    1    3    3    0    0 -0.60812961244E+02 -0.85733127716E+02  0.83577389197E+02  0.18352404074E+03  0.12509000000E+03 0.  0.
<mgrwt>
<rscale>  2 0.45702429E+03</rscale>
<asrwt>0</asrwt>
<pdfrwt beam="1">  1       21 0.41287154E-01 0.45702429E+03</pdfrwt>
<pdfrwt beam="2">  1       21 0.27351793E-01 0.45702429E+03</pdfrwt>
<totfact> 0.66602762E+04</totfact>
</mgrwt>
</event>
<event>
 7    0  0.4714446E-002  0.4532290E+03  0.7546771E-02  0.1026763E+00
         21   -1    0    0  502  501  0.00000000000E+00  0.00000000000E+00  0.15343239414E+03  0.15343239414E+03  0.00000000000E+00 0.  1.
         21   -1    0    0  501  502 -0.00000000000E+00 -0.00000000000E+00 -0.33470200371E+03  0.33470200371E+03  0.00000000000E+00 0.  1.
      99926    2    1    2    0    0  0.00000000000E+00 -0.14210854715E-13 -0.18126960956E+03  0.48813439785E+03  0.45322899180E+03 0.  0.
      99925    2    3    3    0    0 -0.94572390436E+01 -0.11005930656E+03 -0.97841445515E+02  0.30155932720E+03  0.26298781156E+03 0.  0.
         25    1    4    4    0    0 -0.37260876277E+02 -0.58392536496E+02 -0.75177165924E+02  0.16154620267E+03  0.12509000000E+03 0.  0.
         25    1    4    4    0    0  0.27803637234E+02 -0.51666770065E+02 -0.22664279591E+02  0.14001312453E+03  0.12509000000E+03 0.  0.
         25    1    3    3    0    0  0.94572390436E+01  0.11005930656E+03 -0.83428164049E+02  0.18657507065E+03  0.12509000000E+03 0.  0.
<mgrwt>
<rscale>  2 0.45322899E+03</rscale>
<asrwt>0</asrwt>
<pdfrwt beam="1">  1       21 0.22563588E-01 0.45322899E+03</pdfrwt>
<pdfrwt beam="2">  1       21 0.49220882E-01 0.45322899E+03</pdfrwt>
<totfact> 0.67050316E+04</totfact>
</mgrwt>
</event>
<event>
 7    0  0.4714446E-002  0.4200942E+03  0.7546771E-02  0.1037036E+00
         21   -1    0    0  502  501  0.00000000000E+00  0.00000000000E+00  0.49385431127E+03  0.49385431127E+03  0.00000000000E+00 0.  1.
         21   -1    0    0  501  502 -0.00000000000E+00 -0.00000000000E+00 -0.89337664260E+02  0.89337664260E+02  0.00000000000E+00 0.  1.
      99926    2    1    2    0    0  0.00000000000E+00 -0.35527136788E-14  0.40451664701E+03  0.58319197553E+03  0.42009423064E+03 0.  0.
      99925    2    3    3    0    0  0.62783081471E+02 -0.28843284263E+02  0.30720225978E+03  0.41030111855E+03  0.26305917415E+03 0.  0.
         25    1    4    4    0    0  0.43600013399E+02  0.94759140544E+01  0.19998768401E+03  0.24006943989E+03  0.12509000000E+03 0.  0.
         25    1    3    3    0    0 -0.62783081471E+02  0.28843284263E+02  0.97314387235E+02  0.17289085699E+03  0.12509000000E+03 0.  0.
         25    1    4    4    0    0  0.19183068072E+02 -0.38319198317E+02  0.10721457577E+03  0.17023167866E+03  0.12509000000E+03 0.  0.
<mgrwt>
<rscale>  2 0.42009423E+03</rscale>
<asrwt>0</asrwt>
<pdfrwt beam="1">  1       21 0.72625633E-01 0.42009423E+03</pdfrwt>
<pdfrwt beam="2">  1       21 0.13137892E-01 0.42009423E+03</pdfrwt>
<totfact> 0.79488722E+04</totfact>
</mgrwt>
</event>
<event>
 7    0  0.4714446E-002  0.4508686E+03  0.7546771E-02  0.1027463E+00
         21   -1    0    0  502  501  0.00000000000E+00  0.00000000000E+00  0.67778973999E+03  0.67778973999E+03  0.00000000000E+00 0. -1.
         21   -1    0    0  501  502 -0.00000000000E+00 -0.00000000000E+00 -0.74979932642E+02  0.74979932642E+02  0.00000000000E+00 0. -1.
      99926    2    1    2    0    0  0.00000000000E+00  0.00000000000E+00  0.60280980735E+03  0.75276967263E+03  0.45086862410E+03 0.  0.
      99925    2    3    3    0    0  0.37867521714E+02 -0.10292404655E+03  0.37326904269E+03  0.46928461254E+03  0.26243277382E+03 0.  0.
         25    1    4    4    0    0  0.26891358537E+01 -0.22435396274E+02  0.12878830450E+03  0.18095445265E+03  0.12509000000E+03 0.  0.
         25    1    3    3    0    0 -0.37867521714E+02  0.10292404655E+03  0.22954076466E+03  0.28348506009E+03  0.12509000000E+03 0.  0.
         25    1    4    4    0    0  0.35178385860E+02 -0.80488650272E+02  0.24448073819E+03  0.28833015989E+03  0.12509000000E+03 0.  0.
<mgrwt>
<rscale>  2 0.45086862E+03</rscale>
<asrwt>0</asrwt>
<pdfrwt beam="1">  1       21 0.99674958E-01 0.45086862E+03</pdfrwt>
<pdfrwt beam="2">  1       21 0.11026461E-01 0.45086862E+03</pdfrwt>
<totfact> 0.51790978E+04</totfact>
</mgrwt>
</event>
<event>
 7    0  0.4714446E-002  0.4630579E+03  0.7546771E-02  0.1023898E+00
         21   -1    0    0  502  501  0.00000000000E+00  0.00000000000E+00  0.20396367896E+03  0.20396367896E+03  0.00000000000E+00 0. -1.
         21   -1    0    0  501  502 -0.00000000000E+00 -0.00000000000E+00 -0.26281964685E+03  0.26281964685E+03  0.00000000000E+00 0. -1.
      99926    2    1    2    0    0  0.35527136788E-14  0.00000000000E+00 -0.58855967889E+02  0.46678332581E+03  0.46305793191E+03 0.  0.
      99925    2    3    3    0    0  0.24121836050E+02 -0.10462725237E+03  0.18475468922E+02  0.28469438015E+03  0.26302247475E+03 0.  0.
         25    1    4    4    0    0 -0.22563143476E+02 -0.60991801108E+02  0.28624652272E+02  0.14386095392E+03  0.12509000000E+03 0.  0.
         25    1    3    3    0    0 -0.24121836050E+02  0.10462725237E+03 -0.77331436812E+02  0.18208894566E+03  0.12509000000E+03 0.  0.
         25    1    4    4    0    0  0.46684979526E+02 -0.43635451263E+02 -0.10149183350E+02  0.14083342623E+03  0.12509000000E+03 0.  0.
<mgrwt>
<rscale>  2 0.46305793E+03</rscale>
<asrwt>0</asrwt>
<pdfrwt beam="1">  1       21 0.29994659E-01 0.46305793E+03</pdfrwt>
<pdfrwt beam="2">  1       21 0.38649948E-01 0.46305793E+03</pdfrwt>
<totfact> 0.63508679E+04</totfact>
</mgrwt>
</event>
<event>
 7    0  0.4714446E-002  0.4533763E+03  0.7546771E-02  0.1026720E+00
         21   -1    0    0  502  501  0.00000000000E+00  0.00000000000E+00  0.19049962199E+03  0.19049962199E+03  0.00000000000E+00 0. -1.
         21   -1    0    0  501  502 -0.00000000000E+00 -0.00000000000E+00 -0.26975132174E+03  0.26975132174E+03  0.00000000000E+00 0. -1.
      99926    2    1    2    0    0  0.17763568394E-14  0.00000000000E+00 -0.79251699753E+02  0.46025094373E+03  0.45337633296E+03 0.  0.
      99925    2    3    3    0    0  0.97838928509E+01 -0.67597297777E+02 -0.13993874949E+03  0.30534598793E+03  0.26265604792E+03 0.  0.
         25    1    4    4    0    0 -0.67390675903E+01 -0.43555220934E+02 -0.29314549903E+02  0.13582828586E+03  0.12509000000E+03 0.  0.
         25    1    3    3    0    0 -0.97838928509E+01  0.67597297777E+02  0.60687049741E+02  0.15490495580E+03  0.12509000000E+03 0.  0.
         25    1    4    4    0    0  0.16522960441E+02 -0.24042076843E+02 -0.11062419959E+03  0.16951770207E+03  0.12509000000E+03 0.  0.
<mgrwt>
<rscale>  2 0.45337633E+03</rscale>
<asrwt>0</asrwt>
<pdfrwt beam="1">  1       21 0.28014650E-01 0.45337633E+03</pdfrwt>
<pdfrwt beam="2">  1       21 0.39669312E-01 0.45337633E+03</pdfrwt>
<totfact> 0.69051043E+04</totfact>
</mgrwt>
</event>
<event>
 7    0  0.4714446E-002  0.4554333E+03  0.7546771E-02  0.1026114E+00
         21   -1    0    0  502  501  0.00000000000E+00  0.00000000000E+00  0.29744579646E+03  0.29744579646E+03  0.00000000000E+00 0.  1.
         21   -1    0    0  501  502 -0.00000000000E+00 -0.00000000000E+00 -0.17433387650E+03  0.17433387650E+03  0.00000000000E+00 0.  1.
      99926    2    1    2    0    0  0.00000000000E+00  0.00000000000E+00  0.12311191997E+03  0.47177967296E+03  0.45543332661E+03 0.  0.
      99925    2    3    3    0    0 -0.56300425460E+02 -0.96260670466E+02  0.55320416373E+02  0.29100619414E+03  0.26303688330E+03 0.  0.
         25    1    4    4    0    0 -0.26714426594E+02 -0.67561399892E+02  0.65728066714E+02  0.15888955346E+03  0.12509000000E+03 0.  0.
         25    1    4    4    0    0 -0.29585998865E+02 -0.28699270574E+02 -0.10407650341E+02  0.13211664069E+03  0.12509000000E+03 0.  0.
         25    1    3    3    0    0  0.56300425460E+02  0.96260670466E+02  0.67791503594E+02  0.18077347882E+03  0.12509000000E+03 0.  0.
<mgrwt>
<rscale>  2 0.45543333E+03</rscale>
<asrwt>0</asrwt>
<pdfrwt beam="1">  1       21 0.43742029E-01 0.45543333E+03</pdfrwt>
<pdfrwt beam="2">  1       21 0.25637335E-01 0.45543333E+03</pdfrwt>
<totfact> 0.67072710E+04</totfact>
</mgrwt>
</event>
<event>
 7    0  0.4714446E-002  0.4482192E+03  0.7546771E-02  0.1028254E+00
         21   -1    0    0  502  501  0.00000000000E+00  0.00000000000E+00  0.52605199752E+02  0.52605199752E+02  0.00000000000E+00 0. -1.
         21   -1    0    0  501  502 -0.00000000000E+00 -0.00000000000E+00 -0.95475568493E+03  0.95475568493E+03  0.00000000000E+00 0. -1.
      99926    2    1    2    0    0 -0.17763568394E-14  0.00000000000E+00 -0.90215048518E+03  0.10073608847E+04  0.44821920316E+03 0.  0.
      99925    2    3    3    0    0  0.13939188113E+02  0.82633843167E+02 -0.72068429331E+03  0.77156406559E+03  0.26249305455E+03 0.  0.
         25    1    3    3    0    0 -0.13939188113E+02 -0.82633843167E+02 -0.18146619187E+03  0.23579681909E+03  0.12509000000E+03 0.  0.
         25    1    4    4    0    0 -0.13557086446E+01  0.58975403506E+02 -0.47092663944E+03  0.49081497940E+03  0.12509000000E+03 0.  0.
         25    1    4    4    0    0  0.15294896758E+02  0.23658439661E+02 -0.24975765386E+03  0.28074908619E+03  0.12509000000E+03 0.  0.
<mgrwt>
<rscale>  2 0.44821920E+03</rscale>
<asrwt>0</asrwt>
<pdfrwt beam="1">  1       21 0.77360579E-02 0.44821920E+03</pdfrwt>
<pdfrwt beam="2">  1       21 0.14040526E+00 0.44821920E+03</pdfrwt>
<totfact> 0.41010589E+04</totfact>
</mgrwt>
</event>
<event>
 7    0  0.4714446E-002  0.4505882E+03  0.7546771E-02  0.1027547E+00
         21   -1    0    0  502  501  0.00000000000E+00  0.00000000000E+00  0.21139262443E+04  0.21139262443E+04  0.00000000000E+00 0.  1.
         21   -1    0    0  501  502 -0.00000000000E+00 -0.00000000000E+00 -0.24010975139E+02  0.24010975139E+02  0.00000000000E+00 0.  1.
      99926    2    1    2    0    0  0.00000000000E+00 -0.71054273576E-14  0.20899152691E+04  0.21379372194E+04  0.45058819557E+03 0.  0.
      99925    2    3    3    0    0  0.68979675570E+02 -0.46465769529E+02  0.16533111148E+04  0.16762144032E+04  0.26332455185E+03 0.  0.
         25    1    4    4    0    0  0.73929229515E+02 -0.96841891721E+01  0.85743615151E+03  0.86971465235E+03  0.12509000000E+03 0.  0.
         25    1    3    3    0    0 -0.68979675570E+02  0.46465769529E+02  0.43660415432E+03  0.46172281625E+03  0.12509000000E+03 0.  0.
         25    1    4    4    0    0 -0.49495539452E+01 -0.36781580357E+02  0.79587496330E+03  0.80649975081E+03  0.12509000000E+03 0.  0.
<mgrwt>
<rscale>  2 0.45058820E+03</rscale>
<asrwt>0</asrwt>
<pdfrwt beam="1">  1       21 0.31087138E+00 0.45058820E+03</pdfrwt>
<pdfrwt beam="2">  1       21 0.35310272E-02 0.45058820E+03</pdfrwt>
<totfact> 0.11991232E+04</totfact>
</mgrwt>
</event>
<event>
 7    0  0.4714446E-002  0.4355938E+03  0.7546771E-02  0.1032107E+00
         21   -1    0    0  502  501  0.00000000000E+00  0.00000000000E+00  0.56553737443E+02  0.56553737443E+02  0.00000000000E+00 0.  1.
         21   -1    0    0  501  502 -0.00000000000E+00 -0.00000000000E+00 -0.83876856846E+03  0.83876856846E+03  0.00000000000E+00 0.  1.
      99926    2    1    2    0    0  0.17763568394E-14 -0.14210854715E-13 -0.78221483101E+03  0.89532230590E+03  0.43559383557E+03 0.  0.
      99925    2    3    3    0    0  0.14456662747E+02 -0.93033166947E+02 -0.49633987983E+03  0.56938341429E+03  0.26264049746E+03 0.  0.
         25    1    4    4    0    0  0.20110334079E+02 -0.11581832816E+02 -0.26580254072E+03  0.29468129079E+03  0.12509000000E+03 0.  0.
         25    1    3    3    0    0 -0.14456662747E+02  0.93033166947E+02 -0.28587495118E+03  0.32593889161E+03  0.12509000000E+03 0.  0.
         25    1    4    4    0    0 -0.56536713325E+01 -0.81451334132E+02 -0.23053733911E+03  0.27470212350E+03  0.12509000000E+03 0.  0.
<mgrwt>
<rscale>  2 0.43559384E+03</rscale>
<asrwt>0</asrwt>
<pdfrwt beam="1">  1       21 0.83167266E-02 0.43559384E+03</pdfrwt>
<pdfrwt beam="2">  1       21 0.12334831E+00 0.43559384E+03</pdfrwt>
<totfact> 0.50711096E+04</totfact>
</mgrwt>
</event>
<event>
 7    0  0.4714446E-002  0.4545383E+03  0.7546771E-02  0.1026377E+00
         21   -1    0    0  502  501  0.00000000000E+00  0.00000000000E+00  0.10507951918E+03  0.10507951918E+03  0.00000000000E+00 0. -1.
         21   -1    0    0  501  502 -0.00000000000E+00 -0.00000000000E+00 -0.49154447345E+03  0.49154447345E+03  0.00000000000E+00 0. -1.
      99926    2    1    2    0    0 -0.35527136788E-14  0.00000000000E+00 -0.38646495427E+03  0.59662399264E+03  0.45453825769E+03 0.  0.
      99925    2    3    3    0    0 -0.29984113718E+02  0.10175747262E+03 -0.29316050824E+03  0.40792619705E+03  0.26307236332E+03 0.  0.
         25    1    4    4    0    0 -0.40323530528E+02  0.18077761988E+02 -0.14350186866E+03  0.19543051707E+03  0.12509000000E+03 0.  0.
         25    1    3    3    0    0  0.29984113718E+02 -0.10175747262E+03 -0.93304446034E+02  0.18869779558E+03  0.12509000000E+03 0.  0.
         25    1    4    4    0    0  0.10339416810E+02  0.83679710629E+02 -0.14965863958E+03  0.21249567998E+03  0.12509000000E+03 0.  0.
<mgrwt>
<rscale>  2 0.45453826E+03</rscale>
<asrwt>0</asrwt>
<pdfrwt beam="1">  1       21 0.15452871E-01 0.45453826E+03</pdfrwt>
<pdfrwt beam="2">  1       21 0.72285950E-01 0.45453826E+03</pdfrwt>
<totfact> 0.59101901E+04</totfact>
</mgrwt>
</event>
<event>
 7    0  0.4714446E-002  0.4703569E+03  0.7546771E-02  0.1021820E+00
         21   -1    0    0  502  501  0.00000000000E+00  0.00000000000E+00  0.12728655194E+03  0.12728655194E+03  0.00000000000E+00 0.  1.
         21   -1    0    0  501  502 -0.00000000000E+00 -0.00000000000E+00 -0.43452269586E+03  0.43452269586E+03  0.00000000000E+00 0.  1.
      99926    2    1    2    0    0  0.00000000000E+00  0.00000000000E+00 -0.30723614392E+03  0.56180924781E+03  0.47035686749E+03 0.  0.
      99925    2    3    3    0    0  0.66261107784E+02 -0.97024579742E+02 -0.13266635864E+03  0.31701051106E+03  0.26285166526E+03 0.  0.
         25    1    3    3    0    0 -0.66261107784E+02  0.97024579742E+02 -0.17456978528E+03  0.24479873674E+03  0.12509000000E+03 0.  0.
         25    1    4    4    0    0  0.69246343653E+02 -0.59475052024E+02 -0.51418500942E+02  0.16316773045E+03  0.12509000000E+03 0.  0.
         25    1    4    4    0    0 -0.29852358697E+01 -0.37549527719E+02 -0.81247857697E+02  0.15384278061E+03  0.12509000000E+03 0.  0.
<mgrwt>
<rscale>  2 0.47035687E+03</rscale>
<asrwt>0</asrwt>
<pdfrwt beam="1">  1       21 0.18718611E-01 0.47035687E+03</pdfrwt>
<pdfrwt beam="2">  1       21 0.63900396E-01 0.47035687E+03</pdfrwt>
<totfact> 0.54202541E+04</totfact>
</mgrwt>
</event>
<event>
 7    0  0.4714446E-002  0.4487707E+03  0.7546771E-02  0.1028089E+00
         21   -1    0    0  502  501  0.00000000000E+00  0.00000000000E+00  0.25051691142E+03  0.25051691142E+03  0.00000000000E+00 0. -1.
         21   -1    0    0  501  502 -0.00000000000E+00 -0.00000000000E+00 -0.20097961590E+03  0.20097961590E+03  0.00000000000E+00 0. -1.
      99926    2    1    2    0    0  0.00000000000E+00  0.00000000000E+00  0.49537295520E+02  0.45149652732E+03  0.44877073270E+03 0.  0.
      99925    2    3    3    0    0 -0.72743338098E+02 -0.63316365947E+01  0.11017998809E+03  0.29447192058E+03  0.26313950554E+03 0.  0.
         25    1    4    4    0    0 -0.44123698978E+02 -0.12678826156E+02  0.98021523960E+02  0.16541880396E+03  0.12509000000E+03 0.  0.
         25    1    4    4    0    0 -0.28619639120E+02  0.63471895616E+01  0.12158464131E+02  0.12905311662E+03  0.12509000000E+03 0.  0.
         25    1    3    3    0    0  0.72743338098E+02  0.63316365947E+01 -0.60642692570E+02  0.15702460674E+03  0.12509000000E+03 0.  0.
<mgrwt>
<rscale>  2 0.44877073E+03</rscale>
<asrwt>0</asrwt>
<pdfrwt beam="1">  1       21 0.36840722E-01 0.44877073E+03</pdfrwt>
<pdfrwt beam="2">  1       21 0.29555826E-01 0.44877073E+03</pdfrwt>
<totfact> 0.72331759E+04</totfact>
</mgrwt>
</event>
<event>
 7    0  0.4714446E-002  0.4509598E+03  0.7546771E-02  0.1027436E+00
         21   -1    0    0  502  501  0.00000000000E+00  0.00000000000E+00  0.39203759737E+04  0.39203759737E+04  0.00000000000E+00 0. -1.
         21   -1    0    0  501  502 -0.00000000000E+00 -0.00000000000E+00 -0.12968445641E+02  0.12968445641E+02  0.00000000000E+00 0. -1.
      99926    2    1    2    0    0 -0.14210854715E-13  0.00000000000E+00  0.39074075281E+04  0.39333444194E+04  0.45095978849E+03 0.  0.
      99925    2    3    3    0    0  0.88518111397E+02 -0.60877740695E+02  0.26464742497E+04  0.26616755175E+04  0.26296207091E+03 0.  0.
         25    1    4    4    0    0  0.47008523291E+02 -0.71799531577E+02  0.14512665262E+04  0.14591734003E+04  0.12509000000E+03 0.  0.
         25    1    4    4    0    0  0.41509588106E+02  0.10921790882E+02  0.11952077236E+04  0.12025021172E+04  0.12509000000E+03 0.  0.
         25    1    3    3    0    0 -0.88518111397E+02  0.60877740695E+02  0.12609332784E+04  0.12716689019E+04  0.12509000000E+03 0.  0.
<mgrwt>
<rscale>  2 0.45095979E+03</rscale>
<asrwt>0</asrwt>
<pdfrwt beam="1">  1       21 0.57652505E+00 0.45095979E+03</pdfrwt>
<pdfrwt beam="2">  1       21 0.19071271E-02 0.45095979E+03</pdfrwt>
<totfact> 0.53891243E+02</totfact>
</mgrwt>
</event>
<event>
 7    0  0.4714446E-002  0.4581936E+03  0.7546771E-02  0.1025306E+00
         21   -1    0    0  502  501  0.00000000000E+00  0.00000000000E+00  0.83251764427E+02  0.83251764427E+02  0.00000000000E+00 0. -1.
         21   -1    0    0  501  502 -0.00000000000E+00 -0.00000000000E+00 -0.63044131197E+03  0.63044131197E+03  0.00000000000E+00 0. -1.
      99926    2    1    2    0    0 -0.17763568394E-14  0.00000000000E+00 -0.54718954755E+03  0.71369307640E+03  0.45819363413E+03 0.  0.
      99925    2    3    3    0    0  0.10200864679E+02 -0.11086637885E+03 -0.29170146037E+03  0.40821462808E+03  0.26297153647E+03 0.  0.
         25    1    4    4    0    0 -0.29713317836E+02 -0.33701915200E+02 -0.14611709209E+03  0.19752572755E+03  0.12509000000E+03 0.  0.
         25    1    4    4    0    0  0.39914182515E+02 -0.77164463652E+02 -0.14558436828E+03  0.21068890052E+03  0.12509000000E+03 0.  0.
         25    1    3    3    0    0 -0.10200864679E+02  0.11086637885E+03 -0.25548808718E+03  0.30547844832E+03  0.12509000000E+03 0.  0.
<mgrwt>
<rscale>  2 0.45819363E+03</rscale>
<asrwt>0</asrwt>
<pdfrwt beam="1">  1       21 0.12242907E-01 0.45819363E+03</pdfrwt>
<pdfrwt beam="2">  1       21 0.92711956E-01 0.45819363E+03</pdfrwt>
<totfact> 0.50875528E+04</totfact>
</mgrwt>
</event>
<event>
 7    0  0.4714446E-002  0.4449138E+03  0.7546771E-02  0.1029250E+00
         21   -1    0    0  502  501  0.00000000000E+00  0.00000000000E+00  0.38681521523E+02  0.38681521523E+02  0.00000000000E+00 0.  1.
         21   -1    0    0  501  502 -0.00000000000E+00 -0.00000000000E+00 -0.12793466251E+04  0.12793466251E+04  0.00000000000E+00 0.  1.
      99926    2    1    2    0    0  0.35527136788E-14  0.71054273576E-14 -0.12406651036E+04  0.13180281466E+04  0.44491380745E+03 0.  0.
      99925    2    3    3    0    0  0.26030323008E+02 -0.47080242791E+02 -0.10499338640E+04  0.10836778942E+04  0.26287360562E+03 0.  0.
         25    1    3    3    0    0 -0.26030323008E+02  0.47080242791E+02 -0.19073123952E+03  0.23435025241E+03  0.12509000000E+03 0.  0.
         25    1    4    4    0    0  0.37160999499E+02 -0.56813198640E+02 -0.54801188009E+03  0.56619184756E+03  0.12509000000E+03 0.  0.
         25    1    4    4    0    0 -0.11130676491E+02  0.97329558491E+01 -0.50192198396E+03  0.51748604664E+03  0.12509000000E+03 0.  0.
<mgrwt>
<rscale>  2 0.44491381E+03</rscale>
<asrwt>0</asrwt>
<pdfrwt beam="1">  1       21 0.56884603E-02 0.44491381E+03</pdfrwt>
<pdfrwt beam="2">  1       21 0.18813917E+00 0.44491381E+03</pdfrwt>
<totfact> 0.30953032E+04</totfact>
</mgrwt>
</event>
<event>
 7    0  0.4714446E-002  0.4533971E+03  0.7546771E-02  0.1026714E+00
         21   -1    0    0  502  501  0.00000000000E+00  0.00000000000E+00  0.59786603320E+03  0.59786603320E+03  0.00000000000E+00 0. -1.
         21   -1    0    0  501  502 -0.00000000000E+00 -0.00000000000E+00 -0.85959461734E+02  0.85959461734E+02  0.00000000000E+00 0. -1.
      99926    2    1    2    0    0  0.00000000000E+00  0.00000000000E+00  0.51190657146E+03  0.68382549493E+03  0.45339714336E+03 0.  0.
      99925    2    3    3    0    0  0.54095607907E+02  0.48554364370E+02  0.19466498474E+03  0.33515144436E+03  0.26296040249E+03 0.  0.
         25    1    3    3    0    0 -0.54095607907E+02 -0.48554364370E+02  0.31724158672E+03  0.34867405057E+03  0.12509000000E+03 0.  0.
         25    1    4    4    0    0  0.57826802518E+02  0.35841254168E+01  0.11923911662E+03  0.18226974537E+03  0.12509000000E+03 0.  0.
         25    1    4    4    0    0 -0.37311946106E+01  0.44970238953E+02  0.75425868115E+02  0.15288169899E+03  0.12509000000E+03 0.  0.
<mgrwt>
<rscale>  2 0.45339714E+03</rscale>
<asrwt>0</asrwt>
<pdfrwt beam="1">  1       21 0.87921474E-01 0.45339714E+03</pdfrwt>
<pdfrwt beam="2">  1       21 0.12641098E-01 0.45339714E+03</pdfrwt>
<totfact> 0.54474432E+04</totfact>
</mgrwt>
</event>
<event>
 7    0  0.4714446E-002  0.4643771E+03  0.7546771E-02  0.1023519E+00
         21   -1    0    0  502  501  0.00000000000E+00  0.00000000000E+00  0.20578950845E+03  0.20578950845E+03  0.00000000000E+00 0.  1.
         21   -1    0    0  501  502 -0.00000000000E+00 -0.00000000000E+00 -0.26197412438E+03  0.26197412438E+03  0.00000000000E+00 0.  1.
      99926    2    1    2    0    0 -0.71054273576E-14  0.14210854715E-13 -0.56184615923E+02  0.46776363283E+03  0.46437711521E+03 0.  0.
      99925    2    3    3    0    0 -0.62688983743E+02  0.80347578719E+02  0.32147639088E+02  0.28381870231E+03  0.26293334325E+03 0.  0.
         25    1    4    4    0    0 -0.51563471197E+02  0.78398941339E+02  0.16160236476E+02  0.15720638317E+03  0.12509000000E+03 0.  0.
         25    1    4    4    0    0 -0.11125512546E+02  0.19486373810E+01  0.15987402613E+02  0.12661231915E+03  0.12509000000E+03 0.  0.
         25    1    3    3    0    0  0.62688983743E+02 -0.80347578719E+02 -0.88332255012E+02  0.18394493052E+03  0.12509000000E+03 0.  0.
<mgrwt>
<rscale>  2 0.46437712E+03</rscale>
<asrwt>0</asrwt>
<pdfrwt beam="1">  1       21 0.30263163E-01 0.46437712E+03</pdfrwt>
<pdfrwt beam="2">  1       21 0.38525607E-01 0.46437712E+03</pdfrwt>
<totfact> 0.62789821E+04</totfact>
</mgrwt>
</event>
<event>
 7    0  0.4714446E-002  0.4605974E+03  0.7546771E-02  0.1024608E+00
         21   -1    0    0  502  501  0.00000000000E+00  0.00000000000E+00  0.61615349294E+03  0.61615349294E+03  0.00000000000E+00 0. -1.
         21   -1    0    0  501  502 -0.00000000000E+00 -0.00000000000E+00 -0.86078389511E+02  0.86078389511E+02  0.00000000000E+00 0. -1.
      99926    2    1    2    0    0  0.00000000000E+00  0.00000000000E+00  0.53007510343E+03  0.70223188245E+03  0.46059743970E+03 0.  0.
      99925    2    3    3    0    0  0.21430917990E+02 -0.16581354940E+02  0.50764953558E+03  0.57229097369E+03  0.26282062706E+03 0.  0.
         25    1    3    3    0    0 -0.21430917990E+02  0.16581354940E+02  0.22425567849E+02  0.12994090877E+03  0.12509000000E+03 0.  0.
         25    1    4    4    0    0  0.22867470501E+02 -0.82791311178E+01  0.33888939745E+03  0.36205662130E+03  0.12509000000E+03 0.  0.
         25    1    4    4    0    0 -0.14365525116E+01 -0.83022238224E+01  0.16876013813E+03  0.21023435239E+03  0.12509000000E+03 0.  0.
<mgrwt>
<rscale>  2 0.46059744E+03</rscale>
<asrwt>0</asrwt>
<pdfrwt beam="1">  1       21 0.90610805E-01 0.46059744E+03</pdfrwt>
<pdfrwt beam="2">  1       21 0.12658587E-01 0.46059744E+03</pdfrwt>
<totfact> 0.50519566E+04</totfact>
</mgrwt>
</event>
<event>
 7    0  0.4714446E-002  0.4535341E+03  0.7546771E-02  0.1026673E+00
         21   -1    0    0  502  501  0.00000000000E+00  0.00000000000E+00  0.36928138063E+03  0.36928138063E+03  0.00000000000E+00 0.  1.
         21   -1    0    0  501  502 -0.00000000000E+00 -0.00000000000E+00 -0.13925235772E+03  0.13925235772E+03  0.00000000000E+00 0.  1.
      99926    2    1    2    0    0  0.00000000000E+00  0.00000000000E+00  0.23002902291E+03  0.50853373836E+03  0.45353413506E+03 0.  0.
      99925    2    3    3    0    0  0.62506648996E+02  0.92196783147E+02  0.13438745022E+03  0.31565515862E+03  0.26300354446E+03 0.  0.
         25    1    4    4    0    0  0.44271712479E+02  0.70195751714E+02  0.10728179365E+03  0.18451102794E+03  0.12509000000E+03 0.  0.
         25    1    3    3    0    0 -0.62506648996E+02 -0.92196783147E+02  0.95641572696E+02  0.19287857973E+03  0.12509000000E+03 0.  0.
         25    1    4    4    0    0  0.18234936517E+02  0.22001031433E+02  0.27105656572E+02  0.13114413068E+03  0.12509000000E+03 0.  0.
<mgrwt>
<rscale>  2 0.45353414E+03</rscale>
<asrwt>0</asrwt>
<pdfrwt beam="1">  1       21 0.54306085E-01 0.45353414E+03</pdfrwt>
<pdfrwt beam="2">  1       21 0.20478288E-01 0.45353414E+03</pdfrwt>
<totfact> 0.65433126E+04</totfact>
</mgrwt>
</event>
<event>
 7    0  0.4714446E-002  0.4444563E+03  0.7546771E-02  0.1029388E+00
         21   -1    0    0  502  501  0.00000000000E+00  0.00000000000E+00  0.41173095069E+03  0.41173095069E+03  0.00000000000E+00 0. -1.
         21   -1    0    0  501  502 -0.00000000000E+00 -0.00000000000E+00 -0.11994568320E+03  0.11994568320E+03  0.00000000000E+00 0. -1.
      99926    2    1    2    0    0  0.00000000000E+00  0.00000000000E+00  0.29178526749E+03  0.53167663389E+03  0.44445629785E+03 0.  0.
      99925    2    3    3    0    0  0.18095168056E+02  0.92984281659E+02  0.23391839621E+03  0.36443550666E+03  0.26291046136E+03 0.  0.
         25    1    3    3    0    0 -0.18095168056E+02 -0.92984281659E+02  0.57866871288E+02  0.16724112722E+03  0.12509000000E+03 0.  0.
         25    1    4    4    0    0 -0.19599655181E+02  0.73177222704E+02  0.13878647447E+03  0.20161410169E+03  0.12509000000E+03 0.  0.
         25    1    4    4    0    0  0.37694823237E+02  0.19807058956E+02  0.95131921736E+02  0.16282140497E+03  0.12509000000E+03 0.  0.
<mgrwt>
<rscale>  2 0.44445630E+03</rscale>
<asrwt>0</asrwt>
<pdfrwt beam="1">  1       21 0.60548669E-01 0.44445630E+03</pdfrwt>
<pdfrwt beam="2">  1       21 0.17639071E-01 0.44445630E+03</pdfrwt>
<totfact> 0.68646011E+04</totfact>
</mgrwt>
</event>
<event>
 7    0  0.4714446E-002  0.4637740E+03  0.7546771E-02  0.1023692E+00
         21   -1    0    0  502  501  0.00000000000E+00  0.00000000000E+00  0.13526408849E+03  0.13526408849E+03  0.00000000000E+00 0. -1.
         21   -1    0    0  501  502 -0.00000000000E+00 -0.00000000000E+00 -0.39753042622E+03  0.39753042622E+03  0.00000000000E+00 0. -1.
      99926    2    1    2    0    0  0.71054273576E-14  0.14210854715E-13 -0.26226633773E+03  0.53279451472E+03  0.46377404305E+03 0.  0.
      99925    2    3    3    0    0 -0.36268573416E+02 -0.11383350249E+03 -0.18750949240E+03  0.34435468419E+03  0.26295791122E+03 0.  0.
         25    1    3    3    0    0  0.36268573416E+02  0.11383350249E+03 -0.74756845334E+02  0.18843983053E+03  0.12509000000E+03 0.  0.
         25    1    4    4    0    0 -0.18043479563E+02 -0.13007604108E+02 -0.78545745477E+02  0.14937103853E+03  0.12509000000E+03 0.  0.
         25    1    4    4    0    0 -0.18225093853E+02 -0.10082589838E+03 -0.10896374692E+03  0.19498364565E+03  0.12509000000E+03 0.  0.
<mgrwt>
<rscale>  2 0.46377404E+03</rscale>
<asrwt>0</asrwt>
<pdfrwt beam="1">  1       21 0.19891778E-01 0.46377404E+03</pdfrwt>
<pdfrwt beam="2">  1       21 0.58460357E-01 0.46377404E+03</pdfrwt>
<totfact> 0.58819284E+04</totfact>
</mgrwt>
</event>
<event>
 7    0  0.4714446E-002  0.4358828E+03  0.7546771E-02  0.1032018E+00
         21   -1    0    0  502  501  0.00000000000E+00  0.00000000000E+00  0.45584795467E+03  0.45584795467E+03  0.00000000000E+00 0. -1.
         21   -1    0    0  501  502 -0.00000000000E+00 -0.00000000000E+00 -0.10419801495E+03  0.10419801495E+03  0.00000000000E+00 0. -1.
      99926    2    1    2    0    0  0.71054273576E-14  0.00000000000E+00  0.35164993972E+03  0.56004596962E+03  0.43588279156E+03 0.  0.
      99925    2    3    3    0    0  0.37601834100E+02 -0.86272999803E+02  0.22618523900E+03  0.35943234185E+03  0.26301124995E+03 0.  0.
         25    1    4    4    0    0  0.33980351219E+02 -0.27168216242E+02  0.66757279435E+02  0.14831324519E+03  0.12509000000E+03 0.  0.
         25    1    3    3    0    0 -0.37601834100E+02  0.86272999803E+02  0.12546470072E+03  0.20061362777E+03  0.12509000000E+03 0.  0.
         25    1    4    4    0    0  0.36214828815E+01 -0.59104783562E+02  0.15942795957E+03  0.21111909665E+03  0.12509000000E+03 0.  0.
<mgrwt>
<rscale>  2 0.43588279E+03</rscale>
<asrwt>0</asrwt>
<pdfrwt beam="1">  1       21 0.67036463E-01 0.43588279E+03</pdfrwt>
<pdfrwt beam="2">  1       21 0.15323238E-01 0.43588279E+03</pdfrwt>
<totfact> 0.71407933E+04</totfact>
</mgrwt>
</event>
<event>
 7    0  0.4714446E-002  0.4687648E+03  0.7546771E-02  0.1022269E+00
         21   -1    0    0  502  501  0.00000000000E+00  0.00000000000E+00  0.16445526803E+03  0.16445526803E+03  0.00000000000E+00 0. -1.
         21   -1    0    0  501  502 -0.00000000000E+00 -0.00000000000E+00 -0.33404290855E+03  0.33404290855E+03  0.00000000000E+00 0. -1.
      99926    2    1    2    0    0  0.00000000000E+00  0.00000000000E+00 -0.16958764052E+03  0.49849817658E+03  0.46876482829E+03 0.  0.
      99925    2    3    3    0    0 -0.47580666003E+02  0.32313289945E+02 -0.22416122519E+03  0.35039735711E+03  0.26310071172E+03 0.  0.
         25    1    3    3    0    0  0.47580666003E+02 -0.32313289945E+02  0.54573584673E+02  0.14810081947E+03  0.12509000000E+03 0.  0.
         25    1    4    4    0    0 -0.49578508570E+02 -0.95877188504E+01 -0.89583045817E+02  0.16193388485E+03  0.12509000000E+03 0.  0.
         25    1    4    4    0    0  0.19978425670E+01  0.41901008796E+02 -0.13457817938E+03  0.18846347226E+03  0.12509000000E+03 0.  0.
<mgrwt>
<rscale>  2 0.46876483E+03</rscale>
<asrwt>0</asrwt>
<pdfrwt beam="1">  1       21 0.24184599E-01 0.46876483E+03</pdfrwt>
<pdfrwt beam="2">  1       21 0.49123956E-01 0.46876483E+03</pdfrwt>
<totfact> 0.58695467E+04</totfact>
</mgrwt>
</event>
<event>
 7    0  0.4714446E-002  0.4568256E+03  0.7546771E-02  0.1025706E+00
         21   -1    0    0  502  501  0.00000000000E+00  0.00000000000E+00  0.74381824103E+02  0.74381824103E+02  0.00000000000E+00 0. -1.
         21   -1    0    0  501  502 -0.00000000000E+00 -0.00000000000E+00 -0.70141323743E+03  0.70141323743E+03  0.00000000000E+00 0. -1.
      99926    2    1    2    0    0  0.00000000000E+00  0.00000000000E+00 -0.62703141332E+03  0.77579506153E+03  0.45682555117E+03 0.  0.
      99925    2    3    3    0    0 -0.23370341145E+02  0.62578808534E+02 -0.23491613635E+03  0.35882482440E+03  0.26288283200E+03 0.  0.
         25    1    4    4    0    0 -0.47190023914E+02  0.19765687315E+02 -0.13813258988E+03  0.19325035896E+03  0.12509000000E+03 0.  0.
         25    1    3    3    0    0  0.23370341145E+02 -0.62578808534E+02 -0.39211527697E+03  0.41697023714E+03  0.12509000000E+03 0.  0.
         25    1    4    4    0    0  0.23819682770E+02  0.42813121219E+02 -0.96783546477E+02  0.16557446544E+03  0.12509000000E+03 0.  0.
<mgrwt>
<rscale>  2 0.45682555E+03</rscale>
<asrwt>0</asrwt>
<pdfrwt beam="1">  1       21 0.10938504E-01 0.45682555E+03</pdfrwt>
<pdfrwt beam="2">  1       21 0.10314900E+00 0.45682555E+03</pdfrwt>
<totfact> 0.48262565E+04</totfact>
</mgrwt>
</event>
<event>
 6    0  0.4714446E-002  0.4530495E+03  0.7546771E-02  0.1026817E+00
         21   -1    0    0  502  501  0.00000000000E+00  0.00000000000E+00  0.14443302579E+03  0.14443302579E+03  0.00000000000E+00 0. -1.
         21   -1    0    0  501  502 -0.00000000000E+00 -0.00000000000E+00 -0.35527519173E+03  0.35527519173E+03  0.00000000000E+00 0. -1.
      99926    2    1    2    0    0  0.71054273576E-14  0.00000000000E+00 -0.21084216594E+03  0.49970821752E+03  0.45304953782E+03 0.  0.
         25    1    3    3    0    0  0.29196197494E+02  0.31048109965E+02 -0.58606428530E+02  0.14456356611E+03  0.12509000000E+03 0.  0.
         25    1    3    3    0    0  0.25296942691E+02 -0.75111656928E+01  0.24971730771E+02  0.13025915844E+03  0.12509000000E+03 0.  0.
         25    1    3    3    0    0 -0.54493140186E+02 -0.23536944272E+02 -0.17720746818E+03  0.22488549298E+03  0.12509000000E+03 0.  0.
<mgrwt>
<rscale>  2 0.45304954E+03</rscale>
<asrwt>0</asrwt>
<pdfrwt beam="1">  1       21 0.21240151E-01 0.45304954E+03</pdfrwt>
<pdfrwt beam="2">  1       21 0.52246351E-01 0.45304954E+03</pdfrwt>
<totfact> 0.66311918E+04</totfact>
</mgrwt>
</event>
<event>
 7    0  0.4714446E-002  0.4549095E+03  0.7546771E-02  0.1026268E+00
         21   -1    0    0  502  501  0.00000000000E+00  0.00000000000E+00  0.67894551977E+03  0.67894551977E+03  0.00000000000E+00 0.  1.
         21   -1    0    0  501  502 -0.00000000000E+00 -0.00000000000E+00 -0.76200021221E+02  0.76200021221E+02  0.00000000000E+00 0.  1.
      99926    2    1    2    0    0  0.00000000000E+00  0.00000000000E+00  0.60274549855E+03  0.75514554099E+03  0.45490949875E+03 0.  0.
      99925    2    3    3    0    0  0.54455215159E+02 -0.85932228707E+02  0.29750803224E+03  0.40993960632E+03  0.26303941377E+03 0.  0.
         25    1    3    3    0    0 -0.54455215159E+02  0.85932228707E+02  0.30523746631E+03  0.34520593467E+03  0.12509000000E+03 0.  0.
         25    1    4    4    0    0  0.25338888789E+02 -0.46596208395E+02  0.90784629761E+02  0.16340937251E+03  0.12509000000E+03 0.  0.
         25    1    4    4    0    0  0.29116326369E+02 -0.39336020312E+02  0.20672340247E+03  0.24653023382E+03  0.12509000000E+03 0.  0.
<mgrwt>
<rscale>  2 0.45490950E+03</rscale>
<asrwt>0</asrwt>
<pdfrwt beam="1">  1       21 0.99844926E-01 0.45490950E+03</pdfrwt>
<pdfrwt beam="2">  1       21 0.11205886E-01 0.45490950E+03</pdfrwt>
<totfact> 0.50044699E+04</totfact>
</mgrwt>
</event>
<event>
 7    0  0.4714446E-002  0.4501866E+03  0.7546771E-02  0.1027666E+00
         21   -1    0    0  502  501  0.00000000000E+00  0.00000000000E+00  0.54464631048E+03  0.54464631048E+03  0.00000000000E+00 0. -1.
         21   -1    0    0  501  502 -0.00000000000E+00 -0.00000000000E+00 -0.93027347049E+02  0.93027347049E+02  0.00000000000E+00 0. -1.
      99926    2    1    2    0    0  0.00000000000E+00  0.00000000000E+00  0.45161896343E+03  0.63767365753E+03  0.45018663394E+03 0.  0.
      99925    2    3    3    0    0  0.40165154114E+02 -0.10086568383E+03  0.28886498205E+03  0.40545933339E+03  0.26299651594E+03 0.  0.
         25    1    4    4    0    0  0.27369676983E+02 -0.12192463444E+02  0.10762243492E+03  0.16771360106E+03  0.12509000000E+03 0.  0.
         25    1    4    4    0    0  0.12795477131E+02 -0.88673220391E+02  0.18124254713E+03  0.23774573233E+03  0.12509000000E+03 0.  0.
         25    1    3    3    0    0 -0.40165154114E+02  0.10086568383E+03  0.16275398138E+03  0.23221432414E+03  0.12509000000E+03 0.  0.
<mgrwt>
<rscale>  2 0.45018663E+03</rscale>
<asrwt>0</asrwt>
<pdfrwt beam="1">  1       21 0.80095044E-01 0.45018663E+03</pdfrwt>
<pdfrwt beam="2">  1       21 0.13680492E-01 0.45018663E+03</pdfrwt>
<totfact> 0.58612184E+04</totfact>
</mgrwt>
</event>
<event>
 7    0  0.4714446E-002  0.4527950E+03  0.7546771E-02  0.1026892E+00
         21   -1    0    0  502  501  0.00000000000E+00  0.00000000000E+00  0.30558442648E+04  0.30558442648E+04  0.00000000000E+00 0.  1.
         21   -1    0    0  501  502 -0.00000000000E+00 -0.00000000000E+00 -0.16773048130E+02  0.16773048130E+02  0.00000000000E+00 0.  1.
      99926    2    1    2    0    0  0.00000000000E+00  0.00000000000E+00  0.30390712167E+04  0.30726173129E+04  0.45279497759E+03 0.  0.
      99925    2    3    3    0    0  0.89698218559E+02 -0.49905099896E+02  0.16263281234E+04  0.16506374098E+04  0.26291520315E+03 0.  0.
         25    1    4    4    0    0  0.20727246436E+02 -0.11927808898E+02  0.57250293828E+03  0.58649724110E+03  0.12509000000E+03 0.  0.
         25    1    4    4    0    0  0.68970972123E+02 -0.37977290998E+02  0.10538251851E+04  0.10641401687E+04  0.12509000000E+03 0.  0.
         25    1    3    3    0    0 -0.89698218559E+02  0.49905099896E+02  0.14127430932E+04  0.14219799032E+04  0.12509000000E+03 0.  0.
<mgrwt>
<rscale>  2 0.45279498E+03</rscale>
<asrwt>0</asrwt>
<pdfrwt beam="1">  1       21 0.44938848E+00 0.45279498E+03</pdfrwt>
<pdfrwt beam="2">  1       21 0.24666268E-02 0.45279498E+03</pdfrwt>
<totfact> 0.29128108E+03</totfact>
</mgrwt>
</event>
<event>
 7    0  0.4714446E-002  0.4238833E+03  0.7546771E-02  0.1035810E+00
         21   -1    0    0  502  501  0.00000000000E+00  0.00000000000E+00  0.68850616813E+02  0.68850616813E+02  0.00000000000E+00 0.  1.
         21   -1    0    0  501  502 -0.00000000000E+00 -0.00000000000E+00 -0.65241640634E+03  0.65241640634E+03  0.00000000000E+00 0.  1.
      99926    2    1    2    0    0  0.00000000000E+00  0.35527136788E-14 -0.58356578953E+03  0.72126702315E+03  0.42388334242E+03 0.  0.
      99925    2    3    3    0    0 -0.74256058046E+02 -0.20981636356E+02 -0.41991344057E+03  0.50130386569E+03  0.26272433645E+03 0.  0.
         25    1    3    3    0    0  0.74256058046E+02  0.20981636356E+02 -0.16365234896E+03  0.21996315746E+03  0.12509000000E+03 0.  0.
         25    1    4    4    0    0 -0.29736573609E+02  0.25259591065E+02 -0.23430123679E+03  0.26845276756E+03  0.12509000000E+03 0.  0.
         25    1    4    4    0    0 -0.44519484436E+02 -0.46241227421E+02 -0.18561220378E+03  0.23285109813E+03  0.12509000000E+03 0.  0.
<mgrwt>
<rscale>  2 0.42388334E+03</rscale>
<asrwt>0</asrwt>
<pdfrwt beam="1">  1       21 0.10125091E-01 0.42388334E+03</pdfrwt>
<pdfrwt beam="2">  1       21 0.95943587E-01 0.42388334E+03</pdfrwt>
<totfact> 0.66634856E+04</totfact>
</mgrwt>
</event>
<event>
 7    0  0.4714446E-002  0.4505817E+03  0.7546771E-02  0.1027549E+00
         21   -1    0    0  502  501  0.00000000000E+00  0.00000000000E+00  0.43767465119E+02  0.43767465119E+02  0.00000000000E+00 0. -1.
         21   -1    0    0  501  502 -0.00000000000E+00 -0.00000000000E+00 -0.11596736307E+04  0.11596736307E+04  0.00000000000E+00 0. -1.
      99926    2    1    2    0    0  0.00000000000E+00  0.00000000000E+00 -0.11159061656E+04  0.12034410959E+04  0.45058173591E+03 0.  0.
      99925    2    3    3    0    0  0.43682148149E+02 -0.47326731204E+02 -0.47037022648E+03  0.54275046752E+03  0.26302465755E+03 0.  0.
         25    1    4    4    0    0  0.27454815366E+02  0.20983497999E+00 -0.16434182131E+03  0.20834959383E+03  0.12509000000E+03 0.  0.
         25    1    4    4    0    0  0.16227332782E+02 -0.47536566184E+02 -0.30602840517E+03  0.33440087369E+03  0.12509000000E+03 0.  0.
         25    1    3    3    0    0 -0.43682148149E+02  0.47326731204E+02 -0.64553593915E+03  0.66069062835E+03  0.12509000000E+03 0.  0.
<mgrwt>
<rscale>  2 0.45058174E+03</rscale>
<asrwt>0</asrwt>
<pdfrwt beam="1">  1       21 0.64363926E-02 0.45058174E+03</pdfrwt>
<pdfrwt beam="2">  1       21 0.17054022E+00 0.45058174E+03</pdfrwt>
<totfact> 0.33174203E+04</totfact>
</mgrwt>
</event>
<event>
 7    0  0.4714446E-002  0.4412425E+03  0.7546771E-02  0.1030366E+00
         21   -1    0    0  502  501  0.00000000000E+00  0.00000000000E+00  0.25887430926E+03  0.25887430926E+03  0.00000000000E+00 0. -1.
         21   -1    0    0  501  502 -0.00000000000E+00 -0.00000000000E+00 -0.18802072416E+03  0.18802072416E+03  0.00000000000E+00 0. -1.
      99926    2    1    2    0    0  0.14210854715E-13 -0.71054273576E-14  0.70853585108E+02  0.44689503342E+03  0.44124249611E+03 0.  0.
      99925    2    3    3    0    0 -0.79327786508E+02  0.52340739744E+02  0.75577816873E+02  0.28972545235E+03  0.26305204919E+03 0.  0.
         25    1    4    4    0    0 -0.33792939793E+02 -0.78366692285E+01  0.59356378988E+02  0.14273774550E+03  0.12509000000E+03 0.  0.
         25    1    3    3    0    0  0.79327786508E+02 -0.52340739744E+02 -0.47242317648E+01  0.15716958107E+03  0.12509000000E+03 0.  0.
         25    1    4    4    0    0 -0.45534846715E+02  0.60177408972E+02  0.16221437885E+02  0.14698770684E+03  0.12509000000E+03 0.  0.
<mgrwt>
<rscale>  2 0.44124250E+03</rscale>
<asrwt>0</asrwt>
<pdfrwt beam="1">  1       21 0.38069752E-01 0.44124250E+03</pdfrwt>
<pdfrwt beam="2">  1       21 0.27650106E-01 0.44124250E+03</pdfrwt>
<totfact> 0.77283317E+04</totfact>
</mgrwt>
</event>
<event>
 7    0  0.4714446E-002  0.4524041E+03  0.7546771E-02  0.1027008E+00
         21   -1    0    0  502  501  0.00000000000E+00  0.00000000000E+00  0.30869752565E+02  0.30869752565E+02  0.00000000000E+00 0. -1.
         21   -1    0    0  501  502 -0.00000000000E+00 -0.00000000000E+00 -0.16575244426E+04  0.16575244426E+04  0.00000000000E+00 0. -1.
      99926    2    1    2    0    0  0.00000000000E+00  0.00000000000E+00 -0.16266546900E+04  0.16883941951E+04  0.45240410879E+03 0.  0.
      99925    2    3    3    0    0  0.10531080889E+03 -0.24264231143E+02 -0.11149126800E+04  0.11506149539E+04  0.26306913306E+03 0.  0.
         25    1    4    4    0    0  0.83338662886E+02  0.88082452407E+01 -0.51764019075E+03  0.53909349198E+03  0.12509000000E+03 0.  0.
         25    1    4    4    0    0  0.21972146001E+02 -0.33072476384E+02 -0.59727248923E+03  0.61152146191E+03  0.12509000000E+03 0.  0.
         25    1    3    3    0    0 -0.10531080889E+03  0.24264231143E+02 -0.51174201001E+03  0.53777924122E+03  0.12509000000E+03 0.  0.
<mgrwt>
<rscale>  2 0.45240411E+03</rscale>
<asrwt>0</asrwt>
<pdfrwt beam="1">  1       21 0.45396704E-02 0.45240411E+03</pdfrwt>
<pdfrwt beam="2">  1       21 0.24375355E+00 0.45240411E+03</pdfrwt>
<totfact> 0.19902251E+04</totfact>
</mgrwt>
</event>
<event>
 7    0  0.4714446E-002  0.4516103E+03  0.7546771E-02  0.1027243E+00
         21   -1    0    0  502  501  0.00000000000E+00  0.00000000000E+00  0.92317831552E+02  0.92317831552E+02  0.00000000000E+00 0. -1.
         21   -1    0    0  501  502 -0.00000000000E+00 -0.00000000000E+00 -0.55230891584E+03  0.55230891584E+03  0.00000000000E+00 0. -1.
      99926    2    1    2    0    0  0.00000000000E+00  0.00000000000E+00 -0.45999108428E+03  0.64462674739E+03  0.45161028091E+03 0.  0.
      99925    2    3    3    0    0  0.85093409139E+02  0.24536039696E+02 -0.19737098414E+03  0.34055483053E+03  0.26301973632E+03 0.  0.
         25    1    3    3    0    0 -0.85093409139E+02 -0.24536039696E+02 -0.26262010014E+03  0.30407191686E+03  0.12509000000E+03 0.  0.
         25    1    4    4    0    0  0.46783953290E+01  0.11007634064E+02 -0.11327796978E+03  0.16918174230E+03  0.12509000000E+03 0.  0.
         25    1    4    4    0    0  0.80415013810E+02  0.13528405632E+02 -0.84093014363E+02  0.17137308823E+03  0.12509000000E+03 0.  0.
<mgrwt>
<rscale>  2 0.45161028E+03</rscale>
<asrwt>0</asrwt>
<pdfrwt beam="1">  1       21 0.13576152E-01 0.45161028E+03</pdfrwt>
<pdfrwt beam="2">  1       21 0.81221896E-01 0.45161028E+03</pdfrwt>
<totfact> 0.57535542E+04</totfact>
</mgrwt>
</event>
<event>
 7    0  0.4714446E-002  0.4557837E+03  0.7546771E-02  0.1026011E+00
         21   -1    0    0  502  501  0.00000000000E+00  0.00000000000E+00  0.11690210347E+03  0.11690210347E+03  0.00000000000E+00 0. -1.
         21   -1    0    0  501  502 -0.00000000000E+00 -0.00000000000E+00 -0.44425801478E+03  0.44425801478E+03  0.00000000000E+00 0. -1.
      99926    2    1    2    0    0 -0.14210854715E-13  0.00000000000E+00 -0.32735591131E+03  0.56116011826E+03  0.45578370490E+03 0.  0.
      99925    2    3    3    0    0 -0.78049701593E+02  0.24053773736E+02 -0.30369603208E+03  0.40990656314E+03  0.26291019504E+03 0.  0.
         25    1    4    4    0    0 -0.10417290258E+02  0.64672890128E+01 -0.98764371081E+02  0.15985072680E+03  0.12509000000E+03 0.  0.
         25    1    3    3    0    0  0.78049701593E+02 -0.24053773736E+02 -0.23659879224E+02  0.15125355511E+03  0.12509000000E+03 0.  0.
         25    1    4    4    0    0 -0.67632411335E+02  0.17586484723E+02 -0.20493166100E+03  0.25005583634E+03  0.12509000000E+03 0.  0.
<mgrwt>
<rscale>  2 0.45578370E+03</rscale>
<asrwt>0</asrwt>
<pdfrwt beam="1">  1       21 0.17191486E-01 0.45578370E+03</pdfrwt>
<pdfrwt beam="2">  1       21 0.65332059E-01 0.45578370E+03</pdfrwt>
<totfact> 0.60757509E+04</totfact>
</mgrwt>
</event>
<event>
 6    0  0.4714446E-002  0.4398730E+03  0.7546771E-02  0.1030786E+00
         21   -1    0    0  502  501  0.00000000000E+00  0.00000000000E+00  0.53201113461E+02  0.53201113461E+02  0.00000000000E+00 0.  1.
         21   -1    0    0  501  502 -0.00000000000E+00 -0.00000000000E+00 -0.90923024605E+03  0.90923024605E+03  0.00000000000E+00 0.  1.
      99926    2    1    2    0    0  0.00000000000E+00  0.00000000000E+00 -0.85602913259E+03  0.96243135951E+03  0.43987298841E+03 0.  0.
         25    1    3    3    0    0 -0.67581200235E+02 -0.67272521363E+01 -0.26155558266E+03  0.29777727493E+03  0.12509000000E+03 0.  0.
         25    1    3    3    0    0 -0.24009372418E+02 -0.12319084512E+02 -0.36735660942E+03  0.38900719324E+03  0.12509000000E+03 0.  0.
         25    1    3    3    0    0  0.91590572653E+02  0.19046336648E+02 -0.22711694051E+03  0.27564689134E+03  0.12509000000E+03 0.  0.
<mgrwt>
<rscale>  2 0.43987299E+03</rscale>
<asrwt>0</asrwt>
<pdfrwt beam="1">  1       21 0.78236935E-02 0.43987299E+03</pdfrwt>
<pdfrwt beam="2">  1       21 0.13371032E+00 0.43987299E+03</pdfrwt>
<totfact> 0.45826059E+04</totfact>
</mgrwt>
</event>
<event>
 7    0  0.4714446E-002  0.4545628E+03  0.7546771E-02  0.1026370E+00
         21   -1    0    0  502  501  0.00000000000E+00  0.00000000000E+00  0.17613834471E+03  0.17613834471E+03  0.00000000000E+00 0. -1.
         21   -1    0    0  501  502 -0.00000000000E+00 -0.00000000000E+00 -0.29327416052E+03  0.29327416052E+03  0.00000000000E+00 0. -1.
      99926    2    1    2    0    0  0.00000000000E+00  0.00000000000E+00 -0.11713581581E+03  0.46941250523E+03  0.45456275774E+03 0.  0.
      99925    2    3    3    0    0  0.93155131573E+02 -0.63255072674E+02 -0.67295146608E+02  0.29388278363E+03  0.26298169328E+03 0.  0.
         25    1    4    4    0    0  0.70379385507E+02  0.11588579975E+01 -0.34848503266E+02  0.14770418794E+03  0.12509000000E+03 0.  0.
         25    1    3    3    0    0 -0.93155131573E+02  0.63255072674E+02 -0.49840669203E+02  0.17552972160E+03  0.12509000000E+03 0.  0.
         25    1    4    4    0    0  0.22775746066E+02 -0.64413930671E+02 -0.32446643342E+02  0.14617859569E+03  0.12509000000E+03 0.  0.
<mgrwt>
<rscale>  2 0.45456276E+03</rscale>
<asrwt>0</asrwt>
<pdfrwt beam="1">  1       21 0.25902698E-01 0.45456276E+03</pdfrwt>
<pdfrwt beam="2">  1       21 0.43128553E-01 0.45456276E+03</pdfrwt>
<totfact> 0.67714009E+04</totfact>
</mgrwt>
</event>
<event>
 7    0  0.4714446E-002  0.4520094E+03  0.7546771E-02  0.1027125E+00
         21   -1    0    0  502  501  0.00000000000E+00  0.00000000000E+00  0.81468406638E+03  0.81468406638E+03  0.00000000000E+00 0.  1.
         21   -1    0    0  501  502 -0.00000000000E+00 -0.00000000000E+00 -0.62696839874E+02  0.62696839874E+02  0.00000000000E+00 0.  1.
      99926    2    1    2    0    0 -0.17763568394E-14  0.00000000000E+00  0.75198722650E+03  0.87738090625E+03  0.45200936476E+03 0.  0.
      99925    2    3    3    0    0  0.11121000620E+02  0.87805933096E+01  0.68692293078E+03  0.73567118128E+03  0.26296045075E+03 0.  0.
         25    1    4    4    0    0  0.26006318181E+02 -0.49614796904E+01  0.43898936224E+03  0.45723091883E+03  0.12509000000E+03 0.  0.
         25    1    4    4    0    0 -0.14885317561E+02  0.13742073000E+02  0.24793356854E+03  0.27844026246E+03  0.12509000000E+03 0.  0.
         25    1    3    3    0    0 -0.11121000620E+02 -0.87805933096E+01  0.65064295723E+02  0.14170972497E+03  0.12509000000E+03 0.  0.
<mgrwt>
<rscale>  2 0.45200936E+03</rscale>
<asrwt>0</asrwt>
<pdfrwt beam="1">  1       21 0.11980647E+00 0.45200936E+03</pdfrwt>
<pdfrwt beam="2">  1       21 0.92201240E-02 0.45200936E+03</pdfrwt>
<totfact> 0.45277411E+04</totfact>
</mgrwt>
</event>
<event>
 7    0  0.4714446E-002  0.4548969E+03  0.7546771E-02  0.1026272E+00
         21   -1    0    0  502  501  0.00000000000E+00  0.00000000000E+00  0.12737310934E+03  0.12737310934E+03  0.00000000000E+00 0. -1.
         21   -1    0    0  501  502 -0.00000000000E+00 -0.00000000000E+00 -0.40615158403E+03  0.40615158403E+03  0.00000000000E+00 0. -1.
      99926    2    1    2    0    0  0.00000000000E+00  0.00000000000E+00 -0.27877847469E+03  0.53352469338E+03  0.45489686797E+03 0.  0.
      99925    2    3    3    0    0 -0.11623317494E+02 -0.11136152262E+03 -0.15717078708E+03  0.32622677246E+03  0.26302996128E+03 0.  0.
         25    1    3    3    0    0  0.11623317494E+02  0.11136152262E+03 -0.12160768761E+03  0.20729792091E+03  0.12509000000E+03 0.  0.
         25    1    4    4    0    0 -0.11810496321E+02 -0.80734090374E+02 -0.12167655451E+03  0.19264000932E+03  0.12509000000E+03 0.  0.
         25    1    4    4    0    0  0.18717882667E+00 -0.30627432246E+02 -0.35494232567E+02  0.13358676314E+03  0.12509000000E+03 0.  0.
<mgrwt>
<rscale>  2 0.45489687E+03</rscale>
<asrwt>0</asrwt>
<pdfrwt beam="1">  1       21 0.18731339E-01 0.45489687E+03</pdfrwt>
<pdfrwt beam="2">  1       21 0.59728175E-01 0.45489687E+03</pdfrwt>
<totfact> 0.63019943E+04</totfact>
</mgrwt>
</event>
<event>
 7    0  0.4714446E-002  0.4603968E+03  0.7546771E-02  0.1024666E+00
         21   -1    0    0  502  501  0.00000000000E+00  0.00000000000E+00  0.19126428970E+03  0.19126428970E+03  0.00000000000E+00 0. -1.
         21   -1    0    0  501  502 -0.00000000000E+00 -0.00000000000E+00 -0.27705804085E+03  0.27705804085E+03  0.00000000000E+00 0. -1.
      99926    2    1    2    0    0  0.35527136788E-14  0.00000000000E+00 -0.85793751143E+02  0.46832233055E+03  0.46039682618E+03 0.  0.
      99925    2    3    3    0    0  0.27906773676E+02  0.50545890093E+02  0.51168555442E+02  0.27405484344E+03  0.26297178770E+03 0.  0.
         25    1    4    4    0    0 -0.17897499614E+02  0.31510225185E+02  0.49949889999E+02  0.13948374240E+03  0.12509000000E+03 0.  0.
         25    1    3    3    0    0 -0.27906773676E+02 -0.50545890093E+02 -0.13696230659E+03  0.19426748711E+03  0.12509000000E+03 0.  0.
         25    1    4    4    0    0  0.45804273290E+02  0.19035664908E+02  0.12186654425E+01  0.13457110104E+03  0.12509000000E+03 0.  0.
<mgrwt>
<rscale>  2 0.46039683E+03</rscale>
<asrwt>0</asrwt>
<pdfrwt beam="1">  1       21 0.28127102E-01 0.46039683E+03</pdfrwt>
<pdfrwt beam="2">  1       21 0.40743829E-01 0.46039683E+03</pdfrwt>
<totfact> 0.64741869E+04</totfact>
</mgrwt>
</event>
<event>
 7    0  0.4714446E-002  0.4541788E+03  0.7546771E-02  0.1026483E+00
         21   -1    0    0  502  501  0.00000000000E+00  0.00000000000E+00  0.38732733467E+03  0.38732733467E+03  0.00000000000E+00 0. -1.
         21   -1    0    0  501  502 -0.00000000000E+00 -0.00000000000E+00 -0.13314213340E+03  0.13314213340E+03  0.00000000000E+00 0. -1.
      99926    2    1    2    0    0  0.14210854715E-13  0.48849813084E-14  0.25418520127E+03  0.52046946806E+03  0.45417876507E+03 0.  0.
      99925    2    3    3    0    0  0.78150029847E+02  0.29902634863E+01  0.25261339215E+03  0.37293524314E+03  0.26296539856E+03 0.  0.
         25    1    4    4    0    0  0.61738342979E+02 -0.31769124397E+02  0.14219646047E+03  0.20171326612E+03  0.12509000000E+03 0.  0.
         25    1    3    3    0    0 -0.78150029847E+02 -0.29902634863E+01  0.15718091163E+01  0.14753422493E+03  0.12509000000E+03 0.  0.
         25    1    4    4    0    0  0.16411686868E+02  0.34759387883E+02  0.11041693168E+03  0.17122197701E+03  0.12509000000E+03 0.  0.
<mgrwt>
<rscale>  2 0.45417877E+03</rscale>
<asrwt>0</asrwt>
<pdfrwt beam="1">  1       21 0.56959902E-01 0.45417877E+03</pdfrwt>
<pdfrwt beam="2">  1       21 0.19579726E-01 0.45417877E+03</pdfrwt>
<totfact> 0.64273022E+04</totfact>
</mgrwt>
</event>
<event>
 7    0  0.4714446E-002  0.4524797E+03  0.7546771E-02  0.1026985E+00
         21   -1    0    0  502  501  0.00000000000E+00  0.00000000000E+00  0.91002941426E+02  0.91002941426E+02  0.00000000000E+00 0. -1.
         21   -1    0    0  501  502 -0.00000000000E+00 -0.00000000000E+00 -0.56244849604E+03  0.56244849604E+03  0.00000000000E+00 0. -1.
      99926    2    1    2    0    0  0.00000000000E+00  0.00000000000E+00 -0.47144555462E+03  0.65345143747E+03  0.45247969033E+03 0.  0.
      99925    2    3    3    0    0 -0.27774896444E+02  0.79013526408E+02 -0.19265830335E+03  0.33661643025E+03  0.26301866291E+03 0.  0.
         25    1    3    3    0    0  0.27774896444E+02 -0.79013526408E+02 -0.27878725127E+03  0.31683500722E+03  0.12509000000E+03 0.  0.
         25    1    4    4    0    0 -0.25002974844E+01  0.16592626277E+01 -0.69529632342E+02  0.14314636745E+03  0.12509000000E+03 0.  0.
         25    1    4    4    0    0 -0.25274598960E+02  0.77354263781E+02 -0.12312867101E+03  0.19347006280E+03  0.12509000000E+03 0.  0.
<mgrwt>
<rscale>  2 0.45247969E+03</rscale>
<asrwt>0</asrwt>
<pdfrwt beam="1">  1       21 0.13382785E-01 0.45247969E+03</pdfrwt>
<pdfrwt beam="2">  1       21 0.82713016E-01 0.45247969E+03</pdfrwt>
<totfact> 0.56620332E+04</totfact>
</mgrwt>
</event>
<event>
 7    0  0.4714446E-002  0.4553085E+03  0.7546771E-02  0.1026151E+00
         21   -1    0    0  502  501  0.00000000000E+00  0.00000000000E+00  0.44912113215E+03  0.44912113215E+03  0.00000000000E+00 0. -1.
         21   -1    0    0  501  502 -0.00000000000E+00 -0.00000000000E+00 -0.11539529046E+03  0.11539529046E+03  0.00000000000E+00 0. -1.
      99926    2    1    2    0    0  0.00000000000E+00  0.00000000000E+00  0.33372584169E+03  0.56451642261E+03  0.45530852615E+03 0.  0.
      99925    2    3    3    0    0  0.34359965454E+02 -0.47009206387E+02  0.33067342728E+03  0.42650447369E+03  0.26300318982E+03 0.  0.
         25    1    3    3    0    0 -0.34359965454E+02  0.47009206387E+02  0.30524144073E+01  0.13801194892E+03  0.12509000000E+03 0.  0.
         25    1    4    4    0    0 -0.70757180711E+01 -0.50457515210E+02  0.13842167574E+03  0.19340138325E+03  0.12509000000E+03 0.  0.
         25    1    4    4    0    0  0.41435683525E+02  0.34483088223E+01  0.19225175154E+03  0.23310309044E+03  0.12509000000E+03 0.  0.
<mgrwt>
<rscale>  2 0.45530853E+03</rscale>
<asrwt>0</asrwt>
<pdfrwt beam="1">  1       21 0.66047225E-01 0.45530853E+03</pdfrwt>
<pdfrwt beam="2">  1       21 0.16969896E-01 0.45530853E+03</pdfrwt>
<totfact> 0.60768906E+04</totfact>
</mgrwt>
</event>
<event>
 7    0  0.4714446E-002  0.4541922E+03  0.7546771E-02  0.1026479E+00
         21   -1    0    0  502  501  0.00000000000E+00  0.00000000000E+00  0.27623067650E+03  0.27623067650E+03  0.00000000000E+00 0. -1.
         21   -1    0    0  501  502 -0.00000000000E+00 -0.00000000000E+00 -0.18670131537E+03  0.18670131537E+03  0.00000000000E+00 0. -1.
      99926    2    1    2    0    0 -0.14210854715E-13  0.00000000000E+00  0.89529361127E+02  0.46293199187E+03  0.45419216483E+03 0.  0.
      99925    2    3    3    0    0  0.10633860805E+03  0.19925386910E+02  0.87976291779E+02  0.29753900311E+03  0.26283970372E+03 0.  0.
         25    1    4    4    0    0  0.55458381844E+02 -0.57983100122E+01  0.51641214277E+01  0.13705264961E+03  0.12509000000E+03 0.  0.
         25    1    4    4    0    0  0.50880226203E+02  0.25723696923E+02  0.82812170351E+02  0.16048635350E+03  0.12509000000E+03 0.  0.
         25    1    3    3    0    0 -0.10633860805E+03 -0.19925386910E+02  0.15530693480E+01  0.16539298875E+03  0.12509000000E+03 0.  0.
<mgrwt>
<rscale>  2 0.45419216E+03</rscale>
<asrwt>0</asrwt>
<pdfrwt beam="1">  1       21 0.40622158E-01 0.45419216E+03</pdfrwt>
<pdfrwt beam="2">  1       21 0.27456076E-01 0.45419216E+03</pdfrwt>
<totfact> 0.68402206E+04</totfact>
</mgrwt>
</event>
<event>
 7    0  0.4714446E-002  0.4530687E+03  0.7546771E-02  0.1026811E+00
         21   -1    0    0  502  501  0.00000000000E+00  0.00000000000E+00  0.22313825188E+03  0.22313825188E+03  0.00000000000E+00 0.  1.
         21   -1    0    0  501  502 -0.00000000000E+00 -0.00000000000E+00 -0.22998212501E+03  0.22998212501E+03  0.00000000000E+00 0.  1.
      99926    2    1    2    0    0 -0.14210854715E-13  0.00000000000E+00 -0.68438731215E+01  0.45312037689E+03  0.45306868944E+03 0.  0.
      99925    2    3    3    0    0  0.81894567186E+02  0.48763687551E+02 -0.61882270182E+02  0.28650299902E+03  0.26300177894E+03 0.  0.
         25    1    3    3    0    0 -0.81894567186E+02 -0.48763687551E+02  0.55038397060E+02  0.16661737787E+03  0.12509000000E+03 0.  0.
         25    1    4    4    0    0  0.45776458251E+02  0.50450003543E+02 -0.64281621941E+02  0.15627002914E+03  0.12509000000E+03 0.  0.
         25    1    4    4    0    0  0.36118108935E+02 -0.16863159914E+01  0.23993517590E+01  0.13023296988E+03  0.12509000000E+03 0.  0.
<mgrwt>
<rscale>  2 0.45306869E+03</rscale>
<asrwt>0</asrwt>
<pdfrwt beam="1">  1       21 0.32814449E-01 0.45306869E+03</pdfrwt>
<pdfrwt beam="2">  1       21 0.33820901E-01 0.45306869E+03</pdfrwt>
<totfact> 0.69752404E+04</totfact>
</mgrwt>
</event>
<event>
 7    0  0.4714446E-002  0.4529718E+03  0.7546771E-02  0.1026840E+00
         21   -1    0    0  502  501  0.00000000000E+00  0.00000000000E+00  0.71892618448E+02  0.71892618448E+02  0.00000000000E+00 0.  1.
         21   -1    0    0  501  502 -0.00000000000E+00 -0.00000000000E+00 -0.71350653425E+03  0.71350653425E+03  0.00000000000E+00 0.  1.
      99926    2    1    2    0    0  0.71054273576E-14  0.71054273576E-14 -0.64161391580E+03  0.78539915270E+03  0.45297175641E+03 0.  0.
      99925    2    3    3    0    0  0.42010589120E+02  0.44477635286E+02 -0.24316219107E+03  0.36331570754E+03  0.26292071531E+03 0.  0.
         25    1    4    4    0    0  0.30298143642E+02  0.16002888115E+02 -0.69671877072E+02  0.14722686063E+03  0.12509000000E+03 0.  0.
         25    1    3    3    0    0 -0.42010589120E+02 -0.44477635286E+02 -0.39845172473E+03  0.42208344516E+03  0.12509000000E+03 0.  0.
         25    1    4    4    0    0  0.11712445478E+02  0.28474747171E+02 -0.17349031400E+03  0.21608884691E+03  0.12509000000E+03 0.  0.
<mgrwt>
<rscale>  2 0.45297176E+03</rscale>
<asrwt>0</asrwt>
<pdfrwt beam="1">  1       21 0.10572443E-01 0.45297176E+03</pdfrwt>
<pdfrwt beam="2">  1       21 0.10492744E+00 0.45297176E+03</pdfrwt>
<totfact> 0.49258668E+04</totfact>
</mgrwt>
</event>
<event>
 7    0  0.4714446E-002  0.4530543E+03  0.7546771E-02  0.1026815E+00
         21   -1    0    0  502  501  0.00000000000E+00  0.00000000000E+00  0.57262681013E+02  0.57262681013E+02  0.00000000000E+00 0. -1.
         21   -1    0    0  501  502 -0.00000000000E+00 -0.00000000000E+00 -0.89612565288E+03  0.89612565288E+03  0.00000000000E+00 0. -1.
      99926    2    1    2    0    0 -0.35527136788E-14  0.00000000000E+00 -0.83886297187E+03  0.95338833389E+03  0.45305433409E+03 0.  0.
      99925    2    3    3    0    0 -0.26250810254E+02 -0.16462287883E+02 -0.75382787598E+03  0.79899083523E+03  0.26300147569E+03 0.  0.
         25    1    4    4    0    0 -0.28626453668E+02  0.28420239559E+02 -0.39853595186E+03  0.41964937375E+03  0.12509000000E+03 0.  0.
         25    1    4    4    0    0  0.23756434133E+01 -0.44882527442E+02 -0.35529192412E+03  0.37934146148E+03  0.12509000000E+03 0.  0.
         25    1    3    3    0    0  0.26250810254E+02  0.16462287883E+02 -0.85035095892E+02  0.15439749867E+03  0.12509000000E+03 0.  0.
<mgrwt>
<rscale>  2 0.45305433E+03</rscale>
<asrwt>0</asrwt>
<pdfrwt beam="1">  1       21 0.84209832E-02 0.45305433E+03</pdfrwt>
<pdfrwt beam="2">  1       21 0.13178317E+00 0.45305433E+03</pdfrwt>
<totfact> 0.41633737E+04</totfact>
</mgrwt>
</event>
<event>
 7    0  0.4714446E-002  0.4565023E+03  0.7546771E-02  0.1025801E+00
         21   -1    0    0  502  501  0.00000000000E+00  0.00000000000E+00  0.50146594384E+03  0.50146594384E+03  0.00000000000E+00 0.  1.
         21   -1    0    0  501  502 -0.00000000000E+00 -0.00000000000E+00 -0.10389256238E+03  0.10389256238E+03  0.00000000000E+00 0.  1.
      99926    2    1    2    0    0 -0.14210854715E-13 -0.35527136788E-14  0.39757338146E+03  0.60535850622E+03  0.45650227537E+03 0.  0.
      99925    2    3    3    0    0 -0.10933444231E+03 -0.27940563075E+02  0.22360122829E+03  0.36318395447E+03  0.26300262384E+03 0.  0.
         25    1    4    4    0    0 -0.66276245480E+02 -0.16283919484E+02  0.65857632691E+02  0.15697911527E+03  0.12509000000E+03 0.  0.
         25    1    3    3    0    0  0.10933444231E+03  0.27940563075E+02  0.17397215317E+03  0.24217455176E+03  0.12509000000E+03 0.  0.
         25    1    4    4    0    0 -0.43058196833E+02 -0.11656643590E+02  0.15774359560E+03  0.20620483919E+03  0.12509000000E+03 0.  0.
<mgrwt>
<rscale>  2 0.45650228E+03</rscale>
<asrwt>0</asrwt>
<pdfrwt beam="1">  1       21 0.73744991E-01 0.45650228E+03</pdfrwt>
<pdfrwt beam="2">  1       21 0.15278318E-01 0.45650228E+03</pdfrwt>
<totfact> 0.57662251E+04</totfact>
</mgrwt>
</event>
<event>
 7    0  0.4714446E-002  0.4617957E+03  0.7546771E-02  0.1024262E+00
         21   -1    0    0  502  501  0.00000000000E+00  0.00000000000E+00  0.22993403622E+04  0.22993403622E+04  0.00000000000E+00 0.  1.
         21   -1    0    0  501  502 -0.00000000000E+00 -0.00000000000E+00 -0.23186566534E+02  0.23186566534E+02  0.00000000000E+00 0.  1.
      99926    2    1    2    0    0  0.14210854715E-13 -0.88817841970E-15  0.22761537957E+04  0.23225269287E+04  0.46179566170E+03 0.  0.
      99925    2    3    3    0    0  0.11652803703E+03  0.48994533639E+01  0.15513290099E+04  0.15777979403E+04  0.26310046635E+03 0.  0.
         25    1    3    3    0    0 -0.11652803703E+03 -0.48994533639E+01  0.72482478573E+03  0.74472898840E+03  0.12509000000E+03 0.  0.
         25    1    4    4    0    0  0.92375595687E+02 -0.14130159061E+02  0.73860281624E+03  0.75492684436E+03  0.12509000000E+03 0.  0.
         25    1    4    4    0    0  0.24152441341E+02  0.19029612425E+02  0.81272619368E+03  0.82287109596E+03  0.12509000000E+03 0.  0.
<mgrwt>
<rscale>  2 0.46179566E+03</rscale>
<asrwt>0</asrwt>
<pdfrwt beam="1">  1       21 0.33813813E+00 0.46179566E+03</pdfrwt>
<pdfrwt beam="2">  1       21 0.34097908E-02 0.46179566E+03</pdfrwt>
<totfact> 0.86564804E+03</totfact>
</mgrwt>
</event>
<event>
 7    0  0.4714446E-002  0.4453557E+03  0.7546771E-02  0.1029116E+00
         21   -1    0    0  502  501  0.00000000000E+00  0.00000000000E+00  0.12124992382E+03  0.12124992382E+03  0.00000000000E+00 0. -1.
         21   -1    0    0  501  502 -0.00000000000E+00 -0.00000000000E+00 -0.40895225206E+03  0.40895225206E+03  0.00000000000E+00 0. -1.
      99926    2    1    2    0    0  0.00000000000E+00  0.00000000000E+00 -0.28770232824E+03  0.53020217587E+03  0.44535572032E+03 0.  0.
      99925    2    3    3    0    0  0.35887897818E+02 -0.85994825483E+02 -0.12928635358E+03  0.30788218049E+03  0.26342631725E+03 0.  0.
         25    1    4    4    0    0 -0.36992414854E+00 -0.63167881816E+02 -0.10080544284E+03  0.17262550085E+03  0.12509000000E+03 0.  0.
         25    1    4    4    0    0  0.36257821967E+02 -0.22826943667E+02 -0.28480910741E+02  0.13525667964E+03  0.12509000000E+03 0.  0.
         25    1    3    3    0    0 -0.35887897818E+02  0.85994825483E+02 -0.15841597467E+03  0.22231999539E+03  0.12509000000E+03 0.  0.
<mgrwt>
<rscale>  2 0.44535572E+03</rscale>
<asrwt>0</asrwt>
<pdfrwt beam="1">  1       21 0.17830871E-01 0.44535572E+03</pdfrwt>
<pdfrwt beam="2">  1       21 0.60140037E-01 0.44535572E+03</pdfrwt>
<totfact> 0.68257602E+04</totfact>
</mgrwt>
</event>
<event>
 7    0  0.4714446E-002  0.4625619E+03  0.7546771E-02  0.1024041E+00
         21   -1    0    0  502  501  0.00000000000E+00  0.00000000000E+00  0.57966969365E+03  0.57966969365E+03  0.00000000000E+00 0. -1.
         21   -1    0    0  501  502 -0.00000000000E+00 -0.00000000000E+00 -0.92278191090E+02  0.92278191090E+02  0.00000000000E+00 0. -1.
      99926    2    1    2    0    0  0.00000000000E+00 -0.35527136788E-14  0.48739150256E+03  0.67194788474E+03  0.46256186942E+03 0.  0.
      99925    2    3    3    0    0  0.29571259730E+02  0.19376721432E+02  0.13784516345E+03  0.29901348297E+03  0.26297881507E+03 0.  0.
         25    1    4    4    0    0  0.39398323368E+02  0.34210819583E+02  0.47230586743E+02  0.14352994282E+03  0.12509000000E+03 0.  0.
         25    1    4    4    0    0 -0.98270636379E+01 -0.14834098151E+02  0.90614576705E+02  0.15548354015E+03  0.12509000000E+03 0.  0.
         25    1    3    3    0    0 -0.29571259730E+02 -0.19376721432E+02  0.34954633911E+03  0.37293440177E+03  0.12509000000E+03 0.  0.
<mgrwt>
<rscale>  2 0.46256187E+03</rscale>
<asrwt>0</asrwt>
<pdfrwt beam="1">  1       21 0.85245542E-01 0.46256187E+03</pdfrwt>
<pdfrwt beam="2">  1       21 0.13570322E-01 0.46256187E+03</pdfrwt>
<totfact> 0.51324238E+04</totfact>
</mgrwt>
</event>
<event>
 7    0  0.4714446E-002  0.4520566E+03  0.7546771E-02  0.1027111E+00
         21   -1    0    0  502  501  0.00000000000E+00  0.00000000000E+00  0.24409606224E+03  0.24409606224E+03  0.00000000000E+00 0.  1.
         21   -1    0    0  501  502 -0.00000000000E+00 -0.00000000000E+00 -0.20929790175E+03  0.20929790175E+03  0.00000000000E+00 0.  1.
      99926    2    1    2    0    0  0.00000000000E+00 -0.35527136788E-14  0.34798160484E+02  0.45339396399E+03  0.45205660553E+03 0.  0.
      99925    2    3    3    0    0  0.35641295564E+02 -0.22151270372E+02 -0.80552482174E+02  0.27813912214E+03  0.26289101954E+03 0.  0.
         25    1    4    4    0    0  0.46819445758E+02  0.12965151856E+01 -0.14614685084E+02  0.13436829452E+03  0.12509000000E+03 0.  0.
         25    1    3    3    0    0 -0.35641295564E+02  0.22151270372E+02  0.11535064266E+03  0.17525484185E+03  0.12509000000E+03 0.  0.
         25    1    4    4    0    0 -0.11178150194E+02 -0.23447785558E+02 -0.65937797090E+02  0.14377082762E+03  0.12509000000E+03 0.  0.
<mgrwt>
<rscale>  2 0.45205661E+03</rscale>
<asrwt>0</asrwt>
<pdfrwt beam="1">  1       21 0.35896480E-01 0.45205661E+03</pdfrwt>
<pdfrwt beam="2">  1       21 0.30779103E-01 0.45205661E+03</pdfrwt>
<totfact> 0.70300160E+04</totfact>
</mgrwt>
</event>
<event>
 7    0  0.4714446E-002  0.4566003E+03  0.7546771E-02  0.1025772E+00
         21   -1    0    0  502  501  0.00000000000E+00  0.00000000000E+00  0.11306635575E+04  0.11306635575E+04  0.00000000000E+00 0.  1.
         21   -1    0    0  501  502 -0.00000000000E+00 -0.00000000000E+00 -0.46097671498E+02  0.46097671498E+02  0.00000000000E+00 0.  1.
      99926    2    1    2    0    0  0.00000000000E+00  0.00000000000E+00  0.10845658860E+04  0.11767612290E+04  0.45660029456E+03 0.  0.
      99925    2    3    3    0    0 -0.21005411674E+02  0.11041436278E+03  0.73942818287E+03  0.79283402099E+03  0.26305738610E+03 0.  0.
         25    1    3    3    0    0  0.21005411674E+02 -0.11041436278E+03  0.34513770310E+03  0.38392720798E+03  0.12509000000E+03 0.  0.
         25    1    4    4    0    0  0.94530209964E+01  0.52375233126E+02  0.26501098669E+03  0.29784367682E+03  0.12509000000E+03 0.  0.
         25    1    4    4    0    0 -0.30458432671E+02  0.58039129656E+02  0.47441719618E+03  0.49499034417E+03  0.12509000000E+03 0.  0.
<mgrwt>
<rscale>  2 0.45660029E+03</rscale>
<asrwt>0</asrwt>
<pdfrwt beam="1">  1       21 0.16627403E+00 0.45660029E+03</pdfrwt>
<pdfrwt beam="2">  1       21 0.67790701E-02 0.45660029E+03</pdfrwt>
<totfact> 0.32494259E+04</totfact>
</mgrwt>
</event>
<event>
 7    0  0.4714446E-002  0.4611227E+03  0.7546771E-02  0.1024456E+00
         21   -1    0    0  502  501  0.00000000000E+00  0.00000000000E+00  0.97008085516E+02  0.97008085516E+02  0.00000000000E+00 0.  1.
         21   -1    0    0  501  502 -0.00000000000E+00 -0.00000000000E+00 -0.54798039534E+03  0.54798039534E+03  0.00000000000E+00 0.  1.
      99926    2    1    2    0    0  0.51070259133E-14  0.00000000000E+00 -0.45097230982E+03  0.64498848085E+03  0.46112266937E+03 0.  0.
      99925    2    3    3    0    0 -0.10893639072E+01 -0.11861471552E+03 -0.29198094945E+03  0.41047537200E+03  0.26299528270E+03 0.  0.
         25    1    4    4    0    0  0.39886621543E+02 -0.59907821160E+02 -0.14179873324E+03  0.20232221446E+03  0.12509000000E+03 0.  0.
         25    1    3    3    0    0  0.10893639072E+01  0.11861471552E+03 -0.15899136037E+03  0.23451310886E+03  0.12509000000E+03 0.  0.
         25    1    4    4    0    0 -0.40975985450E+02 -0.58706894361E+02 -0.15018221620E+03  0.20815315754E+03  0.12509000000E+03 0.  0.
<mgrwt>
<rscale>  2 0.46112267E+03</rscale>
<asrwt>0</asrwt>
<pdfrwt beam="1">  1       21 0.14265895E-01 0.46112267E+03</pdfrwt>
<pdfrwt beam="2">  1       21 0.80585349E-01 0.46112267E+03</pdfrwt>
<totfact> 0.53365815E+04</totfact>
</mgrwt>
</event>
<event>
 7    0  0.4714446E-002  0.4573368E+03  0.7546771E-02  0.1025556E+00
         21   -1    0    0  502  501  0.00000000000E+00  0.00000000000E+00  0.22872162954E+03  0.22872162954E+03  0.00000000000E+00 0.  1.
         21   -1    0    0  501  502 -0.00000000000E+00 -0.00000000000E+00 -0.22861517125E+03  0.22861517125E+03  0.00000000000E+00 0.  1.
      99926    2    1    2    0    0  0.14210854715E-13 -0.71054273576E-14  0.10645829714E+00  0.45733680079E+03  0.45733678840E+03 0.  0.
      99925    2    3    3    0    0 -0.96451880206E+02 -0.58104099462E+02 -0.25317558723E+02  0.28712240565E+03  0.26290539264E+03 0.  0.
         25    1    3    3    0    0  0.96451880206E+02  0.58104099462E+02  0.25424017021E+02  0.17021439513E+03  0.12509000000E+03 0.  0.
         25    1    4    4    0    0 -0.58136091713E+01 -0.19028277788E+02 -0.11170937359E+02  0.12715412439E+03  0.12509000000E+03 0.  0.
         25    1    4    4    0    0 -0.90638271035E+02 -0.39075821674E+02 -0.14146621365E+02  0.15996828127E+03  0.12509000000E+03 0.  0.
<mgrwt>
<rscale>  2 0.45733679E+03</rscale>
<asrwt>0</asrwt>
<pdfrwt beam="1">  1       21 0.33635534E-01 0.45733679E+03</pdfrwt>
<pdfrwt beam="2">  1       21 0.33619878E-01 0.45733679E+03</pdfrwt>
<totfact> 0.67114814E+04</totfact>
</mgrwt>
</event>
<event>
 7    0  0.4714446E-002  0.4379663E+03  0.7546771E-02  0.1031373E+00
         21   -1    0    0  502  501  0.00000000000E+00  0.00000000000E+00  0.21736200527E+03  0.21736200527E+03  0.00000000000E+00 0.  1.
         21   -1    0    0  501  502 -0.00000000000E+00 -0.00000000000E+00 -0.22061635189E+03  0.22061635189E+03  0.00000000000E+00 0.  1.
      99926    2    1    2    0    0  0.00000000000E+00  0.17763568394E-14 -0.32543466230E+01  0.43797835715E+03  0.43796626647E+03 0.  0.
      99925    2    3    3    0    0  0.30834614763E+02 -0.41895918370E+01  0.89226454215E+02  0.27933242190E+03  0.26286292178E+03 0.  0.
         25    1    4    4    0    0  0.41542020531E+02 -0.33023373730E+02  0.46175460817E+02  0.14351294006E+03  0.12509000000E+03 0.  0.
         25    1    4    4    0    0 -0.10707405768E+02  0.28833781893E+02  0.43050993398E+02  0.13581948185E+03  0.12509000000E+03 0.  0.
         25    1    3    3    0    0 -0.30834614763E+02  0.41895918370E+01 -0.92480800838E+02  0.15864593525E+03  0.12509000000E+03 0.  0.
<mgrwt>
<rscale>  2 0.43796627E+03</rscale>
<asrwt>0</asrwt>
<pdfrwt beam="1">  1       21 0.31965001E-01 0.43796627E+03</pdfrwt>
<pdfrwt beam="2">  1       21 0.32443581E-01 0.43796627E+03</pdfrwt>
<totfact> 0.80165000E+04</totfact>
</mgrwt>
</event>
<event>
 7    0  0.4714446E-002  0.4554865E+03  0.7546771E-02  0.1026098E+00
         21   -1    0    0  502  501  0.00000000000E+00  0.00000000000E+00  0.19981263781E+03  0.19981263781E+03  0.00000000000E+00 0.  1.
         21   -1    0    0  501  502 -0.00000000000E+00 -0.00000000000E+00 -0.25957811716E+03  0.25957811716E+03  0.00000000000E+00 0.  1.
      99926    2    1    2    0    0  0.00000000000E+00  0.00000000000E+00 -0.59765479351E+02  0.45939075497E+03  0.45548650170E+03 0.  0.
      99925    2    3    3    0    0  0.59906055856E+02  0.88966067752E+02  0.17730435306E+00  0.28405010892E+03  0.26302231122E+03 0.  0.
         25    1    4    4    0    0  0.61108162672E+02  0.72732641443E+02 -0.10705643738E+02  0.15743685586E+03  0.12509000000E+03 0.  0.
         25    1    3    3    0    0 -0.59906055856E+02 -0.88966067752E+02 -0.59942783704E+02  0.17534064605E+03  0.12509000000E+03 0.  0.
         25    1    4    4    0    0 -0.12021068158E+01  0.16233426310E+02  0.10882948091E+02  0.12661325306E+03  0.12509000000E+03 0.  0.
<mgrwt>
<rscale>  2 0.45548650E+03</rscale>
<asrwt>0</asrwt>
<pdfrwt beam="1">  1       21 0.29384212E-01 0.45548650E+03</pdfrwt>
<pdfrwt beam="2">  1       21 0.38173252E-01 0.45548650E+03</pdfrwt>
<totfact> 0.67960925E+04</totfact>
</mgrwt>
</event>
<event>
 7    0  0.4714446E-002  0.4462280E+03  0.7546771E-02  0.1028853E+00
         21   -1    0    0  502  501  0.00000000000E+00  0.00000000000E+00  0.18815865329E+03  0.18815865329E+03  0.00000000000E+00 0. -1.
         21   -1    0    0  501  502 -0.00000000000E+00 -0.00000000000E+00 -0.26456322533E+03  0.26456322533E+03  0.00000000000E+00 0. -1.
      99926    2    1    2    0    0  0.00000000000E+00  0.00000000000E+00 -0.76404572046E+02  0.45272187862E+03  0.44622801431E+03 0.  0.
      99925    2    3    3    0    0  0.76884128777E+02 -0.41874670994E+02  0.98442852121E+01  0.27736216031E+03  0.26299848039E+03 0.  0.
         25    1    4    4    0    0  0.40551223273E+01 -0.31413244333E+01 -0.12694620444E+02  0.12583709081E+03  0.12509000000E+03 0.  0.
         25    1    4    4    0    0  0.72829006450E+02 -0.38733346561E+02  0.22538905656E+02  0.15152506949E+03  0.12509000000E+03 0.  0.
         25    1    3    3    0    0 -0.76884128777E+02  0.41874670994E+02 -0.86248857258E+02  0.17535971831E+03  0.12509000000E+03 0.  0.
<mgrwt>
<rscale>  2 0.44622801E+03</rscale>
<asrwt>0</asrwt>
<pdfrwt beam="1">  1       21 0.27670390E-01 0.44622801E+03</pdfrwt>
<pdfrwt beam="2">  1       21 0.38906356E-01 0.44622801E+03</pdfrwt>
<totfact> 0.73738833E+04</totfact>
</mgrwt>
</event>
<event>
 7    0  0.4714446E-002  0.4675170E+03  0.7546771E-02  0.1022623E+00
         21   -1    0    0  502  501  0.00000000000E+00  0.00000000000E+00  0.49302679960E+03  0.49302679960E+03  0.00000000000E+00 0. -1.
         21   -1    0    0  501  502 -0.00000000000E+00 -0.00000000000E+00 -0.11083176056E+03  0.11083176056E+03  0.00000000000E+00 0. -1.
      99926    2    1    2    0    0  0.35527136788E-14  0.00000000000E+00  0.38219503904E+03  0.60385856017E+03  0.46751696527E+03 0.  0.
      99925    2    3    3    0    0 -0.27726248024E+02  0.10596150343E+03  0.31429349780E+03  0.42426259016E+03  0.26310028052E+03 0.  0.
         25    1    4    4    0    0 -0.50269187254E+02  0.45643202623E+02  0.13316224331E+03  0.19491019541E+03  0.12509000000E+03 0.  0.
         25    1    3    3    0    0  0.27726248024E+02 -0.10596150343E+03  0.67901541240E+02  0.17959597001E+03  0.12509000000E+03 0.  0.
         25    1    4    4    0    0  0.22542939230E+02  0.60318300810E+02  0.18113125450E+03  0.22935239475E+03  0.12509000000E+03 0.  0.
<mgrwt>
<rscale>  2 0.46751697E+03</rscale>
<asrwt>0</asrwt>
<pdfrwt beam="1">  1       21 0.72503940E-01 0.46751697E+03</pdfrwt>
<pdfrwt beam="2">  1       21 0.16298789E-01 0.46751697E+03</pdfrwt>
<totfact> 0.53002023E+04</totfact>
</mgrwt>
</event>
<event>
 7    0  0.4714446E-002  0.4532390E+03  0.7546771E-02  0.1026761E+00
         21   -1    0    0  502  501  0.00000000000E+00  0.00000000000E+00  0.12664269027E+04  0.12664269027E+04  0.00000000000E+00 0. -1.
         21   -1    0    0  501  502 -0.00000000000E+00 -0.00000000000E+00 -0.40552199699E+02  0.40552199699E+02  0.00000000000E+00 0. -1.
      99926    2    1    2    0    0 -0.35527136788E-14  0.00000000000E+00  0.12258747030E+04  0.13069791024E+04  0.45323899508E+03 0.  0.
      99925    2    3    3    0    0 -0.27750609306E+02  0.97795332698E+02  0.63959766732E+03  0.69894761137E+03  0.26288507753E+03 0.  0.
         25    1    4    4    0    0 -0.47006078499E+02  0.64579406233E+02  0.38671731339E+03  0.41421957909E+03  0.12509000000E+03 0.  0.
         25    1    3    3    0    0  0.27750609306E+02 -0.97795332698E+02  0.58627703573E+03  0.60803149108E+03  0.12509000000E+03 0.  0.
         25    1    4    4    0    0  0.19255469193E+02  0.33215926465E+02  0.25288035393E+03  0.28472803228E+03  0.12509000000E+03 0.  0.
<mgrwt>
<rscale>  2 0.45323900E+03</rscale>
<asrwt>0</asrwt>
<pdfrwt beam="1">  1       21 0.18623922E+00 0.45323900E+03</pdfrwt>
<pdfrwt beam="2">  1       21 0.59635596E-02 0.45323900E+03</pdfrwt>
<totfact> 0.29312041E+04</totfact>
</mgrwt>
</event>
<event>
 7    0  0.4714446E-002  0.4499724E+03  0.7546771E-02  0.1027730E+00
         21   -1    0    0  502  501  0.00000000000E+00  0.00000000000E+00  0.92752344731E+03  0.92752344731E+03  0.00000000000E+00 0. -1.
         21   -1    0    0  501  502 -0.00000000000E+00 -0.00000000000E+00 -0.54574139817E+02  0.54574139817E+02  0.00000000000E+00 0. -1.
      99926    2    1    2    0    0  0.00000000000E+00  0.00000000000E+00  0.87294930749E+03  0.98209758712E+03  0.44997241825E+03 0.  0.
      99925    2    3    3    0    0 -0.31361203763E+02 -0.19378606826E+02  0.77386154712E+03  0.81831435276E+03  0.26347225721E+03 0.  0.
         25    1    3    3    0    0  0.31361203763E+02  0.19378606826E+02  0.99087760369E+02  0.16378323436E+03  0.12509000000E+03 0.  0.
         25    1    4    4    0    0 -0.55991108541E+02 -0.87013785588E+00  0.41300458425E+03  0.43515061310E+03  0.12509000000E+03 0.  0.
         25    1    4    4    0    0  0.24629904778E+02 -0.18508468970E+02  0.36085696287E+03  0.38316373966E+03  0.12509000000E+03 0.  0.
<mgrwt>
<rscale>  2 0.44997242E+03</rscale>
<asrwt>0</asrwt>
<pdfrwt beam="1">  1       21 0.13640050E+00 0.44997242E+03</pdfrwt>
<pdfrwt beam="2">  1       21 0.80256094E-02 0.44997242E+03</pdfrwt>
<totfact> 0.41473526E+04</totfact>
</mgrwt>
</event>
<event>
 7    0  0.4714446E-002  0.4438806E+03  0.7546771E-02  0.1029563E+00
         21   -1    0    0  502  501  0.00000000000E+00  0.00000000000E+00  0.92149475299E+03  0.92149475299E+03  0.00000000000E+00 0. -1.
         21   -1    0    0  501  502 -0.00000000000E+00 -0.00000000000E+00 -0.53453904156E+02  0.53453904156E+02  0.00000000000E+00 0. -1.
      99926    2    1    2    0    0  0.00000000000E+00  0.00000000000E+00  0.86804084883E+03  0.97494865715E+03  0.44388057947E+03 0.  0.
      99925    2    3    3    0    0 -0.23542358020E+02  0.51322205444E+02  0.36570700111E+03  0.45420398453E+03  0.26338458100E+03 0.  0.
         25    1    3    3    0    0  0.23542358020E+02 -0.51322205444E+02  0.50233384772E+03  0.52074467262E+03  0.12509000000E+03 0.  0.
         25    1    4    4    0    0 -0.28473119398E+02  0.58205322039E+02  0.15886408286E+03  0.21232965635E+03  0.12509000000E+03 0.  0.
         25    1    4    4    0    0  0.49307613775E+01 -0.68831165942E+01  0.20684291825E+03  0.24187432818E+03  0.12509000000E+03 0.  0.
<mgrwt>
<rscale>  2 0.44388058E+03</rscale>
<asrwt>0</asrwt>
<pdfrwt beam="1">  1       21 0.13551392E+00 0.44388058E+03</pdfrwt>
<pdfrwt beam="2">  1       21 0.78608688E-02 0.44388058E+03</pdfrwt>
<totfact> 0.43834756E+04</totfact>
</mgrwt>
</event>
<event>
 7    0  0.4714446E-002  0.4438554E+03  0.7546771E-02  0.1029570E+00
         21   -1    0    0  502  501  0.00000000000E+00  0.00000000000E+00  0.84375639426E+02  0.84375639426E+02  0.00000000000E+00 0. -1.
         21   -1    0    0  501  502 -0.00000000000E+00 -0.00000000000E+00 -0.58372172878E+03  0.58372172878E+03  0.00000000000E+00 0. -1.
      99926    2    1    2    0    0 -0.14210854715E-13  0.44408920985E-15 -0.49934608936E+03  0.66809736821E+03  0.44385535533E+03 0.  0.
      99925    2    3    3    0    0 -0.72503644020E+02  0.12935714443E+01 -0.42630254322E+03  0.50610564171E+03  0.26296503663E+03 0.  0.
         25    1    3    3    0    0  0.72503644020E+02 -0.12935714443E+01 -0.73043546134E+02  0.16199172650E+03  0.12509000000E+03 0.  0.
         25    1    4    4    0    0  0.30442939366E+01 -0.12537825096E+02 -0.18614878436E+03  0.22464492605E+03  0.12509000000E+03 0.  0.
         25    1    4    4    0    0 -0.75547937957E+02  0.13831396540E+02 -0.24015375887E+03  0.28146071566E+03  0.12509000000E+03 0.  0.
<mgrwt>
<rscale>  2 0.44385536E+03</rscale>
<asrwt>0</asrwt>
<pdfrwt beam="1">  1       21 0.12408182E-01 0.44385536E+03</pdfrwt>
<pdfrwt beam="2">  1       21 0.85841431E-01 0.44385536E+03</pdfrwt>
<totfact> 0.59745053E+04</totfact>
</mgrwt>
</event>
<event>
 7    0  0.4714446E-002  0.4490123E+03  0.7546771E-02  0.1028017E+00
         21   -1    0    0  502  501  0.00000000000E+00  0.00000000000E+00  0.30887813951E+02  0.30887813951E+02  0.00000000000E+00 0. -1.
         21   -1    0    0  501  502 -0.00000000000E+00 -0.00000000000E+00 -0.16318090808E+04  0.16318090808E+04  0.00000000000E+00 0. -1.
      99926    2    1    2    0    0  0.00000000000E+00  0.00000000000E+00 -0.16009212669E+04  0.16626968948E+04  0.44901231739E+03 0.  0.
      99925    2    3    3    0    0  0.69648155384E+02  0.39366065072E+02 -0.12780484144E+04  0.13073169015E+04  0.26319038522E+03 0.  0.
         25    1    4    4    0    0  0.22505202902E+02  0.58397116054E+02 -0.62645691099E+03  0.64188198039E+03  0.12509000000E+03 0.  0.
         25    1    4    4    0    0  0.47142952483E+02 -0.19031050982E+02 -0.65159150341E+03  0.66543492115E+03  0.12509000000E+03 0.  0.
         25    1    3    3    0    0 -0.69648155384E+02 -0.39366065072E+02 -0.32287285247E+03  0.35537999323E+03  0.12509000000E+03 0.  0.
<mgrwt>
<rscale>  2 0.44901232E+03</rscale>
<asrwt>0</asrwt>
<pdfrwt beam="1">  1       21 0.45423235E-02 0.44901232E+03</pdfrwt>
<pdfrwt beam="2">  1       21 0.23997203E+00 0.44901232E+03</pdfrwt>
<totfact> 0.21009258E+04</totfact>
</mgrwt>
</event>
<event>
 7    0  0.4714446E-002  0.4568667E+03  0.7546771E-02  0.1025694E+00
         21   -1    0    0  502  501  0.00000000000E+00  0.00000000000E+00  0.30546219217E+02  0.30546219217E+02  0.00000000000E+00 0. -1.
         21   -1    0    0  501  502 -0.00000000000E+00 -0.00000000000E+00 -0.17082896491E+04  0.17082896491E+04  0.00000000000E+00 0. -1.
      99926    2    1    2    0    0 -0.14210854715E-13 -0.14210854715E-13 -0.16777434299E+04  0.17388358684E+04  0.45686667687E+03 0.  0.
      99925    2    3    3    0    0  0.91448323597E+02  0.65741720011E+02 -0.11399170570E+04  0.11752850852E+04  0.26305772202E+03 0.  0.
         25    1    4    4    0    0  0.19828138327E+02  0.74714827739E+01 -0.60880937749E+03  0.62188853048E+03  0.12509000000E+03 0.  0.
         25    1    4    4    0    0  0.71620185270E+02  0.58270237237E+02 -0.53110767948E+03  0.55339655473E+03  0.12509000000E+03 0.  0.
         25    1    3    3    0    0 -0.91448323597E+02 -0.65741720011E+02 -0.53782637295E+03  0.56355078314E+03  0.12509000000E+03 0.  0.
<mgrwt>
<rscale>  2 0.45686668E+03</rscale>
<asrwt>0</asrwt>
<pdfrwt beam="1">  1       21 0.44920905E-02 0.45686668E+03</pdfrwt>
<pdfrwt beam="2">  1       21 0.25121910E+00 0.45686668E+03</pdfrwt>
<totfact> 0.18199696E+04</totfact>
</mgrwt>
</event>
<event>
 7    0  0.4714446E-002  0.4522422E+03  0.7546771E-02  0.1027056E+00
         21   -1    0    0  502  501  0.00000000000E+00  0.00000000000E+00  0.22791219756E+03  0.22791219756E+03  0.00000000000E+00 0.  1.
         21   -1    0    0  501  502 -0.00000000000E+00 -0.00000000000E+00 -0.22434404263E+03  0.22434404263E+03  0.00000000000E+00 0.  1.
      99926    2    1    2    0    0 -0.71054273576E-14  0.00000000000E+00  0.35681549279E+01  0.45225624020E+03  0.45224216419E+03 0.  0.
      99925    2    3    3    0    0 -0.60749318511E+02  0.64386673650E+01  0.94451848454E+02  0.28600555603E+03  0.26295644177E+03 0.  0.
         25    1    3    3    0    0  0.60749318511E+02 -0.64386673650E+01 -0.90883693526E+02  0.16625068417E+03  0.12509000000E+03 0.  0.
         25    1    4    4    0    0  0.10300071399E+02  0.94599126379E+01  0.49551184267E+02  0.13527161336E+03  0.12509000000E+03 0.  0.
         25    1    4    4    0    0 -0.71049389910E+02 -0.30212452729E+01  0.44900664186E+02  0.15073394267E+03  0.12509000000E+03 0.  0.
<mgrwt>
<rscale>  2 0.45224216E+03</rscale>
<asrwt>0</asrwt>
<pdfrwt beam="1">  1       21 0.33516500E-01 0.45224216E+03</pdfrwt>
<pdfrwt beam="2">  1       21 0.32991771E-01 0.45224216E+03</pdfrwt>
<totfact> 0.70281091E+04</totfact>
</mgrwt>
</event>
<event>
 7    0  0.4714446E-002  0.4560292E+03  0.7546771E-02  0.1025939E+00
         21   -1    0    0  502  501  0.00000000000E+00  0.00000000000E+00  0.22838520988E+02  0.22838520988E+02  0.00000000000E+00 0.  1.
         21   -1    0    0  501  502 -0.00000000000E+00 -0.00000000000E+00 -0.22764460288E+04  0.22764460288E+04  0.00000000000E+00 0.  1.
      99926    2    1    2    0    0  0.00000000000E+00 -0.71054273576E-14 -0.22536075078E+04  0.22992845498E+04  0.45602921137E+03 0.  0.
      99925    2    3    3    0    0 -0.47740538662E+02 -0.39066227813E+02 -0.93020448589E+03  0.96855227178E+03  0.26269333532E+03 0.  0.
         25    1    3    3    0    0  0.47740538662E+02  0.39066227813E+02 -0.13234030219E+04  0.13307322780E+04  0.12509000000E+03 0.  0.
         25    1    4    4    0    0 -0.37482304010E+01 -0.49979264160E+02 -0.52736293088E+03  0.54430795056E+03  0.12509000000E+03 0.  0.
         25    1    4    4    0    0 -0.43992308261E+02  0.10913036346E+02 -0.40284155500E+03  0.42424432122E+03  0.12509000000E+03 0.  0.
<mgrwt>
<rscale>  2 0.45602921E+03</rscale>
<asrwt>0</asrwt>
<pdfrwt beam="1">  1       21 0.33586072E-02 0.45602921E+03</pdfrwt>
<pdfrwt beam="2">  1       21 0.33477135E+00 0.45602921E+03</pdfrwt>
<totfact> 0.93350609E+03</totfact>
</mgrwt>
</event>
<event>
 7    0  0.4714446E-002  0.4627478E+03  0.7546771E-02  0.1023987E+00
         21   -1    0    0  502  501  0.00000000000E+00  0.00000000000E+00  0.54622717101E+03  0.54622717101E+03  0.00000000000E+00 0. -1.
         21   -1    0    0  501  502 -0.00000000000E+00 -0.00000000000E+00 -0.98006625561E+02  0.98006625561E+02  0.00000000000E+00 0. -1.
      99926    2    1    2    0    0  0.00000000000E+00  0.00000000000E+00  0.44822054545E+03  0.64423379658E+03  0.46274780095E+03 0.  0.
      99925    2    3    3    0    0  0.29926097111E+02  0.11245773392E+03  0.23743332201E+03  0.37290175853E+03  0.26294262854E+03 0.  0.
         25    1    4    4    0    0  0.20014881951E+02  0.59072464852E+02  0.68093341932E+02  0.15548106933E+03  0.12509000000E+03 0.  0.
         25    1    4    4    0    0  0.99112151600E+01  0.53385269065E+02  0.16933998008E+03  0.21742068920E+03  0.12509000000E+03 0.  0.
         25    1    3    3    0    0 -0.29926097111E+02 -0.11245773392E+03  0.21078722344E+03  0.27133203805E+03  0.12509000000E+03 0.  0.
<mgrwt>
<rscale>  2 0.46274780E+03</rscale>
<asrwt>0</asrwt>
<pdfrwt beam="1">  1       21 0.80327524E-01 0.46274780E+03</pdfrwt>
<pdfrwt beam="2">  1       21 0.14412739E-01 0.46274780E+03</pdfrwt>
<totfact> 0.52736040E+04</totfact>
</mgrwt>
</event>
<event>
 7    0  0.4714446E-002  0.4510698E+03  0.7546771E-02  0.1027403E+00
         21   -1    0    0  502  501  0.00000000000E+00  0.00000000000E+00  0.27286959910E+03  0.27286959910E+03  0.00000000000E+00 0.  1.
         21   -1    0    0  501  502 -0.00000000000E+00 -0.00000000000E+00 -0.18641137724E+03  0.18641137724E+03  0.00000000000E+00 0.  1.
      99926    2    1    2    0    0  0.00000000000E+00 -0.35527136788E-14  0.86458221864E+02  0.45928097635E+03  0.45106982952E+03 0.  0.
      99925    2    3    3    0    0  0.71739350300E+02 -0.21300939965E+02 -0.26691607515E+02  0.27475277684E+03  0.26301403393E+03 0.  0.
         25    1    4    4    0    0  0.68221613709E+02  0.76293489635E+01  0.38165707305E+01  0.14273916721E+03  0.12509000000E+03 0.  0.
         25    1    3    3    0    0 -0.71739350300E+02  0.21300939965E+02  0.11314982938E+03  0.18452819951E+03  0.12509000000E+03 0.  0.
         25    1    4    4    0    0  0.35177365916E+01 -0.28930288929E+02 -0.30508178245E+02  0.13201360963E+03  0.12509000000E+03 0.  0.
<mgrwt>
<rscale>  2 0.45106983E+03</rscale>
<asrwt>0</asrwt>
<pdfrwt beam="1">  1       21 0.40127882E-01 0.45106983E+03</pdfrwt>
<pdfrwt beam="2">  1       21 0.27413438E-01 0.45106983E+03</pdfrwt>
<totfact> 0.70411042E+04</totfact>
</mgrwt>
</event>
<event>
 7    0  0.4714446E-002  0.4451486E+03  0.7546771E-02  0.1029179E+00
         21   -1    0    0  502  501  0.00000000000E+00  0.00000000000E+00  0.17823229897E+04  0.17823229897E+04  0.00000000000E+00 0.  1.
         21   -1    0    0  501  502 -0.00000000000E+00 -0.00000000000E+00 -0.27794808780E+02  0.27794808780E+02  0.00000000000E+00 0.  1.
      99926    2    1    2    0    0  0.00000000000E+00  0.00000000000E+00  0.17545281809E+04  0.18101177985E+04  0.44514863443E+03 0.  0.
      99925    2    3    3    0    0  0.27236262164E+02 -0.38506959270E+02  0.73858444884E+03  0.78541600052E+03  0.26295761239E+03 0.  0.
         25    1    3    3    0    0 -0.27236262164E+02  0.38506959270E+02  0.10159437321E+04  0.10247017979E+04  0.12509000000E+03 0.  0.
         25    1    4    4    0    0 -0.10704784067E+02 -0.51678883777E+02  0.37246084405E+03  0.39643396409E+03  0.12509000000E+03 0.  0.
         25    1    4    4    0    0  0.37941046231E+02  0.13171924507E+02  0.36612360478E+03  0.38898203643E+03  0.12509000000E+03 0.  0.
<mgrwt>
<rscale>  2 0.44514863E+03</rscale>
<asrwt>0</asrwt>
<pdfrwt beam="1">  1       21 0.26210624E+00 0.44514863E+03</pdfrwt>
<pdfrwt beam="2">  1       21 0.40874731E-02 0.44514863E+03</pdfrwt>
<totfact> 0.18435633E+04</totfact>
</mgrwt>
</event>
<event>
 7    0  0.4714446E-002  0.4562797E+03  0.7546771E-02  0.1025866E+00
         21   -1    0    0  502  501  0.00000000000E+00  0.00000000000E+00  0.63424626766E+03  0.63424626766E+03  0.00000000000E+00 0.  1.
         21   -1    0    0  501  502 -0.00000000000E+00 -0.00000000000E+00 -0.82062448635E+02  0.82062448635E+02  0.00000000000E+00 0.  1.
      99926    2    1    2    0    0  0.14210854715E-13 -0.71054273576E-14  0.55218381903E+03  0.71630871630E+03  0.45627974648E+03 0.  0.
      99925    2    3    3    0    0  0.66915087031E+02 -0.46642347605E+02  0.47300451401E+03  0.54728206779E+03  0.26292822973E+03 0.  0.
         25    1    4    4    0    0 -0.79521261017E+01 -0.22265322821E+02  0.22871586850E+03  0.26175835711E+03  0.12509000000E+03 0.  0.
         25    1    4    4    0    0  0.74867213132E+02 -0.24377024784E+02  0.24428864551E+03  0.28552371069E+03  0.12509000000E+03 0.  0.
         25    1    3    3    0    0 -0.66915087031E+02  0.46642347605E+02  0.79179305019E+02  0.16902664851E+03  0.12509000000E+03 0.  0.
<mgrwt>
<rscale>  2 0.45627975E+03</rscale>
<asrwt>0</asrwt>
<pdfrwt beam="1">  1       21 0.93271508E-01 0.45627975E+03</pdfrwt>
<pdfrwt beam="2">  1       21 0.12068007E-01 0.45627975E+03</pdfrwt>
<totfact> 0.51505991E+04</totfact>
</mgrwt>
</event>
<event>
 7    0  0.4714446E-002  0.4563448E+03  0.7546771E-02  0.1025847E+00
         21   -1    0    0  502  501  0.00000000000E+00  0.00000000000E+00  0.35891387055E+02  0.35891387055E+02  0.00000000000E+00 0.  1.
         21   -1    0    0  501  502 -0.00000000000E+00 -0.00000000000E+00 -0.14505609833E+04  0.14505609833E+04  0.00000000000E+00 0.  1.
      99926    2    1    2    0    0  0.00000000000E+00 -0.14210854715E-13 -0.14146695962E+04  0.14864523703E+04  0.45634480690E+03 0.  0.
      99925    2    3    3    0    0 -0.44590357579E+02 -0.80789405300E+02 -0.11092184978E+04  0.11437234547E+04  0.26310157149E+03 0.  0.
         25    1    4    4    0    0 -0.42083956768E+02 -0.12347201024E+02 -0.62700207979E+03  0.64086084991E+03  0.12509000000E+03 0.  0.
         25    1    3    3    0    0  0.44590357579E+02  0.80789405300E+02 -0.30545109842E+03  0.34272891565E+03  0.12509000000E+03 0.  0.
         25    1    4    4    0    0 -0.25064008104E+01 -0.68442204275E+02 -0.48221641800E+03  0.50286260475E+03  0.12509000000E+03 0.  0.
<mgrwt>
<rscale>  2 0.45634481E+03</rscale>
<asrwt>0</asrwt>
<pdfrwt beam="1">  1       21 0.52781455E-02 0.45634481E+03</pdfrwt>
<pdfrwt beam="2">  1       21 0.21331778E+00 0.45634481E+03</pdfrwt>
<totfact> 0.23862873E+04</totfact>
</mgrwt>
</event>
<event>
 7    0  0.4714446E-002  0.4570041E+03  0.7546771E-02  0.1025654E+00
         21   -1    0    0  502  501  0.00000000000E+00  0.00000000000E+00  0.10210543766E+03  0.10210543766E+03  0.00000000000E+00 0.  1.
         21   -1    0    0  501  502 -0.00000000000E+00 -0.00000000000E+00 -0.51136542567E+03  0.51136542567E+03  0.00000000000E+00 0.  1.
      99926    2    1    2    0    0  0.17763568394E-14  0.14210854715E-13 -0.40925998800E+03  0.61347086333E+03  0.45700411636E+03 0.  0.
      99925    2    3    3    0    0  0.85011599864E+01  0.10397450428E+03 -0.19201394196E+03  0.34194495318E+03  0.26300956226E+03 0.  0.
         25    1    4    4    0    0 -0.20881202770E+02  0.35374251149E+02 -0.57481339063E+02  0.14366271163E+03  0.12509000000E+03 0.  0.
         25    1    3    3    0    0 -0.85011599864E+01 -0.10397450428E+03 -0.21724604604E+03  0.27152591015E+03  0.12509000000E+03 0.  0.
         25    1    4    4    0    0  0.29382362757E+02  0.68600253128E+02 -0.13453260290E+03  0.19828224155E+03  0.12509000000E+03 0.  0.
<mgrwt>
<rscale>  2 0.45700412E+03</rscale>
<asrwt>0</asrwt>
<pdfrwt beam="1">  1       21 0.15015506E-01 0.45700412E+03</pdfrwt>
<pdfrwt beam="2">  1       21 0.75200798E-01 0.45700412E+03</pdfrwt>
<totfact> 0.56949850E+04</totfact>
</mgrwt>
</event>
<event>
 7    0  0.4714446E-002  0.4563467E+03  0.7546771E-02  0.1025846E+00
         21   -1    0    0  502  501  0.00000000000E+00  0.00000000000E+00  0.36047514463E+02  0.36047514463E+02  0.00000000000E+00 0.  1.
         21   -1    0    0  501  502 -0.00000000000E+00 -0.00000000000E+00 -0.14442905558E+04  0.14442905558E+04  0.00000000000E+00 0.  1.
      99926    2    1    2    0    0  0.00000000000E+00  0.14210854715E-13 -0.14082430413E+04  0.14803380702E+04  0.45634673088E+03 0.  0.
      99925    2    3    3    0    0  0.48367667507E+02  0.10356378842E+03 -0.90275255105E+03  0.94720297162E+03  0.26299507883E+03 0.  0.
         25    1    3    3    0    0 -0.48367667507E+02 -0.10356378842E+03 -0.50549049024E+03  0.53313509859E+03  0.12509000000E+03 0.  0.
         25    1    4    4    0    0  0.57726641485E+02  0.29004164130E+02 -0.43471008791E+03  0.45693979396E+03  0.12509000000E+03 0.  0.
         25    1    4    4    0    0 -0.93589739777E+01  0.74559624285E+02 -0.46804246314E+03  0.49026317766E+03  0.12509000000E+03 0.  0.
<mgrwt>
<rscale>  2 0.45634673E+03</rscale>
<asrwt>0</asrwt>
<pdfrwt beam="1">  1       21 0.53011046E-02 0.45634673E+03</pdfrwt>
<pdfrwt beam="2">  1       21 0.21239569E+00 0.45634673E+03</pdfrwt>
<totfact> 0.24012955E+04</totfact>
</mgrwt>
</event>
<event>
 7    0  0.4714446E-002  0.4545106E+03  0.7546771E-02  0.1026385E+00
         21   -1    0    0  502  501  0.00000000000E+00  0.00000000000E+00  0.34168218430E+02  0.34168218430E+02  0.00000000000E+00 0.  1.
         21   -1    0    0  501  502 -0.00000000000E+00 -0.00000000000E+00 -0.15114911857E+04  0.15114911857E+04  0.00000000000E+00 0.  1.
      99926    2    1    2    0    0  0.00000000000E+00  0.00000000000E+00 -0.14773229673E+04  0.15456594042E+04  0.45451055428E+03 0.  0.
      99925    2    3    3    0    0  0.80861986024E+02 -0.66981446791E+02 -0.78817249847E+03  0.83742141324E+03  0.26274238524E+03 0.  0.
         25    1    4    4    0    0  0.59739421128E+02  0.55229482501E+00 -0.35962637133E+03  0.38541891303E+03  0.12509000000E+03 0.  0.
         25    1    3    3    0    0 -0.80861986024E+02  0.66981446791E+02 -0.68915046882E+03  0.70823799091E+03  0.12509000000E+03 0.  0.
         25    1    4    4    0    0  0.21122564896E+02 -0.67533741616E+02 -0.42854612714E+03  0.45200250021E+03  0.12509000000E+03 0.  0.
<mgrwt>
<rscale>  2 0.45451055E+03</rscale>
<asrwt>0</asrwt>
<pdfrwt beam="1">  1       21 0.50247394E-02 0.45451055E+03</pdfrwt>
<pdfrwt beam="2">  1       21 0.22227805E+00 0.45451055E+03</pdfrwt>
<totfact> 0.22768399E+04</totfact>
</mgrwt>
</event>
<event>
 7    0  0.4714446E-002  0.4558374E+03  0.7546771E-02  0.1025995E+00
         21   -1    0    0  502  501  0.00000000000E+00  0.00000000000E+00  0.35281168481E+03  0.35281168481E+03  0.00000000000E+00 0.  1.
         21   -1    0    0  501  502 -0.00000000000E+00 -0.00000000000E+00 -0.14723699758E+03  0.14723699758E+03  0.00000000000E+00 0.  1.
      99926    2    1    2    0    0  0.00000000000E+00  0.00000000000E+00  0.20557468723E+03  0.50004868239E+03  0.45583739725E+03 0.  0.
      99925    2    3    3    0    0  0.74361554513E+02  0.80973648250E+02  0.95547843432E+02  0.30044961687E+03  0.26278167629E+03 0.  0.
         25    1    4    4    0    0  0.40113062685E+02  0.50801922937E+01  0.66786825657E+02  0.14745458397E+03  0.12509000000E+03 0.  0.
         25    1    4    4    0    0  0.34248491828E+02  0.75893455957E+02  0.28761017775E+02  0.15299503290E+03  0.12509000000E+03 0.  0.
         25    1    3    3    0    0 -0.74361554513E+02 -0.80973648250E+02  0.11002684380E+03  0.19959906552E+03  0.12509000000E+03 0.  0.
<mgrwt>
<rscale>  2 0.45583740E+03</rscale>
<asrwt>0</asrwt>
<pdfrwt beam="1">  1       21 0.51884071E-01 0.45583740E+03</pdfrwt>
<pdfrwt beam="2">  1       21 0.21652500E-01 0.45583740E+03</pdfrwt>
<totfact> 0.64835186E+04</totfact>
</mgrwt>
</event>
<event>
 7    0  0.4714446E-002  0.5226210E+03  0.7546771E-02  0.1008038E+00
         21   -1    0    0  502  501  0.00000000000E+00  0.00000000000E+00  0.45140997072E+03  0.45140997072E+03  0.00000000000E+00 0.  1.
         21   -1    0    0  501  502 -0.00000000000E+00 -0.00000000000E+00 -0.15126646026E+03  0.15126646026E+03  0.00000000000E+00 0.  1.
      99926    2    1    2    0    0  0.14210854715E-13  0.00000000000E+00  0.30014351046E+03  0.60267643098E+03  0.52262104205E+03 0.  0.
      99925    2    3    3    0    0 -0.11727561004E+03 -0.29693000255E+02  0.43684867242E+02  0.29275097744E+03  0.26298198453E+03 0.  0.
         25    1    4    4    0    0 -0.35010393791E+02 -0.68558847285E+01  0.54244098308E+02  0.14093495354E+03  0.12509000000E+03 0.  0.
         25    1    3    3    0    0  0.11727561004E+03  0.29693000255E+02  0.25645864321E+03  0.30992545354E+03  0.12509000000E+03 0.  0.
         25    1    4    4    0    0 -0.82265216252E+02 -0.22837115527E+02 -0.10559231066E+02  0.15181602390E+03  0.12509000000E+03 0.  0.
<mgrwt>
<rscale>  2 0.52262104E+03</rscale>
<asrwt>0</asrwt>
<pdfrwt beam="1">  1       21 0.66383819E-01 0.52262104E+03</pdfrwt>
<pdfrwt beam="2">  1       21 0.22245068E-01 0.52262104E+03</pdfrwt>
<totfact> 0.35420759E+04</totfact>
</mgrwt>
</event>
<event>
 7    0  0.4714446E-002  0.4562122E+03  0.7546771E-02  0.1025886E+00
         21   -1    0    0  502  501  0.00000000000E+00  0.00000000000E+00  0.42399340902E+03  0.42399340902E+03  0.00000000000E+00 0. -1.
         21   -1    0    0  501  502 -0.00000000000E+00 -0.00000000000E+00 -0.12271983973E+03  0.12271983973E+03  0.00000000000E+00 0. -1.
      99926    2    1    2    0    0 -0.88817841970E-15  0.00000000000E+00  0.30127356929E+03  0.54671324875E+03  0.45621224536E+03 0.  0.
      99925    2    3    3    0    0 -0.40934301898E+01 -0.29203139456E+02  0.56868196680E+02  0.27057727902E+03  0.26288494175E+03 0.  0.
         25    1    4    4    0    0  0.55188720962E+01 -0.54099821327E+02  0.23718711045E+02  0.13844614105E+03  0.12509000000E+03 0.  0.
         25    1    4    4    0    0 -0.96123022860E+01  0.24896681871E+02  0.33149485635E+02  0.13213113797E+03  0.12509000000E+03 0.  0.
         25    1    3    3    0    0  0.40934301898E+01  0.29203139456E+02  0.24440537261E+03  0.27613596974E+03  0.12509000000E+03 0.  0.
<mgrwt>
<rscale>  2 0.45621225E+03</rscale>
<asrwt>0</asrwt>
<pdfrwt beam="1">  1       21 0.62351971E-01 0.45621225E+03</pdfrwt>
<pdfrwt beam="2">  1       21 0.18047035E-01 0.45621225E+03</pdfrwt>
<totfact> 0.61492268E+04</totfact>
</mgrwt>
</event>
<event>
 7    0  0.4714446E-002  0.4542767E+03  0.7546771E-02  0.1026454E+00
         21   -1    0    0  502  501  0.00000000000E+00  0.00000000000E+00  0.13057688911E+03  0.13057688911E+03  0.00000000000E+00 0.  1.
         21   -1    0    0  501  502 -0.00000000000E+00 -0.00000000000E+00 -0.39510696818E+03  0.39510696818E+03  0.00000000000E+00 0.  1.
      99926    2    1    2    0    0  0.00000000000E+00 -0.71054273576E-14 -0.26453007907E+03  0.52568385729E+03  0.45427673843E+03 0.  0.
      99925    2    3    3    0    0  0.20907553243E+02 -0.35943292378E+02 -0.45623318529E+02  0.27015162065E+03  0.26300449596E+03 0.  0.
         25    1    4    4    0    0  0.28717939076E+02  0.70783195060E+00  0.88756797662E+01  0.12865265968E+03  0.12509000000E+03 0.  0.
         25    1    4    4    0    0 -0.78103858333E+01 -0.36651124329E+02 -0.54498998296E+02  0.14149896097E+03  0.12509000000E+03 0.  0.
         25    1    3    3    0    0 -0.20907553243E+02  0.35943292378E+02 -0.21890676054E+03  0.25553223664E+03  0.12509000000E+03 0.  0.
<mgrwt>
<rscale>  2 0.45427674E+03</rscale>
<asrwt>0</asrwt>
<pdfrwt beam="1">  1       21 0.19202484E-01 0.45427674E+03</pdfrwt>
<pdfrwt beam="2">  1       21 0.58103965E-01 0.45427674E+03</pdfrwt>
<totfact> 0.63865023E+04</totfact>
</mgrwt>
</event>
<event>
 7    0  0.4714446E-002  0.4548808E+03  0.7546771E-02  0.1026276E+00
         21   -1    0    0  502  501  0.00000000000E+00  0.00000000000E+00  0.38463267181E+03  0.38463267181E+03  0.00000000000E+00 0.  1.
         21   -1    0    0  501  502 -0.00000000000E+00 -0.00000000000E+00 -0.13448969898E+03  0.13448969898E+03  0.00000000000E+00 0.  1.
      99926    2    1    2    0    0 -0.14210854715E-13  0.00000000000E+00  0.25014297283E+03  0.51912237080E+03  0.45488078549E+03 0.  0.
      99925    2    3    3    0    0  0.10476367901E+03 -0.42273270265E+02  0.15314489772E+03  0.32465234099E+03  0.26302723242E+03 0.  0.
         25    1    4    4    0    0  0.26835683952E+02 -0.18630014401E+02  0.34034897316E+02  0.13369036504E+03  0.12509000000E+03 0.  0.
         25    1    4    4    0    0  0.77927995057E+02 -0.23643255864E+02  0.11911000040E+03  0.19096197595E+03  0.12509000000E+03 0.  0.
         25    1    3    3    0    0 -0.10476367901E+03  0.42273270265E+02  0.96998075107E+02  0.19447002981E+03  0.12509000000E+03 0.  0.
<mgrwt>
<rscale>  2 0.45488079E+03</rscale>
<asrwt>0</asrwt>
<pdfrwt beam="1">  1       21 0.56563628E-01 0.45488079E+03</pdfrwt>
<pdfrwt beam="2">  1       21 0.19777897E-01 0.45488079E+03</pdfrwt>
<totfact> 0.64007624E+04</totfact>
</mgrwt>
</event>
<event>
 7    0  0.4714446E-002  0.4544529E+03  0.7546771E-02  0.1026402E+00
         21   -1    0    0  502  501  0.00000000000E+00  0.00000000000E+00  0.29714314876E+03  0.29714314876E+03  0.00000000000E+00 0.  1.
         21   -1    0    0  501  502 -0.00000000000E+00 -0.00000000000E+00 -0.17376090142E+03  0.17376090142E+03  0.00000000000E+00 0.  1.
      99926    2    1    2    0    0  0.00000000000E+00  0.00000000000E+00  0.12338224734E+03  0.47090405018E+03  0.45445290792E+03 0.  0.
      99925    2    3    3    0    0 -0.10682379769E+03 -0.64060906947E+01  0.11389001185E+03  0.30601022863E+03  0.26309497045E+03 0.  0.
         25    1    4    4    0    0 -0.79679939542E+02 -0.13285322070E+02  0.27481779633E+02  0.15142043739E+03  0.12509000000E+03 0.  0.
         25    1    3    3    0    0  0.10682379769E+03  0.64060906947E+01  0.94922354911E+01  0.16489382155E+03  0.12509000000E+03 0.  0.
         25    1    4    4    0    0 -0.27143858148E+02  0.68792313754E+01  0.86408232219E+02  0.15458979124E+03  0.12509000000E+03 0.  0.
<mgrwt>
<rscale>  2 0.45445291E+03</rscale>
<asrwt>0</asrwt>
<pdfrwt beam="1">  1       21 0.43697522E-01 0.45445291E+03</pdfrwt>
<pdfrwt beam="2">  1       21 0.25553074E-01 0.45445291E+03</pdfrwt>
<totfact> 0.67661737E+04</totfact>
</mgrwt>
</event>
<event>
 7    0  0.4714446E-002  0.4609151E+03  0.7546771E-02  0.1024516E+00
         21   -1    0    0  502  501  0.00000000000E+00  0.00000000000E+00  0.48753066508E+03  0.48753066508E+03  0.00000000000E+00 0.  1.
         21   -1    0    0  501  502 -0.00000000000E+00 -0.00000000000E+00 -0.10893812408E+03  0.10893812408E+03  0.00000000000E+00 0.  1.
      99926    2    1    2    0    0  0.14210854715E-13 -0.35527136788E-14  0.37859254100E+03  0.59646878916E+03  0.46091507281E+03 0.  0.
      99925    2    3    3    0    0 -0.82852766927E+02  0.19371313242E+02  0.13101657920E+03  0.30632883375E+03  0.26349987020E+03 0.  0.
         25    1    3    3    0    0  0.82852766927E+02 -0.19371313242E+02  0.24757596181E+03  0.29013995542E+03  0.12509000000E+03 0.  0.
         25    1    4    4    0    0 -0.78044752829E+02 -0.11286985675E+02  0.65071432925E+02  0.16155549812E+03  0.12509000000E+03 0.  0.
         25    1    4    4    0    0 -0.48080140979E+01  0.30658298917E+02  0.65945146270E+02  0.14477333563E+03  0.12509000000E+03 0.  0.
<mgrwt>
<rscale>  2 0.46091507E+03</rscale>
<asrwt>0</asrwt>
<pdfrwt beam="1">  1       21 0.71695685E-01 0.46091507E+03</pdfrwt>
<pdfrwt beam="2">  1       21 0.16020313E-01 0.46091507E+03</pdfrwt>
<totfact> 0.56221753E+04</totfact>
</mgrwt>
</event>
<event>
 7    0  0.4714446E-002  0.4560454E+03  0.7546771E-02  0.1025934E+00
         21   -1    0    0  502  501  0.00000000000E+00  0.00000000000E+00  0.26262151252E+03  0.26262151252E+03  0.00000000000E+00 0. -1.
         21   -1    0    0  501  502 -0.00000000000E+00 -0.00000000000E+00 -0.19798206304E+03  0.19798206304E+03  0.00000000000E+00 0. -1.
      99926    2    1    2    0    0  0.00000000000E+00  0.00000000000E+00  0.64639449478E+02  0.46060357556E+03  0.45604538742E+03 0.  0.
      99925    2    3    3    0    0 -0.10906407716E+03 -0.26458970686E+02  0.20104403554E+02  0.28674751880E+03  0.26310625694E+03 0.  0.
         25    1    3    3    0    0  0.10906407716E+03  0.26458970686E+02  0.44535045924E+02  0.17385605676E+03  0.12509000000E+03 0.  0.
         25    1    4    4    0    0 -0.16152294389E+02 -0.13365782194E+02  0.29060626364E+02  0.13012136201E+03  0.12509000000E+03 0.  0.
         25    1    4    4    0    0 -0.92911782768E+02 -0.13093188492E+02 -0.89562228098E+01  0.15662615678E+03  0.12509000000E+03 0.  0.
<mgrwt>
<rscale>  2 0.45604539E+03</rscale>
<asrwt>0</asrwt>
<pdfrwt beam="1">  1       21 0.38620810E-01 0.45604539E+03</pdfrwt>
<pdfrwt beam="2">  1       21 0.29115009E-01 0.45604539E+03</pdfrwt>
<totfact> 0.67571528E+04</totfact>
</mgrwt>
</event>
<event>
 7    0  0.4714446E-002  0.4671235E+03  0.7546771E-02  0.1022735E+00
         21   -1    0    0  502  501  0.00000000000E+00  0.00000000000E+00  0.31614972923E+03  0.31614972923E+03  0.00000000000E+00 0.  1.
         21   -1    0    0  501  502 -0.00000000000E+00 -0.00000000000E+00 -0.17254831212E+03  0.17254831212E+03  0.00000000000E+00 0.  1.
      99926    2    1    2    0    0  0.14210854715E-13  0.00000000000E+00  0.14360141710E+03  0.48869804135E+03  0.46712354750E+03 0.  0.
      99925    2    3    3    0    0 -0.94471374002E+02 -0.75522004062E+02  0.11900176430E+03  0.31296795109E+03  0.26298118735E+03 0.  0.
         25    1    4    4    0    0 -0.78577403236E+02 -0.64366581365E+02  0.49569606045E+02  0.16858860887E+03  0.12509000000E+03 0.  0.
         25    1    3    3    0    0  0.94471374002E+02  0.75522004062E+02  0.24599652807E+02  0.17573009026E+03  0.12509000000E+03 0.  0.
         25    1    4    4    0    0 -0.15893970767E+02 -0.11155422697E+02  0.69432158252E+02  0.14437934223E+03  0.12509000000E+03 0.  0.
<mgrwt>
<rscale>  2 0.46712355E+03</rscale>
<asrwt>0</asrwt>
<pdfrwt beam="1">  1       21 0.46492607E-01 0.46712355E+03</pdfrwt>
<pdfrwt beam="2">  1       21 0.25374752E-01 0.46712355E+03</pdfrwt>
<totfact> 0.60079069E+04</totfact>
</mgrwt>
</event>
<event>
 7    0  0.4714446E-002  0.4560234E+03  0.7546771E-02  0.1025941E+00
         21   -1    0    0  502  501  0.00000000000E+00  0.00000000000E+00  0.16502293372E+03  0.16502293372E+03  0.00000000000E+00 0.  1.
         21   -1    0    0  501  502 -0.00000000000E+00 -0.00000000000E+00 -0.31504308324E+03  0.31504308324E+03  0.00000000000E+00 0.  1.
      99926    2    1    2    0    0  0.28865798640E-14  0.00000000000E+00 -0.15002014953E+03  0.48006601696E+03  0.45602339345E+03 0.  0.
      99925    2    3    3    0    0 -0.19863324212E+01  0.59194440541E+02  0.84328960478E+01  0.26967874772E+03  0.26295928568E+03 0.  0.
         25    1    3    3    0    0  0.19863324212E+01 -0.59194440541E+02 -0.15845304557E+03  0.21038726924E+03  0.12509000000E+03 0.  0.
         25    1    4    4    0    0 -0.32346294851E+02  0.25258238996E+02 -0.21078421889E+02  0.13332692675E+03  0.12509000000E+03 0.  0.
         25    1    4    4    0    0  0.30359962430E+02  0.33936201545E+02  0.29511317937E+02  0.13635182096E+03  0.12509000000E+03 0.  0.
<mgrwt>
<rscale>  2 0.45602339E+03</rscale>
<asrwt>0</asrwt>
<pdfrwt beam="1">  1       21 0.24268079E-01 0.45602339E+03</pdfrwt>
<pdfrwt beam="2">  1       21 0.46329865E-01 0.45602339E+03</pdfrwt>
<totfact> 0.66156269E+04</totfact>
</mgrwt>
</event>
<event>
 7    0  0.4714446E-002  0.4550184E+03  0.7546771E-02  0.1026236E+00
         21   -1    0    0  502  501  0.00000000000E+00  0.00000000000E+00  0.13818998842E+03  0.13818998842E+03  0.00000000000E+00 0.  1.
         21   -1    0    0  501  502 -0.00000000000E+00 -0.00000000000E+00 -0.37455987811E+03  0.37455987811E+03  0.00000000000E+00 0.  1.
      99926    2    1    2    0    0  0.00000000000E+00  0.00000000000E+00 -0.23636988969E+03  0.51274986653E+03  0.45501835224E+03 0.  0.
      99925    2    3    3    0    0 -0.19742285946E+02  0.10637946385E+03 -0.11123470949E+03  0.30535490611E+03  0.26298690063E+03 0.  0.
         25    1    4    4    0    0  0.27021829683E+01  0.85825420953E+02 -0.85195636441E+02  0.17400893438E+03  0.12509000000E+03 0.  0.
         25    1    4    4    0    0 -0.22444468915E+02  0.20554042897E+02 -0.26039073047E+02  0.13134597173E+03  0.12509000000E+03 0.  0.
         25    1    3    3    0    0  0.19742285946E+02 -0.10637946385E+03 -0.12513518021E+03  0.20739496042E+03  0.12509000000E+03 0.  0.
<mgrwt>
<rscale>  2 0.45501835E+03</rscale>
<asrwt>0</asrwt>
<pdfrwt beam="1">  1       21 0.20322057E-01 0.45501835E+03</pdfrwt>
<pdfrwt beam="2">  1       21 0.55082334E-01 0.45501835E+03</pdfrwt>
<totfact> 0.64374534E+04</totfact>
</mgrwt>
</event>
<event>
 7    0  0.4714446E-002  0.4543404E+03  0.7546771E-02  0.1026436E+00
         21   -1    0    0  502  501  0.00000000000E+00  0.00000000000E+00  0.31405902178E+02  0.31405902178E+02  0.00000000000E+00 0.  1.
         21   -1    0    0  501  502 -0.00000000000E+00 -0.00000000000E+00 -0.16432037462E+04  0.16432037462E+04  0.00000000000E+00 0.  1.
      99926    2    1    2    0    0  0.00000000000E+00  0.00000000000E+00 -0.16117978440E+04  0.16746096484E+04  0.45434038390E+03 0.  0.
      99925    2    3    3    0    0  0.84845019323E+02  0.11334204828E+02 -0.74443437205E+03  0.79410181643E+03  0.26284599877E+03 0.  0.
         25    1    3    3    0    0 -0.84845019323E+02 -0.11334204828E+02 -0.86736347196E+03  0.88050783193E+03  0.12509000000E+03 0.  0.
         25    1    4    4    0    0  0.79098461752E+02 -0.13674311622E+02 -0.41143768017E+03  0.43746088536E+03  0.12509000000E+03 0.  0.
         25    1    4    4    0    0  0.57465575714E+01  0.25008516449E+02 -0.33299669188E+03  0.35664093108E+03  0.12509000000E+03 0.  0.
<mgrwt>
<rscale>  2 0.45434038E+03</rscale>
<asrwt>0</asrwt>
<pdfrwt beam="1">  1       21 0.46185146E-02 0.45434038E+03</pdfrwt>
<pdfrwt beam="2">  1       21 0.24164763E+00 0.45434038E+03</pdfrwt>
<totfact> 0.19896865E+04</totfact>
</mgrwt>
</event>
<event>
 7    0  0.4714446E-002  0.4540692E+03  0.7546771E-02  0.1026515E+00
         21   -1    0    0  502  501  0.00000000000E+00  0.00000000000E+00  0.15200276855E+03  0.15200276855E+03  0.00000000000E+00 0.  1.
         21   -1    0    0  501  502 -0.00000000000E+00 -0.00000000000E+00 -0.33910371821E+03  0.33910371821E+03  0.00000000000E+00 0.  1.
      99926    2    1    2    0    0  0.00000000000E+00  0.00000000000E+00 -0.18710094966E+03  0.49110648676E+03  0.45406917532E+03 0.  0.
      99925    2    3    3    0    0 -0.28582685024E+02  0.39044966570E+02 -0.82990515010E+01  0.26759114907E+03  0.26304879681E+03 0.  0.
         25    1    3    3    0    0  0.28582685024E+02 -0.39044966570E+02 -0.17880189816E+03  0.22351533769E+03  0.12509000000E+03 0.  0.
         25    1    4    4    0    0 -0.27011570615E+02  0.16229152922E+02 -0.42656719982E+02  0.13586800290E+03  0.12509000000E+03 0.  0.
         25    1    4    4    0    0 -0.15711144086E+01  0.22815813648E+02  0.34357668481E+02  0.13172314617E+03  0.12509000000E+03 0.  0.
<mgrwt>
<rscale>  2 0.45406918E+03</rscale>
<asrwt>0</asrwt>
<pdfrwt beam="1">  1       21 0.22353348E-01 0.45406918E+03</pdfrwt>
<pdfrwt beam="2">  1       21 0.49868194E-01 0.45406918E+03</pdfrwt>
<totfact> 0.66389312E+04</totfact>
</mgrwt>
</event>
<event>
 7    0  0.4714446E-002  0.4477512E+03  0.7546771E-02  0.1028395E+00
         21   -1    0    0  502  501  0.00000000000E+00  0.00000000000E+00  0.51744182848E+02  0.51744182848E+02  0.00000000000E+00 0. -1.
         21   -1    0    0  501  502 -0.00000000000E+00 -0.00000000000E+00 -0.96861684000E+03  0.96861684000E+03  0.00000000000E+00 0. -1.
      99926    2    1    2    0    0 -0.35527136788E-14  0.00000000000E+00 -0.91687265715E+03  0.10203610228E+04  0.44775121163E+03 0.  0.
      99925    2    3    3    0    0  0.18136715950E+02  0.86177457821E+02 -0.44544138759E+03  0.52472966314E+03  0.26299751881E+03 0.  0.
         25    1    4    4    0    0  0.52428059743E+01  0.83834897656E+02 -0.26368176211E+03  0.30369615877E+03  0.12509000000E+03 0.  0.
         25    1    3    3    0    0 -0.18136715950E+02 -0.86177457821E+02 -0.47143126956E+03  0.49563135971E+03  0.12509000000E+03 0.  0.
         25    1    4    4    0    0  0.12893909976E+02  0.23425601645E+01 -0.18175962547E+03  0.22103350437E+03  0.12509000000E+03 0.  0.
<mgrwt>
<rscale>  2 0.44775121E+03</rscale>
<asrwt>0</asrwt>
<pdfrwt beam="1">  1       21 0.76094389E-02 0.44775121E+03</pdfrwt>
<pdfrwt beam="2">  1       21 0.14244365E+00 0.44775121E+03</pdfrwt>
<totfact> 0.40635642E+04</totfact>
</mgrwt>
</event>
<event>
 7    0  0.4714446E-002  0.4554794E+03  0.7546771E-02  0.1026101E+00
         21   -1    0    0  502  501  0.00000000000E+00  0.00000000000E+00  0.11651577356E+04  0.11651577356E+04  0.00000000000E+00 0.  1.
         21   -1    0    0  501  502 -0.00000000000E+00 -0.00000000000E+00 -0.44513612472E+02  0.44513612472E+02  0.00000000000E+00 0.  1.
      99926    2    1    2    0    0 -0.35527136788E-14  0.00000000000E+00  0.11206441231E+04  0.12096713481E+04  0.45547943932E+03 0.  0.
      99925    2    3    3    0    0 -0.28402380986E+02 -0.20720494053E+02  0.41791627728E+03  0.49503160138E+03  0.26299474792E+03 0.  0.
         25    1    4    4    0    0 -0.19206693611E+02  0.29955599704E+02  0.20610041723E+03  0.24370294442E+03  0.12509000000E+03 0.  0.
         25    1    4    4    0    0 -0.91956873748E+01 -0.50676093758E+02  0.21181586004E+03  0.25132865696E+03  0.12509000000E+03 0.  0.
         25    1    3    3    0    0  0.28402380986E+02  0.20720494053E+02  0.70272784585E+03  0.71463974670E+03  0.12509000000E+03 0.  0.
<mgrwt>
<rscale>  2 0.45547944E+03</rscale>
<asrwt>0</asrwt>
<pdfrwt beam="1">  1       21 0.17134671E+00 0.45547944E+03</pdfrwt>
<pdfrwt beam="2">  1       21 0.65461202E-02 0.45547944E+03</pdfrwt>
<totfact> 0.31732253E+04</totfact>
</mgrwt>
</event>
<event>
 7    0  0.4714446E-002  0.4550681E+03  0.7546771E-02  0.1026221E+00
         21   -1    0    0  502  501  0.00000000000E+00  0.00000000000E+00  0.13114654298E+03  0.13114654298E+03  0.00000000000E+00 0. -1.
         21   -1    0    0  501  502 -0.00000000000E+00 -0.00000000000E+00 -0.39476259075E+03  0.39476259075E+03  0.00000000000E+00 0. -1.
      99926    2    1    2    0    0  0.00000000000E+00  0.88817841970E-15 -0.26361604776E+03  0.52590913373E+03  0.45506812270E+03 0.  0.
      99925    2    3    3    0    0 -0.11126545456E+03 -0.75546558253E+01 -0.14328628259E+03  0.31959908868E+03  0.26301244172E+03 0.  0.
         25    1    4    4    0    0 -0.75392921021E+02 -0.21246948324E+02 -0.40053124055E+02  0.15292902341E+03  0.12509000000E+03 0.  0.
         25    1    3    3    0    0  0.11126545456E+03  0.75546558253E+01 -0.12032976517E+03  0.20631004505E+03  0.12509000000E+03 0.  0.
         25    1    4    4    0    0 -0.35872533538E+02  0.13692292499E+02 -0.10323315854E+03  0.16667006527E+03  0.12509000000E+03 0.  0.
<mgrwt>
<rscale>  2 0.45506812E+03</rscale>
<asrwt>0</asrwt>
<pdfrwt beam="1">  1       21 0.19286256E-01 0.45506812E+03</pdfrwt>
<pdfrwt beam="2">  1       21 0.58053322E-01 0.45506812E+03</pdfrwt>
<totfact> 0.63450034E+04</totfact>
</mgrwt>
</event>
<event>
 7    0  0.4714446E-002  0.4706509E+03  0.7546771E-02  0.1021737E+00
         21   -1    0    0  502  501  0.00000000000E+00  0.00000000000E+00  0.19243949307E+03  0.19243949307E+03  0.00000000000E+00 0. -1.
         21   -1    0    0  501  502 -0.00000000000E+00 -0.00000000000E+00 -0.28776873234E+03  0.28776873234E+03  0.00000000000E+00 0. -1.
      99926    2    1    2    0    0  0.00000000000E+00  0.00000000000E+00 -0.95329239275E+02  0.48020822541E+03  0.47065090661E+03 0.  0.
      99925    2    3    3    0    0  0.89881098252E+02 -0.76907057043E+02 -0.11288842636E+02  0.28862637968E+03  0.26302935546E+03 0.  0.
         25    1    4    4    0    0  0.81375654361E+02 -0.54016688734E+02  0.11630775011E+02  0.15913070983E+03  0.12509000000E+03 0.  0.
         25    1    3    3    0    0 -0.89881098252E+02  0.76907057043E+02 -0.84040396639E+02  0.19158184573E+03  0.12509000000E+03 0.  0.
         25    1    4    4    0    0  0.85054438908E+01 -0.22890368310E+02 -0.22919617646E+02  0.12949566985E+03  0.12509000000E+03 0.  0.
<mgrwt>
<rscale>  2 0.47065091E+03</rscale>
<asrwt>0</asrwt>
<pdfrwt beam="1">  1       21 0.28299926E-01 0.47065091E+03</pdfrwt>
<pdfrwt beam="2">  1       21 0.42318930E-01 0.47065091E+03</pdfrwt>
<totfact> 0.59006138E+04</totfact>
</mgrwt>
</event>
<event>
 7    0  0.4714446E-002  0.4533853E+03  0.7546771E-02  0.1026717E+00
         21   -1    0    0  502  501  0.00000000000E+00  0.00000000000E+00  0.90770399194E+03  0.90770399194E+03  0.00000000000E+00 0.  1.
         21   -1    0    0  501  502 -0.00000000000E+00 -0.00000000000E+00 -0.56614892617E+02  0.56614892617E+02  0.00000000000E+00 0.  1.
      99926    2    1    2    0    0  0.00000000000E+00  0.00000000000E+00  0.85108909933E+03  0.96431888456E+03  0.45338532853E+03 0.  0.
      99925    2    3    3    0    0 -0.94697869442E+02 -0.40053479698E+02  0.44378787503E+03  0.52601104396E+03  0.26299804683E+03 0.  0.
         25    1    4    4    0    0 -0.37681991458E+02 -0.55730163550E+02  0.25590683678E+03  0.29268003146E+03  0.12509000000E+03 0.  0.
         25    1    3    3    0    0  0.94697869442E+02  0.40053479698E+02  0.40730122430E+03  0.43830784060E+03  0.12509000000E+03 0.  0.
         25    1    4    4    0    0 -0.57015877984E+02  0.15676683853E+02  0.18788103825E+03  0.23333101250E+03  0.12509000000E+03 0.  0.
<mgrwt>
<rscale>  2 0.45338533E+03</rscale>
<asrwt>0</asrwt>
<pdfrwt beam="1">  1       21 0.13348587E+00 0.45338533E+03</pdfrwt>
<pdfrwt beam="2">  1       21 0.83257201E-02 0.45338533E+03</pdfrwt>
<totfact> 0.41082591E+04</totfact>
</mgrwt>
</event>
<event>
 7    0  0.4714446E-002  0.4595118E+03  0.7546771E-02  0.1024923E+00
         21   -1    0    0  502  501  0.00000000000E+00  0.00000000000E+00  0.31859361495E+03  0.31859361495E+03  0.00000000000E+00 0. -1.
         21   -1    0    0  501  502 -0.00000000000E+00 -0.00000000000E+00 -0.16568998125E+03  0.16568998125E+03  0.00000000000E+00 0. -1.
      99926    2    1    2    0    0 -0.71054273576E-14  0.00000000000E+00  0.15290363370E+03  0.48428359620E+03  0.45951178478E+03 0.  0.
      99925    2    3    3    0    0 -0.62701111682E+02  0.92313931844E+02  0.13378176371E+03  0.31556357536E+03  0.26311502879E+03 0.  0.
         25    1    4    4    0    0 -0.35003601799E+02  0.40790807715E+01  0.53959917662E+02  0.14071628141E+03  0.12509000000E+03 0.  0.
         25    1    3    3    0    0  0.62701111682E+02 -0.92313931844E+02  0.19121869994E+02  0.16872002084E+03  0.12509000000E+03 0.  0.
         25    1    4    4    0    0 -0.27697509883E+02  0.88234851073E+02  0.79821846044E+02  0.17484729395E+03  0.12509000000E+03 0.  0.
<mgrwt>
<rscale>  2 0.45951178E+03</rscale>
<asrwt>0</asrwt>
<pdfrwt beam="1">  1       21 0.46852002E-01 0.45951178E+03</pdfrwt>
<pdfrwt beam="2">  1       21 0.24366174E-01 0.45951178E+03</pdfrwt>
<totfact> 0.64064280E+04</totfact>
</mgrwt>
</event>
<event>
 7    0  0.4714446E-002  0.4555431E+03  0.7546771E-02  0.1026082E+00
         21   -1    0    0  502  501  0.00000000000E+00  0.00000000000E+00  0.14436895261E+03  0.14436895261E+03  0.00000000000E+00 0.  1.
         21   -1    0    0  501  502 -0.00000000000E+00 -0.00000000000E+00 -0.35935615773E+03  0.35935615773E+03  0.00000000000E+00 0.  1.
      99926    2    1    2    0    0  0.00000000000E+00 -0.71054273576E-14 -0.21498720512E+03  0.50372511034E+03  0.45554306977E+03 0.  0.
      99925    2    3    3    0    0 -0.82135354341E+00 -0.37067853433E+02 -0.16359312393E+02  0.26607989526E+03  0.26297563229E+03 0.  0.
         25    1    4    4    0    0 -0.14954263424E+02  0.18462504929E+02  0.15068854535E+01  0.12733527746E+03  0.12509000000E+03 0.  0.
         25    1    3    3    0    0  0.82135354341E+00  0.37067853433E+02 -0.19862789273E+03  0.23764521508E+03  0.12509000000E+03 0.  0.
         25    1    4    4    0    0  0.14132909881E+02 -0.55530358362E+02 -0.17866197847E+02  0.13874461779E+03  0.12509000000E+03 0.  0.
<mgrwt>
<rscale>  2 0.45554307E+03</rscale>
<asrwt>0</asrwt>
<pdfrwt beam="1">  1       21 0.21230728E-01 0.45554307E+03</pdfrwt>
<pdfrwt beam="2">  1       21 0.52846494E-01 0.45554307E+03</pdfrwt>
<totfact> 0.64730267E+04</totfact>
</mgrwt>
</event>
<event>
 7    0  0.4714446E-002  0.4472825E+03  0.7546771E-02  0.1028536E+00
         21   -1    0    0  502  501  0.00000000000E+00  0.00000000000E+00  0.66944300677E+03  0.66944300677E+03  0.00000000000E+00 0. -1.
         21   -1    0    0  501  502 -0.00000000000E+00 -0.00000000000E+00 -0.74711973887E+02  0.74711973887E+02  0.00000000000E+00 0. -1.
      99926    2    1    2    0    0  0.00000000000E+00  0.00000000000E+00  0.59473103289E+03  0.74415498066E+03  0.44728249883E+03 0.  0.
      99925    2    3    3    0    0 -0.23736074937E+02  0.27902697696E+02  0.21172936453E+03  0.33958144240E+03  0.26295298140E+03 0.  0.
         25    1    3    3    0    0  0.23736074937E+02 -0.27902697696E+02  0.38300166836E+03  0.40457353826E+03  0.12509000000E+03 0.  0.
         25    1    4    4    0    0 -0.14869053467E+02  0.54234771664E+01  0.15583782938E+03  0.20045807547E+03  0.12509000000E+03 0.  0.
         25    1    4    4    0    0 -0.88670214699E+01  0.22479220530E+02  0.55891535145E+02  0.13912336693E+03  0.12509000000E+03 0.  0.
<mgrwt>
<rscale>  2 0.44728250E+03</rscale>
<asrwt>0</asrwt>
<pdfrwt beam="1">  1       21 0.98447498E-01 0.44728250E+03</pdfrwt>
<pdfrwt beam="2">  1       21 0.10987055E-01 0.44728250E+03</pdfrwt>
<totfact> 0.53758026E+04</totfact>
</mgrwt>
</event>
<event>
 7    0  0.4714446E-002  0.4516826E+03  0.7546771E-02  0.1027221E+00
         21   -1    0    0  502  501  0.00000000000E+00  0.00000000000E+00  0.40034720428E+03  0.40034720428E+03  0.00000000000E+00 0.  1.
         21   -1    0    0  501  502 -0.00000000000E+00 -0.00000000000E+00 -0.12740016862E+03  0.12740016862E+03  0.00000000000E+00 0.  1.
      99926    2    1    2    0    0  0.00000000000E+00  0.00000000000E+00  0.27294703566E+03  0.52774737289E+03  0.45168263783E+03 0.  0.
      99925    2    3    3    0    0  0.79636178112E+02  0.69802301078E+02  0.20739332105E+03  0.35122802636E+03  0.26293507713E+03 0.  0.
         25    1    4    4    0    0  0.11140779158E+02  0.44792680052E+01  0.10645238902E+03  0.16469304791E+03  0.12509000000E+03 0.  0.
         25    1    4    4    0    0  0.68495398954E+02  0.65323033073E+02  0.10094093203E+03  0.18653497845E+03  0.12509000000E+03 0.  0.
         25    1    3    3    0    0 -0.79636178112E+02 -0.69802301078E+02  0.65553714613E+02  0.17651934653E+03  0.12509000000E+03 0.  0.
<mgrwt>
<rscale>  2 0.45168264E+03</rscale>
<asrwt>0</asrwt>
<pdfrwt beam="1">  1       21 0.58874589E-01 0.45168264E+03</pdfrwt>
<pdfrwt beam="2">  1       21 0.18735319E-01 0.45168264E+03</pdfrwt>
<totfact> 0.65052986E+04</totfact>
</mgrwt>
</event>
<event>
 7    0  0.4714446E-002  0.4577063E+03  0.7546771E-02  0.1025449E+00
         21   -1    0    0  502  501  0.00000000000E+00  0.00000000000E+00  0.22079320670E+03  0.22079320670E+03  0.00000000000E+00 0.  1.
         21   -1    0    0  501  502 -0.00000000000E+00 -0.00000000000E+00 -0.23720727319E+03  0.23720727319E+03  0.00000000000E+00 0.  1.
      99926    2    1    2    0    0 -0.35527136788E-14 -0.14210854715E-13 -0.16414066484E+02  0.45800047989E+03  0.45770625733E+03 0.  0.
      99925    2    3    3    0    0 -0.18720388422E+02  0.87725705178E+02 -0.83568642865E+02  0.29006151026E+03  0.26287964807E+03 0.  0.
         25    1    4    4    0    0  0.65904272100E+01  0.77404900354E+02 -0.25391678794E+02  0.14942288239E+03  0.12509000000E+03 0.  0.
         25    1    3    3    0    0  0.18720388422E+02 -0.87725705178E+02  0.67154576380E+02  0.16793896963E+03  0.12509000000E+03 0.  0.
         25    1    4    4    0    0 -0.25310815632E+02  0.10320804824E+02 -0.58176964071E+02  0.14063862787E+03  0.12509000000E+03 0.  0.
<mgrwt>
<rscale>  2 0.45770626E+03</rscale>
<asrwt>0</asrwt>
<pdfrwt beam="1">  1       21 0.32469589E-01 0.45770626E+03</pdfrwt>
<pdfrwt beam="2">  1       21 0.34883423E-01 0.45770626E+03</pdfrwt>
<totfact> 0.66870903E+04</totfact>
</mgrwt>
</event>
<event>
 7    0  0.4714446E-002  0.4642198E+03  0.7546771E-02  0.1023564E+00
         21   -1    0    0  502  501  0.00000000000E+00  0.00000000000E+00  0.46035309166E+02  0.46035309166E+02  0.00000000000E+00 0.  1.
         21   -1    0    0  501  502 -0.00000000000E+00 -0.00000000000E+00 -0.11702974772E+04  0.11702974772E+04  0.00000000000E+00 0.  1.
      99926    2    1    2    0    0  0.00000000000E+00  0.00000000000E+00 -0.11242621680E+04  0.12163327863E+04  0.46421980215E+03 0.  0.
      99925    2    3    3    0    0  0.14411105554E+02 -0.95463350567E+02 -0.89261858160E+03  0.93592738253E+03  0.26433161346E+03 0.  0.
         25    1    3    3    0    0 -0.14411105554E+02  0.95463350567E+02 -0.23164358641E+03  0.28040540381E+03  0.12509000000E+03 0.  0.
         25    1    4    4    0    0  0.67477155297E+00 -0.91686868813E+02 -0.46720380372E+03  0.49227415080E+03  0.12509000000E+03 0.  0.
         25    1    4    4    0    0  0.13736334001E+02 -0.37764817538E+01 -0.42541477788E+03  0.44365323173E+03  0.12509000000E+03 0.  0.
<mgrwt>
<rscale>  2 0.46421980E+03</rscale>
<asrwt>0</asrwt>
<pdfrwt beam="1">  1       21 0.67699002E-02 0.46421980E+03</pdfrwt>
<pdfrwt beam="2">  1       21 0.17210253E+00 0.46421980E+03</pdfrwt>
<totfact> 0.29468794E+04</totfact>
</mgrwt>
</event>
<event>
 7    0  0.4714446E-002  0.4540525E+03  0.7546771E-02  0.1026520E+00
         21   -1    0    0  502  501  0.00000000000E+00  0.00000000000E+00  0.23137830153E+03  0.23137830153E+03  0.00000000000E+00 0. -1.
         21   -1    0    0  501  502 -0.00000000000E+00 -0.00000000000E+00 -0.22275603231E+03  0.22275603231E+03  0.00000000000E+00 0. -1.
      99926    2    1    2    0    0  0.88817841970E-15  0.14210854715E-13  0.86222692133E+01  0.45413433384E+03  0.45405247455E+03 0.  0.
      99925    2    3    3    0    0  0.63612452862E+01 -0.10483525749E+03 -0.34623783145E+02  0.28517094787E+03  0.26285502943E+03 0.  0.
         25    1    4    4    0    0  0.11228536128E+02 -0.94055946781E+02 -0.10755828947E+02  0.15727618098E+03  0.12509000000E+03 0.  0.
         25    1    3    3    0    0 -0.63612452862E+01  0.10483525749E+03  0.43246052359E+02  0.16896338597E+03  0.12509000000E+03 0.  0.
         25    1    4    4    0    0 -0.48672908422E+01 -0.10779310705E+02 -0.23867954198E+02  0.12789476689E+03  0.12509000000E+03 0.  0.
<mgrwt>
<rscale>  2 0.45405247E+03</rscale>
<asrwt>0</asrwt>
<pdfrwt beam="1">  1       21 0.34026221E-01 0.45405247E+03</pdfrwt>
<pdfrwt beam="2">  1       21 0.32758240E-01 0.45405247E+03</pdfrwt>
<totfact> 0.69130427E+04</totfact>
</mgrwt>
</event>
<event>
 7    0  0.4714446E-002  0.4520550E+03  0.7546771E-02  0.1027111E+00
         21   -1    0    0  502  501  0.00000000000E+00  0.00000000000E+00  0.36552177550E+03  0.36552177550E+03  0.00000000000E+00 0.  1.
         21   -1    0    0  501  502 -0.00000000000E+00 -0.00000000000E+00 -0.13976848654E+03  0.13976848654E+03  0.00000000000E+00 0.  1.
      99926    2    1    2    0    0  0.00000000000E+00 -0.14210854715E-13  0.22575328896E+03  0.50529026205E+03  0.45205497613E+03 0.  0.
      99925    2    3    3    0    0 -0.68505326835E+02  0.69284164208E+02  0.84391932415E+02  0.29286659001E+03  0.26297445898E+03 0.  0.
         25    1    4    4    0    0 -0.45041421579E+02 -0.43165486718E+01  0.32273542526E+02  0.13688115976E+03  0.12509000000E+03 0.  0.
         25    1    4    4    0    0 -0.23463905256E+02  0.73600712880E+02  0.52118389890E+02  0.15598543025E+03  0.12509000000E+03 0.  0.
         25    1    3    3    0    0  0.68505326835E+02 -0.69284164208E+02  0.14136135655E+03  0.21242367203E+03  0.12509000000E+03 0.  0.
<mgrwt>
<rscale>  2 0.45205498E+03</rscale>
<asrwt>0</asrwt>
<pdfrwt beam="1">  1       21 0.53753202E-01 0.45205498E+03</pdfrwt>
<pdfrwt beam="2">  1       21 0.20554189E-01 0.45205498E+03</pdfrwt>
<totfact> 0.66440048E+04</totfact>
</mgrwt>
</event>
<event>
 7    0  0.4714446E-002  0.4514110E+03  0.7546771E-02  0.1027302E+00
         21   -1    0    0  502  501  0.00000000000E+00  0.00000000000E+00  0.20938699384E+04  0.20938699384E+04  0.00000000000E+00 0. -1.
         21   -1    0    0  501  502 -0.00000000000E+00 -0.00000000000E+00 -0.24329575902E+02  0.24329575902E+02  0.00000000000E+00 0. -1.
      99926    2    1    2    0    0  0.71054273576E-14  0.00000000000E+00  0.20695403625E+04  0.21181995143E+04  0.45141097725E+03 0.  0.
      99925    2    3    3    0    0  0.52312750497E+02  0.95042902071E+02  0.13851223455E+04  0.14140366729E+04  0.26299434071E+03 0.  0.
         25    1    3    3    0    0 -0.52312750497E+02 -0.95042902071E+02  0.68441801698E+03  0.70416284137E+03  0.12509000000E+03 0.  0.
         25    1    4    4    0    0 -0.70866203637E+01  0.39733556252E+02  0.53312285375E+03  0.54908693389E+03  0.12509000000E+03 0.  0.
         25    1    4    4    0    0  0.59399370861E+02  0.55309345819E+02  0.85199949176E+03  0.86494973903E+03  0.12509000000E+03 0.  0.
<mgrwt>
<rscale>  2 0.45141098E+03</rscale>
<asrwt>0</asrwt>
<pdfrwt beam="1">  1       21 0.30792193E+00 0.45141098E+03</pdfrwt>
<pdfrwt beam="2">  1       21 0.35778802E-02 0.45141098E+03</pdfrwt>
<totfact> 0.12211049E+04</totfact>
</mgrwt>
</event>
<event>
 7    0  0.4714446E-002  0.4540906E+03  0.7546771E-02  0.1026509E+00
         21   -1    0    0  502  501  0.00000000000E+00  0.00000000000E+00  0.33479255735E+03  0.33479255735E+03  0.00000000000E+00 0.  1.
         21   -1    0    0  501  502 -0.00000000000E+00 -0.00000000000E+00 -0.15397462363E+03  0.15397462363E+03  0.00000000000E+00 0.  1.
      99926    2    1    2    0    0  0.00000000000E+00  0.00000000000E+00  0.18081793372E+03  0.48876718098E+03  0.45409055490E+03 0.  0.
      99925    2    3    3    0    0  0.39985122878E+02 -0.10084340506E+03  0.83205752585E+02  0.29655935491E+03  0.26316544478E+03 0.  0.
         25    1    3    3    0    0 -0.39985122878E+02  0.10084340506E+03  0.97612181140E+02  0.19220782607E+03  0.12509000000E+03 0.  0.
         25    1    4    4    0    0  0.47454283544E+02 -0.61892393708E+02  0.74177378005E+02  0.16502232859E+03  0.12509000000E+03 0.  0.
         25    1    4    4    0    0 -0.74691606660E+01 -0.38951011348E+02  0.90283745802E+01  0.13153702632E+03  0.12509000000E+03 0.  0.
<mgrwt>
<rscale>  2 0.45409055E+03</rscale>
<asrwt>0</asrwt>
<pdfrwt beam="1">  1       21 0.49234200E-01 0.45409055E+03</pdfrwt>
<pdfrwt beam="2">  1       21 0.22643327E-01 0.45409055E+03</pdfrwt>
<totfact> 0.66546392E+04</totfact>
</mgrwt>
</event>
<event>
 7    0  0.4714446E-002  0.4590888E+03  0.7546771E-02  0.1025046E+00
         21   -1    0    0  502  501  0.00000000000E+00  0.00000000000E+00  0.20089073042E+03  0.20089073042E+03  0.00000000000E+00 0.  1.
         21   -1    0    0  501  502 -0.00000000000E+00 -0.00000000000E+00 -0.26228504005E+03  0.26228504005E+03  0.00000000000E+00 0.  1.
      99926    2    1    2    0    0  0.00000000000E+00  0.00000000000E+00 -0.61394309631E+02  0.46317577047E+03  0.45908880741E+03 0.  0.
      99925    2    3    3    0    0 -0.89219097364E+02 -0.74047405504E+02 -0.54210865103E+02  0.29246497534E+03  0.26297124997E+03 0.  0.
         25    1    4    4    0    0 -0.35732257985E+02 -0.15580873647E+02  0.92787712974E+01  0.13135129075E+03  0.12509000000E+03 0.  0.
         25    1    4    4    0    0 -0.53486839379E+02 -0.58466531856E+02 -0.63489636401E+02  0.16111368460E+03  0.12509000000E+03 0.  0.
         25    1    3    3    0    0  0.89219097364E+02  0.74047405504E+02 -0.71834445275E+01  0.17071079512E+03  0.12509000000E+03 0.  0.
<mgrwt>
<rscale>  2 0.45908881E+03</rscale>
<asrwt>0</asrwt>
<pdfrwt beam="1">  1       21 0.29542754E-01 0.45908881E+03</pdfrwt>
<pdfrwt beam="2">  1       21 0.38571330E-01 0.45908881E+03</pdfrwt>
<totfact> 0.65778556E+04</totfact>
</mgrwt>
</event>
<event>
 7    0  0.4714446E-002  0.4411258E+03  0.7546771E-02  0.1030402E+00
         21   -1    0    0  502  501  0.00000000000E+00  0.00000000000E+00  0.47248418259E+03  0.47248418259E+03  0.00000000000E+00 0.  1.
         21   -1    0    0  501  502 -0.00000000000E+00 -0.00000000000E+00 -0.10296216039E+03  0.10296216039E+03  0.00000000000E+00 0.  1.
      99926    2    1    2    0    0 -0.14210854715E-13  0.00000000000E+00  0.36952202220E+03  0.57544634298E+03  0.44112579698E+03 0.  0.
      99925    2    3    3    0    0 -0.97917303552E+02 -0.17081367002E+02  0.24445282620E+03  0.37254394447E+03  0.26296812524E+03 0.  0.
         25    1    3    3    0    0  0.97917303552E+02  0.17081367002E+02  0.12506919601E+03  0.20290239852E+03  0.12509000000E+03 0.  0.
         25    1    4    4    0    0 -0.45938146808E+02  0.71163076140E+01  0.71072570353E+02  0.15119448906E+03  0.12509000000E+03 0.  0.
         25    1    4    4    0    0 -0.51979156744E+02 -0.24197674616E+02  0.17338025584E+03  0.22134945541E+03  0.12509000000E+03 0.  0.
<mgrwt>
<rscale>  2 0.44112580E+03</rscale>
<asrwt>0</asrwt>
<pdfrwt beam="1">  1       21 0.69482967E-01 0.44112580E+03</pdfrwt>
<pdfrwt beam="2">  1       21 0.15141494E-01 0.44112580E+03</pdfrwt>
<totfact> 0.67299801E+04</totfact>
</mgrwt>
</event>
<event>
 7    0  0.4714446E-002  0.4545601E+03  0.7546771E-02  0.1026371E+00
         21   -1    0    0  502  501  0.00000000000E+00  0.00000000000E+00  0.21491391668E+03  0.21491391668E+03  0.00000000000E+00 0.  1.
         21   -1    0    0  501  502 -0.00000000000E+00 -0.00000000000E+00 -0.24035768932E+03  0.24035768932E+03  0.00000000000E+00 0.  1.
      99926    2    1    2    0    0  0.00000000000E+00 -0.35527136788E-14 -0.25443772641E+02  0.45527160600E+03  0.45456006167E+03 0.  0.
      99925    2    3    3    0    0  0.83113915794E+02  0.16714739689E+02  0.59988551677E+02  0.28168158423E+03  0.26183693979E+03 0.  0.
         25    1    3    3    0    0 -0.83113915794E+02 -0.16714739689E+02 -0.85432324319E+02  0.17359002178E+03  0.12509000000E+03 0.  0.
         25    1    4    4    0    0  0.24040417550E+02  0.41021882149E+02  0.17637111752E+02  0.13497893281E+03  0.12509000000E+03 0.  0.
         25    1    4    4    0    0  0.59073498244E+02 -0.24307142460E+02  0.42351439925E+02  0.14670265142E+03  0.12509000000E+03 0.  0.
<mgrwt>
<rscale>  2 0.45456006E+03</rscale>
<asrwt>0</asrwt>
<pdfrwt beam="1">  1       21 0.31604988E-01 0.45456006E+03</pdfrwt>
<pdfrwt beam="2">  1       21 0.35346719E-01 0.45456006E+03</pdfrwt>
<totfact> 0.68767000E+04</totfact>
</mgrwt>
</event>
<event>
 7    0  0.4714446E-002  0.3953945E+03  0.7546771E-02  0.1045386E+00
         21   -1    0    0  502  501  0.00000000000E+00  0.00000000000E+00  0.45080201222E+03  0.45080201222E+03  0.00000000000E+00 0. -1.
         21   -1    0    0  501  502 -0.00000000000E+00 -0.00000000000E+00 -0.86699285517E+02  0.86699285517E+02  0.00000000000E+00 0. -1.
      99926    2    1    2    0    0 -0.35527136788E-14  0.00000000000E+00  0.36410272670E+03  0.53750129773E+03  0.39539454912E+03 0.  0.
      99925    2    3    3    0    0 -0.27381511866E+02  0.21705012581E+02  0.23439335035E+03  0.35394507971E+03  0.26289926207E+03 0.  0.
         25    1    4    4    0    0 -0.22148600891E+02  0.25310806979E+01  0.16889499994E+03  0.21135277617E+03  0.12509000000E+03 0.  0.
         25    1    3    3    0    0  0.27381511866E+02 -0.21705012581E+02  0.12970937635E+03  0.18355621803E+03  0.12509000000E+03 0.  0.
         25    1    4    4    0    0 -0.52329109746E+01  0.19173931883E+02  0.65498350412E+02  0.14259230354E+03  0.12509000000E+03 0.  0.
<mgrwt>
<rscale>  2 0.39539455E+03</rscale>
<asrwt>0</asrwt>
<pdfrwt beam="1">  1       21 0.66294413E-01 0.39539455E+03</pdfrwt>
<pdfrwt beam="2">  1       21 0.12749895E-01 0.39539455E+03</pdfrwt>
<totfact> 0.10357876E+05</totfact>
</mgrwt>
</event>
<event>
 7    0  0.4714446E-002  0.4590259E+03  0.7546771E-02  0.1025064E+00
         21   -1    0    0  502  501  0.00000000000E+00  0.00000000000E+00  0.44565963151E+02  0.44565963151E+02  0.00000000000E+00 0. -1.
         21   -1    0    0  501  502 -0.00000000000E+00 -0.00000000000E+00 -0.11819828189E+04  0.11819828189E+04  0.00000000000E+00 0. -1.
      99926    2    1    2    0    0  0.00000000000E+00  0.00000000000E+00 -0.11374168557E+04  0.12265487820E+04  0.45902593718E+03 0.  0.
      99925    2    3    3    0    0  0.38230149101E+02 -0.81751414966E+02 -0.51444750933E+03  0.58476754765E+03  0.26296769152E+03 0.  0.
         25    1    4    4    0    0 -0.77794694394E+01 -0.71618150059E+02 -0.26546374476E+03  0.30217244654E+03  0.12509000000E+03 0.  0.
         25    1    3    3    0    0 -0.38230149101E+02  0.81751414966E+02 -0.62296934639E+03  0.64178123437E+03  0.12509000000E+03 0.  0.
         25    1    4    4    0    0  0.46009618540E+02 -0.10133264907E+02 -0.24898376457E+03  0.28259510112E+03  0.12509000000E+03 0.  0.
<mgrwt>
<rscale>  2 0.45902594E+03</rscale>
<asrwt>0</asrwt>
<pdfrwt beam="1">  1       21 0.65538181E-02 0.45902594E+03</pdfrwt>
<pdfrwt beam="2">  1       21 0.17382100E+00 0.45902594E+03</pdfrwt>
<totfact> 0.30361728E+04</totfact>
</mgrwt>
</event>
<event>
 7    0  0.4714446E-002  0.4476060E+03  0.7546771E-02  0.1028438E+00
         21   -1    0    0  502  501  0.00000000000E+00  0.00000000000E+00  0.43024378418E+03  0.43024378418E+03  0.00000000000E+00 0. -1.
         21   -1    0    0  501  502 -0.00000000000E+00 -0.00000000000E+00 -0.11641722504E+03  0.11641722504E+03  0.00000000000E+00 0. -1.
      99926    2    1    2    0    0 -0.71054273576E-14  0.00000000000E+00  0.31382655914E+03  0.54666100922E+03  0.44760602071E+03 0.  0.
      99925    2    3    3    0    0  0.54603313787E+02  0.54651365193E+02  0.28755025110E+03  0.39730825210E+03  0.26305970175E+03 0.  0.
         25    1    4    4    0    0  0.58819204119E+02  0.53579840706E+02  0.14117978571E+03  0.20471868038E+03  0.12509000000E+03 0.  0.
         25    1    3    3    0    0 -0.54603313787E+02 -0.54651365193E+02  0.26276308038E+02  0.14935275712E+03  0.12509000000E+03 0.  0.
         25    1    4    4    0    0 -0.42158903318E+01  0.10715244871E+01  0.14637046539E+03  0.19258957172E+03  0.12509000000E+03 0.  0.
<mgrwt>
<rscale>  2 0.44760602E+03</rscale>
<asrwt>0</asrwt>
<pdfrwt beam="1">  1       21 0.63271144E-01 0.44760602E+03</pdfrwt>
<pdfrwt beam="2">  1       21 0.17120180E-01 0.44760602E+03</pdfrwt>
<totfact> 0.65856891E+04</totfact>
</mgrwt>
</event>
<event>
 7    0  0.4714446E-002  0.4750146E+03  0.7546771E-02  0.1020514E+00
         21   -1    0    0  502  501  0.00000000000E+00  0.00000000000E+00  0.38044241662E+03  0.38044241662E+03  0.00000000000E+00 0.  1.
         21   -1    0    0  501  502 -0.00000000000E+00 -0.00000000000E+00 -0.14827397343E+03  0.14827397343E+03  0.00000000000E+00 0.  1.
      99926    2    1    2    0    0  0.00000000000E+00  0.00000000000E+00  0.23216844319E+03  0.52871639005E+03  0.47501456303E+03 0.  0.
      99925    2    3    3    0    0 -0.28234785936E+02 -0.12792188235E+03  0.14692214544E+03  0.32852735314E+03  0.26302641277E+03 0.  0.
         25    1    3    3    0    0  0.28234785936E+02  0.12792188235E+03  0.85246297742E+02  0.20018903691E+03  0.12509000000E+03 0.  0.
         25    1    4    4    0    0  0.26187576871E+02 -0.57204192666E+02  0.75588555473E+02  0.15912022706E+03  0.12509000000E+03 0.  0.
         25    1    4    4    0    0 -0.54422362807E+02 -0.70717689681E+02  0.71333589972E+02  0.16940712608E+03  0.12509000000E+03 0.  0.
<mgrwt>
<rscale>  2 0.47501456E+03</rscale>
<asrwt>0</asrwt>
<pdfrwt beam="1">  1       21 0.55947414E-01 0.47501456E+03</pdfrwt>
<pdfrwt beam="2">  1       21 0.21804996E-01 0.47501456E+03</pdfrwt>
<totfact> 0.54169811E+04</totfact>
</mgrwt>
</event>
<event>
 7    0  0.4714446E-002  0.4619728E+03  0.7546771E-02  0.1024211E+00
         21   -1    0    0  502  501  0.00000000000E+00  0.00000000000E+00  0.13903711717E+03  0.13903711717E+03  0.00000000000E+00 0. -1.
         21   -1    0    0  501  502 -0.00000000000E+00 -0.00000000000E+00 -0.38374437497E+03  0.38374437497E+03  0.00000000000E+00 0. -1.
      99926    2    1    2    0    0  0.71054273576E-14  0.00000000000E+00 -0.24470725781E+03  0.52278149214E+03  0.46197277679E+03 0.  0.
      99925    2    3    3    0    0 -0.58792878538E+02 -0.21285008538E+02 -0.26841436743E+03  0.38093936405E+03  0.26298074508E+03 0.  0.
         25    1    3    3    0    0  0.58792878538E+02  0.21285008538E+02  0.23707109618E+02  0.14184212809E+03  0.12509000000E+03 0.  0.
         25    1    4    4    0    0 -0.51569901839E+02 -0.30053748807E+02 -0.10030450612E+03  0.17108823642E+03  0.12509000000E+03 0.  0.
         25    1    4    4    0    0 -0.72229766990E+01  0.87687402690E+01 -0.16810986130E+03  0.20985112763E+03  0.12509000000E+03 0.  0.
<mgrwt>
<rscale>  2 0.46197278E+03</rscale>
<asrwt>0</asrwt>
<pdfrwt beam="1">  1       21 0.20446635E-01 0.46197278E+03</pdfrwt>
<pdfrwt beam="2">  1       21 0.56432996E-01 0.46197278E+03</pdfrwt>
<totfact> 0.60292876E+04</totfact>
</mgrwt>
</event>
<event>
 7    0  0.4714446E-002  0.4557636E+03  0.7546771E-02  0.1026017E+00
         21   -1    0    0  502  501  0.00000000000E+00  0.00000000000E+00  0.26212278909E+03  0.26212278909E+03  0.00000000000E+00 0. -1.
         21   -1    0    0  501  502 -0.00000000000E+00 -0.00000000000E+00 -0.19811369988E+03  0.19811369988E+03  0.00000000000E+00 0. -1.
      99926    2    1    2    0    0  0.14210854715E-13 -0.71054273576E-14  0.64009089209E+02  0.46023648898E+03  0.45576360351E+03 0.  0.
      99925    2    3    3    0    0  0.99049230743E+02 -0.55857713186E+02  0.45994786813E+02  0.29022808500E+03  0.26303229207E+03 0.  0.
         25    1    4    4    0    0  0.40409756108E+02 -0.27803424590E+02 -0.17718847572E+02  0.13552654525E+03  0.12509000000E+03 0.  0.
         25    1    3    3    0    0 -0.99049230743E+02  0.55857713186E+02  0.18014302396E+02  0.17000840398E+03  0.12509000000E+03 0.  0.
         25    1    4    4    0    0  0.58639474635E+02 -0.28054288596E+02  0.63713634384E+02  0.15470153975E+03  0.12509000000E+03 0.  0.
<mgrwt>
<rscale>  2 0.45576360E+03</rscale>
<asrwt>0</asrwt>
<pdfrwt beam="1">  1       21 0.38547469E-01 0.45576360E+03</pdfrwt>
<pdfrwt beam="2">  1       21 0.29134368E-01 0.45576360E+03</pdfrwt>
<totfact> 0.67749837E+04</totfact>
</mgrwt>
</event>
<event>
 7    0  0.4714446E-002  0.4810218E+03  0.7546771E-02  0.1018855E+00
         21   -1    0    0  502  501  0.00000000000E+00  0.00000000000E+00  0.57201692476E+03  0.57201692476E+03  0.00000000000E+00 0. -1.
         21   -1    0    0  501  502 -0.00000000000E+00 -0.00000000000E+00 -0.10112550961E+03  0.10112550961E+03  0.00000000000E+00 0. -1.
      99926    2    1    2    0    0  0.00000000000E+00  0.00000000000E+00  0.47089141515E+03  0.67314243437E+03  0.48102184159E+03 0.  0.
      99925    2    3    3    0    0  0.11854282186E+03  0.49015546564E+02  0.22625074997E+03  0.36990739751E+03  0.26303451570E+03 0.  0.
         25    1    3    3    0    0 -0.11854282186E+03 -0.49015546564E+02  0.24464066517E+03  0.30323503686E+03  0.12509000000E+03 0.  0.
         25    1    4    4    0    0  0.86370647100E+02  0.58929277019E+02  0.13014173428E+03  0.20860711271E+03  0.12509000000E+03 0.  0.
         25    1    4    4    0    0  0.32172174764E+02 -0.99137304559E+01  0.96109015692E+02  0.16130028480E+03  0.12509000000E+03 0.  0.
<mgrwt>
<rscale>  2 0.48102184E+03</rscale>
<asrwt>0</asrwt>
<pdfrwt beam="1">  1       21 0.84120135E-01 0.48102184E+03</pdfrwt>
<pdfrwt beam="2">  1       21 0.14871399E-01 0.48102184E+03</pdfrwt>
<totfact> 0.44523787E+04</totfact>
</mgrwt>
</event>
<event>
 7    0  0.4714446E-002  0.4541936E+03  0.7546771E-02  0.1026479E+00
         21   -1    0    0  502  501  0.00000000000E+00  0.00000000000E+00  0.12819563091E+04  0.12819563091E+04  0.00000000000E+00 0.  1.
         21   -1    0    0  501  502 -0.00000000000E+00 -0.00000000000E+00 -0.40229888079E+02  0.40229888079E+02  0.00000000000E+00 0.  1.
      99926    2    1    2    0    0  0.00000000000E+00  0.00000000000E+00  0.12417264210E+04  0.13221861972E+04  0.45419360999E+03 0.  0.
      99925    2    3    3    0    0  0.52757314766E+02 -0.77759653864E+02  0.60242510333E+03  0.66401936352E+03  0.26301295020E+03 0.  0.
         25    1    4    4    0    0  0.20212286620E+01 -0.33168514540E+02  0.21049464136E+03  0.24710268688E+03  0.12509000000E+03 0.  0.
         25    1    3    3    0    0 -0.52757314766E+02  0.77759653864E+02  0.63930131770E+03  0.65816683367E+03  0.12509000000E+03 0.  0.
         25    1    4    4    0    0  0.50736086104E+02 -0.44591139324E+02  0.39193046197E+03  0.41691667664E+03  0.12509000000E+03 0.  0.
<mgrwt>
<rscale>  2 0.45419361E+03</rscale>
<asrwt>0</asrwt>
<pdfrwt beam="1">  1       21 0.18852296E+00 0.45419361E+03</pdfrwt>
<pdfrwt beam="2">  1       21 0.59161608E-02 0.45419361E+03</pdfrwt>
<totfact> 0.28656400E+04</totfact>
</mgrwt>
</event>
<event>
 7    0  0.4714446E-002  0.4519593E+03  0.7546771E-02  0.1027139E+00
         21   -1    0    0  502  501  0.00000000000E+00  0.00000000000E+00  0.45689487549E+02  0.45689487549E+02  0.00000000000E+00 0. -1.
         21   -1    0    0  501  502 -0.00000000000E+00 -0.00000000000E+00 -0.11176928209E+04  0.11176928209E+04  0.00000000000E+00 0. -1.
      99926    2    1    2    0    0  0.00000000000E+00  0.00000000000E+00 -0.10720033333E+04  0.11633823084E+04  0.45195934428E+03 0.  0.
      99925    2    3    3    0    0 -0.79340000699E+02 -0.49680059831E+02 -0.52636068950E+03  0.59581174284E+03  0.26300782003E+03 0.  0.
         25    1    3    3    0    0  0.79340000699E+02  0.49680059831E+02 -0.54564264380E+03  0.56757056556E+03  0.12509000000E+03 0.  0.
         25    1    4    4    0    0 -0.20429218306E+02  0.95798183969E+01 -0.20929080360E+03  0.24486582949E+03  0.12509000000E+03 0.  0.
         25    1    4    4    0    0 -0.58910782393E+02 -0.59259878228E+02 -0.31706988590E+03  0.35094591335E+03  0.12509000000E+03 0.  0.
<mgrwt>
<rscale>  2 0.45195934E+03</rscale>
<asrwt>0</asrwt>
<pdfrwt beam="1">  1       21 0.67190428E-02 0.45195934E+03</pdfrwt>
<pdfrwt beam="2">  1       21 0.16436658E+00 0.45195934E+03</pdfrwt>
<totfact> 0.34140496E+04</totfact>
</mgrwt>
</event>
<event>
 7    0  0.4714446E-002  0.4464750E+03  0.7546771E-02  0.1028778E+00
         21   -1    0    0  502  501  0.00000000000E+00  0.00000000000E+00  0.48182833830E+03  0.48182833830E+03  0.00000000000E+00 0. -1.
         21   -1    0    0  501  502 -0.00000000000E+00 -0.00000000000E+00 -0.10342892726E+03  0.10342892726E+03  0.00000000000E+00 0. -1.
      99926    2    1    2    0    0  0.00000000000E+00  0.71054273576E-14  0.37839941105E+03  0.58525726556E+03  0.44647503022E+03 0.  0.
      99925    2    3    3    0    0  0.94137979598E+02  0.45502771506E+02  0.25590811711E+03  0.38133549966E+03  0.26266963563E+03 0.  0.
         25    1    4    4    0    0  0.10436491475E+02  0.81358934067E+00  0.10690395176E+03  0.16488039690E+03  0.12509000000E+03 0.  0.
         25    1    3    3    0    0 -0.94137979598E+02 -0.45502771506E+02  0.12249129394E+03  0.20392176590E+03  0.12509000000E+03 0.  0.
         25    1    4    4    0    0  0.83701488122E+02  0.44689182166E+02  0.14900416535E+03  0.21645510276E+03  0.12509000000E+03 0.  0.
<mgrwt>
<rscale>  2 0.44647503E+03</rscale>
<asrwt>0</asrwt>
<pdfrwt beam="1">  1       21 0.70857108E-01 0.44647503E+03</pdfrwt>
<pdfrwt beam="2">  1       21 0.15210137E-01 0.44647503E+03</pdfrwt>
<totfact> 0.63785726E+04</totfact>
</mgrwt>
</event>
<event>
 7    0  0.4714446E-002  0.4443214E+03  0.7546771E-02  0.1029429E+00
         21   -1    0    0  502  501  0.00000000000E+00  0.00000000000E+00  0.10101984798E+04  0.10101984798E+04  0.00000000000E+00 0. -1.
         21   -1    0    0  501  502 -0.00000000000E+00 -0.00000000000E+00 -0.48857101063E+02  0.48857101063E+02  0.00000000000E+00 0. -1.
      99926    2    1    2    0    0  0.00000000000E+00  0.00000000000E+00  0.96134137873E+03  0.10590555809E+04  0.44432136667E+03 0.  0.
      99925    2    3    3    0    0 -0.97134386137E+01  0.86782993980E+02  0.74028695844E+03  0.79047001951E+03  0.26304454370E+03 0.  0.
         25    1    3    3    0    0  0.97134386137E+01 -0.86782993980E+02  0.22105442029E+03  0.26858556134E+03  0.12509000000E+03 0.  0.
         25    1    4    4    0    0 -0.82088580428E+01  0.27822055775E+01  0.30168683318E+03  0.32670717689E+03  0.12509000000E+03 0.  0.
         25    1    4    4    0    0 -0.15045805709E+01  0.84000788402E+02  0.43860012526E+03  0.46376284262E+03  0.12509000000E+03 0.  0.
<mgrwt>
<rscale>  2 0.44432137E+03</rscale>
<asrwt>0</asrwt>
<pdfrwt beam="1">  1       21 0.14855859E+00 0.44432137E+03</pdfrwt>
<pdfrwt beam="2">  1       21 0.71848684E-02 0.44432137E+03</pdfrwt>
<totfact> 0.40193581E+04</totfact>
</mgrwt>
</event>
<event>
 7    0  0.4714446E-002  0.4017247E+03  0.7546771E-02  0.1043184E+00
         21   -1    0    0  502  501  0.00000000000E+00  0.00000000000E+00  0.56397792589E+03  0.56397792589E+03  0.00000000000E+00 0. -1.
         21   -1    0    0  501  502 -0.00000000000E+00 -0.00000000000E+00 -0.71537696292E+02  0.71537696292E+02  0.00000000000E+00 0. -1.
      99926    2    1    2    0    0  0.00000000000E+00  0.35527136788E-14  0.49244022960E+03  0.63551562218E+03  0.40172468970E+03 0.  0.
      99925    2    3    3    0    0 -0.45565406411E+02  0.17633564678E+02  0.31883027428E+03  0.41602741395E+03  0.26275257658E+03 0.  0.
         25    1    3    3    0    0  0.45565406411E+02 -0.17633564678E+02  0.17360995532E+03  0.21948820823E+03  0.12509000000E+03 0.  0.
         25    1    4    4    0    0  0.53624197295E+01 -0.19290990570E+02  0.16489525425E+03  0.20793953649E+03  0.12509000000E+03 0.  0.
         25    1    4    4    0    0 -0.50927826141E+02  0.36924555248E+02  0.15393502002E+03  0.20808787746E+03  0.12509000000E+03 0.  0.
<mgrwt>
<rscale>  2 0.40172469E+03</rscale>
<asrwt>0</asrwt>
<pdfrwt beam="1">  1       21 0.82937928E-01 0.40172469E+03</pdfrwt>
<pdfrwt beam="2">  1       21 0.10520250E-01 0.40172469E+03</pdfrwt>
<totfact> 0.88141316E+04</totfact>
</mgrwt>
</event>
<event>
 7    0  0.4714446E-002  0.4639879E+03  0.7546771E-02  0.1023631E+00
         21   -1    0    0  502  501  0.00000000000E+00  0.00000000000E+00  0.14458520100E+03  0.14458520100E+03  0.00000000000E+00 0. -1.
         21   -1    0    0  501  502 -0.00000000000E+00 -0.00000000000E+00 -0.37224550962E+03  0.37224550962E+03  0.00000000000E+00 0. -1.
      99926    2    1    2    0    0  0.00000000000E+00 -0.44408920985E-14 -0.22766030861E+03  0.51683071062E+03  0.46398789566E+03 0.  0.
      99925    2    3    3    0    0 -0.52597099656E+02  0.28865606820E+01 -0.26391500465E+03  0.37634335101E+03  0.26307489626E+03 0.  0.
         25    1    4    4    0    0 -0.46496058338E+02 -0.34039150051E+02 -0.13641832926E+03  0.19385049867E+03  0.12509000000E+03 0.  0.
         25    1    4    4    0    0 -0.61010413188E+01  0.36925710733E+02 -0.12749667539E+03  0.18249285234E+03  0.12509000000E+03 0.  0.
         25    1    3    3    0    0  0.52597099656E+02 -0.28865606820E+01  0.36254696041E+02  0.14048735961E+03  0.12509000000E+03 0.  0.
<mgrwt>
<rscale>  2 0.46398790E+03</rscale>
<asrwt>0</asrwt>
<pdfrwt beam="1">  1       21 0.21262530E-01 0.46398790E+03</pdfrwt>
<pdfrwt beam="2">  1       21 0.54741986E-01 0.46398790E+03</pdfrwt>
<totfact> 0.59728413E+04</totfact>
</mgrwt>
</event>
<event>
 7    0  0.4714446E-002  0.4535698E+03  0.7546771E-02  0.1026663E+00
         21   -1    0    0  502  501  0.00000000000E+00  0.00000000000E+00  0.18446070061E+03  0.18446070061E+03  0.00000000000E+00 0. -1.
         21   -1    0    0  501  502 -0.00000000000E+00 -0.00000000000E+00 -0.27882031950E+03  0.27882031950E+03  0.00000000000E+00 0. -1.
      99926    2    1    2    0    0  0.00000000000E+00  0.00000000000E+00 -0.94359618890E+02  0.46328102011E+03  0.45356980269E+03 0.  0.
      99925    2    3    3    0    0  0.70779213756E+02 -0.98016415478E+01  0.28397171620E+02  0.27401267359E+03  0.26300337765E+03 0.  0.
         25    1    4    4    0    0  0.71391682442E+02  0.98230524872E+01  0.29688956311E+02  0.14738455451E+03  0.12509000000E+03 0.  0.
         25    1    3    3    0    0 -0.70779213756E+02  0.98016415478E+01 -0.12275679051E+03  0.18926834652E+03  0.12509000000E+03 0.  0.
         25    1    4    4    0    0 -0.61246868655E+00 -0.19624694035E+02 -0.12917846903E+01  0.12662811908E+03  0.12509000000E+03 0.  0.
<mgrwt>
<rscale>  2 0.45356980E+03</rscale>
<asrwt>0</asrwt>
<pdfrwt beam="1">  1       21 0.27126574E-01 0.45356980E+03</pdfrwt>
<pdfrwt beam="2">  1       21 0.41002988E-01 0.45356980E+03</pdfrwt>
<totfact> 0.68715727E+04</totfact>
</mgrwt>
</event>
<event>
 7    0  0.4714446E-002  0.4539296E+03  0.7546771E-02  0.1026557E+00
         21   -1    0    0  502  501  0.00000000000E+00  0.00000000000E+00  0.15882006786E+03  0.15882006786E+03  0.00000000000E+00 0.  1.
         21   -1    0    0  501  502 -0.00000000000E+00 -0.00000000000E+00 -0.32434828477E+03  0.32434828477E+03  0.00000000000E+00 0.  1.
      99926    2    1    2    0    0 -0.71054273576E-14 -0.14210854715E-13 -0.16552821691E+03  0.48316835264E+03  0.45392958308E+03 0.  0.
      99925    2    3    3    0    0  0.32328254385E+02  0.99792261381E+02 -0.14712800322E+03  0.31888296854E+03  0.26274719186E+03 0.  0.
         25    1    3    3    0    0 -0.32328254385E+02 -0.99792261381E+02 -0.18400213699E+02  0.16428538409E+03  0.12509000000E+03 0.  0.
         25    1    4    4    0    0 -0.30457003066E+00  0.34645232018E+02 -0.31391534345E+02  0.13354145945E+03  0.12509000000E+03 0.  0.
         25    1    4    4    0    0  0.32632824415E+02  0.65147029363E+02 -0.11573646887E+03  0.18534150909E+03  0.12509000000E+03 0.  0.
<mgrwt>
<rscale>  2 0.45392958E+03</rscale>
<asrwt>0</asrwt>
<pdfrwt beam="1">  1       21 0.23355893E-01 0.45392958E+03</pdfrwt>
<pdfrwt beam="2">  1       21 0.47698277E-01 0.45392958E+03</pdfrwt>
<totfact> 0.67038010E+04</totfact>
</mgrwt>
</event>
<event>
 7    0  0.4714446E-002  0.4536258E+03  0.7546771E-02  0.1026646E+00
         21   -1    0    0  502  501  0.00000000000E+00  0.00000000000E+00  0.99477559966E+03  0.99477559966E+03  0.00000000000E+00 0. -1.
         21   -1    0    0  501  502 -0.00000000000E+00 -0.00000000000E+00 -0.51714270989E+02  0.51714270989E+02  0.00000000000E+00 0. -1.
      99926    2    1    2    0    0 -0.14210854715E-13 -0.14210854715E-13  0.94306132867E+03  0.10464898706E+04  0.45362581467E+03 0.  0.
      99925    2    3    3    0    0  0.86489822968E+02  0.64074373544E+02  0.66970267380E+03  0.72718049541E+03  0.26211407209E+03 0.  0.
         25    1    4    4    0    0  0.28189144172E+02 -0.63774934808E+01  0.30750975161E+03  0.33323423549E+03  0.12509000000E+03 0.  0.
         25    1    4    4    0    0  0.58300678796E+02  0.70451867025E+02  0.36219292219E+03  0.39394625991E+03  0.12509000000E+03 0.  0.
         25    1    3    3    0    0 -0.86489822968E+02 -0.64074373544E+02  0.27335865487E+03  0.31930937524E+03  0.12509000000E+03 0.  0.
<mgrwt>
<rscale>  2 0.45362581E+03</rscale>
<asrwt>0</asrwt>
<pdfrwt beam="1">  1       21 0.14629052E+00 0.45362581E+03</pdfrwt>
<pdfrwt beam="2">  1       21 0.76050405E-02 0.45362581E+03</pdfrwt>
<totfact> 0.37810388E+04</totfact>
</mgrwt>
</event>
<event>
 7    0  0.4714446E-002  0.4553741E+03  0.7546771E-02  0.1026131E+00
         21   -1    0    0  502  501  0.00000000000E+00  0.00000000000E+00  0.31337988125E+03  0.31337988125E+03  0.00000000000E+00 0.  1.
         21   -1    0    0  501  502 -0.00000000000E+00 -0.00000000000E+00 -0.16542667293E+03  0.16542667293E+03  0.00000000000E+00 0.  1.
      99926    2    1    2    0    0  0.00000000000E+00  0.00000000000E+00  0.14795320832E+03  0.47880655418E+03  0.45537409289E+03 0.  0.
      99925    2    3    3    0    0  0.91272882696E+02 -0.49661488110E+02  0.14114059615E+03  0.31604623254E+03  0.26299724466E+03 0.  0.
         25    1    4    4    0    0  0.66905520076E+02 -0.60115565952E+02  0.64969796224E+02  0.16720888854E+03  0.12509000000E+03 0.  0.
         25    1    4    4    0    0  0.24367362620E+02  0.10454077842E+02  0.76170799931E+02  0.14883734399E+03  0.12509000000E+03 0.  0.
         25    1    3    3    0    0 -0.91272882696E+02  0.49661488110E+02  0.68126121682E+01  0.16276032164E+03  0.12509000000E+03 0.  0.
<mgrwt>
<rscale>  2 0.45537409E+03</rscale>
<asrwt>0</asrwt>
<pdfrwt beam="1">  1       21 0.46085276E-01 0.45537409E+03</pdfrwt>
<pdfrwt beam="2">  1       21 0.24327452E-01 0.45537409E+03</pdfrwt>
<totfact> 0.66589136E+04</totfact>
</mgrwt>
</event>
<event>
 7    0  0.4714446E-002  0.4553149E+03  0.7546771E-02  0.1026149E+00
         21   -1    0    0  502  501  0.00000000000E+00  0.00000000000E+00  0.38755015206E+03  0.38755015206E+03  0.00000000000E+00 0. -1.
         21   -1    0    0  501  502 -0.00000000000E+00 -0.00000000000E+00 -0.13373216432E+03  0.13373216432E+03  0.00000000000E+00 0. -1.
      99926    2    1    2    0    0  0.00000000000E+00 -0.35527136788E-14  0.25381798774E+03  0.52128231638E+03  0.45531492670E+03 0.  0.
      99925    2    3    3    0    0  0.11091949495E+03 -0.21627434204E+02  0.14842844717E+03  0.32247249864E+03  0.26303351151E+03 0.  0.
         25    1    4    4    0    0  0.67881201587E+02 -0.19075352964E+02  0.34049420203E+02  0.14757573559E+03  0.12509000000E+03 0.  0.
         25    1    4    4    0    0  0.43038293364E+02 -0.25520812393E+01  0.11437902697E+03  0.17489676305E+03  0.12509000000E+03 0.  0.
         25    1    3    3    0    0 -0.11091949495E+03  0.21627434204E+02  0.10538954057E+03  0.19880981774E+03  0.12509000000E+03 0.  0.
<mgrwt>
<rscale>  2 0.45531493E+03</rscale>
<asrwt>0</asrwt>
<pdfrwt beam="1">  1       21 0.56992669E-01 0.45531493E+03</pdfrwt>
<pdfrwt beam="2">  1       21 0.19666495E-01 0.45531493E+03</pdfrwt>
<totfact> 0.63640821E+04</totfact>
</mgrwt>
</event>
<event>
 7    0  0.4714446E-002  0.4592515E+03  0.7546771E-02  0.1024999E+00
         21   -1    0    0  502  501  0.00000000000E+00  0.00000000000E+00  0.52034350428E+03  0.52034350428E+03  0.00000000000E+00 0.  1.
         21   -1    0    0  501  502 -0.00000000000E+00 -0.00000000000E+00 -0.10133303483E+03  0.10133303483E+03  0.00000000000E+00 0.  1.
      99926    2    1    2    0    0  0.44408920985E-15  0.00000000000E+00  0.41901046945E+03  0.62167653911E+03  0.45925150601E+03 0.  0.
      99925    2    3    3    0    0 -0.19971450951E+01 -0.89621698688E+02  0.16056225839E+03  0.32087922635E+03  0.26295855495E+03 0.  0.
         25    1    3    3    0    0  0.19971450951E+01  0.89621698688E+02  0.25844821105E+03  0.30079731276E+03  0.12509000000E+03 0.  0.
         25    1    4    4    0    0 -0.13984701442E+02 -0.35994092378E+02  0.35467869611E+02  0.13563415660E+03  0.12509000000E+03 0.  0.
         25    1    4    4    0    0  0.11987556347E+02 -0.53627606310E+02  0.12509438878E+03  0.18524506976E+03  0.12509000000E+03 0.  0.
<mgrwt>
<rscale>  2 0.45925151E+03</rscale>
<asrwt>0</asrwt>
<pdfrwt beam="1">  1       21 0.76521102E-01 0.45925151E+03</pdfrwt>
<pdfrwt beam="2">  1       21 0.14901917E-01 0.45925151E+03</pdfrwt>
<totfact> 0.55477431E+04</totfact>
</mgrwt>
</event>
<event>
 7    0  0.4714446E-002  0.4575313E+03  0.7546771E-02  0.1025500E+00
         21   -1    0    0  502  501  0.00000000000E+00  0.00000000000E+00  0.21246818636E+03  0.21246818636E+03  0.00000000000E+00 0.  1.
         21   -1    0    0  501  502 -0.00000000000E+00 -0.00000000000E+00 -0.24631319972E+03  0.24631319972E+03  0.00000000000E+00 0.  1.
      99926    2    1    2    0    0  0.00000000000E+00  0.00000000000E+00 -0.33845013354E+02  0.45878138608E+03  0.45753128339E+03 0.  0.
      99925    2    3    3    0    0 -0.46633199146E+02 -0.93191627343E+02 -0.71501607629E+02  0.29167404973E+03  0.26287247235E+03 0.  0.
         25    1    4    4    0    0 -0.34226095976E+02 -0.76045939403E+02 -0.99632439591E+01  0.15066912383E+03  0.12509000000E+03 0.  0.
         25    1    4    4    0    0 -0.12407103170E+02 -0.17145687939E+02 -0.61538363670E+02  0.14100492590E+03  0.12509000000E+03 0.  0.
         25    1    3    3    0    0  0.46633199146E+02  0.93191627343E+02  0.37656594276E+02  0.16710733635E+03  0.12509000000E+03 0.  0.
<mgrwt>
<rscale>  2 0.45753128E+03</rscale>
<asrwt>0</asrwt>
<pdfrwt beam="1">  1       21 0.31245322E-01 0.45753128E+03</pdfrwt>
<pdfrwt beam="2">  1       21 0.36222529E-01 0.45753128E+03</pdfrwt>
<totfact> 0.66908138E+04</totfact>
</mgrwt>
</event>
<event>
 7    0  0.4714446E-002  0.4620424E+03  0.7546771E-02  0.1024191E+00
         21   -1    0    0  502  501  0.00000000000E+00  0.00000000000E+00  0.19343875398E+03  0.19343875398E+03  0.00000000000E+00 0. -1.
         21   -1    0    0  501  502 -0.00000000000E+00 -0.00000000000E+00 -0.27590533984E+03  0.27590533984E+03  0.00000000000E+00 0. -1.
      99926    2    1    2    0    0  0.00000000000E+00  0.14210854715E-13 -0.82466585868E+02  0.46934409382E+03  0.46204235804E+03 0.  0.
      99925    2    3    3    0    0  0.77214835509E+02  0.90999179334E+02 -0.60301989264E+02  0.29504045386E+03  0.26300106091E+03 0.  0.
         25    1    3    3    0    0 -0.77214835509E+02 -0.90999179334E+02 -0.22164596605E+02  0.17430363996E+03  0.12509000000E+03 0.  0.
         25    1    4    4    0    0  0.58854691312E+02  0.12599614260E+02 -0.15523780516E+02  0.13968221372E+03  0.12509000000E+03 0.  0.
         25    1    4    4    0    0  0.18360144197E+02  0.78399565074E+02 -0.44778208748E+02  0.15535824013E+03  0.12509000000E+03 0.  0.
<mgrwt>
<rscale>  2 0.46204236E+03</rscale>
<asrwt>0</asrwt>
<pdfrwt beam="1">  1       21 0.28446876E-01 0.46204236E+03</pdfrwt>
<pdfrwt beam="2">  1       21 0.40574314E-01 0.46204236E+03</pdfrwt>
<totfact> 0.63839469E+04</totfact>
</mgrwt>
</event>
<event>
 7    0  0.4714446E-002  0.4646120E+03  0.7546771E-02  0.1023452E+00
         21   -1    0    0  502  501  0.00000000000E+00  0.00000000000E+00  0.13420888279E+04  0.13420888279E+04  0.00000000000E+00 0.  1.
         21   -1    0    0  501  502 -0.00000000000E+00 -0.00000000000E+00 -0.40210509223E+02  0.40210509223E+02  0.00000000000E+00 0.  1.
      99926    2    1    2    0    0  0.00000000000E+00  0.71054273576E-14  0.13018783187E+04  0.13822993371E+04  0.46461198948E+03 0.  0.
      99925    2    3    3    0    0 -0.92387607324E+02  0.55746257165E+02  0.98209533696E+03  0.10223663174E+04  0.26282793031E+03 0.  0.
         25    1    4    4    0    0 -0.80094399666E+02  0.54039340686E+02  0.57215883206E+03  0.59358958920E+03  0.12509000000E+03 0.  0.
         25    1    4    4    0    0 -0.12293207657E+02  0.17069164785E+01  0.40993650489E+03  0.42877672822E+03  0.12509000000E+03 0.  0.
         25    1    3    3    0    0  0.92387607324E+02 -0.55746257165E+02  0.31978298173E+03  0.35993301971E+03  0.12509000000E+03 0.  0.
<mgrwt>
<rscale>  2 0.46461199E+03</rscale>
<asrwt>0</asrwt>
<pdfrwt beam="1">  1       21 0.19736597E+00 0.46461199E+03</pdfrwt>
<pdfrwt beam="2">  1       21 0.59133111E-02 0.46461199E+03</pdfrwt>
<totfact> 0.24895217E+04</totfact>
</mgrwt>
</event>
<event>
 7    0  0.4714446E-002  0.4682504E+03  0.7546771E-02  0.1022415E+00
         21   -1    0    0  502  501  0.00000000000E+00  0.00000000000E+00  0.29834689228E+02  0.29834689228E+02  0.00000000000E+00 0.  1.
         21   -1    0    0  501  502 -0.00000000000E+00 -0.00000000000E+00 -0.18372778081E+04  0.18372778081E+04  0.00000000000E+00 0.  1.
      99926    2    1    2    0    0  0.00000000000E+00  0.00000000000E+00 -0.18074431189E+04  0.18671124973E+04  0.46825041348E+03 0.  0.
      99925    2    3    3    0    0 -0.70870445225E+02  0.32392388482E+02 -0.15147319569E+04  0.15393942963E+04  0.26315396904E+03 0.  0.
         25    1    4    4    0    0 -0.15081121796E+02 -0.27132724164E+01 -0.54322897718E+03  0.55765583637E+03  0.12509000000E+03 0.  0.
         25    1    4    4    0    0 -0.55789323429E+02  0.35105660899E+02 -0.97150297968E+03  0.98173845991E+03  0.12509000000E+03 0.  0.
         25    1    3    3    0    0  0.70870445225E+02 -0.32392388482E+02 -0.29271116201E+03  0.32771820106E+03  0.12509000000E+03 0.  0.
<mgrwt>
<rscale>  2 0.46825041E+03</rscale>
<asrwt>0</asrwt>
<pdfrwt beam="1">  1       21 0.43874540E-02 0.46825041E+03</pdfrwt>
<pdfrwt beam="2">  1       21 0.27018793E+00 0.46825041E+03</pdfrwt>
<totfact> 0.14458037E+04</totfact>
</mgrwt>
</event>
<event>
 7    0  0.4714446E-002  0.4442420E+03  0.7546771E-02  0.1029453E+00
         21   -1    0    0  502  501  0.00000000000E+00  0.00000000000E+00  0.35595431975E+03  0.35595431975E+03  0.00000000000E+00 0.  1.
         21   -1    0    0  501  502 -0.00000000000E+00 -0.00000000000E+00 -0.13860696180E+03  0.13860696180E+03  0.00000000000E+00 0.  1.
      99926    2    1    2    0    0  0.88817841970E-15  0.00000000000E+00  0.21734735795E+03  0.49456128155E+03  0.44424203673E+03 0.  0.
      99925    2    3    3    0    0 -0.35053284834E+01 -0.30677256034E+02  0.24725299320E+03  0.36229172161E+03  0.26299784702E+03 0.  0.
         25    1    3    3    0    0  0.35053284834E+01  0.30677256034E+02 -0.29905635252E+02  0.13226955993E+03  0.12509000000E+03 0.  0.
         25    1    4    4    0    0 -0.29877377866E+02 -0.20289201013E+02  0.16392196827E+03  0.20933759616E+03  0.12509000000E+03 0.  0.
         25    1    4    4    0    0  0.26372049383E+02 -0.10388055020E+02  0.83331024937E+02  0.15295412545E+03  0.12509000000E+03 0.  0.
<mgrwt>
<rscale>  2 0.44424204E+03</rscale>
<asrwt>0</asrwt>
<pdfrwt beam="1">  1       21 0.52346223E-01 0.44424204E+03</pdfrwt>
<pdfrwt beam="2">  1       21 0.20383377E-01 0.44424204E+03</pdfrwt>
<totfact> 0.71574065E+04</totfact>
</mgrwt>
</event>
<event>
 7    0  0.4714446E-002  0.4513896E+03  0.7546771E-02  0.1027308E+00
         21   -1    0    0  502  501  0.00000000000E+00  0.00000000000E+00  0.56459157875E+03  0.56459157875E+03  0.00000000000E+00 0.  1.
         21   -1    0    0  501  502 -0.00000000000E+00 -0.00000000000E+00 -0.90221209815E+02  0.90221209815E+02  0.00000000000E+00 0.  1.
      99926    2    1    2    0    0  0.00000000000E+00 -0.14210854715E-13  0.47437036893E+03  0.65481278856E+03  0.45138956694E+03 0.  0.
      99925    2    3    3    0    0  0.53201278605E+01  0.88501408596E+02  0.39395403582E+03  0.48167960915E+03  0.26259219418E+03 0.  0.
         25    1    4    4    0    0  0.34701330367E+02  0.27798928276E+02  0.22124731828E+03  0.25802101986E+03  0.12509000000E+03 0.  0.
         25    1    4    4    0    0 -0.29381202507E+02  0.60702480320E+02  0.17270671754E+03  0.22365858929E+03  0.12509000000E+03 0.  0.
         25    1    3    3    0    0 -0.53201278605E+01 -0.88501408596E+02  0.80416333106E+02  0.17313317941E+03  0.12509000000E+03 0.  0.
<mgrwt>
<rscale>  2 0.45138957E+03</rscale>
<asrwt>0</asrwt>
<pdfrwt beam="1">  1       21 0.83028172E-01 0.45138957E+03</pdfrwt>
<pdfrwt beam="2">  1       21 0.13267825E-01 0.45138957E+03</pdfrwt>
<totfact> 0.57031908E+04</totfact>
</mgrwt>
</event>
<event>
 7    0  0.4714446E-002  0.4606015E+03  0.7546771E-02  0.1024607E+00
         21   -1    0    0  502  501  0.00000000000E+00  0.00000000000E+00  0.17110224912E+04  0.17110224912E+04  0.00000000000E+00 0. -1.
         21   -1    0    0  501  502 -0.00000000000E+00 -0.00000000000E+00 -0.30998092518E+02  0.30998092518E+02  0.00000000000E+00 0. -1.
      99926    2    1    2    0    0  0.00000000000E+00  0.00000000000E+00  0.16800243987E+04  0.17420205837E+04  0.46060149145E+03 0.  0.
      99925    2    3    3    0    0 -0.94161022428E+02  0.41354607207E+02  0.12729361886E+04  0.13039055069E+04  0.26310934779E+03 0.  0.
         25    1    4    4    0    0 -0.34740348746E+02  0.42969301355E+02  0.77937335653E+03  0.79127971645E+03  0.12509000000E+03 0.  0.
         25    1    3    3    0    0  0.94161022428E+02 -0.41354607207E+02  0.40708821010E+03  0.43811507688E+03  0.12509000000E+03 0.  0.
         25    1    4    4    0    0 -0.59420673682E+02 -0.16146941474E+01  0.49356283206E+03  0.51262579041E+03  0.12509000000E+03 0.  0.
<mgrwt>
<rscale>  2 0.46060149E+03</rscale>
<asrwt>0</asrwt>
<pdfrwt beam="1">  1       21 0.25162089E+00 0.46060149E+03</pdfrwt>
<pdfrwt beam="2">  1       21 0.45585442E-02 0.46060149E+03</pdfrwt>
<totfact> 0.17621752E+04</totfact>
</mgrwt>
</event>
<event>
 7    0  0.4714446E-002  0.4636284E+03  0.7546771E-02  0.1023734E+00
         21   -1    0    0  502  501  0.00000000000E+00  0.00000000000E+00  0.44298012066E+03  0.44298012066E+03  0.00000000000E+00 0. -1.
         21   -1    0    0  501  502 -0.00000000000E+00 -0.00000000000E+00 -0.12130980677E+03  0.12130980677E+03  0.00000000000E+00 0. -1.
      99926    2    1    2    0    0  0.00000000000E+00 -0.14210854715E-13  0.32167031388E+03  0.56428992743E+03  0.46362844106E+03 0.  0.
      99925    2    3    3    0    0 -0.79586363282E+02  0.84761490624E+02  0.16191484830E+03  0.33043566427E+03  0.26353901155E+03 0.  0.
         25    1    4    4    0    0 -0.79109599783E+02  0.50954746538E+02  0.10752550231E+03  0.18990512557E+03  0.12509000000E+03 0.  0.
         25    1    4    4    0    0 -0.47676349917E+00  0.33806744085E+02  0.54389345993E+02  0.14053053870E+03  0.12509000000E+03 0.  0.
         25    1    3    3    0    0  0.79586363282E+02 -0.84761490624E+02  0.15975546558E+03  0.23385426316E+03  0.12509000000E+03 0.  0.
<mgrwt>
<rscale>  2 0.46362844E+03</rscale>
<asrwt>0</asrwt>
<pdfrwt beam="1">  1       21 0.65144135E-01 0.46362844E+03</pdfrwt>
<pdfrwt beam="2">  1       21 0.17839678E-01 0.46362844E+03</pdfrwt>
<totfact> 0.56945169E+04</totfact>
</mgrwt>
</event>
<event>
 7    0  0.4714446E-002  0.4471257E+03  0.7546771E-02  0.1028583E+00
         21   -1    0    0  502  501  0.00000000000E+00  0.00000000000E+00  0.11124700180E+04  0.11124700180E+04  0.00000000000E+00 0. -1.
         21   -1    0    0  501  502 -0.00000000000E+00 -0.00000000000E+00 -0.44927369659E+02  0.44927369659E+02  0.00000000000E+00 0. -1.
      99926    2    1    2    0    0  0.00000000000E+00  0.00000000000E+00  0.10675426484E+04  0.11573973877E+04  0.44712571715E+03 0.  0.
      99925    2    3    3    0    0  0.16897665813E+02 -0.10422599759E+03  0.66980325166E+03  0.72728958088E+03  0.26299267829E+03 0.  0.
         25    1    4    4    0    0  0.12582890476E+02 -0.89467599980E+01  0.30505080546E+03  0.33006344187E+03  0.12509000000E+03 0.  0.
         25    1    3    3    0    0 -0.16897665813E+02  0.10422599759E+03  0.39773939672E+03  0.43010780682E+03  0.12509000000E+03 0.  0.
         25    1    4    4    0    0  0.43147753368E+01 -0.95279237594E+02  0.36475244620E+03  0.39722613901E+03  0.12509000000E+03 0.  0.
<mgrwt>
<rscale>  2 0.44712572E+03</rscale>
<asrwt>0</asrwt>
<pdfrwt beam="1">  1       21 0.16359851E+00 0.44712572E+03</pdfrwt>
<pdfrwt beam="2">  1       21 0.66069668E-02 0.44712572E+03</pdfrwt>
<totfact> 0.35675824E+04</totfact>
</mgrwt>
</event>
<event>
 7    0  0.4714446E-002  0.4664114E+03  0.7546771E-02  0.1022938E+00
         21   -1    0    0  502  501  0.00000000000E+00  0.00000000000E+00  0.87892502472E+02  0.87892502472E+02  0.00000000000E+00 0. -1.
         21   -1    0    0  501  502 -0.00000000000E+00 -0.00000000000E+00 -0.61876614090E+03  0.61876614090E+03  0.00000000000E+00 0. -1.
      99926    2    1    2    0    0  0.00000000000E+00  0.00000000000E+00 -0.53087363843E+03  0.70665864337E+03  0.46641142597E+03 0.  0.
      99925    2    3    3    0    0 -0.26226987393E+02 -0.37230284964E+02 -0.50546915850E+03  0.57113431092E+03  0.26195683219E+03 0.  0.
         25    1    4    4    0    0 -0.24418081460E+02  0.10330150838E+02 -0.19673458561E+03  0.23463793383E+03  0.12509000000E+03 0.  0.
         25    1    4    4    0    0 -0.18089059327E+01 -0.47560435801E+02 -0.30873457289E+03  0.33649637709E+03  0.12509000000E+03 0.  0.
         25    1    3    3    0    0  0.26226987393E+02  0.37230284964E+02 -0.25404479928E+02  0.13552433245E+03  0.12509000000E+03 0.  0.
<mgrwt>
<rscale>  2 0.46641143E+03</rscale>
<asrwt>0</asrwt>
<pdfrwt beam="1">  1       21 0.12925368E-01 0.46641143E+03</pdfrwt>
<pdfrwt beam="2">  1       21 0.90995024E-01 0.46641143E+03</pdfrwt>
<totfact> 0.48078144E+04</totfact>
</mgrwt>
</event>
<event>
 7    0  0.4714446E-002  0.4526988E+03  0.7546771E-02  0.1026920E+00
         21   -1    0    0  502  501  0.00000000000E+00  0.00000000000E+00  0.98505534250E+03  0.98505534250E+03  0.00000000000E+00 0.  1.
         21   -1    0    0  501  502 -0.00000000000E+00 -0.00000000000E+00 -0.52011344272E+02  0.52011344272E+02  0.00000000000E+00 0.  1.
      99926    2    1    2    0    0  0.00000000000E+00 -0.35527136788E-14  0.93304399822E+03  0.10370666868E+04  0.45269880735E+03 0.  0.
      99925    2    3    3    0    0 -0.78243833354E+02  0.22856100272E+02  0.41588764029E+03  0.49878915108E+03  0.26302773449E+03 0.  0.
         25    1    4    4    0    0 -0.24511749535E+02  0.32139571352E+02  0.14665126056E+03  0.19694638417E+03  0.12509000000E+03 0.  0.
         25    1    3    3    0    0  0.78243833354E+02 -0.22856100272E+02  0.51715635793E+03  0.53827753569E+03  0.12509000000E+03 0.  0.
         25    1    4    4    0    0 -0.53732083818E+02 -0.92834710806E+01  0.26923637973E+03  0.30184276691E+03  0.12509000000E+03 0.  0.
<mgrwt>
<rscale>  2 0.45269881E+03</rscale>
<asrwt>0</asrwt>
<pdfrwt beam="1">  1       21 0.14486107E+00 0.45269881E+03</pdfrwt>
<pdfrwt beam="2">  1       21 0.76487277E-02 0.45269881E+03</pdfrwt>
<totfact> 0.38441494E+04</totfact>
</mgrwt>
</event>
<event>
 7    0  0.4714446E-002  0.4527307E+03  0.7546771E-02  0.1026911E+00
         21   -1    0    0  502  501  0.00000000000E+00  0.00000000000E+00  0.76724030514E+02  0.76724030514E+02  0.00000000000E+00 0.  1.
         21   -1    0    0  501  502 -0.00000000000E+00 -0.00000000000E+00 -0.66786465693E+03  0.66786465693E+03  0.00000000000E+00 0.  1.
      99926    2    1    2    0    0  0.00000000000E+00  0.00000000000E+00 -0.59114062642E+03  0.74458868745E+03  0.45273068514E+03 0.  0.
      99925    2    3    3    0    0  0.86253311034E+02 -0.65348302487E+02 -0.41478324892E+03  0.50280476118E+03  0.26278784215E+03 0.  0.
         25    1    4    4    0    0  0.17739866381E+02 -0.14196680449E+02 -0.14072946035E+03  0.18965373106E+03  0.12509000000E+03 0.  0.
         25    1    4    4    0    0  0.68513444653E+02 -0.51151622039E+02 -0.27405378857E+03  0.31315103012E+03  0.12509000000E+03 0.  0.
         25    1    3    3    0    0 -0.86253311034E+02  0.65348302487E+02 -0.17635737750E+03  0.24178392627E+03  0.12509000000E+03 0.  0.
<mgrwt>
<rscale>  2 0.45273069E+03</rscale>
<asrwt>0</asrwt>
<pdfrwt beam="1">  1       21 0.11282945E-01 0.45273069E+03</pdfrwt>
<pdfrwt beam="2">  1       21 0.98215397E-01 0.45273069E+03</pdfrwt>
<totfact> 0.51459846E+04</totfact>
</mgrwt>
</event>
<event>
 7    0  0.4714446E-002  0.4525807E+03  0.7546771E-02  0.1026955E+00
         21   -1    0    0  502  501  0.00000000000E+00  0.00000000000E+00  0.63243087473E+02  0.63243087473E+02  0.00000000000E+00 0.  1.
         21   -1    0    0  501  502 -0.00000000000E+00 -0.00000000000E+00 -0.80969028823E+03  0.80969028823E+03  0.00000000000E+00 0.  1.
      99926    2    1    2    0    0 -0.44408920985E-15  0.00000000000E+00 -0.74644720076E+03  0.87293337570E+03  0.45258066121E+03 0.  0.
      99925    2    3    3    0    0 -0.29344990187E+01  0.67160314541E+02 -0.64078831374E+03  0.69592934287E+03  0.26303776935E+03 0.  0.
         25    1    3    3    0    0  0.29344990187E+01 -0.67160314541E+02 -0.10565888701E+03  0.17700403283E+03  0.12509000000E+03 0.  0.
         25    1    4    4    0    0 -0.22672329069E+02  0.82278440369E+01 -0.36859775738E+03  0.38999172653E+03  0.12509000000E+03 0.  0.
         25    1    4    4    0    0  0.19737830050E+02  0.58932470504E+02 -0.27219055636E+03  0.30593761634E+03  0.12509000000E+03 0.  0.
<mgrwt>
<rscale>  2 0.45258066E+03</rscale>
<asrwt>0</asrwt>
<pdfrwt beam="1">  1       21 0.93004552E-02 0.45258066E+03</pdfrwt>
<pdfrwt beam="2">  1       21 0.11907209E+00 0.45258066E+03</pdfrwt>
<totfact> 0.45276603E+04</totfact>
</mgrwt>
</event>
<event>
 7    0  0.4714446E-002  0.4531684E+03  0.7546771E-02  0.1026781E+00
         21   -1    0    0  502  501  0.00000000000E+00  0.00000000000E+00  0.14477779245E+03  0.14477779245E+03  0.00000000000E+00 0. -1.
         21   -1    0    0  501  502 -0.00000000000E+00 -0.00000000000E+00 -0.35461521447E+03  0.35461521447E+03  0.00000000000E+00 0. -1.
      99926    2    1    2    0    0  0.00000000000E+00  0.00000000000E+00 -0.20983742202E+03  0.49939300691E+03  0.45316843632E+03 0.  0.
      99925    2    3    3    0    0 -0.42209505688E+02  0.44291382668E+02 -0.23488244177E+03  0.35790756574E+03  0.26302983711E+03 0.  0.
         25    1    3    3    0    0  0.42209505688E+02 -0.44291382668E+02  0.25045019752E+02  0.14148544117E+03  0.12509000000E+03 0.  0.
         25    1    4    4    0    0 -0.18881262525E+02  0.38197002655E+02 -0.69993776914E+02  0.14953979401E+03  0.12509000000E+03 0.  0.
         25    1    4    4    0    0 -0.23328243163E+02  0.60943800130E+01 -0.16488866486E+03  0.20836777173E+03  0.12509000000E+03 0.  0.
<mgrwt>
<rscale>  2 0.45316844E+03</rscale>
<asrwt>0</asrwt>
<pdfrwt beam="1">  1       21 0.21290852E-01 0.45316844E+03</pdfrwt>
<pdfrwt beam="2">  1       21 0.52149296E-01 0.45316844E+03</pdfrwt>
<totfact> 0.66271616E+04</totfact>
</mgrwt>
</event>
<event>
 7    0  0.4714446E-002  0.4509708E+03  0.7546771E-02  0.1027433E+00
         21   -1    0    0  502  501  0.00000000000E+00  0.00000000000E+00  0.23291494426E+03  0.23291494426E+03  0.00000000000E+00 0. -1.
         21   -1    0    0  501  502 -0.00000000000E+00 -0.00000000000E+00 -0.21829284154E+03  0.21829284154E+03  0.00000000000E+00 0. -1.
      99926    2    1    2    0    0 -0.14210854715E-13  0.17763568394E-14  0.14622102715E+02  0.45120778580E+03  0.45097079737E+03 0.  0.
      99925    2    3    3    0    0 -0.97136897715E+02  0.14782024015E+02 -0.38947868707E+02  0.28336459985E+03  0.26291533778E+03 0.  0.
         25    1    4    4    0    0 -0.63905551439E+01  0.14664882148E+02 -0.15542971196E+02  0.12706293723E+03  0.12509000000E+03 0.  0.
         25    1    4    4    0    0 -0.90746342571E+02  0.11714186695E+00 -0.23404897511E+02  0.15630166263E+03  0.12509000000E+03 0.  0.
         25    1    3    3    0    0  0.97136897715E+02 -0.14782024015E+02  0.53569971421E+02  0.16784318595E+03  0.12509000000E+03 0.  0.
<mgrwt>
<rscale>  2 0.45097080E+03</rscale>
<asrwt>0</asrwt>
<pdfrwt beam="1">  1       21 0.34252198E-01 0.45097080E+03</pdfrwt>
<pdfrwt beam="2">  1       21 0.32101888E-01 0.45097080E+03</pdfrwt>
<totfact> 0.71082382E+04</totfact>
</mgrwt>
</event>
<event>
 7    0  0.4714446E-002  0.4496000E+03  0.7546771E-02  0.1027841E+00
         21   -1    0    0  502  501  0.00000000000E+00  0.00000000000E+00  0.33909334217E+03  0.33909334217E+03  0.00000000000E+00 0. -1.
         21   -1    0    0  501  502 -0.00000000000E+00 -0.00000000000E+00 -0.14902985780E+03  0.14902985780E+03  0.00000000000E+00 0. -1.
      99926    2    1    2    0    0 -0.17763568394E-14  0.00000000000E+00  0.19006348437E+03  0.48812319998E+03  0.44959996693E+03 0.  0.
      99925    2    3    3    0    0 -0.70365687701E+01  0.97962985434E+02  0.71427858031E+02  0.28970903780E+03  0.26302685769E+03 0.  0.
         25    1    4    4    0    0  0.23226242278E+02  0.81309273969E+02  0.37700621643E+02  0.15562615891E+03  0.12509000000E+03 0.  0.
         25    1    3    3    0    0  0.70365687701E+01 -0.97962985434E+02  0.11863562634E+03  0.19841416217E+03  0.12509000000E+03 0.  0.
         25    1    4    4    0    0 -0.30262811048E+02  0.16653711464E+02  0.33727236387E+02  0.13408287889E+03  0.12509000000E+03 0.  0.
<mgrwt>
<rscale>  2 0.44959997E+03</rscale>
<asrwt>0</asrwt>
<pdfrwt beam="1">  1       21 0.49866668E-01 0.44959997E+03</pdfrwt>
<pdfrwt beam="2">  1       21 0.21916156E-01 0.44959997E+03</pdfrwt>
<totfact> 0.69025308E+04</totfact>
</mgrwt>
</event>
<event>
 7    0  0.4714446E-002  0.4577028E+03  0.7546771E-02  0.1025450E+00
         21   -1    0    0  502  501  0.00000000000E+00  0.00000000000E+00  0.77237131672E+02  0.77237131672E+02  0.00000000000E+00 0. -1.
         21   -1    0    0  501  502 -0.00000000000E+00 -0.00000000000E+00 -0.67808003381E+03  0.67808003381E+03  0.00000000000E+00 0. -1.
      99926    2    1    2    0    0  0.00000000000E+00  0.00000000000E+00 -0.60084290214E+03  0.75531716548E+03  0.45770277192E+03 0.  0.
      99925    2    3    3    0    0  0.47517791552E+02  0.64504911077E+02 -0.51501444183E+03  0.58375709796E+03  0.26289475092E+03 0.  0.
         25    1    3    3    0    0 -0.47517791552E+02 -0.64504911077E+02 -0.85828460305E+02  0.17156006751E+03  0.12509000000E+03 0.  0.
         25    1    4    4    0    0  0.61477821913E+02  0.21482464091E+02 -0.24290263854E+03  0.28087402650E+03  0.12509000000E+03 0.  0.
         25    1    4    4    0    0 -0.13960030361E+02  0.43022446986E+02 -0.27211180329E+03  0.30288307147E+03  0.12509000000E+03 0.  0.
<mgrwt>
<rscale>  2 0.45770277E+03</rscale>
<asrwt>0</asrwt>
<pdfrwt beam="1">  1       21 0.11358401E-01 0.45770277E+03</pdfrwt>
<pdfrwt beam="2">  1       21 0.99717656E-01 0.45770277E+03</pdfrwt>
<totfact> 0.48952368E+04</totfact>
</mgrwt>
</event>
<event>
 7    0  0.4714446E-002  0.4470406E+03  0.7546771E-02  0.1028608E+00
         21   -1    0    0  502  501  0.00000000000E+00  0.00000000000E+00  0.93914411842E+02  0.93914411842E+02  0.00000000000E+00 0. -1.
         21   -1    0    0  501  502 -0.00000000000E+00 -0.00000000000E+00 -0.53198781306E+03  0.53198781306E+03  0.00000000000E+00 0. -1.
      99926    2    1    2    0    0  0.00000000000E+00  0.00000000000E+00 -0.43807340121E+03  0.62590222490E+03  0.44704059131E+03 0.  0.
      99925    2    3    3    0    0  0.70826378694E+02  0.73250646686E+02 -0.23890406439E+03  0.36958608028E+03  0.26293855860E+03 0.  0.
         25    1    3    3    0    0 -0.70826378694E+02 -0.73250646686E+02 -0.19916933683E+03  0.25631614462E+03  0.12509000000E+03 0.  0.
         25    1    4    4    0    0  0.56139606990E+02  0.16730886551E+02 -0.82153184601E+02  0.16071164201E+03  0.12509000000E+03 0.  0.
         25    1    4    4    0    0  0.14686771703E+02  0.56519760135E+02 -0.15675087978E+03  0.20887443827E+03  0.12509000000E+03 0.  0.
<mgrwt>
<rscale>  2 0.44704059E+03</rscale>
<asrwt>0</asrwt>
<pdfrwt beam="1">  1       21 0.13810943E-01 0.44704059E+03</pdfrwt>
<pdfrwt beam="2">  1       21 0.78233500E-01 0.44704059E+03</pdfrwt>
<totfact> 0.60845739E+04</totfact>
</mgrwt>
</event>
<event>
 7    0  0.4714446E-002  0.4589386E+03  0.7546771E-02  0.1025089E+00
         21   -1    0    0  502  501  0.00000000000E+00  0.00000000000E+00  0.28020518644E+03  0.28020518644E+03  0.00000000000E+00 0. -1.
         21   -1    0    0  501  502 -0.00000000000E+00 -0.00000000000E+00 -0.18792002583E+03  0.18792002583E+03  0.00000000000E+00 0. -1.
      99926    2    1    2    0    0  0.00000000000E+00  0.00000000000E+00  0.92285160608E+02  0.46812521227E+03  0.45893862715E+03 0.  0.
      99925    2    3    3    0    0  0.80909301298E+02 -0.26567825835E+02  0.13948095455E+03  0.30960986452E+03  0.26296609500E+03 0.  0.
         25    1    4    4    0    0  0.25149338194E+02  0.24926390580E+02  0.61670978952E+02  0.14389104178E+03  0.12509000000E+03 0.  0.
         25    1    3    3    0    0 -0.80909301298E+02  0.26567825835E+02 -0.47195793940E+02  0.15851534775E+03  0.12509000000E+03 0.  0.
         25    1    4    4    0    0  0.55759963104E+02 -0.51494216415E+02  0.77809975596E+02  0.16571882274E+03  0.12509000000E+03 0.  0.
<mgrwt>
<rscale>  2 0.45893863E+03</rscale>
<asrwt>0</asrwt>
<pdfrwt beam="1">  1       21 0.41206645E-01 0.45893863E+03</pdfrwt>
<pdfrwt beam="2">  1       21 0.27635298E-01 0.45893863E+03</pdfrwt>
<totfact> 0.65503884E+04</totfact>
</mgrwt>
</event>
<event>
 7    0  0.4714446E-002  0.4585033E+03  0.7546771E-02  0.1025216E+00
         21   -1    0    0  502  501  0.00000000000E+00  0.00000000000E+00  0.74994991466E+02  0.74994991466E+02  0.00000000000E+00 0. -1.
         21   -1    0    0  501  502 -0.00000000000E+00 -0.00000000000E+00 -0.70079757204E+03  0.70079757204E+03  0.00000000000E+00 0. -1.
      99926    2    1    2    0    0 -0.35527136788E-14 -0.26645352591E-14 -0.62580258057E+03  0.77579256350E+03  0.45850325161E+03 0.  0.
      99925    2    3    3    0    0 -0.30785207967E+02  0.45410797776E+01 -0.20261155139E+03  0.33340528327E+03  0.26294351431E+03 0.  0.
         25    1    3    3    0    0  0.30785207967E+02 -0.45410797776E+01 -0.42319102918E+03  0.44238728024E+03  0.12509000000E+03 0.  0.
         25    1    4    4    0    0 -0.11174243291E+01 -0.34928272088E+02 -0.90203900622E+02  0.15813122593E+03  0.12509000000E+03 0.  0.
         25    1    4    4    0    0 -0.29667783638E+02  0.39469351865E+02 -0.11240765076E+03  0.17527405733E+03  0.12509000000E+03 0.  0.
<mgrwt>
<rscale>  2 0.45850325E+03</rscale>
<asrwt>0</asrwt>
<pdfrwt beam="1">  1       21 0.11028675E-01 0.45850325E+03</pdfrwt>
<pdfrwt beam="2">  1       21 0.10305847E+00 0.45850325E+03</pdfrwt>
<totfact> 0.47634539E+04</totfact>
</mgrwt>
</event>
<event>
 7    0  0.4714446E-002  0.4552116E+03  0.7546771E-02  0.1026179E+00
         21   -1    0    0  502  501  0.00000000000E+00  0.00000000000E+00  0.40490368904E+02  0.40490368904E+02  0.00000000000E+00 0.  1.
         21   -1    0    0  501  502 -0.00000000000E+00 -0.00000000000E+00 -0.12794255007E+04  0.12794255007E+04  0.00000000000E+00 0.  1.
      99926    2    1    2    0    0  0.00000000000E+00  0.00000000000E+00 -0.12389351317E+04  0.13199158696E+04  0.45521164531E+03 0.  0.
      99925    2    3    3    0    0  0.97434860902E+02 -0.14088552692E+01 -0.94743069685E+03  0.98807572633E+03  0.26300794405E+03 0.  0.
         25    1    4    4    0    0  0.19316821349E+02  0.49255736425E+01 -0.54210339883E+03  0.55670549125E+03  0.12509000000E+03 0.  0.
         25    1    4    4    0    0  0.78118039552E+02 -0.63344289117E+01 -0.40532729801E+03  0.43137023508E+03  0.12509000000E+03 0.  0.
         25    1    3    3    0    0 -0.97434860902E+02  0.14088552692E+01 -0.29150443490E+03  0.33184014323E+03  0.12509000000E+03 0.  0.
<mgrwt>
<rscale>  2 0.45521165E+03</rscale>
<asrwt>0</asrwt>
<pdfrwt beam="1">  1       21 0.59544667E-02 0.45521165E+03</pdfrwt>
<pdfrwt beam="2">  1       21 0.18815079E+00 0.45521165E+03</pdfrwt>
<totfact> 0.28494830E+04</totfact>
</mgrwt>
</event>
<event>
 7    0  0.4714446E-002  0.4543030E+03  0.7546771E-02  0.1026447E+00
         21   -1    0    0  502  501  0.00000000000E+00  0.00000000000E+00  0.11043764835E+04  0.11043764835E+04  0.00000000000E+00 0.  1.
         21   -1    0    0  501  502 -0.00000000000E+00 -0.00000000000E+00 -0.46721210438E+02  0.46721210438E+02  0.00000000000E+00 0.  1.
      99926    2    1    2    0    0  0.14210854715E-13  0.88817841970E-15  0.10576552730E+04  0.11510976939E+04  0.45430300940E+03 0.  0.
      99925    2    3    3    0    0  0.66527036365E+02  0.17852671770E+01  0.43614288513E+03  0.51363852646E+03  0.26301118963E+03 0.  0.
         25    1    4    4    0    0 -0.73440822592E+01  0.98698694494E+01  0.20939916134E+03  0.24422708027E+03  0.12509000000E+03 0.  0.
         25    1    4    4    0    0  0.73871118624E+02 -0.80846022724E+01  0.22674372379E+03  0.26941144619E+03  0.12509000000E+03 0.  0.
         25    1    3    3    0    0 -0.66527036365E+02 -0.17852671770E+01  0.62151238791E+03  0.63745916745E+03  0.12509000000E+03 0.  0.
<mgrwt>
<rscale>  2 0.45430301E+03</rscale>
<asrwt>0</asrwt>
<pdfrwt beam="1">  1       21 0.16240829E+00 0.45430301E+03</pdfrwt>
<pdfrwt beam="2">  1       21 0.68707670E-02 0.45430301E+03</pdfrwt>
<totfact> 0.33929673E+04</totfact>
</mgrwt>
</event>
<event>
 7    0  0.4714446E-002  0.4608533E+03  0.7546771E-02  0.1024534E+00
         21   -1    0    0  502  501  0.00000000000E+00  0.00000000000E+00  0.88171624328E+02  0.88171624328E+02  0.00000000000E+00 0.  1.
         21   -1    0    0  501  502 -0.00000000000E+00 -0.00000000000E+00 -0.60219424514E+03  0.60219424514E+03  0.00000000000E+00 0.  1.
      99926    2    1    2    0    0  0.00000000000E+00  0.00000000000E+00 -0.51402262081E+03  0.69036586946E+03  0.46085331616E+03 0.  0.
      99925    2    3    3    0    0  0.91902008691E+02  0.69021219207E+02 -0.27808760357E+03  0.39963790665E+03  0.26299778187E+03 0.  0.
         25    1    3    3    0    0 -0.91902008691E+02 -0.69021219207E+02 -0.23593501724E+03  0.29072796281E+03  0.12509000000E+03 0.  0.
         25    1    4    4    0    0  0.69324527585E+02  0.47977649905E+02 -0.10470826110E+03  0.18362753894E+03  0.12509000000E+03 0.  0.
         25    1    4    4    0    0  0.22577481107E+02  0.21043569302E+02 -0.17337934247E+03  0.21601036771E+03  0.12509000000E+03 0.  0.
<mgrwt>
<rscale>  2 0.46085332E+03</rscale>
<asrwt>0</asrwt>
<pdfrwt beam="1">  1       21 0.12966416E-01 0.46085332E+03</pdfrwt>
<pdfrwt beam="2">  1       21 0.88557973E-01 0.46085332E+03</pdfrwt>
<totfact> 0.51036382E+04</totfact>
</mgrwt>
</event>
<event>
 7    0  0.4714446E-002  0.4679634E+03  0.7546771E-02  0.1022497E+00
         21   -1    0    0  502  501  0.00000000000E+00  0.00000000000E+00  0.10492524393E+03  0.10492524393E+03  0.00000000000E+00 0.  1.
         21   -1    0    0  501  502 -0.00000000000E+00 -0.00000000000E+00 -0.52177564157E+03  0.52177564157E+03  0.00000000000E+00 0.  1.
      99926    2    1    2    0    0  0.17763568394E-14  0.00000000000E+00 -0.41685039764E+03  0.62670088551E+03  0.46796340229E+03 0.  0.
      99925    2    3    3    0    0 -0.76823504738E+01 -0.59888480632E+02 -0.11301021325E+03  0.29261704218E+03  0.26307370917E+03 0.  0.
         25    1    4    4    0    0 -0.28069802394E+02  0.13675629437E+01 -0.66060971369E+02  0.14422671068E+03  0.12509000000E+03 0.  0.
         25    1    3    3    0    0  0.76823504738E+01  0.59888480632E+02 -0.30384018439E+03  0.33408384333E+03  0.12509000000E+03 0.  0.
         25    1    4    4    0    0  0.20387451920E+02 -0.61256043576E+02 -0.46949241878E+02  0.14839033150E+03  0.12509000000E+03 0.  0.
<mgrwt>
<rscale>  2 0.46796340E+03</rscale>
<asrwt>0</asrwt>
<pdfrwt beam="1">  1       21 0.15430183E-01 0.46796340E+03</pdfrwt>
<pdfrwt beam="2">  1       21 0.76731712E-01 0.46796340E+03</pdfrwt>
<totfact> 0.51578639E+04</totfact>
</mgrwt>
</event>
<event>
 7    0  0.4714446E-002  0.4658525E+03  0.7546771E-02  0.1023097E+00
         21   -1    0    0  502  501  0.00000000000E+00  0.00000000000E+00  0.17980860265E+03  0.17980860265E+03  0.00000000000E+00 0.  1.
         21   -1    0    0  501  502 -0.00000000000E+00 -0.00000000000E+00 -0.30173554502E+03  0.30173554502E+03  0.00000000000E+00 0.  1.
      99926    2    1    2    0    0  0.71054273576E-14 -0.14210854715E-13 -0.12192694236E+03  0.48154414767E+03  0.46585253770E+03 0.  0.
      99925    2    3    3    0    0  0.35067974214E+02 -0.11448219378E+03 -0.10526328907E+03  0.30758690882E+03  0.26304640454E+03 0.  0.
         25    1    3    3    0    0 -0.35067974214E+02  0.11448219378E+03 -0.16663653297E+02  0.17395723885E+03  0.12509000000E+03 0.  0.
         25    1    4    4    0    0  0.43564459234E+02 -0.81684817677E+02 -0.82054626517E+02  0.17592822792E+03  0.12509000000E+03 0.  0.
         25    1    4    4    0    0 -0.84964850206E+01 -0.32797376103E+02 -0.23208662549E+02  0.13165868089E+03  0.12509000000E+03 0.  0.
<mgrwt>
<rscale>  2 0.46585254E+03</rscale>
<asrwt>0</asrwt>
<pdfrwt beam="1">  1       21 0.26442442E-01 0.46585254E+03</pdfrwt>
<pdfrwt beam="2">  1       21 0.44372873E-01 0.46585254E+03</pdfrwt>
<totfact> 0.61149354E+04</totfact>
</mgrwt>
</event>
<event>
 7    0  0.4714446E-002  0.4535184E+03  0.7546771E-02  0.1026678E+00
         21   -1    0    0  502  501  0.00000000000E+00  0.00000000000E+00  0.71814244556E+02  0.71814244556E+02  0.00000000000E+00 0. -1.
         21   -1    0    0  501  502 -0.00000000000E+00 -0.00000000000E+00 -0.71601014936E+03  0.71601014936E+03  0.00000000000E+00 0. -1.
      99926    2    1    2    0    0  0.71054273576E-14  0.14210854715E-13 -0.64419590481E+03  0.78782439392E+03  0.45351836995E+03 0.  0.
      99925    2    3    3    0    0  0.44389505364E+02  0.10244035149E+03 -0.41745368333E+03  0.50582439942E+03  0.26291879263E+03 0.  0.
         25    1    4    4    0    0  0.34297627752E+02  0.81616931793E+02 -0.27515463698E+03  0.31495274753E+03  0.12509000000E+03 0.  0.
         25    1    4    4    0    0  0.10091877611E+02  0.20823419694E+02 -0.14229904635E+03  0.19087165189E+03  0.12509000000E+03 0.  0.
         25    1    3    3    0    0 -0.44389505364E+02 -0.10244035149E+03 -0.22674222147E+03  0.28199999450E+03  0.12509000000E+03 0.  0.
<mgrwt>
<rscale>  2 0.45351837E+03</rscale>
<asrwt>0</asrwt>
<pdfrwt beam="1">  1       21 0.10560918E-01 0.45351837E+03</pdfrwt>
<pdfrwt beam="2">  1       21 0.10529561E+00 0.45351837E+03</pdfrwt>
<totfact> 0.48925862E+04</totfact>
</mgrwt>
</event>
<event>
 7    0  0.4714446E-002  0.4556536E+03  0.7546771E-02  0.1026049E+00
         21   -1    0    0  502  501  0.00000000000E+00  0.00000000000E+00  0.35580634738E+02  0.35580634738E+02  0.00000000000E+00 0. -1.
         21   -1    0    0  501  502 -0.00000000000E+00 -0.00000000000E+00 -0.14588002828E+04  0.14588002828E+04  0.00000000000E+00 0. -1.
      99926    2    1    2    0    0  0.00000000000E+00  0.00000000000E+00 -0.14232196480E+04  0.14943809175E+04  0.45565355268E+03 0.  0.
      99925    2    3    3    0    0  0.85680590294E+02 -0.30487165058E+02 -0.11197736234E+04  0.11537966713E+04  0.26283675600E+03 0.  0.
         25    1    3    3    0    0 -0.85680590294E+02  0.30487165058E+02 -0.30344602465E+03  0.34058424620E+03  0.12509000000E+03 0.  0.
         25    1    4    4    0    0  0.80101865757E+02 -0.16941353837E+02 -0.52726525676E+03  0.54805061578E+03  0.12509000000E+03 0.  0.
         25    1    4    4    0    0  0.55787245371E+01 -0.13545811221E+02 -0.59250836664E+03  0.60574605554E+03  0.12509000000E+03 0.  0.
<mgrwt>
<rscale>  2 0.45565355E+03</rscale>
<asrwt>0</asrwt>
<pdfrwt beam="1">  1       21 0.52324450E-02 0.45565355E+03</pdfrwt>
<pdfrwt beam="2">  1       21 0.21452950E+00 0.45565355E+03</pdfrwt>
<totfact> 0.23796136E+04</totfact>
</mgrwt>
</event>
<event>
 7    0  0.4714446E-002  0.4575486E+03  0.7546771E-02  0.1025495E+00
         21   -1    0    0  502  501  0.00000000000E+00  0.00000000000E+00  0.57771275046E+03  0.57771275046E+03  0.00000000000E+00 0. -1.
         21   -1    0    0  501  502 -0.00000000000E+00 -0.00000000000E+00 -0.90594649056E+02  0.90594649056E+02  0.00000000000E+00 0. -1.
      99926    2    1    2    0    0  0.00000000000E+00  0.00000000000E+00  0.48711810141E+03  0.66830739952E+03  0.45754861549E+03 0.  0.
      99925    2    3    3    0    0  0.34834878353E+02  0.90612174806E+02  0.21429428779E+03  0.35286425671E+03  0.26299640094E+03 0.  0.
         25    1    3    3    0    0 -0.34834878353E+02 -0.90612174806E+02  0.27282381362E+03  0.31544314281E+03  0.12509000000E+03 0.  0.
         25    1    4    4    0    0  0.15843099863E+02  0.33693959903E+02  0.15324260562E+03  0.20128857649E+03  0.12509000000E+03 0.  0.
         25    1    4    4    0    0  0.18991778490E+02  0.56918214903E+02  0.61051682175E+02  0.15157568022E+03  0.12509000000E+03 0.  0.
<mgrwt>
<rscale>  2 0.45754862E+03</rscale>
<asrwt>0</asrwt>
<pdfrwt beam="1">  1       21 0.84957756E-01 0.45754862E+03</pdfrwt>
<pdfrwt beam="2">  1       21 0.13322743E-01 0.45754862E+03</pdfrwt>
<totfact> 0.53573098E+04</totfact>
</mgrwt>
</event>
<event>
 7    0  0.4714446E-002  0.4334976E+03  0.7546771E-02  0.1032761E+00
         21   -1    0    0  502  501  0.00000000000E+00  0.00000000000E+00  0.26721871142E+03  0.26721871142E+03  0.00000000000E+00 0.  1.
         21   -1    0    0  501  502 -0.00000000000E+00 -0.00000000000E+00 -0.17581117864E+03  0.17581117864E+03  0.00000000000E+00 0.  1.
      99926    2    1    2    0    0  0.00000000000E+00  0.00000000000E+00  0.91407532774E+02  0.44302989006E+03  0.43349757374E+03 0.  0.
      99925    2    3    3    0    0  0.80829196370E+02  0.43061218400E+02  0.58341540985E+02  0.28451018962E+03  0.26297278391E+03 0.  0.
         25    1    3    3    0    0 -0.80829196370E+02 -0.43061218400E+02  0.33065991790E+02  0.15851970044E+03  0.12509000000E+03 0.  0.
         25    1    4    4    0    0  0.79263313108E+02  0.69539758454E+01  0.30110027786E+02  0.15127839389E+03  0.12509000000E+03 0.  0.
         25    1    4    4    0    0  0.15658832619E+01  0.36107242554E+02  0.28231513199E+02  0.13323179573E+03  0.12509000000E+03 0.  0.
<mgrwt>
<rscale>  2 0.43349757E+03</rscale>
<asrwt>0</asrwt>
<pdfrwt beam="1">  1       21 0.39296869E-01 0.43349757E+03</pdfrwt>
<pdfrwt beam="2">  1       21 0.25854585E-01 0.43349757E+03</pdfrwt>
<totfact> 0.82728985E+04</totfact>
</mgrwt>
</event>
<event>
 7    0  0.4714446E-002  0.3928062E+03  0.7546771E-02  0.1046299E+00
         21   -1    0    0  502  501  0.00000000000E+00  0.00000000000E+00  0.38633294700E+02  0.38633294700E+02  0.00000000000E+00 0. -1.
         21   -1    0    0  501  502 -0.00000000000E+00 -0.00000000000E+00 -0.99846970897E+03  0.99846970897E+03  0.00000000000E+00 0. -1.
      99926    2    1    2    0    0  0.00000000000E+00 -0.35527136788E-14 -0.95983641427E+03  0.10371030037E+04  0.39280618384E+03 0.  0.
      99925    2    3    3    0    0 -0.53431392631E+01  0.23540527637E+02 -0.60494150404E+03  0.66003456030E+03  0.26288532082E+03 0.  0.
         25    1    4    4    0    0 -0.14051345074E+01  0.46148794817E+02 -0.36279279917E+03  0.38652012741E+03  0.12509000000E+03 0.  0.
         25    1    3    3    0    0  0.53431392631E+01 -0.23540527637E+02 -0.35489491023E+03  0.37706844337E+03  0.12509000000E+03 0.  0.
         25    1    4    4    0    0 -0.39380047556E+01 -0.22608267180E+02 -0.24214870487E+03  0.27351443288E+03  0.12509000000E+03 0.  0.
<mgrwt>
<rscale>  2 0.39280618E+03</rscale>
<asrwt>0</asrwt>
<pdfrwt beam="1">  1       21 0.56813666E-02 0.39280618E+03</pdfrwt>
<pdfrwt beam="2">  1       21 0.14683379E+00 0.39280618E+03</pdfrwt>
<totfact> 0.63375749E+04</totfact>
</mgrwt>
</event>
<event>
 7    0  0.4714446E-002  0.4065095E+03  0.7546771E-02  0.1041549E+00
         21   -1    0    0  502  501  0.00000000000E+00  0.00000000000E+00  0.32155630859E+03  0.32155630859E+03  0.00000000000E+00 0.  1.
         21   -1    0    0  501  502 -0.00000000000E+00 -0.00000000000E+00 -0.12847667500E+03  0.12847667500E+03  0.00000000000E+00 0.  1.
      99926    2    1    2    0    0 -0.26645352591E-14  0.00000000000E+00  0.19307963359E+03  0.45003298360E+03  0.40650946043E+03 0.  0.
      99925    2    3    3    0    0  0.19526801192E+01  0.56474080114E+02  0.12052560206E+03  0.29477600219E+03  0.26300824327E+03 0.  0.
         25    1    4    4    0    0 -0.37084999112E+02  0.40526203421E+02  0.69154288274E+02  0.15312574574E+03  0.12509000000E+03 0.  0.
         25    1    3    3    0    0 -0.19526801192E+01 -0.56474080114E+02  0.72554031528E+02  0.15525698141E+03  0.12509000000E+03 0.  0.
         25    1    4    4    0    0  0.39037679231E+02  0.15947876694E+02  0.51371313788E+02  0.14165025645E+03  0.12509000000E+03 0.  0.
<mgrwt>
<rscale>  2 0.40650946E+03</rscale>
<asrwt>0</asrwt>
<pdfrwt beam="1">  1       21 0.47287692E-01 0.40650946E+03</pdfrwt>
<pdfrwt beam="2">  1       21 0.18893629E-01 0.40650946E+03</pdfrwt>
<totfact> 0.10335820E+05</totfact>
</mgrwt>
</event>
<event>
 7    0  0.4714446E-002  0.4515376E+03  0.7546771E-02  0.1027265E+00
         21   -1    0    0  502  501  0.00000000000E+00  0.00000000000E+00  0.17471899205E+04  0.17471899205E+04  0.00000000000E+00 0.  1.
         21   -1    0    0  501  502 -0.00000000000E+00 -0.00000000000E+00 -0.29173441679E+02  0.29173441679E+02  0.00000000000E+00 0.  1.
      99926    2    1    2    0    0  0.00000000000E+00  0.00000000000E+00  0.17180164788E+04  0.17763633621E+04  0.45153756542E+03 0.  0.
      99925    2    3    3    0    0  0.10387013870E+03 -0.35444577940E+02  0.11108771960E+04  0.11468310432E+04  0.26292199069E+03 0.  0.
         25    1    3    3    0    0 -0.10387013870E+03  0.35444577940E+02  0.60713928273E+03  0.62953231891E+03  0.12509000000E+03 0.  0.
         25    1    4    4    0    0  0.94962094308E+02 -0.16133927866E+02  0.63407464582E+03  0.65343421058E+03  0.12509000000E+03 0.  0.
         25    1    4    4    0    0  0.89080443945E+01 -0.19310650073E+02  0.47680255022E+03  0.49339683264E+03  0.12509000000E+03 0.  0.
<mgrwt>
<rscale>  2 0.45153757E+03</rscale>
<asrwt>0</asrwt>
<pdfrwt beam="1">  1       21 0.25693962E+00 0.45153757E+03</pdfrwt>
<pdfrwt beam="2">  1       21 0.42902132E-02 0.45153757E+03</pdfrwt>
<totfact> 0.18202477E+04</totfact>
</mgrwt>
</event>
<event>
 7    0  0.4714446E-002  0.4557498E+03  0.7546771E-02  0.1026021E+00
         21   -1    0    0  502  501  0.00000000000E+00  0.00000000000E+00  0.58550275237E+02  0.58550275237E+02  0.00000000000E+00 0. -1.
         21   -1    0    0  501  502 -0.00000000000E+00 -0.00000000000E+00 -0.88687829178E+03  0.88687829178E+03  0.00000000000E+00 0. -1.
      99926    2    1    2    0    0  0.35527136788E-14  0.00000000000E+00 -0.82832801655E+03  0.94542856702E+03  0.45574979138E+03 0.  0.
      99925    2    3    3    0    0  0.13742234937E+02  0.94151585936E+02 -0.39192293224E+03  0.48158562392E+03  0.26318768625E+03 0.  0.
         25    1    3    3    0    0 -0.13742234937E+02 -0.94151585936E+02 -0.43640508430E+03  0.46384294310E+03  0.12509000000E+03 0.  0.
         25    1    4    4    0    0 -0.29467186568E+02  0.43610940705E+02 -0.15983705890E+03  0.20967981002E+03  0.12509000000E+03 0.  0.
         25    1    4    4    0    0  0.43209421505E+02  0.50540645231E+02 -0.23208587335E+03  0.27190581390E+03  0.12509000000E+03 0.  0.
<mgrwt>
<rscale>  2 0.45574979E+03</rscale>
<asrwt>0</asrwt>
<pdfrwt beam="1">  1       21 0.86103355E-02 0.45574979E+03</pdfrwt>
<pdfrwt beam="2">  1       21 0.13042327E+00 0.45574979E+03</pdfrwt>
<totfact> 0.41085037E+04</totfact>
</mgrwt>
</event>
<event>
 7    0  0.4714446E-002  0.4509449E+03  0.7546771E-02  0.1027441E+00
         21   -1    0    0  502  501  0.00000000000E+00  0.00000000000E+00  0.84408463139E+02  0.84408463139E+02  0.00000000000E+00 0.  1.
         21   -1    0    0  501  502 -0.00000000000E+00 -0.00000000000E+00 -0.60228356875E+03  0.60228356875E+03  0.00000000000E+00 0.  1.
      99926    2    1    2    0    0 -0.14210854715E-13 -0.35527136788E-14 -0.51787510561E+03  0.68669203188E+03  0.45094492086E+03 0.  0.
      99925    2    3    3    0    0 -0.10361127312E+03 -0.31079368241E+02 -0.28941906259E+03  0.40466207827E+03  0.26131739465E+03 0.  0.
         25    1    3    3    0    0  0.10361127312E+03  0.31079368241E+02 -0.22845604302E+03  0.28202995362E+03  0.12509000000E+03 0.  0.
         25    1    4    4    0    0 -0.65767472758E+02 -0.76417391905E+01 -0.19830754422E+03  0.24363322197E+03  0.12509000000E+03 0.  0.
         25    1    4    4    0    0 -0.37843800363E+02 -0.23437629050E+02 -0.91111518368E+02  0.16102885630E+03  0.12509000000E+03 0.  0.
<mgrwt>
<rscale>  2 0.45094492E+03</rscale>
<asrwt>0</asrwt>
<pdfrwt beam="1">  1       21 0.12413009E-01 0.45094492E+03</pdfrwt>
<pdfrwt beam="2">  1       21 0.88571114E-01 0.45094492E+03</pdfrwt>
<totfact> 0.55378486E+04</totfact>
</mgrwt>
</event>
<event>
 7    0  0.4714446E-002  0.4548946E+03  0.7546771E-02  0.1026272E+00
         21   -1    0    0  502  501  0.00000000000E+00  0.00000000000E+00  0.81315901634E+02  0.81315901634E+02  0.00000000000E+00 0. -1.
         21   -1    0    0  501  502 -0.00000000000E+00 -0.00000000000E+00 -0.63618904027E+03  0.63618904027E+03  0.00000000000E+00 0. -1.
      99926    2    1    2    0    0  0.00000000000E+00  0.00000000000E+00 -0.55487313864E+03  0.71750494191E+03  0.45489464899E+03 0.  0.
      99925    2    3    3    0    0  0.23533778641E+01 -0.27572121377E+02 -0.52210915521E+03  0.58526747757E+03  0.26301005699E+03 0.  0.
         25    1    4    4    0    0 -0.16335920543E+01 -0.38369309227E+02 -0.33744322106E+03  0.36192583226E+03  0.12509000000E+03 0.  0.
         25    1    3    3    0    0 -0.23533778641E+01  0.27572121377E+02 -0.32763983425E+02  0.13223746434E+03  0.12509000000E+03 0.  0.
         25    1    4    4    0    0  0.39869699184E+01  0.10797187849E+02 -0.18466593415E+03  0.22334164531E+03  0.12509000000E+03 0.  0.
<mgrwt>
<rscale>  2 0.45489465E+03</rscale>
<asrwt>0</asrwt>
<pdfrwt beam="1">  1       21 0.11958221E-01 0.45489465E+03</pdfrwt>
<pdfrwt beam="2">  1       21 0.93557209E-01 0.45489465E+03</pdfrwt>
<totfact> 0.52005956E+04</totfact>
</mgrwt>
</event>
<event>
 7    0  0.4714446E-002  0.4663108E+03  0.7546771E-02  0.1022967E+00
         21   -1    0    0  502  501  0.00000000000E+00  0.00000000000E+00  0.11395447510E+03  0.11395447510E+03  0.00000000000E+00 0.  1.
         21   -1    0    0  501  502 -0.00000000000E+00 -0.00000000000E+00 -0.47704515590E+03  0.47704515590E+03  0.00000000000E+00 0.  1.
      99926    2    1    2    0    0  0.00000000000E+00  0.00000000000E+00 -0.36309068080E+03  0.59099963099E+03  0.46631075620E+03 0.  0.
      99925    2    3    3    0    0 -0.67658150585E+02  0.93510111594E+02 -0.28150734420E+03  0.40225346488E+03  0.26313437415E+03 0.  0.
         25    1    4    4    0    0 -0.71976135234E+02  0.58852815617E+02 -0.17453944139E+03  0.23399945011E+03  0.12509000000E+03 0.  0.
         25    1    3    3    0    0  0.67658150585E+02 -0.93510111594E+02 -0.81583336598E+02  0.18874616611E+03  0.12509000000E+03 0.  0.
         25    1    4    4    0    0  0.43179846483E+01  0.34657295977E+02 -0.10696790281E+03  0.16825401477E+03  0.12509000000E+03 0.  0.
<mgrwt>
<rscale>  2 0.46631076E+03</rscale>
<asrwt>0</asrwt>
<pdfrwt beam="1">  1       21 0.16758011E-01 0.46631076E+03</pdfrwt>
<pdfrwt beam="2">  1       21 0.70153699E-01 0.46631076E+03</pdfrwt>
<totfact> 0.54223301E+04</totfact>
</mgrwt>
</event>
<event>
 7    0  0.4714446E-002  0.4650445E+03  0.7546771E-02  0.1023328E+00
         21   -1    0    0  502  501  0.00000000000E+00  0.00000000000E+00  0.11790966126E+03  0.11790966126E+03  0.00000000000E+00 0.  1.
         21   -1    0    0  501  502 -0.00000000000E+00 -0.00000000000E+00 -0.45854247747E+03  0.45854247747E+03  0.00000000000E+00 0.  1.
      99926    2    1    2    0    0  0.14210854715E-13  0.00000000000E+00 -0.34063281621E+03  0.57645213873E+03  0.46504446321E+03 0.  0.
      99925    2    3    3    0    0 -0.10202034817E+03  0.57595433057E+02 -0.25574446007E+03  0.38519595855E+03  0.26314504037E+03 0.  0.
         25    1    3    3    0    0  0.10202034817E+03 -0.57595433057E+02 -0.84888356135E+02  0.19125618018E+03  0.12509000000E+03 0.  0.
         25    1    4    4    0    0 -0.79707704785E+02  0.75048864754E+01 -0.16058014827E+03  0.21873073319E+03  0.12509000000E+03 0.  0.
         25    1    4    4    0    0 -0.22312643383E+02  0.50090546582E+02 -0.95164311802E+02  0.16646522535E+03  0.12509000000E+03 0.  0.
<mgrwt>
<rscale>  2 0.46504446E+03</rscale>
<asrwt>0</asrwt>
<pdfrwt beam="1">  1       21 0.17339656E-01 0.46504446E+03</pdfrwt>
<pdfrwt beam="2">  1       21 0.67432717E-01 0.46504446E+03</pdfrwt>
<totfact> 0.55602408E+04</totfact>
</mgrwt>
</event>
<event>
 7    0  0.4714446E-002  0.4437629E+03  0.7546771E-02  0.1029598E+00
         21   -1    0    0  502  501  0.00000000000E+00  0.00000000000E+00  0.53869746012E+02  0.53869746012E+02  0.00000000000E+00 0. -1.
         21   -1    0    0  501  502 -0.00000000000E+00 -0.00000000000E+00 -0.91389655336E+03  0.91389655336E+03  0.00000000000E+00 0. -1.
      99926    2    1    2    0    0 -0.14210854715E-13 -0.88817841970E-15 -0.86002680735E+03  0.96776629937E+03  0.44376288809E+03 0.  0.
      99925    2    3    3    0    0 -0.10191970009E+03 -0.72888179807E+01 -0.55586540146E+03  0.62337927717E+03  0.26301069660E+03 0.  0.
         25    1    4    4    0    0 -0.63537169695E+02 -0.38919810045E+02 -0.32520504783E+03  0.35631103656E+03  0.12509000000E+03 0.  0.
         25    1    4    4    0    0 -0.38382530392E+02  0.31630992065E+02 -0.23066035364E+03  0.26706824060E+03  0.12509000000E+03 0.  0.
         25    1    3    3    0    0  0.10191970009E+03  0.72888179807E+01 -0.30416140589E+03  0.34438702221E+03  0.12509000000E+03 0.  0.
<mgrwt>
<rscale>  2 0.44376289E+03</rscale>
<asrwt>0</asrwt>
<pdfrwt beam="1">  1       21 0.79220215E-02 0.44376289E+03</pdfrwt>
<pdfrwt beam="2">  1       21 0.13439655E+00 0.44376289E+03</pdfrwt>
<totfact> 0.44185627E+04</totfact>
</mgrwt>
</event>
<event>
 7    0  0.4714446E-002  0.4573760E+03  0.7546771E-02  0.1025545E+00
         21   -1    0    0  502  501  0.00000000000E+00  0.00000000000E+00  0.43952078579E+03  0.43952078579E+03  0.00000000000E+00 0.  1.
         21   -1    0    0  501  502 -0.00000000000E+00 -0.00000000000E+00 -0.11898912576E+03  0.11898912576E+03  0.00000000000E+00 0.  1.
      99926    2    1    2    0    0  0.00000000000E+00  0.00000000000E+00  0.32053166004E+03  0.55850991155E+03  0.45737596812E+03 0.  0.
      99925    2    3    3    0    0  0.61864940834E+02 -0.89902235868E+02  0.24724144350E+03  0.37704738964E+03  0.26291960698E+03 0.  0.
         25    1    3    3    0    0 -0.61864940834E+02  0.89902235868E+02  0.73290216536E+02  0.18146252191E+03  0.12509000000E+03 0.  0.
         25    1    4    4    0    0  0.52335631571E+02 -0.11075385573E+02  0.12905368698E+03  0.18752078477E+03  0.12509000000E+03 0.  0.
         25    1    4    4    0    0  0.95293092627E+01 -0.78826850295E+02  0.11818775652E+03  0.18952660487E+03  0.12509000000E+03 0.  0.
<mgrwt>
<rscale>  2 0.45737597E+03</rscale>
<asrwt>0</asrwt>
<pdfrwt beam="1">  1       21 0.64635409E-01 0.45737597E+03</pdfrwt>
<pdfrwt beam="2">  1       21 0.17498401E-01 0.45737597E+03</pdfrwt>
<totfact> 0.60168810E+04</totfact>
</mgrwt>
</event>
<event>
 7    0  0.4714446E-002  0.4501772E+03  0.7546771E-02  0.1027669E+00
         21   -1    0    0  502  501  0.00000000000E+00  0.00000000000E+00  0.14936578757E+03  0.14936578757E+03  0.00000000000E+00 0.  1.
         21   -1    0    0  501  502 -0.00000000000E+00 -0.00000000000E+00 -0.33919996123E+03  0.33919996123E+03  0.00000000000E+00 0.  1.
      99926    2    1    2    0    0  0.00000000000E+00  0.14210854715E-13 -0.18983417366E+03  0.48856574881E+03  0.45017716226E+03 0.  0.
      99925    2    3    3    0    0  0.26370930384E+02  0.10252560083E+03 -0.14499397238E+03  0.31866849590E+03  0.26328583983E+03 0.  0.
         25    1    4    4    0    0  0.28982743514E+02  0.90973390413E+02 -0.92139052365E+02  0.18235479225E+03  0.12509000000E+03 0.  0.
         25    1    3    3    0    0 -0.26370930384E+02 -0.10252560083E+03 -0.44840201280E+02  0.16989725291E+03  0.12509000000E+03 0.  0.
         25    1    4    4    0    0 -0.26118131295E+01  0.11552210419E+02 -0.52854920016E+02  0.13631370365E+03  0.12509000000E+03 0.  0.
<mgrwt>
<rscale>  2 0.45017716E+03</rscale>
<asrwt>0</asrwt>
<pdfrwt beam="1">  1       21 0.21965557E-01 0.45017716E+03</pdfrwt>
<pdfrwt beam="2">  1       21 0.49882347E-01 0.45017716E+03</pdfrwt>
<totfact> 0.68673541E+04</totfact>
</mgrwt>
</event>
<event>
 7    0  0.4714446E-002  0.4586637E+03  0.7546771E-02  0.1025170E+00
         21   -1    0    0  502  501  0.00000000000E+00  0.00000000000E+00  0.94265668675E+02  0.94265668675E+02  0.00000000000E+00 0. -1.
         21   -1    0    0  501  502 -0.00000000000E+00 -0.00000000000E+00 -0.55792411796E+03  0.55792411796E+03  0.00000000000E+00 0. -1.
      99926    2    1    2    0    0  0.00000000000E+00  0.00000000000E+00 -0.46365844929E+03  0.65218978664E+03  0.45866366784E+03 0.  0.
      99925    2    3    3    0    0 -0.26440447497E+02 -0.71540190956E+02 -0.16536480328E+03  0.31985907254E+03  0.26295857456E+03 0.  0.
         25    1    4    4    0    0 -0.30189539364E+02 -0.60206319691E+02 -0.12095288344E+03  0.18658327184E+03  0.12509000000E+03 0.  0.
         25    1    4    4    0    0  0.37490918671E+01 -0.11333871265E+02 -0.44411919839E+02  0.13327580070E+03  0.12509000000E+03 0.  0.
         25    1    3    3    0    0  0.26440447497E+02  0.71540190956E+02 -0.29829364601E+03  0.33233071410E+03  0.12509000000E+03 0.  0.
<mgrwt>
<rscale>  2 0.45866367E+03</rscale>
<asrwt>0</asrwt>
<pdfrwt beam="1">  1       21 0.13862599E-01 0.45866367E+03</pdfrwt>
<pdfrwt beam="2">  1       21 0.82047663E-01 0.45866367E+03</pdfrwt>
<totfact> 0.53997898E+04</totfact>
</mgrwt>
</event>
<event>
 7    0  0.4714446E-002  0.4599911E+03  0.7546771E-02  0.1024784E+00
         21   -1    0    0  502  501  0.00000000000E+00  0.00000000000E+00  0.57277927905E+03  0.57277927905E+03  0.00000000000E+00 0. -1.
         21   -1    0    0  501  502 -0.00000000000E+00 -0.00000000000E+00 -0.92353126940E+02  0.92353126940E+02  0.00000000000E+00 0. -1.
      99926    2    1    2    0    0  0.00000000000E+00  0.00000000000E+00  0.48042615211E+03  0.66513240599E+03  0.45999111933E+03 0.  0.
      99925    2    3    3    0    0 -0.70588790130E+02  0.67661012259E+02  0.39590460556E+03  0.48526526112E+03  0.26302305427E+03 0.  0.
         25    1    4    4    0    0 -0.23423906102E+02 -0.69457717755E+01  0.17483642981E+03  0.21636129139E+03  0.12509000000E+03 0.  0.
         25    1    4    4    0    0 -0.47164884028E+02  0.74606784035E+02  0.22106817575E+03  0.26890396974E+03  0.12509000000E+03 0.  0.
         25    1    3    3    0    0  0.70588790130E+02 -0.67661012259E+02  0.84521546554E+02  0.17986714487E+03  0.12509000000E+03 0.  0.
<mgrwt>
<rscale>  2 0.45999112E+03</rscale>
<asrwt>0</asrwt>
<pdfrwt beam="1">  1       21 0.84232245E-01 0.45999112E+03</pdfrwt>
<pdfrwt beam="2">  1       21 0.13581342E-01 0.45999112E+03</pdfrwt>
<totfact> 0.52731093E+04</totfact>
</mgrwt>
</event>
<event>
 7    0  0.4714446E-002  0.4756676E+03  0.7546771E-02  0.1020333E+00
         21   -1    0    0  502  501  0.00000000000E+00  0.00000000000E+00  0.30351991482E+03  0.30351991482E+03  0.00000000000E+00 0. -1.
         21   -1    0    0  501  502 -0.00000000000E+00 -0.00000000000E+00 -0.18636314909E+03  0.18636314909E+03  0.00000000000E+00 0. -1.
      99926    2    1    2    0    0 -0.14210854715E-13  0.14210854715E-13  0.11715676574E+03  0.48988306391E+03  0.47566764505E+03 0.  0.
      99925    2    3    3    0    0 -0.89951194471E+02  0.65413551859E+02  0.14595945741E+03  0.32003827211E+03  0.26220255959E+03 0.  0.
         25    1    3    3    0    0  0.89951194471E+02 -0.65413551859E+02 -0.28802691679E+02  0.16984479180E+03  0.12509000000E+03 0.  0.
         25    1    4    4    0    0 -0.84546927778E+02  0.42433210036E+02  0.91570575473E+02  0.18160792577E+03  0.12509000000E+03 0.  0.
         25    1    4    4    0    0 -0.54042666926E+01  0.22980341823E+02  0.54388881942E+02  0.13843034634E+03  0.12509000000E+03 0.  0.
<mgrwt>
<rscale>  2 0.47566765E+03</rscale>
<asrwt>0</asrwt>
<pdfrwt beam="1">  1       21 0.44635282E-01 0.47566765E+03</pdfrwt>
<pdfrwt beam="2">  1       21 0.27406345E-01 0.47566765E+03</pdfrwt>
<totfact> 0.56188692E+04</totfact>
</mgrwt>
</event>
<event>
 7    0  0.4714446E-002  0.4672213E+03  0.7546771E-02  0.1022707E+00
         21   -1    0    0  502  501  0.00000000000E+00  0.00000000000E+00  0.41039252634E+03  0.41039252634E+03  0.00000000000E+00 0. -1.
         21   -1    0    0  501  502 -0.00000000000E+00 -0.00000000000E+00 -0.13297984741E+03  0.13297984741E+03  0.00000000000E+00 0. -1.
      99926    2    1    2    0    0  0.00000000000E+00  0.71054273576E-14  0.27741267894E+03  0.54337237375E+03  0.46722129887E+03 0.  0.
      99925    2    3    3    0    0  0.67651547603E+02 -0.52606375158E+02  0.27736965771E+03  0.39174232214E+03  0.26302843447E+03 0.  0.
         25    1    3    3    0    0 -0.67651547603E+02  0.52606375158E+02  0.43021231514E-01  0.15163005161E+03  0.12509000000E+03 0.  0.
         25    1    4    4    0    0  0.20132207810E+02 -0.58070959697E+02  0.11104480811E+03  0.17820213147E+03  0.12509000000E+03 0.  0.
         25    1    4    4    0    0  0.47519339793E+02  0.54645845385E+01  0.16632484960E+03  0.21354019067E+03  0.12509000000E+03 0.  0.
<mgrwt>
<rscale>  2 0.46722130E+03</rscale>
<asrwt>0</asrwt>
<pdfrwt beam="1">  1       21 0.60351842E-01 0.46722130E+03</pdfrwt>
<pdfrwt beam="2">  1       21 0.19555860E-01 0.46722130E+03</pdfrwt>
<totfact> 0.56624163E+04</totfact>
</mgrwt>
</event>
<event>
 7    0  0.4714446E-002  0.4529746E+03  0.7546771E-02  0.1026839E+00
         21   -1    0    0  502  501  0.00000000000E+00  0.00000000000E+00  0.37060785152E+02  0.37060785152E+02  0.00000000000E+00 0. -1.
         21   -1    0    0  501  502 -0.00000000000E+00 -0.00000000000E+00 -0.13841178323E+04  0.13841178323E+04  0.00000000000E+00 0. -1.
      99926    2    1    2    0    0  0.00000000000E+00  0.00000000000E+00 -0.13470570471E+04  0.14211786174E+04  0.45297458475E+03 0.  0.
      99925    2    3    3    0    0  0.78812476850E+02  0.55881160803E+02 -0.67475156143E+03  0.73054392033E+03  0.26281293583E+03 0.  0.
         25    1    3    3    0    0 -0.78812476850E+02 -0.55881160803E+02 -0.67230548568E+03  0.69063469709E+03  0.12509000000E+03 0.  0.
         25    1    4    4    0    0  0.71749751633E+02  0.49725476571E+01 -0.32692024266E+03  0.35734731879E+03  0.12509000000E+03 0.  0.
         25    1    4    4    0    0  0.70627252173E+01  0.50908613145E+02 -0.34783131878E+03  0.37319660154E+03  0.12509000000E+03 0.  0.
<mgrwt>
<rscale>  2 0.45297458E+03</rscale>
<asrwt>0</asrwt>
<pdfrwt beam="1">  1       21 0.54501168E-02 0.45297458E+03</pdfrwt>
<pdfrwt beam="2">  1       21 0.20354669E+00 0.45297458E+03</pdfrwt>
<totfact> 0.26182736E+04</totfact>
</mgrwt>
</event>
<event>
 7    0  0.4714446E-002  0.4632905E+03  0.7546771E-02  0.1023831E+00
         21   -1    0    0  502  501  0.00000000000E+00  0.00000000000E+00  0.37284703059E+02  0.37284703059E+02  0.00000000000E+00 0.  1.
         21   -1    0    0  501  502 -0.00000000000E+00 -0.00000000000E+00 -0.14391832986E+04  0.14391832986E+04  0.00000000000E+00 0.  1.
      99926    2    1    2    0    0  0.00000000000E+00  0.00000000000E+00 -0.14018985956E+04  0.14764680017E+04  0.46329050039E+03 0.  0.
      99925    2    3    3    0    0  0.42575377460E+02 -0.11168842801E+03 -0.93093005088E+03  0.97472519316E+03  0.26300470498E+03 0.  0.
         25    1    4    4    0    0 -0.18438953984E+02 -0.49293741950E+02 -0.47125291379E+03  0.49040461344E+03  0.12509000000E+03 0.  0.
         25    1    3    3    0    0 -0.42575377460E+02  0.11168842801E+03 -0.47096854471E+03  0.50174280854E+03  0.12509000000E+03 0.  0.
         25    1    4    4    0    0  0.61014331445E+02 -0.62394686060E+02 -0.45967713708E+03  0.48432057973E+03  0.12509000000E+03 0.  0.
<mgrwt>
<rscale>  2 0.46329050E+03</rscale>
<asrwt>0</asrwt>
<pdfrwt beam="1">  1       21 0.54830440E-02 0.46329050E+03</pdfrwt>
<pdfrwt beam="2">  1       21 0.21164462E+00 0.46329050E+03</pdfrwt>
<totfact> 0.22854183E+04</totfact>
</mgrwt>
</event>
<event>
 7    0  0.4714446E-002  0.4534379E+03  0.7546771E-02  0.1026702E+00
         21   -1    0    0  502  501  0.00000000000E+00  0.00000000000E+00  0.28594362434E+02  0.28594362434E+02  0.00000000000E+00 0.  1.
         21   -1    0    0  501  502 -0.00000000000E+00 -0.00000000000E+00 -0.17976086542E+04  0.17976086542E+04  0.00000000000E+00 0.  1.
      99926    2    1    2    0    0  0.14210854715E-13  0.00000000000E+00 -0.17690142917E+04  0.18262030166E+04  0.45343786067E+03 0.  0.
      99925    2    3    3    0    0 -0.80655224771E+02  0.52374606875E+02 -0.13438222821E+04  0.13726789071E+04  0.26294617595E+03 0.  0.
         25    1    3    3    0    0  0.80655224771E+02 -0.52374606875E+02 -0.42519200962E+03  0.45352410947E+03  0.12509000000E+03 0.  0.
         25    1    4    4    0    0 -0.44394654873E+00  0.20987636702E+02 -0.54719713232E+03  0.56170533886E+03  0.12509000000E+03 0.  0.
         25    1    4    4    0    0 -0.80211278222E+02  0.31386970173E+02 -0.79662514981E+03  0.81097356829E+03  0.12509000000E+03 0.  0.
<mgrwt>
<rscale>  2 0.45343786E+03</rscale>
<asrwt>0</asrwt>
<pdfrwt beam="1">  1       21 0.42050521E-02 0.45343786E+03</pdfrwt>
<pdfrwt beam="2">  1       21 0.26435429E+00 0.45343786E+03</pdfrwt>
<totfact> 0.16966155E+04</totfact>
</mgrwt>
</event>
<event>
 7    0  0.4714446E-002  0.4565278E+03  0.7546771E-02  0.1025793E+00
         21   -1    0    0  502  501  0.00000000000E+00  0.00000000000E+00  0.10869828146E+03  0.10869828146E+03  0.00000000000E+00 0. -1.
         21   -1    0    0  501  502 -0.00000000000E+00 -0.00000000000E+00 -0.47934889234E+03  0.47934889234E+03  0.00000000000E+00 0. -1.
      99926    2    1    2    0    0  0.00000000000E+00  0.00000000000E+00 -0.37065061087E+03  0.58804717380E+03  0.45652776835E+03 0.  0.
      99925    2    3    3    0    0  0.34748706378E+02  0.33531603891E+02 -0.99072416808E+02  0.28517085474E+03  0.26301184682E+03 0.  0.
         25    1    4    4    0    0 -0.22485931522E+02  0.18541673697E+02 -0.57170820423E+02  0.14058955007E+03  0.12509000000E+03 0.  0.
         25    1    3    3    0    0 -0.34748706378E+02 -0.33531603891E+02 -0.27157819406E+03  0.30287631906E+03  0.12509000000E+03 0.  0.
         25    1    4    4    0    0  0.57234637900E+02  0.14989930195E+02 -0.41901596386E+02  0.14458130468E+03  0.12509000000E+03 0.  0.
<mgrwt>
<rscale>  2 0.45652777E+03</rscale>
<asrwt>0</asrwt>
<pdfrwt beam="1">  1       21 0.15985042E-01 0.45652777E+03</pdfrwt>
<pdfrwt beam="2">  1       21 0.70492482E-01 0.45652777E+03</pdfrwt>
<totfact> 0.58707947E+04</totfact>
</mgrwt>
</event>
<event>
 7    0  0.4714446E-002  0.4437221E+03  0.7546771E-02  0.1029611E+00
         21   -1    0    0  502  501  0.00000000000E+00  0.00000000000E+00  0.22993632194E+03  0.22993632194E+03  0.00000000000E+00 0. -1.
         21   -1    0    0  501  502 -0.00000000000E+00 -0.00000000000E+00 -0.21406940883E+03  0.21406940883E+03  0.00000000000E+00 0. -1.
      99926    2    1    2    0    0  0.00000000000E+00  0.00000000000E+00  0.15866913107E+02  0.44400573077E+03  0.44372213155E+03 0.  0.
      99925    2    3    3    0    0 -0.87517751515E+02  0.43229377722E+02 -0.20308278069E+02  0.28126578950E+03  0.26300167729E+03 0.  0.
         25    1    4    4    0    0 -0.49920394115E+02 -0.44040932246E+00  0.23547899732E+02  0.13672692270E+03  0.12509000000E+03 0.  0.
         25    1    4    4    0    0 -0.37597357400E+02  0.43669787045E+02 -0.43856177801E+02  0.14453886680E+03  0.12509000000E+03 0.  0.
         25    1    3    3    0    0  0.87517751515E+02 -0.43229377722E+02  0.36175191176E+02  0.16273994127E+03  0.12509000000E+03 0.  0.
<mgrwt>
<rscale>  2 0.44372213E+03</rscale>
<asrwt>0</asrwt>
<pdfrwt beam="1">  1       21 0.33814165E-01 0.44372213E+03</pdfrwt>
<pdfrwt beam="2">  1       21 0.31480795E-01 0.44372213E+03</pdfrwt>
<totfact> 0.75968154E+04</totfact>
</mgrwt>
</event>
<event>
 7    0  0.4714446E-002  0.4510178E+03  0.7546771E-02  0.1027419E+00
         21   -1    0    0  502  501  0.00000000000E+00  0.00000000000E+00  0.37670066144E+03  0.37670066144E+03  0.00000000000E+00 0. -1.
         21   -1    0    0  501  502 -0.00000000000E+00 -0.00000000000E+00 -0.13499913487E+03  0.13499913487E+03  0.00000000000E+00 0. -1.
      99926    2    1    2    0    0  0.00000000000E+00  0.14210854715E-13  0.24170152658E+03  0.51169979631E+03  0.45101779742E+03 0.  0.
      99925    2    3    3    0    0  0.32433517468E+02  0.10217100629E+03  0.12857271004E+03  0.31185864736E+03  0.26312359565E+03 0.  0.
         25    1    4    4    0    0  0.28466812995E+02  0.11893122212E+02  0.71344750557E+02  0.14727317247E+03  0.12509000000E+03 0.  0.
         25    1    3    3    0    0 -0.32433517468E+02 -0.10217100629E+03  0.11312881654E+03  0.19984114895E+03  0.12509000000E+03 0.  0.
         25    1    4    4    0    0  0.39667044737E+01  0.90277884077E+02  0.57227959478E+02  0.16458547489E+03  0.12509000000E+03 0.  0.
<mgrwt>
<rscale>  2 0.45101780E+03</rscale>
<asrwt>0</asrwt>
<pdfrwt beam="1">  1       21 0.55397156E-01 0.45101780E+03</pdfrwt>
<pdfrwt beam="2">  1       21 0.19852814E-01 0.45101780E+03</pdfrwt>
<totfact> 0.66534041E+04</totfact>
</mgrwt>
</event>
<event>
 7    0  0.4714446E-002  0.4572373E+03  0.7546771E-02  0.1025586E+00
         21   -1    0    0  502  501  0.00000000000E+00  0.00000000000E+00  0.72912840737E+02  0.72912840737E+02  0.00000000000E+00 0. -1.
         21   -1    0    0  501  502 -0.00000000000E+00 -0.00000000000E+00 -0.71683523910E+03  0.71683523910E+03  0.00000000000E+00 0. -1.
      99926    2    1    2    0    0  0.00000000000E+00  0.00000000000E+00 -0.64392239836E+03  0.78974807983E+03  0.45723732841E+03 0.  0.
      99925    2    3    3    0    0 -0.11345775072E+03  0.20667628007E+02 -0.40640759400E+03  0.49758271153E+03  0.26290989009E+03 0.  0.
         25    1    3    3    0    0  0.11345775072E+03 -0.20667628007E+02 -0.23751480436E+03  0.29216536830E+03  0.12509000000E+03 0.  0.
         25    1    4    4    0    0 -0.60188467177E+02 -0.51892041368E+01 -0.13917173699E+03  0.19663636463E+03  0.12509000000E+03 0.  0.
         25    1    4    4    0    0 -0.53269283538E+02  0.25856832144E+02 -0.26723585701E+03  0.30094634690E+03  0.12509000000E+03 0.  0.
<mgrwt>
<rscale>  2 0.45723733E+03</rscale>
<asrwt>0</asrwt>
<pdfrwt beam="1">  1       21 0.10722477E-01 0.45723733E+03</pdfrwt>
<pdfrwt beam="2">  1       21 0.10541695E+00 0.45723733E+03</pdfrwt>
<totfact> 0.47426416E+04</totfact>
</mgrwt>
</event>
<event>
 7    0  0.4714446E-002  0.4496561E+03  0.7546771E-02  0.1027825E+00
         21   -1    0    0  502  501  0.00000000000E+00  0.00000000000E+00  0.79361484616E+02  0.79361484616E+02  0.00000000000E+00 0. -1.
         21   -1    0    0  501  502 -0.00000000000E+00 -0.00000000000E+00 -0.63692933425E+03  0.63692933425E+03  0.00000000000E+00 0. -1.
      99926    2    1    2    0    0  0.00000000000E+00  0.00000000000E+00 -0.55756784963E+03  0.71629081886E+03  0.44965612444E+03 0.  0.
      99925    2    3    3    0    0  0.89667965672E+02 -0.59048203823E+02 -0.33207290317E+03  0.43696571540E+03  0.26294407956E+03 0.  0.
         25    1    4    4    0    0  0.70058053491E+02  0.21422050257E+01 -0.16682880840E+03  0.21998199770E+03  0.12509000000E+03 0.  0.
         25    1    4    4    0    0  0.19609912181E+02 -0.61190408849E+02 -0.16524409477E+03  0.21698371770E+03  0.12509000000E+03 0.  0.
         25    1    3    3    0    0 -0.89667965672E+02  0.59048203823E+02 -0.22549494647E+03  0.27932510346E+03  0.12509000000E+03 0.  0.
<mgrwt>
<rscale>  2 0.44965612E+03</rscale>
<asrwt>0</asrwt>
<pdfrwt beam="1">  1       21 0.11670806E-01 0.44965612E+03</pdfrwt>
<pdfrwt beam="2">  1       21 0.93666082E-01 0.44965612E+03</pdfrwt>
<totfact> 0.54273128E+04</totfact>
</mgrwt>
</event>
<event>
 7    0  0.4714446E-002  0.4638995E+03  0.7546771E-02  0.1023656E+00
         21   -1    0    0  502  501  0.00000000000E+00  0.00000000000E+00  0.39776497664E+03  0.39776497664E+03  0.00000000000E+00 0.  1.
         21   -1    0    0  501  502 -0.00000000000E+00 -0.00000000000E+00 -0.13525746433E+03  0.13525746433E+03  0.00000000000E+00 0.  1.
      99926    2    1    2    0    0 -0.17763568394E-14  0.00000000000E+00  0.26250751232E+03  0.53302244097E+03  0.46389948109E+03 0.  0.
      99925    2    3    3    0    0 -0.90799030363E+01  0.89291238493E+02  0.25754017373E+03  0.37898493754E+03  0.26314876379E+03 0.  0.
         25    1    4    4    0    0 -0.24272217877E+02  0.47847771539E+02  0.81791018384E+02  0.15879492621E+03  0.12509000000E+03 0.  0.
         25    1    3    3    0    0  0.90799030363E+01 -0.89291238493E+02  0.49673385854E+01  0.15403750343E+03  0.12509000000E+03 0.  0.
         25    1    4    4    0    0  0.15192314841E+02  0.41443466955E+02  0.17574915535E+03  0.22019001133E+03  0.12509000000E+03 0.  0.
<mgrwt>
<rscale>  2 0.46389948E+03</rscale>
<asrwt>0</asrwt>
<pdfrwt beam="1">  1       21 0.58494849E-01 0.46389948E+03</pdfrwt>
<pdfrwt beam="2">  1       21 0.19890804E-01 0.46389948E+03</pdfrwt>
<totfact> 0.58747535E+04</totfact>
</mgrwt>
</event>
<event>
 7    0  0.4714446E-002  0.4635979E+03  0.7546771E-02  0.1023743E+00
         21   -1    0    0  502  501  0.00000000000E+00  0.00000000000E+00  0.17796902501E+03  0.17796902501E+03  0.00000000000E+00 0.  1.
         21   -1    0    0  501  502 -0.00000000000E+00 -0.00000000000E+00 -0.30191066533E+03  0.30191066533E+03  0.00000000000E+00 0.  1.
      99926    2    1    2    0    0 -0.14210854715E-13  0.00000000000E+00 -0.12394164032E+03  0.47987969035E+03  0.46359787208E+03 0.  0.
      99925    2    3    3    0    0 -0.11186698029E+03 -0.40741567080E+02 -0.99960624044E+02  0.30553321401E+03  0.26302912755E+03 0.  0.
         25    1    3    3    0    0  0.11186698029E+03  0.40741567080E+02 -0.23981016278E+02  0.17434647633E+03  0.12509000000E+03 0.  0.
         25    1    4    4    0    0 -0.11897211777E+02 -0.15502652279E+02 -0.42939651930E+02  0.13369067912E+03  0.12509000000E+03 0.  0.
         25    1    4    4    0    0 -0.99969768516E+02 -0.25238914801E+02 -0.57020972114E+02  0.17184253489E+03  0.12509000000E+03 0.  0.
<mgrwt>
<rscale>  2 0.46359787E+03</rscale>
<asrwt>0</asrwt>
<pdfrwt beam="1">  1       21 0.26171916E-01 0.46359787E+03</pdfrwt>
<pdfrwt beam="2">  1       21 0.44398627E-01 0.46359787E+03</pdfrwt>
<totfact> 0.62345233E+04</totfact>
</mgrwt>
</event>
<event>
 7    0  0.4714446E-002  0.4570583E+03  0.7546771E-02  0.1025638E+00
         21   -1    0    0  502  501  0.00000000000E+00  0.00000000000E+00  0.71952806328E+03  0.71952806328E+03  0.00000000000E+00 0.  1.
         21   -1    0    0  501  502 -0.00000000000E+00 -0.00000000000E+00 -0.72583107155E+02  0.72583107155E+02  0.00000000000E+00 0.  1.
      99926    2    1    2    0    0  0.71054273576E-14  0.00000000000E+00  0.64694495613E+03  0.79211117044E+03  0.45705834428E+03 0.  0.
      99925    2    3    3    0    0  0.52569939389E+02  0.98940158238E+02  0.36103691649E+03  0.46053362495E+03  0.26304146290E+03 0.  0.
         25    1    3    3    0    0 -0.52569939389E+02 -0.98940158238E+02  0.28590803964E+03  0.33157754549E+03  0.12509000000E+03 0.  0.
         25    1    4    4    0    0  0.62658307430E+02  0.59123828758E+02  0.22264481963E+03  0.26951792969E+03  0.12509000000E+03 0.  0.
         25    1    4    4    0    0 -0.10088368041E+02  0.39816329480E+02  0.13839209685E+03  0.19101569526E+03  0.12509000000E+03 0.  0.
<mgrwt>
<rscale>  2 0.45705834E+03</rscale>
<asrwt>0</asrwt>
<pdfrwt beam="1">  1       21 0.10581295E+00 0.45705834E+03</pdfrwt>
<pdfrwt beam="2">  1       21 0.10673987E-01 0.45705834E+03</pdfrwt>
<totfact> 0.47378737E+04</totfact>
</mgrwt>
</event>
<event>
 7    0  0.4714446E-002  0.4570517E+03  0.7546771E-02  0.1025640E+00
         21   -1    0    0  502  501  0.00000000000E+00  0.00000000000E+00  0.12268802420E+03  0.12268802420E+03  0.00000000000E+00 0. -1.
         21   -1    0    0  501  502 -0.00000000000E+00 -0.00000000000E+00 -0.42566563021E+03  0.42566563021E+03  0.00000000000E+00 0. -1.
      99926    2    1    2    0    0 -0.35527136788E-14  0.00000000000E+00 -0.30297760601E+03  0.54835365441E+03  0.45705174823E+03 0.  0.
      99925    2    3    3    0    0 -0.30263277537E+02  0.89839460221E+01 -0.57827631588E+02  0.27132911522E+03  0.26320880787E+03 0.  0.
         25    1    4    4    0    0 -0.52390830202E+02 -0.93489506833E+01 -0.19166152489E+02  0.13728456384E+03  0.12509000000E+03 0.  0.
         25    1    4    4    0    0  0.22127552665E+02  0.18332896705E+02 -0.38661479099E+02  0.13404455138E+03  0.12509000000E+03 0.  0.
         25    1    3    3    0    0  0.30263277537E+02 -0.89839460221E+01 -0.24514997442E+03  0.27702453919E+03  0.12509000000E+03 0.  0.
<mgrwt>
<rscale>  2 0.45705175E+03</rscale>
<asrwt>0</asrwt>
<pdfrwt beam="1">  1       21 0.18042357E-01 0.45705175E+03</pdfrwt>
<pdfrwt beam="2">  1       21 0.62597886E-01 0.45705175E+03</pdfrwt>
<totfact> 0.60979450E+04</totfact>
</mgrwt>
</event>
<event>
 7    0  0.4714446E-002  0.4560958E+03  0.7546771E-02  0.1025920E+00
         21   -1    0    0  502  501  0.00000000000E+00  0.00000000000E+00  0.78700421468E+02  0.78700421468E+02  0.00000000000E+00 0. -1.
         21   -1    0    0  501  502 -0.00000000000E+00 -0.00000000000E+00 -0.66080768369E+03  0.66080768369E+03  0.00000000000E+00 0. -1.
      99926    2    1    2    0    0  0.00000000000E+00 -0.17763568394E-14 -0.58210726222E+03  0.73950810516E+03  0.45609579352E+03 0.  0.
      99925    2    3    3    0    0 -0.99166943290E+02  0.12411600334E+02 -0.27644354017E+03  0.39444876310E+03  0.26302217653E+03 0.  0.
         25    1    3    3    0    0  0.99166943290E+02 -0.12411600334E+02 -0.30566372205E+03  0.34505934206E+03  0.12509000000E+03 0.  0.
         25    1    4    4    0    0 -0.76548615557E+02 -0.10051994573E+02 -0.10888874125E+03  0.18293441232E+03  0.12509000000E+03 0.  0.
         25    1    4    4    0    0 -0.22618327733E+02  0.22463594907E+02 -0.16755479892E+03  0.21151435078E+03  0.12509000000E+03 0.  0.
<mgrwt>
<rscale>  2 0.45609579E+03</rscale>
<asrwt>0</asrwt>
<pdfrwt beam="1">  1       21 0.11573591E-01 0.45609579E+03</pdfrwt>
<pdfrwt beam="2">  1       21 0.97177601E-01 0.45609579E+03</pdfrwt>
<totfact> 0.50374498E+04</totfact>
</mgrwt>
</event>
<event>
 7    0  0.4714446E-002  0.4501779E+03  0.7546771E-02  0.1027669E+00
         21   -1    0    0  502  501  0.00000000000E+00  0.00000000000E+00  0.84539331782E+03  0.84539331782E+03  0.00000000000E+00 0. -1.
         21   -1    0    0  501  502 -0.00000000000E+00 -0.00000000000E+00 -0.59930725312E+02  0.59930725312E+02  0.00000000000E+00 0. -1.
      99926    2    1    2    0    0  0.00000000000E+00  0.88817841970E-15  0.78546259251E+03  0.90532404313E+03  0.45017789688E+03 0.  0.
      99925    2    3    3    0    0  0.10631754151E+03 -0.31910484926E+01  0.45030679451E+03  0.53210759192E+03  0.26277115095E+03 0.  0.
         25    1    4    4    0    0  0.78867901364E+02  0.28341155377E+02  0.21740348394E+03  0.26445254751E+03  0.12509000000E+03 0.  0.
         25    1    4    4    0    0  0.27449640146E+02 -0.31532203870E+02  0.23290331057E+03  0.26765504441E+03  0.12509000000E+03 0.  0.
         25    1    3    3    0    0 -0.10631754151E+03  0.31910484926E+01  0.33515579800E+03  0.37321645122E+03  0.12509000000E+03 0.  0.
<mgrwt>
<rscale>  2 0.45017790E+03</rscale>
<asrwt>0</asrwt>
<pdfrwt beam="1">  1       21 0.12432254E+00 0.45017790E+03</pdfrwt>
<pdfrwt beam="2">  1       21 0.88133425E-02 0.45017790E+03</pdfrwt>
<totfact> 0.44666361E+04</totfact>
</mgrwt>
</event>
<event>
 6    0  0.4714446E-002  0.4560734E+03  0.7546771E-02  0.1025926E+00
         21   -1    0    0  502  501  0.00000000000E+00  0.00000000000E+00  0.14233050654E+03  0.14233050654E+03  0.00000000000E+00 0.  1.
         21   -1    0    0  501  502 -0.00000000000E+00 -0.00000000000E+00 -0.36535207849E+03  0.36535207849E+03  0.00000000000E+00 0.  1.
      99926    2    1    2    0    0  0.71054273576E-14  0.71054273576E-14 -0.22302157195E+03  0.50768258503E+03  0.45607344319E+03 0.  0.
         25    1    3    3    0    0  0.34194958096E+02 -0.43138992234E+02  0.68571735883E+01  0.13683857914E+03  0.12509000000E+03 0.  0.
         25    1    3    3    0    0  0.27971781216E+02 -0.13480759048E+02 -0.55429540494E+02  0.14030001236E+03  0.12509000000E+03 0.  0.
         25    1    3    3    0    0 -0.62166739312E+02  0.56619751282E+02 -0.17444920505E+03  0.23054399353E+03  0.12509000000E+03 0.  0.
<mgrwt>
<rscale>  2 0.45607344E+03</rscale>
<asrwt>0</asrwt>
<pdfrwt beam="1">  1       21 0.20930957E-01 0.45607344E+03</pdfrwt>
<pdfrwt beam="2">  1       21 0.53728247E-01 0.45607344E+03</pdfrwt>
<totfact> 0.64185641E+04</totfact>
</mgrwt>
</event>
<event>
 7    0  0.4714446E-002  0.4512280E+03  0.7546771E-02  0.1027356E+00
         21   -1    0    0  502  501  0.00000000000E+00  0.00000000000E+00  0.13071194262E+03  0.13071194262E+03  0.00000000000E+00 0.  1.
         21   -1    0    0  501  502 -0.00000000000E+00 -0.00000000000E+00 -0.38941876187E+03  0.38941876187E+03  0.00000000000E+00 0.  1.
      99926    2    1    2    0    0 -0.17763568394E-14 -0.35527136788E-14 -0.25870681925E+03  0.52013070449E+03  0.45122802598E+03 0.  0.
      99925    2    3    3    0    0  0.11331854473E+02  0.22269712767E+02 -0.28614744660E+03  0.38965140666E+03  0.26329357471E+03 0.  0.
         25    1    4    4    0    0  0.12965325904E+02 -0.22743981525E+02 -0.10775412506E+03  0.16716413473E+03  0.12509000000E+03 0.  0.
         25    1    3    3    0    0 -0.11331854473E+02 -0.22269712767E+02  0.27440627350E+02  0.13047929783E+03  0.12509000000E+03 0.  0.
         25    1    4    4    0    0 -0.16334714315E+01  0.45013694292E+02 -0.17839332154E+03  0.22248727193E+03  0.12509000000E+03 0.  0.
<mgrwt>
<rscale>  2 0.45122803E+03</rscale>
<asrwt>0</asrwt>
<pdfrwt beam="1">  1       21 0.19222345E-01 0.45122803E+03</pdfrwt>
<pdfrwt beam="2">  1       21 0.57267465E-01 0.45122803E+03</pdfrwt>
<totfact> 0.65826039E+04</totfact>
</mgrwt>
</event>
<event>
 7    0  0.4714446E-002  0.4594853E+03  0.7546771E-02  0.1024931E+00
         21   -1    0    0  502  501  0.00000000000E+00  0.00000000000E+00  0.95989849463E+03  0.95989849463E+03  0.00000000000E+00 0. -1.
         21   -1    0    0  501  502 -0.00000000000E+00 -0.00000000000E+00 -0.54986736538E+02  0.54986736538E+02  0.00000000000E+00 0. -1.
      99926    2    1    2    0    0  0.00000000000E+00  0.00000000000E+00  0.90491175809E+03  0.10148852312E+04  0.45948530173E+03 0.  0.
      99925    2    3    3    0    0  0.59736767886E+02  0.36510854524E+02  0.35915770842E+03  0.45061888026E+03  0.26298591558E+03 0.  0.
         25    1    4    4    0    0  0.37966533230E+02  0.40787674355E+02  0.13118116383E+03  0.18963411578E+03  0.12509000000E+03 0.  0.
         25    1    4    4    0    0  0.21770234656E+02 -0.42768198304E+01  0.22797654460E+03  0.26098476448E+03  0.12509000000E+03 0.  0.
         25    1    3    3    0    0 -0.59736767886E+02 -0.36510854524E+02  0.54575404967E+03  0.56426635090E+03  0.12509000000E+03 0.  0.
<mgrwt>
<rscale>  2 0.45948530E+03</rscale>
<asrwt>0</asrwt>
<pdfrwt beam="1">  1       21 0.14116153E+00 0.45948530E+03</pdfrwt>
<pdfrwt beam="2">  1       21 0.80862854E-02 0.45948530E+03</pdfrwt>
<totfact> 0.37270239E+04</totfact>
</mgrwt>
</event>
<event>
 7    0  0.4714446E-002  0.4510006E+03  0.7546771E-02  0.1027424E+00
         21   -1    0    0  502  501  0.00000000000E+00  0.00000000000E+00  0.80912785296E+02  0.80912785296E+02  0.00000000000E+00 0.  1.
         21   -1    0    0  501  502 -0.00000000000E+00 -0.00000000000E+00 -0.62845926201E+03  0.62845926201E+03  0.00000000000E+00 0.  1.
      99926    2    1    2    0    0  0.00000000000E+00 -0.71054273576E-14 -0.54754647672E+03  0.70937204731E+03  0.45100061789E+03 0.  0.
      99925    2    3    3    0    0 -0.80620339014E+02 -0.63015623282E+02 -0.28585414339E+03  0.40179930264E+03  0.26317195988E+03 0.  0.
         25    1    4    4    0    0 -0.55854796640E+02  0.11970652431E+01 -0.16719109787E+03  0.21615171195E+03  0.12509000000E+03 0.  0.
         25    1    3    3    0    0  0.80620339014E+02  0.63015623282E+02 -0.26169233333E+03  0.30757274467E+03  0.12509000000E+03 0.  0.
         25    1    4    4    0    0 -0.24765542374E+02 -0.64212688525E+02 -0.11866304552E+03  0.18564759069E+03  0.12509000000E+03 0.  0.
<mgrwt>
<rscale>  2 0.45100062E+03</rscale>
<asrwt>0</asrwt>
<pdfrwt beam="1">  1       21 0.11898939E-01 0.45100062E+03</pdfrwt>
<pdfrwt beam="2">  1       21 0.92420477E-01 0.45100062E+03</pdfrwt>
<totfact> 0.54078739E+04</totfact>
</mgrwt>
</event>
<event>
 7    0  0.4714446E-002  0.4597660E+03  0.7546771E-02  0.1024849E+00
         21   -1    0    0  502  501  0.00000000000E+00  0.00000000000E+00  0.13355842455E+03  0.13355842455E+03  0.00000000000E+00 0. -1.
         21   -1    0    0  501  502 -0.00000000000E+00 -0.00000000000E+00 -0.39567847195E+03  0.39567847195E+03  0.00000000000E+00 0. -1.
      99926    2    1    2    0    0  0.00000000000E+00  0.00000000000E+00 -0.26212004740E+03  0.52923689650E+03  0.45976599850E+03 0.  0.
      99925    2    3    3    0    0  0.92345810583E+02  0.55396426913E+02 -0.10980669809E+03  0.30464086509E+03  0.26296774116E+03 0.  0.
         25    1    4    4    0    0  0.72433203238E+02  0.60805635911E+02 -0.51139947828E+02  0.16494452599E+03  0.12509000000E+03 0.  0.
         25    1    3    3    0    0 -0.92345810583E+02 -0.55396426913E+02 -0.15231334931E+03  0.22459603141E+03  0.12509000000E+03 0.  0.
         25    1    4    4    0    0  0.19912607345E+02 -0.54092089975E+01 -0.58666750258E+02  0.13969633910E+03  0.12509000000E+03 0.  0.
<mgrwt>
<rscale>  2 0.45976600E+03</rscale>
<asrwt>0</asrwt>
<pdfrwt beam="1">  1       21 0.19640945E-01 0.45976600E+03</pdfrwt>
<pdfrwt beam="2">  1       21 0.58188011E-01 0.45976600E+03</pdfrwt>
<totfact> 0.60923808E+04</totfact>
</mgrwt>
</event>
<event>
 7    0  0.4714446E-002  0.4590501E+03  0.7546771E-02  0.1025057E+00
         21   -1    0    0  502  501  0.00000000000E+00  0.00000000000E+00  0.12001338250E+03  0.12001338250E+03  0.00000000000E+00 0.  1.
         21   -1    0    0  501  502 -0.00000000000E+00 -0.00000000000E+00 -0.43896566928E+03  0.43896566928E+03  0.00000000000E+00 0.  1.
      99926    2    1    2    0    0 -0.14210854715E-13 -0.71054273576E-14 -0.31895228678E+03  0.55897905178E+03  0.45905012698E+03 0.  0.
      99925    2    3    3    0    0 -0.98613362369E+02 -0.62180782198E+02 -0.21115788470E+03  0.35684497218E+03  0.26298219900E+03 0.  0.
         25    1    3    3    0    0  0.98613362369E+02  0.62180782198E+02 -0.10779440208E+03  0.20213407959E+03  0.12509000000E+03 0.  0.
         25    1    4    4    0    0 -0.15896356289E+02 -0.11238150300E+02 -0.69842403531E+02  0.14458374596E+03  0.12509000000E+03 0.  0.
         25    1    4    4    0    0 -0.82717006080E+02 -0.50942631898E+02 -0.14131548117E+03  0.21226122622E+03  0.12509000000E+03 0.  0.
<mgrwt>
<rscale>  2 0.45905013E+03</rscale>
<asrwt>0</asrwt>
<pdfrwt beam="1">  1       21 0.17649027E-01 0.45905013E+03</pdfrwt>
<pdfrwt beam="2">  1       21 0.64553775E-01 0.45905013E+03</pdfrwt>
<totfact> 0.59352572E+04</totfact>
</mgrwt>
</event>
<event>
 7    0  0.4714446E-002  0.4622709E+03  0.7546771E-02  0.1024125E+00
         21   -1    0    0  502  501  0.00000000000E+00  0.00000000000E+00  0.59586907134E+03  0.59586907134E+03  0.00000000000E+00 0. -1.
         21   -1    0    0  501  502 -0.00000000000E+00 -0.00000000000E+00 -0.89656596244E+02  0.89656596244E+02  0.00000000000E+00 0. -1.
      99926    2    1    2    0    0  0.00000000000E+00  0.00000000000E+00  0.50621247509E+03  0.68552566758E+03  0.46227088484E+03 0.  0.
      99925    2    3    3    0    0 -0.11887240731E+03 -0.14526011606E+02  0.32510254865E+03  0.43494640310E+03  0.26295446791E+03 0.  0.
         25    1    3    3    0    0  0.11887240731E+03  0.14526011606E+02  0.18110992644E+03  0.25057926448E+03  0.12509000000E+03 0.  0.
         25    1    4    4    0    0 -0.79339438067E+02  0.24781866663E+02  0.14572587996E+03  0.20926640327E+03  0.12509000000E+03 0.  0.
         25    1    4    4    0    0 -0.39532969242E+02 -0.39307878269E+02  0.17937666869E+03  0.22567999983E+03  0.12509000000E+03 0.  0.
<mgrwt>
<rscale>  2 0.46227088E+03</rscale>
<asrwt>0</asrwt>
<pdfrwt beam="1">  1       21 0.87627803E-01 0.46227088E+03</pdfrwt>
<pdfrwt beam="2">  1       21 0.13184794E-01 0.46227088E+03</pdfrwt>
<totfact> 0.50727814E+04</totfact>
</mgrwt>
</event>
<event>
 7    0  0.4714446E-002  0.4531882E+03  0.7546771E-02  0.1026776E+00
         21   -1    0    0  502  501  0.00000000000E+00  0.00000000000E+00  0.75558466153E+03  0.75558466153E+03  0.00000000000E+00 0. -1.
         21   -1    0    0  501  502 -0.00000000000E+00 -0.00000000000E+00 -0.67953846555E+02  0.67953846555E+02  0.00000000000E+00 0. -1.
      99926    2    1    2    0    0  0.00000000000E+00  0.14210854715E-13  0.68763081497E+03  0.82353850808E+03  0.45318819115E+03 0.  0.
      99925    2    3    3    0    0  0.31513260493E+02 -0.75666091864E+02  0.57035832844E+03  0.63348907440E+03  0.26321349038E+03 0.  0.
         25    1    4    4    0    0  0.24556387181E+02 -0.96771279384E+01  0.33818095185E+03  0.36153910888E+03  0.12509000000E+03 0.  0.
         25    1    3    3    0    0 -0.31513260493E+02  0.75666091864E+02  0.11727248653E+03  0.19004943368E+03  0.12509000000E+03 0.  0.
         25    1    4    4    0    0  0.69568733119E+01 -0.65988963926E+02  0.23217737659E+03  0.27194996552E+03  0.12509000000E+03 0.  0.
<mgrwt>
<rscale>  2 0.45318819E+03</rscale>
<asrwt>0</asrwt>
<pdfrwt beam="1">  1       21 0.11111539E+00 0.45318819E+03</pdfrwt>
<pdfrwt beam="2">  1       21 0.99932131E-02 0.45318819E+03</pdfrwt>
<totfact> 0.47316354E+04</totfact>
</mgrwt>
</event>
<event>
 7    0  0.4714446E-002  0.4541290E+03  0.7546771E-02  0.1026498E+00
         21   -1    0    0  502  501  0.00000000000E+00  0.00000000000E+00  0.16885380663E+04  0.16885380663E+04  0.00000000000E+00 0. -1.
         21   -1    0    0  501  502 -0.00000000000E+00 -0.00000000000E+00 -0.30534275490E+02  0.30534275490E+02  0.00000000000E+00 0. -1.
      99926    2    1    2    0    0  0.00000000000E+00  0.00000000000E+00  0.16580037908E+04  0.17190723418E+04  0.45412899706E+03 0.  0.
      99925    2    3    3    0    0 -0.18130962683E+02 -0.30117486337E+02  0.63831957517E+03  0.69114277099E+03  0.26266072234E+03 0.  0.
         25    1    4    4    0    0 -0.95610872914E+01  0.21909434334E+02  0.26783224732E+03  0.29656880906E+03  0.12509000000E+03 0.  0.
         25    1    3    3    0    0  0.18130962683E+02  0.30117486337E+02  0.10196842157E+04  0.10279295708E+04  0.12509000000E+03 0.  0.
         25    1    4    4    0    0 -0.85698753919E+01 -0.52026920671E+02  0.37048732785E+03  0.39457396193E+03  0.12509000000E+03 0.  0.
<mgrwt>
<rscale>  2 0.45412900E+03</rscale>
<asrwt>0</asrwt>
<pdfrwt beam="1">  1       21 0.24831436E+00 0.45412900E+03</pdfrwt>
<pdfrwt beam="2">  1       21 0.44903358E-02 0.45412900E+03</pdfrwt>
<totfact> 0.18995674E+04</totfact>
</mgrwt>
</event>
<event>
 7    0  0.4714446E-002  0.4551608E+03  0.7546771E-02  0.1026194E+00
         21   -1    0    0  502  501  0.00000000000E+00  0.00000000000E+00  0.13402138960E+04  0.13402138960E+04  0.00000000000E+00 0. -1.
         21   -1    0    0  501  502 -0.00000000000E+00 -0.00000000000E+00 -0.38645204129E+02  0.38645204129E+02  0.00000000000E+00 0. -1.
      99926    2    1    2    0    0  0.00000000000E+00  0.00000000000E+00  0.13015686919E+04  0.13788591001E+04  0.45516080494E+03 0.  0.
      99925    2    3    3    0    0 -0.48277795060E+02  0.10253060175E+03  0.81095363401E+03  0.86002009534E+03  0.26295531576E+03 0.  0.
         25    1    3    3    0    0  0.48277795060E+02 -0.10253060175E+03  0.49061505788E+03  0.51883900480E+03  0.12509000000E+03 0.  0.
         25    1    4    4    0    0 -0.49564151411E+02  0.85329775670E+02  0.42156696376E+03  0.45067059895E+03  0.12509000000E+03 0.  0.
         25    1    4    4    0    0  0.12863563512E+01  0.17200826076E+02  0.38938667024E+03  0.40934949639E+03  0.12509000000E+03 0.  0.
<mgrwt>
<rscale>  2 0.45516080E+03</rscale>
<asrwt>0</asrwt>
<pdfrwt beam="1">  1       21 0.19709025E+00 0.45516080E+03</pdfrwt>
<pdfrwt beam="2">  1       21 0.56831191E-02 0.45516080E+03</pdfrwt>
<totfact> 0.26867273E+04</totfact>
</mgrwt>
</event>
<event>
 7    0  0.4714446E-002  0.4579049E+03  0.7546771E-02  0.1025391E+00
         21   -1    0    0  502  501  0.00000000000E+00  0.00000000000E+00  0.27402282808E+03  0.27402282808E+03  0.00000000000E+00 0.  1.
         21   -1    0    0  501  502 -0.00000000000E+00 -0.00000000000E+00 -0.19129509105E+03  0.19129509105E+03  0.00000000000E+00 0.  1.
      99926    2    1    2    0    0  0.71054273576E-14  0.00000000000E+00  0.82727737030E+02  0.46531791913E+03  0.45790488903E+03 0.  0.
      99925    2    3    3    0    0 -0.54122661279E+02 -0.10092946712E+03  0.34046100255E+02  0.28887124261E+03  0.26300463507E+03 0.  0.
         25    1    4    4    0    0 -0.62136490745E+02 -0.40889943884E+02  0.35811585844E+02  0.14987631158E+03  0.12509000000E+03 0.  0.
         25    1    3    3    0    0  0.54122661279E+02  0.10092946712E+03  0.48681636775E+02  0.17644667652E+03  0.12509000000E+03 0.  0.
         25    1    4    4    0    0  0.80138294653E+01 -0.60039523233E+02 -0.17654855895E+01  0.13899493103E+03  0.12509000000E+03 0.  0.
<mgrwt>
<rscale>  2 0.45790489E+03</rscale>
<asrwt>0</asrwt>
<pdfrwt beam="1">  1       21 0.40297475E-01 0.45790489E+03</pdfrwt>
<pdfrwt beam="2">  1       21 0.28131631E-01 0.45790489E+03</pdfrwt>
<totfact> 0.66243583E+04</totfact>
</mgrwt>
</event>
<event>
 7    0  0.4714446E-002  0.4528993E+03  0.7546771E-02  0.1026861E+00
         21   -1    0    0  502  501  0.00000000000E+00  0.00000000000E+00  0.51371951305E+02  0.51371951305E+02  0.00000000000E+00 0. -1.
         21   -1    0    0  501  502 -0.00000000000E+00 -0.00000000000E+00 -0.99819905558E+03  0.99819905558E+03  0.00000000000E+00 0. -1.
      99926    2    1    2    0    0  0.00000000000E+00  0.00000000000E+00 -0.94682710428E+03  0.10495710069E+04  0.45289925271E+03 0.  0.
      99925    2    3    3    0    0  0.38067550109E+02 -0.10396114510E+03 -0.57368319681E+03  0.64074226298E+03  0.26302315337E+03 0.  0.
         25    1    4    4    0    0  0.12519475152E+02 -0.68599448725E+02 -0.37994669202E+03  0.40604139999E+03  0.12509000000E+03 0.  0.
         25    1    3    3    0    0 -0.38067550109E+02  0.10396114510E+03 -0.37314390747E+03  0.40882874390E+03  0.12509000000E+03 0.  0.
         25    1    4    4    0    0  0.25548074957E+02 -0.35361696374E+02 -0.19373650479E+03  0.23470086300E+03  0.12509000000E+03 0.  0.
<mgrwt>
<rscale>  2 0.45289925E+03</rscale>
<asrwt>0</asrwt>
<pdfrwt beam="1">  1       21 0.75546992E-02 0.45289925E+03</pdfrwt>
<pdfrwt beam="2">  1       21 0.14679397E+00 0.45289925E+03</pdfrwt>
<totfact> 0.37910949E+04</totfact>
</mgrwt>
</event>
<event>
 7    0  0.4714446E-002  0.4544669E+03  0.7546771E-02  0.1026398E+00
         21   -1    0    0  502  501  0.00000000000E+00  0.00000000000E+00  0.11261339086E+04  0.11261339086E+04  0.00000000000E+00 0.  1.
         21   -1    0    0  501  502 -0.00000000000E+00 -0.00000000000E+00 -0.45851606872E+02  0.45851606872E+02  0.00000000000E+00 0.  1.
      99926    2    1    2    0    0  0.71054273576E-14 -0.14210854715E-13  0.10802823018E+04  0.11719855155E+04  0.45446693725E+03 0.  0.
      99925    2    3    3    0    0 -0.60908196436E+02  0.89979603127E+02  0.60276831246E+03  0.66654189308E+03  0.26294927145E+03 0.  0.
         25    1    4    4    0    0 -0.43307468241E+02  0.24708950325E+02  0.37043554217E+03  0.39415234115E+03  0.12509000000E+03 0.  0.
         25    1    4    4    0    0 -0.17600728195E+02  0.65270652801E+02  0.23233277029E+03  0.27238955193E+03  0.12509000000E+03 0.  0.
         25    1    3    3    0    0  0.60908196436E+02 -0.89979603127E+02  0.47751398930E+03  0.50544362242E+03  0.12509000000E+03 0.  0.
<mgrwt>
<rscale>  2 0.45446694E+03</rscale>
<asrwt>0</asrwt>
<pdfrwt beam="1">  1       21 0.16560791E+00 0.45446694E+03</pdfrwt>
<pdfrwt beam="2">  1       21 0.67428841E-02 0.45446694E+03</pdfrwt>
<totfact> 0.33194405E+04</totfact>
</mgrwt>
</event>
<event>
 7    0  0.4714446E-002  0.4626541E+03  0.7546771E-02  0.1024014E+00
         21   -1    0    0  502  501  0.00000000000E+00  0.00000000000E+00  0.18975246336E+03  0.18975246336E+03  0.00000000000E+00 0. -1.
         21   -1    0    0  501  502 -0.00000000000E+00 -0.00000000000E+00 -0.28201058085E+03  0.28201058085E+03  0.00000000000E+00 0. -1.
      99926    2    1    2    0    0  0.00000000000E+00  0.00000000000E+00 -0.92258117497E+02  0.47176304421E+03  0.46265409286E+03 0.  0.
      99925    2    3    3    0    0 -0.66093492281E+02 -0.90767786942E+02 -0.10179545842E+03  0.30340149920E+03  0.26283647672E+03 0.  0.
         25    1    4    4    0    0 -0.14484490237E+02 -0.73529663993E+02 -0.28624641324E+02  0.14860447549E+03  0.12509000000E+03 0.  0.
         25    1    4    4    0    0 -0.51609002044E+02 -0.17238122950E+02 -0.73170817094E+02  0.15479702371E+03  0.12509000000E+03 0.  0.
         25    1    3    3    0    0  0.66093492281E+02  0.90767786942E+02  0.95373409207E+01  0.16836154502E+03  0.12509000000E+03 0.  0.
<mgrwt>
<rscale>  2 0.46265409E+03</rscale>
<asrwt>0</asrwt>
<pdfrwt beam="1">  1       21 0.27904774E-01 0.46265409E+03</pdfrwt>
<pdfrwt beam="2">  1       21 0.41472144E-01 0.46265409E+03</pdfrwt>
<totfact> 0.63366992E+04</totfact>
</mgrwt>
</event>
<event>
 7    0  0.4714446E-002  0.4515906E+03  0.7546771E-02  0.1027249E+00
         21   -1    0    0  502  501  0.00000000000E+00  0.00000000000E+00  0.56665361068E+02  0.56665361068E+02  0.00000000000E+00 0. -1.
         21   -1    0    0  501  502 -0.00000000000E+00 -0.00000000000E+00 -0.89972998213E+03  0.89972998213E+03  0.00000000000E+00 0. -1.
      99926    2    1    2    0    0  0.14210854715E-13  0.00000000000E+00 -0.84306462106E+03  0.95639534320E+03  0.45159063011E+03 0.  0.
      99925    2    3    3    0    0 -0.77095341324E+02  0.46924277620E+02 -0.66514805400E+03  0.72092264325E+03  0.26298658584E+03 0.  0.
         25    1    4    4    0    0 -0.32791047194E+02  0.40156684380E+01 -0.41277588035E+03  0.43257694561E+03  0.12509000000E+03 0.  0.
         25    1    4    4    0    0 -0.44304294130E+02  0.42908609182E+02 -0.25237217364E+03  0.28834569764E+03  0.12509000000E+03 0.  0.
         25    1    3    3    0    0  0.77095341324E+02 -0.46924277620E+02 -0.17791656706E+03  0.23547269994E+03  0.12509000000E+03 0.  0.
<mgrwt>
<rscale>  2 0.45159063E+03</rscale>
<asrwt>0</asrwt>
<pdfrwt beam="1">  1       21 0.83331414E-02 0.45159063E+03</pdfrwt>
<pdfrwt beam="2">  1       21 0.13231323E+00 0.45159063E+03</pdfrwt>
<totfact> 0.41991232E+04</totfact>
</mgrwt>
</event>
<event>
 7    0  0.4714446E-002  0.4519865E+03  0.7546771E-02  0.1027131E+00
         21   -1    0    0  502  501  0.00000000000E+00  0.00000000000E+00  0.55351007146E+03  0.55351007146E+03  0.00000000000E+00 0.  1.
         21   -1    0    0  501  502 -0.00000000000E+00 -0.00000000000E+00 -0.92271035921E+02  0.92271035921E+02  0.00000000000E+00 0.  1.
      99926    2    1    2    0    0  0.71054273576E-14  0.00000000000E+00  0.46123903554E+03  0.64578110738E+03  0.45198649399E+03 0.  0.
      99925    2    3    3    0    0  0.37619630878E+02  0.77310070233E+02  0.38982085387E+03  0.47803085147E+03  0.26298500576E+03 0.  0.
         25    1    4    4    0    0 -0.16331730998E+02  0.26854590713E+02  0.21509896189E+03  0.25080463709E+03  0.12509000000E+03 0.  0.
         25    1    4    4    0    0  0.53951361876E+02  0.50455479519E+02  0.17472189198E+03  0.22722621438E+03  0.12509000000E+03 0.  0.
         25    1    3    3    0    0 -0.37619630878E+02 -0.77310070233E+02  0.71418181665E+02  0.16775025591E+03  0.12509000000E+03 0.  0.
<mgrwt>
<rscale>  2 0.45198649E+03</rscale>
<asrwt>0</asrwt>
<pdfrwt beam="1">  1       21 0.81398538E-01 0.45198649E+03</pdfrwt>
<pdfrwt beam="2">  1       21 0.13569270E-01 0.45198649E+03</pdfrwt>
<totfact> 0.57295353E+04</totfact>
</mgrwt>
</event>
<event>
 7    0  0.4714446E-002  0.4015327E+03  0.7546771E-02  0.1043250E+00
         21   -1    0    0  502  501  0.00000000000E+00  0.00000000000E+00  0.12692716921E+03  0.12692716921E+03  0.00000000000E+00 0.  1.
         21   -1    0    0  501  502 -0.00000000000E+00 -0.00000000000E+00 -0.31756105141E+03  0.31756105141E+03  0.00000000000E+00 0.  1.
      99926    2    1    2    0    0  0.00000000000E+00  0.00000000000E+00 -0.19063388221E+03  0.44448822062E+03  0.40153269010E+03 0.  0.
      99925    2    3    3    0    0  0.38277472382E+02  0.25435613781E+02 -0.14375931306E+03  0.30321943895E+03  0.26298888328E+03 0.  0.
         25    1    4    4    0    0 -0.11801880727E+02  0.16202401276E+02 -0.99517984705E+02  0.16109978143E+03  0.12509000000E+03 0.  0.
         25    1    4    4    0    0  0.50079353109E+02  0.92332125055E+01 -0.44241328353E+02  0.14211965753E+03  0.12509000000E+03 0.  0.
         25    1    3    3    0    0 -0.38277472382E+02 -0.25435613781E+02 -0.46874569149E+02  0.14126878167E+03  0.12509000000E+03 0.  0.
<mgrwt>
<rscale>  2 0.40153269E+03</rscale>
<asrwt>0</asrwt>
<pdfrwt beam="1">  1       21 0.18665761E-01 0.40153269E+03</pdfrwt>
<pdfrwt beam="2">  1       21 0.46700154E-01 0.40153269E+03</pdfrwt>
<totfact> 0.10868006E+05</totfact>
</mgrwt>
</event>
<event>
 7    0  0.4714446E-002  0.4559401E+03  0.7546771E-02  0.1025965E+00
         21   -1    0    0  502  501  0.00000000000E+00  0.00000000000E+00  0.23327771994E+03  0.23327771994E+03  0.00000000000E+00 0. -1.
         21   -1    0    0  501  502 -0.00000000000E+00 -0.00000000000E+00 -0.22278312246E+03  0.22278312246E+03  0.00000000000E+00 0. -1.
      99926    2    1    2    0    0  0.00000000000E+00  0.17763568394E-14  0.10494597480E+02  0.45606084240E+03  0.45594007873E+03 0.  0.
      99925    2    3    3    0    0  0.11142482846E+03  0.86911543568E+01  0.29225963293E+02  0.28727280750E+03  0.26302182502E+03 0.  0.
         25    1    4    4    0    0  0.23040914199E+02  0.30456409497E+02  0.69489140299E+01  0.13097431852E+03  0.12509000000E+03 0.  0.
         25    1    4    4    0    0  0.88383914261E+02 -0.21765255140E+02  0.22277049263E+02  0.15629848897E+03  0.12509000000E+03 0.  0.
         25    1    3    3    0    0 -0.11142482846E+03 -0.86911543568E+01 -0.18731365813E+02  0.16878803490E+03  0.12509000000E+03 0.  0.
<mgrwt>
<rscale>  2 0.45594008E+03</rscale>
<asrwt>0</asrwt>
<pdfrwt beam="1">  1       21 0.34305547E-01 0.45594008E+03</pdfrwt>
<pdfrwt beam="2">  1       21 0.32762224E-01 0.45594008E+03</pdfrwt>
<totfact> 0.67956985E+04</totfact>
</mgrwt>
</event>
<event>
 7    0  0.4714446E-002  0.4558670E+03  0.7546771E-02  0.1025987E+00
         21   -1    0    0  502  501  0.00000000000E+00  0.00000000000E+00  0.48420594113E+02  0.48420594113E+02  0.00000000000E+00 0.  1.
         21   -1    0    0  501  502 -0.00000000000E+00 -0.00000000000E+00 -0.10729668355E+04  0.10729668355E+04  0.00000000000E+00 0.  1.
      99926    2    1    2    0    0  0.00000000000E+00  0.00000000000E+00 -0.10245462414E+04  0.11213874296E+04  0.45586704920E+03 0.  0.
      99925    2    3    3    0    0 -0.40237720461E+02 -0.25233423175E+02 -0.39479868438E+03  0.47758210698E+03  0.26450494877E+03 0.  0.
         25    1    4    4    0    0  0.20913921875E+02 -0.11059271470E+02 -0.21308045487E+03  0.24821460062E+03  0.12509000000E+03 0.  0.
         25    1    4    4    0    0 -0.61151642335E+02 -0.14174151705E+02 -0.18171822950E+03  0.22936750635E+03  0.12509000000E+03 0.  0.
         25    1    3    3    0    0  0.40237720461E+02  0.25233423175E+02 -0.62974755697E+03  0.64380532260E+03  0.12509000000E+03 0.  0.
<mgrwt>
<rscale>  2 0.45586705E+03</rscale>
<asrwt>0</asrwt>
<pdfrwt beam="1">  1       21 0.71206761E-02 0.45586705E+03</pdfrwt>
<pdfrwt beam="2">  1       21 0.15778923E+00 0.45586705E+03</pdfrwt>
<totfact> 0.34518236E+04</totfact>
</mgrwt>
</event>
<event>
 7    0  0.4714446E-002  0.4499149E+03  0.7546771E-02  0.1027747E+00
         21   -1    0    0  502  501  0.00000000000E+00  0.00000000000E+00  0.39757432257E+03  0.39757432257E+03  0.00000000000E+00 0. -1.
         21   -1    0    0  501  502 -0.00000000000E+00 -0.00000000000E+00 -0.12728653394E+03  0.12728653394E+03  0.00000000000E+00 0. -1.
      99926    2    1    2    0    0 -0.35527136788E-14  0.00000000000E+00  0.27028778863E+03  0.52486085651E+03  0.44991491420E+03 0.  0.
      99925    2    3    3    0    0 -0.17229829843E+02  0.78045212025E+02  0.85351148520E+02  0.28771745873E+03  0.26288513718E+03 0.  0.
         25    1    3    3    0    0  0.17229829843E+02 -0.78045212025E+02  0.18493664011E+03  0.23714339778E+03  0.12509000000E+03 0.  0.
         25    1    4    4    0    0  0.68897191062E+01  0.38260027418E+01  0.56499025166E+02  0.13748365165E+03  0.12509000000E+03 0.  0.
         25    1    4    4    0    0 -0.24119548949E+02  0.74219209283E+02  0.28852123354E+02  0.15023380708E+03  0.12509000000E+03 0.  0.
<mgrwt>
<rscale>  2 0.44991491E+03</rscale>
<asrwt>0</asrwt>
<pdfrwt beam="1">  1       21 0.58466812E-01 0.44991491E+03</pdfrwt>
<pdfrwt beam="2">  1       21 0.18718608E-01 0.44991491E+03</pdfrwt>
<totfact> 0.66183359E+04</totfact>
</mgrwt>
</event>
<event>
 7    0  0.4714446E-002  0.4677458E+03  0.7546771E-02  0.1022558E+00
         21   -1    0    0  502  501  0.00000000000E+00  0.00000000000E+00  0.48035060693E+02  0.48035060693E+02  0.00000000000E+00 0. -1.
         21   -1    0    0  501  502 -0.00000000000E+00 -0.00000000000E+00 -0.11386795755E+04  0.11386795755E+04  0.00000000000E+00 0. -1.
      99926    2    1    2    0    0  0.00000000000E+00  0.00000000000E+00 -0.10906445148E+04  0.11867146362E+04  0.46774583918E+03 0.  0.
      99925    2    3    3    0    0  0.51427465895E+02  0.11008028680E+03 -0.60629652201E+03  0.67193027355E+03  0.26293034463E+03 0.  0.
         25    1    4    4    0    0  0.28787622156E+02  0.20837776620E+02 -0.21971984643E+03  0.25531795694E+03  0.12509000000E+03 0.  0.
         25    1    3    3    0    0 -0.51427465895E+02 -0.11008028680E+03 -0.48434799279E+03  0.51478436263E+03  0.12509000000E+03 0.  0.
         25    1    4    4    0    0  0.22639843739E+02  0.89242510177E+02 -0.38657667558E+03  0.41661231661E+03  0.12509000000E+03 0.  0.
<mgrwt>
<rscale>  2 0.46774584E+03</rscale>
<asrwt>0</asrwt>
<pdfrwt beam="1">  1       21 0.70639795E-02 0.46774584E+03</pdfrwt>
<pdfrwt beam="2">  1       21 0.16745288E+00 0.46774584E+03</pdfrwt>
<totfact> 0.29536034E+04</totfact>
</mgrwt>
</event>
<event>
 7    0  0.4714446E-002  0.4591240E+03  0.7546771E-02  0.1025036E+00
         21   -1    0    0  502  501  0.00000000000E+00  0.00000000000E+00  0.15394868252E+04  0.15394868252E+04  0.00000000000E+00 0.  1.
         21   -1    0    0  501  502 -0.00000000000E+00 -0.00000000000E+00 -0.34231351289E+02  0.34231351289E+02  0.00000000000E+00 0.  1.
      99926    2    1    2    0    0  0.00000000000E+00  0.00000000000E+00  0.15052554739E+04  0.15737181765E+04  0.45912401078E+03 0.  0.
      99925    2    3    3    0    0 -0.10384562292E+03  0.35194143228E+02  0.79852428942E+03  0.84767477810E+03  0.26246704081E+03 0.  0.
         25    1    4    4    0    0 -0.89275332467E+02  0.60465286144E+01  0.47515881928E+03  0.49942973193E+03  0.12509000000E+03 0.  0.
         25    1    3    3    0    0  0.10384562292E+03 -0.35194143228E+02  0.70673118446E+03  0.72604339837E+03  0.12509000000E+03 0.  0.
         25    1    4    4    0    0 -0.14570290451E+02  0.29147614614E+02  0.32336547014E+03  0.34824504617E+03  0.12509000000E+03 0.  0.
<mgrwt>
<rscale>  2 0.45912401E+03</rscale>
<asrwt>0</asrwt>
<pdfrwt beam="1">  1       21 0.22639508E+00 0.45912401E+03</pdfrwt>
<pdfrwt beam="2">  1       21 0.50340233E-02 0.45912401E+03</pdfrwt>
<totfact> 0.21337278E+04</totfact>
</mgrwt>
</event>
<event>
 7    0  0.4714446E-002  0.4657772E+03  0.7546771E-02  0.1023119E+00
         21   -1    0    0  502  501  0.00000000000E+00  0.00000000000E+00  0.14658955141E+03  0.14658955141E+03  0.00000000000E+00 0. -1.
         21   -1    0    0  501  502 -0.00000000000E+00 -0.00000000000E+00 -0.36999286842E+03  0.36999286842E+03  0.00000000000E+00 0. -1.
      99926    2    1    2    0    0 -0.14210854715E-13  0.00000000000E+00 -0.22340331701E+03  0.51658241983E+03  0.46577715104E+03 0.  0.
      99925    2    3    3    0    0  0.80802844578E+02 -0.73528790672E+02 -0.76517914886E+02  0.29486545565E+03  0.26297350225E+03 0.  0.
         25    1    4    4    0    0  0.80414441395E+01 -0.40953526594E+02 -0.62322058771E+02  0.14585404785E+03  0.12509000000E+03 0.  0.
         25    1    4    4    0    0  0.72761400438E+02 -0.32575264078E+02 -0.14195856115E+02  0.14901140780E+03  0.12509000000E+03 0.  0.
         25    1    3    3    0    0 -0.80802844578E+02  0.73528790672E+02 -0.14688540212E+03  0.22171696418E+03  0.12509000000E+03 0.  0.
<mgrwt>
<rscale>  2 0.46577715E+03</rscale>
<asrwt>0</asrwt>
<pdfrwt beam="1">  1       21 0.21557287E-01 0.46577715E+03</pdfrwt>
<pdfrwt beam="2">  1       21 0.54410716E-01 0.46577715E+03</pdfrwt>
<totfact> 0.58917930E+04</totfact>
</mgrwt>
</event>
<event>
 7    0  0.4714446E-002  0.4575624E+03  0.7546771E-02  0.1025491E+00
         21   -1    0    0  502  501  0.00000000000E+00  0.00000000000E+00  0.34974911458E+04  0.34974911458E+04  0.00000000000E+00 0.  1.
         21   -1    0    0  501  502 -0.00000000000E+00 -0.00000000000E+00 -0.14965249810E+02  0.14965249810E+02  0.00000000000E+00 0.  1.
      99926    2    1    2    0    0  0.00000000000E+00  0.00000000000E+00  0.34825258960E+04  0.35124563956E+04  0.45756236168E+03 0.  0.
      99925    2    3    3    0    0 -0.36521092618E+02  0.37580711844E+02  0.13977812319E+04  0.14233049117E+04  0.26316990587E+03 0.  0.
         25    1    3    3    0    0  0.36521092618E+02 -0.37580711844E+02  0.20847446641E+04  0.20891514839E+04  0.12509000000E+03 0.  0.
         25    1    4    4    0    0 -0.11744845242E+02  0.14046684684E+02  0.47834255848E+03  0.49476697757E+03  0.12509000000E+03 0.  0.
         25    1    4    4    0    0 -0.24776247376E+02  0.23534027159E+02  0.91943867342E+03  0.92853793414E+03  0.12509000000E+03 0.  0.
<mgrwt>
<rscale>  2 0.45756236E+03</rscale>
<asrwt>0</asrwt>
<pdfrwt beam="1">  1       21 0.51433637E+00 0.45756236E+03</pdfrwt>
<pdfrwt beam="2">  1       21 0.22007745E-02 0.45756236E+03</pdfrwt>
<totfact> 0.12321555E+03</totfact>
</mgrwt>
</event>
<event>
 7    0  0.4714446E-002  0.4277553E+03  0.7546771E-02  0.1034571E+00
         21   -1    0    0  502  501  0.00000000000E+00  0.00000000000E+00  0.58965808016E+03  0.58965808016E+03  0.00000000000E+00 0. -1.
         21   -1    0    0  501  502 -0.00000000000E+00 -0.00000000000E+00 -0.77576560918E+02  0.77576560918E+02  0.00000000000E+00 0. -1.
      99926    2    1    2    0    0  0.00000000000E+00  0.00000000000E+00  0.51208151925E+03  0.66723464108E+03  0.42775528507E+03 0.  0.
      99925    2    3    3    0    0 -0.10896301280E+02 -0.79901658580E+02  0.28824754393E+03  0.39843702013E+03  0.26298746738E+03 0.  0.
         25    1    3    3    0    0  0.10896301280E+02  0.79901658580E+02  0.22383397532E+03  0.26879762096E+03  0.12509000000E+03 0.  0.
         25    1    4    4    0    0  0.43458823811E+00 -0.79767689545E+02  0.17382995982E+03  0.22853322776E+03  0.12509000000E+03 0.  0.
         25    1    4    4    0    0 -0.11330889518E+02 -0.13396903442E+00  0.11441758411E+03  0.16990379236E+03  0.12509000000E+03 0.  0.
<mgrwt>
<rscale>  2 0.42775529E+03</rscale>
<asrwt>0</asrwt>
<pdfrwt beam="1">  1       21 0.86714421E-01 0.42775529E+03</pdfrwt>
<pdfrwt beam="2">  1       21 0.11408318E-01 0.42775529E+03</pdfrwt>
<totfact> 0.68223052E+04</totfact>
</mgrwt>
</event>
<event>
 7    0  0.4714446E-002  0.4583208E+03  0.7546771E-02  0.1025269E+00
         21   -1    0    0  502  501  0.00000000000E+00  0.00000000000E+00  0.28663957777E+03  0.28663957777E+03  0.00000000000E+00 0. -1.
         21   -1    0    0  501  502 -0.00000000000E+00 -0.00000000000E+00 -0.18320742831E+03  0.18320742831E+03  0.00000000000E+00 0. -1.
      99926    2    1    2    0    0  0.00000000000E+00  0.00000000000E+00  0.10343214946E+03  0.46984700608E+03  0.45832084785E+03 0.  0.
      99925    2    3    3    0    0 -0.36883266996E+02  0.52490033925E+02 -0.34443089564E+02  0.27293923913E+03  0.26304737747E+03 0.  0.
         25    1    4    4    0    0 -0.46531771860E+02  0.23290471640E+02  0.11991429164E+02  0.13601086109E+03  0.12509000000E+03 0.  0.
         25    1    3    3    0    0  0.36883266996E+02 -0.52490033925E+02  0.13787523902E+03  0.19690776694E+03  0.12509000000E+03 0.  0.
         25    1    4    4    0    0  0.96485048646E+01  0.29199562285E+02 -0.46434518728E+02  0.13692837804E+03  0.12509000000E+03 0.  0.
<mgrwt>
<rscale>  2 0.45832085E+03</rscale>
<asrwt>0</asrwt>
<pdfrwt beam="1">  1       21 0.42152879E-01 0.45832085E+03</pdfrwt>
<pdfrwt beam="2">  1       21 0.26942269E-01 0.45832085E+03</pdfrwt>
<totfact> 0.65699584E+04</totfact>
</mgrwt>
</event>
<event>
 7    0  0.4714446E-002  0.4542685E+03  0.7546771E-02  0.1026457E+00
         21   -1    0    0  502  501  0.00000000000E+00  0.00000000000E+00  0.48928260985E+03  0.48928260985E+03  0.00000000000E+00 0.  1.
         21   -1    0    0  501  502 -0.00000000000E+00 -0.00000000000E+00 -0.10544004019E+03  0.10544004019E+03  0.00000000000E+00 0.  1.
      99926    2    1    2    0    0  0.00000000000E+00  0.00000000000E+00  0.38384256967E+03  0.59472265004E+03  0.45426854632E+03 0.  0.
      99925    2    3    3    0    0 -0.63807192711E+02 -0.92028935063E+02  0.22871639772E+03  0.36613498621E+03  0.26306454495E+03 0.  0.
         25    1    3    3    0    0  0.63807192711E+02  0.92028935063E+02  0.15512617194E+03  0.22858766382E+03  0.12509000000E+03 0.  0.
         25    1    4    4    0    0 -0.41280067991E+01 -0.74937678160E+02  0.10736064588E+03  0.18112568132E+03  0.12509000000E+03 0.  0.
         25    1    4    4    0    0 -0.59679185912E+02 -0.17091256904E+02  0.12135575184E+03  0.18500930490E+03  0.12509000000E+03 0.  0.
<mgrwt>
<rscale>  2 0.45426855E+03</rscale>
<asrwt>0</asrwt>
<pdfrwt beam="1">  1       21 0.71953324E-01 0.45426855E+03</pdfrwt>
<pdfrwt beam="2">  1       21 0.15505888E-01 0.45426855E+03</pdfrwt>
<totfact> 0.59346578E+04</totfact>
</mgrwt>
</event>
<event>
 7    0  0.4714446E-002  0.4524267E+03  0.7546771E-02  0.1027001E+00
         21   -1    0    0  502  501  0.00000000000E+00  0.00000000000E+00  0.20651409665E+03  0.20651409665E+03  0.00000000000E+00 0. -1.
         21   -1    0    0  501  502 -0.00000000000E+00 -0.00000000000E+00 -0.24779171217E+03  0.24779171217E+03  0.00000000000E+00 0. -1.
      99926    2    1    2    0    0  0.14210854715E-13  0.00000000000E+00 -0.41277615523E+02  0.45430580882E+03  0.45242670830E+03 0.  0.
      99925    2    3    3    0    0 -0.79529377234E+02  0.52466851936E+02  0.32318697832E+02  0.28069239392E+03  0.26204203743E+03 0.  0.
         25    1    3    3    0    0  0.79529377234E+02 -0.52466851936E+02 -0.73596313355E+02  0.17361341490E+03  0.12509000000E+03 0.  0.
         25    1    4    4    0    0 -0.31551926363E+01  0.22166375884E+02 -0.22182336752E+01  0.12709733326E+03  0.12509000000E+03 0.  0.
         25    1    4    4    0    0 -0.76374184598E+02  0.30300476051E+02  0.34536931507E+02  0.15359506066E+03  0.12509000000E+03 0.  0.
<mgrwt>
<rscale>  2 0.45242671E+03</rscale>
<asrwt>0</asrwt>
<pdfrwt beam="1">  1       21 0.30369720E-01 0.45242671E+03</pdfrwt>
<pdfrwt beam="2">  1       21 0.36439957E-01 0.45242671E+03</pdfrwt>
<totfact> 0.70023361E+04</totfact>
</mgrwt>
</event>
<event>
 7    0  0.4714446E-002  0.4553048E+03  0.7546771E-02  0.1026152E+00
         21   -1    0    0  502  501  0.00000000000E+00  0.00000000000E+00  0.60114101661E+02  0.60114101661E+02  0.00000000000E+00 0.  1.
         21   -1    0    0  501  502 -0.00000000000E+00 -0.00000000000E+00 -0.86212079416E+03  0.86212079416E+03  0.00000000000E+00 0.  1.
      99926    2    1    2    0    0  0.00000000000E+00 -0.26645352591E-14 -0.80200669250E+03  0.92223489582E+03  0.45530480808E+03 0.  0.
      99925    2    3    3    0    0  0.52805925639E+02  0.74091000304E+01 -0.30127079538E+03  0.40336371016E+03  0.26285895454E+03 0.  0.
         25    1    4    4    0    0  0.44924330959E+02 -0.12394223744E+02 -0.20259640812E+03  0.24262033093E+03  0.12509000000E+03 0.  0.
         25    1    3    3    0    0 -0.52805925639E+02 -0.74091000304E+01 -0.50073589712E+03  0.51887118566E+03  0.12509000000E+03 0.  0.
         25    1    4    4    0    0  0.78815946798E+01  0.19803323774E+02 -0.98674387257E+02  0.16074337923E+03  0.12509000000E+03 0.  0.
<mgrwt>
<rscale>  2 0.45530481E+03</rscale>
<asrwt>0</asrwt>
<pdfrwt beam="1">  1       21 0.88403092E-02 0.45530481E+03</pdfrwt>
<pdfrwt beam="2">  1       21 0.12678247E+00 0.45530481E+03</pdfrwt>
<totfact> 0.42185426E+04</totfact>
</mgrwt>
</event>
<event>
 7    0  0.4714446E-002  0.4565990E+03  0.7546771E-02  0.1025772E+00
         21   -1    0    0  502  501  0.00000000000E+00  0.00000000000E+00  0.21914739994E+03  0.21914739994E+03  0.00000000000E+00 0. -1.
         21   -1    0    0  501  502 -0.00000000000E+00 -0.00000000000E+00 -0.23783384920E+03  0.23783384920E+03  0.00000000000E+00 0. -1.
      99926    2    1    2    0    0  0.14210854715E-13 -0.14210854715E-13 -0.18686449262E+02  0.45698124914E+03  0.45659903491E+03 0.  0.
      99925    2    3    3    0    0  0.56428962655E+02 -0.82739515330E+02 -0.67217461172E+02  0.28955119676E+03  0.26323307777E+03 0.  0.
         25    1    4    4    0    0  0.68693466070E+02 -0.48847899174E+02 -0.45667515564E+02  0.15760056983E+03  0.12509000000E+03 0.  0.
         25    1    3    3    0    0 -0.56428962655E+02  0.82739515330E+02  0.48531011910E+02  0.16743005238E+03  0.12509000000E+03 0.  0.
         25    1    4    4    0    0 -0.12264503415E+02 -0.33891616157E+02 -0.21549945609E+02  0.13195062692E+03  0.12509000000E+03 0.  0.
<mgrwt>
<rscale>  2 0.45659903E+03</rscale>
<asrwt>0</asrwt>
<pdfrwt beam="1">  1       21 0.32227559E-01 0.45659903E+03</pdfrwt>
<pdfrwt beam="2">  1       21 0.34975566E-01 0.45659903E+03</pdfrwt>
<totfact> 0.67535140E+04</totfact>
</mgrwt>
</event>
<event>
 7    0  0.4714446E-002  0.4553714E+03  0.7546771E-02  0.1026132E+00
         21   -1    0    0  502  501  0.00000000000E+00  0.00000000000E+00  0.28314955072E+03  0.28314955072E+03  0.00000000000E+00 0.  1.
         21   -1    0    0  501  502 -0.00000000000E+00 -0.00000000000E+00 -0.18308618840E+03  0.18308618840E+03  0.00000000000E+00 0.  1.
      99926    2    1    2    0    0  0.00000000000E+00  0.00000000000E+00  0.10006336231E+03  0.46623573912E+03  0.45537137366E+03 0.  0.
      99925    2    3    3    0    0 -0.10560004267E+03 -0.22954154877E+02  0.98307273549E+02  0.30092132902E+03  0.26307995740E+03 0.  0.
         25    1    3    3    0    0  0.10560004267E+03  0.22954154877E+02  0.17560887643E+01  0.16531441010E+03  0.12509000000E+03 0.  0.
         25    1    4    4    0    0 -0.47415798910E+02 -0.21644139768E+02  0.90054897673E+02  0.16270869512E+03  0.12509000000E+03 0.  0.
         25    1    4    4    0    0 -0.58184243762E+02 -0.13100151084E+01  0.82523758763E+01  0.13821263390E+03  0.12509000000E+03 0.  0.
<mgrwt>
<rscale>  2 0.45537137E+03</rscale>
<asrwt>0</asrwt>
<pdfrwt beam="1">  1       21 0.41639640E-01 0.45537137E+03</pdfrwt>
<pdfrwt beam="2">  1       21 0.26924439E-01 0.45537137E+03</pdfrwt>
<totfact> 0.67518068E+04</totfact>
</mgrwt>
</event>
<event>
 7    0  0.4714446E-002  0.4547862E+03  0.7546771E-02  0.1026304E+00
         21   -1    0    0  502  501  0.00000000000E+00  0.00000000000E+00  0.19426211233E+04  0.19426211233E+04  0.00000000000E+00 0. -1.
         21   -1    0    0  501  502 -0.00000000000E+00 -0.00000000000E+00 -0.26617455797E+02  0.26617455797E+02  0.00000000000E+00 0. -1.
      99926    2    1    2    0    0 -0.17763568394E-14  0.00000000000E+00  0.19160036676E+04  0.19692385791E+04  0.45478624377E+03 0.  0.
      99925    2    3    3    0    0  0.12651314977E+02 -0.67441411950E+02  0.81537116472E+03  0.85939723274E+03  0.26272622168E+03 0.  0.
         25    1    3    3    0    0 -0.12651314977E+02  0.67441411950E+02  0.11006325028E+04  0.11098413464E+04  0.12509000000E+03 0.  0.
         25    1    4    4    0    0 -0.32731850606E+02 -0.41693985402E+02  0.39411236924E+03  0.41687147918E+03  0.12509000000E+03 0.  0.
         25    1    4    4    0    0  0.45383165583E+02 -0.25747426548E+02  0.42125879548E+03  0.44252575356E+03  0.12509000000E+03 0.  0.
<mgrwt>
<rscale>  2 0.45478624E+03</rscale>
<asrwt>0</asrwt>
<pdfrwt beam="1">  1       21 0.28567948E+00 0.45478624E+03</pdfrwt>
<pdfrwt beam="2">  1       21 0.39143331E-02 0.45478624E+03</pdfrwt>
<totfact> 0.14242270E+04</totfact>
</mgrwt>
</event>
<event>
 7    0  0.4714446E-002  0.4536100E+03  0.7546771E-02  0.1026651E+00
         21   -1    0    0  502  501  0.00000000000E+00  0.00000000000E+00  0.52689830160E+03  0.52689830160E+03  0.00000000000E+00 0.  1.
         21   -1    0    0  501  502 -0.00000000000E+00 -0.00000000000E+00 -0.97628911806E+02  0.97628911806E+02  0.00000000000E+00 0.  1.
      99926    2    1    2    0    0  0.00000000000E+00  0.00000000000E+00  0.42926938979E+03  0.62452721340E+03  0.45360999908E+03 0.  0.
      99925    2    3    3    0    0 -0.39580796183E+02 -0.89177258879E+02  0.34583280804E+03  0.44528326175E+03  0.26297838154E+03 0.  0.
         25    1    4    4    0    0 -0.53745036100E+02 -0.55352472070E+02  0.14972151432E+03  0.20980101292E+03  0.12509000000E+03 0.  0.
         25    1    4    4    0    0  0.14164239917E+02 -0.33824786809E+02  0.19611129372E+03  0.23548224884E+03  0.12509000000E+03 0.  0.
         25    1    3    3    0    0  0.39580796183E+02  0.89177258879E+02  0.83436581751E+02  0.17924395165E+03  0.12509000000E+03 0.  0.
<mgrwt>
<rscale>  2 0.45361000E+03</rscale>
<asrwt>0</asrwt>
<pdfrwt beam="1">  1       21 0.77485043E-01 0.45361000E+03</pdfrwt>
<pdfrwt beam="2">  1       21 0.14357193E-01 0.45361000E+03</pdfrwt>
<totfact> 0.57825391E+04</totfact>
</mgrwt>
</event>
<event>
 7    0  0.4714446E-002  0.4626466E+03  0.7546771E-02  0.1024016E+00
         21   -1    0    0  502  501  0.00000000000E+00  0.00000000000E+00  0.36643563777E+02  0.36643563777E+02  0.00000000000E+00 0.  1.
         21   -1    0    0  501  502 -0.00000000000E+00 -0.00000000000E+00 -0.14602964141E+04  0.14602964141E+04  0.00000000000E+00 0.  1.
      99926    2    1    2    0    0  0.00000000000E+00  0.00000000000E+00 -0.14236528503E+04  0.14969399779E+04  0.46264658125E+03 0.  0.
      99925    2    3    3    0    0  0.11203060080E+03  0.31488238018E+02 -0.98974429198E+03  0.10306069319E+04  0.26270614757E+03 0.  0.
         25    1    3    3    0    0 -0.11203060080E+03 -0.31488238018E+02 -0.43390855837E+03  0.46633304598E+03  0.12509000000E+03 0.  0.
         25    1    4    4    0    0  0.40341652773E+02  0.54929847281E+00 -0.34434810249E+03  0.36857953615E+03  0.12509000000E+03 0.  0.
         25    1    4    4    0    0  0.71688948027E+02  0.30938939546E+02 -0.64539618948E+03  0.66202739577E+03  0.12509000000E+03 0.  0.
<mgrwt>
<rscale>  2 0.46264658E+03</rscale>
<asrwt>0</asrwt>
<pdfrwt beam="1">  1       21 0.53887591E-02 0.46264658E+03</pdfrwt>
<pdfrwt beam="2">  1       21 0.21474948E+00 0.46264658E+03</pdfrwt>
<totfact> 0.22488597E+04</totfact>
</mgrwt>
</event>
<event>
 7    0  0.4714446E-002  0.4570950E+03  0.7546771E-02  0.1025627E+00
         21   -1    0    0  502  501  0.00000000000E+00  0.00000000000E+00  0.67815277753E+02  0.67815277753E+02  0.00000000000E+00 0. -1.
         21   -1    0    0  501  502 -0.00000000000E+00 -0.00000000000E+00 -0.77023897370E+03  0.77023897370E+03  0.00000000000E+00 0. -1.
      99926    2    1    2    0    0  0.00000000000E+00  0.00000000000E+00 -0.70242369594E+03  0.83805425145E+03  0.45709504455E+03 0.  0.
      99925    2    3    3    0    0  0.61086395064E+02 -0.80752409573E+01 -0.26291388503E+03  0.37695432825E+03  0.26300969083E+03 0.  0.
         25    1    4    4    0    0  0.59230795531E+02 -0.28443050692E+02 -0.16181030764E+03  0.21481940795E+03  0.12509000000E+03 0.  0.
         25    1    3    3    0    0 -0.61086395064E+02  0.80752409573E+01 -0.43950981092E+03  0.46109992319E+03  0.12509000000E+03 0.  0.
         25    1    4    4    0    0  0.18555995335E+01  0.20367809734E+02 -0.10110357739E+03  0.16213492031E+03  0.12509000000E+03 0.  0.
<mgrwt>
<rscale>  2 0.45709504E+03</rscale>
<asrwt>0</asrwt>
<pdfrwt beam="1">  1       21 0.99728353E-02 0.45709504E+03</pdfrwt>
<pdfrwt beam="2">  1       21 0.11327043E+00 0.45709504E+03</pdfrwt>
<totfact> 0.45230534E+04</totfact>
</mgrwt>
</event>
<event>
 7    0  0.4714446E-002  0.4555811E+03  0.7546771E-02  0.1026071E+00
         21   -1    0    0  502  501  0.00000000000E+00  0.00000000000E+00  0.52549901280E+03  0.52549901280E+03  0.00000000000E+00 0. -1.
         21   -1    0    0  501  502 -0.00000000000E+00 -0.00000000000E+00 -0.98741457131E+02  0.98741457131E+02  0.00000000000E+00 0. -1.
      99926    2    1    2    0    0  0.35527136788E-14  0.00000000000E+00  0.42675755567E+03  0.62424046993E+03  0.45558111570E+03 0.  0.
      99925    2    3    3    0    0 -0.24185775989E+02  0.86925872359E+02  0.17375409500E+03  0.32793097252E+03  0.26307257205E+03 0.  0.
         25    1    4    4    0    0 -0.50148198196E+02  0.41366106402E+02  0.71499996433E+02  0.15806882720E+03  0.12509000000E+03 0.  0.
         25    1    3    3    0    0  0.24185775989E+02 -0.86925872359E+02  0.25300346067E+03  0.29630949741E+03  0.12509000000E+03 0.  0.
         25    1    4    4    0    0  0.25962422207E+02  0.45559765958E+02  0.10225409857E+03  0.16986214533E+03  0.12509000000E+03 0.  0.
<mgrwt>
<rscale>  2 0.45558112E+03</rscale>
<asrwt>0</asrwt>
<pdfrwt beam="1">  1       21 0.77279266E-01 0.45558112E+03</pdfrwt>
<pdfrwt beam="2">  1       21 0.14520803E-01 0.45558112E+03</pdfrwt>
<totfact> 0.56948728E+04</totfact>
</mgrwt>
</event>
<event>
 7    0  0.4714446E-002  0.4630504E+03  0.7546771E-02  0.1023900E+00
         21   -1    0    0  502  501  0.00000000000E+00  0.00000000000E+00  0.13734474338E+03  0.13734474338E+03  0.00000000000E+00 0.  1.
         21   -1    0    0  501  502 -0.00000000000E+00 -0.00000000000E+00 -0.39028728988E+03  0.39028728988E+03  0.00000000000E+00 0.  1.
      99926    2    1    2    0    0  0.00000000000E+00  0.00000000000E+00 -0.25294254649E+03  0.52763203326E+03  0.46305035439E+03 0.  0.
      99925    2    3    3    0    0 -0.77684789239E+02  0.84182241207E+02 -0.20069086827E+03  0.35015154929E+03  0.26307357649E+03 0.  0.
         25    1    4    4    0    0 -0.74801096945E+02  0.23166788987E+02 -0.97711129294E+02  0.17699400302E+03  0.12509000000E+03 0.  0.
         25    1    4    4    0    0 -0.28836922941E+01  0.61015452221E+02 -0.10297973898E+03  0.17315754627E+03  0.12509000000E+03 0.  0.
         25    1    3    3    0    0  0.77684789239E+02 -0.84182241207E+02 -0.52251678221E+02  0.17748048397E+03  0.12509000000E+03 0.  0.
<mgrwt>
<rscale>  2 0.46305035E+03</rscale>
<asrwt>0</asrwt>
<pdfrwt beam="1">  1       21 0.20197757E-01 0.46305035E+03</pdfrwt>
<pdfrwt beam="2">  1       21 0.57395189E-01 0.46305035E+03</pdfrwt>
<totfact> 0.59479420E+04</totfact>
</mgrwt>
</event>
<event>
 7    0  0.4714446E-002  0.3928734E+03  0.7546771E-02  0.1046276E+00
         21   -1    0    0  502  501  0.00000000000E+00  0.00000000000E+00  0.88527978255E+03  0.88527978255E+03  0.00000000000E+00 0.  1.
         21   -1    0    0  501  502 -0.00000000000E+00 -0.00000000000E+00 -0.43587777274E+02  0.43587777274E+02  0.00000000000E+00 0.  1.
      99926    2    1    2    0    0 -0.33306690739E-15  0.00000000000E+00  0.84169200528E+03  0.92886755983E+03  0.39287340448E+03 0.  0.
      99925    2    3    3    0    0 -0.86602867113E+00 -0.14451216157E+02  0.62556104103E+03  0.67872821974E+03  0.26293686040E+03 0.  0.
         25    1    4    4    0    0  0.38466699969E+02 -0.11194593534E+01  0.33560794048E+03  0.36022373327E+03  0.12509000000E+03 0.  0.
         25    1    3    3    0    0  0.86602867113E+00  0.14451216157E+02  0.21613096425E+03  0.25013934009E+03  0.12509000000E+03 0.  0.
         25    1    4    4    0    0 -0.39332728640E+02 -0.13331756804E+02  0.28995310056E+03  0.31850448647E+03  0.12509000000E+03 0.  0.
<mgrwt>
<rscale>  2 0.39287340E+03</rscale>
<asrwt>0</asrwt>
<pdfrwt beam="1">  1       21 0.13018819E+00 0.39287340E+03</pdfrwt>
<pdfrwt beam="2">  1       21 0.64099678E-02 0.39287340E+03</pdfrwt>
<totfact> 0.70550594E+04</totfact>
</mgrwt>
</event>
<event>
 7    0  0.4714446E-002  0.4472011E+03  0.7546771E-02  0.1028560E+00
         21   -1    0    0  502  501  0.00000000000E+00  0.00000000000E+00  0.10023435402E+04  0.10023435402E+04  0.00000000000E+00 0.  1.
         21   -1    0    0  501  502 -0.00000000000E+00 -0.00000000000E+00 -0.49880298304E+02  0.49880298304E+02  0.00000000000E+00 0.  1.
      99926    2    1    2    0    0  0.00000000000E+00  0.00000000000E+00  0.95246324190E+03  0.10522238385E+04  0.44720105003E+03 0.  0.
      99925    2    3    3    0    0  0.27989332687E+02  0.45201479888E+02  0.81920172550E+03  0.86187490528E+03  0.26250773085E+03 0.  0.
         25    1    4    4    0    0 -0.25619979079E+02  0.27246490185E+02  0.39723444245E+03  0.41814048468E+03  0.12509000000E+03 0.  0.
         25    1    3    3    0    0 -0.27989332687E+02 -0.45201479888E+02  0.13326151640E+03  0.19034893323E+03  0.12509000000E+03 0.  0.
         25    1    4    4    0    0  0.53609311767E+02  0.17954989704E+02  0.42196728305E+03  0.44373442060E+03  0.12509000000E+03 0.  0.
<mgrwt>
<rscale>  2 0.44720105E+03</rscale>
<asrwt>0</asrwt>
<pdfrwt beam="1">  1       21 0.14740345E+00 0.44720105E+03</pdfrwt>
<pdfrwt beam="2">  1       21 0.73353386E-02 0.44720105E+03</pdfrwt>
<totfact> 0.39548985E+04</totfact>
</mgrwt>
</event>
<event>
 7    0  0.4714446E-002  0.4565721E+03  0.7546771E-02  0.1025780E+00
         21   -1    0    0  502  501  0.00000000000E+00  0.00000000000E+00  0.40436945010E+02  0.40436945010E+02  0.00000000000E+00 0. -1.
         21   -1    0    0  501  502 -0.00000000000E+00 -0.00000000000E+00 -0.12887846393E+04  0.12887846393E+04  0.00000000000E+00 0. -1.
      99926    2    1    2    0    0  0.00000000000E+00  0.71054273576E-14 -0.12483476942E+04  0.13292215843E+04  0.45657206917E+03 0.  0.
      99925    2    3    3    0    0  0.54182206196E+02 -0.59323801161E+02 -0.54550844330E+03  0.61083064221E+03  0.26282995815E+03 0.  0.
         25    1    4    4    0    0  0.58204992926E+01 -0.56516596848E+02 -0.32315391679E+03  0.35114664453E+03  0.12509000000E+03 0.  0.
         25    1    3    3    0    0 -0.54182206196E+02  0.59323801161E+02 -0.70283925095E+03  0.71839094205E+03  0.12509000000E+03 0.  0.
         25    1    4    4    0    0  0.48361706903E+02 -0.28072043131E+01 -0.22235452651E+03  0.25968399767E+03  0.12509000000E+03 0.  0.
<mgrwt>
<rscale>  2 0.45657207E+03</rscale>
<asrwt>0</asrwt>
<pdfrwt beam="1">  1       21 0.59466102E-02 0.45657207E+03</pdfrwt>
<pdfrwt beam="2">  1       21 0.18952713E+00 0.45657207E+03</pdfrwt>
<totfact> 0.27934726E+04</totfact>
</mgrwt>
</event>
<event>
 7    0  0.4714446E-002  0.4473162E+03  0.7546771E-02  0.1028525E+00
         21   -1    0    0  502  501  0.00000000000E+00  0.00000000000E+00  0.17033611803E+03  0.17033611803E+03  0.00000000000E+00 0.  1.
         21   -1    0    0  501  502 -0.00000000000E+00 -0.00000000000E+00 -0.29367203650E+03  0.29367203650E+03  0.00000000000E+00 0.  1.
      99926    2    1    2    0    0  0.00000000000E+00  0.35527136788E-14 -0.12333591847E+03  0.46400815453E+03  0.44731624013E+03 0.  0.
      99925    2    3    3    0    0  0.22505606836E+02 -0.10124226340E+02 -0.18484476237E+03  0.32244598346E+03  0.26304909005E+03 0.  0.
         25    1    4    4    0    0  0.11129748841E+02 -0.32776030886E+02 -0.56867017155E+02  0.14170217094E+03  0.12509000000E+03 0.  0.
         25    1    3    3    0    0 -0.22505606836E+02  0.10124226340E+02  0.61508843902E+02  0.14156217106E+03  0.12509000000E+03 0.  0.
         25    1    4    4    0    0  0.11375857995E+02  0.22651804546E+02 -0.12797774521E+03  0.18074381252E+03  0.12509000000E+03 0.  0.
<mgrwt>
<rscale>  2 0.44731624E+03</rscale>
<asrwt>0</asrwt>
<pdfrwt beam="1">  1       21 0.25049430E-01 0.44731624E+03</pdfrwt>
<pdfrwt beam="2">  1       21 0.43187063E-01 0.44731624E+03</pdfrwt>
<totfact> 0.72184664E+04</totfact>
</mgrwt>
</event>
<event>
 7    0  0.4714446E-002  0.4542381E+03  0.7546771E-02  0.1026466E+00
         21   -1    0    0  502  501  0.00000000000E+00  0.00000000000E+00  0.58321042892E+02  0.58321042892E+02  0.00000000000E+00 0. -1.
         21   -1    0    0  501  502 -0.00000000000E+00 -0.00000000000E+00 -0.88446730042E+03  0.88446730042E+03  0.00000000000E+00 0. -1.
      99926    2    1    2    0    0  0.00000000000E+00  0.00000000000E+00 -0.82614625753E+03  0.94278834331E+03  0.45423806694E+03 0.  0.
      99925    2    3    3    0    0  0.32117749291E+02 -0.10765460548E+03 -0.52181491693E+03  0.59510150595E+03  0.26312341394E+03 0.  0.
         25    1    3    3    0    0 -0.32117749291E+02  0.10765460548E+03 -0.30433134060E+03  0.34768683736E+03  0.12509000000E+03 0.  0.
         25    1    4    4    0    0 -0.14996465299E+01 -0.15369285677E+02 -0.20595942562E+03  0.24146481521E+03  0.12509000000E+03 0.  0.
         25    1    4    4    0    0  0.33617395821E+02 -0.92285319801E+02 -0.31585549131E+03  0.35363669075E+03  0.12509000000E+03 0.  0.
<mgrwt>
<rscale>  2 0.45423807E+03</rscale>
<asrwt>0</asrwt>
<pdfrwt beam="1">  1       21 0.85766244E-02 0.45423807E+03</pdfrwt>
<pdfrwt beam="2">  1       21 0.13006871E+00 0.45423807E+03</pdfrwt>
<totfact> 0.41682022E+04</totfact>
</mgrwt>
</event>
<event>
 7    0  0.4714446E-002  0.4520050E+03  0.7546771E-02  0.1027126E+00
         21   -1    0    0  502  501  0.00000000000E+00  0.00000000000E+00  0.12404527371E+03  0.12404527371E+03  0.00000000000E+00 0.  1.
         21   -1    0    0  501  502 -0.00000000000E+00 -0.00000000000E+00 -0.41176199476E+03  0.41176199476E+03  0.00000000000E+00 0.  1.
      99926    2    1    2    0    0 -0.14210854715E-13  0.00000000000E+00 -0.28771672105E+03  0.53580726847E+03  0.45200499707E+03 0.  0.
      99925    2    3    3    0    0 -0.85885860864E+02 -0.21276563206E+02 -0.25968090128E+03  0.38004273937E+03  0.26300045630E+03 0.  0.
         25    1    4    4    0    0 -0.43997043746E+02  0.28193870900E+02 -0.11099375254E+03  0.17520774931E+03  0.12509000000E+03 0.  0.
         25    1    3    3    0    0  0.85885860864E+02  0.21276563206E+02 -0.28035819768E+02  0.15576452911E+03  0.12509000000E+03 0.  0.
         25    1    4    4    0    0 -0.41888817117E+02 -0.49470434106E+02 -0.14868714874E+03  0.20483499006E+03  0.12509000000E+03 0.  0.
<mgrwt>
<rscale>  2 0.45200500E+03</rscale>
<asrwt>0</asrwt>
<pdfrwt beam="1">  1       21 0.18241952E-01 0.45200500E+03</pdfrwt>
<pdfrwt beam="2">  1       21 0.60553235E-01 0.45200500E+03</pdfrwt>
<totfact> 0.64325539E+04</totfact>
</mgrwt>
</event>
<event>
 7    0  0.4714446E-002  0.4591196E+03  0.7546771E-02  0.1025037E+00
         21   -1    0    0  502  501  0.00000000000E+00  0.00000000000E+00  0.72297666847E+02  0.72297666847E+02  0.00000000000E+00 0. -1.
         21   -1    0    0  501  502 -0.00000000000E+00 -0.00000000000E+00 -0.72889897847E+03  0.72889897847E+03  0.00000000000E+00 0. -1.
      99926    2    1    2    0    0  0.00000000000E+00  0.17763568394E-14 -0.65660131162E+03  0.80119664532E+03  0.45911957271E+03 0.  0.
      99925    2    3    3    0    0 -0.45695179265E+02 -0.14410038995E+02 -0.59720678688E+03  0.65466707048E+03  0.26388885586E+03 0.  0.
         25    1    4    4    0    0  0.14941278820E+02 -0.18766317473E+02 -0.32298963712E+03  0.34719624173E+03  0.12509000000E+03 0.  0.
         25    1    3    3    0    0  0.45695179265E+02  0.14410038995E+02 -0.59394524744E+02  0.14652957484E+03  0.12509000000E+03 0.  0.
         25    1    4    4    0    0 -0.60636458086E+02  0.43562784778E+01 -0.27421714976E+03  0.30747082875E+03  0.12509000000E+03 0.  0.
<mgrwt>
<rscale>  2 0.45911957E+03</rscale>
<asrwt>0</asrwt>
<pdfrwt beam="1">  1       21 0.10632010E-01 0.45911957E+03</pdfrwt>
<pdfrwt beam="2">  1       21 0.10719102E+00 0.45911957E+03</pdfrwt>
<totfact> 0.46195319E+04</totfact>
</mgrwt>
</event>
<event>
 7    0  0.4714446E-002  0.4487671E+03  0.7546771E-02  0.1028090E+00
         21   -1    0    0  502  501  0.00000000000E+00  0.00000000000E+00  0.37637432151E+03  0.37637432151E+03  0.00000000000E+00 0. -1.
         21   -1    0    0  501  502 -0.00000000000E+00 -0.00000000000E+00 -0.13377103536E+03  0.13377103536E+03  0.00000000000E+00 0. -1.
      99926    2    1    2    0    0 -0.14210854715E-13 -0.71054273576E-14  0.24260328615E+03  0.51014535687E+03  0.44876712300E+03 0.  0.
      99925    2    3    3    0    0 -0.87206127420E+02 -0.60018398384E+02  0.13479822177E+03  0.31399093604E+03  0.26308293468E+03 0.  0.
         25    1    4    4    0    0 -0.99865755784E+01 -0.41978329096E+02  0.86999810366E+02  0.15836157018E+03  0.12509000000E+03 0.  0.
         25    1    4    4    0    0 -0.77219551842E+02 -0.18040069287E+02  0.47798411405E+02  0.15562936586E+03  0.12509000000E+03 0.  0.
         25    1    3    3    0    0  0.87206127420E+02  0.60018398384E+02  0.10780506437E+03  0.19615442082E+03  0.12509000000E+03 0.  0.
<mgrwt>
<rscale>  2 0.44876712E+03</rscale>
<asrwt>0</asrwt>
<pdfrwt beam="1">  1       21 0.55349165E-01 0.44876712E+03</pdfrwt>
<pdfrwt beam="2">  1       21 0.19672211E-01 0.44876712E+03</pdfrwt>
<totfact> 0.67858329E+04</totfact>
</mgrwt>
</event>
<event>
 7    0  0.4714446E-002  0.4586274E+03  0.7546771E-02  0.1025180E+00
         21   -1    0    0  502  501  0.00000000000E+00  0.00000000000E+00  0.15819593353E+03  0.15819593353E+03  0.00000000000E+00 0.  1.
         21   -1    0    0  501  502 -0.00000000000E+00 -0.00000000000E+00 -0.33240285541E+03  0.33240285541E+03  0.00000000000E+00 0.  1.
      99926    2    1    2    0    0  0.00000000000E+00  0.00000000000E+00 -0.17420692188E+03  0.49059878894E+03  0.45862743058E+03 0.  0.
      99925    2    3    3    0    0  0.48411710350E+02  0.10475181328E+03 -0.92169836316E+02  0.30166962869E+03  0.26304495826E+03 0.  0.
         25    1    4    4    0    0  0.17768242035E+02  0.83355830416E+02 -0.20528564181E+02  0.15275089177E+03  0.12509000000E+03 0.  0.
         25    1    3    3    0    0 -0.48411710350E+02 -0.10475181328E+03 -0.82037085567E+02  0.18892916025E+03  0.12509000000E+03 0.  0.
         25    1    4    4    0    0  0.30643468315E+02  0.21395982865E+02 -0.71641272135E+02  0.14891873692E+03  0.12509000000E+03 0.  0.
<mgrwt>
<rscale>  2 0.45862743E+03</rscale>
<asrwt>0</asrwt>
<pdfrwt beam="1">  1       21 0.23264108E-01 0.45862743E+03</pdfrwt>
<pdfrwt beam="2">  1       21 0.48882772E-01 0.45862743E+03</pdfrwt>
<totfact> 0.64071282E+04</totfact>
</mgrwt>
</event>
<event>
 7    0  0.4714446E-002  0.4543381E+03  0.7546771E-02  0.1026436E+00
         21   -1    0    0  502  501  0.00000000000E+00  0.00000000000E+00  0.68884321380E+03  0.68884321380E+03  0.00000000000E+00 0. -1.
         21   -1    0    0  501  502 -0.00000000000E+00 -0.00000000000E+00 -0.74916570407E+02  0.74916570407E+02  0.00000000000E+00 0. -1.
      99926    2    1    2    0    0  0.71054273576E-14 -0.71054273576E-14  0.61392664339E+03  0.76375978420E+03  0.45433807292E+03 0.  0.
      99925    2    3    3    0    0  0.60413061975E+02 -0.54486595489E+02  0.25593754950E+03  0.37591674044E+03  0.26304151642E+03 0.  0.
         25    1    4    4    0    0  0.42769071825E+02 -0.53124307003E+02  0.17589959548E+03  0.22636157202E+03  0.12509000000E+03 0.  0.
         25    1    3    3    0    0 -0.60413061975E+02  0.54486595489E+02  0.35798909389E+03  0.38784304376E+03  0.12509000000E+03 0.  0.
         25    1    4    4    0    0  0.17643990151E+02 -0.13622884854E+01  0.80037954020E+02  0.14955516842E+03  0.12509000000E+03 0.  0.
<mgrwt>
<rscale>  2 0.45433807E+03</rscale>
<asrwt>0</asrwt>
<pdfrwt beam="1">  1       21 0.10130047E+00 0.45433807E+03</pdfrwt>
<pdfrwt beam="2">  1       21 0.11017143E-01 0.45433807E+03</pdfrwt>
<totfact> 0.49825831E+04</totfact>
</mgrwt>
</event>
<event>
 7    0  0.4714446E-002  0.4501934E+03  0.7546771E-02  0.1027664E+00
         21   -1    0    0  502  501  0.00000000000E+00  0.00000000000E+00  0.20589649091E+03  0.20589649091E+03  0.00000000000E+00 0. -1.
         21   -1    0    0  501  502 -0.00000000000E+00 -0.00000000000E+00 -0.24608740332E+03  0.24608740332E+03  0.00000000000E+00 0. -1.
      99926    2    1    2    0    0  0.88817841970E-15  0.17763568394E-14 -0.40190912411E+02  0.45198389422E+03  0.45019343753E+03 0.  0.
      99925    2    3    3    0    0  0.67808184156E+01  0.14121437597E+02 -0.13339207244E+03  0.29520583827E+03  0.26288333431E+03 0.  0.
         25    1    4    4    0    0 -0.95015558215E+00  0.18504132922E+02 -0.11007264667E+03  0.16765083172E+03  0.12509000000E+03 0.  0.
         25    1    4    4    0    0  0.77309739977E+01 -0.43826953249E+01 -0.23319425770E+02  0.12755500655E+03  0.12509000000E+03 0.  0.
         25    1    3    3    0    0 -0.67808184156E+01 -0.14121437597E+02  0.93201160030E+02  0.15677805596E+03  0.12509000000E+03 0.  0.
<mgrwt>
<rscale>  2 0.45019344E+03</rscale>
<asrwt>0</asrwt>
<pdfrwt beam="1">  1       21 0.30278896E-01 0.45019344E+03</pdfrwt>
<pdfrwt beam="2">  1       21 0.36189324E-01 0.45019344E+03</pdfrwt>
<totfact> 0.71469088E+04</totfact>
</mgrwt>
</event>
<event>
 6    0  0.4714446E-002  0.4591335E+03  0.7546771E-02  0.1025033E+00
         21   -1    0    0  502  501  0.00000000000E+00  0.00000000000E+00  0.15875234868E+03  0.15875234868E+03  0.00000000000E+00 0. -1.
         21   -1    0    0  501  502 -0.00000000000E+00 -0.00000000000E+00 -0.33196917915E+03  0.33196917915E+03  0.00000000000E+00 0. -1.
      99926    2    1    2    0    0  0.00000000000E+00  0.00000000000E+00 -0.17321683047E+03  0.49072152783E+03  0.45913347462E+03 0.  0.
         25    1    3    3    0    0 -0.14015508385E+02 -0.82497900226E+02  0.27800462306E+02  0.15304480331E+03  0.12509000000E+03 0.  0.
         25    1    3    3    0    0  0.28016165356E+02  0.63095419338E+02 -0.91123665933E+02  0.16946081569E+03  0.12509000000E+03 0.  0.
         25    1    3    3    0    0 -0.14000656971E+02  0.19402480888E+02 -0.10989362685E+03  0.16821590882E+03  0.12509000000E+03 0.  0.
<mgrwt>
<rscale>  2 0.45913347E+03</rscale>
<asrwt>0</asrwt>
<pdfrwt beam="1">  1       21 0.23345934E-01 0.45913347E+03</pdfrwt>
<pdfrwt beam="2">  1       21 0.48818996E-01 0.45913347E+03</pdfrwt>
<totfact> 0.63807903E+04</totfact>
</mgrwt>
</event>
<event>
 7    0  0.4714446E-002  0.4405919E+03  0.7546771E-02  0.1030565E+00
         21   -1    0    0  502  501  0.00000000000E+00  0.00000000000E+00  0.30632053741E+03  0.30632053741E+03  0.00000000000E+00 0.  1.
         21   -1    0    0  501  502 -0.00000000000E+00 -0.00000000000E+00 -0.15842982987E+03  0.15842982987E+03  0.00000000000E+00 0.  1.
      99926    2    1    2    0    0  0.17763568394E-14  0.00000000000E+00  0.14789070754E+03  0.46475036729E+03  0.44059192289E+03 0.  0.
      99925    2    3    3    0    0  0.12385726794E+02  0.81277344156E+02  0.36330728732E+02  0.27806199091E+03  0.26313330469E+03 0.  0.
         25    1    4    4    0    0 -0.28219241676E+02  0.30954720793E+02 -0.26800180198E+01  0.13194396893E+03  0.12509000000E+03 0.  0.
         25    1    4    4    0    0  0.40604968469E+02  0.50322623363E+02  0.39010746752E+02  0.14611802198E+03  0.12509000000E+03 0.  0.
         25    1    3    3    0    0 -0.12385726794E+02 -0.81277344156E+02  0.11155997881E+03  0.18668837637E+03  0.12509000000E+03 0.  0.
<mgrwt>
<rscale>  2 0.44059192E+03</rscale>
<asrwt>0</asrwt>
<pdfrwt beam="1">  1       21 0.45047138E-01 0.44059192E+03</pdfrwt>
<pdfrwt beam="2">  1       21 0.23298504E-01 0.44059192E+03</pdfrwt>
<totfact> 0.76171087E+04</totfact>
</mgrwt>
</event>
<event>
 7    0  0.4714446E-002  0.4509586E+03  0.7546771E-02  0.1027437E+00
         21   -1    0    0  502  501  0.00000000000E+00  0.00000000000E+00  0.68598867629E+03  0.68598867629E+03  0.00000000000E+00 0. -1.
         21   -1    0    0  501  502 -0.00000000000E+00 -0.00000000000E+00 -0.74113354310E+02  0.74113354310E+02  0.00000000000E+00 0. -1.
      99926    2    1    2    0    0 -0.71054273576E-14  0.00000000000E+00  0.61187532198E+03  0.76010203060E+03  0.45095863144E+03 0.  0.
      99925    2    3    3    0    0  0.37455737935E+02  0.20737882939E+02  0.21719018529E+03  0.34386068557E+03  0.26312659006E+03 0.  0.
         25    1    3    3    0    0 -0.37455737935E+02 -0.20737882939E+02  0.39468513668E+03  0.41624134503E+03  0.12509000000E+03 0.  0.
         25    1    4    4    0    0 -0.11983270376E+02  0.17313952723E+01  0.13788164954E+03  0.18656219842E+03  0.12509000000E+03 0.  0.
         25    1    4    4    0    0  0.49439008311E+02  0.19006487667E+02  0.79308535755E+02  0.15729848715E+03  0.12509000000E+03 0.  0.
<mgrwt>
<rscale>  2 0.45095863E+03</rscale>
<asrwt>0</asrwt>
<pdfrwt beam="1">  1       21 0.10088068E+00 0.45095863E+03</pdfrwt>
<pdfrwt beam="2">  1       21 0.10899023E-01 0.45095863E+03</pdfrwt>
<totfact> 0.51365263E+04</totfact>
</mgrwt>
</event>
<event>
 7    0  0.4714446E-002  0.4493141E+03  0.7546771E-02  0.1027927E+00
         21   -1    0    0  502  501  0.00000000000E+00  0.00000000000E+00  0.41998368521E+02  0.41998368521E+02  0.00000000000E+00 0. -1.
         21   -1    0    0  501  502 -0.00000000000E+00 -0.00000000000E+00 -0.12017321324E+04  0.12017321324E+04  0.00000000000E+00 0. -1.
      99926    2    1    2    0    0  0.00000000000E+00  0.00000000000E+00 -0.11597337639E+04  0.12437305010E+04  0.44931409486E+03 0.  0.
      99925    2    3    3    0    0  0.68860712434E+02 -0.39772113360E+02 -0.93478704179E+03  0.97433830617E+03  0.26302985125E+03 0.  0.
         25    1    4    4    0    0  0.47162021207E+02 -0.48799425550E+02 -0.39833726853E+03  0.42299613211E+03  0.12509000000E+03 0.  0.
         25    1    3    3    0    0 -0.68860712434E+02  0.39772113360E+02 -0.22494672212E+03  0.26939219479E+03  0.12509000000E+03 0.  0.
         25    1    4    4    0    0  0.21698691227E+02  0.90273121902E+01 -0.53644977325E+03  0.55134217405E+03  0.12509000000E+03 0.  0.
<mgrwt>
<rscale>  2 0.44931409E+03</rscale>
<asrwt>0</asrwt>
<pdfrwt beam="1">  1       21 0.61762306E-02 0.44931409E+03</pdfrwt>
<pdfrwt beam="2">  1       21 0.17672531E+00 0.44931409E+03</pdfrwt>
<totfact> 0.32195303E+04</totfact>
</mgrwt>
</event>
<event>
 7    0  0.4714446E-002  0.4553511E+03  0.7546771E-02  0.1026138E+00
         21   -1    0    0  502  501  0.00000000000E+00  0.00000000000E+00  0.29109050638E+03  0.29109050638E+03  0.00000000000E+00 0.  1.
         21   -1    0    0  501  502 -0.00000000000E+00 -0.00000000000E+00 -0.17807571523E+03  0.17807571523E+03  0.00000000000E+00 0.  1.
      99926    2    1    2    0    0 -0.14210854715E-13  0.14210854715E-13  0.11301479115E+03  0.46916622161E+03  0.45535107388E+03 0.  0.
      99925    2    3    3    0    0  0.86690218420E+02 -0.69826100245E+02  0.94149656480E+02  0.30066019902E+03  0.26294774997E+03 0.  0.
         25    1    4    4    0    0  0.36809511039E+02 -0.23537267832E+02  0.48795695041E+01  0.13259057802E+03  0.12509000000E+03 0.  0.
         25    1    4    4    0    0  0.49880707381E+02 -0.46288832412E+02  0.89270086976E+02  0.16806962100E+03  0.12509000000E+03 0.  0.
         25    1    3    3    0    0 -0.86690218420E+02  0.69826100245E+02  0.18865134666E+02  0.16850602260E+03  0.12509000000E+03 0.  0.
<mgrwt>
<rscale>  2 0.45535107E+03</rscale>
<asrwt>0</asrwt>
<pdfrwt beam="1">  1       21 0.42807428E-01 0.45535107E+03</pdfrwt>
<pdfrwt beam="2">  1       21 0.26187605E-01 0.45535107E+03</pdfrwt>
<totfact> 0.67310173E+04</totfact>
</mgrwt>
</event>
<event>
 7    0  0.4714446E-002  0.4537076E+03  0.7546771E-02  0.1026622E+00
         21   -1    0    0  502  501  0.00000000000E+00  0.00000000000E+00  0.25925588434E+03  0.25925588434E+03  0.00000000000E+00 0. -1.
         21   -1    0    0  501  502 -0.00000000000E+00 -0.00000000000E+00 -0.19850135255E+03  0.19850135255E+03  0.00000000000E+00 0. -1.
      99926    2    1    2    0    0 -0.14210854715E-13 -0.14210854715E-13  0.60754531792E+02  0.45775723689E+03  0.45370758732E+03 0.  0.
      99925    2    3    3    0    0 -0.89764352834E+02 -0.65899698714E+02  0.26577206535E+02  0.28683033148E+03  0.26299217065E+03 0.  0.
         25    1    4    4    0    0 -0.69208105551E+02 -0.35801336198E+02 -0.19441185461E+02  0.14865048046E+03  0.12509000000E+03 0.  0.
         25    1    3    3    0    0  0.89764352834E+02  0.65899698714E+02  0.34177325257E+02  0.17092690541E+03  0.12509000000E+03 0.  0.
         25    1    4    4    0    0 -0.20556247283E+02 -0.30098362516E+02  0.46018391996E+02  0.13817985103E+03  0.12509000000E+03 0.  0.
<mgrwt>
<rscale>  2 0.45370759E+03</rscale>
<asrwt>0</asrwt>
<pdfrwt beam="1">  1       21 0.38125865E-01 0.45370759E+03</pdfrwt>
<pdfrwt beam="2">  1       21 0.29191375E-01 0.45370759E+03</pdfrwt>
<totfact> 0.69053296E+04</totfact>
</mgrwt>
</event>
<event>
 7    0  0.4714446E-002  0.4468390E+03  0.7546771E-02  0.1028669E+00
         21   -1    0    0  502  501  0.00000000000E+00  0.00000000000E+00  0.19436865904E+03  0.19436865904E+03  0.00000000000E+00 0. -1.
         21   -1    0    0  501  502 -0.00000000000E+00 -0.00000000000E+00 -0.25681231560E+03  0.25681231560E+03  0.00000000000E+00 0. -1.
      99926    2    1    2    0    0 -0.14210854715E-13  0.00000000000E+00 -0.62443656555E+02  0.45118097464E+03  0.44683896610E+03 0.  0.
      99925    2    3    3    0    0  0.78727341803E+02  0.20314575367E+02  0.27922198384E+02  0.27675571225E+03  0.26306538879E+03 0.  0.
         25    1    3    3    0    0 -0.78727341803E+02 -0.20314575367E+02 -0.90365854939E+02  0.17442526239E+03  0.12509000000E+03 0.  0.
         25    1    4    4    0    0  0.68081245702E+01 -0.24308571671E+01 -0.10430135116E+02  0.12573207803E+03  0.12509000000E+03 0.  0.
         25    1    4    4    0    0  0.71919217233E+02  0.22745432534E+02  0.38352333500E+02  0.15102363422E+03  0.12509000000E+03 0.  0.
<mgrwt>
<rscale>  2 0.44683897E+03</rscale>
<asrwt>0</asrwt>
<pdfrwt beam="1">  1       21 0.28583627E-01 0.44683897E+03</pdfrwt>
<pdfrwt beam="2">  1       21 0.37766517E-01 0.44683897E+03</pdfrwt>
<totfact> 0.73496190E+04</totfact>
</mgrwt>
</event>
<event>
 7    0  0.4714446E-002  0.4663556E+03  0.7546771E-02  0.1022954E+00
         21   -1    0    0  502  501  0.00000000000E+00  0.00000000000E+00  0.62148597253E+02  0.62148597253E+02  0.00000000000E+00 0. -1.
         21   -1    0    0  501  502 -0.00000000000E+00 -0.00000000000E+00 -0.87486909490E+03  0.87486909490E+03  0.00000000000E+00 0. -1.
      99926    2    1    2    0    0  0.00000000000E+00  0.00000000000E+00 -0.81272049764E+03  0.93701769215E+03  0.46635560264E+03 0.  0.
      99925    2    3    3    0    0 -0.34792164353E+02  0.10262002946E+03 -0.62573749431E+03  0.68731483517E+03  0.26289333524E+03 0.  0.
         25    1    3    3    0    0  0.34792164353E+02 -0.10262002946E+03 -0.18698300333E+03  0.24970285698E+03  0.12509000000E+03 0.  0.
         25    1    4    4    0    0 -0.40206417540E+02  0.87466529027E+02 -0.32996158603E+03  0.36577193176E+03  0.12509000000E+03 0.  0.
         25    1    4    4    0    0  0.54142531864E+01  0.15153500434E+02 -0.29577590828E+03  0.32154290341E+03  0.12509000000E+03 0.  0.
<mgrwt>
<rscale>  2 0.46635560E+03</rscale>
<asrwt>0</asrwt>
<pdfrwt beam="1">  1       21 0.91395001E-02 0.46635560E+03</pdfrwt>
<pdfrwt beam="2">  1       21 0.12865721E+00 0.46635560E+03</pdfrwt>
<totfact> 0.38165735E+04</totfact>
</mgrwt>
</event>
<event>
 7    0  0.4714446E-002  0.4547524E+03  0.7546771E-02  0.1026314E+00
         21   -1    0    0  502  501  0.00000000000E+00  0.00000000000E+00  0.10184132745E+04  0.10184132745E+04  0.00000000000E+00 0. -1.
         21   -1    0    0  501  502 -0.00000000000E+00 -0.00000000000E+00 -0.50765184133E+02  0.50765184133E+02  0.00000000000E+00 0. -1.
      99926    2    1    2    0    0  0.00000000000E+00  0.00000000000E+00  0.96764809035E+03  0.10691784586E+04  0.45475240473E+03 0.  0.
      99925    2    3    3    0    0  0.79944365693E+02 -0.75876342588E+02  0.66709673820E+03  0.72548245289E+03  0.26297986685E+03 0.  0.
         25    1    4    4    0    0  0.78495294341E+02 -0.35900488074E+02  0.39850555786E+03  0.42650268935E+03  0.12509000000E+03 0.  0.
         25    1    3    3    0    0 -0.79944365693E+02  0.75876342588E+02  0.30055135215E+03  0.34369600572E+03  0.12509000000E+03 0.  0.
         25    1    4    4    0    0  0.14490713529E+01 -0.39975854514E+02  0.26859118034E+03  0.29897976355E+03  0.12509000000E+03 0.  0.
<mgrwt>
<rscale>  2 0.45475240E+03</rscale>
<asrwt>0</asrwt>
<pdfrwt beam="1">  1       21 0.14976664E+00 0.45475240E+03</pdfrwt>
<pdfrwt beam="2">  1       21 0.74654689E-02 0.45475240E+03</pdfrwt>
<totfact> 0.36652224E+04</totfact>
</mgrwt>
</event>
<event>
 7    0  0.4714446E-002  0.4562126E+03  0.7546771E-02  0.1025885E+00
         21   -1    0    0  502  501  0.00000000000E+00  0.00000000000E+00  0.14906689741E+03  0.14906689741E+03  0.00000000000E+00 0. -1.
         21   -1    0    0  501  502 -0.00000000000E+00 -0.00000000000E+00 -0.34905465533E+03  0.34905465533E+03  0.00000000000E+00 0. -1.
      99926    2    1    2    0    0  0.00000000000E+00  0.00000000000E+00 -0.19998775792E+03  0.49812155274E+03  0.45621264558E+03 0.  0.
      99925    2    3    3    0    0  0.81634875236E+02 -0.33130735858E+02 -0.43389187424E+02  0.27918658775E+03  0.26134389352E+03 0.  0.
         25    1    3    3    0    0 -0.81634875236E+02  0.33130735858E+02 -0.15659857050E+03  0.21893496499E+03  0.12509000000E+03 0.  0.
         25    1    4    4    0    0  0.19177911184E+02 -0.38398772234E+02  0.14679567817E+01  0.13225702622E+03  0.12509000000E+03 0.  0.
         25    1    4    4    0    0  0.62456964052E+02  0.52680363758E+01 -0.44857144205E+02  0.14692956153E+03  0.12509000000E+03 0.  0.
<mgrwt>
<rscale>  2 0.45621265E+03</rscale>
<asrwt>0</asrwt>
<pdfrwt beam="1">  1       21 0.21921603E-01 0.45621265E+03</pdfrwt>
<pdfrwt beam="2">  1       21 0.51331567E-01 0.45621265E+03</pdfrwt>
<totfact> 0.64777010E+04</totfact>
</mgrwt>
</event>
<event>
 7    0  0.4714446E-002  0.4565986E+03  0.7546771E-02  0.1025772E+00
         21   -1    0    0  502  501  0.00000000000E+00  0.00000000000E+00  0.83604980276E+02  0.83604980276E+02  0.00000000000E+00 0. -1.
         21   -1    0    0  501  502 -0.00000000000E+00 -0.00000000000E+00 -0.62341466347E+03  0.62341466347E+03  0.00000000000E+00 0. -1.
      99926    2    1    2    0    0  0.00000000000E+00  0.00000000000E+00 -0.53980968320E+03  0.70701964375E+03  0.45659860115E+03 0.  0.
      99925    2    3    3    0    0 -0.74338480950E+02  0.38161657842E+02 -0.21762029743E+03  0.35144119913E+03  0.26300152226E+03 0.  0.
         25    1    4    4    0    0 -0.74742239998E+02  0.63478396375E+01 -0.10028186404E+03  0.17700468317E+03  0.12509000000E+03 0.  0.
         25    1    4    4    0    0  0.40375904858E+00  0.31813818204E+02 -0.11733843339E+03  0.17443651596E+03  0.12509000000E+03 0.  0.
         25    1    3    3    0    0  0.74338480950E+02 -0.38161657842E+02 -0.32218938577E+03  0.35557844462E+03  0.12509000000E+03 0.  0.
<mgrwt>
<rscale>  2 0.45659860E+03</rscale>
<asrwt>0</asrwt>
<pdfrwt beam="1">  1       21 0.12294849E-01 0.45659860E+03</pdfrwt>
<pdfrwt beam="2">  1       21 0.91678631E-01 0.45659860E+03</pdfrwt>
<totfact> 0.51867995E+04</totfact>
</mgrwt>
</event>
<event>
 7    0  0.4714446E-002  0.4313974E+03  0.7546771E-02  0.1033419E+00
         21   -1    0    0  502  501  0.00000000000E+00  0.00000000000E+00  0.92358079258E+02  0.92358079258E+02  0.00000000000E+00 0. -1.
         21   -1    0    0  501  502 -0.00000000000E+00 -0.00000000000E+00 -0.50375591734E+03  0.50375591734E+03  0.00000000000E+00 0. -1.
      99926    2    1    2    0    0  0.00000000000E+00  0.88817841970E-15 -0.41139783808E+03  0.59611399660E+03  0.43139739888E+03 0.  0.
      99925    2    3    3    0    0  0.17566056475E+02  0.50354793959E+01 -0.14378484584E+03  0.30014416011E+03  0.26282791435E+03 0.  0.
         25    1    3    3    0    0 -0.17566056475E+02 -0.50354793959E+01 -0.26761299224E+03  0.29596983648E+03  0.12509000000E+03 0.  0.
         25    1    4    4    0    0  0.74798729011E+01 -0.34028094849E+01 -0.26422322869E+02  0.12811391360E+03  0.12509000000E+03 0.  0.
         25    1    4    4    0    0  0.10086183574E+02  0.84382888809E+01 -0.11736252297E+03  0.17203024652E+03  0.12509000000E+03 0.  0.
<mgrwt>
<rscale>  2 0.43139740E+03</rscale>
<asrwt>0</asrwt>
<pdfrwt beam="1">  1       21 0.13582070E-01 0.43139740E+03</pdfrwt>
<pdfrwt beam="2">  1       21 0.74081753E-01 0.43139740E+03</pdfrwt>
<totfact> 0.71316102E+04</totfact>
</mgrwt>
</event>
<event>
 7    0  0.4714446E-002  0.4488782E+03  0.7546771E-02  0.1028057E+00
         21   -1    0    0  502  501  0.00000000000E+00  0.00000000000E+00  0.21188502043E+03  0.21188502043E+03  0.00000000000E+00 0.  1.
         21   -1    0    0  501  502 -0.00000000000E+00 -0.00000000000E+00 -0.23773698196E+03  0.23773698196E+03  0.00000000000E+00 0.  1.
      99926    2    1    2    0    0  0.00000000000E+00  0.14210854715E-13 -0.25851961530E+02  0.44962200239E+03  0.44887818071E+03 0.  0.
      99925    2    3    3    0    0 -0.13085861621E+02 -0.10567022282E+03 -0.21983533169E+01  0.28365683422E+03  0.26290479470E+03 0.  0.
         25    1    3    3    0    0  0.13085861621E+02  0.10567022282E+03 -0.23653608213E+02  0.16596516817E+03  0.12509000000E+03 0.  0.
         25    1    4    4    0    0 -0.57354218040E+01 -0.62838867446E+02 -0.40436841685E+02  0.14582271631E+03  0.12509000000E+03 0.  0.
         25    1    4    4    0    0 -0.73504398170E+01 -0.42831355372E+02  0.38238488368E+02  0.13783411791E+03  0.12509000000E+03 0.  0.
<mgrwt>
<rscale>  2 0.44887818E+03</rscale>
<asrwt>0</asrwt>
<pdfrwt beam="1">  1       21 0.31159562E-01 0.44887818E+03</pdfrwt>
<pdfrwt beam="2">  1       21 0.34961320E-01 0.44887818E+03</pdfrwt>
<totfact> 0.72414593E+04</totfact>
</mgrwt>
</event>
<event>
 7    0  0.4714446E-002  0.4575035E+03  0.7546771E-02  0.1025508E+00
         21   -1    0    0  502  501  0.00000000000E+00  0.00000000000E+00  0.68369473199E+02  0.68369473199E+02  0.00000000000E+00 0.  1.
         21   -1    0    0  501  502 -0.00000000000E+00 -0.00000000000E+00 -0.76536164964E+03  0.76536164964E+03  0.00000000000E+00 0.  1.
      99926    2    1    2    0    0  0.00000000000E+00  0.00000000000E+00 -0.69699217644E+03  0.83373112284E+03  0.45750354225E+03 0.  0.
      99925    2    3    3    0    0 -0.82034005023E+02 -0.18052221091E+02 -0.58201061598E+03  0.64419556414E+03  0.26305152931E+03 0.  0.
         25    1    4    4    0    0 -0.46006450868E+02  0.14366188897E+02 -0.21426017416E+03  0.25274079852E+03  0.12509000000E+03 0.  0.
         25    1    3    3    0    0  0.82034005023E+02  0.18052221091E+02 -0.11498156046E+03  0.18953555870E+03  0.12509000000E+03 0.  0.
         25    1    4    4    0    0 -0.36027554155E+02 -0.32418409988E+02 -0.36775044182E+03  0.39145476562E+03  0.12509000000E+03 0.  0.
<mgrwt>
<rscale>  2 0.45750354E+03</rscale>
<asrwt>0</asrwt>
<pdfrwt beam="1">  1       21 0.10054334E-01 0.45750354E+03</pdfrwt>
<pdfrwt beam="2">  1       21 0.11255318E+00 0.45750354E+03</pdfrwt>
<totfact> 0.45280157E+04</totfact>
</mgrwt>
</event>
<event>
 7    0  0.4714446E-002  0.4724472E+03  0.7546771E-02  0.1021232E+00
         21   -1    0    0  502  501  0.00000000000E+00  0.00000000000E+00  0.56655208829E+02  0.56655208829E+02  0.00000000000E+00 0.  1.
         21   -1    0    0  501  502 -0.00000000000E+00 -0.00000000000E+00 -0.98493307359E+03  0.98493307359E+03  0.00000000000E+00 0.  1.
      99926    2    1    2    0    0  0.00000000000E+00 -0.88817841970E-15 -0.92827786476E+03  0.10415882824E+04  0.47244719902E+03 0.  0.
      99925    2    3    3    0    0  0.96029709807E+02  0.26365398479E+01 -0.38645898269E+03  0.47727997521E+03  0.26309118749E+03 0.  0.
         25    1    4    4    0    0  0.19460871527E+02 -0.20932853811E+02 -0.21543132668E+03  0.25074902692E+03  0.12509000000E+03 0.  0.
         25    1    4    4    0    0  0.76568838281E+02  0.23569393659E+02 -0.17102765601E+03  0.22653094829E+03  0.12509000000E+03 0.  0.
         25    1    3    3    0    0 -0.96029709807E+02 -0.26365398479E+01 -0.54181888208E+03  0.56430830721E+03  0.12509000000E+03 0.  0.
<mgrwt>
<rscale>  2 0.47244720E+03</rscale>
<asrwt>0</asrwt>
<pdfrwt beam="1">  1       21 0.83316482E-02 0.47244720E+03</pdfrwt>
<pdfrwt beam="2">  1       21 0.14484310E+00 0.47244720E+03</pdfrwt>
<totfact> 0.32876428E+04</totfact>
</mgrwt>
</event>
<event>
 7    0  0.4714446E-002  0.4556286E+03  0.7546771E-02  0.1026057E+00
         21   -1    0    0  502  501  0.00000000000E+00  0.00000000000E+00  0.22901696498E+03  0.22901696498E+03  0.00000000000E+00 0.  1.
         21   -1    0    0  501  502 -0.00000000000E+00 -0.00000000000E+00 -0.22661797359E+03  0.22661797359E+03  0.00000000000E+00 0.  1.
      99926    2    1    2    0    0 -0.71054273576E-14  0.00000000000E+00  0.23989913951E+01  0.45563493857E+03  0.45562862299E+03 0.  0.
      99925    2    3    3    0    0  0.48686727775E+02  0.10078469234E+03 -0.20182038317E+02  0.28626740132E+03  0.26270469869E+03 0.  0.
         25    1    4    4    0    0  0.23636845056E+02  0.66473281397E+02 -0.47693558174E+02  0.15132607566E+03  0.12509000000E+03 0.  0.
         25    1    3    3    0    0 -0.48686727775E+02 -0.10078469234E+03  0.22581029713E+02  0.16936753725E+03  0.12509000000E+03 0.  0.
         25    1    4    4    0    0  0.25049882719E+02  0.34311410940E+02  0.27511519856E+02  0.13494132566E+03  0.12509000000E+03 0.  0.
<mgrwt>
<rscale>  2 0.45562862E+03</rscale>
<asrwt>0</asrwt>
<pdfrwt beam="1">  1       21 0.33678966E-01 0.45562862E+03</pdfrwt>
<pdfrwt beam="2">  1       21 0.33326173E-01 0.45562862E+03</pdfrwt>
<totfact> 0.68156800E+04</totfact>
</mgrwt>
</event>
<event>
 7    0  0.4714446E-002  0.4555540E+03  0.7546771E-02  0.1026079E+00
         21   -1    0    0  502  501  0.00000000000E+00  0.00000000000E+00  0.19144543045E+03  0.19144543045E+03  0.00000000000E+00 0.  1.
         21   -1    0    0  501  502 -0.00000000000E+00 -0.00000000000E+00 -0.27100342535E+03  0.27100342535E+03  0.00000000000E+00 0.  1.
      99926    2    1    2    0    0 -0.71054273576E-14  0.14210854715E-13 -0.79557994897E+02  0.46244885581E+03  0.45555402499E+03 0.  0.
      99925    2    3    3    0    0  0.33689869805E+02 -0.10235032164E+03 -0.86899795610E+02  0.29718541216E+03  0.26297718353E+03 0.  0.
         25    1    3    3    0    0 -0.33689869805E+02  0.10235032164E+03  0.73418007128E+01  0.16526344364E+03  0.12509000000E+03 0.  0.
         25    1    4    4    0    0  0.48930512805E+02 -0.79560339130E+02 -0.45846950697E+02  0.16270677194E+03  0.12509000000E+03 0.  0.
         25    1    4    4    0    0 -0.15240643000E+02 -0.22789982509E+02 -0.41052844913E+02  0.13447864023E+03  0.12509000000E+03 0.  0.
<mgrwt>
<rscale>  2 0.45555402E+03</rscale>
<asrwt>0</asrwt>
<pdfrwt beam="1">  1       21 0.28153740E-01 0.45555402E+03</pdfrwt>
<pdfrwt beam="2">  1       21 0.39853445E-01 0.45555402E+03</pdfrwt>
<totfact> 0.67701240E+04</totfact>
</mgrwt>
</event>
<event>
 7    0  0.4714446E-002  0.4538155E+03  0.7546771E-02  0.1026590E+00
         21   -1    0    0  502  501  0.00000000000E+00  0.00000000000E+00  0.18437024688E+04  0.18437024688E+04  0.00000000000E+00 0.  1.
         21   -1    0    0  501  502 -0.00000000000E+00 -0.00000000000E+00 -0.27925939568E+02  0.27925939568E+02  0.00000000000E+00 0.  1.
      99926    2    1    2    0    0  0.00000000000E+00 -0.14210854715E-13  0.18157765293E+04  0.18716284084E+04  0.45381548552E+03 0.  0.
      99925    2    3    3    0    0 -0.22252586003E+02 -0.10544815875E+03  0.12676403541E+04  0.12991642031E+04  0.26325095900E+03 0.  0.
         25    1    3    3    0    0  0.22252586003E+02  0.10544815875E+03  0.54813617517E+03  0.57246420534E+03  0.12509000000E+03 0.  0.
         25    1    4    4    0    0  0.28696005968E+02 -0.40630735208E+02  0.59150416947E+03  0.60662921790E+03  0.12509000000E+03 0.  0.
         25    1    4    4    0    0 -0.50948591972E+02 -0.64817423539E+02  0.67613618462E+03  0.69253498516E+03  0.12509000000E+03 0.  0.
<mgrwt>
<rscale>  2 0.45381549E+03</rscale>
<asrwt>0</asrwt>
<pdfrwt beam="1">  1       21 0.27113263E+00 0.45381549E+03</pdfrwt>
<pdfrwt beam="2">  1       21 0.41067571E-02 0.45381549E+03</pdfrwt>
<totfact> 0.16068258E+04</totfact>
</mgrwt>
</event>
<event>
 7    0  0.4714446E-002  0.4553252E+03  0.7546771E-02  0.1026146E+00
         21   -1    0    0  502  501  0.00000000000E+00  0.00000000000E+00  0.22009261040E+02  0.22009261040E+02  0.00000000000E+00 0. -1.
         21   -1    0    0  501  502 -0.00000000000E+00 -0.00000000000E+00 -0.23549293322E+04  0.23549293322E+04  0.00000000000E+00 0. -1.
      99926    2    1    2    0    0  0.00000000000E+00  0.14210854715E-13 -0.23329200712E+04  0.23769385933E+04  0.45532517788E+03 0.  0.
      99925    2    3    3    0    0  0.76355980763E+02  0.83907664483E+02 -0.14571517892E+04  0.14850370719E+04  0.26300767333E+03 0.  0.
         25    1    4    4    0    0  0.53819034419E+02  0.46583366513E+01 -0.73293456100E+03  0.74549229866E+03  0.12509000000E+03 0.  0.
         25    1    3    3    0    0 -0.76355980763E+02 -0.83907664483E+02 -0.87576828197E+03  0.89190152134E+03  0.12509000000E+03 0.  0.
         25    1    4    4    0    0  0.22536946344E+02  0.79249327832E+02 -0.72421722823E+03  0.73954477328E+03  0.12509000000E+03 0.  0.
<mgrwt>
<rscale>  2 0.45532518E+03</rscale>
<asrwt>0</asrwt>
<pdfrwt beam="1">  1       21 0.32366528E-02 0.45532518E+03</pdfrwt>
<pdfrwt beam="2">  1       21 0.34631348E+00 0.45532518E+03</pdfrwt>
<totfact> 0.84528052E+03</totfact>
</mgrwt>
</event>
<event>
 7    0  0.4714446E-002  0.4658114E+03  0.7546771E-02  0.1023109E+00
         21   -1    0    0  502  501  0.00000000000E+00  0.00000000000E+00  0.21120023175E+03  0.21120023175E+03  0.00000000000E+00 0.  1.
         21   -1    0    0  501  502 -0.00000000000E+00 -0.00000000000E+00 -0.25684184046E+03  0.25684184046E+03  0.00000000000E+00 0.  1.
      99926    2    1    2    0    0  0.00000000000E+00 -0.14210854715E-13 -0.45641608705E+02  0.46804207221E+03  0.46581136194E+03 0.  0.
      99925    2    3    3    0    0 -0.32535128212E+02  0.11431539695E+03  0.33932640171E+01  0.28865848491E+03  0.26303167514E+03 0.  0.
         25    1    4    4    0    0  0.81417689842E+01  0.22025094730E+02  0.11326713114E+02  0.12777791566E+03  0.12509000000E+03 0.  0.
         25    1    4    4    0    0 -0.40676897196E+02  0.92290302221E+02 -0.79334490965E+01  0.16088056926E+03  0.12509000000E+03 0.  0.
         25    1    3    3    0    0  0.32535128212E+02 -0.11431539695E+03 -0.49034872722E+02  0.17938358729E+03  0.12509000000E+03 0.  0.
<mgrwt>
<rscale>  2 0.46581136E+03</rscale>
<asrwt>0</asrwt>
<pdfrwt beam="1">  1       21 0.31058858E-01 0.46581136E+03</pdfrwt>
<pdfrwt beam="2">  1       21 0.37770859E-01 0.46581136E+03</pdfrwt>
<totfact> 0.62071184E+04</totfact>
</mgrwt>
</event>
<event>
 7    0  0.4714446E-002  0.4597555E+03  0.7546771E-02  0.1024852E+00
         21   -1    0    0  502  501  0.00000000000E+00  0.00000000000E+00  0.87823421549E+02  0.87823421549E+02  0.00000000000E+00 0. -1.
         21   -1    0    0  501  502 -0.00000000000E+00 -0.00000000000E+00 -0.60170498165E+03  0.60170498165E+03  0.00000000000E+00 0. -1.
      99926    2    1    2    0    0  0.00000000000E+00 -0.71054273576E-14 -0.51388156010E+03  0.68952840320E+03  0.45975554483E+03 0.  0.
      99925    2    3    3    0    0 -0.44507825280E+02  0.46529982965E+02 -0.46961381211E+03  0.54203898854E+03  0.26291281205E+03 0.  0.
         25    1    4    4    0    0 -0.24197848932E+02  0.61901513209E+02 -0.27413388827E+03  0.30856803144E+03  0.12509000000E+03 0.  0.
         25    1    4    4    0    0 -0.20309976349E+02 -0.15371530243E+02 -0.19547992384E+03  0.23347095709E+03  0.12509000000E+03 0.  0.
         25    1    3    3    0    0  0.44507825280E+02 -0.46529982965E+02 -0.44267747994E+02  0.14748941467E+03  0.12509000000E+03 0.  0.
<mgrwt>
<rscale>  2 0.45975554E+03</rscale>
<asrwt>0</asrwt>
<pdfrwt beam="1">  1       21 0.12915209E-01 0.45975554E+03</pdfrwt>
<pdfrwt beam="2">  1       21 0.88486029E-01 0.45975554E+03</pdfrwt>
<totfact> 0.51519331E+04</totfact>
</mgrwt>
</event>
<event>
 7    0  0.4714446E-002  0.4564373E+03  0.7546771E-02  0.1025820E+00
         21   -1    0    0  502  501  0.00000000000E+00  0.00000000000E+00  0.14741309613E+03  0.14741309613E+03  0.00000000000E+00 0.  1.
         21   -1    0    0  501  502 -0.00000000000E+00 -0.00000000000E+00 -0.35331830169E+03  0.35331830169E+03  0.00000000000E+00 0.  1.
      99926    2    1    2    0    0  0.17763568394E-14  0.00000000000E+00 -0.20590520556E+03  0.50073139782E+03  0.45643726742E+03 0.  0.
      99925    2    3    3    0    0  0.78552929266E+01 -0.11349647120E+03 -0.11350622033E+03  0.30804451406E+03  0.26280145736E+03 0.  0.
         25    1    4    4    0    0  0.39885679794E+02 -0.40611577331E+02 -0.44150658900E+02  0.14435011759E+03  0.12509000000E+03 0.  0.
         25    1    4    4    0    0 -0.32030386867E+02 -0.72884893867E+02 -0.69355561426E+02  0.16369439648E+03  0.12509000000E+03 0.  0.
         25    1    3    3    0    0 -0.78552929266E+01  0.11349647120E+03 -0.92398985230E+02  0.19268688376E+03  0.12509000000E+03 0.  0.
<mgrwt>
<rscale>  2 0.45643727E+03</rscale>
<asrwt>0</asrwt>
<pdfrwt beam="1">  1       21 0.21678397E-01 0.45643727E+03</pdfrwt>
<pdfrwt beam="2">  1       21 0.51958573E-01 0.45643727E+03</pdfrwt>
<totfact> 0.64480498E+04</totfact>
</mgrwt>
</event>
<event>
 7    0  0.4714446E-002  0.4551589E+03  0.7546771E-02  0.1026195E+00
         21   -1    0    0  502  501  0.00000000000E+00  0.00000000000E+00  0.15346385327E+03  0.15346385327E+03  0.00000000000E+00 0. -1.
         21   -1    0    0  501  502 -0.00000000000E+00 -0.00000000000E+00 -0.33748922691E+03  0.33748922691E+03  0.00000000000E+00 0. -1.
      99926    2    1    2    0    0  0.00000000000E+00  0.00000000000E+00 -0.18402537364E+03  0.49095308018E+03  0.45515886106E+03 0.  0.
      99925    2    3    3    0    0  0.66170477517E+02  0.91863910245E+02 -0.12162832983E+03  0.31106864707E+03  0.26296909034E+03 0.  0.
         25    1    4    4    0    0  0.53849939910E+02  0.35964366236E+02 -0.25251609719E+02  0.14310277272E+03  0.12509000000E+03 0.  0.
         25    1    4    4    0    0  0.12320537607E+02  0.55899544009E+02 -0.96376720107E+02  0.16796587435E+03  0.12509000000E+03 0.  0.
         25    1    3    3    0    0 -0.66170477517E+02 -0.91863910245E+02 -0.62397043812E+02  0.17988443311E+03  0.12509000000E+03 0.  0.
<mgrwt>
<rscale>  2 0.45515886E+03</rscale>
<asrwt>0</asrwt>
<pdfrwt beam="1">  1       21 0.22568214E-01 0.45515886E+03</pdfrwt>
<pdfrwt beam="2">  1       21 0.49630768E-01 0.45515886E+03</pdfrwt>
<totfact> 0.65827965E+04</totfact>
</mgrwt>
</event>
<event>
 7    0  0.4714446E-002  0.4530368E+03  0.7546771E-02  0.1026820E+00
         21   -1    0    0  502  501  0.00000000000E+00  0.00000000000E+00  0.19704961285E+03  0.19704961285E+03  0.00000000000E+00 0. -1.
         21   -1    0    0  501  502 -0.00000000000E+00 -0.00000000000E+00 -0.26039429597E+03  0.26039429597E+03  0.00000000000E+00 0. -1.
      99926    2    1    2    0    0  0.00000000000E+00  0.00000000000E+00 -0.63344683117E+02  0.45744390882E+03  0.45303684269E+03 0.  0.
      99925    2    3    3    0    0  0.76757227618E+02  0.77962011202E+02 -0.59565465536E+02  0.29121654113E+03  0.26322857361E+03 0.  0.
         25    1    3    3    0    0 -0.76757227618E+02 -0.77962011202E+02 -0.37792175810E+01  0.16622736769E+03  0.12509000000E+03 0.  0.
         25    1    4    4    0    0  0.79449339886E+02  0.53251903140E+02 -0.35836491164E+02  0.16149218246E+03  0.12509000000E+03 0.  0.
         25    1    4    4    0    0 -0.26921122680E+01  0.24710108063E+02 -0.23728974372E+02  0.12972435868E+03  0.12509000000E+03 0.  0.
<mgrwt>
<rscale>  2 0.45303684E+03</rscale>
<asrwt>0</asrwt>
<pdfrwt beam="1">  1       21 0.28977884E-01 0.45303684E+03</pdfrwt>
<pdfrwt beam="2">  1       21 0.38293279E-01 0.45303684E+03</pdfrwt>
<totfact> 0.69448165E+04</totfact>
</mgrwt>
</event>
<event>
 7    0  0.4714446E-002  0.4531537E+03  0.7546771E-02  0.1026786E+00
         21   -1    0    0  502  501  0.00000000000E+00  0.00000000000E+00  0.50173342889E+02  0.50173342889E+02  0.00000000000E+00 0. -1.
         21   -1    0    0  501  502 -0.00000000000E+00 -0.00000000000E+00 -0.10231941807E+04  0.10231941807E+04  0.00000000000E+00 0. -1.
      99926    2    1    2    0    0  0.71054273576E-14  0.71054273576E-14 -0.97302083783E+03  0.10733675236E+04  0.45315371552E+03 0.  0.
      99925    2    3    3    0    0 -0.49833002126E+02 -0.63395743627E+02 -0.79545238182E+03  0.84167718483E+03  0.26300882746E+03 0.  0.
         25    1    4    4    0    0 -0.35340430726E+02 -0.61452739131E+01 -0.29435452719E+03  0.32183661415E+03  0.12509000000E+03 0.  0.
         25    1    3    3    0    0  0.49833002126E+02  0.63395743627E+02 -0.17756845601E+03  0.23169033877E+03  0.12509000000E+03 0.  0.
         25    1    4    4    0    0 -0.14492571400E+02 -0.57250469714E+02 -0.50109785463E+03  0.51984057068E+03  0.12509000000E+03 0.  0.
<mgrwt>
<rscale>  2 0.45315372E+03</rscale>
<asrwt>0</asrwt>
<pdfrwt beam="1">  1       21 0.73784333E-02 0.45315372E+03</pdfrwt>
<pdfrwt beam="2">  1       21 0.15046972E+00 0.45315372E+03</pdfrwt>
<totfact> 0.36961122E+04</totfact>
</mgrwt>
</event>
<event>
 7    0  0.4714446E-002  0.4516150E+03  0.7546771E-02  0.1027242E+00
         21   -1    0    0  502  501  0.00000000000E+00  0.00000000000E+00  0.65432066598E+03  0.65432066598E+03  0.00000000000E+00 0. -1.
         21   -1    0    0  501  502 -0.00000000000E+00 -0.00000000000E+00 -0.77926654082E+02  0.77926654082E+02  0.00000000000E+00 0. -1.
      99926    2    1    2    0    0  0.17763568394E-14  0.35527136788E-14  0.57639401190E+03  0.73224732006E+03  0.45161496962E+03 0.  0.
      99925    2    3    3    0    0  0.13393390227E+02 -0.30035486579E+02  0.19381783374E+03  0.32839889113E+03  0.26305696278E+03 0.  0.
         25    1    3    3    0    0 -0.13393390227E+02  0.30035486579E+02  0.38257617816E+03  0.40384842893E+03  0.12509000000E+03 0.  0.
         25    1    4    4    0    0 -0.26208115722E+02 -0.38653992115E+02  0.10191845701E+03  0.16797582093E+03  0.12509000000E+03 0.  0.
         25    1    4    4    0    0  0.39601505949E+02  0.86185055363E+01  0.91899376730E+02  0.16042307021E+03  0.12509000000E+03 0.  0.
<mgrwt>
<rscale>  2 0.45161497E+03</rscale>
<asrwt>0</asrwt>
<pdfrwt beam="1">  1       21 0.96223624E-01 0.45161497E+03</pdfrwt>
<pdfrwt beam="2">  1       21 0.11459802E-01 0.45161497E+03</pdfrwt>
<totfact> 0.52572274E+04</totfact>
</mgrwt>
</event>
<event>
 7    0  0.4714446E-002  0.4480522E+03  0.7546771E-02  0.1028305E+00
         21   -1    0    0  502  501  0.00000000000E+00  0.00000000000E+00  0.66127453027E+03  0.66127453027E+03  0.00000000000E+00 0.  1.
         21   -1    0    0  501  502 -0.00000000000E+00 -0.00000000000E+00 -0.75895383698E+02  0.75895383698E+02  0.00000000000E+00 0.  1.
      99926    2    1    2    0    0  0.00000000000E+00  0.00000000000E+00  0.58537914657E+03  0.73716991397E+03  0.44805215859E+03 0.  0.
      99925    2    3    3    0    0  0.22416766307E+02 -0.36194732936E+02  0.20952738806E+03  0.33876732540E+03  0.26277177228E+03 0.  0.
         25    1    4    4    0    0 -0.26391283908E+02 -0.15659350431E+02  0.83687642653E+02  0.15359962485E+03  0.12509000000E+03 0.  0.
         25    1    3    3    0    0 -0.22416766307E+02  0.36194732936E+02  0.37585175851E+03  0.39840258857E+03  0.12509000000E+03 0.  0.
         25    1    4    4    0    0  0.48808050215E+02 -0.20535382505E+02  0.12583974541E+03  0.18516770055E+03  0.12509000000E+03 0.  0.
<mgrwt>
<rscale>  2 0.44805216E+03</rscale>
<asrwt>0</asrwt>
<pdfrwt beam="1">  1       21 0.97246251E-01 0.44805216E+03</pdfrwt>
<pdfrwt beam="2">  1       21 0.11161086E-01 0.44805216E+03</pdfrwt>
<totfact> 0.53810565E+04</totfact>
</mgrwt>
</event>
<event>
 7    0  0.4714446E-002  0.4531485E+03  0.7546771E-02  0.1026787E+00
         21   -1    0    0  502  501  0.00000000000E+00  0.00000000000E+00  0.16778980952E+03  0.16778980952E+03  0.00000000000E+00 0.  1.
         21   -1    0    0  501  502 -0.00000000000E+00 -0.00000000000E+00 -0.30595355024E+03  0.30595355024E+03  0.00000000000E+00 0.  1.
      99926    2    1    2    0    0  0.00000000000E+00  0.00000000000E+00 -0.13816374072E+03  0.47374335976E+03  0.45314848744E+03 0.  0.
      99925    2    3    3    0    0 -0.88540157961E+02  0.22036339899E+01 -0.16346726368E+02  0.27796003907E+03  0.26296454568E+03 0.  0.
         25    1    3    3    0    0  0.88540157961E+02 -0.22036339899E+01 -0.12181701435E+03  0.19578332069E+03  0.12509000000E+03 0.  0.
         25    1    4    4    0    0 -0.16336387278E+01 -0.15651710224E+01 -0.64929822678E+01  0.12527883083E+03  0.12509000000E+03 0.  0.
         25    1    4    4    0    0 -0.86906519234E+02  0.37688050123E+01 -0.98537441007E+01  0.15268120824E+03  0.12509000000E+03 0.  0.
<mgrwt>
<rscale>  2 0.45314849E+03</rscale>
<asrwt>0</asrwt>
<pdfrwt beam="1">  1       21 0.24674972E-01 0.45314849E+03</pdfrwt>
<pdfrwt beam="2">  1       21 0.44993169E-01 0.45314849E+03</pdfrwt>
<totfact> 0.68154354E+04</totfact>
</mgrwt>
</event>
<event>
 7    0  0.4714446E-002  0.4567507E+03  0.7546771E-02  0.1025728E+00
         21   -1    0    0  502  501  0.00000000000E+00  0.00000000000E+00  0.18293920710E+04  0.18293920710E+04  0.00000000000E+00 0. -1.
         21   -1    0    0  501  502 -0.00000000000E+00 -0.00000000000E+00 -0.28509635851E+02  0.28509635851E+02  0.00000000000E+00 0. -1.
      99926    2    1    2    0    0  0.00000000000E+00  0.00000000000E+00  0.18008824351E+04  0.18579017068E+04  0.45675070562E+03 0.  0.
      99925    2    3    3    0    0  0.70944991320E+02 -0.88745593894E+02  0.11970185650E+04  0.12308386685E+04  0.26306161031E+03 0.  0.
         25    1    4    4    0    0  0.29651886748E+01 -0.22453782219E+02  0.45781821010E+03  0.47513996494E+03  0.12509000000E+03 0.  0.
         25    1    3    3    0    0 -0.70944991320E+02  0.88745593894E+02  0.60386387015E+03  0.62706303830E+03  0.12509000000E+03 0.  0.
         25    1    4    4    0    0  0.67979802645E+02 -0.66291811675E+02  0.73920035486E+03  0.75569870358E+03  0.12509000000E+03 0.  0.
<mgrwt>
<rscale>  2 0.45675071E+03</rscale>
<asrwt>0</asrwt>
<pdfrwt beam="1">  1       21 0.26902816E+00 0.45675071E+03</pdfrwt>
<pdfrwt beam="2">  1       21 0.41925948E-02 0.45675071E+03</pdfrwt>
<totfact> 0.15953936E+04</totfact>
</mgrwt>
</event>
<event>
 7    0  0.4714446E-002  0.4526545E+03  0.7546771E-02  0.1026933E+00
         21   -1    0    0  502  501  0.00000000000E+00  0.00000000000E+00  0.60909835448E+02  0.60909835448E+02  0.00000000000E+00 0. -1.
         21   -1    0    0  501  502 -0.00000000000E+00 -0.00000000000E+00 -0.84098110320E+03  0.84098110320E+03  0.00000000000E+00 0. -1.
      99926    2    1    2    0    0 -0.14210854715E-13  0.00000000000E+00 -0.78007126775E+03  0.90189093864E+03  0.45265448461E+03 0.  0.
      99925    2    3    3    0    0 -0.78812711072E+02 -0.77897086918E+02 -0.50370383059E+03  0.57892674868E+03  0.26298142864E+03 0.  0.
         25    1    4    4    0    0 -0.80316736761E+02 -0.50540583949E+02 -0.29074844234E+03  0.33043500670E+03  0.12509000000E+03 0.  0.
         25    1    4    4    0    0  0.15040256888E+01 -0.27356502969E+02 -0.21295538825E+03  0.24849174198E+03  0.12509000000E+03 0.  0.
         25    1    3    3    0    0  0.78812711072E+02  0.77897086918E+02 -0.27636743716E+03  0.32296418996E+03  0.12509000000E+03 0.  0.
<mgrwt>
<rscale>  2 0.45265448E+03</rscale>
<asrwt>0</asrwt>
<pdfrwt beam="1">  1       21 0.89573292E-02 0.45265448E+03</pdfrwt>
<pdfrwt beam="2">  1       21 0.12367368E+00 0.45265448E+03</pdfrwt>
<totfact> 0.43953643E+04</totfact>
</mgrwt>
</event>
<event>
 7    0  0.4714446E-002  0.4490519E+03  0.7546771E-02  0.1028005E+00
         21   -1    0    0  502  501  0.00000000000E+00  0.00000000000E+00  0.16917080267E+04  0.16917080267E+04  0.00000000000E+00 0.  1.
         21   -1    0    0  501  502 -0.00000000000E+00 -0.00000000000E+00 -0.29799405694E+02  0.29799405694E+02  0.00000000000E+00 0.  1.
      99926    2    1    2    0    0  0.14210854715E-13  0.00000000000E+00  0.16619086210E+04  0.17215074324E+04  0.44905186249E+03 0.  0.
      99925    2    3    3    0    0  0.70026455321E+02 -0.13516608721E+02  0.13601164349E+04  0.13871237683E+04  0.26288634192E+03 0.  0.
         25    1    4    4    0    0  0.60172430398E+02 -0.23346288679E+02  0.85821544673E+03  0.86968214405E+03  0.12509000000E+03 0.  0.
         25    1    3    3    0    0 -0.70026455321E+02  0.13516608721E+02  0.30179218605E+03  0.33438366410E+03  0.12509000000E+03 0.  0.
         25    1    4    4    0    0  0.98540249230E+01  0.98296799583E+01  0.50190098819E+03  0.51744162421E+03  0.12509000000E+03 0.  0.
<mgrwt>
<rscale>  2 0.44905186E+03</rscale>
<asrwt>0</asrwt>
<pdfrwt beam="1">  1       21 0.24878053E+00 0.44905186E+03</pdfrwt>
<pdfrwt beam="2">  1       21 0.43822667E-02 0.44905186E+03</pdfrwt>
<totfact> 0.19712289E+04</totfact>
</mgrwt>
</event>
<event>
 7    0  0.4714446E-002  0.4575914E+03  0.7546771E-02  0.1025482E+00
         21   -1    0    0  502  501  0.00000000000E+00  0.00000000000E+00  0.25136114233E+03  0.25136114233E+03  0.00000000000E+00 0.  1.
         21   -1    0    0  501  502 -0.00000000000E+00 -0.00000000000E+00 -0.20825598094E+03  0.20825598094E+03  0.00000000000E+00 0.  1.
      99926    2    1    2    0    0  0.00000000000E+00  0.14210854715E-13  0.43105161383E+02  0.45961712327E+03  0.45759135161E+03 0.  0.
      99925    2    3    3    0    0 -0.70395940184E+02  0.69617759606E+02  0.87272007616E+02  0.29408634289E+03  0.26280820557E+03 0.  0.
         25    1    4    4    0    0 -0.34839582936E+02  0.59817057345E+02  0.11905529572E+02  0.14346123735E+03  0.12509000000E+03 0.  0.
         25    1    3    3    0    0  0.70395940184E+02 -0.69617759606E+02 -0.44166846234E+02  0.16553078038E+03  0.12509000000E+03 0.  0.
         25    1    4    4    0    0 -0.35556357248E+02  0.98007022616E+01  0.75366478044E+02  0.15062510554E+03  0.12509000000E+03 0.  0.
<mgrwt>
<rscale>  2 0.45759135E+03</rscale>
<asrwt>0</asrwt>
<pdfrwt beam="1">  1       21 0.36964874E-01 0.45759135E+03</pdfrwt>
<pdfrwt beam="2">  1       21 0.30625879E-01 0.45759135E+03</pdfrwt>
<totfact> 0.66816686E+04</totfact>
</mgrwt>
</event>
<event>
 7    0  0.4714446E-002  0.4384633E+03  0.7546771E-02  0.1031219E+00
         21   -1    0    0  502  501  0.00000000000E+00  0.00000000000E+00  0.91777753216E+03  0.91777753216E+03  0.00000000000E+00 0.  1.
         21   -1    0    0  501  502 -0.00000000000E+00 -0.00000000000E+00 -0.52368366969E+02  0.52368366969E+02  0.00000000000E+00 0.  1.
      99926    2    1    2    0    0  0.00000000000E+00  0.00000000000E+00  0.86540916519E+03  0.97014589913E+03  0.43846327372E+03 0.  0.
      99925    2    3    3    0    0 -0.12768505296E+02 -0.92437455143E+02  0.61069493217E+03  0.67142434576E+03  0.26297268692E+03 0.  0.
         25    1    4    4    0    0 -0.28265547270E+02 -0.79306672546E+02  0.36645075968E+03  0.39626021355E+03  0.12509000000E+03 0.  0.
         25    1    4    4    0    0  0.15497041974E+02 -0.13130782597E+02  0.24424417248E+03  0.27516413221E+03  0.12509000000E+03 0.  0.
         25    1    3    3    0    0  0.12768505296E+02  0.92437455143E+02  0.25471423302E+03  0.29872155336E+03  0.12509000000E+03 0.  0.
<mgrwt>
<rscale>  2 0.43846327E+03</rscale>
<asrwt>0</asrwt>
<pdfrwt beam="1">  1       21 0.13496727E+00 0.43846327E+03</pdfrwt>
<pdfrwt beam="2">  1       21 0.77012310E-02 0.43846327E+03</pdfrwt>
<totfact> 0.46000916E+04</totfact>
</mgrwt>
</event>
<event>
 7    0  0.4714446E-002  0.4542705E+03  0.7546771E-02  0.1026456E+00
         21   -1    0    0  502  501  0.00000000000E+00  0.00000000000E+00  0.72129772125E+02  0.72129772125E+02  0.00000000000E+00 0. -1.
         21   -1    0    0  501  502 -0.00000000000E+00 -0.00000000000E+00 -0.71524443701E+03  0.71524443701E+03  0.00000000000E+00 0. -1.
      99926    2    1    2    0    0  0.00000000000E+00 -0.35527136788E-14 -0.64311466489E+03  0.78737420914E+03  0.45427048443E+03 0.  0.
      99925    2    3    3    0    0  0.52059477126E+02 -0.13844755015E+02 -0.23381499826E+03  0.35600940807E+03  0.26300452244E+03 0.  0.
         25    1    4    4    0    0  0.71072518231E+01 -0.42844445520E+02 -0.11589103608E+03  0.17596704204E+03  0.12509000000E+03 0.  0.
         25    1    3    3    0    0 -0.52059477126E+02  0.13844755015E+02 -0.40929966663E+03  0.43136480107E+03  0.12509000000E+03 0.  0.
         25    1    4    4    0    0  0.44952225303E+02  0.28999690505E+02 -0.11792396218E+03  0.18004236603E+03  0.12509000000E+03 0.  0.
<mgrwt>
<rscale>  2 0.45427048E+03</rscale>
<asrwt>0</asrwt>
<pdfrwt beam="1">  1       21 0.10607319E-01 0.45427048E+03</pdfrwt>
<pdfrwt beam="2">  1       21 0.10518301E+00 0.45427048E+03</pdfrwt>
<totfact> 0.48659606E+04</totfact>
</mgrwt>
</event>
<event>
 7    0  0.4714446E-002  0.4458148E+03  0.7546771E-02  0.1028978E+00
         21   -1    0    0  502  501  0.00000000000E+00  0.00000000000E+00  0.15526686969E+04  0.15526686969E+04  0.00000000000E+00 0.  1.
         21   -1    0    0  501  502 -0.00000000000E+00 -0.00000000000E+00 -0.32001481454E+02  0.32001481454E+02  0.00000000000E+00 0.  1.
      99926    2    1    2    0    0  0.00000000000E+00 -0.35527136788E-14  0.15206672155E+04  0.15846701784E+04  0.44581475304E+03 0.  0.
      99925    2    3    3    0    0 -0.98284593059E+02  0.25264233642E+02  0.87889566733E+03  0.92299323996E+03  0.26298438019E+03 0.  0.
         25    1    3    3    0    0  0.98284593059E+02 -0.25264233642E+02  0.64177154813E+03  0.66167693841E+03  0.12509000000E+03 0.  0.
         25    1    4    4    0    0 -0.43935865885E+02 -0.10356973835E+02  0.31866129303E+03  0.34529719807E+03  0.12509000000E+03 0.  0.
         25    1    4    4    0    0 -0.54348727175E+02  0.35621207477E+02  0.56023437429E+03  0.57769604188E+03  0.12509000000E+03 0.  0.
<mgrwt>
<rscale>  2 0.44581475E+03</rscale>
<asrwt>0</asrwt>
<pdfrwt beam="1">  1       21 0.22833358E+00 0.44581475E+03</pdfrwt>
<pdfrwt beam="2">  1       21 0.47061012E-02 0.44581475E+03</pdfrwt>
<totfact> 0.23403563E+04</totfact>
</mgrwt>
</event>
<event>
 7    0  0.4714446E-002  0.4567208E+03  0.7546771E-02  0.1025737E+00
         21   -1    0    0  502  501  0.00000000000E+00  0.00000000000E+00  0.18990308695E+03  0.18990308695E+03  0.00000000000E+00 0.  1.
         21   -1    0    0  501  502 -0.00000000000E+00 -0.00000000000E+00 -0.27460573200E+03  0.27460573200E+03  0.00000000000E+00 0.  1.
      99926    2    1    2    0    0 -0.17763568394E-14 -0.14210854715E-13 -0.84702645051E+02  0.46450881895E+03  0.45672081714E+03 0.  0.
      99925    2    3    3    0    0 -0.11610175395E+02 -0.10648003811E+03 -0.97422830009E+02  0.29933586144E+03  0.26198846434E+03 0.  0.
         25    1    4    4    0    0 -0.84984501948E+01 -0.66961042612E+02 -0.89301442017E+02  0.16786381543E+03  0.12509000000E+03 0.  0.
         25    1    3    3    0    0  0.11610175395E+02  0.10648003811E+03  0.12720184958E+02  0.16517295752E+03  0.12509000000E+03 0.  0.
         25    1    4    4    0    0 -0.31117252002E+01 -0.39518995502E+02 -0.81213879924E+01  0.13147204601E+03  0.12509000000E+03 0.  0.
<mgrwt>
<rscale>  2 0.45672082E+03</rscale>
<asrwt>0</asrwt>
<pdfrwt beam="1">  1       21 0.27926925E-01 0.45672082E+03</pdfrwt>
<pdfrwt beam="2">  1       21 0.40383196E-01 0.45672082E+03</pdfrwt>
<totfact> 0.66926426E+04</totfact>
</mgrwt>
</event>
<event>
 7    0  0.4714446E-002  0.4643074E+03  0.7546771E-02  0.1023539E+00
         21   -1    0    0  502  501  0.00000000000E+00  0.00000000000E+00  0.16680536311E+04  0.16680536311E+04  0.00000000000E+00 0. -1.
         21   -1    0    0  501  502 -0.00000000000E+00 -0.00000000000E+00 -0.32310322719E+02  0.32310322719E+02  0.00000000000E+00 0. -1.
      99926    2    1    2    0    0  0.14210854715E-13 -0.14210854715E-13  0.16357433084E+04  0.17003639539E+04  0.46430744614E+03 0.  0.
      99925    2    3    3    0    0  0.10147388335E+03 -0.66491067334E+02  0.10518562756E+04  0.10910285895E+04  0.26310406230E+03 0.  0.
         25    1    4    4    0    0  0.19195278748E+02 -0.36020896748E+02  0.38403232987E+03  0.40594864480E+03  0.12509000000E+03 0.  0.
         25    1    3    3    0    0 -0.10147388335E+03  0.66491067334E+02  0.58388703281E+03  0.60933536433E+03  0.12509000000E+03 0.  0.
         25    1    4    4    0    0  0.82278604599E+02 -0.30470170586E+02  0.66782394574E+03  0.68507994473E+03  0.12509000000E+03 0.  0.
<mgrwt>
<rscale>  2 0.46430745E+03</rscale>
<asrwt>0</asrwt>
<pdfrwt beam="1">  1       21 0.24530195E+00 0.46430745E+03</pdfrwt>
<pdfrwt beam="2">  1       21 0.47515191E-02 0.46430745E+03</pdfrwt>
<totfact> 0.17923477E+04</totfact>
</mgrwt>
</event>
<event>
 7    0  0.4714446E-002  0.4529573E+03  0.7546771E-02  0.1026844E+00
         21   -1    0    0  502  501  0.00000000000E+00  0.00000000000E+00  0.24051786330E+03  0.24051786330E+03  0.00000000000E+00 0.  1.
         21   -1    0    0  501  502 -0.00000000000E+00 -0.00000000000E+00 -0.21325892365E+03  0.21325892365E+03  0.00000000000E+00 0.  1.
      99926    2    1    2    0    0  0.00000000000E+00 -0.35527136788E-14  0.27258939649E+02  0.45377678695E+03  0.45295730768E+03 0.  0.
      99925    2    3    3    0    0 -0.81196357221E+02 -0.22267783740E+02 -0.55653052746E+02  0.28169945200E+03  0.26299927065E+03 0.  0.
         25    1    4    4    0    0 -0.13285801722E+02 -0.14284673831E+02  0.51697501234E+01  0.12670753273E+03  0.12509000000E+03 0.  0.
         25    1    3    3    0    0  0.81196357221E+02  0.22267783740E+02  0.82911992395E+02  0.17207733494E+03  0.12509000000E+03 0.  0.
         25    1    4    4    0    0 -0.67910555500E+02 -0.79831099092E+01 -0.60822802869E+02  0.15499191928E+03  0.12509000000E+03 0.  0.
<mgrwt>
<rscale>  2 0.45295731E+03</rscale>
<asrwt>0</asrwt>
<pdfrwt beam="1">  1       21 0.35370274E-01 0.45295731E+03</pdfrwt>
<pdfrwt beam="2">  1       21 0.31361606E-01 0.45295731E+03</pdfrwt>
<totfact> 0.69765676E+04</totfact>
</mgrwt>
</event>
<event>
 7    0  0.4714446E-002  0.4487403E+03  0.7546771E-02  0.1028098E+00
         21   -1    0    0  502  501  0.00000000000E+00  0.00000000000E+00  0.93918445480E+02  0.93918445480E+02  0.00000000000E+00 0.  1.
         21   -1    0    0  501  502 -0.00000000000E+00 -0.00000000000E+00 -0.53601792292E+03  0.53601792292E+03  0.00000000000E+00 0.  1.
      99926    2    1    2    0    0 -0.71054273576E-14  0.00000000000E+00 -0.44209947744E+03  0.62993636840E+03  0.44874032611E+03 0.  0.
      99925    2    3    3    0    0  0.50616678532E+02  0.12966573938E+02 -0.41122016539E+03  0.49089960995E+03  0.26296429881E+03 0.  0.
         25    1    4    4    0    0  0.32449571000E+02 -0.14062691028E+02 -0.26870427854E+03  0.29849661864E+03  0.12509000000E+03 0.  0.
         25    1    3    3    0    0 -0.50616678532E+02 -0.12966573938E+02 -0.30879312049E+02  0.13903675844E+03  0.12509000000E+03 0.  0.
         25    1    4    4    0    0  0.18167107532E+02  0.27029264966E+02 -0.14251588685E+03  0.19240299131E+03  0.12509000000E+03 0.  0.
<mgrwt>
<rscale>  2 0.44874033E+03</rscale>
<asrwt>0</asrwt>
<pdfrwt beam="1">  1       21 0.13811536E-01 0.44874033E+03</pdfrwt>
<pdfrwt beam="2">  1       21 0.78826167E-01 0.44874033E+03</pdfrwt>
<totfact> 0.59771562E+04</totfact>
</mgrwt>
</event>
<event>
 7    0  0.4714446E-002  0.4510639E+03  0.7546771E-02  0.1027405E+00
         21   -1    0    0  502  501  0.00000000000E+00  0.00000000000E+00  0.36703519845E+03  0.36703519845E+03  0.00000000000E+00 0.  1.
         21   -1    0    0  501  502 -0.00000000000E+00 -0.00000000000E+00 -0.13858251882E+03  0.13858251882E+03  0.00000000000E+00 0.  1.
      99926    2    1    2    0    0  0.00000000000E+00 -0.14210854715E-13  0.22845267963E+03  0.50561771727E+03  0.45106390809E+03 0.  0.
      99925    2    3    3    0    0 -0.27925647674E+02 -0.89016063190E+02  0.80122144495E+02  0.29031988389E+03  0.26298740586E+03 0.  0.
         25    1    4    4    0    0 -0.13871269843E+02 -0.20838105672E+01  0.41545039972E+02  0.13255283037E+03  0.12509000000E+03 0.  0.
         25    1    3    3    0    0  0.27925647674E+02  0.89016063190E+02  0.14833053513E+03  0.21529783338E+03  0.12509000000E+03 0.  0.
         25    1    4    4    0    0 -0.14054377831E+02 -0.86932252623E+02  0.38577104523E+02  0.15776705352E+03  0.12509000000E+03 0.  0.
<mgrwt>
<rscale>  2 0.45106391E+03</rscale>
<asrwt>0</asrwt>
<pdfrwt beam="1">  1       21 0.53975764E-01 0.45106391E+03</pdfrwt>
<pdfrwt beam="2">  1       21 0.20379782E-01 0.45106391E+03</pdfrwt>
<totfact> 0.66944794E+04</totfact>
</mgrwt>
</event>
<event>
 7    0  0.4714446E-002  0.4435569E+03  0.7546771E-02  0.1029661E+00
         21   -1    0    0  502  501  0.00000000000E+00  0.00000000000E+00  0.16692024919E+03  0.16692024919E+03  0.00000000000E+00 0.  1.
         21   -1    0    0  501  502 -0.00000000000E+00 -0.00000000000E+00 -0.29466574646E+03  0.29466574646E+03  0.00000000000E+00 0.  1.
      99926    2    1    2    0    0  0.00000000000E+00 -0.35527136788E-14 -0.12774549727E+03  0.46158599565E+03  0.44355689523E+03 0.  0.
      99925    2    3    3    0    0  0.97508264859E+02  0.26414545139E+02 -0.66889460450E+02  0.28966579547E+03  0.26310926102E+03 0.  0.
         25    1    4    4    0    0  0.18275186127E+02  0.31206394019E+02 -0.53968538289E+02  0.14095365437E+03  0.12509000000E+03 0.  0.
         25    1    3    3    0    0 -0.97508264859E+02 -0.26414545139E+02 -0.60856036821E+02  0.17192020017E+03  0.12509000000E+03 0.  0.
         25    1    4    4    0    0  0.79233078731E+02 -0.47918488808E+01 -0.12920922161E+02  0.14871214110E+03  0.12509000000E+03 0.  0.
<mgrwt>
<rscale>  2 0.44355690E+03</rscale>
<asrwt>0</asrwt>
<pdfrwt beam="1">  1       21 0.24547095E-01 0.44355690E+03</pdfrwt>
<pdfrwt beam="2">  1       21 0.43333198E-01 0.44355690E+03</pdfrwt>
<totfact> 0.74613462E+04</totfact>
</mgrwt>
</event>
<event>
 6    0  0.4714446E-002  0.4544281E+03  0.7546771E-02  0.1026410E+00
         21   -1    0    0  502  501  0.00000000000E+00  0.00000000000E+00  0.74726774912E+02  0.74726774912E+02  0.00000000000E+00 0. -1.
         21   -1    0    0  501  502 -0.00000000000E+00 -0.00000000000E+00 -0.69086636391E+03  0.69086636391E+03  0.00000000000E+00 0. -1.
      99926    2    1    2    0    0  0.00000000000E+00  0.88817841970E-15 -0.61613958900E+03  0.76559313882E+03  0.45442805930E+03 0.  0.
         25    1    3    3    0    0 -0.98202329412E+01  0.31145906556E+02 -0.30339612305E+03  0.32979269254E+03  0.12509000000E+03 0.  0.
         25    1    3    3    0    0 -0.32079408301E+02  0.44409423705E+01 -0.47935329069E+02  0.13781913611E+03  0.12509000000E+03 0.  0.
         25    1    3    3    0    0  0.41899641242E+02 -0.35586848927E+02 -0.26480813688E+03  0.29798131017E+03  0.12509000000E+03 0.  0.
<mgrwt>
<rscale>  2 0.45442806E+03</rscale>
<asrwt>0</asrwt>
<pdfrwt beam="1">  1       21 0.10989232E-01 0.45442806E+03</pdfrwt>
<pdfrwt beam="2">  1       21 0.10159799E+00 0.45442806E+03</pdfrwt>
<totfact> 0.49696645E+04</totfact>
</mgrwt>
</event>
<event>
 7    0  0.4714446E-002  0.4538821E+03  0.7546771E-02  0.1026571E+00
         21   -1    0    0  502  501  0.00000000000E+00  0.00000000000E+00  0.33292553062E+02  0.33292553062E+02  0.00000000000E+00 0.  1.
         21   -1    0    0  501  502 -0.00000000000E+00 -0.00000000000E+00 -0.15469598824E+04  0.15469598824E+04  0.00000000000E+00 0.  1.
      99926    2    1    2    0    0 -0.14210854715E-13  0.00000000000E+00 -0.15136673294E+04  0.15802524355E+04  0.45388211673E+03 0.  0.
      99925    2    3    3    0    0 -0.10379568192E+03 -0.23851191550E+02 -0.83292309589E+03  0.87996489281E+03  0.26312526672E+03 0.  0.
         25    1    4    4    0    0 -0.77232227831E+02 -0.41794305310E+02 -0.40046185461E+03  0.42863595984E+03  0.12509000000E+03 0.  0.
         25    1    3    3    0    0  0.10379568192E+03  0.23851191550E+02 -0.68074423349E+03  0.70028754269E+03  0.12509000000E+03 0.  0.
         25    1    4    4    0    0 -0.26563454088E+02  0.17943113760E+02 -0.43246124128E+03  0.45132893297E+03  0.12509000000E+03 0.  0.
<mgrwt>
<rscale>  2 0.45388212E+03</rscale>
<asrwt>0</asrwt>
<pdfrwt beam="1">  1       21 0.48959639E-02 0.45388212E+03</pdfrwt>
<pdfrwt beam="2">  1       21 0.22749409E+00 0.45388212E+03</pdfrwt>
<totfact> 0.22069958E+04</totfact>
</mgrwt>
</event>
<event>
 7    0  0.4714446E-002  0.4571424E+03  0.7546771E-02  0.1025613E+00
         21   -1    0    0  502  501  0.00000000000E+00  0.00000000000E+00  0.60551778205E+02  0.60551778205E+02  0.00000000000E+00 0.  1.
         21   -1    0    0  501  502 -0.00000000000E+00 -0.00000000000E+00 -0.86281170008E+03  0.86281170008E+03  0.00000000000E+00 0.  1.
      99926    2    1    2    0    0 -0.22204460493E-15 -0.14210854715E-13 -0.80225992187E+03  0.92336347828E+03  0.45714235286E+03 0.  0.
      99925    2    3    3    0    0  0.14417530917E+01  0.10398665680E+03 -0.60335707473E+03  0.66640987518E+03  0.26314835866E+03 0.  0.
         25    1    3    3    0    0 -0.14417530917E+01 -0.10398665680E+03 -0.19890284714E+03  0.25695360310E+03  0.12509000000E+03 0.  0.
         25    1    4    4    0    0 -0.28313668532E+02  0.32691500896E+02 -0.23351386235E+03  0.26841503324E+03  0.12509000000E+03 0.  0.
         25    1    4    4    0    0  0.29755421624E+02  0.71295155909E+02 -0.36984321238E+03  0.39799484194E+03  0.12509000000E+03 0.  0.
<mgrwt>
<rscale>  2 0.45714235E+03</rscale>
<asrwt>0</asrwt>
<pdfrwt beam="1">  1       21 0.89046734E-02 0.45714235E+03</pdfrwt>
<pdfrwt beam="2">  1       21 0.12688407E+00 0.45714235E+03</pdfrwt>
<totfact> 0.41538225E+04</totfact>
</mgrwt>
</event>
<event>
 7    0  0.4714446E-002  0.4593928E+03  0.7546771E-02  0.1024957E+00
         21   -1    0    0  502  501  0.00000000000E+00  0.00000000000E+00  0.11250657125E+04  0.11250657125E+04  0.00000000000E+00 0. -1.
         21   -1    0    0  501  502 -0.00000000000E+00 -0.00000000000E+00 -0.46895425147E+02  0.46895425147E+02  0.00000000000E+00 0. -1.
      99926    2    1    2    0    0  0.00000000000E+00  0.00000000000E+00  0.10781702874E+04  0.11719611377E+04  0.45939279449E+03 0.  0.
      99925    2    3    3    0    0  0.73871343237E+02  0.90932348868E+02  0.68802188509E+03  0.74582858631E+03  0.26298383671E+03 0.  0.
         25    1    4    4    0    0  0.74705785744E+02  0.31378489892E+02  0.37392520308E+03  0.40253338949E+03  0.12509000000E+03 0.  0.
         25    1    4    4    0    0 -0.83444250711E+00  0.59553858976E+02  0.31409668200E+03  0.34329519682E+03  0.12509000000E+03 0.  0.
         25    1    3    3    0    0 -0.73871343237E+02 -0.90932348868E+02  0.39014840228E+03  0.42613255136E+03  0.12509000000E+03 0.  0.
<mgrwt>
<rscale>  2 0.45939279E+03</rscale>
<asrwt>0</asrwt>
<pdfrwt beam="1">  1       21 0.16545082E+00 0.45939279E+03</pdfrwt>
<pdfrwt beam="2">  1       21 0.68963868E-02 0.45939279E+03</pdfrwt>
<totfact> 0.31949843E+04</totfact>
</mgrwt>
</event>
<event>
 7    0  0.4714446E-002  0.4551755E+03  0.7546771E-02  0.1026190E+00
         21   -1    0    0  502  501  0.00000000000E+00  0.00000000000E+00  0.61882299545E+02  0.61882299545E+02  0.00000000000E+00 0. -1.
         21   -1    0    0  501  502 -0.00000000000E+00 -0.00000000000E+00 -0.83701113715E+03  0.83701113715E+03  0.00000000000E+00 0. -1.
      99926    2    1    2    0    0  0.71054273576E-14  0.00000000000E+00 -0.77512883760E+03  0.89889343669E+03  0.45517545589E+03 0.  0.
      99925    2    3    3    0    0  0.61807025445E+02 -0.53202668829E+02 -0.64298822427E+03  0.69949613943E+03  0.26307861973E+03 0.  0.
         25    1    4    4    0    0  0.51663862880E+02 -0.11650260096E+02 -0.24516853424E+03  0.28028557146E+03  0.12509000000E+03 0.  0.
         25    1    3    3    0    0 -0.61807025445E+02  0.53202668829E+02 -0.13214061333E+03  0.19939729726E+03  0.12509000000E+03 0.  0.
         25    1    4    4    0    0  0.10143162565E+02 -0.41552408733E+02 -0.39781969003E+03  0.41921056797E+03  0.12509000000E+03 0.  0.
<mgrwt>
<rscale>  2 0.45517546E+03</rscale>
<asrwt>0</asrwt>
<pdfrwt beam="1">  1       21 0.91003382E-02 0.45517546E+03</pdfrwt>
<pdfrwt beam="2">  1       21 0.12308987E+00 0.45517546E+03</pdfrwt>
<totfact> 0.43222156E+04</totfact>
</mgrwt>
</event>
<event>
 7    0  0.4714446E-002  0.4507164E+03  0.7546771E-02  0.1027509E+00
         21   -1    0    0  502  501  0.00000000000E+00  0.00000000000E+00  0.42485659736E+03  0.42485659736E+03  0.00000000000E+00 0. -1.
         21   -1    0    0  501  502 -0.00000000000E+00 -0.00000000000E+00 -0.11953754234E+03  0.11953754234E+03  0.00000000000E+00 0. -1.
      99926    2    1    2    0    0  0.00000000000E+00  0.00000000000E+00  0.30531905502E+03  0.54439413969E+03  0.45071637864E+03 0.  0.
      99925    2    3    3    0    0  0.44584133071E+02 -0.68810287845E+02  0.10597908086E+03  0.29518231407E+03  0.26301793156E+03 0.  0.
         25    1    3    3    0    0 -0.44584133071E+02  0.68810287845E+02  0.19933997416E+03  0.24921182563E+03  0.12509000000E+03 0.  0.
         25    1    4    4    0    0  0.25139315389E+02  0.67909819457E+01  0.55854439380E+02  0.13944650986E+03  0.12509000000E+03 0.  0.
         25    1    4    4    0    0  0.19444817682E+02 -0.75601269790E+02  0.50124641477E+02  0.15573580421E+03  0.12509000000E+03 0.  0.
<mgrwt>
<rscale>  2 0.45071638E+03</rscale>
<asrwt>0</asrwt>
<pdfrwt beam="1">  1       21 0.62478911E-01 0.45071638E+03</pdfrwt>
<pdfrwt beam="2">  1       21 0.17579051E-01 0.45071638E+03</pdfrwt>
<totfact> 0.64393574E+04</totfact>
</mgrwt>
</event>
<event>
 7    0  0.4714446E-002  0.4034337E+03  0.7546771E-02  0.1042597E+00
         21   -1    0    0  502  501  0.00000000000E+00  0.00000000000E+00  0.14747865172E+03  0.14747865172E+03  0.00000000000E+00 0. -1.
         21   -1    0    0  501  502 -0.00000000000E+00 -0.00000000000E+00 -0.27590219639E+03  0.27590219639E+03  0.00000000000E+00 0. -1.
      99926    2    1    2    0    0 -0.17763568394E-14  0.35527136788E-14 -0.12842354467E+03  0.42338084812E+03  0.40343368195E+03 0.  0.
      99925    2    3    3    0    0  0.11491410767E+02 -0.26743945717E+02 -0.13012932173E+03  0.29493744062E+03  0.26307254200E+03 0.  0.
         25    1    3    3    0    0 -0.11491410767E+02  0.26743945717E+02  0.17057770634E+01  0.12844340750E+03  0.12509000000E+03 0.  0.
         25    1    4    4    0    0  0.14991077910E+02  0.19778268334E+02 -0.39238196798E+02  0.13342809488E+03  0.12509000000E+03 0.  0.
         25    1    4    4    0    0 -0.34996671435E+01 -0.46522214050E+02 -0.90891124936E+02  0.16150934574E+03  0.12509000000E+03 0.  0.
<mgrwt>
<rscale>  2 0.40343368E+03</rscale>
<asrwt>0</asrwt>
<pdfrwt beam="1">  1       21 0.21688037E-01 0.40343368E+03</pdfrwt>
<pdfrwt beam="2">  1       21 0.40573852E-01 0.40343368E+03</pdfrwt>
<totfact> 0.10943779E+05</totfact>
</mgrwt>
</event>
<event>
 7    0  0.4714446E-002  0.4612817E+03  0.7546771E-02  0.1024410E+00
         21   -1    0    0  502  501  0.00000000000E+00  0.00000000000E+00  0.57790463100E+02  0.57790463100E+02  0.00000000000E+00 0. -1.
         21   -1    0    0  501  502 -0.00000000000E+00 -0.00000000000E+00 -0.92048394481E+03  0.92048394481E+03  0.00000000000E+00 0. -1.
      99926    2    1    2    0    0  0.00000000000E+00  0.00000000000E+00 -0.86269348171E+03  0.97827440791E+03  0.46128166426E+03 0.  0.
      99925    2    3    3    0    0  0.10058449885E+03  0.63642605101E+02 -0.54652271130E+03  0.61802576218E+03  0.26287096864E+03 0.  0.
         25    1    3    3    0    0 -0.10058449885E+03 -0.63642605101E+02 -0.31617077040E+03  0.36024864573E+03  0.12509000000E+03 0.  0.
         25    1    4    4    0    0  0.31172302761E+02  0.63037054204E+02 -0.31001379136E+03  0.34161592702E+03  0.12509000000E+03 0.  0.
         25    1    4    4    0    0  0.69412196086E+02  0.60555089763E+00 -0.23650891995E+03  0.27640983516E+03  0.12509000000E+03 0.  0.
<mgrwt>
<rscale>  2 0.46128166E+03</rscale>
<asrwt>0</asrwt>
<pdfrwt beam="1">  1       21 0.84985982E-02 0.46128166E+03</pdfrwt>
<pdfrwt beam="2">  1       21 0.13536528E+00 0.46128166E+03</pdfrwt>
<totfact> 0.38110396E+04</totfact>
</mgrwt>
</event>
<event>
 6    0  0.4714446E-002  0.4523621E+03  0.7546771E-02  0.1027020E+00
         21   -1    0    0  502  501  0.00000000000E+00  0.00000000000E+00  0.14964795896E+03  0.14964795896E+03  0.00000000000E+00 0. -1.
         21   -1    0    0  501  502 -0.00000000000E+00 -0.00000000000E+00 -0.34185481964E+03  0.34185481964E+03  0.00000000000E+00 0. -1.
      99926    2    1    2    0    0  0.17763568394E-14  0.00000000000E+00 -0.19220686067E+03  0.49150277860E+03  0.45236213820E+03 0.  0.
         25    1    3    3    0    0  0.29396763262E+02  0.58308627619E+02 -0.66857816726E+02  0.15614589813E+03  0.12509000000E+03 0.  0.
         25    1    3    3    0    0  0.15205858605E+02 -0.93985836308E+02 -0.12914961080E+02  0.15773033913E+03  0.12509000000E+03 0.  0.
         25    1    3    3    0    0 -0.44602621867E+02  0.35677208689E+02 -0.11243408287E+03  0.17762654134E+03  0.12509000000E+03 0.  0.
<mgrwt>
<rscale>  2 0.45236214E+03</rscale>
<asrwt>0</asrwt>
<pdfrwt beam="1">  1       21 0.22007053E-01 0.45236214E+03</pdfrwt>
<pdfrwt beam="2">  1       21 0.50272768E-01 0.45236214E+03</pdfrwt>
<totfact> 0.67269527E+04</totfact>
</mgrwt>
</event>
<event>
 7    0  0.4714446E-002  0.4782603E+03  0.7546771E-02  0.1019614E+00
         21   -1    0    0  502  501  0.00000000000E+00  0.00000000000E+00  0.57800602646E+03  0.57800602646E+03  0.00000000000E+00 0. -1.
         21   -1    0    0  501  502 -0.00000000000E+00 -0.00000000000E+00 -0.98931896335E+02  0.98931896335E+02  0.00000000000E+00 0. -1.
      99926    2    1    2    0    0  0.00000000000E+00  0.71054273576E-14  0.47907413013E+03  0.67693792280E+03  0.47826031527E+03 0.  0.
      99925    2    3    3    0    0  0.10651804442E+02 -0.48401763826E+02  0.11968863885E+03  0.29319109073E+03  0.26301987327E+03 0.  0.
         25    1    4    4    0    0  0.10575451370E+02 -0.64986744700E+02  0.59161094072E+02  0.15324053090E+03  0.12509000000E+03 0.  0.
         25    1    3    3    0    0 -0.10651804442E+02  0.48401763826E+02  0.35938549128E+03  0.38374683207E+03  0.12509000000E+03 0.  0.
         25    1    4    4    0    0  0.76353072330E-01  0.16584980875E+02  0.60527544774E+02  0.13995055983E+03  0.12509000000E+03 0.  0.
<mgrwt>
<rscale>  2 0.47826032E+03</rscale>
<asrwt>0</asrwt>
<pdfrwt beam="1">  1       21 0.85000885E-01 0.47826032E+03</pdfrwt>
<pdfrwt beam="2">  1       21 0.14548809E-01 0.47826032E+03</pdfrwt>
<totfact> 0.45281769E+04</totfact>
</mgrwt>
</event>
<event>
 7    0  0.4714446E-002  0.4514637E+03  0.7546771E-02  0.1027286E+00
         21   -1    0    0  502  501  0.00000000000E+00  0.00000000000E+00  0.77199452828E+03  0.77199452828E+03  0.00000000000E+00 0. -1.
         21   -1    0    0  501  502 -0.00000000000E+00 -0.00000000000E+00 -0.66004170289E+02  0.66004170289E+02  0.00000000000E+00 0. -1.
      99926    2    1    2    0    0  0.35527136788E-14 -0.71054273576E-14  0.70599035799E+03  0.83799869857E+03  0.45146365660E+03 0.  0.
      99925    2    3    3    0    0  0.30902847498E+02  0.41751862514E+02  0.62532257221E+03  0.68035034378E+03  0.26296400314E+03 0.  0.
         25    1    4    4    0    0  0.20635457216E+02  0.55567819808E+02  0.38024275791E+03  0.40465499841E+03  0.12509000000E+03 0.  0.
         25    1    4    4    0    0  0.10267390282E+02 -0.13815957293E+02  0.24507981430E+03  0.27569534537E+03  0.12509000000E+03 0.  0.
         25    1    3    3    0    0 -0.30902847498E+02 -0.41751862514E+02  0.80667785780E+02  0.15764835479E+03  0.12509000000E+03 0.  0.
<mgrwt>
<rscale>  2 0.45146366E+03</rscale>
<asrwt>0</asrwt>
<pdfrwt beam="1">  1       21 0.11352860E+00 0.45146366E+03</pdfrwt>
<pdfrwt beam="2">  1       21 0.97064961E-02 0.45146366E+03</pdfrwt>
<totfact> 0.47279247E+04</totfact>
</mgrwt>
</event>
<event>
 7    0  0.4714446E-002  0.4519315E+03  0.7546771E-02  0.1027148E+00
         21   -1    0    0  502  501  0.00000000000E+00  0.00000000000E+00  0.24061838662E+02  0.24061838662E+02  0.00000000000E+00 0.  1.
         21   -1    0    0  501  502 -0.00000000000E+00 -0.00000000000E+00 -0.21220543032E+04  0.21220543032E+04  0.00000000000E+00 0.  1.
      99926    2    1    2    0    0  0.00000000000E+00 -0.35527136788E-14 -0.20979924646E+04  0.21461161419E+04  0.45193153586E+03 0.  0.
      99925    2    3    3    0    0 -0.61080420861E+02  0.25634278146E+02 -0.90494343436E+03  0.94469971508E+03  0.26295816826E+03 0.  0.
         25    1    3    3    0    0  0.61080420861E+02 -0.25634278146E+02 -0.11930490302E+04  0.12014164268E+04  0.12509000000E+03 0.  0.
         25    1    4    4    0    0 -0.39595312858E+02 -0.36654794515E+01 -0.32915798096E+03  0.35436380891E+03  0.12509000000E+03 0.  0.
         25    1    4    4    0    0 -0.21485108003E+02  0.29299757598E+02 -0.57578545340E+03  0.59033590617E+03  0.12509000000E+03 0.  0.
<mgrwt>
<rscale>  2 0.45193154E+03</rscale>
<asrwt>0</asrwt>
<pdfrwt beam="1">  1       21 0.35385064E-02 0.45193154E+03</pdfrwt>
<pdfrwt beam="2">  1       21 0.31206675E+00 0.45193154E+03</pdfrwt>
<totfact> 0.11744914E+04</totfact>
</mgrwt>
</event>
<event>
 7    0  0.4714446E-002  0.4490023E+03  0.7546771E-02  0.1028020E+00
         21   -1    0    0  502  501  0.00000000000E+00  0.00000000000E+00  0.99797486282E+02  0.99797486282E+02  0.00000000000E+00 0.  1.
         21   -1    0    0  501  502 -0.00000000000E+00 -0.00000000000E+00 -0.50503037725E+03  0.50503037725E+03  0.00000000000E+00 0.  1.
      99926    2    1    2    0    0  0.00000000000E+00  0.14210854715E-13 -0.40523289097E+03  0.60482786354E+03  0.44900228127E+03 0.  0.
      99925    2    3    3    0    0 -0.45295042898E+02 -0.93519354658E+02 -0.29329283059E+03  0.40740548430E+03  0.26298485422E+03 0.  0.
         25    1    4    4    0    0 -0.57071504104E+02 -0.72283274366E+02 -0.15965095482E+03  0.22275090080E+03  0.12509000000E+03 0.  0.
         25    1    3    3    0    0  0.45295042898E+02  0.93519354658E+02 -0.11194006038E+03  0.19742237924E+03  0.12509000000E+03 0.  0.
         25    1    4    4    0    0  0.11776461206E+02 -0.21236080292E+02 -0.13364187578E+03  0.18465458350E+03  0.12509000000E+03 0.  0.
<mgrwt>
<rscale>  2 0.44900228E+03</rscale>
<asrwt>0</asrwt>
<pdfrwt beam="1">  1       21 0.14676101E-01 0.44900228E+03</pdfrwt>
<pdfrwt beam="2">  1       21 0.74269173E-01 0.44900228E+03</pdfrwt>
<totfact> 0.61232178E+04</totfact>
</mgrwt>
</event>
<event>
 7    0  0.4714446E-002  0.4513179E+03  0.7546771E-02  0.1027330E+00
         21   -1    0    0  502  501  0.00000000000E+00  0.00000000000E+00  0.70796231256E+02  0.70796231256E+02  0.00000000000E+00 0. -1.
         21   -1    0    0  501  502 -0.00000000000E+00 -0.00000000000E+00 -0.71927513722E+03  0.71927513722E+03  0.00000000000E+00 0. -1.
      99926    2    1    2    0    0  0.00000000000E+00  0.00000000000E+00 -0.64847890596E+03  0.79007136847E+03  0.45131793207E+03 0.  0.
      99925    2    3    3    0    0 -0.83954420689E+02  0.13633663131E+02 -0.53063068369E+03  0.59831649079E+03  0.26301992159E+03 0.  0.
         25    1    4    4    0    0 -0.31618743878E+02 -0.30532368492E+02 -0.28395969763E+03  0.31338887738E+03  0.12509000000E+03 0.  0.
         25    1    4    4    0    0 -0.52335676811E+02  0.44166031623E+02 -0.24667098606E+03  0.28492761340E+03  0.12509000000E+03 0.  0.
         25    1    3    3    0    0  0.83954420689E+02 -0.13633663131E+02 -0.11784822228E+03  0.19175487769E+03  0.12509000000E+03 0.  0.
<mgrwt>
<rscale>  2 0.45131793E+03</rscale>
<asrwt>0</asrwt>
<pdfrwt beam="1">  1       21 0.10411210E-01 0.45131793E+03</pdfrwt>
<pdfrwt beam="2">  1       21 0.10577576E+00 0.45131793E+03</pdfrwt>
<totfact> 0.49668690E+04</totfact>
</mgrwt>
</event>
<event>
 7    0  0.4714446E-002  0.4485057E+03  0.7546771E-02  0.1028169E+00
         21   -1    0    0  502  501  0.00000000000E+00  0.00000000000E+00  0.23019145339E+02  0.23019145339E+02  0.00000000000E+00 0.  1.
         21   -1    0    0  501  502 -0.00000000000E+00 -0.00000000000E+00 -0.21846745908E+04  0.21846745908E+04  0.00000000000E+00 0.  1.
      99926    2    1    2    0    0  0.14210854715E-13  0.00000000000E+00 -0.21616554455E+04  0.22076937361E+04  0.44850570531E+03 0.  0.
      99925    2    3    3    0    0  0.10364148737E+03 -0.50176418336E+00 -0.14975245351E+04  0.15239838679E+04  0.26306897737E+03 0.  0.
         25    1    4    4    0    0  0.26887441885E+02  0.11203864389E+01 -0.52046230190E+03  0.53595961191E+03  0.12509000000E+03 0.  0.
         25    1    3    3    0    0 -0.10364148737E+03  0.50176418336E+00 -0.66413091038E+03  0.68370986821E+03  0.12509000000E+03 0.  0.
         25    1    4    4    0    0  0.76754045485E+02 -0.16221506223E+01 -0.97706223318E+03  0.98802425601E+03  0.12509000000E+03 0.  0.
<mgrwt>
<rscale>  2 0.44850571E+03</rscale>
<asrwt>0</asrwt>
<pdfrwt beam="1">  1       21 0.33851681E-02 0.44850571E+03</pdfrwt>
<pdfrwt beam="2">  1       21 0.32127571E+00 0.44850571E+03</pdfrwt>
<totfact> 0.11158086E+04</totfact>
</mgrwt>
</event>
<event>
 7    0  0.4714446E-002  0.4237936E+03  0.7546771E-02  0.1035839E+00
         21   -1    0    0  502  501  0.00000000000E+00  0.00000000000E+00  0.35765983457E+03  0.35765983457E+03  0.00000000000E+00 0.  1.
         21   -1    0    0  501  502 -0.00000000000E+00 -0.00000000000E+00 -0.12553896539E+03  0.12553896539E+03  0.00000000000E+00 0.  1.
      99926    2    1    2    0    0  0.00000000000E+00 -0.35527136788E-14  0.23212086917E+03  0.48319879996E+03  0.42379356104E+03 0.  0.
      99925    2    3    3    0    0  0.36560792712E+02 -0.31902279445E+02  0.22396479376E+03  0.34877976610E+03  0.26293088332E+03 0.  0.
         25    1    3    3    0    0 -0.36560792712E+02  0.31902279445E+02  0.81560754179E+01  0.13441903386E+03  0.12509000000E+03 0.  0.
         25    1    4    4    0    0 -0.22403877894E+02 -0.17123418046E+02  0.10364014078E+03  0.16487550476E+03  0.12509000000E+03 0.  0.
         25    1    4    4    0    0  0.58964670605E+02 -0.14778861400E+02  0.12032465298E+03  0.18390426134E+03  0.12509000000E+03 0.  0.
<mgrwt>
<rscale>  2 0.42379356E+03</rscale>
<asrwt>0</asrwt>
<pdfrwt beam="1">  1       21 0.52597034E-01 0.42379356E+03</pdfrwt>
<pdfrwt beam="2">  1       21 0.18461613E-01 0.42379356E+03</pdfrwt>
<totfact> 0.85838325E+04</totfact>
</mgrwt>
</event>
<event>
 7    0  0.4714446E-002  0.4503033E+03  0.7546771E-02  0.1027632E+00
         21   -1    0    0  502  501  0.00000000000E+00  0.00000000000E+00  0.10177237626E+04  0.10177237626E+04  0.00000000000E+00 0. -1.
         21   -1    0    0  501  502 -0.00000000000E+00 -0.00000000000E+00 -0.49810440467E+02  0.49810440467E+02  0.00000000000E+00 0. -1.
      99926    2    1    2    0    0 -0.35527136788E-14  0.00000000000E+00  0.96791332210E+03  0.10675342030E+04  0.45030331505E+03 0.  0.
      99925    2    3    3    0    0  0.18074248333E+02 -0.18421992573E+02  0.86228531328E+03  0.90179092983E+03  0.26272584831E+03 0.  0.
         25    1    4    4    0    0  0.44374147694E+02  0.96695151467E+01  0.42730068252E+03  0.44754435075E+03  0.12509000000E+03 0.  0.
         25    1    4    4    0    0 -0.26299899361E+02 -0.28091507720E+02  0.43498463075E+03  0.45424657908E+03  0.12509000000E+03 0.  0.
         25    1    3    3    0    0 -0.18074248333E+02  0.18421992573E+02  0.10562800882E+03  0.16574327320E+03  0.12509000000E+03 0.  0.
<mgrwt>
<rscale>  2 0.45030332E+03</rscale>
<asrwt>0</asrwt>
<pdfrwt beam="1">  1       21 0.14966525E+00 0.45030332E+03</pdfrwt>
<pdfrwt beam="2">  1       21 0.73250654E-02 0.45030332E+03</pdfrwt>
<totfact> 0.38014837E+04</totfact>
</mgrwt>
</event>
<event>
 7    0  0.4714446E-002  0.4704908E+03  0.7546771E-02  0.1021782E+00
         21   -1    0    0  502  501  0.00000000000E+00  0.00000000000E+00  0.79122754393E+03  0.79122754393E+03  0.00000000000E+00 0. -1.
         21   -1    0    0  501  502 -0.00000000000E+00 -0.00000000000E+00 -0.69942452378E+02  0.69942452378E+02  0.00000000000E+00 0. -1.
      99926    2    1    2    0    0 -0.14210854715E-13 -0.35527136788E-14  0.72128509155E+03  0.86116999631E+03  0.47049078551E+03 0.  0.
      99925    2    3    3    0    0  0.10455516063E+03  0.21054841867E+02  0.32106169938E+03  0.42850227193E+03  0.26298002635E+03 0.  0.
         25    1    4    4    0    0  0.39025018646E+02 -0.28531443343E+02  0.15353221117E+03  0.20385446600E+03  0.12509000000E+03 0.  0.
         25    1    4    4    0    0  0.65530141985E+02  0.49586285210E+02  0.16752948821E+03  0.22464780593E+03  0.12509000000E+03 0.  0.
         25    1    3    3    0    0 -0.10455516063E+03 -0.21054841867E+02  0.40022339217E+03  0.43266772438E+03  0.12509000000E+03 0.  0.
<mgrwt>
<rscale>  2 0.47049079E+03</rscale>
<asrwt>0</asrwt>
<pdfrwt beam="1">  1       21 0.11635699E+00 0.47049079E+03</pdfrwt>
<pdfrwt beam="2">  1       21 0.10285655E-01 0.47049079E+03</pdfrwt>
<totfact> 0.39873460E+04</totfact>
</mgrwt>
</event>
<event>
 7    0  0.4714446E-002  0.4626840E+03  0.7546771E-02  0.1024006E+00
         21   -1    0    0  502  501  0.00000000000E+00  0.00000000000E+00  0.23260408546E+03  0.23260408546E+03  0.00000000000E+00 0. -1.
         21   -1    0    0  501  502 -0.00000000000E+00 -0.00000000000E+00 -0.23008673285E+03  0.23008673285E+03  0.00000000000E+00 0. -1.
      99926    2    1    2    0    0  0.00000000000E+00 -0.71054273576E-14  0.25173526082E+01  0.46269081831E+03  0.46268397020E+03 0.  0.
      99925    2    3    3    0    0  0.18512643250E+02 -0.57002652080E+02  0.10586978618E+03  0.28971320725E+03  0.26293214053E+03 0.  0.
         25    1    4    4    0    0  0.44373456661E+02 -0.49710539776E+02  0.56229651186E+02  0.15247761538E+03  0.12509000000E+03 0.  0.
         25    1    3    3    0    0 -0.18512643250E+02  0.57002652080E+02 -0.10335243357E+03  0.17297761106E+03  0.12509000000E+03 0.  0.
         25    1    4    4    0    0 -0.25860813411E+02 -0.72921123037E+01  0.49640134990E+02  0.13723559186E+03  0.12509000000E+03 0.  0.
<mgrwt>
<rscale>  2 0.46268397E+03</rscale>
<asrwt>0</asrwt>
<pdfrwt beam="1">  1       21 0.34206483E-01 0.46268397E+03</pdfrwt>
<pdfrwt beam="2">  1       21 0.33836284E-01 0.46268397E+03</pdfrwt>
<totfact> 0.63972925E+04</totfact>
</mgrwt>
</event>
<event>
 7    0  0.4714446E-002  0.4644317E+03  0.7546771E-02  0.1023504E+00
         21   -1    0    0  502  501  0.00000000000E+00  0.00000000000E+00  0.82941078116E+03  0.82941078116E+03  0.00000000000E+00 0. -1.
         21   -1    0    0  501  502 -0.00000000000E+00 -0.00000000000E+00 -0.65015081329E+02  0.65015081329E+02  0.00000000000E+00 0. -1.
      99926    2    1    2    0    0  0.00000000000E+00  0.00000000000E+00  0.76439569983E+03  0.89442586248E+03  0.46443173618E+03 0.  0.
      99925    2    3    3    0    0 -0.30064581992E+02 -0.93630082382E+02  0.61548567627E+03  0.67649886867E+03  0.26297838352E+03 0.  0.
         25    1    4    4    0    0 -0.88247865630E+01 -0.60612075137E+01  0.30557731099E+03  0.33036285534E+03  0.12509000000E+03 0.  0.
         25    1    4    4    0    0 -0.21239795429E+02 -0.87568874869E+02  0.30990836528E+03  0.34613601334E+03  0.12509000000E+03 0.  0.
         25    1    3    3    0    0  0.30064581992E+02  0.93630082382E+02  0.14891002355E+03  0.21792699381E+03  0.12509000000E+03 0.  0.
<mgrwt>
<rscale>  2 0.46443174E+03</rscale>
<asrwt>0</asrwt>
<pdfrwt beam="1">  1       21 0.12197217E+00 0.46443174E+03</pdfrwt>
<pdfrwt beam="2">  1       21 0.95610419E-02 0.46443174E+03</pdfrwt>
<totfact> 0.40407676E+04</totfact>
</mgrwt>
</event>
<event>
 7    0  0.4714446E-002  0.4684481E+03  0.7546771E-02  0.1022359E+00
         21   -1    0    0  502  501  0.00000000000E+00  0.00000000000E+00  0.27214588519E+03  0.27214588519E+03  0.00000000000E+00 0. -1.
         21   -1    0    0  501  502 -0.00000000000E+00 -0.00000000000E+00 -0.20158642385E+03  0.20158642385E+03  0.00000000000E+00 0. -1.
      99926    2    1    2    0    0  0.00000000000E+00  0.71054273576E-14  0.70559461343E+02  0.47373230904E+03  0.46844814339E+03 0.  0.
      99925    2    3    3    0    0 -0.85208386323E+02  0.52753816368E+02  0.12006879995E+03  0.30597618561E+03  0.26298569390E+03 0.  0.
         25    1    3    3    0    0  0.85208386323E+02 -0.52753816368E+02 -0.49509338608E+02  0.16775612344E+03  0.12509000000E+03 0.  0.
         25    1    4    4    0    0 -0.44448048296E+02  0.93301371371E+00  0.23689248721E+02  0.13485246797E+03  0.12509000000E+03 0.  0.
         25    1    4    4    0    0 -0.40760338027E+02  0.51820802654E+02  0.96379551229E+02  0.17112371764E+03  0.12509000000E+03 0.  0.
<mgrwt>
<rscale>  2 0.46844814E+03</rscale>
<asrwt>0</asrwt>
<pdfrwt beam="1">  1       21 0.40021454E-01 0.46844814E+03</pdfrwt>
<pdfrwt beam="2">  1       21 0.29645062E-01 0.46844814E+03</pdfrwt>
<totfact> 0.60442203E+04</totfact>
</mgrwt>
</event>
<event>
 7    0  0.4714446E-002  0.4605028E+03  0.7546771E-02  0.1024636E+00
         21   -1    0    0  502  501  0.00000000000E+00  0.00000000000E+00  0.72739634276E+03  0.72739634276E+03  0.00000000000E+00 0. -1.
         21   -1    0    0  501  502 -0.00000000000E+00 -0.00000000000E+00 -0.72884195854E+02  0.72884195854E+02  0.00000000000E+00 0. -1.
      99926    2    1    2    0    0  0.00000000000E+00  0.00000000000E+00  0.65451214691E+03  0.80028053862E+03  0.46050275790E+03 0.  0.
      99925    2    3    3    0    0  0.10446483082E+03  0.26220780588E+02  0.32482587632E+03  0.43157879557E+03  0.26296002860E+03 0.  0.
         25    1    4    4    0    0  0.94773902501E+02  0.21965505906E+02  0.18836498106E+03  0.24615736884E+03  0.12509000000E+03 0.  0.
         25    1    4    4    0    0  0.96909283178E+01  0.42552746824E+01  0.13646089527E+03  0.18542142673E+03  0.12509000000E+03 0.  0.
         25    1    3    3    0    0 -0.10446483082E+03 -0.26220780588E+02  0.32968627059E+03  0.36870174305E+03  0.12509000000E+03 0.  0.
<mgrwt>
<rscale>  2 0.46050276E+03</rscale>
<asrwt>0</asrwt>
<pdfrwt beam="1">  1       21 0.10697005E+00 0.46050276E+03</pdfrwt>
<pdfrwt beam="2">  1       21 0.10718264E-01 0.46050276E+03</pdfrwt>
<totfact> 0.45743614E+04</totfact>
</mgrwt>
</event>
<event>
 7    0  0.4714446E-002  0.4479963E+03  0.7546771E-02  0.1028321E+00
         21   -1    0    0  502  501  0.00000000000E+00  0.00000000000E+00  0.14009739558E+03  0.14009739558E+03  0.00000000000E+00 0.  1.
         21   -1    0    0  501  502 -0.00000000000E+00 -0.00000000000E+00 -0.35814485189E+03  0.35814485189E+03  0.00000000000E+00 0.  1.
      99926    2    1    2    0    0  0.00000000000E+00  0.00000000000E+00 -0.21804745631E+03  0.49824224746E+03  0.44799625440E+03 0.  0.
      99925    2    3    3    0    0  0.68347916169E+02  0.52482673029E+02 -0.20757870467E+03  0.34598269448E+03  0.26303847178E+03 0.  0.
         25    1    4    4    0    0  0.41543560725E+01  0.25625887256E+02 -0.13360602844E+03  0.18485676539E+03  0.12509000000E+03 0.  0.
         25    1    4    4    0    0  0.64193560097E+02  0.26856785772E+02 -0.73972676222E+02  0.16112592910E+03  0.12509000000E+03 0.  0.
         25    1    3    3    0    0 -0.68347916169E+02 -0.52482673029E+02 -0.10468751647E+02  0.15225955298E+03  0.12509000000E+03 0.  0.
<mgrwt>
<rscale>  2 0.44799625E+03</rscale>
<asrwt>0</asrwt>
<pdfrwt beam="1">  1       21 0.20602559E-01 0.44799625E+03</pdfrwt>
<pdfrwt beam="2">  1       21 0.52668360E-01 0.44799625E+03</pdfrwt>
<totfact> 0.69159954E+04</totfact>
</mgrwt>
</event>
<event>
 6    0  0.4714446E-002  0.4433312E+03  0.7546771E-02  0.1029730E+00
         21   -1    0    0  502  501  0.00000000000E+00  0.00000000000E+00  0.44367915595E+03  0.44367915595E+03  0.00000000000E+00 0.  1.
         21   -1    0    0  501  502 -0.00000000000E+00 -0.00000000000E+00 -0.11074587379E+03  0.11074587379E+03  0.00000000000E+00 0.  1.
      99926    2    1    2    0    0  0.71054273576E-14  0.88817841970E-15  0.33293328216E+03  0.55442502975E+03  0.44333118912E+03 0.  0.
         25    1    3    3    0    0 -0.65153518702E+02  0.18993210583E+01  0.20045742554E+03  0.24511074226E+03  0.12509000000E+03 0.  0.
         25    1    3    3    0    0  0.18108662658E+02 -0.80651185269E+01  0.12079400639E+03  0.17501905576E+03  0.12509000000E+03 0.  0.
         25    1    3    3    0    0  0.47044856044E+02  0.61657974686E+01  0.11681850230E+02  0.13429523172E+03  0.12509000000E+03 0.  0.
<mgrwt>
<rscale>  2 0.44333119E+03</rscale>
<asrwt>0</asrwt>
<pdfrwt beam="1">  1       21 0.65246934E-01 0.44333119E+03</pdfrwt>
<pdfrwt beam="2">  1       21 0.16286158E-01 0.44333119E+03</pdfrwt>
<totfact> 0.67602683E+04</totfact>
</mgrwt>
</event>
<event>
 7    0  0.4714446E-002  0.4601569E+03  0.7546771E-02  0.1024736E+00
         21   -1    0    0  502  501  0.00000000000E+00  0.00000000000E+00  0.31231818649E+03  0.31231818649E+03  0.00000000000E+00 0. -1.
         21   -1    0    0  501  502 -0.00000000000E+00 -0.00000000000E+00 -0.16949412963E+03  0.16949412963E+03  0.00000000000E+00 0. -1.
      99926    2    1    2    0    0 -0.35527136788E-14 -0.17763568394E-14  0.14282405686E+03  0.48181231612E+03  0.46015692622E+03 0.  0.
      99925    2    3    3    0    0 -0.30848107797E+02 -0.98272014251E+01 -0.29626994130E+02  0.26632437508E+03  0.26268371541E+03 0.  0.
         25    1    4    4    0    0 -0.47602270036E+02 -0.25613783907E+02 -0.26046890225E+01  0.13629502758E+03  0.12509000000E+03 0.  0.
         25    1    3    3    0    0  0.30848107797E+02  0.98272014251E+01  0.17245105099E+03  0.21548794103E+03  0.12509000000E+03 0.  0.
         25    1    4    4    0    0  0.16754162239E+02  0.15786582482E+02 -0.27022305108E+02  0.13002934750E+03  0.12509000000E+03 0.  0.
<mgrwt>
<rscale>  2 0.46015693E+03</rscale>
<asrwt>0</asrwt>
<pdfrwt beam="1">  1       21 0.45929145E-01 0.46015693E+03</pdfrwt>
<pdfrwt beam="2">  1       21 0.24925607E-01 0.46015693E+03</pdfrwt>
<totfact> 0.63912083E+04</totfact>
</mgrwt>
</event>
<event>
 7    0  0.4714446E-002  0.4744591E+03  0.7546771E-02  0.1020669E+00
         21   -1    0    0  502  501  0.00000000000E+00  0.00000000000E+00  0.13795690050E+03  0.13795690050E+03  0.00000000000E+00 0.  1.
         21   -1    0    0  501  502 -0.00000000000E+00 -0.00000000000E+00 -0.40793791138E+03  0.40793791138E+03  0.00000000000E+00 0.  1.
      99926    2    1    2    0    0  0.00000000000E+00  0.00000000000E+00 -0.26998101088E+03  0.54589481188E+03  0.47445905977E+03 0.  0.
      99925    2    3    3    0    0  0.53049579210E+02  0.11348309202E+03 -0.20960070942E+03  0.35884947264E+03  0.26295972428E+03 0.  0.
         25    1    4    4    0    0  0.97485004203E+01  0.26430818882E+02 -0.62447603082E+02  0.14262129111E+03  0.12509000000E+03 0.  0.
         25    1    4    4    0    0  0.43301078789E+02  0.87052273134E+02 -0.14715310634E+03  0.21622818153E+03  0.12509000000E+03 0.  0.
         25    1    3    3    0    0 -0.53049579210E+02 -0.11348309202E+03 -0.60380301462E+02  0.18704533924E+03  0.12509000000E+03 0.  0.
<mgrwt>
<rscale>  2 0.47445906E+03</rscale>
<asrwt>0</asrwt>
<pdfrwt beam="1">  1       21 0.20287780E-01 0.47445906E+03</pdfrwt>
<pdfrwt beam="2">  1       21 0.59990869E-01 0.47445906E+03</pdfrwt>
<totfact> 0.53417629E+04</totfact>
</mgrwt>
</event>
<event>
 7    0  0.4714446E-002  0.4538412E+03  0.7546771E-02  0.1026583E+00
         21   -1    0    0  502  501  0.00000000000E+00  0.00000000000E+00  0.66609557713E+03  0.66609557713E+03  0.00000000000E+00 0.  1.
         21   -1    0    0  501  502 -0.00000000000E+00 -0.00000000000E+00 -0.77305649856E+02  0.77305649856E+02  0.00000000000E+00 0.  1.
      99926    2    1    2    0    0  0.00000000000E+00  0.00000000000E+00  0.58878992728E+03  0.74340122699E+03  0.45384116806E+03 0.  0.
      99925    2    3    3    0    0 -0.14737090192E+02 -0.11106451492E+03  0.36738543048E+03  0.46551641703E+03  0.26302275889E+03 0.  0.
         25    1    3    3    0    0  0.14737090192E+02  0.11106451492E+03  0.22140449680E+03  0.27788480996E+03  0.12509000000E+03 0.  0.
         25    1    4    4    0    0 -0.31834521106E+02 -0.81473732343E+02  0.16168101733E+03  0.22235032103E+03  0.12509000000E+03 0.  0.
         25    1    4    4    0    0  0.17097430914E+02 -0.29590782580E+02  0.20570441315E+03  0.24316609600E+03  0.12509000000E+03 0.  0.
<mgrwt>
<rscale>  2 0.45384117E+03</rscale>
<asrwt>0</asrwt>
<pdfrwt beam="1">  1       21 0.97955229E-01 0.45384117E+03</pdfrwt>
<pdfrwt beam="2">  1       21 0.11368478E-01 0.45384117E+03</pdfrwt>
<totfact> 0.51072734E+04</totfact>
</mgrwt>
</event>
<event>
 7    0  0.4714446E-002  0.4552251E+03  0.7546771E-02  0.1026175E+00
         21   -1    0    0  502  501  0.00000000000E+00  0.00000000000E+00  0.14828899028E+04  0.14828899028E+04  0.00000000000E+00 0. -1.
         21   -1    0    0  501  502 -0.00000000000E+00 -0.00000000000E+00 -0.34936831452E+02  0.34936831452E+02  0.00000000000E+00 0. -1.
      99926    2    1    2    0    0  0.00000000000E+00 -0.35527136788E-14  0.14479530713E+04  0.15178267342E+04  0.45522510737E+03 0.  0.
      99925    2    3    3    0    0 -0.62478271058E+02  0.23582100556E+02  0.60527296518E+03  0.66329942675E+03  0.26296600035E+03 0.  0.
         25    1    4    4    0    0 -0.42019475747E+02  0.47326111821E+02  0.35686676139E+03  0.38341464590E+03  0.12509000000E+03 0.  0.
         25    1    3    3    0    0  0.62478271058E+02 -0.23582100556E+02  0.84268010617E+03  0.85452730750E+03  0.12509000000E+03 0.  0.
         25    1    4    4    0    0 -0.20458795311E+02 -0.23744011265E+02  0.24840620378E+03  0.27988478086E+03  0.12509000000E+03 0.  0.
<mgrwt>
<rscale>  2 0.45522511E+03</rscale>
<asrwt>0</asrwt>
<pdfrwt beam="1">  1       21 0.21807200E+00 0.45522511E+03</pdfrwt>
<pdfrwt beam="2">  1       21 0.51377703E-02 0.45522511E+03</pdfrwt>
<totfact> 0.23304808E+04</totfact>
</mgrwt>
</event>
<event>
 7    0  0.4714446E-002  0.4470650E+03  0.7546771E-02  0.1028601E+00
         21   -1    0    0  502  501  0.00000000000E+00  0.00000000000E+00  0.10163371890E+03  0.10163371890E+03  0.00000000000E+00 0. -1.
         21   -1    0    0  501  502 -0.00000000000E+00 -0.00000000000E+00 -0.49163574169E+03  0.49163574169E+03  0.00000000000E+00 0. -1.
      99926    2    1    2    0    0  0.00000000000E+00  0.14210854715E-13 -0.39000202279E+03  0.59326946060E+03  0.44706495624E+03 0.  0.
      99925    2    3    3    0    0  0.64026624092E+02 -0.78193200751E+02 -0.20712964814E+03  0.34974656897E+03  0.26307106669E+03 0.  0.
         25    1    4    4    0    0  0.22897709681E+02 -0.78781752474E+02 -0.99315831678E+02  0.17956060858E+03  0.12509000000E+03 0.  0.
         25    1    4    4    0    0  0.41128914412E+02  0.58855172241E+00 -0.10781381647E+03  0.17018596039E+03  0.12509000000E+03 0.  0.
         25    1    3    3    0    0 -0.64026624092E+02  0.78193200751E+02 -0.18287237465E+03  0.24352289162E+03  0.12509000000E+03 0.  0.
<mgrwt>
<rscale>  2 0.44706496E+03</rscale>
<asrwt>0</asrwt>
<pdfrwt beam="1">  1       21 0.14946135E-01 0.44706496E+03</pdfrwt>
<pdfrwt beam="2">  1       21 0.72299374E-01 0.44706496E+03</pdfrwt>
<totfact> 0.62949971E+04</totfact>
</mgrwt>
</event>
<event>
 7    0  0.4714446E-002  0.4554210E+03  0.7546771E-02  0.1026118E+00
         21   -1    0    0  502  501  0.00000000000E+00  0.00000000000E+00  0.29668311480E+03  0.29668311480E+03  0.00000000000E+00 0. -1.
         21   -1    0    0  501  502 -0.00000000000E+00 -0.00000000000E+00 -0.17477260822E+03  0.17477260822E+03  0.00000000000E+00 0. -1.
      99926    2    1    2    0    0 -0.71054273576E-14  0.00000000000E+00  0.12191050658E+03  0.47145572302E+03  0.45542104382E+03 0.  0.
      99925    2    3    3    0    0 -0.59601566896E+02  0.80520313994E+02  0.13220821041E+03  0.31086488098E+03  0.26291081299E+03 0.  0.
         25    1    4    4    0    0 -0.16532203946E+02  0.77877751885E+02  0.81172731690E+02  0.16904075981E+03  0.12509000000E+03 0.  0.
         25    1    3    3    0    0  0.59601566896E+02 -0.80520313994E+02 -0.10297703832E+02  0.16059084204E+03  0.12509000000E+03 0.  0.
         25    1    4    4    0    0 -0.43069362950E+02  0.26425621092E+01  0.51035478722E+02  0.14182412118E+03  0.12509000000E+03 0.  0.
<mgrwt>
<rscale>  2 0.45542104E+03</rscale>
<asrwt>0</asrwt>
<pdfrwt beam="1">  1       21 0.43629870E-01 0.45542104E+03</pdfrwt>
<pdfrwt beam="2">  1       21 0.25701854E-01 0.45542104E+03</pdfrwt>
<totfact> 0.67103174E+04</totfact>
</mgrwt>
</event>
<event>
 7    0  0.4714446E-002  0.4487960E+03  0.7546771E-02  0.1028082E+00
         21   -1    0    0  502  501  0.00000000000E+00  0.00000000000E+00  0.43232785553E+03  0.43232785553E+03  0.00000000000E+00 0. -1.
         21   -1    0    0  501  502 -0.00000000000E+00 -0.00000000000E+00 -0.11647285298E+03  0.11647285298E+03  0.00000000000E+00 0. -1.
      99926    2    1    2    0    0  0.35527136788E-14  0.00000000000E+00  0.31585500255E+03  0.54880070851E+03  0.44879598375E+03 0.  0.
      99925    2    3    3    0    0 -0.14041515061E+02  0.32938973914E+02  0.32350253019E+03  0.41846217650E+03  0.26301058149E+03 0.  0.
         25    1    3    3    0    0  0.14041515061E+02 -0.32938973914E+02 -0.76475276441E+01  0.13033853201E+03  0.12509000000E+03 0.  0.
         25    1    4    4    0    0  0.22535271294E+02 -0.63424438633E+01  0.18237214765E+03  0.22238519147E+03  0.12509000000E+03 0.  0.
         25    1    4    4    0    0 -0.36576786355E+02  0.39281417777E+02  0.14113038254E+03  0.19607698503E+03  0.12509000000E+03 0.  0.
<mgrwt>
<rscale>  2 0.44879598E+03</rscale>
<asrwt>0</asrwt>
<pdfrwt beam="1">  1       21 0.63577625E-01 0.44879598E+03</pdfrwt>
<pdfrwt beam="2">  1       21 0.17128361E-01 0.44879598E+03</pdfrwt>
<totfact> 0.65082139E+04</totfact>
</mgrwt>
</event>
<event>
 7    0  0.4714446E-002  0.4532423E+03  0.7546771E-02  0.1026760E+00
         21   -1    0    0  502  501  0.00000000000E+00  0.00000000000E+00  0.77291565637E+03  0.77291565637E+03  0.00000000000E+00 0.  1.
         21   -1    0    0  501  502 -0.00000000000E+00 -0.00000000000E+00 -0.66445988434E+02  0.66445988434E+02  0.00000000000E+00 0.  1.
      99926    2    1    2    0    0  0.00000000000E+00  0.00000000000E+00  0.70646966793E+03  0.83936164480E+03  0.45324229619E+03 0.  0.
      99925    2    3    3    0    0  0.83784626399E+02 -0.51377375049E+02  0.54223765110E+03  0.61071527649E+03  0.26323369918E+03 0.  0.
         25    1    3    3    0    0 -0.83784626399E+02  0.51377375049E+02  0.16423201683E+03  0.22864636831E+03  0.12509000000E+03 0.  0.
         25    1    4    4    0    0  0.60127910017E+00 -0.27242941550E+02  0.27099096592E+03  0.29971011179E+03  0.12509000000E+03 0.  0.
         25    1    4    4    0    0  0.83183347299E+02 -0.24134433499E+02  0.27124668519E+03  0.31100516470E+03  0.12509000000E+03 0.  0.
<mgrwt>
<rscale>  2 0.45324230E+03</rscale>
<asrwt>0</asrwt>
<pdfrwt beam="1">  1       21 0.11366406E+00 0.45324230E+03</pdfrwt>
<pdfrwt beam="2">  1       21 0.97714693E-02 0.45324230E+03</pdfrwt>
<totfact> 0.46557797E+04</totfact>
</mgrwt>
</event>
<event>
 7    0  0.4714446E-002  0.4378843E+03  0.7546771E-02  0.1031398E+00
         21   -1    0    0  502  501  0.00000000000E+00  0.00000000000E+00  0.41404042735E+03  0.41404042735E+03  0.00000000000E+00 0. -1.
         21   -1    0    0  501  502 -0.00000000000E+00 -0.00000000000E+00 -0.11577531203E+03  0.11577531203E+03  0.00000000000E+00 0. -1.
      99926    2    1    2    0    0  0.00000000000E+00  0.00000000000E+00  0.29826511532E+03  0.52981573939E+03  0.43788427545E+03 0.  0.
      99925    2    3    3    0    0  0.51287432774E+02 -0.80943724115E+02  0.18050789794E+03  0.33310133326E+03  0.26304203042E+03 0.  0.
         25    1    3    3    0    0 -0.51287432774E+02  0.80943724115E+02  0.11775721738E+03  0.19671440613E+03  0.12509000000E+03 0.  0.
         25    1    4    4    0    0  0.58879331891E+01 -0.67839934987E+02  0.65645514502E+02  0.15682399756E+03  0.12509000000E+03 0.  0.
         25    1    4    4    0    0  0.45399499584E+02 -0.13103789128E+02  0.11486238344E+03  0.17627733570E+03  0.12509000000E+03 0.  0.
<mgrwt>
<rscale>  2 0.43788428E+03</rscale>
<asrwt>0</asrwt>
<pdfrwt beam="1">  1       21 0.60888297E-01 0.43788428E+03</pdfrwt>
<pdfrwt beam="2">  1       21 0.17025781E-01 0.43788428E+03</pdfrwt>
<totfact> 0.72563088E+04</totfact>
</mgrwt>
</event>
<event>
 7    0  0.4714446E-002  0.4626754E+03  0.7546771E-02  0.1024008E+00
         21   -1    0    0  502  501  0.00000000000E+00  0.00000000000E+00  0.15077659318E+03  0.15077659318E+03  0.00000000000E+00 0. -1.
         21   -1    0    0  501  502 -0.00000000000E+00 -0.00000000000E+00 -0.35494324615E+03  0.35494324615E+03  0.00000000000E+00 0. -1.
      99926    2    1    2    0    0  0.14210854715E-13  0.00000000000E+00 -0.20416665297E+03  0.50571983933E+03  0.46267540858E+03 0.  0.
      99925    2    3    3    0    0 -0.91958744558E+02  0.50779726302E+02 -0.19163040922E+03  0.34189170740E+03  0.26293104523E+03 0.  0.
         25    1    3    3    0    0  0.91958744558E+02 -0.50779726302E+02 -0.12536243744E+02  0.16382813193E+03  0.12509000000E+03 0.  0.
         25    1    4    4    0    0 -0.80064425493E+01  0.18064281750E+02 -0.10839114968E+03  0.16669304372E+03  0.12509000000E+03 0.  0.
         25    1    4    4    0    0 -0.83952302008E+02  0.32715444552E+02 -0.83239259542E+02  0.17519866368E+03  0.12509000000E+03 0.  0.
<mgrwt>
<rscale>  2 0.46267541E+03</rscale>
<asrwt>0</asrwt>
<pdfrwt beam="1">  1       21 0.22173029E-01 0.46267541E+03</pdfrwt>
<pdfrwt beam="2">  1       21 0.52197536E-01 0.46267541E+03</pdfrwt>
<totfact> 0.61064561E+04</totfact>
</mgrwt>
</event>
<event>
 7    0  0.4714446E-002  0.4493048E+03  0.7546771E-02  0.1027930E+00
         21   -1    0    0  502  501  0.00000000000E+00  0.00000000000E+00  0.62359377285E+02  0.62359377285E+02  0.00000000000E+00 0. -1.
         21   -1    0    0  501  502 -0.00000000000E+00 -0.00000000000E+00 -0.80932001820E+03  0.80932001820E+03  0.00000000000E+00 0. -1.
      99926    2    1    2    0    0  0.00000000000E+00  0.17763568394E-14 -0.74696064092E+03  0.87167939549E+03  0.44930476231E+03 0.  0.
      99925    2    3    3    0    0  0.59406452982E+02 -0.91204374657E+01 -0.64610644268E+03  0.70012361319E+03  0.26288253926E+03 0.  0.
         25    1    3    3    0    0 -0.59406452982E+02  0.91204374657E+01 -0.10085419824E+03  0.17155578229E+03  0.12509000000E+03 0.  0.
         25    1    4    4    0    0 -0.74394496664E+01  0.82349224631E+01 -0.26954803682E+03  0.29736646013E+03  0.12509000000E+03 0.  0.
         25    1    4    4    0    0  0.66845902649E+02 -0.17355359929E+02 -0.37655840586E+03  0.40275715306E+03  0.12509000000E+03 0.  0.
<mgrwt>
<rscale>  2 0.44930476E+03</rscale>
<asrwt>0</asrwt>
<pdfrwt beam="1">  1       21 0.91704969E-02 0.44930476E+03</pdfrwt>
<pdfrwt beam="2">  1       21 0.11901765E+00 0.44930476E+03</pdfrwt>
<totfact> 0.46521757E+04</totfact>
</mgrwt>
</event>
<event>
 7    0  0.4714446E-002  0.4543059E+03  0.7546771E-02  0.1026446E+00
         21   -1    0    0  502  501  0.00000000000E+00  0.00000000000E+00  0.10107229700E+03  0.10107229700E+03  0.00000000000E+00 0. -1.
         21   -1    0    0  501  502 -0.00000000000E+00 -0.00000000000E+00 -0.51051048219E+03  0.51051048219E+03  0.00000000000E+00 0. -1.
      99926    2    1    2    0    0  0.00000000000E+00  0.00000000000E+00 -0.40943818519E+03  0.61158277918E+03  0.45430591929E+03 0.  0.
      99925    2    3    3    0    0  0.37255301853E+02  0.84456931522E+02 -0.17113885132E+03  0.32705683762E+03  0.26297668681E+03 0.  0.
         25    1    4    4    0    0  0.41036729270E+02  0.77165130295E+02 -0.10584334648E+03  0.18571158439E+03  0.12509000000E+03 0.  0.
         25    1    4    4    0    0 -0.37814274178E+01  0.72918012273E+01 -0.65295504837E+02  0.14134525323E+03  0.12509000000E+03 0.  0.
         25    1    3    3    0    0 -0.37255301853E+02 -0.84456931522E+02 -0.23829933387E+03  0.28452594156E+03  0.12509000000E+03 0.  0.
<mgrwt>
<rscale>  2 0.45430592E+03</rscale>
<asrwt>0</asrwt>
<pdfrwt beam="1">  1       21 0.14863573E-01 0.45430592E+03</pdfrwt>
<pdfrwt beam="2">  1       21 0.75075071E-01 0.45430592E+03</pdfrwt>
<totfact> 0.58289825E+04</totfact>
</mgrwt>
</event>
<event>
 7    0  0.4714446E-002  0.4622610E+03  0.7546771E-02  0.1024128E+00
         21   -1    0    0  502  501  0.00000000000E+00  0.00000000000E+00  0.31880866810E+02  0.31880866810E+02  0.00000000000E+00 0.  1.
         21   -1    0    0  501  502 -0.00000000000E+00 -0.00000000000E+00 -0.16756541181E+04  0.16756541181E+04  0.00000000000E+00 0.  1.
      99926    2    1    2    0    0  0.00000000000E+00  0.00000000000E+00 -0.16437732513E+04  0.17075349849E+04  0.46226099017E+03 0.  0.
      99925    2    3    3    0    0  0.79086247190E+02 -0.77897802997E+02 -0.86090792995E+03  0.90700495945E+03  0.26300728205E+03 0.  0.
         25    1    3    3    0    0 -0.79086247190E+02  0.77897802997E+02 -0.78286532135E+03  0.80053002547E+03  0.12509000000E+03 0.  0.
         25    1    4    4    0    0  0.75646011980E+01 -0.15309822444E+02 -0.43919129000E+03  0.45697714513E+03  0.12509000000E+03 0.  0.
         25    1    4    4    0    0  0.71521645992E+02 -0.62587980553E+02 -0.42171663995E+03  0.45002781433E+03  0.12509000000E+03 0.  0.
<mgrwt>
<rscale>  2 0.46226099E+03</rscale>
<asrwt>0</asrwt>
<pdfrwt beam="1">  1       21 0.46883603E-02 0.46226099E+03</pdfrwt>
<pdfrwt beam="2">  1       21 0.24641985E+00 0.46226099E+03</pdfrwt>
<totfact> 0.18065350E+04</totfact>
</mgrwt>
</event>
<event>
 7    0  0.4714446E-002  0.4579173E+03  0.7546771E-02  0.1025387E+00
         21   -1    0    0  502  501  0.00000000000E+00  0.00000000000E+00  0.18344048375E+04  0.18344048375E+04  0.00000000000E+00 0.  1.
         21   -1    0    0  501  502 -0.00000000000E+00 -0.00000000000E+00 -0.28577155449E+02  0.28577155449E+02  0.00000000000E+00 0.  1.
      99926    2    1    2    0    0 -0.17763568394E-14  0.00000000000E+00  0.18058276820E+04  0.18629819929E+04  0.45791733838E+03 0.  0.
      99925    2    3    3    0    0  0.55705029460E+01  0.11175210672E+03  0.10104364351E+04  0.10500771353E+04  0.26298409974E+03 0.  0.
         25    1    4    4    0    0 -0.36507045961E+02  0.46759705837E+02  0.46835421957E+03  0.48838756903E+03  0.12509000000E+03 0.  0.
         25    1    3    3    0    0 -0.55705029460E+01 -0.11175210672E+03  0.79539124690E+03  0.81290485766E+03  0.12509000000E+03 0.  0.
         25    1    4    4    0    0  0.42077548907E+02  0.64992400888E+02  0.54208221557E+03  0.56168956625E+03  0.12509000000E+03 0.  0.
<mgrwt>
<rscale>  2 0.45791734E+03</rscale>
<asrwt>0</asrwt>
<pdfrwt beam="1">  1       21 0.26976534E+00 0.45791734E+03</pdfrwt>
<pdfrwt beam="2">  1       21 0.42025241E-02 0.45791734E+03</pdfrwt>
<totfact> 0.15719762E+04</totfact>
</mgrwt>
</event>
<event>
 7    0  0.4714446E-002  0.4511553E+03  0.7546771E-02  0.1027378E+00
         21   -1    0    0  502  501  0.00000000000E+00  0.00000000000E+00  0.36250950414E+03  0.36250950414E+03  0.00000000000E+00 0. -1.
         21   -1    0    0  501  502 -0.00000000000E+00 -0.00000000000E+00 -0.14036948488E+03  0.14036948488E+03  0.00000000000E+00 0. -1.
      99926    2    1    2    0    0 -0.17763568394E-14  0.00000000000E+00  0.22214001925E+03  0.50287898902E+03  0.45115528307E+03 0.  0.
      99925    2    3    3    0    0 -0.12929225696E+02  0.93050301220E+02  0.20289419872E+03  0.34526099150E+03  0.26308472579E+03 0.  0.
         25    1    3    3    0    0  0.12929225696E+02 -0.93050301220E+02  0.19245820530E+02  0.15761799752E+03  0.12509000000E+03 0.  0.
         25    1    4    4    0    0  0.10132851721E+02  0.84779485021E+01  0.10485114822E+03  0.16375537145E+03  0.12509000000E+03 0.  0.
         25    1    4    4    0    0 -0.23062077417E+02  0.84572352718E+02  0.98043050504E+02  0.18150562005E+03  0.12509000000E+03 0.  0.
<mgrwt>
<rscale>  2 0.45115528E+03</rscale>
<asrwt>0</asrwt>
<pdfrwt beam="1">  1       21 0.53310221E-01 0.45115528E+03</pdfrwt>
<pdfrwt beam="2">  1       21 0.20642571E-01 0.45115528E+03</pdfrwt>
<totfact> 0.67093065E+04</totfact>
</mgrwt>
</event>
<event>
 7    0  0.4714446E-002  0.4584163E+03  0.7546771E-02  0.1025242E+00
         21   -1    0    0  502  501  0.00000000000E+00  0.00000000000E+00  0.11257130654E+03  0.11257130654E+03  0.00000000000E+00 0.  1.
         21   -1    0    0  501  502 -0.00000000000E+00 -0.00000000000E+00 -0.46669416219E+03  0.46669416219E+03  0.00000000000E+00 0.  1.
      99926    2    1    2    0    0  0.00000000000E+00  0.00000000000E+00 -0.35412285565E+03  0.57926546873E+03  0.45841628066E+03 0.  0.
      99925    2    3    3    0    0 -0.10111076361E+03 -0.18996984741E+02 -0.14979985304E+03  0.31853635750E+03  0.26161258214E+03 0.  0.
         25    1    4    4    0    0 -0.83192878454E+02  0.59422348159E+01 -0.99340411705E+02  0.18020097302E+03  0.12509000000E+03 0.  0.
         25    1    4    4    0    0 -0.17917885156E+02 -0.24939219557E+02 -0.50459441332E+02  0.13833538448E+03  0.12509000000E+03 0.  0.
         25    1    3    3    0    0  0.10111076361E+03  0.18996984741E+02 -0.20432300261E+03  0.26072911123E+03  0.12509000000E+03 0.  0.
<mgrwt>
<rscale>  2 0.45841628E+03</rscale>
<asrwt>0</asrwt>
<pdfrwt beam="1">  1       21 0.16554604E-01 0.45841628E+03</pdfrwt>
<pdfrwt beam="2">  1       21 0.68631493E-01 0.45841628E+03</pdfrwt>
<totfact> 0.58380196E+04</totfact>
</mgrwt>
</event>
<event>
 7    0  0.4714446E-002  0.4317513E+03  0.7546771E-02  0.1033308E+00
         21   -1    0    0  502  501  0.00000000000E+00  0.00000000000E+00  0.13748552480E+03  0.13748552480E+03  0.00000000000E+00 0. -1.
         21   -1    0    0  501  502 -0.00000000000E+00 -0.00000000000E+00 -0.33896146682E+03  0.33896146682E+03  0.00000000000E+00 0. -1.
      99926    2    1    2    0    0  0.00000000000E+00 -0.31086244690E-14 -0.20147594202E+03  0.47644699163E+03  0.43175129487E+03 0.  0.
      99925    2    3    3    0    0 -0.72793627732E+01  0.16165214859E+01 -0.22832940475E+03  0.34828998314E+03  0.26289920695E+03 0.  0.
         25    1    4    4    0    0 -0.12003663054E+02  0.32478613814E+02 -0.83232957072E+02  0.15418878534E+03  0.12509000000E+03 0.  0.
         25    1    3    3    0    0  0.72793627732E+01 -0.16165214859E+01  0.26853462736E+02  0.12815700849E+03  0.12509000000E+03 0.  0.
         25    1    4    4    0    0  0.47243002812E+01 -0.30862092328E+02 -0.14509644768E+03  0.19410119780E+03  0.12509000000E+03 0.  0.
<mgrwt>
<rscale>  2 0.43175129E+03</rscale>
<asrwt>0</asrwt>
<pdfrwt beam="1">  1       21 0.20218460E-01 0.43175129E+03</pdfrwt>
<pdfrwt beam="2">  1       21 0.49847274E-01 0.43175129E+03</pdfrwt>
<totfact> 0.80888705E+04</totfact>
</mgrwt>
</event>
<event>
 7    0  0.4714446E-002  0.4301074E+03  0.7546771E-02  0.1033826E+00
         21   -1    0    0  502  501  0.00000000000E+00  0.00000000000E+00  0.50566403544E+03  0.50566403544E+03  0.00000000000E+00 0.  1.
         21   -1    0    0  501  502 -0.00000000000E+00 -0.00000000000E+00 -0.91460132872E+02  0.91460132872E+02  0.00000000000E+00 0.  1.
      99926    2    1    2    0    0  0.17763568394E-14  0.00000000000E+00  0.41420390257E+03  0.59712416831E+03  0.43010742784E+03 0.  0.
      99925    2    3    3    0    0  0.13904891091E+02 -0.27848339234E+02  0.38158494402E+03  0.46415657620E+03  0.26242214415E+03 0.  0.
         25    1    3    3    0    0 -0.13904891091E+02  0.27848339234E+02  0.32618958555E+02  0.13296759211E+03  0.12509000000E+03 0.  0.
         25    1    4    4    0    0 -0.30134011226E+02 -0.19882675045E+01  0.17241048580E+03  0.21513924689E+03  0.12509000000E+03 0.  0.
         25    1    4    4    0    0  0.44038902317E+02 -0.25860071729E+02  0.20917445822E+03  0.24901732931E+03  0.12509000000E+03 0.  0.
<mgrwt>
<rscale>  2 0.43010743E+03</rscale>
<asrwt>0</asrwt>
<pdfrwt beam="1">  1       21 0.74362357E-01 0.43010743E+03</pdfrwt>
<pdfrwt beam="2">  1       21 0.13450020E-01 0.43010743E+03</pdfrwt>
<totfact> 0.72006640E+04</totfact>
</mgrwt>
</event>
<event>
 7    0  0.4714446E-002  0.4526854E+03  0.7546771E-02  0.1026924E+00
         21   -1    0    0  502  501  0.00000000000E+00  0.00000000000E+00  0.72831756074E+03  0.72831756074E+03  0.00000000000E+00 0. -1.
         21   -1    0    0  501  502 -0.00000000000E+00 -0.00000000000E+00 -0.70341591468E+02  0.70341591468E+02  0.00000000000E+00 0. -1.
      99926    2    1    2    0    0  0.00000000000E+00 -0.35527136788E-14  0.65797596927E+03  0.79865915221E+03  0.45268539325E+03 0.  0.
      99925    2    3    3    0    0  0.58812541248E+02 -0.21462839287E+02  0.25325760454E+03  0.37044888689E+03  0.26300835549E+03 0.  0.
         25    1    4    4    0    0 -0.49735191945E+01 -0.19329644571E+02  0.91647048766E+02  0.15634916277E+03  0.12509000000E+03 0.  0.
         25    1    4    4    0    0  0.63786060442E+02 -0.21331947161E+01  0.16161055578E+03  0.21409972411E+03  0.12509000000E+03 0.  0.
         25    1    3    3    0    0 -0.58812541248E+02  0.21462839287E+02  0.40471836473E+03  0.42821026532E+03  0.12509000000E+03 0.  0.
<mgrwt>
<rscale>  2 0.45268539E+03</rscale>
<asrwt>0</asrwt>
<pdfrwt beam="1">  1       21 0.10710552E+00 0.45268539E+03</pdfrwt>
<pdfrwt beam="2">  1       21 0.10344352E-01 0.45268539E+03</pdfrwt>
<totfact> 0.48708505E+04</totfact>
</mgrwt>
</event>
<event>
 7    0  0.4714446E-002  0.4548701E+03  0.7546771E-02  0.1026280E+00
         21   -1    0    0  502  501  0.00000000000E+00  0.00000000000E+00  0.12817827807E+03  0.12817827807E+03  0.00000000000E+00 0. -1.
         21   -1    0    0  501  502 -0.00000000000E+00 -0.00000000000E+00 -0.40355275709E+03  0.40355275709E+03  0.00000000000E+00 0. -1.
      99926    2    1    2    0    0  0.00000000000E+00  0.00000000000E+00 -0.27537447902E+03  0.53173103515E+03  0.45487008041E+03 0.  0.
      99925    2    3    3    0    0 -0.17283472987E+02 -0.11137382508E+03 -0.18495618527E+03  0.34061373270E+03  0.26288034746E+03 0.  0.
         25    1    4    4    0    0  0.61915601370E+01 -0.79954620217E+02 -0.62417947900E+02  0.16116632722E+03  0.12509000000E+03 0.  0.
         25    1    3    3    0    0  0.17283472987E+02  0.11137382508E+03 -0.90418293753E+02  0.19111730245E+03  0.12509000000E+03 0.  0.
         25    1    4    4    0    0 -0.23475033124E+02 -0.31419204865E+02 -0.12253823737E+03  0.17944740548E+03  0.12509000000E+03 0.  0.
<mgrwt>
<rscale>  2 0.45487008E+03</rscale>
<asrwt>0</asrwt>
<pdfrwt beam="1">  1       21 0.18849747E-01 0.45487008E+03</pdfrwt>
<pdfrwt beam="2">  1       21 0.59345994E-01 0.45487008E+03</pdfrwt>
<totfact> 0.63154477E+04</totfact>
</mgrwt>
</event>
<event>
 7    0  0.4714446E-002  0.4551786E+03  0.7546771E-02  0.1026189E+00
         21   -1    0    0  502  501  0.00000000000E+00  0.00000000000E+00  0.25741834275E+03  0.25741834275E+03  0.00000000000E+00 0. -1.
         21   -1    0    0  501  502 -0.00000000000E+00 -0.00000000000E+00 -0.20121681589E+03  0.20121681589E+03  0.00000000000E+00 0. -1.
      99926    2    1    2    0    0  0.00000000000E+00  0.14210854715E-13  0.56201526863E+02  0.45863515863E+03  0.45517864308E+03 0.  0.
      99925    2    3    3    0    0 -0.41840052075E+02 -0.98715899039E+02  0.69821017250E+02  0.29332206992E+03  0.26394591032E+03 0.  0.
         25    1    4    4    0    0 -0.22788595851E+02 -0.11144675840E+02  0.93229339452E+01  0.12797636148E+03  0.12509000000E+03 0.  0.
         25    1    3    3    0    0  0.41840052075E+02  0.98715899039E+02 -0.13619490387E+02  0.16531308871E+03  0.12509000000E+03 0.  0.
         25    1    4    4    0    0 -0.19051456224E+02 -0.87571223199E+02  0.60498083305E+02  0.16534570844E+03  0.12509000000E+03 0.  0.
<mgrwt>
<rscale>  2 0.45517864E+03</rscale>
<asrwt>0</asrwt>
<pdfrwt beam="1">  1       21 0.37855639E-01 0.45517864E+03</pdfrwt>
<pdfrwt beam="2">  1       21 0.29590708E-01 0.45517864E+03</pdfrwt>
<totfact> 0.68182921E+04</totfact>
</mgrwt>
</event>
<event>
 7    0  0.4714446E-002  0.4606592E+03  0.7546771E-02  0.1024590E+00
         21   -1    0    0  502  501  0.00000000000E+00  0.00000000000E+00  0.15563633458E+04  0.15563633458E+04  0.00000000000E+00 0.  1.
         21   -1    0    0  501  502 -0.00000000000E+00 -0.00000000000E+00 -0.34086976071E+02  0.34086976071E+02  0.00000000000E+00 0.  1.
      99926    2    1    2    0    0  0.35527136788E-14  0.00000000000E+00  0.15222763697E+04  0.15904503219E+04  0.46065918042E+03 0.  0.
      99925    2    3    3    0    0 -0.17118647401E+02  0.96787909672E+02  0.72523596698E+03  0.77768845068E+03  0.26300412729E+03 0.  0.
         25    1    4    4    0    0  0.53540187573E+01  0.88037165046E+01  0.29825607569E+03  0.32358981091E+03  0.12509000000E+03 0.  0.
         25    1    3    3    0    0  0.17118647401E+02 -0.96787909672E+02  0.79704040277E+03  0.81276187121E+03  0.12509000000E+03 0.  0.
         25    1    4    4    0    0 -0.22472666159E+02  0.87984193167E+02  0.42697989129E+03  0.45409863977E+03  0.12509000000E+03 0.  0.
<mgrwt>
<rscale>  2 0.46065918E+03</rscale>
<asrwt>0</asrwt>
<pdfrwt beam="1">  1       21 0.22887692E+00 0.46065918E+03</pdfrwt>
<pdfrwt beam="2">  1       21 0.50127916E-02 0.46065918E+03</pdfrwt>
<totfact> 0.20720827E+04</totfact>
</mgrwt>
</event>
<event>
 7    0  0.4714446E-002  0.4484336E+03  0.7546771E-02  0.1028190E+00
         21   -1    0    0  502  501  0.00000000000E+00  0.00000000000E+00  0.28407446357E+03  0.28407446357E+03  0.00000000000E+00 0.  1.
         21   -1    0    0  501  502 -0.00000000000E+00 -0.00000000000E+00 -0.17697182221E+03  0.17697182221E+03  0.00000000000E+00 0.  1.
      99926    2    1    2    0    0  0.00000000000E+00  0.00000000000E+00  0.10710264136E+03  0.46104628578E+03  0.44843360919E+03 0.  0.
      99925    2    3    3    0    0 -0.71236155372E+02 -0.78402037991E+02  0.82162334397E+02  0.29524219535E+03  0.26305101279E+03 0.  0.
         25    1    4    4    0    0 -0.57536455876E+02 -0.18235141039E+02  0.69156575241E+02  0.15515509699E+03  0.12509000000E+03 0.  0.
         25    1    4    4    0    0 -0.13699699496E+02 -0.60166896952E+02  0.13005759156E+02  0.14008709836E+03  0.12509000000E+03 0.  0.
         25    1    3    3    0    0  0.71236155372E+02  0.78402037991E+02  0.24940306962E+02  0.16580409043E+03  0.12509000000E+03 0.  0.
<mgrwt>
<rscale>  2 0.44843361E+03</rscale>
<asrwt>0</asrwt>
<pdfrwt beam="1">  1       21 0.41775657E-01 0.44843361E+03</pdfrwt>
<pdfrwt beam="2">  1       21 0.26025268E-01 0.44843361E+03</pdfrwt>
<totfact> 0.71773823E+04</totfact>
</mgrwt>
</event>
<event>
 7    0  0.4714446E-002  0.4581483E+03  0.7546771E-02  0.1025320E+00
         21   -1    0    0  502  501  0.00000000000E+00  0.00000000000E+00  0.91905683200E+03  0.91905683200E+03  0.00000000000E+00 0. -1.
         21   -1    0    0  501  502 -0.00000000000E+00 -0.00000000000E+00 -0.57096532382E+02  0.57096532382E+02  0.00000000000E+00 0. -1.
      99926    2    1    2    0    0  0.00000000000E+00  0.00000000000E+00  0.86196029962E+03  0.97615336438E+03  0.45814826495E+03 0.  0.
      99925    2    3    3    0    0  0.26464082908E+02  0.11024250718E+03  0.60274930719E+03  0.66681276768E+03  0.26168450803E+03 0.  0.
         25    1    3    3    0    0 -0.26464082908E+02 -0.11024250718E+03  0.25921099242E+03  0.30934059670E+03  0.12509000000E+03 0.  0.
         25    1    4    4    0    0  0.31644264223E+02  0.59197532300E+02  0.22981042029E+03  0.27012227724E+03  0.12509000000E+03 0.  0.
         25    1    4    4    0    0 -0.51801813146E+01  0.51044974883E+02  0.37293888690E+03  0.39669049044E+03  0.12509000000E+03 0.  0.
<mgrwt>
<rscale>  2 0.45814826E+03</rscale>
<asrwt>0</asrwt>
<pdfrwt beam="1">  1       21 0.13515541E+00 0.45814826E+03</pdfrwt>
<pdfrwt beam="2">  1       21 0.83965494E-02 0.45814826E+03</pdfrwt>
<totfact> 0.39127593E+04</totfact>
</mgrwt>
</event>
<event>
 7    0  0.4714446E-002  0.4513719E+03  0.7546771E-02  0.1027314E+00
         21   -1    0    0  502  501  0.00000000000E+00  0.00000000000E+00  0.26778662318E+03  0.26778662318E+03  0.00000000000E+00 0.  1.
         21   -1    0    0  501  502 -0.00000000000E+00 -0.00000000000E+00 -0.19020421958E+03  0.19020421958E+03  0.00000000000E+00 0.  1.
      99926    2    1    2    0    0  0.00000000000E+00  0.00000000000E+00  0.77582403600E+02  0.45799084277E+03  0.45137188959E+03 0.  0.
      99925    2    3    3    0    0 -0.17687954704E+02 -0.98852512682E+02  0.41345000966E+01  0.28156299453E+03  0.26301319889E+03 0.  0.
         25    1    3    3    0    0  0.17687954704E+02  0.98852512682E+02  0.73447903503E+02  0.17642784824E+03  0.12509000000E+03 0.  0.
         25    1    4    4    0    0 -0.40019608171E+02 -0.46264879994E+02 -0.23716159294E+02  0.14125145122E+03  0.12509000000E+03 0.  0.
         25    1    4    4    0    0  0.22331653467E+02 -0.52587632687E+02  0.27850659391E+02  0.14031154331E+03  0.12509000000E+03 0.  0.
<mgrwt>
<rscale>  2 0.45137189E+03</rscale>
<asrwt>0</asrwt>
<pdfrwt beam="1">  1       21 0.39380386E-01 0.45137189E+03</pdfrwt>
<pdfrwt beam="2">  1       21 0.27971209E-01 0.45137189E+03</pdfrwt>
<totfact> 0.70340270E+04</totfact>
</mgrwt>
</event>
<event>
 7    0  0.4714446E-002  0.4569430E+03  0.7546771E-02  0.1025672E+00
         21   -1    0    0  502  501  0.00000000000E+00  0.00000000000E+00  0.44735613599E+02  0.44735613599E+02  0.00000000000E+00 0. -1.
         21   -1    0    0  501  502 -0.00000000000E+00 -0.00000000000E+00 -0.11668381096E+04  0.11668381096E+04  0.00000000000E+00 0. -1.
      99926    2    1    2    0    0  0.00000000000E+00  0.00000000000E+00 -0.11221024960E+04  0.12115737232E+04  0.45694296714E+03 0.  0.
      99925    2    3    3    0    0 -0.68742164487E+02 -0.74091495553E+02 -0.56076763554E+03  0.62765646146E+03  0.26320573256E+03 0.  0.
         25    1    4    4    0    0 -0.40682732720E+02 -0.50879092001E+02 -0.20539803027E+03  0.24915783288E+03  0.12509000000E+03 0.  0.
         25    1    4    4    0    0 -0.28059431767E+02 -0.23212403552E+02 -0.35536960527E+03  0.37849862858E+03  0.12509000000E+03 0.  0.
         25    1    3    3    0    0  0.68742164487E+02  0.74091495553E+02 -0.56133486048E+03  0.58391726176E+03  0.12509000000E+03 0.  0.
<mgrwt>
<rscale>  2 0.45694297E+03</rscale>
<asrwt>0</asrwt>
<pdfrwt beam="1">  1       21 0.65787666E-02 0.45694297E+03</pdfrwt>
<pdfrwt beam="2">  1       21 0.17159384E+00 0.45694297E+03</pdfrwt>
<totfact> 0.31314661E+04</totfact>
</mgrwt>
</event>
<event>
 7    0  0.4714446E-002  0.4833755E+03  0.7546771E-02  0.1018212E+00
         21   -1    0    0  502  501  0.00000000000E+00  0.00000000000E+00  0.17250207254E+03  0.17250207254E+03  0.00000000000E+00 0. -1.
         21   -1    0    0  501  502 -0.00000000000E+00 -0.00000000000E+00 -0.33862181323E+03  0.33862181323E+03  0.00000000000E+00 0. -1.
      99926    2    1    2    0    0  0.00000000000E+00  0.00000000000E+00 -0.16611974069E+03  0.51112388577E+03  0.48337548381E+03 0.  0.
      99925    2    3    3    0    0  0.12745818893E+03  0.51976914654E+02 -0.11460518209E+03  0.31812531730E+03  0.26291097383E+03 0.  0.
         25    1    4    4    0    0  0.40678162456E+02  0.57086214697E+02 -0.42260156544E+02  0.14948905559E+03  0.12509000000E+03 0.  0.
         25    1    3    3    0    0 -0.12745818893E+03 -0.51976914654E+02 -0.51514558604E+02  0.19299856847E+03  0.12509000000E+03 0.  0.
         25    1    4    4    0    0  0.86780026476E+02 -0.51093000433E+01 -0.72345025544E+02  0.16863626171E+03  0.12509000000E+03 0.  0.
<mgrwt>
<rscale>  2 0.48337548E+03</rscale>
<asrwt>0</asrwt>
<pdfrwt beam="1">  1       21 0.25367952E-01 0.48337548E+03</pdfrwt>
<pdfrwt beam="2">  1       21 0.49797325E-01 0.48337548E+03</pdfrwt>
<totfact> 0.51805938E+04</totfact>
</mgrwt>
</event>
<event>
 7    0  0.4714446E-002  0.4627376E+03  0.7546771E-02  0.1023990E+00
         21   -1    0    0  502  501  0.00000000000E+00  0.00000000000E+00  0.10769308700E+03  0.10769308700E+03  0.00000000000E+00 0. -1.
         21   -1    0    0  501  502 -0.00000000000E+00 -0.00000000000E+00 -0.49707472002E+03  0.49707472002E+03  0.00000000000E+00 0. -1.
      99926    2    1    2    0    0  0.00000000000E+00  0.17763568394E-14 -0.38938163302E+03  0.60476780702E+03  0.46273755443E+03 0.  0.
      99925    2    3    3    0    0 -0.91857197352E+02  0.83502687246E+01 -0.14266162881E+03  0.31317607143E+03  0.26309587546E+03 0.  0.
         25    1    3    3    0    0  0.91857197352E+02 -0.83502687246E+01 -0.24672000420E+03  0.29159173560E+03  0.12509000000E+03 0.  0.
         25    1    4    4    0    0 -0.10321960963E+02 -0.84627721413E+00 -0.39995079022E+02  0.13173599929E+03  0.12509000000E+03 0.  0.
         25    1    4    4    0    0 -0.81535236389E+02  0.91965459387E+01 -0.10266654979E+03  0.18144007214E+03  0.12509000000E+03 0.  0.
<mgrwt>
<rscale>  2 0.46273755E+03</rscale>
<asrwt>0</asrwt>
<pdfrwt beam="1">  1       21 0.15837219E-01 0.46273755E+03</pdfrwt>
<pdfrwt beam="2">  1       21 0.73099223E-01 0.46273755E+03</pdfrwt>
<totfact> 0.54948877E+04</totfact>
</mgrwt>
</event>
<event>
 7    0  0.4714446E-002  0.4586649E+03  0.7546771E-02  0.1025169E+00
         21   -1    0    0  502  501  0.00000000000E+00  0.00000000000E+00  0.15930532398E+04  0.15930532398E+04  0.00000000000E+00 0.  1.
         21   -1    0    0  501  502 -0.00000000000E+00 -0.00000000000E+00 -0.33014201076E+02  0.33014201076E+02  0.00000000000E+00 0.  1.
      99926    2    1    2    0    0  0.35527136788E-14  0.00000000000E+00  0.15600390387E+04  0.16260674409E+04  0.45866493209E+03 0.  0.
      99925    2    3    3    0    0  0.15125503584E+02 -0.11559040927E+03  0.97708375218E+03  0.10185525869E+04  0.26299579837E+03 0.  0.
         25    1    4    4    0    0 -0.31075596635E+01 -0.26897293102E+02  0.54104657415E+03  0.55597843915E+03  0.12509000000E+03 0.  0.
         25    1    3    3    0    0 -0.15125503584E+02  0.11559040927E+03  0.58295528652E+03  0.60751485394E+03  0.12509000000E+03 0.  0.
         25    1    4    4    0    0  0.18233063247E+02 -0.88693116171E+02  0.43603717803E+03  0.46257414776E+03  0.12509000000E+03 0.  0.
<mgrwt>
<rscale>  2 0.45866493E+03</rscale>
<asrwt>0</asrwt>
<pdfrwt beam="1">  1       21 0.23427248E+00 0.45866493E+03</pdfrwt>
<pdfrwt beam="2">  1       21 0.48550306E-02 0.45866493E+03</pdfrwt>
<totfact> 0.20264268E+04</totfact>
</mgrwt>
</event>
<event>
 7    0  0.4714446E-002  0.4559116E+03  0.7546771E-02  0.1025974E+00
         21   -1    0    0  502  501  0.00000000000E+00  0.00000000000E+00  0.79773007658E+02  0.79773007658E+02  0.00000000000E+00 0.  1.
         21   -1    0    0  501  502 -0.00000000000E+00 -0.00000000000E+00 -0.65139626555E+03  0.65139626555E+03  0.00000000000E+00 0.  1.
      99926    2    1    2    0    0 -0.22204460493E-14  0.00000000000E+00 -0.57162325789E+03  0.73116927321E+03  0.45591156721E+03 0.  0.
      99925    2    3    3    0    0  0.37691804102E+01 -0.10587429065E+03 -0.42721915475E+03  0.51271189694E+03  0.26293290197E+03 0.  0.
         25    1    4    4    0    0  0.28308185465E+02 -0.55454118194E+02 -0.16030837718E+03  0.21265652231E+03  0.12509000000E+03 0.  0.
         25    1    3    3    0    0 -0.37691804102E+01  0.10587429065E+03 -0.14440410314E+03  0.21845737627E+03  0.12509000000E+03 0.  0.
         25    1    4    4    0    0 -0.24539005055E+02 -0.50420172453E+02 -0.26691077757E+03  0.30005537462E+03  0.12509000000E+03 0.  0.
<mgrwt>
<rscale>  2 0.45591157E+03</rscale>
<asrwt>0</asrwt>
<pdfrwt beam="1">  1       21 0.11731325E-01 0.45591157E+03</pdfrwt>
<pdfrwt beam="2">  1       21 0.95793562E-01 0.45591157E+03</pdfrwt>
<totfact> 0.50877492E+04</totfact>
</mgrwt>
</event>
<event>
 7    0  0.4714446E-002  0.4569347E+03  0.7546771E-02  0.1025674E+00
         21   -1    0    0  502  501  0.00000000000E+00  0.00000000000E+00  0.36781051758E+03  0.36781051758E+03  0.00000000000E+00 0. -1.
         21   -1    0    0  501  502 -0.00000000000E+00 -0.00000000000E+00 -0.14191363996E+03  0.14191363996E+03  0.00000000000E+00 0. -1.
      99926    2    1    2    0    0 -0.35527136788E-14 -0.14210854715E-13  0.22589687762E+03  0.50972415754E+03  0.45693469716E+03 0.  0.
      99925    2    3    3    0    0 -0.19318181680E+02 -0.96878937004E+02  0.75716824883E+02  0.29072580842E+03  0.26273510906E+03 0.  0.
         25    1    4    4    0    0 -0.36105921710E+02 -0.48997775499E+02  0.70843661382E+01  0.13929147831E+03  0.12509000000E+03 0.  0.
         25    1    3    3    0    0  0.19318181680E+02  0.96878937004E+02  0.15018005274E+03  0.21899834912E+03  0.12509000000E+03 0.  0.
         25    1    4    4    0    0  0.16787740030E+02 -0.47881161505E+02  0.68632458745E+02  0.15143433011E+03  0.12509000000E+03 0.  0.
<mgrwt>
<rscale>  2 0.45693470E+03</rscale>
<asrwt>0</asrwt>
<pdfrwt beam="1">  1       21 0.54089782E-01 0.45693470E+03</pdfrwt>
<pdfrwt beam="2">  1       21 0.20869653E-01 0.45693470E+03</pdfrwt>
<totfact> 0.63610410E+04</totfact>
</mgrwt>
</event>
<event>
 7    0  0.4714446E-002  0.4611661E+03  0.7546771E-02  0.1024444E+00
         21   -1    0    0  502  501  0.00000000000E+00  0.00000000000E+00  0.36986356011E+03  0.36986356011E+03  0.00000000000E+00 0.  1.
         21   -1    0    0  501  502 -0.00000000000E+00 -0.00000000000E+00 -0.14375174414E+03  0.14375174414E+03  0.00000000000E+00 0.  1.
      99926    2    1    2    0    0  0.00000000000E+00  0.00000000000E+00  0.22611181597E+03  0.51361530424E+03  0.46116605191E+03 0.  0.
      99925    2    3    3    0    0  0.79568330068E+02  0.87881937180E+02  0.15077837776E+03  0.32552758789E+03  0.26302041222E+03 0.  0.
         25    1    4    4    0    0  0.57684435016E+02  0.46783951420E+02  0.11991934181E+03  0.18853219564E+03  0.12509000000E+03 0.  0.
         25    1    3    3    0    0 -0.79568330068E+02 -0.87881937180E+02  0.75333438205E+02  0.18808771636E+03  0.12509000000E+03 0.  0.
         25    1    4    4    0    0  0.21883895052E+02  0.41097985760E+02  0.30859035950E+02  0.13699539224E+03  0.12509000000E+03 0.  0.
<mgrwt>
<rscale>  2 0.46116605E+03</rscale>
<asrwt>0</asrwt>
<pdfrwt beam="1">  1       21 0.54391700E-01 0.46116605E+03</pdfrwt>
<pdfrwt beam="2">  1       21 0.21139962E-01 0.46116605E+03</pdfrwt>
<totfact> 0.61270692E+04</totfact>
</mgrwt>
</event>
<event>
 7    0  0.4714446E-002  0.4553774E+03  0.7546771E-02  0.1026130E+00
         21   -1    0    0  502  501  0.00000000000E+00  0.00000000000E+00  0.69909190003E+02  0.69909190003E+02  0.00000000000E+00 0. -1.
         21   -1    0    0  501  502 -0.00000000000E+00 -0.00000000000E+00 -0.74156413261E+03  0.74156413261E+03  0.00000000000E+00 0. -1.
      99926    2    1    2    0    0 -0.14210854715E-13  0.35527136788E-14 -0.67165494260E+03  0.81147332261E+03  0.45537741642E+03 0.  0.
      99925    2    3    3    0    0  0.75210139807E+02 -0.23672217836E+02 -0.27685733287E+03  0.38989343720E+03  0.26296381991E+03 0.  0.
         25    1    4    4    0    0  0.17297755275E+02  0.24157146566E+02 -0.12587732774E+03  0.17993162537E+03  0.12509000000E+03 0.  0.
         25    1    4    4    0    0  0.57912384532E+02 -0.47829364402E+02 -0.15098000513E+03  0.20996181184E+03  0.12509000000E+03 0.  0.
         25    1    3    3    0    0 -0.75210139807E+02  0.23672217836E+02 -0.39479760973E+03  0.42157988541E+03  0.12509000000E+03 0.  0.
<mgrwt>
<rscale>  2 0.45537742E+03</rscale>
<asrwt>0</asrwt>
<pdfrwt beam="1">  1       21 0.10280763E-01 0.45537742E+03</pdfrwt>
<pdfrwt beam="2">  1       21 0.10905355E+00 0.45537742E+03</pdfrwt>
<totfact> 0.47075286E+04</totfact>
</mgrwt>
</event>
<event>
 7    0  0.4714446E-002  0.4645553E+03  0.7546771E-02  0.1023468E+00
         21   -1    0    0  502  501  0.00000000000E+00  0.00000000000E+00  0.58838135371E+03  0.58838135371E+03  0.00000000000E+00 0.  1.
         21   -1    0    0  501  502 -0.00000000000E+00 -0.00000000000E+00 -0.91697188937E+02  0.91697188937E+02  0.00000000000E+00 0.  1.
      99926    2    1    2    0    0  0.00000000000E+00  0.00000000000E+00  0.49668416477E+03  0.68007854264E+03  0.46455534076E+03 0.  0.
      99925    2    3    3    0    0  0.48599805822E+02 -0.34788954799E+02  0.15425503471E+03  0.31065002491E+03  0.26293841435E+03 0.  0.
         25    1    3    3    0    0 -0.48599805822E+02  0.34788954799E+02  0.34242913006E+03  0.36942851773E+03  0.12509000000E+03 0.  0.
         25    1    4    4    0    0  0.42699519563E+01 -0.20061546023E+02  0.11581123925E+03  0.17169871681E+03  0.12509000000E+03 0.  0.
         25    1    4    4    0    0  0.44329853865E+02 -0.14727408776E+02  0.38443795464E+02  0.13895130810E+03  0.12509000000E+03 0.  0.
<mgrwt>
<rscale>  2 0.46455534E+03</rscale>
<asrwt>0</asrwt>
<pdfrwt beam="1">  1       21 0.86526668E-01 0.46455534E+03</pdfrwt>
<pdfrwt beam="2">  1       21 0.13484881E-01 0.46455534E+03</pdfrwt>
<totfact> 0.50116635E+04</totfact>
</mgrwt>
</event>
<event>
 7    0  0.4714446E-002  0.4487450E+03  0.7546771E-02  0.1028097E+00
         21   -1    0    0  502  501  0.00000000000E+00  0.00000000000E+00  0.40059081848E+03  0.40059081848E+03  0.00000000000E+00 0. -1.
         21   -1    0    0  501  502 -0.00000000000E+00 -0.00000000000E+00 -0.12567192519E+03  0.12567192519E+03  0.00000000000E+00 0. -1.
      99926    2    1    2    0    0  0.00000000000E+00  0.35527136788E-14  0.27491889329E+03  0.52626274366E+03  0.44874500274E+03 0.  0.
      99925    2    3    3    0    0 -0.86914182725E+02 -0.30489152817E+02  0.10978510701E+03  0.29954631490E+03  0.26304288900E+03 0.  0.
         25    1    4    4    0    0 -0.28175817536E+02 -0.52158521746E+02  0.46653055088E+02  0.14607670497E+03  0.12509000000E+03 0.  0.
         25    1    4    4    0    0 -0.58738365189E+02  0.21669368928E+02  0.63132051920E+02  0.15346960994E+03  0.12509000000E+03 0.  0.
         25    1    3    3    0    0  0.86914182725E+02  0.30489152817E+02  0.16513378628E+03  0.22671642876E+03  0.12509000000E+03 0.  0.
<mgrwt>
<rscale>  2 0.44874500E+03</rscale>
<asrwt>0</asrwt>
<pdfrwt beam="1">  1       21 0.58910414E-01 0.44874500E+03</pdfrwt>
<pdfrwt beam="2">  1       21 0.18481166E-01 0.44874500E+03</pdfrwt>
<totfact> 0.66705136E+04</totfact>
</mgrwt>
</event>
<event>
 7    0  0.4714446E-002  0.4534311E+03  0.7546771E-02  0.1026704E+00
         21   -1    0    0  502  501  0.00000000000E+00  0.00000000000E+00  0.87189008463E+02  0.87189008463E+02  0.00000000000E+00 0. -1.
         21   -1    0    0  501  502 -0.00000000000E+00 -0.00000000000E+00 -0.58952308108E+03  0.58952308108E+03  0.00000000000E+00 0. -1.
      99926    2    1    2    0    0 -0.35527136788E-14 -0.35527136788E-14 -0.50233407261E+03  0.67671208954E+03  0.45343106601E+03 0.  0.
      99925    2    3    3    0    0 -0.31847746073E+02 -0.22156529648E+02 -0.16059074481E+03  0.31073230740E+03  0.26317292568E+03 0.  0.
         25    1    4    4    0    0 -0.44349686205E+02  0.16508849245E+02 -0.69303112298E+02  0.15063155793E+03  0.12509000000E+03 0.  0.
         25    1    4    4    0    0  0.12501940132E+02 -0.38665378893E+02 -0.91287632515E+02  0.16010074947E+03  0.12509000000E+03 0.  0.
         25    1    3    3    0    0  0.31847746073E+02  0.22156529648E+02 -0.34174332780E+03  0.36597978214E+03  0.12509000000E+03 0.  0.
<mgrwt>
<rscale>  2 0.45343107E+03</rscale>
<asrwt>0</asrwt>
<pdfrwt beam="1">  1       21 0.12821913E-01 0.45343107E+03</pdfrwt>
<pdfrwt beam="2">  1       21 0.86694571E-01 0.45343107E+03</pdfrwt>
<totfact> 0.54860940E+04</totfact>
</mgrwt>
</event>
<event>
 7    0  0.4714446E-002  0.4531398E+03  0.7546771E-02  0.1026790E+00
         21   -1    0    0  502  501  0.00000000000E+00  0.00000000000E+00  0.78589760425E+02  0.78589760425E+02  0.00000000000E+00 0.  1.
         21   -1    0    0  501  502 -0.00000000000E+00 -0.00000000000E+00 -0.65318844829E+03  0.65318844829E+03  0.00000000000E+00 0.  1.
      99926    2    1    2    0    0 -0.35527136788E-14 -0.14210854715E-13 -0.57459868787E+03  0.73177820872E+03  0.45313981800E+03 0.  0.
      99925    2    3    3    0    0  0.25209603131E+02  0.86649279227E+02 -0.25662720763E+03  0.37837052343E+03  0.26298879752E+03 0.  0.
         25    1    3    3    0    0 -0.25209603131E+02 -0.86649279227E+02 -0.31797148024E+03  0.35340768529E+03  0.12509000000E+03 0.  0.
         25    1    4    4    0    0 -0.54405975117E+01  0.78800546667E+02 -0.12046234309E+03  0.19078210204E+03  0.12509000000E+03 0.  0.
         25    1    4    4    0    0  0.30650200643E+02  0.78487325599E+01 -0.13616486454E+03  0.18758842139E+03  0.12509000000E+03 0.  0.
<mgrwt>
<rscale>  2 0.45313982E+03</rscale>
<asrwt>0</asrwt>
<pdfrwt beam="1">  1       21 0.11557318E-01 0.45313982E+03</pdfrwt>
<pdfrwt beam="2">  1       21 0.96057122E-01 0.45313982E+03</pdfrwt>
<totfact> 0.51967325E+04</totfact>
</mgrwt>
</event>
<event>
 7    0  0.4714446E-002  0.4626757E+03  0.7546771E-02  0.1024008E+00
         21   -1    0    0  502  501  0.00000000000E+00  0.00000000000E+00  0.18553331479E+03  0.18553331479E+03  0.00000000000E+00 0.  1.
         21   -1    0    0  501  502 -0.00000000000E+00 -0.00000000000E+00 -0.28845062689E+03  0.28845062689E+03  0.00000000000E+00 0.  1.
      99926    2    1    2    0    0  0.00000000000E+00  0.71054273576E-14 -0.10291731210E+03  0.47398394168E+03  0.46267570051E+03 0.  0.
      99925    2    3    3    0    0  0.63596446931E+02 -0.44105011525E+02  0.30029914662E+02  0.27571081363E+03  0.26291614038E+03 0.  0.
         25    1    4    4    0    0  0.56981797418E+02 -0.44917348340E+02 -0.79041921404E+01  0.14482568064E+03  0.12509000000E+03 0.  0.
         25    1    3    3    0    0 -0.63596446931E+02  0.44105011525E+02 -0.13294722676E+03  0.19827312805E+03  0.12509000000E+03 0.  0.
         25    1    4    4    0    0  0.66146495121E+01  0.81233681489E+00  0.37934106803E+02  0.13088513299E+03  0.12509000000E+03 0.  0.
<mgrwt>
<rscale>  2 0.46267570E+03</rscale>
<asrwt>0</asrwt>
<pdfrwt beam="1">  1       21 0.27284311E-01 0.46267570E+03</pdfrwt>
<pdfrwt beam="2">  1       21 0.42419210E-01 0.46267570E+03</pdfrwt>
<totfact> 0.63203459E+04</totfact>
</mgrwt>
</event>
<event>
 7    0  0.4714446E-002  0.4725178E+03  0.7546771E-02  0.1021212E+00
         21   -1    0    0  502  501  0.00000000000E+00  0.00000000000E+00  0.11336836641E+03  0.11336836641E+03  0.00000000000E+00 0.  1.
         21   -1    0    0  501  502 -0.00000000000E+00 -0.00000000000E+00 -0.49236197535E+03  0.49236197535E+03  0.00000000000E+00 0.  1.
      99926    2    1    2    0    0  0.17763568394E-14  0.00000000000E+00 -0.37899360894E+03  0.60573034176E+03  0.47251782116E+03 0.  0.
      99925    2    3    3    0    0 -0.89730361360E+01 -0.12840691187E+03 -0.22776239942E+03  0.37102363707E+03  0.26308549615E+03 0.  0.
         25    1    4    4    0    0 -0.37408201779E+02 -0.90950311922E+02 -0.11827246537E+03  0.19826047756E+03  0.12509000000E+03 0.  0.
         25    1    3    3    0    0  0.89730361360E+01  0.12840691187E+03 -0.15123120951E+03  0.23470670469E+03  0.12509000000E+03 0.  0.
         25    1    4    4    0    0  0.28435165643E+02 -0.37456599953E+02 -0.10948993406E+03  0.17276315951E+03  0.12509000000E+03 0.  0.
<mgrwt>
<rscale>  2 0.47251782E+03</rscale>
<asrwt>0</asrwt>
<pdfrwt beam="1">  1       21 0.16671818E-01 0.47251782E+03</pdfrwt>
<pdfrwt beam="2">  1       21 0.72406174E-01 0.47251782E+03</pdfrwt>
<totfact> 0.50906864E+04</totfact>
</mgrwt>
</event>
<event>
 7    0  0.4714446E-002  0.4523576E+03  0.7546771E-02  0.1027021E+00
         21   -1    0    0  502  501  0.00000000000E+00  0.00000000000E+00  0.10532814527E+03  0.10532814527E+03  0.00000000000E+00 0.  1.
         21   -1    0    0  501  502 -0.00000000000E+00 -0.00000000000E+00 -0.48569017272E+03  0.48569017272E+03  0.00000000000E+00 0.  1.
      99926    2    1    2    0    0  0.00000000000E+00 -0.14210854715E-13 -0.38036202745E+03  0.59101831798E+03  0.45235758009E+03 0.  0.
      99925    2    3    3    0    0  0.53347650331E+02  0.94420668226E+02 -0.21061877231E+03  0.35390755241E+03  0.26292404610E+03 0.  0.
         25    1    4    4    0    0  0.25081145518E+02  0.62796285720E+02 -0.62143930508E+02  0.15518316133E+03  0.12509000000E+03 0.  0.
         25    1    3    3    0    0 -0.53347650331E+02 -0.94420668226E+02 -0.16974325514E+03  0.23711076557E+03  0.12509000000E+03 0.  0.
         25    1    4    4    0    0  0.28266504814E+02  0.31624382507E+02 -0.14847484180E+03  0.19872439108E+03  0.12509000000E+03 0.  0.
<mgrwt>
<rscale>  2 0.45235758E+03</rscale>
<asrwt>0</asrwt>
<pdfrwt beam="1">  1       21 0.15489433E-01 0.45235758E+03</pdfrwt>
<pdfrwt beam="2">  1       21 0.71425025E-01 0.45235758E+03</pdfrwt>
<totfact> 0.60487887E+04</totfact>
</mgrwt>
</event>
<event>
 7    0  0.4714446E-002  0.4515696E+03  0.7546771E-02  0.1027255E+00
         21   -1    0    0  502  501  0.00000000000E+00  0.00000000000E+00  0.95664026975E+02  0.95664026975E+02  0.00000000000E+00 0. -1.
         21   -1    0    0  501  502 -0.00000000000E+00 -0.00000000000E+00 -0.53289387735E+03  0.53289387735E+03  0.00000000000E+00 0. -1.
      99926    2    1    2    0    0  0.00000000000E+00 -0.48849813084E-14 -0.43722985038E+03  0.62855790433E+03  0.45156959268E+03 0.  0.
      99925    2    3    3    0    0  0.10123526771E+03 -0.24946938097E+01 -0.33585685427E+03  0.43835066113E+03  0.26286245952E+03 0.  0.
         25    1    4    4    0    0  0.66639845274E+02  0.31850237272E+02 -0.20159236485E+03  0.24847997155E+03  0.12509000000E+03 0.  0.
         25    1    3    3    0    0 -0.10123526771E+03  0.24946938097E+01 -0.10137299610E+03  0.19020724320E+03  0.12509000000E+03 0.  0.
         25    1    4    4    0    0  0.34595422435E+02 -0.34344931082E+02 -0.13426448942E+03  0.18987068959E+03  0.12509000000E+03 0.  0.
<mgrwt>
<rscale>  2 0.45156959E+03</rscale>
<asrwt>0</asrwt>
<pdfrwt beam="1">  1       21 0.14068239E-01 0.45156959E+03</pdfrwt>
<pdfrwt beam="2">  1       21 0.78366746E-01 0.45156959E+03</pdfrwt>
<totfact> 0.58522795E+04</totfact>
</mgrwt>
</event>
<event>
 7    0  0.4714446E-002  0.4567074E+03  0.7546771E-02  0.1025740E+00
         21   -1    0    0  502  501  0.00000000000E+00  0.00000000000E+00  0.14342570332E+03  0.14342570332E+03  0.00000000000E+00 0.  1.
         21   -1    0    0  501  502 -0.00000000000E+00 -0.00000000000E+00 -0.36357094285E+03  0.36357094285E+03  0.00000000000E+00 0.  1.
      99926    2    1    2    0    0  0.00000000000E+00  0.00000000000E+00 -0.22014523953E+03  0.50699664617E+03  0.45670742575E+03 0.  0.
      99925    2    3    3    0    0  0.30110190576E+02 -0.11000971638E+03 -0.15195518421E+03  0.32449691187E+03  0.26305723053E+03 0.  0.
         25    1    4    4    0    0  0.43226156911E+02 -0.33941478970E+02 -0.49488914828E+02  0.14531753310E+03  0.12509000000E+03 0.  0.
         25    1    3    3    0    0 -0.30110190576E+02  0.11000971638E+03 -0.68190055314E+02  0.18249973429E+03  0.12509000000E+03 0.  0.
         25    1    4    4    0    0 -0.13115966334E+02 -0.76068237406E+02 -0.10246626939E+03  0.17917937877E+03  0.12509000000E+03 0.  0.
<mgrwt>
<rscale>  2 0.45670743E+03</rscale>
<asrwt>0</asrwt>
<pdfrwt beam="1">  1       21 0.21092015E-01 0.45670743E+03</pdfrwt>
<pdfrwt beam="2">  1       21 0.53466314E-01 0.45670743E+03</pdfrwt>
<totfact> 0.63911340E+04</totfact>
</mgrwt>
</event>
<event>
 7    0  0.4714446E-002  0.4526939E+03  0.7546771E-02  0.1026922E+00
         21   -1    0    0  502  501  0.00000000000E+00  0.00000000000E+00  0.57123872544E+03  0.57123872544E+03  0.00000000000E+00 0.  1.
         21   -1    0    0  501  502 -0.00000000000E+00 -0.00000000000E+00 -0.89687427799E+02  0.89687427799E+02  0.00000000000E+00 0.  1.
      99926    2    1    2    0    0 -0.14210854715E-13  0.00000000000E+00  0.48155129764E+03  0.66092615324E+03  0.45269385657E+03 0.  0.
      99925    2    3    3    0    0 -0.10168891159E+03  0.18483165872E+02  0.36123806076E+03  0.45892356605E+03  0.26350643404E+03 0.  0.
         25    1    3    3    0    0  0.10168891159E+03 -0.18483165872E+02  0.12031323689E+03  0.20200258719E+03  0.12509000000E+03 0.  0.
         25    1    4    4    0    0 -0.91474520829E+02  0.23111146951E+02  0.21729688123E+03  0.26789392633E+03  0.12509000000E+03 0.  0.
         25    1    4    4    0    0 -0.10214390758E+02 -0.46279810784E+01  0.14394117953E+03  0.19102963972E+03  0.12509000000E+03 0.  0.
<mgrwt>
<rscale>  2 0.45269386E+03</rscale>
<asrwt>0</asrwt>
<pdfrwt beam="1">  1       21 0.84005694E-01 0.45269386E+03</pdfrwt>
<pdfrwt beam="2">  1       21 0.13189328E-01 0.45269386E+03</pdfrwt>
<totfact> 0.56088859E+04</totfact>
</mgrwt>
</event>
<event>
 7    0  0.4714446E-002  0.4638252E+03  0.7546771E-02  0.1023678E+00
         21   -1    0    0  502  501  0.00000000000E+00  0.00000000000E+00  0.42606494559E+03  0.42606494559E+03  0.00000000000E+00 0. -1.
         21   -1    0    0  501  502 -0.00000000000E+00 -0.00000000000E+00 -0.12623301585E+03  0.12623301585E+03  0.00000000000E+00 0. -1.
      99926    2    1    2    0    0  0.00000000000E+00  0.00000000000E+00  0.29983192974E+03  0.55229796144E+03  0.46382523876E+03 0.  0.
      99925    2    3    3    0    0  0.92743240094E+02  0.75208367180E+02  0.21229536007E+03  0.35847390151E+03  0.26301446933E+03 0.  0.
         25    1    4    4    0    0  0.68349294634E+02  0.35708615295E+01  0.10117825252E+03  0.17483970948E+03  0.12509000000E+03 0.  0.
         25    1    3    3    0    0 -0.92743240094E+02 -0.75208367180E+02  0.87536569669E+02  0.19382405993E+03  0.12509000000E+03 0.  0.
         25    1    4    4    0    0  0.24393945460E+02  0.71637505650E+02  0.11111710755E+03  0.18363419203E+03  0.12509000000E+03 0.  0.
<mgrwt>
<rscale>  2 0.46382524E+03</rscale>
<asrwt>0</asrwt>
<pdfrwt beam="1">  1       21 0.62656609E-01 0.46382524E+03</pdfrwt>
<pdfrwt beam="2">  1       21 0.18563679E-01 0.46382524E+03</pdfrwt>
<totfact> 0.57587468E+04</totfact>
</mgrwt>
</event>
<event>
 7    0  0.4714446E-002  0.4580019E+03  0.7546771E-02  0.1025362E+00
         21   -1    0    0  502  501  0.00000000000E+00  0.00000000000E+00  0.93565466801E+03  0.93565466801E+03  0.00000000000E+00 0. -1.
         21   -1    0    0  501  502 -0.00000000000E+00 -0.00000000000E+00 -0.56047850924E+02  0.56047850924E+02  0.00000000000E+00 0. -1.
      99926    2    1    2    0    0 -0.14210854715E-13  0.14210854715E-13  0.87960681709E+03  0.99170251894E+03  0.45800189235E+03 0.  0.
      99925    2    3    3    0    0 -0.67420524476E+02  0.89515994623E+02  0.48723287727E+03  0.56489640703E+03  0.26297040436E+03 0.  0.
         25    1    4    4    0    0 -0.70871024110E+02  0.67137699011E+02  0.27604218023E+03  0.31839749693E+03  0.12509000000E+03 0.  0.
         25    1    3    3    0    0  0.67420524476E+02 -0.89515994623E+02  0.39237393982E+03  0.42680611191E+03  0.12509000000E+03 0.  0.
         25    1    4    4    0    0  0.34504996340E+01  0.22378295612E+02  0.21119069704E+03  0.24649891010E+03  0.12509000000E+03 0.  0.
<mgrwt>
<rscale>  2 0.45800189E+03</rscale>
<asrwt>0</asrwt>
<pdfrwt beam="1">  1       21 0.13759627E+00 0.45800189E+03</pdfrwt>
<pdfrwt beam="2">  1       21 0.82423316E-02 0.45800189E+03</pdfrwt>
<totfact> 0.38578534E+04</totfact>
</mgrwt>
</event>
<event>
 7    0  0.4714446E-002  0.4480615E+03  0.7546771E-02  0.1028302E+00
         21   -1    0    0  502  501  0.00000000000E+00  0.00000000000E+00  0.33847523451E+03  0.33847523451E+03  0.00000000000E+00 0. -1.
         21   -1    0    0  501  502 -0.00000000000E+00 -0.00000000000E+00 -0.14828200487E+03  0.14828200487E+03  0.00000000000E+00 0. -1.
      99926    2    1    2    0    0  0.14210854715E-13  0.00000000000E+00  0.19019322964E+03  0.48675723938E+03  0.44806154207E+03 0.  0.
      99925    2    3    3    0    0 -0.77775137666E+02  0.65491332089E+02  0.15823669952E+03  0.32241973747E+03  0.26187315138E+03 0.  0.
         25    1    3    3    0    0  0.77775137666E+02 -0.65491332089E+02  0.31956530114E+02  0.16433750191E+03  0.12509000000E+03 0.  0.
         25    1    4    4    0    0 -0.74125630388E+02  0.25435122687E+02  0.64915682926E+02  0.16125479384E+03  0.12509000000E+03 0.  0.
         25    1    4    4    0    0 -0.36495072772E+01  0.40056209402E+02  0.93321016598E+02  0.16116494363E+03  0.12509000000E+03 0.  0.
<mgrwt>
<rscale>  2 0.44806154E+03</rscale>
<asrwt>0</asrwt>
<pdfrwt beam="1">  1       21 0.49775770E-01 0.44806154E+03</pdfrwt>
<pdfrwt beam="2">  1       21 0.21806177E-01 0.44806154E+03</pdfrwt>
<totfact> 0.69987772E+04</totfact>
</mgrwt>
</event>
<event>
 7    0  0.4714446E-002  0.4416991E+03  0.7546771E-02  0.1030227E+00
         21   -1    0    0  502  501  0.00000000000E+00  0.00000000000E+00  0.44809949385E+02  0.44809949385E+02  0.00000000000E+00 0. -1.
         21   -1    0    0  501  502 -0.00000000000E+00 -0.00000000000E+00 -0.10884751137E+04  0.10884751137E+04  0.00000000000E+00 0. -1.
      99926    2    1    2    0    0  0.00000000000E+00  0.00000000000E+00 -0.10436651643E+04  0.11332850631E+04  0.44169905933E+03 0.  0.
      99925    2    3    3    0    0  0.85613193169E+02 -0.51797350434E+02 -0.66258012862E+03  0.71990158871E+03  0.26312218878E+03 0.  0.
         25    1    4    4    0    0  0.58762219117E+01 -0.44537388512E+02 -0.30466803149E+03  0.33239769324E+03  0.12509000000E+03 0.  0.
         25    1    3    3    0    0 -0.85613193169E+02  0.51797350434E+02 -0.38108503572E+03  0.41338347440E+03  0.12509000000E+03 0.  0.
         25    1    4    4    0    0  0.79736971258E+02 -0.72599619211E+01 -0.35791209713E+03  0.38750389547E+03  0.12509000000E+03 0.  0.
<mgrwt>
<rscale>  2 0.44169906E+03</rscale>
<asrwt>0</asrwt>
<pdfrwt beam="1">  1       21 0.65896982E-02 0.44169906E+03</pdfrwt>
<pdfrwt beam="2">  1       21 0.16006988E+00 0.44169906E+03</pdfrwt>
<totfact> 0.38149959E+04</totfact>
</mgrwt>
</event>
<event>
 7    0  0.4714446E-002  0.4564844E+03  0.7546771E-02  0.1025806E+00
         21   -1    0    0  502  501  0.00000000000E+00  0.00000000000E+00  0.64308021132E+03  0.64308021132E+03  0.00000000000E+00 0. -1.
         21   -1    0    0  501  502 -0.00000000000E+00 -0.00000000000E+00 -0.81007775387E+02  0.81007775387E+02  0.00000000000E+00 0. -1.
      99926    2    1    2    0    0  0.00000000000E+00  0.00000000000E+00  0.56207243593E+03  0.72408798671E+03  0.45648438008E+03 0.  0.
      99925    2    3    3    0    0 -0.74628919273E+02 -0.84117371281E+02  0.38855524409E+03  0.48242513952E+03  0.26289471237E+03 0.  0.
         25    1    3    3    0    0  0.74628919273E+02  0.84117371281E+02  0.17351719184E+03  0.24166284718E+03  0.12509000000E+03 0.  0.
         25    1    4    4    0    0 -0.49341188270E+02 -0.38206113797E+02  0.13219587462E+03  0.19239936943E+03  0.12509000000E+03 0.  0.
         25    1    4    4    0    0 -0.25287731004E+02 -0.45911257484E+02  0.25635936947E+03  0.29002577009E+03  0.12509000000E+03 0.  0.
<mgrwt>
<rscale>  2 0.45648438E+03</rscale>
<asrwt>0</asrwt>
<pdfrwt beam="1">  1       21 0.94570616E-01 0.45648438E+03</pdfrwt>
<pdfrwt beam="2">  1       21 0.11912909E-01 0.45648438E+03</pdfrwt>
<totfact> 0.51016423E+04</totfact>
</mgrwt>
</event>
<event>
 7    0  0.4714446E-002  0.4392260E+03  0.7546771E-02  0.1030985E+00
         21   -1    0    0  502  501  0.00000000000E+00  0.00000000000E+00  0.11441166314E+03  0.11441166314E+03  0.00000000000E+00 0.  1.
         21   -1    0    0  501  502 -0.00000000000E+00 -0.00000000000E+00 -0.42154677803E+03  0.42154677803E+03  0.00000000000E+00 0.  1.
      99926    2    1    2    0    0  0.14210854715E-13 -0.88817841970E-15 -0.30713511489E+03  0.53595844117E+03  0.43922599178E+03 0.  0.
      99925    2    3    3    0    0  0.92425200281E+02 -0.50432943471E+01 -0.23441810917E+03  0.36419370821E+03  0.26290179674E+03 0.  0.
         25    1    4    4    0    0  0.41292027127E+02 -0.27097632878E+02 -0.15763518093E+03  0.20720924588E+03  0.12509000000E+03 0.  0.
         25    1    3    3    0    0 -0.92425200281E+02  0.50432943471E+01 -0.72717005721E+02  0.17176473295E+03  0.12509000000E+03 0.  0.
         25    1    4    4    0    0  0.51133173154E+02  0.22054338531E+02 -0.76782928247E+02  0.15698446234E+03  0.12509000000E+03 0.  0.
<mgrwt>
<rscale>  2 0.43922599E+03</rscale>
<asrwt>0</asrwt>
<pdfrwt beam="1">  1       21 0.16825245E-01 0.43922599E+03</pdfrwt>
<pdfrwt beam="2">  1       21 0.61992173E-01 0.43922599E+03</pdfrwt>
<totfact> 0.71296827E+04</totfact>
</mgrwt>
</event>
<event>
 7    0  0.4714446E-002  0.4414273E+03  0.7546771E-02  0.1030310E+00
         21   -1    0    0  502  501  0.00000000000E+00  0.00000000000E+00  0.47621462329E+03  0.47621462329E+03  0.00000000000E+00 0. -1.
         21   -1    0    0  501  502 -0.00000000000E+00 -0.00000000000E+00 -0.10229528447E+03  0.10229528447E+03  0.00000000000E+00 0. -1.
      99926    2    1    2    0    0  0.14210854715E-13  0.00000000000E+00  0.37391933882E+03  0.57850990776E+03  0.44142727763E+03 0.  0.
      99925    2    3    3    0    0 -0.90158999747E+02  0.42778233840E+02  0.23244821609E+03  0.36492102886E+03  0.26301437529E+03 0.  0.
         25    1    3    3    0    0  0.90158999747E+02 -0.42778233840E+02  0.14147112272E+03  0.21358887890E+03  0.12509000000E+03 0.  0.
         25    1    4    4    0    0 -0.24237220075E+02  0.55514104205E+02  0.12415955564E+03  0.18636620391E+03  0.12509000000E+03 0.  0.
         25    1    4    4    0    0 -0.65921779671E+02 -0.12735870365E+02  0.10828866046E+03  0.17855482495E+03  0.12509000000E+03 0.  0.
<mgrwt>
<rscale>  2 0.44142728E+03</rscale>
<asrwt>0</asrwt>
<pdfrwt beam="1">  1       21 0.70031561E-01 0.44142728E+03</pdfrwt>
<pdfrwt beam="2">  1       21 0.15043424E-01 0.44142728E+03</pdfrwt>
<totfact> 0.66917393E+04</totfact>
</mgrwt>
</event>
<event>
 7    0  0.4714446E-002  0.4583098E+03  0.7546771E-02  0.1025273E+00
         21   -1    0    0  502  501  0.00000000000E+00  0.00000000000E+00  0.20644089829E+03  0.20644089829E+03  0.00000000000E+00 0. -1.
         21   -1    0    0  501  502 -0.00000000000E+00 -0.00000000000E+00 -0.25436805191E+03  0.25436805191E+03  0.00000000000E+00 0. -1.
      99926    2    1    2    0    0  0.00000000000E+00  0.00000000000E+00 -0.47927153622E+02  0.46080895020E+03  0.45830980409E+03 0.  0.
      99925    2    3    3    0    0  0.84043747120E+02 -0.80143987268E+02 -0.36151855384E+02  0.28971664799E+03  0.26294936652E+03 0.  0.
         25    1    4    4    0    0  0.12725693130E+01 -0.24664273176E+02 -0.14309071885E+02  0.12830511853E+03  0.12509000000E+03 0.  0.
         25    1    4    4    0    0  0.82771177807E+02 -0.55479714092E+02 -0.21842783499E+02  0.16141152946E+03  0.12509000000E+03 0.  0.
         25    1    3    3    0    0 -0.84043747120E+02  0.80143987268E+02 -0.11775298238E+02  0.17109230220E+03  0.12509000000E+03 0.  0.
<mgrwt>
<rscale>  2 0.45830980E+03</rscale>
<asrwt>0</asrwt>
<pdfrwt beam="1">  1       21 0.30358956E-01 0.45830980E+03</pdfrwt>
<pdfrwt beam="2">  1       21 0.37407066E-01 0.45830980E+03</pdfrwt>
<totfact> 0.66352696E+04</totfact>
</mgrwt>
</event>
<event>
 7    0  0.4714446E-002  0.4525574E+03  0.7546771E-02  0.1026962E+00
         21   -1    0    0  502  501  0.00000000000E+00  0.00000000000E+00  0.38915948658E+02  0.38915948658E+02  0.00000000000E+00 0. -1.
         21   -1    0    0  501  502 -0.00000000000E+00 -0.00000000000E+00 -0.13157087655E+04  0.13157087655E+04  0.00000000000E+00 0. -1.
      99926    2    1    2    0    0 -0.71054273576E-14  0.00000000000E+00 -0.12767928169E+04  0.13546247142E+04  0.45255742074E+03 0.  0.
      99925    2    3    3    0    0 -0.52920989892E+02 -0.92676308528E+02 -0.89391399349E+03  0.93793150470E+03  0.26314207271E+03 0.  0.
         25    1    4    4    0    0 -0.53277737497E+02 -0.28824057077E+02 -0.52812883890E+03  0.54611072335E+03  0.12509000000E+03 0.  0.
         25    1    3    3    0    0  0.52920989892E+02  0.92676308528E+02 -0.38287882337E+03  0.41669320947E+03  0.12509000000E+03 0.  0.
         25    1    4    4    0    0  0.35674760506E+00 -0.63852251450E+02 -0.36578515459E+03  0.39182078135E+03  0.12509000000E+03 0.  0.
<mgrwt>
<rscale>  2 0.45255742E+03</rscale>
<asrwt>0</asrwt>
<pdfrwt beam="1">  1       21 0.57229337E-02 0.45255742E+03</pdfrwt>
<pdfrwt beam="2">  1       21 0.19348658E+00 0.45255742E+03</pdfrwt>
<totfact> 0.28096334E+04</totfact>
</mgrwt>
</event>
<event>
 7    0  0.4714446E-002  0.4659607E+03  0.7546771E-02  0.1023067E+00
         21   -1    0    0  502  501  0.00000000000E+00  0.00000000000E+00  0.32055828395E+03  0.32055828395E+03  0.00000000000E+00 0.  1.
         21   -1    0    0  501  502 -0.00000000000E+00 -0.00000000000E+00 -0.16932905994E+03  0.16932905994E+03  0.00000000000E+00 0.  1.
      99926    2    1    2    0    0  0.00000000000E+00  0.00000000000E+00  0.15122922401E+03  0.48988734389E+03  0.46596065446E+03 0.  0.
      99925    2    3    3    0    0 -0.83396257895E+02 -0.43299311099E+02  0.10334862838E+02  0.27934401038E+03  0.26286213226E+03 0.  0.
         25    1    4    4    0    0 -0.65225266307E+02  0.11099146008E+02  0.73399623780E+01  0.14170006900E+03  0.12509000000E+03 0.  0.
         25    1    4    4    0    0 -0.18170991589E+02 -0.54398457107E+02  0.29949004600E+01  0.13764394138E+03  0.12509000000E+03 0.  0.
         25    1    3    3    0    0  0.83396257895E+02  0.43299311099E+02  0.14089436117E+03  0.21054333350E+03  0.12509000000E+03 0.  0.
<mgrwt>
<rscale>  2 0.46596065E+03</rscale>
<asrwt>0</asrwt>
<pdfrwt beam="1">  1       21 0.47140924E-01 0.46596065E+03</pdfrwt>
<pdfrwt beam="2">  1       21 0.24901332E-01 0.46596065E+03</pdfrwt>
<totfact> 0.60545308E+04</totfact>
</mgrwt>
</event>
<event>
 7    0  0.4714446E-002  0.4531799E+03  0.7546771E-02  0.1026778E+00
         21   -1    0    0  502  501  0.00000000000E+00  0.00000000000E+00  0.71463622829E+02  0.71463622829E+02  0.00000000000E+00 0. -1.
         21   -1    0    0  501  502 -0.00000000000E+00 -0.00000000000E+00 -0.71844957999E+03  0.71844957999E+03  0.00000000000E+00 0. -1.
      99926    2    1    2    0    0  0.00000000000E+00  0.00000000000E+00 -0.64698595716E+03  0.78991320282E+03  0.45317991927E+03 0.  0.
      99925    2    3    3    0    0  0.27100600728E+02 -0.97810322477E+02 -0.32648061977E+03  0.43120373662E+03  0.26276560972E+03 0.  0.
         25    1    4    4    0    0  0.50520212559E+02 -0.54878811176E+02 -0.14589510622E+03  0.20614767986E+03  0.12509000000E+03 0.  0.
         25    1    3    3    0    0 -0.27100600728E+02  0.97810322477E+02 -0.32050533739E+03  0.35870946620E+03  0.12509000000E+03 0.  0.
         25    1    4    4    0    0 -0.23419611831E+02 -0.42931511301E+02 -0.18058551356E+03  0.22505605677E+03  0.12509000000E+03 0.  0.
<mgrwt>
<rscale>  2 0.45317992E+03</rscale>
<asrwt>0</asrwt>
<pdfrwt beam="1">  1       21 0.10509356E-01 0.45317992E+03</pdfrwt>
<pdfrwt beam="2">  1       21 0.10565435E+00 0.45317992E+03</pdfrwt>
<totfact> 0.48952120E+04</totfact>
</mgrwt>
</event>
<event>
 7    0  0.4714446E-002  0.4536790E+03  0.7546771E-02  0.1026631E+00
         21   -1    0    0  502  501  0.00000000000E+00  0.00000000000E+00  0.24228454430E+03  0.24228454430E+03  0.00000000000E+00 0.  1.
         21   -1    0    0  501  502 -0.00000000000E+00 -0.00000000000E+00 -0.21237899412E+03  0.21237899412E+03  0.00000000000E+00 0.  1.
      99926    2    1    2    0    0 -0.17763568394E-14  0.00000000000E+00  0.29905550180E+02  0.45466353842E+03  0.45367895173E+03 0.  0.
      99925    2    3    3    0    0 -0.91473108880E+01 -0.10988808262E+03  0.10910352904E+02  0.28683210627E+03  0.26456484534E+03 0.  0.
         25    1    4    4    0    0 -0.98366585238E+01 -0.85673113366E+02 -0.26080880037E+02  0.15415694149E+03  0.12509000000E+03 0.  0.
         25    1    4    4    0    0  0.68934763580E+00 -0.24214969256E+02  0.36991232941E+02  0.13267516478E+03  0.12509000000E+03 0.  0.
         25    1    3    3    0    0  0.91473108880E+01  0.10988808262E+03  0.18995197277E+02  0.16783143215E+03  0.12509000000E+03 0.  0.
<mgrwt>
<rscale>  2 0.45367895E+03</rscale>
<asrwt>0</asrwt>
<pdfrwt beam="1">  1       21 0.35630080E-01 0.45367895E+03</pdfrwt>
<pdfrwt beam="2">  1       21 0.31232205E-01 0.45367895E+03</pdfrwt>
<totfact> 0.69298035E+04</totfact>
</mgrwt>
</event>
<event>
 7    0  0.4714446E-002  0.4585106E+03  0.7546771E-02  0.1025214E+00
         21   -1    0    0  502  501  0.00000000000E+00  0.00000000000E+00  0.11361559260E+03  0.11361559260E+03  0.00000000000E+00 0.  1.
         21   -1    0    0  501  502 -0.00000000000E+00 -0.00000000000E+00 -0.46259492226E+03  0.46259492226E+03  0.00000000000E+00 0.  1.
      99926    2    1    2    0    0  0.00000000000E+00  0.00000000000E+00 -0.34897932966E+03  0.57621051487E+03  0.45851061592E+03 0.  0.
      99925    2    3    3    0    0 -0.44118557580E+02  0.10761677897E+03 -0.21208177010E+03  0.35731266620E+03  0.26299400369E+03 0.  0.
         25    1    3    3    0    0  0.44118557580E+02 -0.10761677897E+03 -0.13689755956E+03  0.21889784867E+03  0.12509000000E+03 0.  0.
         25    1    4    4    0    0  0.87693822850E+01  0.26413314784E+02 -0.11107356829E+03  0.16958599864E+03  0.12509000000E+03 0.  0.
         25    1    4    4    0    0 -0.52887939865E+02  0.81203464181E+02 -0.10100820181E+03  0.18772666756E+03  0.12509000000E+03 0.  0.
<mgrwt>
<rscale>  2 0.45851062E+03</rscale>
<asrwt>0</asrwt>
<pdfrwt beam="1">  1       21 0.16708175E-01 0.45851062E+03</pdfrwt>
<pdfrwt beam="2">  1       21 0.68028665E-01 0.45851062E+03</pdfrwt>
<totfact> 0.58525508E+04</totfact>
</mgrwt>
</event>
<event>
 7    0  0.4714446E-002  0.4517041E+03  0.7546771E-02  0.1027215E+00
         21   -1    0    0  502  501  0.00000000000E+00  0.00000000000E+00  0.24510648011E+03  0.24510648011E+03  0.00000000000E+00 0.  1.
         21   -1    0    0  501  502 -0.00000000000E+00 -0.00000000000E+00 -0.20811016687E+03  0.20811016687E+03  0.00000000000E+00 0.  1.
      99926    2    1    2    0    0  0.00000000000E+00  0.00000000000E+00  0.36996313233E+02  0.45321664698E+03  0.45170410880E+03 0.  0.
      99925    2    3    3    0    0 -0.37526746072E+02  0.11381898759E+01 -0.80450482070E+02  0.27757266053E+03  0.26299191939E+03 0.  0.
         25    1    3    3    0    0  0.37526746072E+02 -0.11381898759E+01  0.11744679530E+03  0.17564398644E+03  0.12509000000E+03 0.  0.
         25    1    4    4    0    0 -0.51934983404E+02 -0.20556536372E+02 -0.30259776916E+02  0.14029602948E+03  0.12509000000E+03 0.  0.
         25    1    4    4    0    0  0.14408237331E+02  0.21694726248E+02 -0.50190705154E+02  0.13727663105E+03  0.12509000000E+03 0.  0.
<mgrwt>
<rscale>  2 0.45170411E+03</rscale>
<asrwt>0</asrwt>
<pdfrwt beam="1">  1       21 0.36045070E-01 0.45170411E+03</pdfrwt>
<pdfrwt beam="2">  1       21 0.30604436E-01 0.45170411E+03</pdfrwt>
<totfact> 0.70512770E+04</totfact>
</mgrwt>
</event>
<event>
 7    0  0.4714446E-002  0.4545404E+03  0.7546771E-02  0.1026377E+00
         21   -1    0    0  502  501  0.00000000000E+00  0.00000000000E+00  0.50617317041E+02  0.50617317041E+02  0.00000000000E+00 0.  1.
         21   -1    0    0  501  502 -0.00000000000E+00 -0.00000000000E+00 -0.10204363843E+04  0.10204363843E+04  0.00000000000E+00 0.  1.
      99926    2    1    2    0    0  0.14210854715E-13  0.17763568394E-14 -0.96981906725E+03  0.10710537013E+04  0.45454043597E+03 0.  0.
      99925    2    3    3    0    0 -0.91015428161E+02  0.58553426045E+01 -0.45451740961E+03  0.53300035856E+03  0.26303082212E+03 0.  0.
         25    1    4    4    0    0 -0.48784810359E+02 -0.29710213996E+02 -0.27371550094E+03  0.30631738131E+03  0.12509000000E+03 0.  0.
         25    1    4    4    0    0 -0.42230617803E+02  0.35565556601E+02 -0.18080190867E+03  0.22668297725E+03  0.12509000000E+03 0.  0.
         25    1    3    3    0    0  0.91015428161E+02 -0.58553426045E+01 -0.51530165764E+03  0.53805334277E+03  0.12509000000E+03 0.  0.
<mgrwt>
<rscale>  2 0.45454044E+03</rscale>
<asrwt>0</asrwt>
<pdfrwt beam="1">  1       21 0.74437236E-02 0.45454044E+03</pdfrwt>
<pdfrwt beam="2">  1       21 0.15006416E+00 0.45454044E+03</pdfrwt>
<totfact> 0.36645475E+04</totfact>
</mgrwt>
</event>
<event>
 7    0  0.4714446E-002  0.4258767E+03  0.7546771E-02  0.1035170E+00
         21   -1    0    0  502  501  0.00000000000E+00  0.00000000000E+00  0.55824584144E+03  0.55824584144E+03  0.00000000000E+00 0.  1.
         21   -1    0    0  501  502 -0.00000000000E+00 -0.00000000000E+00 -0.81223610194E+02  0.81223610194E+02  0.00000000000E+00 0.  1.
      99926    2    1    2    0    0  0.53290705182E-14  0.00000000000E+00  0.47702223125E+03  0.63946945163E+03  0.42587670806E+03 0.  0.
      99925    2    3    3    0    0  0.12710624418E+02  0.70201687117E+02  0.37221351147E+03  0.46136214496E+03  0.26310129958E+03 0.  0.
         25    1    4    4    0    0  0.46894997351E+02  0.39953301764E+02  0.19200993973E+03  0.23729882459E+03  0.12509000000E+03 0.  0.
         25    1    4    4    0    0 -0.34184372933E+02  0.30248385354E+02  0.18020357174E+03  0.22406332037E+03  0.12509000000E+03 0.  0.
         25    1    3    3    0    0 -0.12710624418E+02 -0.70201687117E+02  0.10480871978E+03  0.17810730667E+03  0.12509000000E+03 0.  0.
<mgrwt>
<rscale>  2 0.42587671E+03</rscale>
<asrwt>0</asrwt>
<pdfrwt beam="1">  1       21 0.82094974E-01 0.42587671E+03</pdfrwt>
<pdfrwt beam="2">  1       21 0.11944649E-01 0.42587671E+03</pdfrwt>
<totfact> 0.71340271E+04</totfact>
</mgrwt>
</event>
<event>
 7    0  0.4714446E-002  0.4592343E+03  0.7546771E-02  0.1025004E+00
         21   -1    0    0  502  501  0.00000000000E+00  0.00000000000E+00  0.14595813562E+04  0.14595813562E+04  0.00000000000E+00 0.  1.
         21   -1    0    0  501  502 -0.00000000000E+00 -0.00000000000E+00 -0.36122703549E+02  0.36122703549E+02  0.00000000000E+00 0.  1.
      99926    2    1    2    0    0 -0.71054273576E-14  0.00000000000E+00  0.14234586526E+04  0.14957040597E+04  0.45923425235E+03 0.  0.
      99925    2    3    3    0    0 -0.35886606233E+02  0.91987724844E+02  0.68843082910E+03  0.74359834941E+03  0.26315757401E+03 0.  0.
         25    1    4    4    0    0 -0.52010790294E+02  0.59423827892E+02  0.41861114827E+03  0.44398098516E+03  0.12509000000E+03 0.  0.
         25    1    3    3    0    0  0.35886606233E+02 -0.91987724844E+02  0.73502782351E+03  0.75210571030E+03  0.12509000000E+03 0.  0.
         25    1    4    4    0    0  0.16124184061E+02  0.32563896952E+02  0.26981968083E+03  0.29961736425E+03  0.12509000000E+03 0.  0.
<mgrwt>
<rscale>  2 0.45923425E+03</rscale>
<asrwt>0</asrwt>
<pdfrwt beam="1">  1       21 0.21464428E+00 0.45923425E+03</pdfrwt>
<pdfrwt beam="2">  1       21 0.53121633E-02 0.45923425E+03</pdfrwt>
<totfact> 0.23114986E+04</totfact>
</mgrwt>
</event>
<event>
 7    0  0.4714446E-002  0.4611389E+03  0.7546771E-02  0.1024451E+00
         21   -1    0    0  502  501  0.00000000000E+00  0.00000000000E+00  0.68180437843E+02  0.68180437843E+02  0.00000000000E+00 0. -1.
         21   -1    0    0  501  502 -0.00000000000E+00 -0.00000000000E+00 -0.77972921308E+03  0.77972921308E+03  0.00000000000E+00 0. -1.
      99926    2    1    2    0    0  0.00000000000E+00  0.00000000000E+00 -0.71154877524E+03  0.84790965092E+03  0.46113893415E+03 0.  0.
      99925    2    3    3    0    0  0.37037576400E+02  0.74768748190E+02 -0.60106855081E+03  0.66132043403E+03  0.26286720206E+03 0.  0.
         25    1    4    4    0    0  0.27108680294E+02  0.56305397406E+02 -0.39849513223E+03  0.42231629952E+03  0.12509000000E+03 0.  0.
         25    1    3    3    0    0 -0.37037576400E+02 -0.74768748190E+02 -0.11048022443E+03  0.18658921689E+03  0.12509000000E+03 0.  0.
         25    1    4    4    0    0  0.99288961062E+01  0.18463350784E+02 -0.20257341857E+03  0.23900413451E+03  0.12509000000E+03 0.  0.
<mgrwt>
<rscale>  2 0.46113893E+03</rscale>
<asrwt>0</asrwt>
<pdfrwt beam="1">  1       21 0.10026534E-01 0.46113893E+03</pdfrwt>
<pdfrwt beam="2">  1       21 0.11466607E+00 0.46113893E+03</pdfrwt>
<totfact> 0.43404641E+04</totfact>
</mgrwt>
</event>
<event>
 7    0  0.4714446E-002  0.4561065E+03  0.7546771E-02  0.1025917E+00
         21   -1    0    0  502  501  0.00000000000E+00  0.00000000000E+00  0.25208953133E+03  0.25208953133E+03  0.00000000000E+00 0. -1.
         21   -1    0    0  501  502 -0.00000000000E+00 -0.00000000000E+00 -0.20630876079E+03  0.20630876079E+03  0.00000000000E+00 0. -1.
      99926    2    1    2    0    0  0.00000000000E+00  0.00000000000E+00  0.45780770534E+02  0.45839829212E+03  0.45610647361E+03 0.  0.
      99925    2    3    3    0    0  0.50776083728E+02  0.94168174333E+02 -0.88579630132E+01  0.28496601416E+03  0.26397217653E+03 0.  0.
         25    1    4    4    0    0  0.20194386317E+02  0.69370272309E+02 -0.40572650406E+02  0.15004564632E+03  0.12509000000E+03 0.  0.
         25    1    3    3    0    0 -0.50776083728E+02 -0.94168174333E+02  0.54638733548E+02  0.17343227796E+03  0.12509000000E+03 0.  0.
         25    1    4    4    0    0  0.30581697412E+02  0.24797902024E+02  0.31714687393E+02  0.13492036784E+03  0.12509000000E+03 0.  0.
<mgrwt>
<rscale>  2 0.45610647E+03</rscale>
<asrwt>0</asrwt>
<pdfrwt beam="1">  1       21 0.37071990E-01 0.45610647E+03</pdfrwt>
<pdfrwt beam="2">  1       21 0.30339523E-01 0.45610647E+03</pdfrwt>
<totfact> 0.67697921E+04</totfact>
</mgrwt>
</event>
<event>
 7    0  0.4714446E-002  0.4489500E+03  0.7546771E-02  0.1028036E+00
         21   -1    0    0  502  501  0.00000000000E+00  0.00000000000E+00  0.10284002730E+03  0.10284002730E+03  0.00000000000E+00 0.  1.
         21   -1    0    0  501  502 -0.00000000000E+00 -0.00000000000E+00 -0.48997491461E+03  0.48997491461E+03  0.00000000000E+00 0.  1.
      99926    2    1    2    0    0 -0.35527136788E-14  0.00000000000E+00 -0.38713488730E+03  0.59281494191E+03  0.44895003551E+03 0.  0.
      99925    2    3    3    0    0  0.22387820887E+02  0.75039120062E+02 -0.14794490982E+03  0.31176078789E+03  0.26301142268E+03 0.  0.
         25    1    4    4    0    0  0.40189083093E+02  0.91870797240E+01 -0.64668650998E+02  0.14672800467E+03  0.12509000000E+03 0.  0.
         25    1    4    4    0    0 -0.17801262206E+02  0.65852040338E+02 -0.83276258818E+02  0.16503278321E+03  0.12509000000E+03 0.  0.
         25    1    3    3    0    0 -0.22387820887E+02 -0.75039120062E+02 -0.23918997749E+03  0.28105415403E+03  0.12509000000E+03 0.  0.
<mgrwt>
<rscale>  2 0.44895004E+03</rscale>
<asrwt>0</asrwt>
<pdfrwt beam="1">  1       21 0.15123534E-01 0.44895004E+03</pdfrwt>
<pdfrwt beam="2">  1       21 0.72055132E-01 0.44895004E+03</pdfrwt>
<totfact> 0.62035940E+04</totfact>
</mgrwt>
</event>
<event>
 7    0  0.4714446E-002  0.4485105E+03  0.7546771E-02  0.1028167E+00
         21   -1    0    0  502  501  0.00000000000E+00  0.00000000000E+00  0.39637350513E+02  0.39637350513E+02  0.00000000000E+00 0. -1.
         21   -1    0    0  501  502 -0.00000000000E+00 -0.00000000000E+00 -0.12687631381E+04  0.12687631381E+04  0.00000000000E+00 0. -1.
      99926    2    1    2    0    0  0.00000000000E+00  0.00000000000E+00 -0.12291257876E+04  0.13084004886E+04  0.44851046464E+03 0.  0.
      99925    2    3    3    0    0  0.35981995015E+02  0.68374202813E+02 -0.99377421758E+03  0.10308980469E+04  0.26304724272E+03 0.  0.
         25    1    4    4    0    0  0.73849410292E+01  0.27011056741E+02 -0.63084534174E+03  0.64373712635E+03  0.12509000000E+03 0.  0.
         25    1    3    3    0    0 -0.35981995015E+02 -0.68374202813E+02 -0.23535156997E+03  0.27750244172E+03  0.12509000000E+03 0.  0.
         25    1    4    4    0    0  0.28597053985E+02  0.41363146072E+02 -0.36292887584E+03  0.38716092051E+03  0.12509000000E+03 0.  0.
<mgrwt>
<rscale>  2 0.44851046E+03</rscale>
<asrwt>0</asrwt>
<pdfrwt beam="1">  1       21 0.58290228E-02 0.44851046E+03</pdfrwt>
<pdfrwt beam="2">  1       21 0.18658279E+00 0.44851046E+03</pdfrwt>
<totfact> 0.30375982E+04</totfact>
</mgrwt>
</event>
<event>
 7    0  0.4714446E-002  0.4564603E+03  0.7546771E-02  0.1025813E+00
         21   -1    0    0  502  501  0.00000000000E+00  0.00000000000E+00  0.42499350915E+03  0.42499350915E+03  0.00000000000E+00 0. -1.
         21   -1    0    0  501  502 -0.00000000000E+00 -0.00000000000E+00 -0.12256421700E+03  0.12256421700E+03  0.00000000000E+00 0. -1.
      99926    2    1    2    0    0  0.00000000000E+00  0.14210854715E-13  0.30242929215E+03  0.54755772615E+03  0.45646027945E+03 0.  0.
      99925    2    3    3    0    0 -0.76570672741E+02  0.85049313544E+02  0.18380541141E+03  0.34063845001E+03  0.26297085523E+03 0.  0.
         25    1    4    4    0    0 -0.15661643501E+02  0.32042807665E+02  0.12548457555E+03  0.18073714449E+03  0.12509000000E+03 0.  0.
         25    1    4    4    0    0 -0.60909029240E+02  0.53006505879E+02  0.58320835863E+02  0.15990130551E+03  0.12509000000E+03 0.  0.
         25    1    3    3    0    0  0.76570672741E+02 -0.85049313544E+02  0.11862388074E+03  0.20691927614E+03  0.12509000000E+03 0.  0.
<mgrwt>
<rscale>  2 0.45646028E+03</rscale>
<asrwt>0</asrwt>
<pdfrwt beam="1">  1       21 0.62499045E-01 0.45646028E+03</pdfrwt>
<pdfrwt beam="2">  1       21 0.18024150E-01 0.45646028E+03</pdfrwt>
<totfact> 0.61316638E+04</totfact>
</mgrwt>
</event>
<event>
 7    0  0.4714446E-002  0.4562935E+03  0.7546771E-02  0.1025862E+00
         21   -1    0    0  502  501  0.00000000000E+00  0.00000000000E+00  0.42899921421E+03  0.42899921421E+03  0.00000000000E+00 0. -1.
         21   -1    0    0  501  502 -0.00000000000E+00 -0.00000000000E+00 -0.12133106024E+03  0.12133106024E+03  0.00000000000E+00 0. -1.
      99926    2    1    2    0    0  0.00000000000E+00  0.00000000000E+00  0.30766815397E+03  0.55033027445E+03  0.45629345603E+03 0.  0.
      99925    2    3    3    0    0  0.23583486380E+02  0.88665235656E+02  0.11042612158E+03  0.29939276772E+03  0.26272494399E+03 0.  0.
         25    1    4    4    0    0  0.48290916916E+02  0.63294822820E+02  0.58268220708E+02  0.15931396956E+03  0.12509000000E+03 0.  0.
         25    1    3    3    0    0 -0.23583486380E+02 -0.88665235656E+02  0.19724203239E+03  0.25093750673E+03  0.12509000000E+03 0.  0.
         25    1    4    4    0    0 -0.24707430535E+02  0.25370412836E+02  0.52157900869E+02  0.14007879816E+03  0.12509000000E+03 0.  0.
<mgrwt>
<rscale>  2 0.45629346E+03</rscale>
<asrwt>0</asrwt>
<pdfrwt beam="1">  1       21 0.63088119E-01 0.45629346E+03</pdfrwt>
<pdfrwt beam="2">  1       21 0.17842803E-01 0.45629346E+03</pdfrwt>
<totfact> 0.61215822E+04</totfact>
</mgrwt>
</event>
<event>
 7    0  0.4714446E-002  0.4538250E+03  0.7546771E-02  0.1026588E+00
         21   -1    0    0  502  501  0.00000000000E+00  0.00000000000E+00  0.56335223110E+03  0.56335223110E+03  0.00000000000E+00 0. -1.
         21   -1    0    0  501  502 -0.00000000000E+00 -0.00000000000E+00 -0.91398012155E+02  0.91398012155E+02  0.00000000000E+00 0. -1.
      99926    2    1    2    0    0  0.14210854715E-13  0.00000000000E+00  0.47195421894E+03  0.65475024325E+03  0.45382496214E+03 0.  0.
      99925    2    3    3    0    0 -0.68510256724E+02  0.87259083592E+02  0.27451965375E+03  0.39603086134E+03  0.26300494271E+03 0.  0.
         25    1    4    4    0    0 -0.64115252283E+02  0.35691832978E+02  0.17887128168E+03  0.23027617338E+03  0.12509000000E+03 0.  0.
         25    1    4    4    0    0 -0.43950044414E+01  0.51567250613E+02  0.95648372070E+02  0.16575468796E+03  0.12509000000E+03 0.  0.
         25    1    3    3    0    0  0.68510256724E+02 -0.87259083592E+02  0.19743456519E+03  0.25871938191E+03  0.12509000000E+03 0.  0.
<mgrwt>
<rscale>  2 0.45382496E+03</rscale>
<asrwt>0</asrwt>
<pdfrwt beam="1">  1       21 0.82845914E-01 0.45382496E+03</pdfrwt>
<pdfrwt beam="2">  1       21 0.13440885E-01 0.45382496E+03</pdfrwt>
<totfact> 0.55945377E+04</totfact>
</mgrwt>
</event>
<event>
 7    0  0.4714446E-002  0.4587138E+03  0.7546771E-02  0.1025155E+00
         21   -1    0    0  502  501  0.00000000000E+00  0.00000000000E+00  0.91472225796E+03  0.91472225796E+03  0.00000000000E+00 0. -1.
         21   -1    0    0  501  502 -0.00000000000E+00 -0.00000000000E+00 -0.57508808789E+02  0.57508808789E+02  0.00000000000E+00 0. -1.
      99926    2    1    2    0    0  0.00000000000E+00  0.00000000000E+00  0.85721344917E+03  0.97223106675E+03  0.45871379935E+03 0.  0.
      99925    2    3    3    0    0  0.33547987627E+02  0.11110345712E+03  0.51394531001E+03  0.58889052738E+03  0.26302628367E+03 0.  0.
         25    1    4    4    0    0  0.57334549849E+02  0.55123587965E+02  0.27511415087E+03  0.31250786336E+03  0.12509000000E+03 0.  0.
         25    1    3    3    0    0 -0.33547987627E+02 -0.11110345712E+03  0.34326813916E+03  0.38334053937E+03  0.12509000000E+03 0.  0.
         25    1    4    4    0    0 -0.23786562222E+02  0.55979869158E+02  0.23883115915E+03  0.27638266402E+03  0.12509000000E+03 0.  0.
<mgrwt>
<rscale>  2 0.45871380E+03</rscale>
<asrwt>0</asrwt>
<pdfrwt beam="1">  1       21 0.13451797E+00 0.45871380E+03</pdfrwt>
<pdfrwt beam="2">  1       21 0.84571783E-02 0.45871380E+03</pdfrwt>
<totfact> 0.39105685E+04</totfact>
</mgrwt>
</event>
<event>
 7    0  0.4714446E-002  0.4535376E+03  0.7546771E-02  0.1026672E+00
         21   -1    0    0  502  501  0.00000000000E+00  0.00000000000E+00  0.39343344387E+03  0.39343344387E+03  0.00000000000E+00 0.  1.
         21   -1    0    0  501  502 -0.00000000000E+00 -0.00000000000E+00 -0.13070593287E+03  0.13070593287E+03  0.00000000000E+00 0.  1.
      99926    2    1    2    0    0  0.00000000000E+00  0.00000000000E+00  0.26272751100E+03  0.52413937674E+03  0.45353758522E+03 0.  0.
      99925    2    3    3    0    0 -0.10968802323E+02 -0.65357148594E+02  0.61391949727E+02  0.27801869936E+03  0.26293260393E+03 0.  0.
         25    1    3    3    0    0  0.10968802323E+02  0.65357148594E+02  0.20133556128E+03  0.24612067737E+03  0.12509000000E+03 0.  0.
         25    1    4    4    0    0 -0.14389544674E+02  0.78773528023E+01  0.29243329681E+02  0.12950595397E+03  0.12509000000E+03 0.  0.
         25    1    4    4    0    0  0.34207423508E+01 -0.73234501397E+02  0.32148620047E+02  0.14851274539E+03  0.12509000000E+03 0.  0.
<mgrwt>
<rscale>  2 0.45353759E+03</rscale>
<asrwt>0</asrwt>
<pdfrwt beam="1">  1       21 0.57857859E-01 0.45353759E+03</pdfrwt>
<pdfrwt beam="2">  1       21 0.19221461E-01 0.45353759E+03</pdfrwt>
<totfact> 0.64347737E+04</totfact>
</mgrwt>
</event>
<event>
 7    0  0.4714446E-002  0.4574803E+03  0.7546771E-02  0.1025515E+00
         21   -1    0    0  502  501  0.00000000000E+00  0.00000000000E+00  0.33841837965E+03  0.33841837965E+03  0.00000000000E+00 0. -1.
         21   -1    0    0  501  502 -0.00000000000E+00 -0.00000000000E+00 -0.15460758660E+03  0.15460758660E+03  0.00000000000E+00 0. -1.
      99926    2    1    2    0    0  0.00000000000E+00  0.71054273576E-14  0.18381079305E+03  0.49302596625E+03  0.45748026816E+03 0.  0.
      99925    2    3    3    0    0  0.84323582466E+02 -0.62365934728E+02  0.63424675769E+02  0.29019524445E+03  0.26304108810E+03 0.  0.
         25    1    4    4    0    0  0.14445900246E+02 -0.26004394075E+02 -0.18673002458E+01  0.12859201941E+03  0.12509000000E+03 0.  0.
         25    1    4    4    0    0  0.69877682220E+02 -0.36361540653E+02  0.65291976015E+02  0.16160322504E+03  0.12509000000E+03 0.  0.
         25    1    3    3    0    0 -0.84323582466E+02  0.62365934728E+02  0.12038611728E+03  0.20283072180E+03  0.12509000000E+03 0.  0.
<mgrwt>
<rscale>  2 0.45748027E+03</rscale>
<asrwt>0</asrwt>
<pdfrwt beam="1">  1       21 0.49767409E-01 0.45748027E+03</pdfrwt>
<pdfrwt beam="2">  1       21 0.22736410E-01 0.45748027E+03</pdfrwt>
<totfact> 0.64484351E+04</totfact>
</mgrwt>
</event>
<event>
 7    0  0.4714446E-002  0.4564349E+03  0.7546771E-02  0.1025820E+00
         21   -1    0    0  502  501  0.00000000000E+00  0.00000000000E+00  0.13503783766E+04  0.13503783766E+04  0.00000000000E+00 0. -1.
         21   -1    0    0  501  502 -0.00000000000E+00 -0.00000000000E+00 -0.38569349436E+02  0.38569349436E+02  0.00000000000E+00 0. -1.
      99926    2    1    2    0    0  0.00000000000E+00  0.00000000000E+00  0.13118090272E+04  0.13889477260E+04  0.45643494817E+03 0.  0.
      99925    2    3    3    0    0 -0.92902429415E+02  0.50995833525E+02  0.95608366928E+03  0.99725974464E+03  0.26305812891E+03 0.  0.
         25    1    4    4    0    0 -0.59805654752E+02  0.14284193414E+02  0.35660713356E+03  0.38287975962E+03  0.12509000000E+03 0.  0.
         25    1    3    3    0    0  0.92902429415E+02 -0.50995833525E+02  0.35572535789E+03  0.39168798140E+03  0.12509000000E+03 0.  0.
         25    1    4    4    0    0 -0.33096774663E+02  0.36711640110E+02  0.59947653572E+03  0.61437998502E+03  0.12509000000E+03 0.  0.
<mgrwt>
<rscale>  2 0.45643495E+03</rscale>
<asrwt>0</asrwt>
<pdfrwt beam="1">  1       21 0.19858502E+00 0.45643495E+03</pdfrwt>
<pdfrwt beam="2">  1       21 0.56719641E-02 0.45643495E+03</pdfrwt>
<totfact> 0.26333134E+04</totfact>
</mgrwt>
</event>
<event>
 7    0  0.4714446E-002  0.4407102E+03  0.7546771E-02  0.1030529E+00
         21   -1    0    0  502  501  0.00000000000E+00  0.00000000000E+00  0.51859412602E+02  0.51859412602E+02  0.00000000000E+00 0. -1.
         21   -1    0    0  501  502 -0.00000000000E+00 -0.00000000000E+00 -0.93630767562E+03  0.93630767562E+03  0.00000000000E+00 0. -1.
      99926    2    1    2    0    0  0.71054273576E-14  0.00000000000E+00 -0.88444826302E+03  0.98816708822E+03  0.44071018174E+03 0.  0.
      99925    2    3    3    0    0 -0.63242410239E+02  0.58266582958E+02 -0.67398005960E+03  0.72866955472E+03  0.26327856369E+03 0.  0.
         25    1    3    3    0    0  0.63242410239E+02 -0.58266582958E+02 -0.21046820342E+03  0.25949753350E+03  0.12509000000E+03 0.  0.
         25    1    4    4    0    0 -0.72252059092E+02  0.35125330562E+02 -0.38967942429E+03  0.41707518592E+03  0.12509000000E+03 0.  0.
         25    1    4    4    0    0  0.90096488531E+01  0.23141252396E+02 -0.28430063531E+03  0.31159436880E+03  0.12509000000E+03 0.  0.
<mgrwt>
<rscale>  2 0.44071018E+03</rscale>
<asrwt>0</asrwt>
<pdfrwt beam="1">  1       21 0.76263845E-02 0.44071018E+03</pdfrwt>
<pdfrwt beam="2">  1       21 0.13769230E+00 0.44071018E+03</pdfrwt>
<totfact> 0.44380673E+04</totfact>
</mgrwt>
</event>
<event>
 7    0  0.4714446E-002  0.4631257E+03  0.7546771E-02  0.1023879E+00
         21   -1    0    0  502  501  0.00000000000E+00  0.00000000000E+00  0.25955646741E+03  0.25955646741E+03  0.00000000000E+00 0.  1.
         21   -1    0    0  501  502 -0.00000000000E+00 -0.00000000000E+00 -0.20658836544E+03  0.20658836544E+03  0.00000000000E+00 0.  1.
      99926    2    1    2    0    0 -0.71054273576E-14  0.00000000000E+00  0.52968101971E+02  0.46614483284E+03  0.46312566908E+03 0.  0.
      99925    2    3    3    0    0  0.53428990167E+02  0.10706190794E+03  0.18013182067E+02  0.28954850319E+03  0.26305313503E+03 0.  0.
         25    1    4    4    0    0  0.26659448614E+02  0.53346858859E+02  0.49721680913E+02  0.14722896184E+03  0.12509000000E+03 0.  0.
         25    1    4    4    0    0  0.26769541554E+02  0.53715049077E+02 -0.31708498846E+02  0.14231954135E+03  0.12509000000E+03 0.  0.
         25    1    3    3    0    0 -0.53428990167E+02 -0.10706190794E+03  0.34954919904E+02  0.17659632965E+03  0.12509000000E+03 0.  0.
<mgrwt>
<rscale>  2 0.46312567E+03</rscale>
<asrwt>0</asrwt>
<pdfrwt beam="1">  1       21 0.38170069E-01 0.46312567E+03</pdfrwt>
<pdfrwt beam="2">  1       21 0.30380642E-01 0.46312567E+03</pdfrwt>
<totfact> 0.63517985E+04</totfact>
</mgrwt>
</event>
<event>
 7    0  0.4714446E-002  0.4582495E+03  0.7546771E-02  0.1025290E+00
         21   -1    0    0  502  501  0.00000000000E+00  0.00000000000E+00  0.11712825605E+03  0.11712825605E+03  0.00000000000E+00 0. -1.
         21   -1    0    0  501  502 -0.00000000000E+00 -0.00000000000E+00 -0.44821073934E+03  0.44821073934E+03  0.00000000000E+00 0. -1.
      99926    2    1    2    0    0 -0.14210854715E-13  0.00000000000E+00 -0.33108248329E+03  0.56533899539E+03  0.45824946150E+03 0.  0.
      99925    2    3    3    0    0  0.10796000181E+03 -0.24190539242E+02 -0.25351058790E+03  0.38120466607E+03  0.26231438213E+03 0.  0.
         25    1    3    3    0    0 -0.10796000181E+03  0.24190539242E+02 -0.77571895387E+02  0.18413432932E+03  0.12509000000E+03 0.  0.
         25    1    4    4    0    0  0.92770492563E+02 -0.17650026279E+02 -0.11911828881E+03  0.19686178539E+03  0.12509000000E+03 0.  0.
         25    1    4    4    0    0  0.15189509250E+02 -0.65405129629E+01 -0.13439229909E+03  0.18434288068E+03  0.12509000000E+03 0.  0.
<mgrwt>
<rscale>  2 0.45824946E+03</rscale>
<asrwt>0</asrwt>
<pdfrwt beam="1">  1       21 0.17224743E-01 0.45824946E+03</pdfrwt>
<pdfrwt beam="2">  1       21 0.65913345E-01 0.45824946E+03</pdfrwt>
<totfact> 0.59324753E+04</totfact>
</mgrwt>
</event>
<event>
 7    0  0.4714446E-002  0.4548923E+03  0.7546771E-02  0.1026273E+00
         21   -1    0    0  502  501  0.00000000000E+00  0.00000000000E+00  0.50330080783E+02  0.50330080783E+02  0.00000000000E+00 0.  1.
         21   -1    0    0  501  502 -0.00000000000E+00 -0.00000000000E+00 -0.10278493738E+04  0.10278493738E+04  0.00000000000E+00 0.  1.
      99926    2    1    2    0    0 -0.14210854715E-13  0.00000000000E+00 -0.97751929302E+03  0.10781794546E+04  0.45489225984E+03 0.  0.
      99925    2    3    3    0    0  0.11240857522E+03 -0.10635441974E+02 -0.60162854553E+03  0.66624479647E+03  0.26301410915E+03 0.  0.
         25    1    4    4    0    0  0.58438239286E+02  0.19018896351E+02 -0.37615953601E+03  0.40114866429E+03  0.12509000000E+03 0.  0.
         25    1    3    3    0    0 -0.11240857522E+03  0.10635441974E+02 -0.37589074749E+03  0.41193465811E+03  0.12509000000E+03 0.  0.
         25    1    4    4    0    0  0.53970335938E+02 -0.29654338325E+02 -0.22546900952E+03  0.26509613218E+03  0.12509000000E+03 0.  0.
<mgrwt>
<rscale>  2 0.45489226E+03</rscale>
<asrwt>0</asrwt>
<pdfrwt beam="1">  1       21 0.74014820E-02 0.45489226E+03</pdfrwt>
<pdfrwt beam="2">  1       21 0.15115433E+00 0.45489226E+03</pdfrwt>
<totfact> 0.36290582E+04</totfact>
</mgrwt>
</event>
<event>
 7    0  0.4714446E-002  0.4709862E+03  0.7546771E-02  0.1021642E+00
         21   -1    0    0  502  501  0.00000000000E+00  0.00000000000E+00  0.50438460301E+02  0.50438460301E+02  0.00000000000E+00 0.  1.
         21   -1    0    0  501  502 -0.00000000000E+00 -0.00000000000E+00 -0.10994982074E+04  0.10994982074E+04  0.00000000000E+00 0.  1.
      99926    2    1    2    0    0  0.00000000000E+00  0.00000000000E+00 -0.10490597471E+04  0.11499366677E+04  0.47098618529E+03 0.  0.
      99925    2    3    3    0    0 -0.12076993597E+03  0.40338945975E+02 -0.66602057126E+03  0.72735043233E+03  0.26313996669E+03 0.  0.
         25    1    4    4    0    0 -0.71362186312E+02 -0.12887906177E+02 -0.28017628096E+03  0.31528545204E+03  0.12509000000E+03 0.  0.
         25    1    4    4    0    0 -0.49407749658E+02  0.53226852152E+02 -0.38584429031E+03  0.41206498029E+03  0.12509000000E+03 0.  0.
         25    1    3    3    0    0  0.12076993597E+03 -0.40338945975E+02 -0.38303917581E+03  0.42258623534E+03  0.12509000000E+03 0.  0.
<mgrwt>
<rscale>  2 0.47098619E+03</rscale>
<asrwt>0</asrwt>
<pdfrwt beam="1">  1       21 0.74174213E-02 0.47098619E+03</pdfrwt>
<pdfrwt beam="2">  1       21 0.16169090E+00 0.47098619E+03</pdfrwt>
<totfact> 0.29883903E+04</totfact>
</mgrwt>
</event>
<event>
 7    0  0.4714446E-002  0.4567768E+03  0.7546771E-02  0.1025720E+00
         21   -1    0    0  502  501  0.00000000000E+00  0.00000000000E+00  0.12955570450E+03  0.12955570450E+03  0.00000000000E+00 0. -1.
         21   -1    0    0  501  502 -0.00000000000E+00 -0.00000000000E+00 -0.40261653332E+03  0.40261653332E+03  0.00000000000E+00 0. -1.
      99926    2    1    2    0    0 -0.35527136788E-14  0.00000000000E+00 -0.27306082882E+03  0.53217223782E+03  0.45677683224E+03 0.  0.
      99925    2    3    3    0    0  0.30834077930E+02  0.23642206234E+02 -0.29746885977E+03  0.39893202485E+03  0.26296262784E+03 0.  0.
         25    1    3    3    0    0 -0.30834077930E+02 -0.23642206234E+02  0.24408030944E+02  0.13324021297E+03  0.12509000000E+03 0.  0.
         25    1    4    4    0    0  0.32324191525E+00  0.19567461426E+02 -0.92340385747E+02  0.15670751409E+03  0.12509000000E+03 0.  0.
         25    1    4    4    0    0  0.30510836015E+02  0.40747448085E+01 -0.20512847402E+03  0.24222451076E+03  0.12509000000E+03 0.  0.
<mgrwt>
<rscale>  2 0.45677683E+03</rscale>
<asrwt>0</asrwt>
<pdfrwt beam="1">  1       21 0.19052310E-01 0.45677683E+03</pdfrwt>
<pdfrwt beam="2">  1       21 0.59208312E-01 0.45677683E+03</pdfrwt>
<totfact> 0.62179428E+04</totfact>
</mgrwt>
</event>
<event>
 7    0  0.4714446E-002  0.4622482E+03  0.7546771E-02  0.1024131E+00
         21   -1    0    0  502  501  0.00000000000E+00  0.00000000000E+00  0.57089905774E+03  0.57089905774E+03  0.00000000000E+00 0.  1.
         21   -1    0    0  501  502 -0.00000000000E+00 -0.00000000000E+00 -0.93568829830E+02  0.93568829830E+02  0.00000000000E+00 0.  1.
      99926    2    1    2    0    0  0.00000000000E+00  0.00000000000E+00  0.47733022791E+03  0.66446788757E+03  0.46224823108E+03 0.  0.
      99925    2    3    3    0    0  0.27254648022E+02 -0.78290004124E+02  0.42259520124E+03  0.50473194350E+03  0.26324036562E+03 0.  0.
         25    1    3    3    0    0 -0.27254648022E+02  0.78290004124E+02  0.54735026672E+02  0.15973594407E+03  0.12509000000E+03 0.  0.
         25    1    4    4    0    0  0.54542865705E+02 -0.35725518969E+02  0.21624692352E+03  0.25818883968E+03  0.12509000000E+03 0.  0.
         25    1    4    4    0    0 -0.27288217683E+02 -0.42564485155E+02  0.20634827772E+03  0.24654310381E+03  0.12509000000E+03 0.  0.
<mgrwt>
<rscale>  2 0.46224823E+03</rscale>
<asrwt>0</asrwt>
<pdfrwt beam="1">  1       21 0.83955742E-01 0.46224823E+03</pdfrwt>
<pdfrwt beam="2">  1       21 0.13760122E-01 0.46224823E+03</pdfrwt>
<totfact> 0.51847387E+04</totfact>
</mgrwt>
</event>
<event>
 7    0  0.4714446E-002  0.4529330E+03  0.7546771E-02  0.1026851E+00
         21   -1    0    0  502  501  0.00000000000E+00  0.00000000000E+00  0.22967488652E+03  0.22967488652E+03  0.00000000000E+00 0. -1.
         21   -1    0    0  501  502 -0.00000000000E+00 -0.00000000000E+00 -0.22330288557E+03  0.22330288557E+03  0.00000000000E+00 0. -1.
      99926    2    1    2    0    0  0.00000000000E+00  0.00000000000E+00  0.63720009495E+01  0.45297777209E+03  0.45293295266E+03 0.  0.
      99925    2    3    3    0    0 -0.59314135412E+02 -0.63672713155E+02  0.73414068841E+02  0.28650096281E+03  0.26290833978E+03 0.  0.
         25    1    3    3    0    0  0.59314135412E+02  0.63672713155E+02 -0.67042067892E+02  0.16647680928E+03  0.12509000000E+03 0.  0.
         25    1    4    4    0    0 -0.97020392126E+01 -0.67106880287E+02  0.35367408784E+02  0.14661454447E+03  0.12509000000E+03 0.  0.
         25    1    4    4    0    0 -0.49612096199E+02  0.34341671322E+01  0.38046660057E+02  0.13988641834E+03  0.12509000000E+03 0.  0.
<mgrwt>
<rscale>  2 0.45293295E+03</rscale>
<asrwt>0</asrwt>
<pdfrwt beam="1">  1       21 0.33775719E-01 0.45293295E+03</pdfrwt>
<pdfrwt beam="2">  1       21 0.32838659E-01 0.45293295E+03</pdfrwt>
<totfact> 0.69838951E+04</totfact>
</mgrwt>
</event>
<event>
 7    0  0.4714446E-002  0.4587437E+03  0.7546771E-02  0.1025146E+00
         21   -1    0    0  502  501  0.00000000000E+00  0.00000000000E+00  0.44295215206E+03  0.44295215206E+03  0.00000000000E+00 0. -1.
         21   -1    0    0  501  502 -0.00000000000E+00 -0.00000000000E+00 -0.11877457494E+03  0.11877457494E+03  0.00000000000E+00 0. -1.
      99926    2    1    2    0    0  0.00000000000E+00  0.00000000000E+00  0.32417757712E+03  0.56172672701E+03  0.45874373492E+03 0.  0.
      99925    2    3    3    0    0  0.63620040298E+02  0.82105212402E+02  0.26837860036E+03  0.38982614720E+03  0.26296116914E+03 0.  0.
         25    1    4    4    0    0  0.46021000743E+02  0.48697821242E+02  0.19107951165E+03  0.23800902961E+03  0.12509000000E+03 0.  0.
         25    1    4    4    0    0  0.17599039554E+02  0.33407391160E+02  0.77299088703E+02  0.15181711758E+03  0.12509000000E+03 0.  0.
         25    1    3    3    0    0 -0.63620040298E+02 -0.82105212402E+02  0.55798976761E+02  0.17190057981E+03  0.12509000000E+03 0.  0.
<mgrwt>
<rscale>  2 0.45874373E+03</rscale>
<asrwt>0</asrwt>
<pdfrwt beam="1">  1       21 0.65140022E-01 0.45874373E+03</pdfrwt>
<pdfrwt beam="2">  1       21 0.17466849E-01 0.45874373E+03</pdfrwt>
<totfact> 0.59321966E+04</totfact>
</mgrwt>
</event>
<event>
 7    0  0.4714446E-002  0.4567055E+03  0.7546771E-02  0.1025741E+00
         21   -1    0    0  502  501  0.00000000000E+00  0.00000000000E+00  0.85132811667E+02  0.85132811667E+02  0.00000000000E+00 0.  1.
         21   -1    0    0  501  502 -0.00000000000E+00 -0.00000000000E+00 -0.61251330055E+03  0.61251330055E+03  0.00000000000E+00 0.  1.
      99926    2    1    2    0    0  0.14210854715E-13  0.00000000000E+00 -0.52738048888E+03  0.69764611222E+03  0.45670550450E+03 0.  0.
      99925    2    3    3    0    0  0.98031282976E+02  0.57589984864E+02 -0.31054336446E+03  0.42270505412E+03  0.26327864093E+03 0.  0.
         25    1    4    4    0    0  0.64864942594E+02  0.54383758746E+02 -0.21059807381E+03  0.25916039587E+03  0.12509000000E+03 0.  0.
         25    1    4    4    0    0  0.33166340382E+02  0.32062261181E+01 -0.99945290645E+02  0.16354465825E+03  0.12509000000E+03 0.  0.
         25    1    3    3    0    0 -0.98031282976E+02 -0.57589984864E+02 -0.21683712443E+03  0.27494105810E+03  0.12509000000E+03 0.  0.
<mgrwt>
<rscale>  2 0.45670550E+03</rscale>
<asrwt>0</asrwt>
<pdfrwt beam="1">  1       21 0.12519531E-01 0.45670550E+03</pdfrwt>
<pdfrwt beam="2">  1       21 0.90075484E-01 0.45670550E+03</pdfrwt>
<totfact> 0.52325055E+04</totfact>
</mgrwt>
</event>
<event>
 7    0  0.4714446E-002  0.4106248E+03  0.7546771E-02  0.1040162E+00
         21   -1    0    0  502  501  0.00000000000E+00  0.00000000000E+00  0.17356943733E+03  0.17356943733E+03  0.00000000000E+00 0.  1.
         21   -1    0    0  501  502 -0.00000000000E+00 -0.00000000000E+00 -0.24286066193E+03  0.24286066193E+03  0.00000000000E+00 0.  1.
      99926    2    1    2    0    0  0.17763568394E-14  0.00000000000E+00 -0.69291224601E+02  0.41643009927E+03  0.41062483336E+03 0.  0.
      99925    2    3    3    0    0  0.15217322015E+02 -0.12124273750E+02  0.15138669968E+02  0.26426413691E+03  0.26311174399E+03 0.  0.
         25    1    4    4    0    0 -0.11979634737E+02  0.19077191445E+00  0.42740333173E+02  0.13273203164E+03  0.12509000000E+03 0.  0.
         25    1    4    4    0    0  0.27196956752E+02 -0.12315045665E+02 -0.27601663205E+02  0.13153210527E+03  0.12509000000E+03 0.  0.
         25    1    3    3    0    0 -0.15217322015E+02  0.12124273750E+02 -0.84429894570E+02  0.15216596236E+03  0.12509000000E+03 0.  0.
<mgrwt>
<rscale>  2 0.41062483E+03</rscale>
<asrwt>0</asrwt>
<pdfrwt beam="1">  1       21 0.25524917E-01 0.41062483E+03</pdfrwt>
<pdfrwt beam="2">  1       21 0.35714803E-01 0.41062483E+03</pdfrwt>
<totfact> 0.10354121E+05</totfact>
</mgrwt>
</event>
<event>
 7    0  0.4714446E-002  0.4572606E+03  0.7546771E-02  0.1025579E+00
         21   -1    0    0  502  501  0.00000000000E+00  0.00000000000E+00  0.29362980236E+03  0.29362980236E+03  0.00000000000E+00 0. -1.
         21   -1    0    0  501  502 -0.00000000000E+00 -0.00000000000E+00 -0.17801941802E+03  0.17801941802E+03  0.00000000000E+00 0. -1.
      99926    2    1    2    0    0  0.14210854715E-13  0.00000000000E+00  0.11561038434E+03  0.47164922039E+03  0.45726056699E+03 0.  0.
      99925    2    3    3    0    0 -0.91429258250E+02  0.22552606635E+02  0.41651480584E+01  0.27946316959E+03  0.26308626982E+03 0.  0.
         25    1    4    4    0    0 -0.77701193079E+01 -0.41948950402E+01  0.14672848729E+02  0.12625677205E+03  0.12509000000E+03 0.  0.
         25    1    4    4    0    0 -0.83659138942E+02  0.26747501675E+02 -0.10507700670E+02  0.15320639754E+03  0.12509000000E+03 0.  0.
         25    1    3    3    0    0  0.91429258250E+02 -0.22552606635E+02  0.11144523628E+03  0.19218605079E+03  0.12509000000E+03 0.  0.
<mgrwt>
<rscale>  2 0.45726057E+03</rscale>
<asrwt>0</asrwt>
<pdfrwt beam="1">  1       21 0.43180854E-01 0.45726057E+03</pdfrwt>
<pdfrwt beam="2">  1       21 0.26179326E-01 0.45726057E+03</pdfrwt>
<totfact> 0.66119549E+04</totfact>
</mgrwt>
</event>
<event>
 7    0  0.4714446E-002  0.4536849E+03  0.7546771E-02  0.1026629E+00
         21   -1    0    0  502  501  0.00000000000E+00  0.00000000000E+00  0.12527067556E+03  0.12527067556E+03  0.00000000000E+00 0. -1.
         21   -1    0    0  501  502 -0.00000000000E+00 -0.00000000000E+00 -0.41077042013E+03  0.41077042013E+03  0.00000000000E+00 0. -1.
      99926    2    1    2    0    0  0.00000000000E+00 -0.17763568394E-14 -0.28549974457E+03  0.53604109570E+03  0.45368485993E+03 0.  0.
      99925    2    3    3    0    0 -0.93136415076E+02  0.11144766821E+02 -0.10771713860E+03  0.29928645324E+03  0.26300342489E+03 0.  0.
         25    1    4    4    0    0 -0.79935155350E+02 -0.19545387309E+02 -0.59767993252E+02  0.16121839952E+03  0.12509000000E+03 0.  0.
         25    1    4    4    0    0 -0.13201259726E+02  0.30690154130E+02 -0.47949145349E+02  0.13806805372E+03  0.12509000000E+03 0.  0.
         25    1    3    3    0    0  0.93136415076E+02 -0.11144766821E+02 -0.17778260597E+03  0.23675464246E+03  0.12509000000E+03 0.  0.
<mgrwt>
<rscale>  2 0.45368486E+03</rscale>
<asrwt>0</asrwt>
<pdfrwt beam="1">  1       21 0.18422158E-01 0.45368486E+03</pdfrwt>
<pdfrwt beam="2">  1       21 0.60407416E-01 0.45368486E+03</pdfrwt>
<totfact> 0.63456398E+04</totfact>
</mgrwt>
</event>
<event>
 7    0  0.4714446E-002  0.4562074E+03  0.7546771E-02  0.1025887E+00
         21   -1    0    0  502  501  0.00000000000E+00  0.00000000000E+00  0.28651297627E+02  0.28651297627E+02  0.00000000000E+00 0. -1.
         21   -1    0    0  501  502 -0.00000000000E+00 -0.00000000000E+00 -0.18160189879E+04  0.18160189879E+04  0.00000000000E+00 0. -1.
      99926    2    1    2    0    0  0.00000000000E+00  0.00000000000E+00 -0.17873676903E+04  0.18446702856E+04  0.45620741125E+03 0.  0.
      99925    2    3    3    0    0  0.94662760392E+02 -0.44048527354E+02 -0.93683958176E+03  0.97867554972E+03  0.26312757117E+03 0.  0.
         25    1    3    3    0    0 -0.94662760392E+02  0.44048527354E+02 -0.85052810855E+03  0.86599473583E+03  0.12509000000E+03 0.  0.
         25    1    4    4    0    0  0.86583481711E+02 -0.17124120083E+02 -0.56395731389E+03  0.58436743131E+03  0.12509000000E+03 0.  0.
         25    1    4    4    0    0  0.80792786810E+01 -0.26924407271E+02 -0.37288226787E+03  0.39430811841E+03  0.12509000000E+03 0.  0.
<mgrwt>
<rscale>  2 0.45620741E+03</rscale>
<asrwt>0</asrwt>
<pdfrwt beam="1">  1       21 0.42134255E-02 0.45620741E+03</pdfrwt>
<pdfrwt beam="2">  1       21 0.26706166E+00 0.45620741E+03</pdfrwt>
<totfact> 0.16263236E+04</totfact>
</mgrwt>
</event>
<event>
 7    0  0.4714446E-002  0.4507997E+03  0.7546771E-02  0.1027484E+00
         21   -1    0    0  502  501  0.00000000000E+00  0.00000000000E+00  0.20496403944E+03  0.20496403944E+03  0.00000000000E+00 0.  1.
         21   -1    0    0  501  502 -0.00000000000E+00 -0.00000000000E+00 -0.24787322056E+03  0.24787322056E+03  0.00000000000E+00 0.  1.
      99926    2    1    2    0    0  0.00000000000E+00 -0.88817841970E-15 -0.42909181121E+02  0.45283726000E+03  0.45079971852E+03 0.  0.
      99925    2    3    3    0    0 -0.77372430246E+02  0.72884735004E+01 -0.10434899453E+03  0.29326917554E+03  0.26282785593E+03 0.  0.
         25    1    3    3    0    0  0.77372430246E+02 -0.72884735004E+01  0.61439813406E+02  0.15956808446E+03  0.12509000000E+03 0.  0.
         25    1    4    4    0    0 -0.22654668979E+02 -0.32577782347E+02 -0.40324773255E+02  0.13728853327E+03  0.12509000000E+03 0.  0.
         25    1    4    4    0    0 -0.54717761267E+02  0.39866255847E+02 -0.64024221271E+02  0.15598064227E+03  0.12509000000E+03 0.  0.
<mgrwt>
<rscale>  2 0.45079972E+03</rscale>
<asrwt>0</asrwt>
<pdfrwt beam="1">  1       21 0.30141771E-01 0.45079972E+03</pdfrwt>
<pdfrwt beam="2">  1       21 0.36451944E-01 0.45079972E+03</pdfrwt>
<totfact> 0.71056096E+04</totfact>
</mgrwt>
</event>
<event>
 7    0  0.4714446E-002  0.4488821E+03  0.7546771E-02  0.1028056E+00
         21   -1    0    0  502  501  0.00000000000E+00  0.00000000000E+00  0.34428772683E+03  0.34428772683E+03  0.00000000000E+00 0.  1.
         21   -1    0    0  501  502 -0.00000000000E+00 -0.00000000000E+00 -0.14631306577E+03  0.14631306577E+03  0.00000000000E+00 0.  1.
      99926    2    1    2    0    0 -0.14210854715E-13 -0.35527136788E-14  0.19797466106E+03  0.49060079260E+03  0.44888213517E+03 0.  0.
      99925    2    3    3    0    0 -0.83738489258E+02 -0.29559431991E+02  0.59431038074E+02  0.28389390308E+03  0.26301673962E+03 0.  0.
         25    1    4    4    0    0 -0.60667861282E+02 -0.50921512409E+02  0.22725186263E+02  0.14979162864E+03  0.12509000000E+03 0.  0.
         25    1    3    3    0    0  0.83738489258E+02  0.29559431991E+02  0.13854362299E+03  0.20670688952E+03  0.12509000000E+03 0.  0.
         25    1    4    4    0    0 -0.23070627976E+02  0.21362080418E+02  0.36705851811E+02  0.13410227445E+03  0.12509000000E+03 0.  0.
<mgrwt>
<rscale>  2 0.44888214E+03</rscale>
<asrwt>0</asrwt>
<pdfrwt beam="1">  1       21 0.50630548E-01 0.44888214E+03</pdfrwt>
<pdfrwt beam="2">  1       21 0.21516627E-01 0.44888214E+03</pdfrwt>
<totfact> 0.69238255E+04</totfact>
</mgrwt>
</event>
<event>
 7    0  0.4714446E-002  0.4525170E+03  0.7546771E-02  0.1026974E+00
         21   -1    0    0  502  501  0.00000000000E+00  0.00000000000E+00  0.11343052533E+03  0.11343052533E+03  0.00000000000E+00 0.  1.
         21   -1    0    0  501  502 -0.00000000000E+00 -0.00000000000E+00 -0.45131518717E+03  0.45131518717E+03  0.00000000000E+00 0.  1.
      99926    2    1    2    0    0  0.00000000000E+00  0.35527136788E-14 -0.33788466183E+03  0.56474571250E+03  0.45251704397E+03 0.  0.
      99925    2    3    3    0    0 -0.99791232535E+02  0.22615668057E+02 -0.16021389478E+03  0.32457042631E+03  0.26307358480E+03 0.  0.
         25    1    4    4    0    0 -0.49942165759E+02  0.48279577686E+02 -0.10159304253E+03  0.17548159999E+03  0.12509000000E+03 0.  0.
         25    1    4    4    0    0 -0.49849066776E+02 -0.25663909629E+02 -0.58620852243E+02  0.14908882632E+03  0.12509000000E+03 0.  0.
         25    1    3    3    0    0  0.99791232535E+02 -0.22615668057E+02 -0.17767076706E+03  0.24017528619E+03  0.12509000000E+03 0.  0.
<mgrwt>
<rscale>  2 0.45251704E+03</rscale>
<asrwt>0</asrwt>
<pdfrwt beam="1">  1       21 0.16680959E-01 0.45251704E+03</pdfrwt>
<pdfrwt beam="2">  1       21 0.66369882E-01 0.45251704E+03</pdfrwt>
<totfact> 0.62113276E+04</totfact>
</mgrwt>
</event>
<event>
 7    0  0.4714446E-002  0.4557840E+03  0.7546771E-02  0.1026011E+00
         21   -1    0    0  502  501  0.00000000000E+00  0.00000000000E+00  0.68538531522E+03  0.68538531522E+03  0.00000000000E+00 0.  1.
         21   -1    0    0  501  502 -0.00000000000E+00 -0.00000000000E+00 -0.75774564981E+02  0.75774564981E+02  0.00000000000E+00 0.  1.
      99926    2    1    2    0    0  0.00000000000E+00  0.00000000000E+00  0.60961075024E+03  0.76115988020E+03  0.45578404582E+03 0.  0.
      99925    2    3    3    0    0  0.11430331902E+02 -0.51744837571E+02  0.21496344977E+03  0.34378453285E+03  0.26300254674E+03 0.  0.
         25    1    4    4    0    0  0.25476915308E+01 -0.18093318839E+01  0.14574313644E+03  0.19208939152E+03  0.12509000000E+03 0.  0.
         25    1    3    3    0    0 -0.11430331902E+02  0.51744837571E+02  0.39464730047E+03  0.41737534735E+03  0.12509000000E+03 0.  0.
         25    1    4    4    0    0  0.88826403716E+01 -0.49935505687E+02  0.69220313327E+02  0.15169514134E+03  0.12509000000E+03 0.  0.
<mgrwt>
<rscale>  2 0.45578405E+03</rscale>
<asrwt>0</asrwt>
<pdfrwt beam="1">  1       21 0.10079195E+00 0.45578405E+03</pdfrwt>
<pdfrwt beam="2">  1       21 0.11143319E-01 0.45578405E+03</pdfrwt>
<totfact> 0.49395685E+04</totfact>
</mgrwt>
</event>
<event>
 7    0  0.4714446E-002  0.4484189E+03  0.7546771E-02  0.1028195E+00
         21   -1    0    0  502  501  0.00000000000E+00  0.00000000000E+00  0.13188311536E+04  0.13188311536E+04  0.00000000000E+00 0.  1.
         21   -1    0    0  501  502 -0.00000000000E+00 -0.00000000000E+00 -0.38117000003E+02  0.38117000003E+02  0.00000000000E+00 0.  1.
      99926    2    1    2    0    0 -0.35527136788E-14 -0.14210854715E-13  0.12807141536E+04  0.13569481536E+04  0.44841894289E+03 0.  0.
      99925    2    3    3    0    0  0.22422583876E+02 -0.10443549690E+03  0.81343328380E+03  0.86156096699E+03  0.26306662155E+03 0.  0.
         25    1    4    4    0    0  0.11088382360E+01 -0.17219373015E+02  0.29878947260E+03  0.32437693100E+03  0.12509000000E+03 0.  0.
         25    1    3    3    0    0 -0.22422583876E+02  0.10443549690E+03  0.46728086982E+03  0.49538718663E+03  0.12509000000E+03 0.  0.
         25    1    4    4    0    0  0.21313745640E+02 -0.87216123883E+02  0.51464381121E+03  0.53718403600E+03  0.12509000000E+03 0.  0.
<mgrwt>
<rscale>  2 0.44841894E+03</rscale>
<asrwt>0</asrwt>
<pdfrwt beam="1">  1       21 0.19394573E+00 0.44841894E+03</pdfrwt>
<pdfrwt beam="2">  1       21 0.56054421E-02 0.44841894E+03</pdfrwt>
<totfact> 0.28955308E+04</totfact>
</mgrwt>
</event>
<event>
 7    0  0.4714446E-002  0.4336019E+03  0.7546771E-02  0.1032728E+00
         21   -1    0    0  502  501  0.00000000000E+00  0.00000000000E+00  0.28179823855E+03  0.28179823855E+03  0.00000000000E+00 0.  1.
         21   -1    0    0  501  502 -0.00000000000E+00 -0.00000000000E+00 -0.16679539670E+03  0.16679539670E+03  0.00000000000E+00 0.  1.
      99926    2    1    2    0    0 -0.35527136788E-14  0.14210854715E-13  0.11500284184E+03  0.44859363525E+03  0.43360188648E+03 0.  0.
      99925    2    3    3    0    0 -0.27785394406E+02 -0.82777052675E+02  0.10261821419E+03  0.29554150134E+03  0.26304032493E+03 0.  0.
         25    1    3    3    0    0  0.27785394406E+02  0.82777052675E+02  0.12384627651E+02  0.15305213391E+03  0.12509000000E+03 0.  0.
         25    1    4    4    0    0 -0.33065856832E+02 -0.78673126962E+02  0.64594407314E+02  0.16462915097E+03  0.12509000000E+03 0.  0.
         25    1    4    4    0    0  0.52804624255E+01 -0.41039257133E+01  0.38023806879E+02  0.13091235037E+03  0.12509000000E+03 0.  0.
<mgrwt>
<rscale>  2 0.43360189E+03</rscale>
<asrwt>0</asrwt>
<pdfrwt beam="1">  1       21 0.41440917E-01 0.43360189E+03</pdfrwt>
<pdfrwt beam="2">  1       21 0.24528735E-01 0.43360189E+03</pdfrwt>
<totfact> 0.82143182E+04</totfact>
</mgrwt>
</event>
<event>
 7    0  0.4714446E-002  0.4460963E+03  0.7546771E-02  0.1028893E+00
         21   -1    0    0  502  501  0.00000000000E+00  0.00000000000E+00  0.79895551508E+03  0.79895551508E+03  0.00000000000E+00 0.  1.
         21   -1    0    0  501  502 -0.00000000000E+00 -0.00000000000E+00 -0.62269409493E+02  0.62269409493E+02  0.00000000000E+00 0.  1.
      99926    2    1    2    0    0 -0.88817841970E-15  0.00000000000E+00  0.73668610558E+03  0.86122492457E+03  0.44609634894E+03 0.  0.
      99925    2    3    3    0    0  0.93549086231E+00  0.40212301167E+02  0.28159727368E+03  0.38754649216E+03  0.26320591698E+03 0.  0.
         25    1    4    4    0    0 -0.15896052926E+02 -0.16398008600E+02  0.12016887454E+03  0.17495612505E+03  0.12509000000E+03 0.  0.
         25    1    4    4    0    0  0.16831543788E+02  0.56610309767E+02  0.16142839914E+03  0.21259036710E+03  0.12509000000E+03 0.  0.
         25    1    3    3    0    0 -0.93549086231E+00 -0.40212301167E+02  0.45508883190E+03  0.47367843241E+03  0.12509000000E+03 0.  0.
<mgrwt>
<rscale>  2 0.44609635E+03</rscale>
<asrwt>0</asrwt>
<pdfrwt beam="1">  1       21 0.11749345E+00 0.44609635E+03</pdfrwt>
<pdfrwt beam="2">  1       21 0.91572666E-02 0.44609635E+03</pdfrwt>
<totfact> 0.48221581E+04</totfact>
</mgrwt>
</event>
<event>
 7    0  0.4714446E-002  0.4565481E+03  0.7546771E-02  0.1025787E+00
         21   -1    0    0  502  501  0.00000000000E+00  0.00000000000E+00  0.22842206253E+03  0.22842206253E+03  0.00000000000E+00 0.  1.
         21   -1    0    0  501  502 -0.00000000000E+00 -0.00000000000E+00 -0.22812614494E+03  0.22812614494E+03  0.00000000000E+00 0.  1.
      99926    2    1    2    0    0  0.00000000000E+00 -0.14210854715E-13  0.29591759933E+00  0.45654820747E+03  0.45654811157E+03 0.  0.
      99925    2    3    3    0    0 -0.52346234034E+02 -0.80646836318E+02  0.62627216761E+02  0.28691112608E+03  0.26296727090E+03 0.  0.
         25    1    4    4    0    0 -0.65819839539E+02 -0.52426126469E+02  0.40302173468E+02  0.15605295031E+03  0.12509000000E+03 0.  0.
         25    1    4    4    0    0  0.13473605504E+02 -0.28220709848E+02  0.22325043293E+02  0.13085817578E+03  0.12509000000E+03 0.  0.
         25    1    3    3    0    0  0.52346234034E+02  0.80646836318E+02 -0.62331299162E+02  0.16963708139E+03  0.12509000000E+03 0.  0.
<mgrwt>
<rscale>  2 0.45654811E+03</rscale>
<asrwt>0</asrwt>
<pdfrwt beam="1">  1       21 0.33591480E-01 0.45654811E+03</pdfrwt>
<pdfrwt beam="2">  1       21 0.33547962E-01 0.45654811E+03</pdfrwt>
<totfact> 0.67593712E+04</totfact>
</mgrwt>
</event>
<event>
 7    0  0.4714446E-002  0.4570512E+03  0.7546771E-02  0.1025640E+00
         21   -1    0    0  502  501  0.00000000000E+00  0.00000000000E+00  0.29561201861E+03  0.29561201861E+03  0.00000000000E+00 0.  1.
         21   -1    0    0  501  502 -0.00000000000E+00 -0.00000000000E+00 -0.17666379600E+03  0.17666379600E+03  0.00000000000E+00 0.  1.
      99926    2    1    2    0    0 -0.71054273576E-14  0.14210854715E-13  0.11894822261E+03  0.47227581461E+03  0.45705116279E+03 0.  0.
      99925    2    3    3    0    0  0.47067714126E+02 -0.97501653985E+02  0.11504798211E+03  0.30679269699E+03  0.26299007300E+03 0.  0.
         25    1    4    4    0    0  0.42299686687E+01 -0.82180388379E+02  0.44810158900E+02  0.15629128994E+03  0.12509000000E+03 0.  0.
         25    1    3    3    0    0 -0.47067714126E+02  0.97501653985E+02  0.39002405047E+01  0.16548311762E+03  0.12509000000E+03 0.  0.
         25    1    4    4    0    0  0.42837745457E+02 -0.15321265605E+02  0.70237823206E+02  0.15050140705E+03  0.12509000000E+03 0.  0.
<mgrwt>
<rscale>  2 0.45705116E+03</rscale>
<asrwt>0</asrwt>
<pdfrwt beam="1">  1       21 0.43472356E-01 0.45705116E+03</pdfrwt>
<pdfrwt beam="2">  1       21 0.25979970E-01 0.45705116E+03</pdfrwt>
<totfact> 0.66183286E+04</totfact>
</mgrwt>
</event>
<event>
 7    0  0.4714446E-002  0.4500000E+03  0.7546771E-02  0.1027722E+00
         21   -1    0    0  502  501  0.00000000000E+00  0.00000000000E+00  0.48410857391E+02  0.48410857391E+02  0.00000000000E+00 0. -1.
         21   -1    0    0  501  502 -0.00000000000E+00 -0.00000000000E+00 -0.10457363067E+04  0.10457363067E+04  0.00000000000E+00 0. -1.
      99926    2    1    2    0    0  0.00000000000E+00  0.14210854715E-13 -0.99732544935E+03  0.10941471641E+04  0.44999996095E+03 0.  0.
      99925    2    3    3    0    0  0.20042178815E+02  0.80086507313E+02 -0.80135788265E+03  0.84743613299E+03  0.26297909773E+03 0.  0.
         25    1    3    3    0    0 -0.20042178815E+02 -0.80086507313E+02 -0.19596756671E+03  0.24671103114E+03  0.12509000000E+03 0.  0.
         25    1    4    4    0    0 -0.16949800957E+02  0.70054447316E+02 -0.39659867456E+03  0.42205797955E+03  0.12509000000E+03 0.  0.
         25    1    4    4    0    0  0.36991979771E+02  0.10032059997E+02 -0.40475920809E+03  0.42537815344E+03  0.12509000000E+03 0.  0.
<mgrwt>
<rscale>  2 0.44999996E+03</rscale>
<asrwt>0</asrwt>
<pdfrwt beam="1">  1       21 0.71192444E-02 0.44999996E+03</pdfrwt>
<pdfrwt beam="2">  1       21 0.15378474E+00 0.44999996E+03</pdfrwt>
<totfact> 0.37125032E+04</totfact>
</mgrwt>
</event>
<event>
 7    0  0.4714446E-002  0.4558793E+03  0.7546771E-02  0.1025983E+00
         21   -1    0    0  502  501  0.00000000000E+00  0.00000000000E+00  0.83972458823E+02  0.83972458823E+02  0.00000000000E+00 0. -1.
         21   -1    0    0  501  502 -0.00000000000E+00 -0.00000000000E+00 -0.61873250372E+03  0.61873250372E+03  0.00000000000E+00 0. -1.
      99926    2    1    2    0    0  0.00000000000E+00  0.00000000000E+00 -0.53476004490E+03  0.70270496254E+03  0.45587932478E+03 0.  0.
      99925    2    3    3    0    0  0.62123886843E+02 -0.95454104572E+02 -0.32878169976E+03  0.43616143859E+03  0.26299910840E+03 0.  0.
         25    1    4    4    0    0  0.63669768902E+02 -0.39483315342E+02 -0.13424529021E+03  0.19819706785E+03  0.12509000000E+03 0.  0.
         25    1    3    3    0    0 -0.62123886843E+02  0.95454104572E+02 -0.20597834514E+03  0.26654352396E+03  0.12509000000E+03 0.  0.
         25    1    4    4    0    0 -0.15458820594E+01 -0.55970789231E+02 -0.19453640955E+03  0.23796437073E+03  0.12509000000E+03 0.  0.
<mgrwt>
<rscale>  2 0.45587932E+03</rscale>
<asrwt>0</asrwt>
<pdfrwt beam="1">  1       21 0.12348891E-01 0.45587932E+03</pdfrwt>
<pdfrwt beam="2">  1       21 0.90990072E-01 0.45587932E+03</pdfrwt>
<totfact> 0.52392857E+04</totfact>
</mgrwt>
</event>
<event>
 7    0  0.4714446E-002  0.4544229E+03  0.7546771E-02  0.1026411E+00
         21   -1    0    0  502  501  0.00000000000E+00  0.00000000000E+00  0.12547084461E+03  0.12547084461E+03  0.00000000000E+00 0. -1.
         21   -1    0    0  501  502 -0.00000000000E+00 -0.00000000000E+00 -0.41145059680E+03  0.41145059680E+03  0.00000000000E+00 0. -1.
      99926    2    1    2    0    0  0.71054273576E-14  0.88817841970E-15 -0.28597975218E+03  0.53692144141E+03  0.45442294790E+03 0.  0.
      99925    2    3    3    0    0 -0.55375621923E+02 -0.53615759589E+01 -0.29574721462E+03  0.39966941985E+03  0.26300955155E+03 0.  0.
         25    1    4    4    0    0 -0.17597487905E+02 -0.40463640499E+02 -0.13023927809E+03  0.18589447394E+03  0.12509000000E+03 0.  0.
         25    1    4    4    0    0 -0.37778134017E+02  0.35102064540E+02 -0.16550793653E+03  0.21377494591E+03  0.12509000000E+03 0.  0.
         25    1    3    3    0    0  0.55375621923E+02  0.53615759589E+01  0.97674624319E+01  0.13725202156E+03  0.12509000000E+03 0.  0.
<mgrwt>
<rscale>  2 0.45442295E+03</rscale>
<asrwt>0</asrwt>
<pdfrwt beam="1">  1       21 0.18451595E-01 0.45442295E+03</pdfrwt>
<pdfrwt beam="2">  1       21 0.60507441E-01 0.45442295E+03</pdfrwt>
<totfact> 0.63026470E+04</totfact>
</mgrwt>
</event>
<event>
 7    0  0.4714446E-002  0.4541453E+03  0.7546771E-02  0.1026493E+00
         21   -1    0    0  502  501  0.00000000000E+00  0.00000000000E+00  0.10145049561E+03  0.10145049561E+03  0.00000000000E+00 0. -1.
         21   -1    0    0  501  502 -0.00000000000E+00 -0.00000000000E+00 -0.50824766162E+03  0.50824766162E+03  0.00000000000E+00 0. -1.
      99926    2    1    2    0    0  0.00000000000E+00  0.00000000000E+00 -0.40679716601E+03  0.60969815723E+03  0.45414525062E+03 0.  0.
      99925    2    3    3    0    0  0.38392995526E+02  0.96894492125E+02 -0.31267844691E+03  0.42163325861E+03  0.26295290242E+03 0.  0.
         25    1    3    3    0    0 -0.38392995526E+02 -0.96894492125E+02 -0.94118719103E+02  0.18806489863E+03  0.12509000000E+03 0.  0.
         25    1    4    4    0    0  0.35748574726E+02  0.73487755942E+02 -0.12472543491E+03  0.19463389500E+03  0.12509000000E+03 0.  0.
         25    1    4    4    0    0  0.26444208003E+01  0.23406736183E+02 -0.18795301200E+03  0.22699936361E+03  0.12509000000E+03 0.  0.
<mgrwt>
<rscale>  2 0.45414525E+03</rscale>
<asrwt>0</asrwt>
<pdfrwt beam="1">  1       21 0.14919190E-01 0.45414525E+03</pdfrwt>
<pdfrwt beam="2">  1       21 0.74742305E-01 0.45414525E+03</pdfrwt>
<totfact> 0.58479089E+04</totfact>
</mgrwt>
</event>
<event>
 7    0  0.4714446E-002  0.4517808E+03  0.7546771E-02  0.1027192E+00
         21   -1    0    0  502  501  0.00000000000E+00  0.00000000000E+00  0.22528551489E+03  0.22528551489E+03  0.00000000000E+00 0. -1.
         21   -1    0    0  501  502 -0.00000000000E+00 -0.00000000000E+00 -0.22649690728E+03  0.22649690728E+03  0.00000000000E+00 0. -1.
      99926    2    1    2    0    0  0.00000000000E+00  0.00000000000E+00 -0.12113923878E+01  0.45178242217E+03  0.45178079808E+03 0.  0.
      99925    2    3    3    0    0  0.69787891052E+01 -0.10838799209E+03 -0.18705112790E+02  0.28519851334E+03  0.26304305815E+03 0.  0.
         25    1    4    4    0    0 -0.24153858763E+02 -0.71394271206E+02 -0.34790493000E+02  0.15012806985E+03  0.12509000000E+03 0.  0.
         25    1    3    3    0    0 -0.69787891052E+01  0.10838799209E+03  0.17493720403E+02  0.16658390883E+03  0.12509000000E+03 0.  0.
         25    1    4    4    0    0  0.31132647868E+02 -0.36993720888E+02  0.16085380210E+02  0.13507044349E+03  0.12509000000E+03 0.  0.
<mgrwt>
<rscale>  2 0.45178080E+03</rscale>
<asrwt>0</asrwt>
<pdfrwt beam="1">  1       21 0.33130223E-01 0.45178080E+03</pdfrwt>
<pdfrwt beam="2">  1       21 0.33308369E-01 0.45178080E+03</pdfrwt>
<totfact> 0.70577655E+04</totfact>
</mgrwt>
</event>
<event>
 7    0  0.4714446E-002  0.4409594E+03  0.7546771E-02  0.1030453E+00
         21   -1    0    0  502  501  0.00000000000E+00  0.00000000000E+00  0.18720094549E+03  0.18720094549E+03  0.00000000000E+00 0. -1.
         21   -1    0    0  501  502 -0.00000000000E+00 -0.00000000000E+00 -0.25967438539E+03  0.25967438539E+03  0.00000000000E+00 0. -1.
      99926    2    1    2    0    0  0.00000000000E+00 -0.71054273576E-14 -0.72473439902E+02  0.44687533089E+03  0.44095936532E+03 0.  0.
      99925    2    3    3    0    0 -0.65386615465E+02  0.60289417349E+02 -0.15990113637E+01  0.27781641794E+03  0.26319039099E+03 0.  0.
         25    1    4    4    0    0 -0.14392799506E+02  0.30645247244E+02 -0.37548992952E+02  0.13492115782E+03  0.12509000000E+03 0.  0.
         25    1    4    4    0    0 -0.50993815959E+02  0.29644170105E+02  0.35949981589E+02  0.14289526012E+03  0.12509000000E+03 0.  0.
         25    1    3    3    0    0  0.65386615465E+02 -0.60289417349E+02 -0.70874428539E+02  0.16905891295E+03  0.12509000000E+03 0.  0.
<mgrwt>
<rscale>  2 0.44095937E+03</rscale>
<asrwt>0</asrwt>
<pdfrwt beam="1">  1       21 0.27529551E-01 0.44095937E+03</pdfrwt>
<pdfrwt beam="2">  1       21 0.38187409E-01 0.44095937E+03</pdfrwt>
<totfact> 0.77464596E+04</totfact>
</mgrwt>
</event>
<event>
 7    0  0.4714446E-002  0.4534900E+03  0.7546771E-02  0.1026686E+00
         21   -1    0    0  502  501  0.00000000000E+00  0.00000000000E+00  0.44779828056E+03  0.44779828056E+03  0.00000000000E+00 0.  1.
         21   -1    0    0  501  502 -0.00000000000E+00 -0.00000000000E+00 -0.11481350951E+03  0.11481350951E+03  0.00000000000E+00 0.  1.
      99926    2    1    2    0    0  0.71054273576E-14  0.71054273576E-14  0.33298477106E+03  0.56261179007E+03  0.45348998729E+03 0.  0.
      99925    2    3    3    0    0  0.44745650260E+02  0.57021162110E+02  0.10442105634E+03  0.29216315182E+03  0.26306266198E+03 0.  0.
         25    1    3    3    0    0 -0.44745650260E+02 -0.57021162110E+02  0.22856371472E+03  0.27044863825E+03  0.12509000000E+03 0.  0.
         25    1    4    4    0    0  0.43183504388E+02  0.33260446698E+02  0.91245105375E+02  0.16414703689E+03  0.12509000000E+03 0.  0.
         25    1    4    4    0    0  0.15621458726E+01  0.23760715412E+02  0.13175950962E+02  0.12801611492E+03  0.12509000000E+03 0.  0.
<mgrwt>
<rscale>  2 0.45348999E+03</rscale>
<asrwt>0</asrwt>
<pdfrwt beam="1">  1       21 0.65852688E-01 0.45348999E+03</pdfrwt>
<pdfrwt beam="2">  1       21 0.16884340E-01 0.45348999E+03</pdfrwt>
<totfact> 0.61775222E+04</totfact>
</mgrwt>
</event>
<event>
 7    0  0.4714446E-002  0.4526754E+03  0.7546771E-02  0.1026927E+00
         21   -1    0    0  502  501  0.00000000000E+00  0.00000000000E+00  0.50468402546E+02  0.50468402546E+02  0.00000000000E+00 0.  1.
         21   -1    0    0  501  502 -0.00000000000E+00 -0.00000000000E+00 -0.10150660333E+04  0.10150660333E+04  0.00000000000E+00 0.  1.
      99926    2    1    2    0    0  0.00000000000E+00  0.00000000000E+00 -0.96459763076E+03  0.10655344359E+04  0.45267542977E+03 0.  0.
      99925    2    3    3    0    0  0.86750934733E+02  0.50721708609E+02 -0.71955706940E+03  0.77263376803E+03  0.26287287226E+03 0.  0.
         25    1    4    4    0    0  0.36584437354E+02  0.39265203133E+02 -0.25852273061E+03  0.29216722536E+03  0.12509000000E+03 0.  0.
         25    1    4    4    0    0  0.50166497379E+02  0.11456505476E+02 -0.46103433879E+03  0.48046654267E+03  0.12509000000E+03 0.  0.
         25    1    3    3    0    0 -0.86750934733E+02 -0.50721708609E+02 -0.24504056136E+03  0.29290066783E+03  0.12509000000E+03 0.  0.
<mgrwt>
<rscale>  2 0.45267543E+03</rscale>
<asrwt>0</asrwt>
<pdfrwt beam="1">  1       21 0.74218243E-02 0.45267543E+03</pdfrwt>
<pdfrwt beam="2">  1       21 0.14927441E+00 0.45267543E+03</pdfrwt>
<totfact> 0.37386127E+04</totfact>
</mgrwt>
</event>
<event>
 7    0  0.4714446E-002  0.4573470E+03  0.7546771E-02  0.1025553E+00
         21   -1    0    0  502  501  0.00000000000E+00  0.00000000000E+00  0.65267502791E+03  0.65267502791E+03  0.00000000000E+00 0. -1.
         21   -1    0    0  501  502 -0.00000000000E+00 -0.00000000000E+00 -0.80118856153E+02  0.80118856153E+02  0.00000000000E+00 0. -1.
      99926    2    1    2    0    0  0.00000000000E+00 -0.71054273576E-14  0.57255617176E+03  0.73279388406E+03  0.45734703093E+03 0.  0.
      99925    2    3    3    0    0 -0.12388385340E+02 -0.25269649871E+02  0.18027145189E+03  0.32008716394E+03  0.26299423730E+03 0.  0.
         25    1    4    4    0    0 -0.31846896081E+01  0.23686814800E+02  0.65733698141E+02  0.14331655388E+03  0.12509000000E+03 0.  0.
         25    1    4    4    0    0 -0.92036957316E+01 -0.48956464670E+02  0.11453775375E+03  0.17677061006E+03  0.12509000000E+03 0.  0.
         25    1    3    3    0    0  0.12388385340E+02  0.25269649871E+02  0.39228471987E+03  0.41270672013E+03  0.12509000000E+03 0.  0.
<mgrwt>
<rscale>  2 0.45734703E+03</rscale>
<asrwt>0</asrwt>
<pdfrwt beam="1">  1       21 0.95981619E-01 0.45734703E+03</pdfrwt>
<pdfrwt beam="2">  1       21 0.11782185E-01 0.45734703E+03</pdfrwt>
<totfact> 0.50225070E+04</totfact>
</mgrwt>
</event>
<event>
 7    0  0.4714446E-002  0.4550901E+03  0.7546771E-02  0.1026215E+00
         21   -1    0    0  502  501  0.00000000000E+00  0.00000000000E+00  0.29482427460E+03  0.29482427460E+03  0.00000000000E+00 0.  1.
         21   -1    0    0  501  502 -0.00000000000E+00 -0.00000000000E+00 -0.17561899635E+03  0.17561899635E+03  0.00000000000E+00 0.  1.
      99926    2    1    2    0    0  0.00000000000E+00  0.00000000000E+00  0.11920527825E+03  0.47044327095E+03  0.45509007111E+03 0.  0.
      99925    2    3    3    0    0 -0.95515732373E+02  0.47802558082E+02  0.11370827826E+03  0.30586482522E+03  0.26308815837E+03 0.  0.
         25    1    3    3    0    0  0.95515732373E+02 -0.47802558082E+02  0.54969999969E+01  0.16457844573E+03  0.12509000000E+03 0.  0.
         25    1    4    4    0    0 -0.65947793332E+02 -0.10536754897E+02  0.69709656369E+02  0.15800974318E+03  0.12509000000E+03 0.  0.
         25    1    4    4    0    0 -0.29567939040E+02  0.58339312979E+02  0.43998621889E+02  0.14785508204E+03  0.12509000000E+03 0.  0.
<mgrwt>
<rscale>  2 0.45509007E+03</rscale>
<asrwt>0</asrwt>
<pdfrwt beam="1">  1       21 0.43356511E-01 0.45509007E+03</pdfrwt>
<pdfrwt beam="2">  1       21 0.25826323E-01 0.45509007E+03</pdfrwt>
<totfact> 0.67354615E+04</totfact>
</mgrwt>
</event>
<event>
 7    0  0.4714446E-002  0.4564989E+03  0.7546771E-02  0.1025802E+00
         21   -1    0    0  502  501  0.00000000000E+00  0.00000000000E+00  0.12928366633E+03  0.12928366633E+03  0.00000000000E+00 0.  1.
         21   -1    0    0  501  502 -0.00000000000E+00 -0.00000000000E+00 -0.40297282866E+03  0.40297282866E+03  0.00000000000E+00 0.  1.
      99926    2    1    2    0    0  0.00000000000E+00  0.00000000000E+00 -0.27368916232E+03  0.53225649499E+03  0.45649887063E+03 0.  0.
      99925    2    3    3    0    0 -0.75064727421E+02 -0.62444653654E+02 -0.24139946334E+03  0.37031767681E+03  0.26330103073E+03 0.  0.
         25    1    4    4    0    0 -0.14358907830E+02 -0.47981073016E+02 -0.79625142107E+02  0.15651208566E+03  0.12509000000E+03 0.  0.
         25    1    4    4    0    0 -0.60705819591E+02 -0.14463580638E+02 -0.16177432124E+03  0.21380559115E+03  0.12509000000E+03 0.  0.
         25    1    3    3    0    0  0.75064727421E+02  0.62444653654E+02 -0.32289698978E+02  0.16193881818E+03  0.12509000000E+03 0.  0.
<mgrwt>
<rscale>  2 0.45649887E+03</rscale>
<asrwt>0</asrwt>
<pdfrwt beam="1">  1       21 0.19012304E-01 0.45649887E+03</pdfrwt>
<pdfrwt beam="2">  1       21 0.59260710E-01 0.45649887E+03</pdfrwt>
<totfact> 0.62310500E+04</totfact>
</mgrwt>
</event>
<event>
 7    0  0.4714446E-002  0.4564168E+03  0.7546771E-02  0.1025826E+00
         21   -1    0    0  502  501  0.00000000000E+00  0.00000000000E+00  0.46881148965E+03  0.46881148965E+03  0.00000000000E+00 0. -1.
         21   -1    0    0  501  502 -0.00000000000E+00 -0.00000000000E+00 -0.11108743214E+03  0.11108743214E+03  0.00000000000E+00 0. -1.
      99926    2    1    2    0    0  0.00000000000E+00  0.00000000000E+00  0.35772405751E+03  0.57989892179E+03  0.45641675930E+03 0.  0.
      99925    2    3    3    0    0  0.42529902254E+02  0.10086386481E+03  0.26756707026E+03  0.39080079314E+03  0.26296541791E+03 0.  0.
         25    1    3    3    0    0 -0.42529902254E+02 -0.10086386481E+03  0.90156987249E+02  0.18909812865E+03  0.12509000000E+03 0.  0.
         25    1    4    4    0    0  0.99499783677E+01  0.84514024255E+02  0.17290553691E+03  0.22975085454E+03  0.12509000000E+03 0.  0.
         25    1    4    4    0    0  0.32579923886E+02  0.16349840554E+02  0.94661533347E+02  0.16104993860E+03  0.12509000000E+03 0.  0.
<mgrwt>
<rscale>  2 0.45641676E+03</rscale>
<asrwt>0</asrwt>
<pdfrwt beam="1">  1       21 0.68942866E-01 0.45641676E+03</pdfrwt>
<pdfrwt beam="2">  1       21 0.16336387E-01 0.45641676E+03</pdfrwt>
<totfact> 0.59266308E+04</totfact>
</mgrwt>
</event>
<event>
 7    0  0.4714446E-002  0.4501388E+03  0.7546771E-02  0.1027681E+00
         21   -1    0    0  502  501  0.00000000000E+00  0.00000000000E+00  0.13871812471E+03  0.13871812471E+03  0.00000000000E+00 0. -1.
         21   -1    0    0  501  502 -0.00000000000E+00 -0.00000000000E+00 -0.36517385999E+03  0.36517385999E+03  0.00000000000E+00 0. -1.
      99926    2    1    2    0    0  0.00000000000E+00  0.35527136788E-14 -0.22645573528E+03  0.50389198471E+03  0.45013879216E+03 0.  0.
      99925    2    3    3    0    0  0.10064747551E+03  0.23209172123E+02 -0.18066062651E+03  0.33532959244E+03  0.26294313758E+03 0.  0.
         25    1    4    4    0    0  0.45285510058E+02  0.33532768616E+02 -0.13025425459E+03  0.18917955210E+03  0.12509000000E+03 0.  0.
         25    1    4    4    0    0  0.55361965454E+02 -0.10323596493E+02 -0.50406371922E+02  0.14615004035E+03  0.12509000000E+03 0.  0.
         25    1    3    3    0    0 -0.10064747551E+03 -0.23209172123E+02 -0.45795108768E+02  0.16856239226E+03  0.12509000000E+03 0.  0.
<mgrwt>
<rscale>  2 0.45013879E+03</rscale>
<asrwt>0</asrwt>
<pdfrwt beam="1">  1       21 0.20399724E-01 0.45013879E+03</pdfrwt>
<pdfrwt beam="2">  1       21 0.53702038E-01 0.45013879E+03</pdfrwt>
<totfact> 0.67567682E+04</totfact>
</mgrwt>
</event>
<event>
 7    0  0.4714446E-002  0.4542877E+03  0.7546771E-02  0.1026451E+00
         21   -1    0    0  502  501  0.00000000000E+00  0.00000000000E+00  0.93108954017E+03  0.93108954017E+03  0.00000000000E+00 0. -1.
         21   -1    0    0  501  502 -0.00000000000E+00 -0.00000000000E+00 -0.55412864352E+02  0.55412864352E+02  0.00000000000E+00 0. -1.
      99926    2    1    2    0    0  0.14210854715E-13 -0.66613381478E-15  0.87567667582E+03  0.98650240452E+03  0.45428774313E+03 0.  0.
      99925    2    3    3    0    0 -0.91095889795E+02  0.13467260886E+01  0.69487670272E+03  0.74851834375E+03  0.26291786577E+03 0.  0.
         25    1    3    3    0    0  0.91095889795E+02 -0.13467260886E+01  0.18079997310E+03  0.23798406077E+03  0.12509000000E+03 0.  0.
         25    1    4    4    0    0 -0.64983579745E+02 -0.17160763029E+02  0.27900683147E+03  0.31306497334E+03  0.12509000000E+03 0.  0.
         25    1    4    4    0    0 -0.26112310050E+02  0.18507489118E+02  0.41586987125E+03  0.43545337041E+03  0.12509000000E+03 0.  0.
<mgrwt>
<rscale>  2 0.45428774E+03</rscale>
<asrwt>0</asrwt>
<pdfrwt beam="1">  1       21 0.13692492E+00 0.45428774E+03</pdfrwt>
<pdfrwt beam="2">  1       21 0.81489512E-02 0.45428774E+03</pdfrwt>
<totfact> 0.39917434E+04</totfact>
</mgrwt>
</event>
<event>
 7    0  0.4714446E-002  0.4494779E+03  0.7546771E-02  0.1027878E+00
         21   -1    0    0  502  501  0.00000000000E+00  0.00000000000E+00  0.73046112474E+02  0.73046112474E+02  0.00000000000E+00 0. -1.
         21   -1    0    0  501  502 -0.00000000000E+00 -0.00000000000E+00 -0.69144821306E+03  0.69144821306E+03  0.00000000000E+00 0. -1.
      99926    2    1    2    0    0  0.35527136788E-14  0.00000000000E+00 -0.61840210059E+03  0.76449432554E+03  0.44947793691E+03 0.  0.
      99925    2    3    3    0    0 -0.15494149417E+02 -0.10587267515E+03 -0.36335667797E+03  0.46094075908E+03  0.26265798284E+03 0.  0.
         25    1    4    4    0    0  0.21179430725E+02 -0.61436293187E+02 -0.14092445452E+03  0.19932434971E+03  0.12509000000E+03 0.  0.
         25    1    3    3    0    0  0.15494149417E+02  0.10587267515E+03 -0.25504542262E+03  0.30355356646E+03  0.12509000000E+03 0.  0.
         25    1    4    4    0    0 -0.36673580142E+02 -0.44436381962E+02 -0.22243222344E+03  0.26161640936E+03  0.12509000000E+03 0.  0.
<mgrwt>
<rscale>  2 0.44947794E+03</rscale>
<asrwt>0</asrwt>
<pdfrwt beam="1">  1       21 0.10742075E-01 0.44947794E+03</pdfrwt>
<pdfrwt beam="2">  1       21 0.10168356E+00 0.44947794E+03</pdfrwt>
<totfact> 0.51736629E+04</totfact>
</mgrwt>
</event>
<event>
 7    0  0.4714446E-002  0.4526794E+03  0.7546771E-02  0.1026926E+00
         21   -1    0    0  502  501  0.00000000000E+00  0.00000000000E+00  0.17811523244E+03  0.17811523244E+03  0.00000000000E+00 0.  1.
         21   -1    0    0  501  502 -0.00000000000E+00 -0.00000000000E+00 -0.28762089014E+03  0.28762089014E+03  0.00000000000E+00 0.  1.
      99926    2    1    2    0    0  0.88817841970E-15  0.00000000000E+00 -0.10950565771E+03  0.46573612258E+03  0.45267940842E+03 0.  0.
      99925    2    3    3    0    0 -0.36690074622E+01 -0.10755839214E+03 -0.96693545923E+02  0.30022501225E+03  0.26306490990E+03 0.  0.
         25    1    3    3    0    0  0.36690074622E+01  0.10755839214E+03 -0.12812111784E+02  0.16551111033E+03  0.12509000000E+03 0.  0.
         25    1    4    4    0    0 -0.27813877095E+02 -0.86117519440E+02 -0.62681635885E+02  0.16663233327E+03  0.12509000000E+03 0.  0.
         25    1    4    4    0    0  0.24144869633E+02 -0.21440872698E+02 -0.34011910038E+02  0.13359267898E+03  0.12509000000E+03 0.  0.
<mgrwt>
<rscale>  2 0.45267941E+03</rscale>
<asrwt>0</asrwt>
<pdfrwt beam="1">  1       21 0.26193417E-01 0.45267941E+03</pdfrwt>
<pdfrwt beam="2">  1       21 0.42297190E-01 0.45267941E+03</pdfrwt>
<totfact> 0.69016006E+04</totfact>
</mgrwt>
</event>
<event>
 7    0  0.4714446E-002  0.4563070E+03  0.7546771E-02  0.1025858E+00
         21   -1    0    0  502  501  0.00000000000E+00  0.00000000000E+00  0.39361366147E+03  0.39361366147E+03  0.00000000000E+00 0.  1.
         21   -1    0    0  501  502 -0.00000000000E+00 -0.00000000000E+00 -0.13224645531E+03  0.13224645531E+03  0.00000000000E+00 0.  1.
      99926    2    1    2    0    0  0.00000000000E+00  0.71054273576E-14  0.26136720615E+03  0.52586011678E+03  0.45630696462E+03 0.  0.
      99925    2    3    3    0    0  0.96066406669E+02 -0.61188174487E+02  0.17533113821E+03  0.33606427838E+03  0.26310728607E+03 0.  0.
         25    1    4    4    0    0  0.73247174196E+02 -0.14674722687E+01  0.73316104775E+02  0.16245018105E+03  0.12509000000E+03 0.  0.
         25    1    3    3    0    0 -0.96066406669E+02  0.61188174487E+02  0.86036067940E+02  0.18979583840E+03  0.12509000000E+03 0.  0.
         25    1    4    4    0    0  0.22819232473E+02 -0.59720702219E+02  0.10201503344E+03  0.17361409733E+03  0.12509000000E+03 0.  0.
<mgrwt>
<rscale>  2 0.45630696E+03</rscale>
<asrwt>0</asrwt>
<pdfrwt beam="1">  1       21 0.57884362E-01 0.45630696E+03</pdfrwt>
<pdfrwt beam="2">  1       21 0.19448008E-01 0.45630696E+03</pdfrwt>
<totfact> 0.62834108E+04</totfact>
</mgrwt>
</event>
<event>
 7    0  0.4714446E-002  0.4639798E+03  0.7546771E-02  0.1023633E+00
         21   -1    0    0  502  501  0.00000000000E+00  0.00000000000E+00  0.26326326039E+03  0.26326326039E+03  0.00000000000E+00 0. -1.
         21   -1    0    0  501  502 -0.00000000000E+00 -0.00000000000E+00 -0.20443155823E+03  0.20443155823E+03  0.00000000000E+00 0. -1.
      99926    2    1    2    0    0 -0.17763568394E-14  0.00000000000E+00  0.58831702166E+02  0.46769481862E+03  0.46397982088E+03 0.  0.
      99925    2    3    3    0    0  0.15910509962E+02 -0.34747018845E+02  0.15289687588E+03  0.30658533829E+03  0.26297645399E+03 0.  0.
         25    1    4    4    0    0 -0.36940141906E+01 -0.41903443177E+02  0.43079562813E+02  0.13882687464E+03  0.12509000000E+03 0.  0.
         25    1    4    4    0    0  0.19604524153E+02  0.71564243318E+01  0.10981731307E+03  0.16775846365E+03  0.12509000000E+03 0.  0.
         25    1    3    3    0    0 -0.15910509962E+02  0.34747018845E+02 -0.94065173715E+02  0.16110948033E+03  0.12509000000E+03 0.  0.
<mgrwt>
<rscale>  2 0.46397982E+03</rscale>
<asrwt>0</asrwt>
<pdfrwt beam="1">  1       21 0.38715186E-01 0.46397982E+03</pdfrwt>
<pdfrwt beam="2">  1       21 0.30063464E-01 0.46397982E+03</pdfrwt>
<totfact> 0.62990132E+04</totfact>
</mgrwt>
</event>
<event>
 7    0  0.4714446E-002  0.4606921E+03  0.7546771E-02  0.1024581E+00
         21   -1    0    0  502  501  0.00000000000E+00  0.00000000000E+00  0.11698215819E+03  0.11698215819E+03  0.00000000000E+00 0.  1.
         21   -1    0    0  501  502 -0.00000000000E+00 -0.00000000000E+00 -0.45356746735E+03  0.45356746735E+03  0.00000000000E+00 0.  1.
      99926    2    1    2    0    0  0.28421709430E-13 -0.71054273576E-14 -0.33658530916E+03  0.57054962554E+03  0.46069209334E+03 0.  0.
      99925    2    3    3    0    0  0.10553738231E+03 -0.48062081860E+02 -0.18118646826E+03  0.33980212148E+03  0.26303772107E+03 0.  0.
         25    1    4    4    0    0  0.15806365834E+02 -0.38559938847E+02 -0.10014199783E+03  0.16556762338E+03  0.12509000000E+03 0.  0.
         25    1    4    4    0    0  0.89731016474E+02 -0.95021430137E+01 -0.81044470437E+02  0.17423449810E+03  0.12509000000E+03 0.  0.
         25    1    3    3    0    0 -0.10553738231E+03  0.48062081860E+02 -0.15539884090E+03  0.23074750406E+03  0.12509000000E+03 0.  0.
<mgrwt>
<rscale>  2 0.46069209E+03</rscale>
<asrwt>0</asrwt>
<pdfrwt beam="1">  1       21 0.17203259E-01 0.46069209E+03</pdfrwt>
<pdfrwt beam="2">  1       21 0.66701098E-01 0.46069209E+03</pdfrwt>
<totfact> 0.57879061E+04</totfact>
</mgrwt>
</event>
<event>
 7    0  0.4714446E-002  0.4529658E+03  0.7546771E-02  0.1026841E+00
         21   -1    0    0  502  501  0.00000000000E+00  0.00000000000E+00  0.33077894077E+02  0.33077894077E+02  0.00000000000E+00 0.  1.
         21   -1    0    0  501  502 -0.00000000000E+00 -0.00000000000E+00 -0.15507185822E+04  0.15507185822E+04  0.00000000000E+00 0.  1.
      99926    2    1    2    0    0  0.00000000000E+00  0.14210854715E-13 -0.15176406882E+04  0.15837964763E+04  0.45296580448E+03 0.  0.
      99925    2    3    3    0    0  0.41444499818E+02 -0.10316996144E+03 -0.97159406402E+03  0.10126781774E+04  0.26298360834E+03 0.  0.
         25    1    3    3    0    0 -0.41444499818E+02  0.10316996144E+03 -0.54604662413E+03  0.57111829890E+03  0.12509000000E+03 0.  0.
         25    1    4    4    0    0  0.30407454017E+02 -0.81223296892E+02 -0.42563750728E+03  0.45203609692E+03  0.12509000000E+03 0.  0.
         25    1    4    4    0    0  0.11037045801E+02 -0.21946664548E+02 -0.54595655674E+03  0.56064208049E+03  0.12509000000E+03 0.  0.
<mgrwt>
<rscale>  2 0.45296580E+03</rscale>
<asrwt>0</asrwt>
<pdfrwt beam="1">  1       21 0.48643939E-02 0.45296580E+03</pdfrwt>
<pdfrwt beam="2">  1       21 0.22804696E+00 0.45296580E+03</pdfrwt>
<totfact> 0.22145798E+04</totfact>
</mgrwt>
</event>
<event>
 7    0  0.4714446E-002  0.4569673E+03  0.7546771E-02  0.1025664E+00
         21   -1    0    0  502  501  0.00000000000E+00  0.00000000000E+00  0.14979895062E+03  0.14979895062E+03  0.00000000000E+00 0.  1.
         21   -1    0    0  501  502 -0.00000000000E+00 -0.00000000000E+00 -0.34849888523E+03  0.34849888523E+03  0.00000000000E+00 0.  1.
      99926    2    1    2    0    0  0.00000000000E+00  0.00000000000E+00 -0.19869993461E+03  0.49829783585E+03  0.45696725178E+03 0.  0.
      99925    2    3    3    0    0 -0.45376599211E+02  0.13221418742E+02 -0.23914251500E+03  0.35859475042E+03  0.26299659861E+03 0.  0.
         25    1    3    3    0    0  0.45376599211E+02 -0.13221418742E+02  0.40442580392E+02  0.13970308543E+03  0.12509000000E+03 0.  0.
         25    1    4    4    0    0 -0.41115154087E+02  0.17004518904E+02 -0.16951325605E+03  0.21531804763E+03  0.12509000000E+03 0.  0.
         25    1    4    4    0    0 -0.42614451237E+01 -0.37831001621E+01 -0.69629258952E+02  0.14327670279E+03  0.12509000000E+03 0.  0.
<mgrwt>
<rscale>  2 0.45696725E+03</rscale>
<asrwt>0</asrwt>
<pdfrwt beam="1">  1       21 0.22029258E-01 0.45696725E+03</pdfrwt>
<pdfrwt beam="2">  1       21 0.51249835E-01 0.45696725E+03</pdfrwt>
<totfact> 0.64379125E+04</totfact>
</mgrwt>
</event>
<event>
 7    0  0.4714446E-002  0.4556070E+03  0.7546771E-02  0.1026063E+00
         21   -1    0    0  502  501  0.00000000000E+00  0.00000000000E+00  0.49767302998E+03  0.49767302998E+03  0.00000000000E+00 0. -1.
         21   -1    0    0  501  502 -0.00000000000E+00 -0.00000000000E+00 -0.10427413719E+03  0.10427413719E+03  0.00000000000E+00 0. -1.
      99926    2    1    2    0    0  0.00000000000E+00  0.00000000000E+00  0.39339889279E+03  0.60194716718E+03  0.45560696134E+03 0.  0.
      99925    2    3    3    0    0  0.30775848997E+02 -0.43605724648E+02  0.38047363202E+03  0.46533390805E+03  0.26253923366E+03 0.  0.
         25    1    4    4    0    0 -0.19432756270E+02 -0.17397824367E+02  0.21715374758E+03  0.25195946995E+03  0.12509000000E+03 0.  0.
         25    1    3    3    0    0 -0.30775848997E+02  0.43605724648E+02  0.12925260772E+02  0.13661325913E+03  0.12509000000E+03 0.  0.
         25    1    4    4    0    0  0.50208605268E+02 -0.26207900281E+02  0.16331988444E+03  0.21337443810E+03  0.12509000000E+03 0.  0.
<mgrwt>
<rscale>  2 0.45560696E+03</rscale>
<asrwt>0</asrwt>
<pdfrwt beam="1">  1       21 0.73187209E-01 0.45560696E+03</pdfrwt>
<pdfrwt beam="2">  1       21 0.15334432E-01 0.45560696E+03</pdfrwt>
<totfact> 0.58278596E+04</totfact>
</mgrwt>
</event>
<event>
 7    0  0.4714446E-002  0.4523284E+03  0.7546771E-02  0.1027030E+00
         21   -1    0    0  502  501  0.00000000000E+00  0.00000000000E+00  0.12880417788E+04  0.12880417788E+04  0.00000000000E+00 0.  1.
         21   -1    0    0  501  502 -0.00000000000E+00 -0.00000000000E+00 -0.39711638733E+02  0.39711638733E+02  0.00000000000E+00 0.  1.
      99926    2    1    2    0    0  0.00000000000E+00  0.88817841970E-15  0.12483301400E+04  0.13277534175E+04  0.45232841959E+03 0.  0.
      99925    2    3    3    0    0 -0.10723345102E+03 -0.39719370035E+01  0.70864729813E+03  0.76346637419E+03  0.26303064854E+03 0.  0.
         25    1    4    4    0    0 -0.30732033160E+02 -0.20228540308E+02  0.41234146537E+03  0.43246577190E+03  0.12509000000E+03 0.  0.
         25    1    4    4    0    0 -0.76501417864E+02  0.16256603304E+02  0.29630583277E+03  0.33100060229E+03  0.12509000000E+03 0.  0.
         25    1    3    3    0    0  0.10723345102E+03  0.39719370035E+01  0.53968284189E+03  0.56428704330E+03  0.12509000000E+03 0.  0.
<mgrwt>
<rscale>  2 0.45232842E+03</rscale>
<asrwt>0</asrwt>
<pdfrwt beam="1">  1       21 0.18941788E+00 0.45232842E+03</pdfrwt>
<pdfrwt beam="2">  1       21 0.58399477E-02 0.45232842E+03</pdfrwt>
<totfact> 0.28915267E+04</totfact>
</mgrwt>
</event>
<event>
 7    0  0.4714446E-002  0.4403298E+03  0.7546771E-02  0.1030646E+00
         21   -1    0    0  502  501  0.00000000000E+00  0.00000000000E+00  0.11113964875E+03  0.11113964875E+03  0.00000000000E+00 0. -1.
         21   -1    0    0  501  502 -0.00000000000E+00 -0.00000000000E+00 -0.43614129125E+03  0.43614129125E+03  0.00000000000E+00 0. -1.
      99926    2    1    2    0    0  0.00000000000E+00  0.00000000000E+00 -0.32500164251E+03  0.54728094000E+03  0.44032983053E+03 0.  0.
      99925    2    3    3    0    0 -0.59383523117E+02 -0.35047305002E+02 -0.29548280228E+03  0.40142626427E+03  0.26282740115E+03 0.  0.
         25    1    4    4    0    0  0.83796404707E+01 -0.26346251562E+02 -0.12205767358E+03  0.17694611362E+03  0.12509000000E+03 0.  0.
         25    1    3    3    0    0  0.59383523117E+02  0.35047305002E+02 -0.29518840231E+02  0.14585467574E+03  0.12509000000E+03 0.  0.
         25    1    4    4    0    0 -0.67763163588E+02 -0.87010534399E+01 -0.17342512870E+03  0.22448015064E+03  0.12509000000E+03 0.  0.
<mgrwt>
<rscale>  2 0.44032983E+03</rscale>
<asrwt>0</asrwt>
<pdfrwt beam="1">  1       21 0.16344067E-01 0.44032983E+03</pdfrwt>
<pdfrwt beam="2">  1       21 0.64138423E-01 0.44032983E+03</pdfrwt>
<totfact> 0.69802885E+04</totfact>
</mgrwt>
</event>
<event>
 7    0  0.4714446E-002  0.4484937E+03  0.7546771E-02  0.1028172E+00
         21   -1    0    0  502  501  0.00000000000E+00  0.00000000000E+00  0.16804090365E+03  0.16804090365E+03  0.00000000000E+00 0. -1.
         21   -1    0    0  501  502 -0.00000000000E+00 -0.00000000000E+00 -0.29925247524E+03  0.29925247524E+03  0.00000000000E+00 0. -1.
      99926    2    1    2    0    0 -0.71054273576E-14  0.00000000000E+00 -0.13121157159E+03  0.46729337889E+03  0.44849372953E+03 0.  0.
      99925    2    3    3    0    0  0.46901675976E+02 -0.27558311949E+02 -0.17956462900E+03  0.32257035367E+03  0.26239083313E+03 0.  0.
         25    1    4    4    0    0  0.23959461552E+02  0.22404153685E+02 -0.67626353672E+02  0.14593434726E+03  0.12509000000E+03 0.  0.
         25    1    4    4    0    0  0.22942214424E+02 -0.49962465634E+02 -0.11193827533E+03  0.17663600641E+03  0.12509000000E+03 0.  0.
         25    1    3    3    0    0 -0.46901675976E+02  0.27558311949E+02  0.48353057410E+02  0.14472302522E+03  0.12509000000E+03 0.  0.
<mgrwt>
<rscale>  2 0.44849373E+03</rscale>
<asrwt>0</asrwt>
<pdfrwt beam="1">  1       21 0.24711898E-01 0.44849373E+03</pdfrwt>
<pdfrwt beam="2">  1       21 0.44007716E-01 0.44849373E+03</pdfrwt>
<totfact> 0.71244741E+04</totfact>
</mgrwt>
</event>
<event>
 7    0  0.4714446E-002  0.4409403E+03  0.7546771E-02  0.1030459E+00
         21   -1    0    0  502  501  0.00000000000E+00  0.00000000000E+00  0.44433439915E+03  0.44433439915E+03  0.00000000000E+00 0. -1.
         21   -1    0    0  501  502 -0.00000000000E+00 -0.00000000000E+00 -0.10939301026E+03  0.10939301026E+03  0.00000000000E+00 0. -1.
      99926    2    1    2    0    0  0.00000000000E+00 -0.71054273576E-14  0.33494138889E+03  0.55372740941E+03  0.44094025666E+03 0.  0.
      99925    2    3    3    0    0 -0.58015318659E+02  0.37275722965E+02  0.12376985060E+03  0.29878391880E+03  0.26305436224E+03 0.  0.
         25    1    3    3    0    0  0.58015318659E+02 -0.37275722965E+02  0.21117153828E+03  0.25494349061E+03  0.12509000000E+03 0.  0.
         25    1    4    4    0    0 -0.35261095768E+02  0.51155951159E+02  0.91183258314E+02  0.16679979290E+03  0.12509000000E+03 0.  0.
         25    1    4    4    0    0 -0.22754222891E+02 -0.13880228194E+02  0.32586592290E+02  0.13198412591E+03  0.12509000000E+03 0.  0.
<mgrwt>
<rscale>  2 0.44094026E+03</rscale>
<asrwt>0</asrwt>
<pdfrwt beam="1">  1       21 0.65343293E-01 0.44094026E+03</pdfrwt>
<pdfrwt beam="2">  1       21 0.16087208E-01 0.44094026E+03</pdfrwt>
<totfact> 0.68978929E+04</totfact>
</mgrwt>
</event>
<event>
 7    0  0.4714446E-002  0.4690766E+03  0.7546771E-02  0.1022181E+00
         21   -1    0    0  502  501  0.00000000000E+00  0.00000000000E+00  0.58267655977E+03  0.58267655977E+03  0.00000000000E+00 0.  1.
         21   -1    0    0  501  502 -0.00000000000E+00 -0.00000000000E+00 -0.94406069909E+02  0.94406069909E+02  0.00000000000E+00 0.  1.
      99926    2    1    2    0    0  0.14210854715E-13  0.71054273576E-14  0.48827048986E+03  0.67708262968E+03  0.46907655681E+03 0.  0.
      99925    2    3    3    0    0  0.71867860216E+02  0.51866151109E+02  0.43262820691E+03  0.51399167740E+03  0.26299276047E+03 0.  0.
         25    1    4    4    0    0  0.29057934721E+02 -0.74711438786E+01  0.24704490522E+03  0.27852984554E+03  0.12509000000E+03 0.  0.
         25    1    4    4    0    0  0.42809925495E+02  0.59337294987E+02  0.18558330169E+03  0.23546183186E+03  0.12509000000E+03 0.  0.
         25    1    3    3    0    0 -0.71867860216E+02 -0.51866151109E+02  0.55642282950E+02  0.16309095228E+03  0.12509000000E+03 0.  0.
<mgrwt>
<rscale>  2 0.46907656E+03</rscale>
<asrwt>0</asrwt>
<pdfrwt beam="1">  1       21 0.85687728E-01 0.46907656E+03</pdfrwt>
<pdfrwt beam="2">  1       21 0.13883246E-01 0.46907656E+03</pdfrwt>
<totfact> 0.48550193E+04</totfact>
</mgrwt>
</event>
<event>
 7    0  0.4714446E-002  0.4509594E+03  0.7546771E-02  0.1027436E+00
         21   -1    0    0  502  501  0.00000000000E+00  0.00000000000E+00  0.24563731614E+03  0.24563731614E+03  0.00000000000E+00 0. -1.
         21   -1    0    0  501  502 -0.00000000000E+00 -0.00000000000E+00 -0.20697629197E+03  0.20697629197E+03  0.00000000000E+00 0. -1.
      99926    2    1    2    0    0  0.00000000000E+00  0.00000000000E+00  0.38661024167E+02  0.45261360811E+03  0.45095942551E+03 0.  0.
      99925    2    3    3    0    0  0.64974295458E+02  0.86587779445E+02  0.40040392680E+02  0.28717929070E+03  0.26296313304E+03 0.  0.
         25    1    4    4    0    0  0.55113537771E+02  0.39312911768E+02 -0.13335883609E+02  0.14285783482E+03  0.12509000000E+03 0.  0.
         25    1    4    4    0    0  0.98607576873E+01  0.47274867678E+02  0.53376276289E+02  0.14432145588E+03  0.12509000000E+03 0.  0.
         25    1    3    3    0    0 -0.64974295458E+02 -0.86587779445E+02 -0.13793685127E+01  0.16543431741E+03  0.12509000000E+03 0.  0.
<mgrwt>
<rscale>  2 0.45095943E+03</rscale>
<asrwt>0</asrwt>
<pdfrwt beam="1">  1       21 0.36123135E-01 0.45095943E+03</pdfrwt>
<pdfrwt beam="2">  1       21 0.30437690E-01 0.45095943E+03</pdfrwt>
<totfact> 0.70981886E+04</totfact>
</mgrwt>
</event>
<event>
 7    0  0.4714446E-002  0.4941320E+03  0.7546771E-02  0.1015322E+00
         21   -1    0    0  502  501  0.00000000000E+00  0.00000000000E+00  0.79989877876E+02  0.79989877876E+02  0.00000000000E+00 0.  1.
         21   -1    0    0  501  502 -0.00000000000E+00 -0.00000000000E+00 -0.76311676392E+03  0.76311676392E+03  0.00000000000E+00 0.  1.
      99926    2    1    2    0    0  0.00000000000E+00  0.00000000000E+00 -0.68312688604E+03  0.84310664179E+03  0.49413203398E+03 0.  0.
      99925    2    3    3    0    0 -0.64588732148E+02 -0.63091102723E+02 -0.61360327705E+03  0.67389307298E+03  0.26357295127E+03 0.  0.
         25    1    3    3    0    0  0.64588732148E+02  0.63091102723E+02 -0.69523608988E+02  0.16921356881E+03  0.12509000000E+03 0.  0.
         25    1    4    4    0    0 -0.67595517484E+00 -0.14780189957E+01 -0.28542550645E+03  0.31163740034E+03  0.12509000000E+03 0.  0.
         25    1    4    4    0    0 -0.63912776973E+02 -0.61613083727E+02 -0.32817777060E+03  0.36225567265E+03  0.12509000000E+03 0.  0.
<mgrwt>
<rscale>  2 0.49413203E+03</rscale>
<asrwt>0</asrwt>
<pdfrwt beam="1">  1       21 0.11763218E-01 0.49413203E+03</pdfrwt>
<pdfrwt beam="2">  1       21 0.11222305E+00 0.49413203E+03</pdfrwt>
<totfact> 0.34033575E+04</totfact>
</mgrwt>
</event>
<event>
 7    0  0.4714446E-002  0.4632849E+03  0.7546771E-02  0.1023833E+00
         21   -1    0    0  502  501  0.00000000000E+00  0.00000000000E+00  0.44361689728E+03  0.44361689728E+03  0.00000000000E+00 0.  1.
         21   -1    0    0  501  502 -0.00000000000E+00 -0.00000000000E+00 -0.12095620792E+03  0.12095620792E+03  0.00000000000E+00 0.  1.
      99926    2    1    2    0    0  0.14210854715E-13  0.00000000000E+00  0.32266068936E+03  0.56457310520E+03  0.46328486987E+03 0.  0.
      99925    2    3    3    0    0  0.98210110060E+02  0.36825719812E+02  0.12875931162E+03  0.31110395175E+03  0.26306909569E+03 0.  0.
         25    1    4    4    0    0  0.33145948210E+02 -0.10209702779E+02  0.88511022216E+02  0.15711333829E+03  0.12509000000E+03 0.  0.
         25    1    3    3    0    0 -0.98210110060E+02 -0.36825719812E+02  0.19390137774E+03  0.25346915344E+03  0.12509000000E+03 0.  0.
         25    1    4    4    0    0  0.65064161851E+02  0.47035422592E+02  0.40248289401E+02  0.15399061347E+03  0.12509000000E+03 0.  0.
<mgrwt>
<rscale>  2 0.46328487E+03</rscale>
<asrwt>0</asrwt>
<pdfrwt beam="1">  1       21 0.65237778E-01 0.46328487E+03</pdfrwt>
<pdfrwt beam="2">  1       21 0.17787678E-01 0.46328487E+03</pdfrwt>
<totfact> 0.57080433E+04</totfact>
</mgrwt>
</event>
<event>
 7    0  0.4714446E-002  0.4067575E+03  0.7546771E-02  0.1041465E+00
         21   -1    0    0  502  501  0.00000000000E+00  0.00000000000E+00  0.40048103893E+03  0.40048103893E+03  0.00000000000E+00 0.  1.
         21   -1    0    0  501  502 -0.00000000000E+00 -0.00000000000E+00 -0.10328310173E+03  0.10328310173E+03  0.00000000000E+00 0.  1.
      99926    2    1    2    0    0  0.17763568394E-14  0.00000000000E+00  0.29719793720E+03  0.50376414066E+03  0.40675753901E+03 0.  0.
      99925    2    3    3    0    0 -0.14775914508E+02 -0.42790469255E+02  0.24042055817E+03  0.35912482796E+03  0.26290539241E+03 0.  0.
         25    1    4    4    0    0 -0.18533031494E+02 -0.22982678339E+02  0.17324307139E+03  0.21571357548E+03  0.12509000000E+03 0.  0.
         25    1    3    3    0    0  0.14775914508E+02  0.42790469255E+02  0.56777379027E+02  0.14463931270E+03  0.12509000000E+03 0.  0.
         25    1    4    4    0    0  0.37571169862E+01 -0.19807790917E+02  0.67177486780E+02  0.14341125248E+03  0.12509000000E+03 0.  0.
<mgrwt>
<rscale>  2 0.40675754E+03</rscale>
<asrwt>0</asrwt>
<pdfrwt beam="1">  1       21 0.58894270E-01 0.40675754E+03</pdfrwt>
<pdfrwt beam="2">  1       21 0.15188692E-01 0.40675754E+03</pdfrwt>
<totfact> 0.97173773E+04</totfact>
</mgrwt>
</event>
<event>
 7    0  0.4714446E-002  0.4580515E+03  0.7546771E-02  0.1025348E+00
         21   -1    0    0  502  501  0.00000000000E+00  0.00000000000E+00  0.92570905786E+02  0.92570905786E+02  0.00000000000E+00 0. -1.
         21   -1    0    0  501  502 -0.00000000000E+00 -0.00000000000E+00 -0.56662299194E+03  0.56662299194E+03  0.00000000000E+00 0. -1.
      99926    2    1    2    0    0 -0.88817841970E-15  0.00000000000E+00 -0.47405208616E+03  0.65919389773E+03  0.45805154122E+03 0.  0.
      99925    2    3    3    0    0 -0.58955389988E+01  0.11443630106E+03 -0.32328874737E+03  0.43224122248E+03  0.26303314592E+03 0.  0.
         25    1    3    3    0    0  0.58955389988E+01 -0.11443630106E+03 -0.15076333878E+03  0.22695267525E+03  0.12509000000E+03 0.  0.
         25    1    4    4    0    0  0.23772215507E+02  0.54482511766E+02 -0.11384415997E+03  0.17928040377E+03  0.12509000000E+03 0.  0.
         25    1    4    4    0    0 -0.29667754506E+02  0.59953789293E+02 -0.20944458741E+03  0.25296081871E+03  0.12509000000E+03 0.  0.
<mgrwt>
<rscale>  2 0.45805154E+03</rscale>
<asrwt>0</asrwt>
<pdfrwt beam="1">  1       21 0.13613368E-01 0.45805154E+03</pdfrwt>
<pdfrwt beam="2">  1       21 0.83326913E-01 0.45805154E+03</pdfrwt>
<totfact> 0.53866572E+04</totfact>
</mgrwt>
</event>
<event>
 7    0  0.4714446E-002  0.4570580E+03  0.7546771E-02  0.1025638E+00
         21   -1    0    0  502  501  0.00000000000E+00  0.00000000000E+00  0.11726448580E+03  0.11726448580E+03  0.00000000000E+00 0.  1.
         21   -1    0    0  501  502 -0.00000000000E+00 -0.00000000000E+00 -0.44536507821E+03  0.44536507821E+03  0.00000000000E+00 0.  1.
      99926    2    1    2    0    0  0.00000000000E+00  0.00000000000E+00 -0.32810059241E+03  0.56262956401E+03  0.45705801334E+03 0.  0.
      99925    2    3    3    0    0 -0.76038059800E+01  0.11455063504E+03 -0.21582981984E+03  0.35908128884E+03  0.26301557941E+03 0.  0.
         25    1    4    4    0    0  0.19634120180E+01  0.93084058583E+02 -0.14738943275E+03  0.21456852038E+03  0.12509000000E+03 0.  0.
         25    1    4    4    0    0 -0.95672179980E+01  0.21466576452E+02 -0.68440387089E+02  0.14451276847E+03  0.12509000000E+03 0.  0.
         25    1    3    3    0    0  0.76038059800E+01 -0.11455063504E+03 -0.11227077256E+03  0.20354827517E+03  0.12509000000E+03 0.  0.
<mgrwt>
<rscale>  2 0.45705801E+03</rscale>
<asrwt>0</asrwt>
<pdfrwt beam="1">  1       21 0.17244777E-01 0.45705801E+03</pdfrwt>
<pdfrwt beam="2">  1       21 0.65494866E-01 0.45705801E+03</pdfrwt>
<totfact> 0.60056019E+04</totfact>
</mgrwt>
</event>
<event>
 7    0  0.4714446E-002  0.4411820E+03  0.7546771E-02  0.1030385E+00
         21   -1    0    0  502  501  0.00000000000E+00  0.00000000000E+00  0.47938583101E+02  0.47938583101E+02  0.00000000000E+00 0.  1.
         21   -1    0    0  501  502 -0.00000000000E+00 -0.00000000000E+00 -0.10150570236E+04  0.10150570236E+04  0.00000000000E+00 0.  1.
      99926    2    1    2    0    0  0.14210854715E-13 -0.71054273576E-14 -0.96711844048E+03  0.10629956067E+04  0.44118202809E+03 0.  0.
      99925    2    3    3    0    0 -0.81199766518E+02  0.36470712300E+02 -0.50884223301E+03  0.57968607297E+03  0.26304374193E+03 0.  0.
         25    1    3    3    0    0  0.81199766518E+02 -0.36470712300E+02 -0.45827620747E+03  0.48330953371E+03  0.12509000000E+03 0.  0.
         25    1    4    4    0    0 -0.67631233395E+02  0.42577548107E+02 -0.31906847893E+03  0.35190770620E+03  0.12509000000E+03 0.  0.
         25    1    4    4    0    0 -0.13568533122E+02 -0.61068358062E+01 -0.18977375408E+03  0.22777836678E+03  0.12509000000E+03 0.  0.
<mgrwt>
<rscale>  2 0.44118203E+03</rscale>
<asrwt>0</asrwt>
<pdfrwt beam="1">  1       21 0.70497922E-02 0.44118203E+03</pdfrwt>
<pdfrwt beam="2">  1       21 0.14927308E+00 0.44118203E+03</pdfrwt>
<totfact> 0.41055987E+04</totfact>
</mgrwt>
</event>
<event>
 7    0  0.4714446E-002  0.4542052E+03  0.7546771E-02  0.1026475E+00
         21   -1    0    0  502  501  0.00000000000E+00  0.00000000000E+00  0.40293651264E+02  0.40293651264E+02  0.00000000000E+00 0. -1.
         21   -1    0    0  501  502 -0.00000000000E+00 -0.00000000000E+00 -0.12799928889E+04  0.12799928889E+04  0.00000000000E+00 0. -1.
      99926    2    1    2    0    0  0.71054273576E-14  0.00000000000E+00 -0.12396992377E+04  0.13202865402E+04  0.45420518309E+03 0.  0.
      99925    2    3    3    0    0 -0.52555748522E+02 -0.93380439549E+02 -0.68202758339E+03  0.73879948507E+03  0.26302289148E+03 0.  0.
         25    1    3    3    0    0  0.52555748522E+02  0.93380439549E+02 -0.55767165428E+03  0.58148705513E+03  0.12509000000E+03 0.  0.
         25    1    4    4    0    0 -0.64933702804E+02 -0.64690873362E+02 -0.37092733421E+03  0.40203966249E+03  0.12509000000E+03 0.  0.
         25    1    4    4    0    0  0.12377954281E+02 -0.28689566187E+02 -0.31110024919E+03  0.33675982258E+03  0.12509000000E+03 0.  0.
<mgrwt>
<rscale>  2 0.45420518E+03</rscale>
<asrwt>0</asrwt>
<pdfrwt beam="1">  1       21 0.59255365E-02 0.45420518E+03</pdfrwt>
<pdfrwt beam="2">  1       21 0.18823426E+00 0.45420518E+03</pdfrwt>
<totfact> 0.28708209E+04</totfact>
</mgrwt>
</event>
<event>
 7    0  0.4714446E-002  0.4524932E+03  0.7546771E-02  0.1026981E+00
         21   -1    0    0  502  501  0.00000000000E+00  0.00000000000E+00  0.10560057675E+03  0.10560057675E+03  0.00000000000E+00 0.  1.
         21   -1    0    0  501  502 -0.00000000000E+00 -0.00000000000E+00 -0.48472771734E+03  0.48472771734E+03  0.00000000000E+00 0.  1.
      99926    2    1    2    0    0 -0.14210854715E-13  0.00000000000E+00 -0.37912714059E+03  0.59032829408E+03  0.45249321107E+03 0.  0.
      99925    2    3    3    0    0  0.75791894005E+02  0.76901453545E+02 -0.27079044027E+03  0.39273630667E+03  0.26316553589E+03 0.  0.
         25    1    4    4    0    0  0.72838555298E+02  0.21038006574E+02 -0.15743191072E+03  0.21489617836E+03  0.12509000000E+03 0.  0.
         25    1    4    4    0    0  0.29533387070E+01  0.55863446970E+02 -0.11335852955E+03  0.17784012831E+03  0.12509000000E+03 0.  0.
         25    1    3    3    0    0 -0.75791894005E+02 -0.76901453545E+02 -0.10833670032E+03  0.19759198742E+03  0.12509000000E+03 0.  0.
<mgrwt>
<rscale>  2 0.45249321E+03</rscale>
<asrwt>0</asrwt>
<pdfrwt beam="1">  1       21 0.15529497E-01 0.45249321E+03</pdfrwt>
<pdfrwt beam="2">  1       21 0.71283487E-01 0.45249321E+03</pdfrwt>
<totfact> 0.60466663E+04</totfact>
</mgrwt>
</event>
<event>
 7    0  0.4714446E-002  0.4576089E+03  0.7546771E-02  0.1025477E+00
         21   -1    0    0  502  501  0.00000000000E+00  0.00000000000E+00  0.45096742669E+02  0.45096742669E+02  0.00000000000E+00 0.  1.
         21   -1    0    0  501  502 -0.00000000000E+00 -0.00000000000E+00 -0.11608705242E+04  0.11608705242E+04  0.00000000000E+00 0.  1.
      99926    2    1    2    0    0  0.00000000000E+00 -0.35527136788E-14 -0.11157737815E+04  0.12059672669E+04  0.45760891295E+03 0.  0.
      99925    2    3    3    0    0  0.10814924067E+03 -0.14057667418E+02 -0.60164682604E+03  0.66571925832E+03  0.26326669245E+03 0.  0.
         25    1    4    4    0    0  0.73497471991E+02 -0.35604748365E+02 -0.37480020415E+03  0.40347525033E+03  0.12509000000E+03 0.  0.
         25    1    3    3    0    0 -0.10814924067E+03  0.14057667418E+02 -0.51412695550E+03  0.54024800855E+03  0.12509000000E+03 0.  0.
         25    1    4    4    0    0  0.34651768676E+02  0.21547080948E+02 -0.22684662188E+03  0.26224400799E+03  0.12509000000E+03 0.  0.
<mgrwt>
<rscale>  2 0.45760891E+03</rscale>
<asrwt>0</asrwt>
<pdfrwt beam="1">  1       21 0.66318740E-02 0.45760891E+03</pdfrwt>
<pdfrwt beam="2">  1       21 0.17071625E+00 0.45760891E+03</pdfrwt>
<totfact> 0.31325923E+04</totfact>
</mgrwt>
</event>
<event>
 7    0  0.4714446E-002  0.4522690E+03  0.7546771E-02  0.1027048E+00
         21   -1    0    0  502  501  0.00000000000E+00  0.00000000000E+00  0.68898976839E+03  0.68898976839E+03  0.00000000000E+00 0.  1.
         21   -1    0    0  501  502 -0.00000000000E+00 -0.00000000000E+00 -0.74219976218E+02  0.74219976218E+02  0.00000000000E+00 0.  1.
      99926    2    1    2    0    0  0.35527136788E-14  0.00000000000E+00  0.61476979217E+03  0.76320974461E+03  0.45226896522E+03 0.  0.
      99925    2    3    3    0    0 -0.18730430871E+02 -0.26597895029E+02  0.20938658486E+03  0.33772022661E+03  0.26297135296E+03 0.  0.
         25    1    3    3    0    0  0.18730430871E+02  0.26597895029E+02  0.40538320731E+03  0.42548951800E+03  0.12509000000E+03 0.  0.
         25    1    4    4    0    0  0.22835179345E+02 -0.37701490623E+02  0.10857997086E+03  0.17140585166E+03  0.12509000000E+03 0.  0.
         25    1    4    4    0    0 -0.41565610216E+02  0.11103595594E+02  0.10080661400E+03  0.16631437495E+03  0.12509000000E+03 0.  0.
<mgrwt>
<rscale>  2 0.45226897E+03</rscale>
<asrwt>0</asrwt>
<pdfrwt beam="1">  1       21 0.10132202E+00 0.45226897E+03</pdfrwt>
<pdfrwt beam="2">  1       21 0.10914703E-01 0.45226897E+03</pdfrwt>
<totfact> 0.50673305E+04</totfact>
</mgrwt>
</event>
<event>
 7    0  0.4714446E-002  0.4535051E+03  0.7546771E-02  0.1026682E+00
         21   -1    0    0  502  501  0.00000000000E+00  0.00000000000E+00  0.13437666180E+03  0.13437666180E+03  0.00000000000E+00 0.  1.
         21   -1    0    0  501  502 -0.00000000000E+00 -0.00000000000E+00 -0.38263136875E+03  0.38263136875E+03  0.00000000000E+00 0.  1.
      99926    2    1    2    0    0  0.71054273576E-14  0.35527136788E-14 -0.24825470695E+03  0.51700803055E+03  0.45350513132E+03 0.  0.
      99925    2    3    3    0    0 -0.39480083825E+02 -0.26123405374E+02 -0.41080121677E+02  0.27041134320E+03  0.26304678065E+03 0.  0.
         25    1    4    4    0    0 -0.15533327130E+02  0.26711960004E+02 -0.28407099426E+02  0.13194424753E+03  0.12509000000E+03 0.  0.
         25    1    4    4    0    0 -0.23946756696E+02 -0.52835365378E+02 -0.12673022251E+02  0.13846709567E+03  0.12509000000E+03 0.  0.
         25    1    3    3    0    0  0.39480083825E+02  0.26123405374E+02 -0.20717458528E+03  0.24659668735E+03  0.12509000000E+03 0.  0.
<mgrwt>
<rscale>  2 0.45350513E+03</rscale>
<asrwt>0</asrwt>
<pdfrwt beam="1">  1       21 0.19761274E-01 0.45350513E+03</pdfrwt>
<pdfrwt beam="2">  1       21 0.56269318E-01 0.45350513E+03</pdfrwt>
<totfact> 0.64857430E+04</totfact>
</mgrwt>
</event>
<event>
 7    0  0.4714446E-002  0.4425143E+03  0.7546771E-02  0.1029978E+00
         21   -1    0    0  502  501  0.00000000000E+00  0.00000000000E+00  0.13323600912E+03  0.13323600912E+03  0.00000000000E+00 0. -1.
         21   -1    0    0  501  502 -0.00000000000E+00 -0.00000000000E+00 -0.36742867636E+03  0.36742867636E+03  0.00000000000E+00 0. -1.
      99926    2    1    2    0    0  0.00000000000E+00  0.00000000000E+00 -0.23419266724E+03  0.50066468549E+03  0.44251431830E+03 0.  0.
      99925    2    3    3    0    0 -0.37373159623E+02  0.75173970470E+02 -0.84330439058E+02  0.28816980453E+03  0.26245444251E+03 0.  0.
         25    1    4    4    0    0 -0.11204724553E+02  0.14782822678E+02 -0.60727767961E+01  0.12660357190E+03  0.12509000000E+03 0.  0.
         25    1    4    4    0    0 -0.26168435070E+02  0.60391147792E+02 -0.78257662262E+02  0.16156623264E+03  0.12509000000E+03 0.  0.
         25    1    3    3    0    0  0.37373159623E+02 -0.75173970470E+02 -0.14986222818E+03  0.21249488096E+03  0.12509000000E+03 0.  0.
<mgrwt>
<rscale>  2 0.44251432E+03</rscale>
<asrwt>0</asrwt>
<pdfrwt beam="1">  1       21 0.19593531E-01 0.44251432E+03</pdfrwt>
<pdfrwt beam="2">  1       21 0.54033629E-01 0.44251432E+03</pdfrwt>
<totfact> 0.72109045E+04</totfact>
</mgrwt>
</event>
<event>
 7    0  0.4714446E-002  0.4296900E+03  0.7546771E-02  0.1033958E+00
         21   -1    0    0  502  501  0.00000000000E+00  0.00000000000E+00  0.46157906591E+02  0.46157906591E+02  0.00000000000E+00 0. -1.
         21   -1    0    0  501  502 -0.00000000000E+00 -0.00000000000E+00 -0.10000103129E+04  0.10000103129E+04  0.00000000000E+00 0. -1.
      99926    2    1    2    0    0  0.00000000000E+00 -0.71054273576E-14 -0.95385240630E+03  0.10461682195E+04  0.42969003997E+03 0.  0.
      99925    2    3    3    0    0  0.69997076547E+02  0.44378778639E+02 -0.68226329115E+03  0.73588250875E+03  0.26300342490E+03 0.  0.
         25    1    4    4    0    0  0.76398381830E+02  0.22985857003E+02 -0.34979667960E+03  0.37996090263E+03  0.12509000000E+03 0.  0.
         25    1    4    4    0    0 -0.64013052833E+01  0.21392921636E+02 -0.33246661155E+03  0.35592160612E+03  0.12509000000E+03 0.  0.
         25    1    3    3    0    0 -0.69997076547E+02 -0.44378778639E+02 -0.27158911515E+03  0.31028571074E+03  0.12509000000E+03 0.  0.
<mgrwt>
<rscale>  2 0.42969004E+03</rscale>
<asrwt>0</asrwt>
<pdfrwt beam="1">  1       21 0.67879278E-02 0.42969004E+03</pdfrwt>
<pdfrwt beam="2">  1       21 0.14706033E+00 0.42969004E+03</pdfrwt>
<totfact> 0.45823539E+04</totfact>
</mgrwt>
</event>
<event>
 7    0  0.4714446E-002  0.4547476E+03  0.7546771E-02  0.1026316E+00
         21   -1    0    0  502  501  0.00000000000E+00  0.00000000000E+00  0.20777243166E+03  0.20777243166E+03  0.00000000000E+00 0. -1.
         21   -1    0    0  501  502 -0.00000000000E+00 -0.00000000000E+00 -0.24882436792E+03  0.24882436792E+03  0.00000000000E+00 0. -1.
      99926    2    1    2    0    0  0.14210854715E-13  0.35527136788E-14 -0.41051936261E+02  0.45659679958E+03  0.45474759583E+03 0.  0.
      99925    2    3    3    0    0 -0.10825215881E+03 -0.27971654793E+02 -0.41445306585E+02  0.28882133594E+03  0.26305723198E+03 0.  0.
         25    1    4    4    0    0 -0.54560080186E+02 -0.40390737933E+02 -0.52468394737E+02  0.15168603959E+03  0.12509000000E+03 0.  0.
         25    1    3    3    0    0  0.10825215881E+03  0.27971654793E+02  0.39337032368E+00  0.16777546364E+03  0.12509000000E+03 0.  0.
         25    1    4    4    0    0 -0.53692078621E+02  0.12419083140E+02  0.11023088152E+02  0.13713529635E+03  0.12509000000E+03 0.  0.
<mgrwt>
<rscale>  2 0.45474760E+03</rscale>
<asrwt>0</asrwt>
<pdfrwt beam="1">  1       21 0.30554769E-01 0.45474760E+03</pdfrwt>
<pdfrwt beam="2">  1       21 0.36591819E-01 0.45474760E+03</pdfrwt>
<totfact> 0.68566967E+04</totfact>
</mgrwt>
</event>
<event>
 7    0  0.4714446E-002  0.4489538E+03  0.7546771E-02  0.1028034E+00
         21   -1    0    0  502  501  0.00000000000E+00  0.00000000000E+00  0.69605246337E+03  0.69605246337E+03  0.00000000000E+00 0.  1.
         21   -1    0    0  501  502 -0.00000000000E+00 -0.00000000000E+00 -0.72393780699E+02  0.72393780699E+02  0.00000000000E+00 0.  1.
      99926    2    1    2    0    0 -0.14210854715E-13  0.00000000000E+00  0.62365868268E+03  0.76844624407E+03  0.44895375881E+03 0.  0.
      99925    2    3    3    0    0  0.65747832578E+02  0.64179199781E+02  0.49021798931E+03  0.56376191659E+03  0.26281566615E+03 0.  0.
         25    1    4    4    0    0  0.18601215885E+02  0.66701867561E+02  0.28459453032E+03  0.31849128584E+03  0.12509000000E+03 0.  0.
         25    1    4    4    0    0  0.47146616694E+02 -0.25226677804E+01  0.20562345899E+03  0.24527063074E+03  0.12509000000E+03 0.  0.
         25    1    3    3    0    0 -0.65747832578E+02 -0.64179199781E+02  0.13344069336E+03  0.20468432749E+03  0.12509000000E+03 0.  0.
<mgrwt>
<rscale>  2 0.44895376E+03</rscale>
<asrwt>0</asrwt>
<pdfrwt beam="1">  1       21 0.10236065E+00 0.44895376E+03</pdfrwt>
<pdfrwt beam="2">  1       21 0.10646145E-01 0.44895376E+03</pdfrwt>
<totfact> 0.51741359E+04</totfact>
</mgrwt>
</event>
<event>
 7    0  0.4714446E-002  0.4531370E+03  0.7546771E-02  0.1026791E+00
         21   -1    0    0  502  501  0.00000000000E+00  0.00000000000E+00  0.61739166312E+02  0.61739166312E+02  0.00000000000E+00 0.  1.
         21   -1    0    0  501  502 -0.00000000000E+00 -0.00000000000E+00 -0.83145403380E+03  0.83145403380E+03  0.00000000000E+00 0.  1.
      99926    2    1    2    0    0  0.00000000000E+00  0.00000000000E+00 -0.76971486749E+03  0.89319320011E+03  0.45313697211E+03 0.  0.
      99925    2    3    3    0    0 -0.53459477814E+02  0.87275790832E+02 -0.39536520543E+03  0.48544308421E+03  0.26242401359E+03 0.  0.
         25    1    3    3    0    0  0.53459477814E+02 -0.87275790832E+02 -0.37434966207E+03  0.40775011591E+03  0.12509000000E+03 0.  0.
         25    1    4    4    0    0  0.11920496250E+02  0.32103004052E+02 -0.16888701196E+03  0.21293903355E+03  0.12509000000E+03 0.  0.
         25    1    4    4    0    0 -0.65379974064E+02  0.55172786781E+02 -0.22647819346E+03  0.27250405066E+03  0.12509000000E+03 0.  0.
<mgrwt>
<rscale>  2 0.45313697E+03</rscale>
<asrwt>0</asrwt>
<pdfrwt beam="1">  1       21 0.90792884E-02 0.45313697E+03</pdfrwt>
<pdfrwt beam="2">  1       21 0.12227266E+00 0.45313697E+03</pdfrwt>
<totfact> 0.44170127E+04</totfact>
</mgrwt>
</event>
<event>
 7    0  0.4714446E-002  0.4332522E+03  0.7546771E-02  0.1032838E+00
         21   -1    0    0  502  501  0.00000000000E+00  0.00000000000E+00  0.26526737806E+04  0.26526737806E+04  0.00000000000E+00 0. -1.
         21   -1    0    0  501  502 -0.00000000000E+00 -0.00000000000E+00 -0.17690405340E+02  0.17690405340E+02  0.00000000000E+00 0. -1.
      99926    2    1    2    0    0  0.00000000000E+00  0.00000000000E+00  0.26349833753E+04  0.26703641860E+04  0.43325223330E+03 0.  0.
      99925    2    3    3    0    0  0.59930437267E+02  0.68388713661E+02  0.16565224954E+04  0.16797573643E+04  0.26315271584E+03 0.  0.
         25    1    3    3    0    0 -0.59930437267E+02 -0.68388713661E+02  0.97846087992E+03  0.99060682165E+03  0.12509000000E+03 0.  0.
         25    1    4    4    0    0  0.28144581244E+02  0.35422545887E+02  0.58191357400E+03  0.59692360476E+03  0.12509000000E+03 0.  0.
         25    1    4    4    0    0  0.31785856024E+02  0.32966167775E+02  0.10746089214E+04  0.10828337596E+04  0.12509000000E+03 0.  0.
<mgrwt>
<rscale>  2 0.43325223E+03</rscale>
<asrwt>0</asrwt>
<pdfrwt beam="1">  1       21 0.39009881E+00 0.43325223E+03</pdfrwt>
<pdfrwt beam="2">  1       21 0.26015320E-02 0.43325223E+03</pdfrwt>
<totfact> 0.65864341E+03</totfact>
</mgrwt>
</event>
<event>
 7    0  0.4714446E-002  0.4441660E+03  0.7546771E-02  0.1029476E+00
         21   -1    0    0  502  501  0.00000000000E+00  0.00000000000E+00  0.22903852488E+03  0.22903852488E+03  0.00000000000E+00 0.  1.
         21   -1    0    0  501  502 -0.00000000000E+00 -0.00000000000E+00 -0.21533874789E+03  0.21533874789E+03  0.00000000000E+00 0.  1.
      99926    2    1    2    0    0 -0.14210854715E-13 -0.17763568394E-14  0.13699776994E+02  0.44437727277E+03  0.44416604628E+03 0.  0.
      99925    2    3    3    0    0  0.75609536201E+02 -0.87003018034E+01  0.77674318593E+02  0.28458757570E+03  0.26299104787E+03 0.  0.
         25    1    4    4    0    0  0.71803482949E+01  0.23813105840E+02  0.36278533054E+02  0.13259812017E+03  0.12509000000E+03 0.  0.
         25    1    3    3    0    0 -0.75609536201E+02  0.87003018034E+01 -0.63974541600E+02  0.15978969707E+03  0.12509000000E+03 0.  0.
         25    1    4    4    0    0  0.68429187906E+02 -0.32513407643E+02  0.41395785539E+02  0.15198945554E+03  0.12509000000E+03 0.  0.
<mgrwt>
<rscale>  2 0.44416605E+03</rscale>
<asrwt>0</asrwt>
<pdfrwt beam="1">  1       21 0.33682136E-01 0.44416605E+03</pdfrwt>
<pdfrwt beam="2">  1       21 0.31667463E-01 0.44416605E+03</pdfrwt>
<totfact> 0.75663208E+04</totfact>
</mgrwt>
</event>
<event>
 7    0  0.4714446E-002  0.4588684E+03  0.7546771E-02  0.1025110E+00
         21   -1    0    0  502  501  0.00000000000E+00  0.00000000000E+00  0.55642831920E+03  0.55642831920E+03  0.00000000000E+00 0. -1.
         21   -1    0    0  501  502 -0.00000000000E+00 -0.00000000000E+00 -0.94603461085E+02  0.94603461085E+02  0.00000000000E+00 0. -1.
      99926    2    1    2    0    0  0.00000000000E+00  0.00000000000E+00  0.46182485812E+03  0.65103178029E+03  0.45886836824E+03 0.  0.
      99925    2    3    3    0    0 -0.99162591280E+02 -0.46438921792E+02  0.23048576250E+03  0.36615447648E+03  0.26259402309E+03 0.  0.
         25    1    3    3    0    0  0.99162591280E+02  0.46438921792E+02  0.23133909561E+03  0.28487730381E+03  0.12509000000E+03 0.  0.
         25    1    4    4    0    0 -0.37233255334E+02  0.11686575883E+02  0.84100022633E+02  0.15570232261E+03  0.12509000000E+03 0.  0.
         25    1    4    4    0    0 -0.61929335945E+02 -0.58125497676E+02  0.14638573987E+03  0.21045215387E+03  0.12509000000E+03 0.  0.
<mgrwt>
<rscale>  2 0.45886837E+03</rscale>
<asrwt>0</asrwt>
<pdfrwt beam="1">  1       21 0.81827693E-01 0.45886837E+03</pdfrwt>
<pdfrwt beam="2">  1       21 0.13912274E-01 0.45886837E+03</pdfrwt>
<totfact> 0.53975929E+04</totfact>
</mgrwt>
</event>
<event>
 7    0  0.4714446E-002  0.4557385E+03  0.7546771E-02  0.1026024E+00
         21   -1    0    0  502  501  0.00000000000E+00  0.00000000000E+00  0.65787188686E+03  0.65787188686E+03  0.00000000000E+00 0. -1.
         21   -1    0    0  501  502 -0.00000000000E+00 -0.00000000000E+00 -0.78927810273E+02  0.78927810273E+02  0.00000000000E+00 0. -1.
      99926    2    1    2    0    0 -0.14210854715E-13  0.14210854715E-13  0.57894407658E+03  0.73679969713E+03  0.45573846654E+03 0.  0.
      99925    2    3    3    0    0  0.85153474317E+02 -0.75527919249E+02  0.37461671808E+03  0.47155875326E+03  0.26282007445E+03 0.  0.
         25    1    4    4    0    0  0.27769263147E+02  0.24795370989E+01  0.17224921769E+03  0.21469648617E+03  0.12509000000E+03 0.  0.
         25    1    3    3    0    0 -0.85153474317E+02  0.75527919249E+02  0.20432735850E+03  0.26524094387E+03  0.12509000000E+03 0.  0.
         25    1    4    4    0    0  0.57384211170E+02 -0.78007456348E+02  0.20236750039E+03  0.25686226709E+03  0.12509000000E+03 0.  0.
<mgrwt>
<rscale>  2 0.45573847E+03</rscale>
<asrwt>0</asrwt>
<pdfrwt beam="1">  1       21 0.96745863E-01 0.45573847E+03</pdfrwt>
<pdfrwt beam="2">  1       21 0.11607031E-01 0.45573847E+03</pdfrwt>
<totfact> 0.50655368E+04</totfact>
</mgrwt>
</event>
<event>
 7    0  0.4714446E-002  0.4597037E+03  0.7546771E-02  0.1024867E+00
         21   -1    0    0  502  501  0.00000000000E+00  0.00000000000E+00  0.11952806181E+03  0.11952806181E+03  0.00000000000E+00 0.  1.
         21   -1    0    0  501  502 -0.00000000000E+00 -0.00000000000E+00 -0.44200395977E+03  0.44200395977E+03  0.00000000000E+00 0.  1.
      99926    2    1    2    0    0  0.00000000000E+00  0.00000000000E+00 -0.32247589796E+03  0.56153202157E+03  0.45970371598E+03 0.  0.
      99925    2    3    3    0    0  0.43557432254E+02 -0.54689039061E+02 -0.31751882785E+03  0.41814366242E+03  0.26294063109E+03 0.  0.
         25    1    4    4    0    0  0.32479429560E+02 -0.12725872128E+02 -0.10169970712E+03  0.16494605086E+03  0.12509000000E+03 0.  0.
         25    1    3    3    0    0 -0.43557432254E+02  0.54689039061E+02 -0.49570701083E+01  0.14338835916E+03  0.12509000000E+03 0.  0.
         25    1    4    4    0    0  0.11078002694E+02 -0.41963166933E+02 -0.21581912074E+03  0.25319761156E+03  0.12509000000E+03 0.  0.
<mgrwt>
<rscale>  2 0.45970372E+03</rscale>
<asrwt>0</asrwt>
<pdfrwt beam="1">  1       21 0.17577656E-01 0.45970372E+03</pdfrwt>
<pdfrwt beam="2">  1       21 0.65000584E-01 0.45970372E+03</pdfrwt>
<totfact> 0.58889106E+04</totfact>
</mgrwt>
</event>
<event>
 7    0  0.4714446E-002  0.4540422E+03  0.7546771E-02  0.1026523E+00
         21   -1    0    0  502  501  0.00000000000E+00  0.00000000000E+00  0.33873602394E+03  0.33873602394E+03  0.00000000000E+00 0.  1.
         21   -1    0    0  501  502 -0.00000000000E+00 -0.00000000000E+00 -0.15214970492E+03  0.15214970492E+03  0.00000000000E+00 0.  1.
      99926    2    1    2    0    0  0.00000000000E+00  0.35527136788E-14  0.18658631902E+03  0.49088572886E+03  0.45404222750E+03 0.  0.
      99925    2    3    3    0    0  0.16606809913E+02 -0.31994741345E+02  0.23243861907E+03  0.35286619717E+03  0.26303496319E+03 0.  0.
         25    1    4    4    0    0  0.15339584328E+02 -0.14272131907E+02  0.16953503920E+03  0.21172773605E+03  0.12509000000E+03 0.  0.
         25    1    4    4    0    0  0.12672255850E+01 -0.17722609438E+02  0.62903579874E+02  0.14113846112E+03  0.12509000000E+03 0.  0.
         25    1    3    3    0    0 -0.16606809913E+02  0.31994741345E+02 -0.45852300055E+02  0.13801953170E+03  0.12509000000E+03 0.  0.
<mgrwt>
<rscale>  2 0.45404223E+03</rscale>
<asrwt>0</asrwt>
<pdfrwt beam="1">  1       21 0.49814121E-01 0.45404223E+03</pdfrwt>
<pdfrwt beam="2">  1       21 0.22374957E-01 0.45404223E+03</pdfrwt>
<totfact> 0.66419408E+04</totfact>
</mgrwt>
</event>
<event>
 7    0  0.4714446E-002  0.4554838E+03  0.7546771E-02  0.1026099E+00
         21   -1    0    0  502  501  0.00000000000E+00  0.00000000000E+00  0.57721304576E+03  0.57721304576E+03  0.00000000000E+00 0. -1.
         21   -1    0    0  501  502 -0.00000000000E+00 -0.00000000000E+00 -0.89856551659E+02  0.89856551659E+02  0.00000000000E+00 0. -1.
      99926    2    1    2    0    0 -0.17763568394E-14  0.00000000000E+00  0.48735649410E+03  0.66706959741E+03  0.45548380373E+03 0.  0.
      99925    2    3    3    0    0 -0.80363365285E+01  0.77578677438E+02  0.18609109673E+03  0.33167224852E+03  0.26323668106E+03 0.  0.
         25    1    4    4    0    0 -0.21429307698E+02  0.77573464480E+02  0.10110829686E+03  0.17985342202E+03  0.12509000000E+03 0.  0.
         25    1    4    4    0    0  0.13392971170E+02  0.52129579332E-02  0.84982799873E+02  0.15181882649E+03  0.12509000000E+03 0.  0.
         25    1    3    3    0    0  0.80363365285E+01 -0.77578677438E+02  0.30126539736E+03  0.33539734890E+03  0.12509000000E+03 0.  0.
<mgrwt>
<rscale>  2 0.45548380E+03</rscale>
<asrwt>0</asrwt>
<pdfrwt beam="1">  1       21 0.84884269E-01 0.45548380E+03</pdfrwt>
<pdfrwt beam="2">  1       21 0.13214199E-01 0.45548380E+03</pdfrwt>
<totfact> 0.54519259E+04</totfact>
</mgrwt>
</event>
<event>
 7    0  0.4714446E-002  0.4228461E+03  0.7546771E-02  0.1036144E+00
         21   -1    0    0  502  501  0.00000000000E+00  0.00000000000E+00  0.52049798941E+02  0.52049798941E+02  0.00000000000E+00 0.  1.
         21   -1    0    0  501  502 -0.00000000000E+00 -0.00000000000E+00 -0.85878710738E+03  0.85878710738E+03  0.00000000000E+00 0.  1.
      99926    2    1    2    0    0  0.00000000000E+00  0.00000000000E+00 -0.80673730844E+03  0.91083690632E+03  0.42284605365E+03 0.  0.
      99925    2    3    3    0    0 -0.38566967373E+02  0.52078067951E+02 -0.42897786081E+03  0.50766294324E+03  0.26362875932E+03 0.  0.
         25    1    4    4    0    0  0.69430660835E+01  0.52223642679E+02 -0.25180903151E+03  0.28606085274E+03  0.12509000000E+03 0.  0.
         25    1    3    3    0    0  0.38566967373E+02 -0.52078067951E+02 -0.37775944764E+03  0.40317396309E+03  0.12509000000E+03 0.  0.
         25    1    4    4    0    0 -0.45510033456E+02 -0.14557472793E+00 -0.17716882929E+03  0.22160209049E+03  0.12509000000E+03 0.  0.
<mgrwt>
<rscale>  2 0.42284605E+03</rscale>
<asrwt>0</asrwt>
<pdfrwt beam="1">  1       21 0.76543825E-02 0.42284605E+03</pdfrwt>
<pdfrwt beam="2">  1       21 0.12629222E+00 0.42284605E+03</pdfrwt>
<totfact> 0.55459604E+04</totfact>
</mgrwt>
</event>
<event>
 7    0  0.4714446E-002  0.4581071E+03  0.7546771E-02  0.1025332E+00
         21   -1    0    0  502  501  0.00000000000E+00  0.00000000000E+00  0.41707376874E+03  0.41707376874E+03  0.00000000000E+00 0.  1.
         21   -1    0    0  501  502 -0.00000000000E+00 -0.00000000000E+00 -0.12579434194E+03  0.12579434194E+03  0.00000000000E+00 0.  1.
      99926    2    1    2    0    0  0.71054273576E-14 -0.44408920985E-15  0.29127942680E+03  0.54286811068E+03  0.45810706293E+03 0.  0.
      99925    2    3    3    0    0  0.50301833856E+02 -0.26884043138E+01  0.30658754782E+03  0.40715020959E+03  0.26313089268E+03 0.  0.
         25    1    4    4    0    0  0.14389060747E+02  0.82084677954E+01  0.20892802440E+03  0.24407550367E+03  0.12509000000E+03 0.  0.
         25    1    4    4    0    0  0.35912773109E+02 -0.10896872109E+02  0.97659523417E+02  0.16307470591E+03  0.12509000000E+03 0.  0.
         25    1    3    3    0    0 -0.50301833856E+02  0.26884043138E+01 -0.15308121018E+02  0.13571790109E+03  0.12509000000E+03 0.  0.
<mgrwt>
<rscale>  2 0.45810706E+03</rscale>
<asrwt>0</asrwt>
<pdfrwt beam="1">  1       21 0.61334377E-01 0.45810706E+03</pdfrwt>
<pdfrwt beam="2">  1       21 0.18499168E-01 0.45810706E+03</pdfrwt>
<totfact> 0.60830741E+04</totfact>
</mgrwt>
</event>
<event>
 7    0  0.4714446E-002  0.4735982E+03  0.7546771E-02  0.1020910E+00
         21   -1    0    0  502  501  0.00000000000E+00  0.00000000000E+00  0.96651276989E+02  0.96651276989E+02  0.00000000000E+00 0. -1.
         21   -1    0    0  501  502 -0.00000000000E+00 -0.00000000000E+00 -0.58016632476E+03  0.58016632476E+03  0.00000000000E+00 0. -1.
      99926    2    1    2    0    0 -0.71054273576E-14 -0.14210854715E-13 -0.48351504777E+03  0.67681760175E+03  0.47359821011E+03 0.  0.
      99925    2    3    3    0    0  0.57738198999E+02  0.96498790996E+02 -0.39225161579E+03  0.48544822487E+03  0.26296945195E+03 0.  0.
         25    1    3    3    0    0 -0.57738198999E+02 -0.96498790996E+02 -0.91263431984E+02  0.19136937687E+03  0.12509000000E+03 0.  0.
         25    1    4    4    0    0  0.56011115273E+02  0.79567086130E+02 -0.19531536271E+03  0.25152289208E+03  0.12509000000E+03 0.  0.
         25    1    4    4    0    0  0.17270837259E+01  0.16931704866E+02 -0.19693625308E+03  0.23392533280E+03  0.12509000000E+03 0.  0.
<mgrwt>
<rscale>  2 0.47359821E+03</rscale>
<asrwt>0</asrwt>
<pdfrwt beam="1">  1       21 0.14213424E-01 0.47359821E+03</pdfrwt>
<pdfrwt beam="2">  1       21 0.85318574E-01 0.47359821E+03</pdfrwt>
<totfact> 0.46914765E+04</totfact>
</mgrwt>
</event>
<event>
 7    0  0.4714446E-002  0.4443050E+03  0.7546771E-02  0.1029434E+00
         21   -1    0    0  502  501  0.00000000000E+00  0.00000000000E+00  0.12771106184E+03  0.12771106184E+03  0.00000000000E+00 0. -1.
         21   -1    0    0  501  502 -0.00000000000E+00 -0.00000000000E+00 -0.38643274780E+03  0.38643274780E+03  0.00000000000E+00 0. -1.
      99926    2    1    2    0    0  0.41633363423E-16 -0.14210854715E-13 -0.25872168596E+03  0.51414380964E+03  0.44430501483E+03 0.  0.
      99925    2    3    3    0    0 -0.81242409780E-01  0.10262986600E+03 -0.15774817836E+03  0.32341873700E+03  0.26302527573E+03 0.  0.
         25    1    4    4    0    0 -0.37337791849E+00  0.82012123147E+02 -0.52104083394E+02  0.15839340693E+03  0.12509000000E+03 0.  0.
         25    1    3    3    0    0  0.81242409780E-01 -0.10262986600E+03 -0.10097350760E+03  0.19072507264E+03  0.12509000000E+03 0.  0.
         25    1    4    4    0    0  0.29213550871E+00  0.20617742850E+02 -0.10564409496E+03  0.16502533007E+03  0.12509000000E+03 0.  0.
<mgrwt>
<rscale>  2 0.44430501E+03</rscale>
<asrwt>0</asrwt>
<pdfrwt beam="1">  1       21 0.18781038E-01 0.44430501E+03</pdfrwt>
<pdfrwt beam="2">  1       21 0.56828346E-01 0.44430501E+03</pdfrwt>
<totfact> 0.70045286E+04</totfact>
</mgrwt>
</event>
<event>
 7    0  0.4714446E-002  0.4628823E+03  0.7546771E-02  0.1023949E+00
         21   -1    0    0  502  501  0.00000000000E+00  0.00000000000E+00  0.99016514216E+03  0.99016514216E+03  0.00000000000E+00 0.  1.
         21   -1    0    0  501  502 -0.00000000000E+00 -0.00000000000E+00 -0.54097044393E+02  0.54097044393E+02  0.00000000000E+00 0.  1.
      99926    2    1    2    0    0  0.14210854715E-13  0.71054273576E-14  0.93606809777E+03  0.10442621866E+04  0.46288230751E+03 0.  0.
      99925    2    3    3    0    0  0.98543008341E+02  0.33847812756E+02  0.44875824394E+03  0.53047740607E+03  0.26299414048E+03 0.  0.
         25    1    3    3    0    0 -0.98543008341E+02 -0.33847812756E+02  0.48730985383E+03  0.51378478049E+03  0.12509000000E+03 0.  0.
         25    1    4    4    0    0  0.86937042823E+02  0.37595095977E+02  0.23708626153E+03  0.28430414025E+03  0.12509000000E+03 0.  0.
         25    1    4    4    0    0  0.11605965517E+02 -0.37472832210E+01  0.21167198241E+03  0.24617326582E+03  0.12509000000E+03 0.  0.
<mgrwt>
<rscale>  2 0.46288231E+03</rscale>
<asrwt>0</asrwt>
<pdfrwt beam="1">  1       21 0.14561251E+00 0.46288231E+03</pdfrwt>
<pdfrwt beam="2">  1       21 0.79554483E-02 0.46288231E+03</pdfrwt>
<totfact> 0.35268178E+04</totfact>
</mgrwt>
</event>
<event>
 7    0  0.4714446E-002  0.4445821E+03  0.7546771E-02  0.1029350E+00
         21   -1    0    0  502  501  0.00000000000E+00  0.00000000000E+00  0.27876136938E+03  0.27876136938E+03  0.00000000000E+00 0.  1.
         21   -1    0    0  501  502 -0.00000000000E+00 -0.00000000000E+00 -0.17726027820E+03  0.17726027820E+03  0.00000000000E+00 0.  1.
      99926    2    1    2    0    0  0.00000000000E+00  0.00000000000E+00  0.10150109118E+03  0.45602164758E+03  0.44458213139E+03 0.  0.
      99925    2    3    3    0    0  0.36496606356E+02 -0.23957488274E+02  0.16027997862E+03  0.31107879944E+03  0.26301023629E+03 0.  0.
         25    1    4    4    0    0  0.58192794723E+02 -0.21472476328E+02  0.83247895197E+02  0.16255826264E+03  0.12509000000E+03 0.  0.
         25    1    3    3    0    0 -0.36496606356E+02  0.23957488274E+02 -0.58778887439E+02  0.14494284815E+03  0.12509000000E+03 0.  0.
         25    1    4    4    0    0 -0.21696188367E+02 -0.24850119462E+01  0.77032083425E+02  0.14852053680E+03  0.12509000000E+03 0.  0.
<mgrwt>
<rscale>  2 0.44458213E+03</rscale>
<asrwt>0</asrwt>
<pdfrwt beam="1">  1       21 0.40994319E-01 0.44458213E+03</pdfrwt>
<pdfrwt beam="2">  1       21 0.26067688E-01 0.44458213E+03</pdfrwt>
<totfact> 0.74454720E+04</totfact>
</mgrwt>
</event>
<event>
 7    0  0.4714446E-002  0.4584757E+03  0.7546771E-02  0.1025224E+00
         21   -1    0    0  502  501  0.00000000000E+00  0.00000000000E+00  0.29392971968E+03  0.29392971968E+03  0.00000000000E+00 0. -1.
         21   -1    0    0  501  502 -0.00000000000E+00 -0.00000000000E+00 -0.17878418448E+03  0.17878418448E+03  0.00000000000E+00 0. -1.
      99926    2    1    2    0    0  0.00000000000E+00  0.00000000000E+00  0.11514553520E+03  0.47271390416E+03  0.45847567101E+03 0.  0.
      99925    2    3    3    0    0 -0.11421363877E+03 -0.18805208018E+02  0.86566643243E+02  0.29990576693E+03  0.26277612940E+03 0.  0.
         25    1    4    4    0    0 -0.51822916120E+02  0.27670259868E+02  0.25957118525E+02  0.14061485703E+03  0.12509000000E+03 0.  0.
         25    1    3    3    0    0  0.11421363877E+03  0.18805208018E+02  0.28578891957E+02  0.17280813724E+03  0.12509000000E+03 0.  0.
         25    1    4    4    0    0 -0.62390722649E+02 -0.46475467886E+02  0.60609524718E+02  0.15929090989E+03  0.12509000000E+03 0.  0.
<mgrwt>
<rscale>  2 0.45847567E+03</rscale>
<asrwt>0</asrwt>
<pdfrwt beam="1">  1       21 0.43224959E-01 0.45847567E+03</pdfrwt>
<pdfrwt beam="2">  1       21 0.26291792E-01 0.45847567E+03</pdfrwt>
<totfact> 0.65412124E+04</totfact>
</mgrwt>
</event>
<event>
 7    0  0.4714446E-002  0.4524059E+03  0.7546771E-02  0.1027007E+00
         21   -1    0    0  502  501  0.00000000000E+00  0.00000000000E+00  0.15951008031E+03  0.15951008031E+03  0.00000000000E+00 0. -1.
         21   -1    0    0  501  502 -0.00000000000E+00 -0.00000000000E+00 -0.32078081187E+03  0.32078081187E+03  0.00000000000E+00 0. -1.
      99926    2    1    2    0    0  0.00000000000E+00  0.14210854715E-13 -0.16127073157E+03  0.48029089218E+03  0.45240589326E+03 0.  0.
      99925    2    3    3    0    0 -0.46809511268E+02  0.99137063012E+02 -0.85218077638E+02  0.29739528841E+03  0.26298773585E+03 0.  0.
         25    1    4    4    0    0 -0.63039229544E+02  0.55732499224E+02 -0.34292132677E+02  0.15460761428E+03  0.12509000000E+03 0.  0.
         25    1    4    4    0    0  0.16229718276E+02  0.43404563788E+02 -0.50925944961E+02  0.14278767413E+03  0.12509000000E+03 0.  0.
         25    1    3    3    0    0  0.46809511268E+02 -0.99137063012E+02 -0.76052653927E+02  0.18289560377E+03  0.12509000000E+03 0.  0.
<mgrwt>
<rscale>  2 0.45240589E+03</rscale>
<asrwt>0</asrwt>
<pdfrwt beam="1">  1       21 0.23457365E-01 0.45240589E+03</pdfrwt>
<pdfrwt beam="2">  1       21 0.47173648E-01 0.45240589E+03</pdfrwt>
<totfact> 0.68069837E+04</totfact>
</mgrwt>
</event>
<event>
 7    0  0.4714446E-002  0.4664998E+03  0.7546771E-02  0.1022913E+00
         21   -1    0    0  502  501  0.00000000000E+00  0.00000000000E+00  0.47209467326E+03  0.47209467326E+03  0.00000000000E+00 0.  1.
         21   -1    0    0  501  502 -0.00000000000E+00 -0.00000000000E+00 -0.11524282897E+03  0.11524282897E+03  0.00000000000E+00 0.  1.
      99926    2    1    2    0    0  0.00000000000E+00  0.00000000000E+00  0.35685184430E+03  0.58733750223E+03  0.46649984217E+03 0.  0.
      99925    2    3    3    0    0  0.42141889397E+02 -0.55317274779E+02  0.35107222605E+03  0.44410045459E+03  0.26294023300E+03 0.  0.
         25    1    4    4    0    0 -0.14888709125E+01 -0.27348427082E+02  0.22608584877E+03  0.25983162300E+03  0.12509000000E+03 0.  0.
         25    1    3    3    0    0 -0.42141889397E+02  0.55317274779E+02  0.57796182478E+01  0.14323704764E+03  0.12509000000E+03 0.  0.
         25    1    4    4    0    0  0.43630760309E+02 -0.27968847697E+02  0.12498637728E+03  0.18426883158E+03  0.12509000000E+03 0.  0.
<mgrwt>
<rscale>  2 0.46649984E+03</rscale>
<asrwt>0</asrwt>
<pdfrwt beam="1">  1       21 0.69425687E-01 0.46649984E+03</pdfrwt>
<pdfrwt beam="2">  1       21 0.16947475E-01 0.46649984E+03</pdfrwt>
<totfact> 0.54352766E+04</totfact>
</mgrwt>
</event>
<event>
 7    0  0.4714446E-002  0.4535845E+03  0.7546771E-02  0.1026658E+00
         21   -1    0    0  502  501  0.00000000000E+00  0.00000000000E+00  0.27500355293E+03  0.27500355293E+03  0.00000000000E+00 0. -1.
         21   -1    0    0  501  502 -0.00000000000E+00 -0.00000000000E+00 -0.18703296028E+03  0.18703296028E+03  0.00000000000E+00 0. -1.
      99926    2    1    2    0    0  0.17763568394E-14  0.00000000000E+00  0.87970592655E+02  0.46203651321E+03  0.45358451734E+03 0.  0.
      99925    2    3    3    0    0 -0.12297580738E+02  0.11103674229E+03  0.58987257416E+02  0.29183683504E+03  0.26307575547E+03 0.  0.
         25    1    4    4    0    0 -0.45940821398E+02  0.53039518379E+02  0.21370851281E+02  0.14501024435E+03  0.12509000000E+03 0.  0.
         25    1    3    3    0    0  0.12297580738E+02 -0.11103674229E+03  0.28983335239E+02  0.17019967818E+03  0.12509000000E+03 0.  0.
         25    1    4    4    0    0  0.33643240660E+02  0.57997223911E+02  0.37616406135E+02  0.14682659069E+03  0.12509000000E+03 0.  0.
<mgrwt>
<rscale>  2 0.45358452E+03</rscale>
<asrwt>0</asrwt>
<pdfrwt beam="1">  1       21 0.40441699E-01 0.45358452E+03</pdfrwt>
<pdfrwt beam="2">  1       21 0.27504847E-01 0.45358452E+03</pdfrwt>
<totfact> 0.68801653E+04</totfact>
</mgrwt>
</event>
<event>
 7    0  0.4714446E-002  0.4427554E+03  0.7546771E-02  0.1029905E+00
         21   -1    0    0  502  501  0.00000000000E+00  0.00000000000E+00  0.28874842579E+03  0.28874842579E+03  0.00000000000E+00 0. -1.
         21   -1    0    0  501  502 -0.00000000000E+00 -0.00000000000E+00 -0.16972591341E+03  0.16972591341E+03  0.00000000000E+00 0. -1.
      99926    2    1    2    0    0  0.17763568394E-14  0.00000000000E+00  0.11902251238E+03  0.45847433919E+03  0.44275541922E+03 0.  0.
      99925    2    3    3    0    0 -0.77179448655E+01  0.12993252784E+02 -0.27882903220E+02  0.26493596955E+03  0.26303083542E+03 0.  0.
         25    1    4    4    0    0 -0.20832778502E+02  0.43456897088E+02 -0.14275088153E+02  0.13481021032E+03  0.12509000000E+03 0.  0.
         25    1    3    3    0    0  0.77179448655E+01 -0.12993252784E+02  0.14690541560E+03  0.19353836964E+03  0.12509000000E+03 0.  0.
         25    1    4    4    0    0  0.13114833637E+02 -0.30463644303E+02 -0.13607815067E+02  0.13012575923E+03  0.12509000000E+03 0.  0.
<mgrwt>
<rscale>  2 0.44275542E+03</rscale>
<asrwt>0</asrwt>
<pdfrwt beam="1">  1       21 0.42463004E-01 0.44275542E+03</pdfrwt>
<pdfrwt beam="2">  1       21 0.24959693E-01 0.44275542E+03</pdfrwt>
<totfact> 0.75360729E+04</totfact>
</mgrwt>
</event>
<event>
 7    0  0.4714446E-002  0.4548445E+03  0.7546771E-02  0.1026287E+00
         21   -1    0    0  502  501  0.00000000000E+00  0.00000000000E+00  0.50152851685E+02  0.50152851685E+02  0.00000000000E+00 0.  1.
         21   -1    0    0  501  502 -0.00000000000E+00 -0.00000000000E+00 -0.10312649555E+04  0.10312649555E+04  0.00000000000E+00 0.  1.
      99926    2    1    2    0    0  0.00000000000E+00  0.00000000000E+00 -0.98111210383E+03  0.10814178072E+04  0.45484449370E+03 0.  0.
      99925    2    3    3    0    0 -0.72978897488E+02  0.35697521051E+02 -0.43011219238E+03  0.51058627075E+03  0.26287184969E+03 0.  0.
         25    1    4    4    0    0 -0.37453553182E+02  0.29794054517E+02 -0.28945165202E+03  0.31893607711E+03  0.12509000000E+03 0.  0.
         25    1    3    3    0    0  0.72978897488E+02 -0.35697521051E+02 -0.55099991145E+03  0.57083153645E+03  0.12509000000E+03 0.  0.
         25    1    4    4    0    0 -0.35525344306E+02  0.59034665343E+01 -0.14066054037E+03  0.19165019364E+03  0.12509000000E+03 0.  0.
<mgrwt>
<rscale>  2 0.45484449E+03</rscale>
<asrwt>0</asrwt>
<pdfrwt beam="1">  1       21 0.73754202E-02 0.45484449E+03</pdfrwt>
<pdfrwt beam="2">  1       21 0.15165659E+00 0.45484449E+03</pdfrwt>
<totfact> 0.36189155E+04</totfact>
</mgrwt>
</event>
<event>
 7    0  0.4714446E-002  0.4541522E+03  0.7546771E-02  0.1026491E+00
         21   -1    0    0  502  501  0.00000000000E+00  0.00000000000E+00  0.76398012274E+02  0.76398012274E+02  0.00000000000E+00 0. -1.
         21   -1    0    0  501  502 -0.00000000000E+00 -0.00000000000E+00 -0.67493313001E+03  0.67493313001E+03  0.00000000000E+00 0. -1.
      99926    2    1    2    0    0 -0.71054273576E-14 -0.71054273576E-14 -0.59853511774E+03  0.75133114229E+03  0.45415217516E+03 0.  0.
      99925    2    3    3    0    0  0.35215479647E+02  0.37737032371E+02 -0.21495398247E+03  0.34458034751E+03  0.26432212864E+03 0.  0.
         25    1    4    4    0    0  0.31388953756E+02  0.59744355093E+02 -0.10853499809E+03  0.17883514278E+03  0.12509000000E+03 0.  0.
         25    1    3    3    0    0 -0.35215479647E+02 -0.37737032371E+02 -0.38358113527E+03  0.40675079478E+03  0.12509000000E+03 0.  0.
         25    1    4    4    0    0  0.38265258911E+01 -0.22007322722E+02 -0.10641898438E+03  0.16574520473E+03  0.12509000000E+03 0.  0.
<mgrwt>
<rscale>  2 0.45415218E+03</rscale>
<asrwt>0</asrwt>
<pdfrwt beam="1">  1       21 0.11235002E-01 0.45415218E+03</pdfrwt>
<pdfrwt beam="2">  1       21 0.99254870E-01 0.45415218E+03</pdfrwt>
<totfact> 0.50538953E+04</totfact>
</mgrwt>
</event>
<event>
 7    0  0.4714446E-002  0.4560937E+03  0.7546771E-02  0.1025920E+00
         21   -1    0    0  502  501  0.00000000000E+00  0.00000000000E+00  0.73082235317E+02  0.73082235317E+02  0.00000000000E+00 0.  1.
         21   -1    0    0  501  502 -0.00000000000E+00 -0.00000000000E+00 -0.71160055141E+03  0.71160055141E+03  0.00000000000E+00 0.  1.
      99926    2    1    2    0    0  0.00000000000E+00  0.71054273576E-14 -0.63851831609E+03  0.78468278672E+03  0.45609366998E+03 0.  0.
      99925    2    3    3    0    0  0.78496456495E+02 -0.62926923210E+02 -0.30749964596E+03  0.41679372814E+03  0.26275366450E+03 0.  0.
         25    1    4    4    0    0  0.63549754764E+02 -0.66623643287E+02 -0.16980716867E+03  0.23012879830E+03  0.12509000000E+03 0.  0.
         25    1    4    4    0    0  0.14946701731E+02  0.36967200768E+01 -0.13769247729E+03  0.18666492985E+03  0.12509000000E+03 0.  0.
         25    1    3    3    0    0 -0.78496456495E+02  0.62926923210E+02 -0.33101867013E+03  0.36788905858E+03  0.12509000000E+03 0.  0.
<mgrwt>
<rscale>  2 0.45609367E+03</rscale>
<asrwt>0</asrwt>
<pdfrwt beam="1">  1       21 0.10747388E-01 0.45609367E+03</pdfrwt>
<pdfrwt beam="2">  1       21 0.10464714E+00 0.45609367E+03</pdfrwt>
<totfact> 0.48100419E+04</totfact>
</mgrwt>
</event>
<event>
 6    0  0.4714446E-002  0.4580527E+03  0.7546771E-02  0.1025348E+00
         21   -1    0    0  502  501  0.00000000000E+00  0.00000000000E+00  0.85322620672E+03  0.85322620672E+03  0.00000000000E+00 0.  1.
         21   -1    0    0  501  502 -0.00000000000E+00 -0.00000000000E+00 -0.61476156030E+02  0.61476156030E+02  0.00000000000E+00 0.  1.
      99926    2    1    2    0    0  0.00000000000E+00  0.00000000000E+00  0.79175005069E+03  0.91470236275E+03  0.45805269309E+03 0.  0.
         25    1    3    3    0    0  0.88906821614E+02  0.17587977980E+01  0.28140753206E+03  0.32053895785E+03  0.12509000000E+03 0.  0.
         25    1    3    3    0    0 -0.11036065416E+03  0.32551801815E+01  0.21105299785E+03  0.26903707214E+03  0.12509000000E+03 0.  0.
         25    1    3    3    0    0  0.21453832541E+02 -0.50139779794E+01  0.29928952077E+03  0.32512633275E+03  0.12509000000E+03 0.  0.
<mgrwt>
<rscale>  2 0.45805269E+03</rscale>
<asrwt>0</asrwt>
<pdfrwt beam="1">  1       21 0.12547444E+00 0.45805269E+03</pdfrwt>
<pdfrwt beam="2">  1       21 0.90406117E-02 0.45805269E+03</pdfrwt>
<totfact> 0.41601153E+04</totfact>
</mgrwt>
</event>
<event>
 7    0  0.4714446E-002  0.4558918E+03  0.7546771E-02  0.1025979E+00
         21   -1    0    0  502  501  0.00000000000E+00  0.00000000000E+00  0.11012614297E+03  0.11012614297E+03  0.00000000000E+00 0. -1.
         21   -1    0    0  501  502 -0.00000000000E+00 -0.00000000000E+00 -0.47181656715E+03  0.47181656715E+03  0.00000000000E+00 0. -1.
      99926    2    1    2    0    0 -0.14210854715E-13 -0.14210854715E-13 -0.36169042419E+03  0.58194271012E+03  0.45589182369E+03 0.  0.
      99925    2    3    3    0    0 -0.87801743984E+02 -0.72264043659E+02 -0.23855229796E+03  0.37279743887E+03  0.26294389766E+03 0.  0.
         25    1    4    4    0    0 -0.44037541755E+02 -0.77931107877E+02 -0.13003781258E+03  0.20141971964E+03  0.12509000000E+03 0.  0.
         25    1    4    4    0    0 -0.43764202229E+02  0.56670642182E+01 -0.10851448537E+03  0.17137771923E+03  0.12509000000E+03 0.  0.
         25    1    3    3    0    0  0.87801743984E+02  0.72264043659E+02 -0.12313812623E+03  0.20914527124E+03  0.12509000000E+03 0.  0.
<mgrwt>
<rscale>  2 0.45589182E+03</rscale>
<asrwt>0</asrwt>
<pdfrwt beam="1">  1       21 0.16195021E-01 0.45589182E+03</pdfrwt>
<pdfrwt beam="2">  1       21 0.69384787E-01 0.45589182E+03</pdfrwt>
<totfact> 0.59383963E+04</totfact>
</mgrwt>
</event>
<event>
 7    0  0.4714446E-002  0.4629340E+03  0.7546771E-02  0.1023934E+00
         21   -1    0    0  502  501  0.00000000000E+00  0.00000000000E+00  0.89970302251E+03  0.89970302251E+03  0.00000000000E+00 0.  1.
         21   -1    0    0  501  502 -0.00000000000E+00 -0.00000000000E+00 -0.59549610645E+02  0.59549610645E+02  0.00000000000E+00 0.  1.
      99926    2    1    2    0    0  0.14210854715E-13  0.00000000000E+00  0.84015341186E+03  0.95925263315E+03  0.46293396802E+03 0.  0.
      99925    2    3    3    0    0 -0.89675945829E+02 -0.37273679237E+02  0.37659180404E+03  0.46938737130E+03  0.26281555327E+03 0.  0.
         25    1    4    4    0    0 -0.38220664313E+02 -0.24253087208E+02  0.25234642736E+03  0.28526349034E+03  0.12509000000E+03 0.  0.
         25    1    4    4    0    0 -0.51455281516E+02 -0.13020592030E+02  0.12424537668E+03  0.18412388096E+03  0.12509000000E+03 0.  0.
         25    1    3    3    0    0  0.89675945829E+02  0.37273679237E+02  0.46356160782E+03  0.48986526185E+03  0.12509000000E+03 0.  0.
<mgrwt>
<rscale>  2 0.46293397E+03</rscale>
<asrwt>0</asrwt>
<pdfrwt beam="1">  1       21 0.13230926E+00 0.46293397E+03</pdfrwt>
<pdfrwt beam="2">  1       21 0.87572962E-02 0.46293397E+03</pdfrwt>
<totfact> 0.38334451E+04</totfact>
</mgrwt>
</event>
<event>
 7    0  0.4714446E-002  0.4652640E+03  0.7546771E-02  0.1023265E+00
         21   -1    0    0  502  501  0.00000000000E+00  0.00000000000E+00  0.71732893743E+02  0.71732893743E+02  0.00000000000E+00 0.  1.
         21   -1    0    0  501  502 -0.00000000000E+00 -0.00000000000E+00 -0.75443281643E+03  0.75443281643E+03  0.00000000000E+00 0.  1.
      99926    2    1    2    0    0  0.14210854715E-13  0.17763568394E-14 -0.68269992269E+03  0.82616571017E+03  0.46526400702E+03 0.  0.
      99925    2    3    3    0    0 -0.96610702782E+02  0.92001396877E+01 -0.55861541178E+03  0.62501217576E+03  0.26300336709E+03 0.  0.
         25    1    3    3    0    0  0.96610702782E+02 -0.92001396877E+01 -0.12408451090E+03  0.20115353442E+03  0.12509000000E+03 0.  0.
         25    1    4    4    0    0 -0.19011802393E+02  0.17865878194E+02 -0.31923121907E+03  0.34385566385E+03  0.12509000000E+03 0.  0.
         25    1    4    4    0    0 -0.77598900390E+02 -0.86657385065E+01 -0.23938419272E+03  0.28115651191E+03  0.12509000000E+03 0.  0.
<mgrwt>
<rscale>  2 0.46526401E+03</rscale>
<asrwt>0</asrwt>
<pdfrwt beam="1">  1       21 0.10548954E-01 0.46526401E+03</pdfrwt>
<pdfrwt beam="2">  1       21 0.11094601E+00 0.46526401E+03</pdfrwt>
<totfact> 0.42959442E+04</totfact>
</mgrwt>
</event>
<event>
 7    0  0.4714446E-002  0.4548452E+03  0.7546771E-02  0.1026287E+00
         21   -1    0    0  502  501  0.00000000000E+00  0.00000000000E+00  0.11270114382E+03  0.11270114382E+03  0.00000000000E+00 0.  1.
         21   -1    0    0  501  502 -0.00000000000E+00 -0.00000000000E+00 -0.45892197713E+03  0.45892197713E+03  0.00000000000E+00 0.  1.
      99926    2    1    2    0    0  0.00000000000E+00  0.00000000000E+00 -0.34622083331E+03  0.57162312095E+03  0.45484516815E+03 0.  0.
      99925    2    3    3    0    0 -0.34888713807E+02 -0.96904579624E+02 -0.27638395970E+03  0.39517931426E+03  0.26300356907E+03 0.  0.
         25    1    3    3    0    0  0.34888713807E+02  0.96904579624E+02 -0.69836873618E+02  0.17644380669E+03  0.12509000000E+03 0.  0.
         25    1    4    4    0    0 -0.95894282072E+01 -0.65547466237E+01 -0.11202214251E+03  0.16831931068E+03  0.12509000000E+03 0.  0.
         25    1    4    4    0    0 -0.25299285599E+02 -0.90349833000E+02 -0.16436181719E+03  0.22686000358E+03  0.12509000000E+03 0.  0.
<mgrwt>
<rscale>  2 0.45484517E+03</rscale>
<asrwt>0</asrwt>
<pdfrwt beam="1">  1       21 0.16573698E-01 0.45484517E+03</pdfrwt>
<pdfrwt beam="2">  1       21 0.67488526E-01 0.45484517E+03</pdfrwt>
<totfact> 0.60533926E+04</totfact>
</mgrwt>
</event>
<event>
 7    0  0.4714446E-002  0.4057158E+03  0.7546771E-02  0.1041818E+00
         21   -1    0    0  502  501  0.00000000000E+00  0.00000000000E+00  0.43222652944E+02  0.43222652944E+02  0.00000000000E+00 0.  1.
         21   -1    0    0  501  502 -0.00000000000E+00 -0.00000000000E+00 -0.95207765150E+03  0.95207765150E+03  0.00000000000E+00 0.  1.
      99926    2    1    2    0    0  0.00000000000E+00  0.71054273576E-14 -0.90885499856E+03  0.99530030445E+03  0.40571577197E+03 0.  0.
      99925    2    3    3    0    0  0.13039597707E+02 -0.53157882032E+02 -0.57696805039E+03  0.63642393856E+03  0.26295913535E+03 0.  0.
         25    1    3    3    0    0 -0.13039597707E+02  0.53157882032E+02 -0.33188694816E+03  0.35887636589E+03  0.12509000000E+03 0.  0.
         25    1    4    4    0    0  0.10771194059E+02  0.12512548993E+02 -0.30131401831E+03  0.32666531532E+03  0.12509000000E+03 0.  0.
         25    1    4    4    0    0  0.22684036475E+01 -0.65670431025E+02 -0.27565403208E+03  0.30975862324E+03  0.12509000000E+03 0.  0.
<mgrwt>
<rscale>  2 0.40571577E+03</rscale>
<asrwt>0</asrwt>
<pdfrwt beam="1">  1       21 0.63562727E-02 0.40571577E+03</pdfrwt>
<pdfrwt beam="2">  1       21 0.14001142E+00 0.40571577E+03</pdfrwt>
<totfact> 0.58993384E+04</totfact>
</mgrwt>
</event>
<event>
 7    0  0.4714446E-002  0.4575058E+03  0.7546771E-02  0.1025507E+00
         21   -1    0    0  502  501  0.00000000000E+00  0.00000000000E+00  0.46950776828E+03  0.46950776828E+03  0.00000000000E+00 0.  1.
         21   -1    0    0  501  502 -0.00000000000E+00 -0.00000000000E+00 -0.11145266467E+03  0.11145266467E+03  0.00000000000E+00 0.  1.
      99926    2    1    2    0    0  0.00000000000E+00  0.00000000000E+00  0.35805510361E+03  0.58096043295E+03  0.45750581137E+03 0.  0.
      99925    2    3    3    0    0 -0.13354129220E+02 -0.10275774956E+03  0.16002952405E+03  0.32483716942E+03  0.26300617903E+03 0.  0.
         25    1    4    4    0    0 -0.13886082498E+02 -0.20735099672E+02  0.10581225308E+03  0.16573022853E+03  0.12509000000E+03 0.  0.
         25    1    3    3    0    0  0.13354129220E+02  0.10275774956E+03  0.19802557956E+03  0.25612326353E+03  0.12509000000E+03 0.  0.
         25    1    4    4    0    0  0.53195327781E+00 -0.82022649890E+02  0.54217270964E+02  0.15910694089E+03  0.12509000000E+03 0.  0.
<mgrwt>
<rscale>  2 0.45750581E+03</rscale>
<asrwt>0</asrwt>
<pdfrwt beam="1">  1       21 0.69045259E-01 0.45750581E+03</pdfrwt>
<pdfrwt beam="2">  1       21 0.16390098E-01 0.45750581E+03</pdfrwt>
<totfact> 0.58694380E+04</totfact>
</mgrwt>
</event>
<event>
 7    0  0.4714446E-002  0.4524078E+03  0.7546771E-02  0.1027006E+00
         21   -1    0    0  502  501  0.00000000000E+00  0.00000000000E+00  0.51567057455E+02  0.51567057455E+02  0.00000000000E+00 0. -1.
         21   -1    0    0  501  502 -0.00000000000E+00 -0.00000000000E+00 -0.99226553535E+03  0.99226553535E+03  0.00000000000E+00 0. -1.
      99926    2    1    2    0    0  0.00000000000E+00 -0.14210854715E-13 -0.94069847790E+03  0.10438325928E+04  0.45240784199E+03 0.  0.
      99925    2    3    3    0    0 -0.15619053052E+02  0.10990698872E+03 -0.58223208962E+03  0.64827076375E+03  0.26255909040E+03 0.  0.
         25    1    4    4    0    0  0.24508446339E+02  0.68240346632E+02 -0.25380356533E+03  0.29209787182E+03  0.12509000000E+03 0.  0.
         25    1    4    4    0    0 -0.40127499391E+02  0.41666642090E+02 -0.32842852430E+03  0.35617289193E+03  0.12509000000E+03 0.  0.
         25    1    3    3    0    0  0.15619053052E+02 -0.10990698872E+03 -0.35846638827E+03  0.39556182906E+03  0.12509000000E+03 0.  0.
<mgrwt>
<rscale>  2 0.45240784E+03</rscale>
<asrwt>0</asrwt>
<pdfrwt beam="1">  1       21 0.75833912E-02 0.45240784E+03</pdfrwt>
<pdfrwt beam="2">  1       21 0.14592139E+00 0.45240784E+03</pdfrwt>
<totfact> 0.38273068E+04</totfact>
</mgrwt>
</event>
<event>
 7    0  0.4714446E-002  0.4742788E+03  0.7546771E-02  0.1020719E+00
         21   -1    0    0  502  501  0.00000000000E+00  0.00000000000E+00  0.27716500426E+03  0.27716500426E+03  0.00000000000E+00 0. -1.
         21   -1    0    0  501  502 -0.00000000000E+00 -0.00000000000E+00 -0.20289396420E+03  0.20289396420E+03  0.00000000000E+00 0. -1.
      99926    2    1    2    0    0  0.00000000000E+00  0.00000000000E+00  0.74271040056E+02  0.48005896846E+03  0.47427884816E+03 0.  0.
      99925    2    3    3    0    0  0.10022207637E+03 -0.73274790890E+02  0.86480281764E+02  0.30339478631E+03  0.26297508942E+03 0.  0.
         25    1    3    3    0    0 -0.10022207637E+03  0.73274790890E+02 -0.12209241708E+02  0.17666418215E+03  0.12509000000E+03 0.  0.
         25    1    4    4    0    0  0.86908214471E+02 -0.32803901226E+02  0.25599458837E+02  0.15789861960E+03  0.12509000000E+03 0.  0.
         25    1    4    4    0    0  0.13313861894E+02 -0.40470889663E+02  0.60880822927E+02  0.14549616672E+03  0.12509000000E+03 0.  0.
<mgrwt>
<rscale>  2 0.47427885E+03</rscale>
<asrwt>0</asrwt>
<pdfrwt beam="1">  1       21 0.40759560E-01 0.47427885E+03</pdfrwt>
<pdfrwt beam="2">  1       21 0.29837348E-01 0.47427885E+03</pdfrwt>
<totfact> 0.57393528E+04</totfact>
</mgrwt>
</event>
<event>
 7    0  0.4714446E-002  0.4701026E+03  0.7546771E-02  0.1021891E+00
         21   -1    0    0  502  501  0.00000000000E+00  0.00000000000E+00  0.10834602378E+04  0.10834602378E+04  0.00000000000E+00 0.  1.
         21   -1    0    0  501  502 -0.00000000000E+00 -0.00000000000E+00 -0.50993207014E+02  0.50993207014E+02  0.00000000000E+00 0.  1.
      99926    2    1    2    0    0 -0.14210854715E-13  0.00000000000E+00  0.10324670307E+04  0.11344534448E+04  0.47010259389E+03 0.  0.
      99925    2    3    3    0    0 -0.96344963152E+02 -0.76957033533E+02  0.71292537666E+03  0.76981785445E+03  0.26296805778E+03 0.  0.
         25    1    4    4    0    0 -0.70273122746E+02 -0.74611384123E+02  0.36747152721E+03  0.40148225593E+03  0.12509000000E+03 0.  0.
         25    1    3    3    0    0  0.96344963152E+02  0.76957033533E+02  0.31954165409E+03  0.36463559032E+03  0.12509000000E+03 0.  0.
         25    1    4    4    0    0 -0.26071840405E+02 -0.23456494095E+01  0.34545384945E+03  0.36833559851E+03  0.12509000000E+03 0.  0.
<mgrwt>
<rscale>  2 0.47010259E+03</rscale>
<asrwt>0</asrwt>
<pdfrwt beam="1">  1       21 0.15933237E+00 0.47010259E+03</pdfrwt>
<pdfrwt beam="2">  1       21 0.74990017E-02 0.47010259E+03</pdfrwt>
<totfact> 0.30547864E+04</totfact>
</mgrwt>
</event>
<event>
 7    0  0.4714446E-002  0.4539950E+03  0.7546771E-02  0.1026537E+00
         21   -1    0    0  502  501  0.00000000000E+00  0.00000000000E+00  0.11156109585E+04  0.11156109585E+04  0.00000000000E+00 0. -1.
         21   -1    0    0  501  502 -0.00000000000E+00 -0.00000000000E+00 -0.46188033423E+02  0.46188033423E+02  0.00000000000E+00 0. -1.
      99926    2    1    2    0    0  0.71054273576E-14  0.00000000000E+00  0.10694229251E+04  0.11617989919E+04  0.45399504948E+03 0.  0.
      99925    2    3    3    0    0 -0.45643695991E+02 -0.74351006537E+02  0.49260964062E+03  0.56516468819E+03  0.26293620442E+03 0.  0.
         25    1    4    4    0    0 -0.35288420945E+02 -0.77303987562E+02  0.28119307046E+03  0.31927766931E+03  0.12509000000E+03 0.  0.
         25    1    3    3    0    0  0.45643695991E+02  0.74351006537E+02  0.57681328446E+03  0.59663430373E+03  0.12509000000E+03 0.  0.
         25    1    4    4    0    0 -0.10355275045E+02  0.29529810249E+01  0.21141657016E+03  0.24588701889E+03  0.12509000000E+03 0.  0.
<mgrwt>
<rscale>  2 0.45399505E+03</rscale>
<asrwt>0</asrwt>
<pdfrwt beam="1">  1       21 0.16406042E+00 0.45399505E+03</pdfrwt>
<pdfrwt beam="2">  1       21 0.67923586E-02 0.45399505E+03</pdfrwt>
<totfact> 0.33653642E+04</totfact>
</mgrwt>
</event>
<event>
 7    0  0.4714446E-002  0.4605087E+03  0.7546771E-02  0.1024634E+00
         21   -1    0    0  502  501  0.00000000000E+00  0.00000000000E+00  0.17584657325E+03  0.17584657325E+03  0.00000000000E+00 0. -1.
         21   -1    0    0  501  502 -0.00000000000E+00 -0.00000000000E+00 -0.30149617506E+03  0.30149617506E+03  0.00000000000E+00 0. -1.
      99926    2    1    2    0    0  0.00000000000E+00 -0.14210854715E-13 -0.12564960181E+03  0.47734274831E+03  0.46050871536E+03 0.  0.
      99925    2    3    3    0    0  0.30125183573E+01  0.11573915022E+03 -0.53848067158E+02  0.29238979581E+03  0.26303526797E+03 0.  0.
         25    1    4    4    0    0 -0.11012253403E+02  0.41335540026E+02 -0.61843246996E+02  0.14595201915E+03  0.12509000000E+03 0.  0.
         25    1    4    4    0    0  0.14024771760E+02  0.74403610191E+02  0.79951798389E+01  0.14643777666E+03  0.12509000000E+03 0.  0.
         25    1    3    3    0    0 -0.30125183573E+01 -0.11573915022E+03 -0.71801534651E+02  0.18495295250E+03  0.12509000000E+03 0.  0.
<mgrwt>
<rscale>  2 0.46050872E+03</rscale>
<asrwt>0</asrwt>
<pdfrwt beam="1">  1       21 0.25859790E-01 0.46050872E+03</pdfrwt>
<pdfrwt beam="2">  1       21 0.44337673E-01 0.46050872E+03</pdfrwt>
<totfact> 0.64048143E+04</totfact>
</mgrwt>
</event>
<event>
 7    0  0.4714446E-002  0.4585385E+03  0.7546771E-02  0.1025206E+00
         21   -1    0    0  502  501  0.00000000000E+00  0.00000000000E+00  0.39889741370E+03  0.39889741370E+03  0.00000000000E+00 0.  1.
         21   -1    0    0  501  502 -0.00000000000E+00 -0.00000000000E+00 -0.13177421168E+03  0.13177421168E+03  0.00000000000E+00 0.  1.
      99926    2    1    2    0    0 -0.71054273576E-14  0.00000000000E+00  0.26712320201E+03  0.53067162538E+03  0.45853851412E+03 0.  0.
      99925    2    3    3    0    0  0.61851117725E+02 -0.98188615137E+02  0.15715136598E+03  0.32767438962E+03  0.26307297253E+03 0.  0.
         25    1    4    4    0    0  0.25195280234E+02 -0.91405869123E+02  0.83029813792E+02  0.17757053003E+03  0.12509000000E+03 0.  0.
         25    1    3    3    0    0 -0.61851117725E+02  0.98188615137E+02  0.10997183603E+03  0.20299723576E+03  0.12509000000E+03 0.  0.
         25    1    4    4    0    0  0.36655837491E+02 -0.67827460133E+01  0.74121552187E+02  0.15010385959E+03  0.12509000000E+03 0.  0.
<mgrwt>
<rscale>  2 0.45853851E+03</rscale>
<asrwt>0</asrwt>
<pdfrwt beam="1">  1       21 0.58661384E-01 0.45853851E+03</pdfrwt>
<pdfrwt beam="2">  1       21 0.19378561E-01 0.45853851E+03</pdfrwt>
<totfact> 0.61420247E+04</totfact>
</mgrwt>
</event>
<event>
 7    0  0.4714446E-002  0.4575263E+03  0.7546771E-02  0.1025501E+00
         21   -1    0    0  502  501  0.00000000000E+00  0.00000000000E+00  0.73626819481E+02  0.73626819481E+02  0.00000000000E+00 0. -1.
         21   -1    0    0  501  502 -0.00000000000E+00 -0.00000000000E+00 -0.71078159943E+03  0.71078159943E+03  0.00000000000E+00 0. -1.
      99926    2    1    2    0    0  0.00000000000E+00  0.14210854715E-13 -0.63715477995E+03  0.78440841891E+03  0.45752634246E+03 0.  0.
      99925    2    3    3    0    0  0.96108887208E+01 -0.10548059678E+03 -0.32089476108E+03  0.42819719910E+03  0.26298453976E+03 0.  0.
         25    1    3    3    0    0 -0.96108887208E+01  0.10548059678E+03 -0.31626001888E+03  0.35621121981E+03  0.12509000000E+03 0.  0.
         25    1    4    4    0    0  0.23143896755E+02 -0.91127917216E+02 -0.18850920952E+03  0.24499626003E+03  0.12509000000E+03 0.  0.
         25    1    4    4    0    0 -0.13533008035E+02 -0.14352679569E+02 -0.13238555155E+03  0.18320093907E+03  0.12509000000E+03 0.  0.
<mgrwt>
<rscale>  2 0.45752634E+03</rscale>
<asrwt>0</asrwt>
<pdfrwt beam="1">  1       21 0.10827473E-01 0.45752634E+03</pdfrwt>
<pdfrwt beam="2">  1       21 0.10452671E+00 0.45752634E+03</pdfrwt>
<totfact> 0.47577788E+04</totfact>
</mgrwt>
</event>
<event>
 7    0  0.4714446E-002  0.4510190E+03  0.7546771E-02  0.1027419E+00
         21   -1    0    0  502  501  0.00000000000E+00  0.00000000000E+00  0.26492456631E+02  0.26492456631E+02  0.00000000000E+00 0.  1.
         21   -1    0    0  501  502 -0.00000000000E+00 -0.00000000000E+00 -0.19195851628E+04  0.19195851628E+04  0.00000000000E+00 0.  1.
      99926    2    1    2    0    0 -0.53290705182E-14 -0.35527136788E-14 -0.18930927062E+04  0.19460776195E+04  0.45101896490E+03 0.  0.
      99925    2    3    3    0    0  0.91199728205E+01 -0.14806555652E+02 -0.16615528112E+04  0.16823341094E+04  0.26303593564E+03 0.  0.
         25    1    3    3    0    0 -0.91199728205E+01  0.14806555652E+02 -0.23153989502E+03  0.26374351002E+03  0.12509000000E+03 0.  0.
         25    1    4    4    0    0 -0.24990208222E+02 -0.34753748085E+02 -0.79996368021E+03  0.81081547301E+03  0.12509000000E+03 0.  0.
         25    1    4    4    0    0  0.34110181043E+02  0.19947192433E+02 -0.86158913097E+03  0.87151863643E+03  0.12509000000E+03 0.  0.
<mgrwt>
<rscale>  2 0.45101896E+03</rscale>
<asrwt>0</asrwt>
<pdfrwt beam="1">  1       21 0.38959481E-02 0.45101896E+03</pdfrwt>
<pdfrwt beam="2">  1       21 0.28229204E+00 0.45101896E+03</pdfrwt>
<totfact> 0.15070673E+04</totfact>
</mgrwt>
</event>
<event>
 7    0  0.4714446E-002  0.4538361E+03  0.7546771E-02  0.1026584E+00
         21   -1    0    0  502  501  0.00000000000E+00  0.00000000000E+00  0.45447352205E+02  0.45447352205E+02  0.00000000000E+00 0.  1.
         21   -1    0    0  501  502 -0.00000000000E+00 -0.00000000000E+00 -0.11329988919E+04  0.11329988919E+04  0.00000000000E+00 0.  1.
      99926    2    1    2    0    0  0.00000000000E+00  0.00000000000E+00 -0.10875515397E+04  0.11784462441E+04  0.45383609239E+03 0.  0.
      99925    2    3    3    0    0  0.37571828232E+02  0.65923422706E+02 -0.89935376110E+03  0.94006954242E+03  0.26293728731E+03 0.  0.
         25    1    3    3    0    0 -0.37571828232E+02 -0.65923422706E+02 -0.18819777863E+03  0.23837670171E+03  0.12509000000E+03 0.  0.
         25    1    4    4    0    0  0.61810483614E+01  0.34727850250E+02 -0.57736854255E+03  0.59181599418E+03  0.12509000000E+03 0.  0.
         25    1    4    4    0    0  0.31390779871E+02  0.31195572456E+02 -0.32198521855E+03  0.34825354825E+03  0.12509000000E+03 0.  0.
<mgrwt>
<rscale>  2 0.45383609E+03</rscale>
<asrwt>0</asrwt>
<pdfrwt beam="1">  1       21 0.66834345E-02 0.45383609E+03</pdfrwt>
<pdfrwt beam="2">  1       21 0.16661747E+00 0.45383609E+03</pdfrwt>
<totfact> 0.33146241E+04</totfact>
</mgrwt>
</event>
<event>
 7    0  0.4714446E-002  0.4516984E+03  0.7546771E-02  0.1027217E+00
         21   -1    0    0  502  501  0.00000000000E+00  0.00000000000E+00  0.68483321230E+03  0.68483321230E+03  0.00000000000E+00 0.  1.
         21   -1    0    0  501  502 -0.00000000000E+00 -0.00000000000E+00 -0.74482161533E+02  0.74482161533E+02  0.00000000000E+00 0.  1.
      99926    2    1    2    0    0  0.00000000000E+00  0.00000000000E+00  0.61035105076E+03  0.75931537383E+03  0.45169838583E+03 0.  0.
      99925    2    3    3    0    0 -0.44125108187E+02  0.10093142738E+03  0.37963923784E+03  0.47469347213E+03  0.26281887940E+03 0.  0.
         25    1    4    4    0    0 -0.36918668854E+02  0.84044341765E+02  0.24500023387E+03  0.28999838308E+03  0.12509000000E+03 0.  0.
         25    1    4    4    0    0 -0.72064393334E+01  0.16887085615E+02  0.13463900397E+03  0.18469508905E+03  0.12509000000E+03 0.  0.
         25    1    3    3    0    0  0.44125108187E+02 -0.10093142738E+03  0.23071181292E+03  0.28462190170E+03  0.12509000000E+03 0.  0.
<mgrwt>
<rscale>  2 0.45169839E+03</rscale>
<asrwt>0</asrwt>
<pdfrwt beam="1">  1       21 0.10071076E+00 0.45169839E+03</pdfrwt>
<pdfrwt beam="2">  1       21 0.10953259E-01 0.45169839E+03</pdfrwt>
<totfact> 0.51107130E+04</totfact>
</mgrwt>
</event>
<event>
 7    0  0.4714446E-002  0.4477244E+03  0.7546771E-02  0.1028403E+00
         21   -1    0    0  502  501  0.00000000000E+00  0.00000000000E+00  0.11687680687E+03  0.11687680687E+03  0.00000000000E+00 0. -1.
         21   -1    0    0  501  502 -0.00000000000E+00 -0.00000000000E+00 -0.42877864235E+03  0.42877864235E+03  0.00000000000E+00 0. -1.
      99926    2    1    2    0    0  0.17763568394E-14  0.00000000000E+00 -0.31190183547E+03  0.54565544922E+03  0.44772437313E+03 0.  0.
      99925    2    3    3    0    0  0.95430685828E+01  0.10496855614E+03 -0.21216921907E+03  0.35407368910E+03  0.26314051733E+03 0.  0.
         25    1    4    4    0    0 -0.30171162642E+02  0.47787215908E+02 -0.12976391592E+03  0.18889176540E+03  0.12509000000E+03 0.  0.
         25    1    3    3    0    0 -0.95430685828E+01 -0.10496855614E+03 -0.99732616400E+02  0.19158176012E+03  0.12509000000E+03 0.  0.
         25    1    4    4    0    0  0.39714231225E+02  0.57181340228E+02 -0.82405303150E+02  0.16518192371E+03  0.12509000000E+03 0.  0.
<mgrwt>
<rscale>  2 0.44772437E+03</rscale>
<asrwt>0</asrwt>
<pdfrwt beam="1">  1       21 0.17187766E-01 0.44772437E+03</pdfrwt>
<pdfrwt beam="2">  1       21 0.63055683E-01 0.44772437E+03</pdfrwt>
<totfact> 0.65865253E+04</totfact>
</mgrwt>
</event>
<event>
 7    0  0.4714446E-002  0.4574741E+03  0.7546771E-02  0.1025516E+00
         21   -1    0    0  502  501  0.00000000000E+00  0.00000000000E+00  0.10391489765E+04  0.10391489765E+04  0.00000000000E+00 0. -1.
         21   -1    0    0  501  502 -0.00000000000E+00 -0.00000000000E+00 -0.50349502108E+02  0.50349502108E+02  0.00000000000E+00 0. -1.
      99926    2    1    2    0    0  0.30531133177E-15 -0.35527136788E-14  0.98879947438E+03  0.10894984786E+04  0.45747408050E+03 0.  0.
      99925    2    3    3    0    0 -0.18268422661E+00 -0.16971732404E+02  0.89279287115E+03  0.93090198104E+03  0.26308043342E+03 0.  0.
         25    1    3    3    0    0  0.18268422661E+00  0.16971732404E+02  0.96006603232E+02  0.15859649756E+03  0.12509000000E+03 0.  0.
         25    1    4    4    0    0 -0.13746249285E+02 -0.45118015056E+02  0.41376009430E+03  0.43482124878E+03  0.12509000000E+03 0.  0.
         25    1    4    4    0    0  0.13563565059E+02  0.28146282653E+02  0.47903277685E+03  0.49608073226E+03  0.12509000000E+03 0.  0.
<mgrwt>
<rscale>  2 0.45747408E+03</rscale>
<asrwt>0</asrwt>
<pdfrwt beam="1">  1       21 0.15281601E+00 0.45747408E+03</pdfrwt>
<pdfrwt beam="2">  1       21 0.74043392E-02 0.45747408E+03</pdfrwt>
<totfact> 0.35176612E+04</totfact>
</mgrwt>
</event>
<event>
 7    0  0.4714446E-002  0.4399415E+03  0.7546771E-02  0.1030765E+00
         21   -1    0    0  502  501  0.00000000000E+00  0.00000000000E+00  0.37423251155E+03  0.37423251155E+03  0.00000000000E+00 0. -1.
         21   -1    0    0  501  502 -0.00000000000E+00 -0.00000000000E+00 -0.12929697130E+03  0.12929697130E+03  0.00000000000E+00 0. -1.
      99926    2    1    2    0    0  0.00000000000E+00  0.22204460493E-14  0.24493554025E+03  0.50352948285E+03  0.43994149750E+03 0.  0.
      99925    2    3    3    0    0  0.97421813970E+02  0.31139906931E+01  0.17227113065E+03  0.32909229846E+03  0.26291384839E+03 0.  0.
         25    1    4    4    0    0  0.36772880004E+02  0.22105728364E+02  0.12236917007E+03  0.18017388771E+03  0.12509000000E+03 0.  0.
         25    1    3    3    0    0 -0.97421813970E+02 -0.31139906931E+01  0.72664409604E+02  0.17443718439E+03  0.12509000000E+03 0.  0.
         25    1    4    4    0    0  0.60648933965E+02 -0.18991737671E+02  0.49901960583E+02  0.14891841075E+03  0.12509000000E+03 0.  0.
<mgrwt>
<rscale>  2 0.43994150E+03</rscale>
<asrwt>0</asrwt>
<pdfrwt beam="1">  1       21 0.55034193E-01 0.43994150E+03</pdfrwt>
<pdfrwt beam="2">  1       21 0.19014261E-01 0.43994150E+03</pdfrwt>
<totfact> 0.73411583E+04</totfact>
</mgrwt>
</event>
<event>
 7    0  0.4714446E-002  0.4550047E+03  0.7546771E-02  0.1026240E+00
         21   -1    0    0  502  501  0.00000000000E+00  0.00000000000E+00  0.33959902700E+03  0.33959902700E+03  0.00000000000E+00 0.  1.
         21   -1    0    0  501  502 -0.00000000000E+00 -0.00000000000E+00 -0.15240712618E+03  0.15240712618E+03  0.00000000000E+00 0.  1.
      99926    2    1    2    0    0  0.00000000000E+00  0.00000000000E+00  0.18719190082E+03  0.49200615319E+03  0.45500466705E+03 0.  0.
      99925    2    3    3    0    0  0.59006193046E+02  0.14650614831E+02  0.14661094026E+02  0.27039667973E+03  0.26306471713E+03 0.  0.
         25    1    4    4    0    0  0.43755193423E+02  0.40204036258E+02  0.27452960969E+02  0.14118092877E+03  0.12509000000E+03 0.  0.
         25    1    3    3    0    0 -0.59006193046E+02 -0.14650614831E+02  0.17253080679E+03  0.22160947346E+03  0.12509000000E+03 0.  0.
         25    1    4    4    0    0  0.15250999623E+02 -0.25553421427E+02 -0.12791866943E+02  0.12921575096E+03  0.12509000000E+03 0.  0.
<mgrwt>
<rscale>  2 0.45500467E+03</rscale>
<asrwt>0</asrwt>
<pdfrwt beam="1">  1       21 0.49941033E-01 0.45500467E+03</pdfrwt>
<pdfrwt beam="2">  1       21 0.22412813E-01 0.45500467E+03</pdfrwt>
<totfact> 0.65833538E+04</totfact>
</mgrwt>
</event>
<event>
 7    0  0.4714446E-002  0.4557373E+03  0.7546771E-02  0.1026025E+00
         21   -1    0    0  502  501  0.00000000000E+00  0.00000000000E+00  0.24784080256E+02  0.24784080256E+02  0.00000000000E+00 0. -1.
         21   -1    0    0  501  502 -0.00000000000E+00 -0.00000000000E+00 -0.20950591424E+04  0.20950591424E+04  0.00000000000E+00 0. -1.
      99926    2    1    2    0    0  0.00000000000E+00  0.17763568394E-14 -0.20702750621E+04  0.21198432226E+04  0.45573726609E+03 0.  0.
      99925    2    3    3    0    0  0.81219105908E+02  0.14641178947E+02 -0.93713415696E+03  0.97683546835E+03  0.26301368180E+03 0.  0.
         25    1    4    4    0    0  0.30949920650E+02 -0.29184587131E+02 -0.39700275245E+03  0.41841167678E+03  0.12509000000E+03 0.  0.
         25    1    3    3    0    0 -0.81219105908E+02 -0.14641178947E+02 -0.11331409052E+04  0.11430077543E+04  0.12509000000E+03 0.  0.
         25    1    4    4    0    0  0.50269185258E+02  0.43825766078E+02 -0.54013140451E+03  0.55842379157E+03  0.12509000000E+03 0.  0.
<mgrwt>
<rscale>  2 0.45573727E+03</rscale>
<asrwt>0</asrwt>
<pdfrwt beam="1">  1       21 0.36447178E-02 0.45573727E+03</pdfrwt>
<pdfrwt beam="2">  1       21 0.30809692E+00 0.45573727E+03</pdfrwt>
<totfact> 0.11782446E+04</totfact>
</mgrwt>
</event>
<event>
 7    0  0.4714446E-002  0.4506490E+03  0.7546771E-02  0.1027529E+00
         21   -1    0    0  502  501  0.00000000000E+00  0.00000000000E+00  0.16827661527E+03  0.16827661527E+03  0.00000000000E+00 0.  1.
         21   -1    0    0  501  502 -0.00000000000E+00 -0.00000000000E+00 -0.30171232300E+03  0.30171232300E+03  0.00000000000E+00 0.  1.
      99926    2    1    2    0    0  0.00000000000E+00  0.00000000000E+00 -0.13343570774E+03  0.46998893827E+03  0.45064899201E+03 0.  0.
      99925    2    3    3    0    0 -0.18326075723E+02  0.53588768962E+02  0.12867249068E+02  0.26934082720E+03  0.26300439898E+03 0.  0.
         25    1    3    3    0    0  0.18326075723E+02 -0.53588768962E+02 -0.14630295680E+03  0.20064811108E+03  0.12509000000E+03 0.  0.
         25    1    4    4    0    0 -0.25301940048E+02  0.19930696785E+02 -0.30197185614E+02  0.13265292671E+03  0.12509000000E+03 0.  0.
         25    1    4    4    0    0  0.69758643249E+01  0.33658072177E+02  0.43064434682E+02  0.13668790049E+03  0.12509000000E+03 0.  0.
<mgrwt>
<rscale>  2 0.45064899E+03</rscale>
<asrwt>0</asrwt>
<pdfrwt beam="1">  1       21 0.24746561E-01 0.45064899E+03</pdfrwt>
<pdfrwt beam="2">  1       21 0.44369459E-01 0.45064899E+03</pdfrwt>
<totfact> 0.69815799E+04</totfact>
</mgrwt>
</event>
<event>
 7    0  0.4714446E-002  0.4579415E+03  0.7546771E-02  0.1025380E+00
         21   -1    0    0  502  501  0.00000000000E+00  0.00000000000E+00  0.34113638635E+03  0.34113638635E+03  0.00000000000E+00 0.  1.
         21   -1    0    0  501  502 -0.00000000000E+00 -0.00000000000E+00 -0.15368514323E+03  0.15368514323E+03  0.00000000000E+00 0.  1.
      99926    2    1    2    0    0  0.00000000000E+00  0.13322676296E-14  0.18745124312E+03  0.49482152958E+03  0.45794145650E+03 0.  0.
      99925    2    3    3    0    0  0.10511346980E+03  0.30049423940E+01  0.65151319384E+02  0.29070722175E+03  0.26307436810E+03 0.  0.
         25    1    4    4    0    0  0.39347074861E+02  0.37376570646E+02  0.16542697006E+02  0.13735490256E+03  0.12509000000E+03 0.  0.
         25    1    4    4    0    0  0.65766394936E+02 -0.34371628252E+02  0.48608622378E+02  0.15335231919E+03  0.12509000000E+03 0.  0.
         25    1    3    3    0    0 -0.10511346980E+03 -0.30049423940E+01  0.12229992374E+03  0.20411430782E+03  0.12509000000E+03 0.  0.
<mgrwt>
<rscale>  2 0.45794146E+03</rscale>
<asrwt>0</asrwt>
<pdfrwt beam="1">  1       21 0.50167116E-01 0.45794146E+03</pdfrwt>
<pdfrwt beam="2">  1       21 0.22600756E-01 0.45794146E+03</pdfrwt>
<totfact> 0.64125478E+04</totfact>
</mgrwt>
</event>
<event>
 7    0  0.4714446E-002  0.4578925E+03  0.7546771E-02  0.1025394E+00
         21   -1    0    0  502  501  0.00000000000E+00  0.00000000000E+00  0.13767817413E+04  0.13767817413E+04  0.00000000000E+00 0. -1.
         21   -1    0    0  501  502 -0.00000000000E+00 -0.00000000000E+00 -0.38071672834E+02  0.38071672834E+02  0.00000000000E+00 0. -1.
      99926    2    1    2    0    0  0.00000000000E+00  0.00000000000E+00  0.13387100684E+04  0.14148534141E+04  0.45789249401E+03 0.  0.
      99925    2    3    3    0    0  0.62553436032E+02  0.77655434902E+02  0.10197534131E+04  0.10580283099E+04  0.26378700125E+03 0.  0.
         25    1    4    4    0    0  0.43210693863E+02  0.12616345107E+02  0.37833158609E+03  0.40100951779E+03  0.12509000000E+03 0.  0.
         25    1    4    4    0    0  0.19342742169E+02  0.65039089795E+02  0.64142182701E+03  0.65701879208E+03  0.12509000000E+03 0.  0.
         25    1    3    3    0    0 -0.62553436032E+02 -0.77655434902E+02  0.31895665535E+03  0.35682510425E+03  0.12509000000E+03 0.  0.
<mgrwt>
<rscale>  2 0.45789249E+03</rscale>
<asrwt>0</asrwt>
<pdfrwt beam="1">  1       21 0.20246787E+00 0.45789249E+03</pdfrwt>
<pdfrwt beam="2">  1       21 0.55987763E-02 0.45789249E+03</pdfrwt>
<totfact> 0.25363971E+04</totfact>
</mgrwt>
</event>
<event>
 7    0  0.4714446E-002  0.4591728E+03  0.7546771E-02  0.1025021E+00
         21   -1    0    0  502  501  0.00000000000E+00  0.00000000000E+00  0.84339555404E+02  0.84339555404E+02  0.00000000000E+00 0.  1.
         21   -1    0    0  501  502 -0.00000000000E+00 -0.00000000000E+00 -0.62497269322E+03  0.62497269322E+03  0.00000000000E+00 0.  1.
      99926    2    1    2    0    0  0.71054273576E-14 -0.14210854715E-13 -0.54063313782E+03  0.70931224862E+03  0.45917281751E+03 0.  0.
      99925    2    3    3    0    0 -0.43819103886E+02 -0.99042839404E+02 -0.40739326720E+03  0.49687409498E+03  0.26303040546E+03 0.  0.
         25    1    4    4    0    0 -0.50548053410E+02 -0.20967421055E+02 -0.20734049050E+03  0.24825858606E+03  0.12509000000E+03 0.  0.
         25    1    3    3    0    0  0.43819103886E+02  0.99042839404E+02 -0.13323987062E+03  0.21243815365E+03  0.12509000000E+03 0.  0.
         25    1    4    4    0    0  0.67289495238E+01 -0.78075418349E+02 -0.20005277670E+03  0.24861550892E+03  0.12509000000E+03 0.  0.
<mgrwt>
<rscale>  2 0.45917282E+03</rscale>
<asrwt>0</asrwt>
<pdfrwt beam="1">  1       21 0.12402876E-01 0.45917282E+03</pdfrwt>
<pdfrwt beam="2">  1       21 0.91907745E-01 0.45917282E+03</pdfrwt>
<totfact> 0.50714635E+04</totfact>
</mgrwt>
</event>
<event>
 7    0  0.4714446E-002  0.4531236E+03  0.7546771E-02  0.1026795E+00
         21   -1    0    0  502  501  0.00000000000E+00  0.00000000000E+00  0.14546932758E+04  0.14546932758E+04  0.00000000000E+00 0. -1.
         21   -1    0    0  501  502 -0.00000000000E+00 -0.00000000000E+00 -0.35285964642E+02  0.35285964642E+02  0.00000000000E+00 0. -1.
      99926    2    1    2    0    0  0.00000000000E+00 -0.14210854715E-13  0.14194073112E+04  0.14899792405E+04  0.45312362771E+03 0.  0.
      99925    2    3    3    0    0 -0.20051749791E+02 -0.10392509378E+03  0.10083503526E+04  0.10474661569E+04  0.26308253187E+03 0.  0.
         25    1    4    4    0    0  0.89263903434E+01 -0.75777619201E+02  0.42702991510E+03  0.45146869715E+03  0.12509000000E+03 0.  0.
         25    1    4    4    0    0 -0.28978140135E+02 -0.28147474582E+02  0.58132043749E+03  0.59599745979E+03  0.12509000000E+03 0.  0.
         25    1    3    3    0    0  0.20051749791E+02  0.10392509378E+03  0.41105695862E+03  0.44251308356E+03  0.12509000000E+03 0.  0.
<mgrwt>
<rscale>  2 0.45312363E+03</rscale>
<asrwt>0</asrwt>
<pdfrwt beam="1">  1       21 0.21392544E+00 0.45312363E+03</pdfrwt>
<pdfrwt beam="2">  1       21 0.51891134E-02 0.45312363E+03</pdfrwt>
<totfact> 0.24379188E+04</totfact>
</mgrwt>
</event>
<event>
 7    0  0.4714446E-002  0.4521995E+03  0.7546771E-02  0.1027068E+00
         21   -1    0    0  502  501  0.00000000000E+00  0.00000000000E+00  0.85129224672E+02  0.85129224672E+02  0.00000000000E+00 0. -1.
         21   -1    0    0  501  502 -0.00000000000E+00 -0.00000000000E+00 -0.60051163571E+03  0.60051163571E+03  0.00000000000E+00 0. -1.
      99926    2    1    2    0    0  0.88817841970E-15  0.71054273576E-14 -0.51538241103E+03  0.68564086038E+03  0.45219946906E+03 0.  0.
      99925    2    3    3    0    0  0.40901356017E+01 -0.46759620664E+02 -0.47674068319E+03  0.54655857335E+03  0.26313761374E+03 0.  0.
         25    1    4    4    0    0  0.40302805799E+02 -0.16351415667E+02 -0.26228224989E+03  0.29382166642E+03  0.12509000000E+03 0.  0.
         25    1    4    4    0    0 -0.36212670197E+02 -0.30408204997E+02 -0.21445843329E+03  0.25273690693E+03  0.12509000000E+03 0.  0.
         25    1    3    3    0    0 -0.40901356017E+01  0.46759620664E+02 -0.38641727849E+02  0.13908228703E+03  0.12509000000E+03 0.  0.
<mgrwt>
<rscale>  2 0.45219947E+03</rscale>
<asrwt>0</asrwt>
<pdfrwt beam="1">  1       21 0.12519004E-01 0.45219947E+03</pdfrwt>
<pdfrwt beam="2">  1       21 0.88310535E-01 0.45219947E+03</pdfrwt>
<totfact> 0.54889981E+04</totfact>
</mgrwt>
</event>
<event>
 7    0  0.4714446E-002  0.4586796E+03  0.7546771E-02  0.1025165E+00
         21   -1    0    0  502  501  0.00000000000E+00  0.00000000000E+00  0.41497170183E+03  0.41497170183E+03  0.00000000000E+00 0.  1.
         21   -1    0    0  501  502 -0.00000000000E+00 -0.00000000000E+00 -0.12674777631E+03  0.12674777631E+03  0.00000000000E+00 0.  1.
      99926    2    1    2    0    0  0.00000000000E+00  0.00000000000E+00  0.28822392552E+03  0.54171947815E+03  0.45867958507E+03 0.  0.
      99925    2    3    3    0    0  0.62264711604E+02  0.98400108416E+02  0.18624865946E+03  0.34270706990E+03  0.26305911306E+03 0.  0.
         25    1    4    4    0    0  0.30121497900E+02  0.65167942648E+01  0.91888360302E+02  0.15824270000E+03  0.12509000000E+03 0.  0.
         25    1    3    3    0    0 -0.62264711604E+02 -0.98400108416E+02  0.10197526606E+03  0.19901240825E+03  0.12509000000E+03 0.  0.
         25    1    4    4    0    0  0.32143213704E+02  0.91883314151E+02  0.94360299159E+02  0.18446436990E+03  0.12509000000E+03 0.  0.
<mgrwt>
<rscale>  2 0.45867959E+03</rscale>
<asrwt>0</asrwt>
<pdfrwt beam="1">  1       21 0.61025250E-01 0.45867959E+03</pdfrwt>
<pdfrwt beam="2">  1       21 0.18639379E-01 0.45867959E+03</pdfrwt>
<totfact> 0.60632107E+04</totfact>
</mgrwt>
</event>
<event>
 7    0  0.4714446E-002  0.4547190E+03  0.7546771E-02  0.1026324E+00
         21   -1    0    0  502  501  0.00000000000E+00  0.00000000000E+00  0.26585210278E+03  0.26585210278E+03  0.00000000000E+00 0. -1.
         21   -1    0    0  501  502 -0.00000000000E+00 -0.00000000000E+00 -0.19444020703E+03  0.19444020703E+03  0.00000000000E+00 0. -1.
      99926    2    1    2    0    0  0.00000000000E+00  0.71054273576E-14  0.71411895751E+02  0.46029230980E+03  0.45471898092E+03 0.  0.
      99925    2    3    3    0    0 -0.79676752455E+02 -0.55660594881E+02 -0.12822330482E+02  0.28087826444E+03  0.26321417244E+03 0.  0.
         25    1    3    3    0    0  0.79676752455E+02  0.55660594881E+02  0.84234226233E+02  0.17941404536E+03  0.12509000000E+03 0.  0.
         25    1    4    4    0    0 -0.75144684294E+02 -0.51690836179E+02 -0.15748384683E+02  0.15560908021E+03  0.12509000000E+03 0.  0.
         25    1    4    4    0    0 -0.45320681611E+01 -0.39697587018E+01  0.29260542008E+01  0.12526918424E+03  0.12509000000E+03 0.  0.
<mgrwt>
<rscale>  2 0.45471898E+03</rscale>
<asrwt>0</asrwt>
<pdfrwt beam="1">  1       21 0.39095898E-01 0.45471898E+03</pdfrwt>
<pdfrwt beam="2">  1       21 0.28594148E-01 0.45471898E+03</pdfrwt>
<totfact> 0.68312208E+04</totfact>
</mgrwt>
</event>
<event>
 7    0  0.4714446E-002  0.4668921E+03  0.7546771E-02  0.1022801E+00
         21   -1    0    0  502  501  0.00000000000E+00  0.00000000000E+00  0.21102741538E+03  0.21102741538E+03  0.00000000000E+00 0.  1.
         21   -1    0    0  501  502 -0.00000000000E+00 -0.00000000000E+00 -0.25824635016E+03  0.25824635016E+03  0.00000000000E+00 0.  1.
      99926    2    1    2    0    0  0.00000000000E+00 -0.17763568394E-14 -0.47218934785E+02  0.46927376554E+03  0.46689210661E+03 0.  0.
      99925    2    3    3    0    0  0.12131789486E+03  0.11425552576E+02 -0.49765905411E+02  0.29462391577E+03  0.26358685767E+03 0.  0.
         25    1    4    4    0    0  0.51100729650E+02  0.46141735488E+02 -0.23068510806E+02  0.14463750764E+03  0.12509000000E+03 0.  0.
         25    1    3    3    0    0 -0.12131789486E+03 -0.11425552576E+02  0.25469706260E+01  0.17464984977E+03  0.12509000000E+03 0.  0.
         25    1    4    4    0    0  0.70217165207E+02 -0.34716182912E+02 -0.26697394605E+02  0.14998640813E+03  0.12509000000E+03 0.  0.
<mgrwt>
<rscale>  2 0.46689211E+03</rscale>
<asrwt>0</asrwt>
<pdfrwt beam="1">  1       21 0.31033444E-01 0.46689211E+03</pdfrwt>
<pdfrwt beam="2">  1       21 0.37977404E-01 0.46689211E+03</pdfrwt>
<totfact> 0.61469776E+04</totfact>
</mgrwt>
</event>
<event>
 7    0  0.4714446E-002  0.4570792E+03  0.7546771E-02  0.1025632E+00
         21   -1    0    0  502  501  0.00000000000E+00  0.00000000000E+00  0.12456222785E+04  0.12456222785E+04  0.00000000000E+00 0. -1.
         21   -1    0    0  501  502 -0.00000000000E+00 -0.00000000000E+00 -0.41931120338E+02  0.41931120338E+02  0.00000000000E+00 0. -1.
      99926    2    1    2    0    0  0.00000000000E+00  0.00000000000E+00  0.12036911582E+04  0.12875533989E+04  0.45707915138E+03 0.  0.
      99925    2    3    3    0    0  0.45105757478E+02 -0.43654851419E+02  0.48423658616E+03  0.55461229296E+03  0.26300085308E+03 0.  0.
         25    1    4    4    0    0  0.10904847071E+02 -0.56471998743E+02  0.28547726205E+03  0.31694286170E+03  0.12509000000E+03 0.  0.
         25    1    4    4    0    0  0.34200910407E+02  0.12817147324E+02  0.19875932411E+03  0.23766943127E+03  0.12509000000E+03 0.  0.
         25    1    3    3    0    0 -0.45105757478E+02  0.43654851419E+02  0.71945457204E+03  0.73294110591E+03  0.12509000000E+03 0.  0.
<mgrwt>
<rscale>  2 0.45707915E+03</rscale>
<asrwt>0</asrwt>
<pdfrwt beam="1">  1       21 0.18317972E+00 0.45707915E+03</pdfrwt>
<pdfrwt beam="2">  1       21 0.61663421E-02 0.45707915E+03</pdfrwt>
<totfact> 0.29006344E+04</totfact>
</mgrwt>
</event>
<event>
 7    0  0.4714446E-002  0.4629015E+03  0.7546771E-02  0.1023943E+00
         21   -1    0    0  502  501  0.00000000000E+00  0.00000000000E+00  0.74952400691E+03  0.74952400691E+03  0.00000000000E+00 0.  1.
         21   -1    0    0  501  502 -0.00000000000E+00 -0.00000000000E+00 -0.71471305964E+02  0.71471305964E+02  0.00000000000E+00 0.  1.
      99926    2    1    2    0    0  0.00000000000E+00  0.35527136788E-14  0.67805270094E+03  0.82099531287E+03  0.46290154299E+03 0.  0.
      99925    2    3    3    0    0 -0.11870499715E+03  0.16499578465E+02  0.40602509776E+03  0.49849006108E+03  0.26319735665E+03 0.  0.
         25    1    4    4    0    0 -0.43199588472E+02 -0.25364770557E+02  0.15863010499E+03  0.20813599962E+03  0.12509000000E+03 0.  0.
         25    1    3    3    0    0  0.11870499715E+03 -0.16499578465E+02  0.27202760319E+03  0.32250525179E+03  0.12509000000E+03 0.  0.
         25    1    4    4    0    0 -0.75505408677E+02  0.41864349022E+02  0.24739499277E+03  0.29035406146E+03  0.12509000000E+03 0.  0.
<mgrwt>
<rscale>  2 0.46290154E+03</rscale>
<asrwt>0</asrwt>
<pdfrwt beam="1">  1       21 0.11022411E+00 0.46290154E+03</pdfrwt>
<pdfrwt beam="2">  1       21 0.10510487E-01 0.46290154E+03</pdfrwt>
<totfact> 0.43975447E+04</totfact>
</mgrwt>
</event>
<event>
 7    0  0.4714446E-002  0.4561084E+03  0.7546771E-02  0.1025916E+00
         21   -1    0    0  502  501  0.00000000000E+00  0.00000000000E+00  0.77093306644E+03  0.77093306644E+03  0.00000000000E+00 0.  1.
         21   -1    0    0  501  502 -0.00000000000E+00 -0.00000000000E+00 -0.67462050271E+02  0.67462050271E+02  0.00000000000E+00 0.  1.
      99926    2    1    2    0    0  0.17763568394E-14  0.00000000000E+00  0.70347101617E+03  0.83839511671E+03  0.45610843133E+03 0.  0.
      99925    2    3    3    0    0  0.86548183679E+01 -0.11367030170E+03  0.42010310131E+03  0.50833341545E+03  0.26252695511E+03 0.  0.
         25    1    4    4    0    0 -0.28458107241E+02 -0.67670905474E+02  0.17933553196E+03  0.23064682187E+03  0.12509000000E+03 0.  0.
         25    1    3    3    0    0 -0.86548183679E+01  0.11367030170E+03  0.28336791485E+03  0.33006170126E+03  0.12509000000E+03 0.  0.
         25    1    4    4    0    0  0.37112925609E+02 -0.45999396229E+02  0.24076756936E+03  0.27768659358E+03  0.12509000000E+03 0.  0.
<mgrwt>
<rscale>  2 0.45610843E+03</rscale>
<asrwt>0</asrwt>
<pdfrwt beam="1">  1       21 0.11337250E+00 0.45610843E+03</pdfrwt>
<pdfrwt beam="2">  1       21 0.99208902E-02 0.45610843E+03</pdfrwt>
<totfact> 0.45565510E+04</totfact>
</mgrwt>
</event>
<event>
 7    0  0.4714446E-002  0.4540206E+03  0.7546771E-02  0.1026530E+00
         21   -1    0    0  502  501  0.00000000000E+00  0.00000000000E+00  0.19531578264E+03  0.19531578264E+03  0.00000000000E+00 0.  1.
         21   -1    0    0  501  502 -0.00000000000E+00 -0.00000000000E+00 -0.26384800009E+03  0.26384800009E+03  0.00000000000E+00 0.  1.
      99926    2    1    2    0    0  0.00000000000E+00  0.14210854715E-13 -0.68532217453E+02  0.45916378273E+03  0.45402061027E+03 0.  0.
      99925    2    3    3    0    0  0.19527678062E+02 -0.94292847635E+02 -0.10152414765E+03  0.29789243722E+03  0.26298342205E+03 0.  0.
         25    1    3    3    0    0 -0.19527678062E+02  0.94292847635E+02  0.32991930199E+02  0.16127134551E+03  0.12509000000E+03 0.  0.
         25    1    4    4    0    0  0.35588554337E+02 -0.14668430434E+02 -0.45254878651E+02  0.13848184066E+03  0.12509000000E+03 0.  0.
         25    1    4    4    0    0 -0.16060876275E+02 -0.79624417202E+02 -0.56269269001E+02  0.15941059656E+03  0.12509000000E+03 0.  0.
<mgrwt>
<rscale>  2 0.45402061E+03</rscale>
<asrwt>0</asrwt>
<pdfrwt beam="1">  1       21 0.28722909E-01 0.45402061E+03</pdfrwt>
<pdfrwt beam="2">  1       21 0.38801176E-01 0.45402061E+03</pdfrwt>
<totfact> 0.68777152E+04</totfact>
</mgrwt>
</event>
<event>
 7    0  0.4714446E-002  0.4549198E+03  0.7546771E-02  0.1026265E+00
         21   -1    0    0  502  501  0.00000000000E+00  0.00000000000E+00  0.66758494716E+03  0.66758494716E+03  0.00000000000E+00 0. -1.
         21   -1    0    0  501  502 -0.00000000000E+00 -0.00000000000E+00 -0.77500272668E+02  0.77500272668E+02  0.00000000000E+00 0. -1.
      99926    2    1    2    0    0  0.00000000000E+00 -0.71054273576E-14  0.59008467449E+03  0.74508521983E+03  0.45491984100E+03 0.  0.
      99925    2    3    3    0    0  0.88726963326E+02 -0.57979781242E+02  0.43633168095E+03  0.52031507017E+03  0.26288458949E+03 0.  0.
         25    1    3    3    0    0 -0.88726963326E+02  0.57979781242E+02  0.15375299354E+03  0.22477014966E+03  0.12509000000E+03 0.  0.
         25    1    4    4    0    0  0.73166246291E+02 -0.60101805647E+00  0.21928182443E+03  0.26284156339E+03  0.12509000000E+03 0.  0.
         25    1    4    4    0    0  0.15560717035E+02 -0.57378763186E+02  0.21704985652E+03  0.25747350678E+03  0.12509000000E+03 0.  0.
<mgrwt>
<rscale>  2 0.45491984E+03</rscale>
<asrwt>0</asrwt>
<pdfrwt beam="1">  1       21 0.98174254E-01 0.45491984E+03</pdfrwt>
<pdfrwt beam="2">  1       21 0.11397099E-01 0.45491984E+03</pdfrwt>
<totfact> 0.50554375E+04</totfact>
</mgrwt>
</event>
<event>
 7    0  0.4714446E-002  0.4577494E+03  0.7546771E-02  0.1025436E+00
         21   -1    0    0  502  501  0.00000000000E+00  0.00000000000E+00  0.61562590464E+03  0.61562590464E+03  0.00000000000E+00 0. -1.
         21   -1    0    0  501  502 -0.00000000000E+00 -0.00000000000E+00 -0.85090046355E+02  0.85090046355E+02  0.00000000000E+00 0. -1.
      99926    2    1    2    0    0 -0.33306690739E-15  0.17763568394E-14  0.53053585829E+03  0.70071595100E+03  0.45774943698E+03 0.  0.
      99925    2    3    3    0    0  0.74635332030E+00 -0.11338148160E+02  0.50935395283E+03  0.57333741330E+03  0.26295480520E+03 0.  0.
         25    1    3    3    0    0 -0.74635332030E+00  0.11338148160E+02  0.21181905457E+02  0.12737853770E+03  0.12509000000E+03 0.  0.
         25    1    4    4    0    0  0.12537425508E+02  0.16616650491E+02  0.18417222228E+03  0.22360728001E+03  0.12509000000E+03 0.  0.
         25    1    4    4    0    0 -0.11791072188E+02 -0.27954798651E+02  0.32518173055E+03  0.34973013329E+03  0.12509000000E+03 0.  0.
<mgrwt>
<rscale>  2 0.45774944E+03</rscale>
<asrwt>0</asrwt>
<pdfrwt beam="1">  1       21 0.90533219E-01 0.45774944E+03</pdfrwt>
<pdfrwt beam="2">  1       21 0.12513242E-01 0.45774944E+03</pdfrwt>
<totfact> 0.51735564E+04</totfact>
</mgrwt>
</event>
<event>
 7    0  0.4714446E-002  0.4593855E+03  0.7546771E-02  0.1024960E+00
         21   -1    0    0  502  501  0.00000000000E+00  0.00000000000E+00  0.42537420867E+02  0.42537420867E+02  0.00000000000E+00 0.  1.
         21   -1    0    0  501  502 -0.00000000000E+00 -0.00000000000E+00 -0.12402905856E+04  0.12402905856E+04  0.00000000000E+00 0.  1.
      99926    2    1    2    0    0  0.14210854715E-13 -0.35527136788E-14 -0.11977531647E+04  0.12828280064E+04  0.45938551408E+03 0.  0.
      99925    2    3    3    0    0  0.11353560766E+03 -0.24946864844E+02 -0.70722377142E+03  0.76342520124E+03  0.26294466101E+03 0.  0.
         25    1    4    4    0    0  0.17432403764E+02  0.21361162816E+01 -0.34576974215E+03  0.36812046178E+03  0.12509000000E+03 0.  0.
         25    1    3    3    0    0 -0.11353560766E+03  0.24946864844E+02 -0.49052939328E+03  0.51940280520E+03  0.12509000000E+03 0.  0.
         25    1    4    4    0    0  0.96103203895E+02 -0.27082981125E+02 -0.36145402927E+03  0.39530473946E+03  0.12509000000E+03 0.  0.
<mgrwt>
<rscale>  2 0.45938551E+03</rscale>
<asrwt>0</asrwt>
<pdfrwt beam="1">  1       21 0.62555032E-02 0.45938551E+03</pdfrwt>
<pdfrwt beam="2">  1       21 0.18239567E+00 0.45938551E+03</pdfrwt>
<totfact> 0.28628039E+04</totfact>
</mgrwt>
</event>
<event>
 7    0  0.4714446E-002  0.4661736E+03  0.7546771E-02  0.1023006E+00
         21   -1    0    0  502  501  0.00000000000E+00  0.00000000000E+00  0.18610189321E+03  0.18610189321E+03  0.00000000000E+00 0. -1.
         21   -1    0    0  501  502 -0.00000000000E+00 -0.00000000000E+00 -0.29193389625E+03  0.29193389625E+03  0.00000000000E+00 0. -1.
      99926    2    1    2    0    0  0.00000000000E+00  0.00000000000E+00 -0.10583200304E+03  0.47803578946E+03  0.46617357619E+03 0.  0.
      99925    2    3    3    0    0 -0.36934407202E+02 -0.75464606173E+02 -0.15853965585E+03  0.31839662765E+03  0.26302572650E+03 0.  0.
         25    1    4    4    0    0  0.84663990757E+01 -0.26756147257E+02 -0.10901492065E+03  0.16828348806E+03  0.12509000000E+03 0.  0.
         25    1    4    4    0    0 -0.45400806278E+02 -0.48708458917E+02 -0.49524735194E+02  0.15011313959E+03  0.12509000000E+03 0.  0.
         25    1    3    3    0    0  0.36934407202E+02  0.75464606173E+02  0.52707652809E+02  0.15963916181E+03  0.12509000000E+03 0.  0.
<mgrwt>
<rscale>  2 0.46617358E+03</rscale>
<asrwt>0</asrwt>
<pdfrwt beam="1">  1       21 0.27367926E-01 0.46617358E+03</pdfrwt>
<pdfrwt beam="2">  1       21 0.42931455E-01 0.46617358E+03</pdfrwt>
<totfact> 0.61231724E+04</totfact>
</mgrwt>
</event>
<event>
 7    0  0.4714446E-002  0.4590871E+03  0.7546771E-02  0.1025046E+00
         21   -1    0    0  502  501  0.00000000000E+00  0.00000000000E+00  0.42214920450E+03  0.42214920450E+03  0.00000000000E+00 0.  1.
         21   -1    0    0  501  502 -0.00000000000E+00 -0.00000000000E+00 -0.12481427254E+03  0.12481427254E+03  0.00000000000E+00 0.  1.
      99926    2    1    2    0    0  0.00000000000E+00  0.00000000000E+00  0.29733493196E+03  0.54696347704E+03  0.45908711967E+03 0.  0.
      99925    2    3    3    0    0 -0.66225134137E+02 -0.26906362706E+02  0.29670958022E+03  0.40288842746E+03  0.26300720378E+03 0.  0.
         25    1    3    3    0    0  0.66225134137E+02  0.26906362706E+02  0.62535174020E+00  0.14407504958E+03  0.12509000000E+03 0.  0.
         25    1    4    4    0    0 -0.15428565380E+02 -0.49113826558E+02  0.15913841051E+03  0.20886060038E+03  0.12509000000E+03 0.  0.
         25    1    4    4    0    0 -0.50796568757E+02  0.22207463852E+02  0.13757116971E+03  0.19402782709E+03  0.12509000000E+03 0.  0.
<mgrwt>
<rscale>  2 0.45908712E+03</rscale>
<asrwt>0</asrwt>
<pdfrwt beam="1">  1       21 0.62080765E-01 0.45908712E+03</pdfrwt>
<pdfrwt beam="2">  1       21 0.18355040E-01 0.45908712E+03</pdfrwt>
<totfact> 0.60100278E+04</totfact>
</mgrwt>
</event>
<event>
 7    0  0.4714446E-002  0.4619009E+03  0.7546771E-02  0.1024231E+00
         21   -1    0    0  502  501  0.00000000000E+00  0.00000000000E+00  0.65981689533E+03  0.65981689533E+03  0.00000000000E+00 0.  1.
         21   -1    0    0  501  502 -0.00000000000E+00 -0.00000000000E+00 -0.80837750333E+02  0.80837750333E+02  0.00000000000E+00 0.  1.
      99926    2    1    2    0    0  0.00000000000E+00 -0.88817841970E-15  0.57897914499E+03  0.74065464566E+03  0.46190091340E+03 0.  0.
      99925    2    3    3    0    0 -0.11883604821E+03  0.31715564540E+01  0.38240103591E+03  0.47907764706E+03  0.26296915128E+03 0.  0.
         25    1    4    4    0    0 -0.24350780005E+02 -0.22750680593E+02  0.18153601918E+03  0.22296499348E+03  0.12509000000E+03 0.  0.
         25    1    4    4    0    0 -0.94485268208E+02  0.25922237047E+02  0.20086501672E+03  0.25611265358E+03  0.12509000000E+03 0.  0.
         25    1    3    3    0    0  0.11883604821E+03 -0.31715564540E+01  0.19657810909E+03  0.26157699860E+03  0.12509000000E+03 0.  0.
<mgrwt>
<rscale>  2 0.46190091E+03</rscale>
<asrwt>0</asrwt>
<pdfrwt beam="1">  1       21 0.97031894E-01 0.46190091E+03</pdfrwt>
<pdfrwt beam="2">  1       21 0.11887905E-01 0.46190091E+03</pdfrwt>
<totfact> 0.48088202E+04</totfact>
</mgrwt>
</event>
<event>
 7    0  0.4714446E-002  0.4582877E+03  0.7546771E-02  0.1025279E+00
         21   -1    0    0  502  501  0.00000000000E+00  0.00000000000E+00  0.99200552210E+03  0.99200552210E+03  0.00000000000E+00 0. -1.
         21   -1    0    0  501  502 -0.00000000000E+00 -0.00000000000E+00 -0.52930054710E+02  0.52930054710E+02  0.00000000000E+00 0. -1.
      99926    2    1    2    0    0  0.00000000000E+00  0.00000000000E+00  0.93907546739E+03  0.10449355768E+04  0.45828771119E+03 0.  0.
      99925    2    3    3    0    0 -0.26862060963E+02 -0.43276525749E+02  0.82748479774E+03  0.86973736434E+03  0.26290219557E+03 0.  0.
         25    1    3    3    0    0  0.26862060963E+02  0.43276525749E+02  0.11159066965E+03  0.17519821247E+03  0.12509000000E+03 0.  0.
         25    1    4    4    0    0  0.60646892693E+01  0.86004139943E+01  0.45626320633E+03  0.47321704230E+03  0.12509000000E+03 0.  0.
         25    1    4    4    0    0 -0.32926750232E+02 -0.51876939743E+02  0.37122159141E+03  0.39652032204E+03  0.12509000000E+03 0.  0.
<mgrwt>
<rscale>  2 0.45828771E+03</rscale>
<asrwt>0</asrwt>
<pdfrwt beam="1">  1       21 0.14588315E+00 0.45828771E+03</pdfrwt>
<pdfrwt beam="2">  1       21 0.77838322E-02 0.45828771E+03</pdfrwt>
<totfact> 0.36517585E+04</totfact>
</mgrwt>
</event>
<event>
 7    0  0.4714446E-002  0.4566252E+03  0.7546771E-02  0.1025765E+00
         21   -1    0    0  502  501  0.00000000000E+00  0.00000000000E+00  0.56421978324E+03  0.56421978324E+03  0.00000000000E+00 0. -1.
         21   -1    0    0  501  502 -0.00000000000E+00 -0.00000000000E+00 -0.92387135623E+02  0.92387135623E+02  0.00000000000E+00 0. -1.
      99926    2    1    2    0    0  0.00000000000E+00 -0.14210854715E-13  0.47183264762E+03  0.65660691887E+03  0.45662522767E+03 0.  0.
      99925    2    3    3    0    0 -0.73902483894E+02  0.82307057142E+02  0.34007632151E+03  0.44390227305E+03  0.26298535090E+03 0.  0.
         25    1    4    4    0    0 -0.13725798830E+02  0.50421218415E+02  0.11615151442E+03  0.17851996869E+03  0.12509000000E+03 0.  0.
         25    1    3    3    0    0  0.73902483894E+02 -0.82307057142E+02  0.13175632612E+03  0.21270464582E+03  0.12509000000E+03 0.  0.
         25    1    4    4    0    0 -0.60176685065E+02  0.31885838727E+02  0.22392480709E+03  0.26538230436E+03  0.12509000000E+03 0.  0.
<mgrwt>
<rscale>  2 0.45662523E+03</rscale>
<asrwt>0</asrwt>
<pdfrwt beam="1">  1       21 0.82973496E-01 0.45662523E+03</pdfrwt>
<pdfrwt beam="2">  1       21 0.13586344E-01 0.45662523E+03</pdfrwt>
<totfact> 0.54618949E+04</totfact>
</mgrwt>
</event>
<event>
 7    0  0.4714446E-002  0.4554675E+03  0.7546771E-02  0.1026104E+00
         21   -1    0    0  502  501  0.00000000000E+00  0.00000000000E+00  0.35686342284E+03  0.35686342284E+03  0.00000000000E+00 0. -1.
         21   -1    0    0  501  502 -0.00000000000E+00 -0.00000000000E+00 -0.14532915725E+03  0.14532915725E+03  0.00000000000E+00 0. -1.
      99926    2    1    2    0    0  0.00000000000E+00  0.00000000000E+00  0.21153426559E+03  0.50219258009E+03  0.45546749826E+03 0.  0.
      99925    2    3    3    0    0 -0.76406101149E+02  0.64494151145E+01  0.40793441220E+02  0.27707166934E+03  0.26310666631E+03 0.  0.
         25    1    4    4    0    0 -0.69932359027E+02 -0.11650900360E+02 -0.10116267428E+01  0.14378737708E+03  0.12509000000E+03 0.  0.
         25    1    3    3    0    0  0.76406101149E+02 -0.64494151145E+01  0.17074082437E+03  0.22512091074E+03  0.12509000000E+03 0.  0.
         25    1    4    4    0    0 -0.64737421225E+01  0.18100315474E+02  0.41805067963E+02  0.13328429227E+03  0.12509000000E+03 0.  0.
<mgrwt>
<rscale>  2 0.45546750E+03</rscale>
<asrwt>0</asrwt>
<pdfrwt beam="1">  1       21 0.52479915E-01 0.45546750E+03</pdfrwt>
<pdfrwt beam="2">  1       21 0.21371935E-01 0.45546750E+03</pdfrwt>
<totfact> 0.64875818E+04</totfact>
</mgrwt>
</event>
<event>
 7    0  0.4714446E-002  0.4219927E+03  0.7546771E-02  0.1036420E+00
         21   -1    0    0  502  501  0.00000000000E+00  0.00000000000E+00  0.73506614199E+02  0.73506614199E+02  0.00000000000E+00 0. -1.
         21   -1    0    0  501  502 -0.00000000000E+00 -0.00000000000E+00 -0.60565233527E+03  0.60565233527E+03  0.00000000000E+00 0. -1.
      99926    2    1    2    0    0  0.00000000000E+00  0.00000000000E+00 -0.53214572107E+03  0.67915894947E+03  0.42199266604E+03 0.  0.
      99925    2    3    3    0    0  0.35181479518E+02 -0.17270476962E+02 -0.23709377190E+03  0.35629804028E+03  0.26305670673E+03 0.  0.
         25    1    4    4    0    0  0.48907625937E+01 -0.28003822318E+02 -0.16292309057E+03  0.20736338916E+03  0.12509000000E+03 0.  0.
         25    1    4    4    0    0  0.30290716924E+02  0.10733345356E+02 -0.74170681335E+02  0.14893465112E+03  0.12509000000E+03 0.  0.
         25    1    3    3    0    0 -0.35181479518E+02  0.17270476962E+02 -0.29505194917E+03  0.32286090919E+03  0.12509000000E+03 0.  0.
<mgrwt>
<rscale>  2 0.42199267E+03</rscale>
<asrwt>0</asrwt>
<pdfrwt beam="1">  1       21 0.10809796E-01 0.42199267E+03</pdfrwt>
<pdfrwt beam="2">  1       21 0.89066520E-01 0.42199267E+03</pdfrwt>
<totfact> 0.70712753E+04</totfact>
</mgrwt>
</event>
<event>
 7    0  0.4714446E-002  0.4600149E+03  0.7546771E-02  0.1024777E+00
         21   -1    0    0  502  501  0.00000000000E+00  0.00000000000E+00  0.18278431092E+03  0.18278431092E+03  0.00000000000E+00 0. -1.
         21   -1    0    0  501  502 -0.00000000000E+00 -0.00000000000E+00 -0.28943090599E+03  0.28943090599E+03  0.00000000000E+00 0. -1.
      99926    2    1    2    0    0  0.00000000000E+00 -0.71054273576E-14 -0.10664659507E+03  0.47221521691E+03  0.46001490720E+03 0.  0.
      99925    2    3    3    0    0 -0.23639378786E+02  0.57164014040E+02 -0.16966209498E+03  0.31909759526E+03  0.26308079386E+03 0.  0.
         25    1    4    4    0    0 -0.10412953276E+02 -0.11623208723E+00 -0.46153540796E+02  0.13373892677E+03  0.12509000000E+03 0.  0.
         25    1    4    4    0    0 -0.13226425510E+02  0.57280246127E+02 -0.12350855418E+03  0.18535866849E+03  0.12509000000E+03 0.  0.
         25    1    3    3    0    0  0.23639378786E+02 -0.57164014040E+02  0.63015499908E+02  0.15311762165E+03  0.12509000000E+03 0.  0.
<mgrwt>
<rscale>  2 0.46001491E+03</rscale>
<asrwt>0</asrwt>
<pdfrwt beam="1">  1       21 0.26880046E-01 0.46001491E+03</pdfrwt>
<pdfrwt beam="2">  1       21 0.42563368E-01 0.46001491E+03</pdfrwt>
<totfact> 0.64660636E+04</totfact>
</mgrwt>
</event>
<event>
 7    0  0.4714446E-002  0.4548694E+03  0.7546771E-02  0.1026280E+00
         21   -1    0    0  502  501  0.00000000000E+00  0.00000000000E+00  0.25875987643E+03  0.25875987643E+03  0.00000000000E+00 0. -1.
         21   -1    0    0  501  502 -0.00000000000E+00 -0.00000000000E+00 -0.19990172980E+03  0.19990172980E+03  0.00000000000E+00 0. -1.
      99926    2    1    2    0    0 -0.35527136788E-14  0.00000000000E+00  0.58858146630E+02  0.45866160624E+03  0.45486941820E+03 0.  0.
      99925    2    3    3    0    0 -0.26266258109E+02 -0.51642290571E+02 -0.60809794793E+02  0.27611088234E+03  0.26302575105E+03 0.  0.
         25    1    4    4    0    0  0.21418188365E+02 -0.40760353107E+01 -0.35049042783E+02  0.13172431953E+03  0.12509000000E+03 0.  0.
         25    1    3    3    0    0  0.26266258109E+02  0.51642290571E+02  0.11966794142E+03  0.18255072390E+03  0.12509000000E+03 0.  0.
         25    1    4    4    0    0 -0.47684446474E+02 -0.47566255261E+02 -0.25760752010E+02  0.14438656281E+03  0.12509000000E+03 0.  0.
<mgrwt>
<rscale>  2 0.45486942E+03</rscale>
<asrwt>0</asrwt>
<pdfrwt beam="1">  1       21 0.38052923E-01 0.45486942E+03</pdfrwt>
<pdfrwt beam="2">  1       21 0.29397313E-01 0.45486942E+03</pdfrwt>
<totfact> 0.68349350E+04</totfact>
</mgrwt>
</event>
<event>
 7    0  0.4714446E-002  0.4491655E+03  0.7546771E-02  0.1027971E+00
         21   -1    0    0  502  501  0.00000000000E+00  0.00000000000E+00  0.17354079017E+03  0.17354079017E+03  0.00000000000E+00 0.  1.
         21   -1    0    0  501  502 -0.00000000000E+00 -0.00000000000E+00 -0.29063727585E+03  0.29063727585E+03  0.00000000000E+00 0.  1.
      99926    2    1    2    0    0  0.00000000000E+00  0.00000000000E+00 -0.11709648568E+03  0.46417806603E+03  0.44916554857E+03 0.  0.
      99925    2    3    3    0    0  0.28895436856E+02 -0.45570677147E+02  0.21949819987E+02  0.26951678044E+03  0.26314609527E+03 0.  0.
         25    1    4    4    0    0  0.45161943016E+02 -0.34711301454E+02  0.36124487534E+02  0.14211601685E+03  0.12509000000E+03 0.  0.
         25    1    3    3    0    0 -0.28895436856E+02  0.45570677147E+02 -0.13904630567E+03  0.19466128559E+03  0.12509000000E+03 0.  0.
         25    1    4    4    0    0 -0.16266506160E+02 -0.10859375693E+02 -0.14174667547E+02  0.12740076359E+03  0.12509000000E+03 0.  0.
<mgrwt>
<rscale>  2 0.44916555E+03</rscale>
<asrwt>0</asrwt>
<pdfrwt beam="1">  1       21 0.25520705E-01 0.44916555E+03</pdfrwt>
<pdfrwt beam="2">  1       21 0.42740775E-01 0.44916555E+03</pdfrwt>
<totfact> 0.71105616E+04</totfact>
</mgrwt>
</event>
<event>
 7    0  0.4714446E-002  0.4543062E+03  0.7546771E-02  0.1026446E+00
         21   -1    0    0  502  501  0.00000000000E+00  0.00000000000E+00  0.43469756130E+03  0.43469756130E+03  0.00000000000E+00 0.  1.
         21   -1    0    0  501  502 -0.00000000000E+00 -0.00000000000E+00 -0.11869984690E+03  0.11869984690E+03  0.00000000000E+00 0.  1.
      99926    2    1    2    0    0  0.00000000000E+00 -0.14210854715E-13  0.31599771440E+03  0.55339740820E+03  0.45430621380E+03 0.  0.
      99925    2    3    3    0    0 -0.57014583311E+01  0.10261118155E+03  0.14465690876E+03  0.31767142112E+03  0.26349183923E+03 0.  0.
         25    1    3    3    0    0  0.57014583311E+01 -0.10261118155E+03  0.17134080564E+03  0.23572598707E+03  0.12509000000E+03 0.  0.
         25    1    4    4    0    0 -0.12958288945E+02  0.80592483560E+02  0.11093765776E+03  0.18605842541E+03  0.12509000000E+03 0.  0.
         25    1    4    4    0    0  0.72568306135E+01  0.22018697986E+02  0.33719251003E+02  0.13161299571E+03  0.12509000000E+03 0.  0.
<mgrwt>
<rscale>  2 0.45430621E+03</rscale>
<asrwt>0</asrwt>
<pdfrwt beam="1">  1       21 0.63926112E-01 0.45430621E+03</pdfrwt>
<pdfrwt beam="2">  1       21 0.17455860E-01 0.45430621E+03</pdfrwt>
<totfact> 0.61982066E+04</totfact>
</mgrwt>
</event>
<event>
 7    0  0.4714446E-002  0.4543385E+03  0.7546771E-02  0.1026436E+00
         21   -1    0    0  502  501  0.00000000000E+00  0.00000000000E+00  0.16309596641E+03  0.16309596641E+03  0.00000000000E+00 0. -1.
         21   -1    0    0  501  502 -0.00000000000E+00 -0.00000000000E+00 -0.31641414701E+03  0.31641414701E+03  0.00000000000E+00 0. -1.
      99926    2    1    2    0    0 -0.35527136788E-14  0.13322676296E-14 -0.15331818060E+03  0.47951011342E+03  0.45433851297E+03 0.  0.
      99925    2    3    3    0    0 -0.30468401673E+02 -0.16756664680E+01  0.17722015322E+02  0.26542277592E+03  0.26306662424E+03 0.  0.
         25    1    4    4    0    0  0.11773130272E+02 -0.26568206725E+02 -0.78265539299E+01  0.12865939239E+03  0.12509000000E+03 0.  0.
         25    1    4    4    0    0 -0.42241531945E+02  0.24892540257E+02  0.25548569252E+02  0.13676338352E+03  0.12509000000E+03 0.  0.
         25    1    3    3    0    0  0.30468401673E+02  0.16756664680E+01 -0.17104019592E+03  0.21408733750E+03  0.12509000000E+03 0.  0.
<mgrwt>
<rscale>  2 0.45433851E+03</rscale>
<asrwt>0</asrwt>
<pdfrwt beam="1">  1       21 0.23984701E-01 0.45433851E+03</pdfrwt>
<pdfrwt beam="2">  1       21 0.46531492E-01 0.45433851E+03</pdfrwt>
<totfact> 0.67087325E+04</totfact>
</mgrwt>
</event>
<event>
 7    0  0.4714446E-002  0.4549023E+03  0.7546771E-02  0.1026270E+00
         21   -1    0    0  502  501  0.00000000000E+00  0.00000000000E+00  0.16590838178E+03  0.16590838178E+03  0.00000000000E+00 0. -1.
         21   -1    0    0  501  502 -0.00000000000E+00 -0.00000000000E+00 -0.31182284524E+03  0.31182284524E+03  0.00000000000E+00 0. -1.
      99926    2    1    2    0    0  0.98532293435E-15  0.00000000000E+00 -0.14591446346E+03  0.47773122702E+03  0.45490229129E+03 0.  0.
      99925    2    3    3    0    0  0.38124606371E-01  0.48258642559E+02  0.15583714580E+02  0.26783108970E+03  0.26298620195E+03 0.  0.
         25    1    3    3    0    0 -0.38124606371E-01 -0.48258642559E+02 -0.16149817804E+03  0.20990013731E+03  0.12509000000E+03 0.  0.
         25    1    4    4    0    0  0.31167664343E+02  0.45345770508E+01 -0.97989964288E+01  0.12936581512E+03  0.12509000000E+03 0.  0.
         25    1    4    4    0    0 -0.31129539737E+02  0.43724065508E+02  0.25382711009E+02  0.13846527459E+03  0.12509000000E+03 0.  0.
<mgrwt>
<rscale>  2 0.45490229E+03</rscale>
<asrwt>0</asrwt>
<pdfrwt beam="1">  1       21 0.24398292E-01 0.45490229E+03</pdfrwt>
<pdfrwt beam="2">  1       21 0.45856300E-01 0.45490229E+03</pdfrwt>
<totfact> 0.66917498E+04</totfact>
</mgrwt>
</event>
<event>
 7    0  0.4714446E-002  0.4442596E+03  0.7546771E-02  0.1029448E+00
         21   -1    0    0  502  501  0.00000000000E+00  0.00000000000E+00  0.18833242165E+03  0.18833242165E+03  0.00000000000E+00 0.  1.
         21   -1    0    0  501  502 -0.00000000000E+00 -0.00000000000E+00 -0.26199237558E+03  0.26199237558E+03  0.00000000000E+00 0.  1.
      99926    2    1    2    0    0  0.00000000000E+00  0.14210854715E-13 -0.73659953933E+02  0.45032479723E+03  0.44425964727E+03 0.  0.
      99925    2    3    3    0    0  0.28661424073E+02 -0.81617033682E+02  0.93102158222E+01  0.27707822559E+03  0.26306433730E+03 0.  0.
         25    1    3    3    0    0 -0.28661424073E+02  0.81617033682E+02 -0.82970169755E+02  0.17324657164E+03  0.12509000000E+03 0.  0.
         25    1    4    4    0    0  0.30547291006E+02 -0.80412215636E+02  0.49745901180E+01  0.15189310734E+03  0.12509000000E+03 0.  0.
         25    1    4    4    0    0 -0.18858669326E+01 -0.12048180464E+01  0.43356257042E+01  0.12518511825E+03  0.12509000000E+03 0.  0.
<mgrwt>
<rscale>  2 0.44425965E+03</rscale>
<asrwt>0</asrwt>
<pdfrwt beam="1">  1       21 0.27695944E-01 0.44425965E+03</pdfrwt>
<pdfrwt beam="2">  1       21 0.38528290E-01 0.44425965E+03</pdfrwt>
<totfact> 0.75122273E+04</totfact>
</mgrwt>
</event>
<event>
 7    0  0.4714446E-002  0.4518960E+03  0.7546771E-02  0.1027158E+00
         21   -1    0    0  502  501  0.00000000000E+00  0.00000000000E+00  0.33867707305E+02  0.33867707305E+02  0.00000000000E+00 0. -1.
         21   -1    0    0  501  502 -0.00000000000E+00 -0.00000000000E+00 -0.15074090382E+04  0.15074090382E+04  0.00000000000E+00 0. -1.
      99926    2    1    2    0    0  0.14210854715E-13  0.00000000000E+00 -0.14735413309E+04  0.15412767455E+04  0.45189595304E+03 0.  0.
      99925    2    3    3    0    0  0.64799241156E+02 -0.85569222783E+02 -0.10154157665E+04  0.10544014284E+04  0.26300600723E+03 0.  0.
         25    1    3    3    0    0 -0.64799241156E+02  0.85569222783E+02 -0.45812556442E+03  0.48687531711E+03  0.12509000000E+03 0.  0.
         25    1    4    4    0    0 -0.15783379962E+01 -0.16060178966E+02 -0.43211489529E+03  0.45014576676E+03  0.12509000000E+03 0.  0.
         25    1    4    4    0    0  0.66377579152E+02 -0.69509043817E+02 -0.58330087117E+03  0.60425566161E+03  0.12509000000E+03 0.  0.
<mgrwt>
<rscale>  2 0.45189595E+03</rscale>
<asrwt>0</asrwt>
<pdfrwt beam="1">  1       21 0.49805453E-02 0.45189595E+03</pdfrwt>
<pdfrwt beam="2">  1       21 0.22167780E+00 0.45189595E+03</pdfrwt>
<totfact> 0.23343101E+04</totfact>
</mgrwt>
</event>
<event>
 7    0  0.4714446E-002  0.4548503E+03  0.7546771E-02  0.1026285E+00
         21   -1    0    0  502  501  0.00000000000E+00  0.00000000000E+00  0.64882673857E+02  0.64882673857E+02  0.00000000000E+00 0. -1.
         21   -1    0    0  501  502 -0.00000000000E+00 -0.00000000000E+00 -0.79716519108E+03  0.79716519108E+03  0.00000000000E+00 0. -1.
      99926    2    1    2    0    0 -0.14210854715E-13  0.00000000000E+00 -0.73228251722E+03  0.86204786494E+03  0.45485034507E+03 0.  0.
      99925    2    3    3    0    0 -0.87989497473E+02 -0.27306526725E+02 -0.33650653581E+03  0.43687268500E+03  0.26293211328E+03 0.  0.
         25    1    4    4    0    0 -0.68692459515E+02 -0.29799554419E+02 -0.22538756772E+03  0.26842826084E+03  0.12509000000E+03 0.  0.
         25    1    3    3    0    0  0.87989497473E+02  0.27306526725E+02 -0.39577598141E+03  0.42517517993E+03  0.12509000000E+03 0.  0.
         25    1    4    4    0    0 -0.19297037958E+02  0.24930276944E+01 -0.11111896809E+03  0.16844442416E+03  0.12509000000E+03 0.  0.
<mgrwt>
<rscale>  2 0.45485035E+03</rscale>
<asrwt>0</asrwt>
<pdfrwt beam="1">  1       21 0.95415701E-02 0.45485035E+03</pdfrwt>
<pdfrwt beam="2">  1       21 0.11723017E+00 0.45485035E+03</pdfrwt>
<totfact> 0.44957853E+04</totfact>
</mgrwt>
</event>
<event>
 7    0  0.4714446E-002  0.4562984E+03  0.7546771E-02  0.1025860E+00
         21   -1    0    0  502  501  0.00000000000E+00  0.00000000000E+00  0.42580051017E+03  0.42580051017E+03  0.00000000000E+00 0.  1.
         21   -1    0    0  501  502 -0.00000000000E+00 -0.00000000000E+00 -0.12224514888E+03  0.12224514888E+03  0.00000000000E+00 0.  1.
      99926    2    1    2    0    0  0.00000000000E+00  0.00000000000E+00  0.30355536129E+03  0.54804565904E+03  0.45629835309E+03 0.  0.
      99925    2    3    3    0    0  0.33831359635E+02  0.10900113748E+03  0.18281047378E+03  0.34007295693E+03  0.26306679349E+03 0.  0.
         25    1    4    4    0    0  0.56414258824E+02  0.61575512379E+02  0.84389663519E+02  0.17246227336E+03  0.12509000000E+03 0.  0.
         25    1    3    3    0    0 -0.33831359635E+02 -0.10900113748E+03  0.12074488750E+03  0.20797270212E+03  0.12509000000E+03 0.  0.
         25    1    4    4    0    0 -0.22582899190E+02  0.47425625103E+02  0.98420810265E+02  0.16761068357E+03  0.12509000000E+03 0.  0.
<mgrwt>
<rscale>  2 0.45629835E+03</rscale>
<asrwt>0</asrwt>
<pdfrwt beam="1">  1       21 0.62617722E-01 0.45629835E+03</pdfrwt>
<pdfrwt beam="2">  1       21 0.17977228E-01 0.45629835E+03</pdfrwt>
<totfact> 0.61363026E+04</totfact>
</mgrwt>
</event>
<event>
 7    0  0.4714446E-002  0.4592691E+03  0.7546771E-02  0.1024993E+00
         21   -1    0    0  502  501  0.00000000000E+00  0.00000000000E+00  0.18515676353E+03  0.18515676353E+03  0.00000000000E+00 0.  1.
         21   -1    0    0  501  502 -0.00000000000E+00 -0.00000000000E+00 -0.28479670418E+03  0.28479670418E+03  0.00000000000E+00 0.  1.
      99926    2    1    2    0    0  0.17763568394E-14  0.00000000000E+00 -0.99639940647E+02  0.46995346772E+03  0.45926914119E+03 0.  0.
      99925    2    3    3    0    0 -0.10258312656E+02  0.19108027362E+02 -0.18024195438E+03  0.31957214438E+03  0.26299970277E+03 0.  0.
         25    1    4    4    0    0 -0.24818940608E+02  0.39276876389E+02 -0.68442618457E+02  0.14996850654E+03  0.12509000000E+03 0.  0.
         25    1    3    3    0    0  0.10258312656E+02 -0.19108027362E+02  0.80602013737E+02  0.15038132333E+03  0.12509000000E+03 0.  0.
         25    1    4    4    0    0  0.14560627953E+02 -0.20168849027E+02 -0.11179933593E+03  0.16960363785E+03  0.12509000000E+03 0.  0.
<mgrwt>
<rscale>  2 0.45926914E+03</rscale>
<asrwt>0</asrwt>
<pdfrwt beam="1">  1       21 0.27228936E-01 0.45926914E+03</pdfrwt>
<pdfrwt beam="2">  1       21 0.41881868E-01 0.45926914E+03</pdfrwt>
<totfact> 0.65203273E+04</totfact>
</mgrwt>
</event>
<event>
 7    0  0.4714446E-002  0.5045732E+03  0.7546771E-02  0.1012592E+00
         21   -1    0    0  502  501  0.00000000000E+00  0.00000000000E+00  0.32997889575E+03  0.32997889575E+03  0.00000000000E+00 0.  1.
         21   -1    0    0  501  502 -0.00000000000E+00 -0.00000000000E+00 -0.19288664703E+03  0.19288664703E+03  0.00000000000E+00 0.  1.
      99926    2    1    2    0    0  0.00000000000E+00 -0.14210854715E-13  0.13709224872E+03  0.52286554278E+03  0.50457317721E+03 0.  0.
      99925    2    3    3    0    0 -0.69620288287E+02  0.12343985932E+03  0.14815616771E+03  0.33351322087E+03  0.26305215273E+03 0.  0.
         25    1    3    3    0    0  0.69620288287E+02 -0.12343985932E+03 -0.11063918981E+02  0.18935232191E+03  0.12509000000E+03 0.  0.
         25    1    4    4    0    0 -0.18492668987E+02  0.55347307071E+02  0.11244382560E+03  0.17803489889E+03  0.12509000000E+03 0.  0.
         25    1    4    4    0    0 -0.51127619300E+02  0.68092552246E+02  0.35712342103E+02  0.15547832198E+03  0.12509000000E+03 0.  0.
<mgrwt>
<rscale>  2 0.50457318E+03</rscale>
<asrwt>0</asrwt>
<pdfrwt beam="1">  1       21 0.48526309E-01 0.50457318E+03</pdfrwt>
<pdfrwt beam="2">  1       21 0.28365683E-01 0.50457318E+03</pdfrwt>
<totfact> 0.43762921E+04</totfact>
</mgrwt>
</event>
<event>
 7    0  0.4714446E-002  0.4134266E+03  0.7546771E-02  0.1039227E+00
         21   -1    0    0  502  501  0.00000000000E+00  0.00000000000E+00  0.57126495933E+02  0.57126495933E+02  0.00000000000E+00 0. -1.
         21   -1    0    0  501  502 -0.00000000000E+00 -0.00000000000E+00 -0.74799611627E+03  0.74799611627E+03  0.00000000000E+00 0. -1.
      99926    2    1    2    0    0 -0.44408920985E-15  0.00000000000E+00 -0.69086962034E+03  0.80512261220E+03  0.41342664207E+03 0.  0.
      99925    2    3    3    0    0 -0.29387258947E+01  0.17304932844E+02 -0.32731228201E+03  0.42024660209E+03  0.26299387788E+03 0.  0.
         25    1    4    4    0    0  0.27335566695E+02 -0.16792556673E+02 -0.18201570153E+03  0.22317358013E+03  0.12509000000E+03 0.  0.
         25    1    4    4    0    0 -0.30274292589E+02  0.34097489517E+02 -0.14529658048E+03  0.19707302195E+03  0.12509000000E+03 0.  0.
         25    1    3    3    0    0  0.29387258947E+01 -0.17304932844E+02 -0.36355733833E+03  0.38487601012E+03  0.12509000000E+03 0.  0.
<mgrwt>
<rscale>  2 0.41342664E+03</rscale>
<asrwt>0</asrwt>
<pdfrwt beam="1">  1       21 0.84009554E-02 0.41342664E+03</pdfrwt>
<pdfrwt beam="2">  1       21 0.10999943E+00 0.41342664E+03</pdfrwt>
<totfact> 0.66780159E+04</totfact>
</mgrwt>
</event>
<event>
 7    0  0.4714446E-002  0.4589806E+03  0.7546771E-02  0.1025077E+00
         21   -1    0    0  502  501  0.00000000000E+00  0.00000000000E+00  0.97840039760E+03  0.97840039760E+03  0.00000000000E+00 0. -1.
         21   -1    0    0  501  502 -0.00000000000E+00 -0.00000000000E+00 -0.53828463518E+02  0.53828463518E+02  0.00000000000E+00 0. -1.
      99926    2    1    2    0    0  0.00000000000E+00  0.00000000000E+00  0.92457193408E+03  0.10322288611E+04  0.45898056651E+03 0.  0.
      99925    2    3    3    0    0 -0.57772414973E+02 -0.96963996914E+02  0.50575063185E+03  0.58078843323E+03  0.26228197408E+03 0.  0.
         25    1    4    4    0    0 -0.11883400430E+02 -0.20221331266E+02  0.17862285883E+03  0.21932567392E+03  0.12509000000E+03 0.  0.
         25    1    3    3    0    0  0.57772414973E+02  0.96963996914E+02  0.41882130223E+03  0.45144042789E+03  0.12509000000E+03 0.  0.
         25    1    4    4    0    0 -0.45889014543E+02 -0.76742665648E+02  0.32712777302E+03  0.36146275931E+03  0.12509000000E+03 0.  0.
<mgrwt>
<rscale>  2 0.45898057E+03</rscale>
<asrwt>0</asrwt>
<pdfrwt beam="1">  1       21 0.14388240E+00 0.45898057E+03</pdfrwt>
<pdfrwt beam="2">  1       21 0.79159511E-02 0.45898057E+03</pdfrwt>
<totfact> 0.36779994E+04</totfact>
</mgrwt>
</event>
<event>
 7    0  0.4714446E-002  0.4197841E+03  0.7546771E-02  0.1037137E+00
         21   -1    0    0  502  501  0.00000000000E+00  0.00000000000E+00  0.26123463667E+03  0.26123463667E+03  0.00000000000E+00 0.  1.
         21   -1    0    0  501  502 -0.00000000000E+00 -0.00000000000E+00 -0.16864022113E+03  0.16864022113E+03  0.00000000000E+00 0.  1.
      99926    2    1    2    0    0  0.00000000000E+00 -0.71054273576E-14  0.92594415543E+02  0.42987485780E+03  0.41978407257E+03 0.  0.
      99925    2    3    3    0    0  0.19322653017E+02 -0.63126579340E+02  0.98606136357E+02  0.28830516180E+03  0.26275152950E+03 0.  0.
         25    1    4    4    0    0  0.13389341694E+02 -0.41442530469E+02  0.91551637334E+02  0.16101542846E+03  0.12509000000E+03 0.  0.
         25    1    4    4    0    0  0.59333113229E+01 -0.21684048871E+02  0.70544990236E+01  0.12728973335E+03  0.12509000000E+03 0.  0.
         25    1    3    3    0    0 -0.19322653017E+02  0.63126579340E+02 -0.60117208144E+01  0.14156969600E+03  0.12509000000E+03 0.  0.
<mgrwt>
<rscale>  2 0.41978407E+03</rscale>
<asrwt>0</asrwt>
<pdfrwt beam="1">  1       21 0.38416859E-01 0.41978407E+03</pdfrwt>
<pdfrwt beam="2">  1       21 0.24800032E-01 0.41978407E+03</pdfrwt>
<totfact> 0.94231127E+04</totfact>
</mgrwt>
</event>
<event>
 7    0  0.4714446E-002  0.4515354E+03  0.7546771E-02  0.1027265E+00
         21   -1    0    0  502  501  0.00000000000E+00  0.00000000000E+00  0.28967402971E+03  0.28967402971E+03  0.00000000000E+00 0. -1.
         21   -1    0    0  501  502 -0.00000000000E+00 -0.00000000000E+00 -0.17596001237E+03  0.17596001237E+03  0.00000000000E+00 0. -1.
      99926    2    1    2    0    0  0.00000000000E+00  0.00000000000E+00  0.11371401734E+03  0.46563404208E+03  0.45153536230E+03 0.  0.
      99925    2    3    3    0    0 -0.76260839835E+02  0.41411164828E+02  0.14120772786E+03  0.31092782862E+03  0.26307012742E+03 0.  0.
         25    1    4    4    0    0 -0.41261929833E+02 -0.19476350467E+02  0.76383757431E+02  0.15350524936E+03  0.12509000000E+03 0.  0.
         25    1    3    3    0    0  0.76260839835E+02 -0.41411164828E+02 -0.27493710523E+02  0.15470621346E+03  0.12509000000E+03 0.  0.
         25    1    4    4    0    0 -0.34998910002E+02  0.60887515295E+02  0.64823970428E+02  0.15742257926E+03  0.12509000000E+03 0.  0.
<mgrwt>
<rscale>  2 0.45153536E+03</rscale>
<asrwt>0</asrwt>
<pdfrwt beam="1">  1       21 0.42599122E-01 0.45153536E+03</pdfrwt>
<pdfrwt beam="2">  1       21 0.25876473E-01 0.45153536E+03</pdfrwt>
<totfact> 0.69656683E+04</totfact>
</mgrwt>
</event>
<event>
 7    0  0.4714446E-002  0.4490338E+03  0.7546771E-02  0.1028011E+00
         21   -1    0    0  502  501  0.00000000000E+00  0.00000000000E+00  0.21325803246E+04  0.21325803246E+04  0.00000000000E+00 0. -1.
         21   -1    0    0  501  502 -0.00000000000E+00 -0.00000000000E+00 -0.23637012389E+02  0.23637012389E+02  0.00000000000E+00 0. -1.
      99926    2    1    2    0    0  0.00000000000E+00  0.00000000000E+00  0.21089433122E+04  0.21562173370E+04  0.44903375175E+03 0.  0.
      99925    2    3    3    0    0 -0.22396138175E+02  0.10170390225E+03  0.14623545564E+04  0.14894566618E+04  0.26297343596E+03 0.  0.
         25    1    4    4    0    0 -0.71469511834E+01  0.83465321787E+01  0.60915539452E+03  0.62196346057E+03  0.12509000000E+03 0.  0.
         25    1    4    4    0    0 -0.15249186991E+02  0.93357370070E+02  0.85319916183E+03  0.86749320119E+03  0.12509000000E+03 0.  0.
         25    1    3    3    0    0  0.22396138175E+02 -0.10170390225E+03  0.64658875589E+03  0.66676067526E+03  0.12509000000E+03 0.  0.
<mgrwt>
<rscale>  2 0.44903375E+03</rscale>
<asrwt>0</asrwt>
<pdfrwt beam="1">  1       21 0.31361462E+00 0.44903375E+03</pdfrwt>
<pdfrwt beam="2">  1       21 0.34760327E-02 0.44903375E+03</pdfrwt>
<totfact> 0.11863077E+04</totfact>
</mgrwt>
</event>
<event>
 7    0  0.4714446E-002  0.4478668E+03  0.7546771E-02  0.1028360E+00
         21   -1    0    0  502  501  0.00000000000E+00  0.00000000000E+00  0.10533270478E+04  0.10533270478E+04  0.00000000000E+00 0.  1.
         21   -1    0    0  501  502 -0.00000000000E+00 -0.00000000000E+00 -0.47607408604E+02  0.47607408604E+02  0.00000000000E+00 0.  1.
      99926    2    1    2    0    0  0.00000000000E+00  0.00000000000E+00  0.10057196392E+04  0.11009344564E+04  0.44786681572E+03 0.  0.
      99925    2    3    3    0    0 -0.75816785342E+02  0.59295537725E+02  0.52847829958E+03  0.59827060244E+03  0.26338992937E+03 0.  0.
         25    1    4    4    0    0 -0.65905632039E+02  0.10028992545E+01  0.24640848333E+03  0.28409365867E+03  0.12509000000E+03 0.  0.
         25    1    3    3    0    0  0.75816785342E+02 -0.59295537725E+02  0.47724133959E+03  0.50266385393E+03  0.12509000000E+03 0.  0.
         25    1    4    4    0    0 -0.99111533033E+01  0.58292638471E+02  0.28206981625E+03  0.31417694377E+03  0.12509000000E+03 0.  0.
<mgrwt>
<rscale>  2 0.44786682E+03</rscale>
<asrwt>0</asrwt>
<pdfrwt beam="1">  1       21 0.15490102E+00 0.44786682E+03</pdfrwt>
<pdfrwt beam="2">  1       21 0.70010902E-02 0.44786682E+03</pdfrwt>
<totfact> 0.37505777E+04</totfact>
</mgrwt>
</event>
<event>
 7    0  0.4714446E-002  0.4615447E+03  0.7546771E-02  0.1024334E+00
         21   -1    0    0  502  501  0.00000000000E+00  0.00000000000E+00  0.17977357610E+03  0.17977357610E+03  0.00000000000E+00 0. -1.
         21   -1    0    0  501  502 -0.00000000000E+00 -0.00000000000E+00 -0.29623865163E+03  0.29623865163E+03  0.00000000000E+00 0. -1.
      99926    2    1    2    0    0 -0.17763568394E-14  0.00000000000E+00 -0.11646507553E+03  0.47601222773E+03  0.46154471845E+03 0.  0.
      99925    2    3    3    0    0  0.10613479485E+02  0.11865535148E+03 -0.77321569834E+02  0.29889232337E+03  0.26299478593E+03 0.  0.
         25    1    4    4    0    0 -0.31770543605E+02  0.60768685072E+02 -0.21511530288E+02  0.14426522298E+03  0.12509000000E+03 0.  0.
         25    1    3    3    0    0 -0.10613479485E+02 -0.11865535148E+03 -0.39143505701E+02  0.17711990436E+03  0.12509000000E+03 0.  0.
         25    1    4    4    0    0  0.42384023090E+02  0.57886666403E+02 -0.55810039545E+02  0.15462710039E+03  0.12509000000E+03 0.  0.
<mgrwt>
<rscale>  2 0.46154472E+03</rscale>
<asrwt>0</asrwt>
<pdfrwt beam="1">  1       21 0.26437291E-01 0.46154472E+03</pdfrwt>
<pdfrwt beam="2">  1       21 0.43564508E-01 0.46154472E+03</pdfrwt>
<totfact> 0.63623004E+04</totfact>
</mgrwt>
</event>
<event>
 7    0  0.4714446E-002  0.4589128E+03  0.7546771E-02  0.1025097E+00
         21   -1    0    0  502  501  0.00000000000E+00  0.00000000000E+00  0.51051290477E+03  0.51051290477E+03  0.00000000000E+00 0.  1.
         21   -1    0    0  501  502 -0.00000000000E+00 -0.00000000000E+00 -0.10313205822E+03  0.10313205822E+03  0.00000000000E+00 0.  1.
      99926    2    1    2    0    0  0.00000000000E+00 -0.71054273576E-14  0.40738084655E+03  0.61364496299E+03  0.45891283101E+03 0.  0.
      99925    2    3    3    0    0  0.99422428341E+02  0.44531307383E+02  0.19912780628E+03  0.34740316785E+03  0.26300042055E+03 0.  0.
         25    1    4    4    0    0  0.26831920426E+02  0.47431610273E+02  0.69318804737E+02  0.15304350492E+03  0.12509000000E+03 0.  0.
         25    1    4    4    0    0  0.72590507915E+02 -0.29003028898E+01  0.12980900154E+03  0.19435966294E+03  0.12509000000E+03 0.  0.
         25    1    3    3    0    0 -0.99422428341E+02 -0.44531307383E+02  0.20825304027E+03  0.26624179513E+03  0.12509000000E+03 0.  0.
<mgrwt>
<rscale>  2 0.45891283E+03</rscale>
<asrwt>0</asrwt>
<pdfrwt beam="1">  1       21 0.75075426E-01 0.45891283E+03</pdfrwt>
<pdfrwt beam="2">  1       21 0.15166479E-01 0.45891283E+03</pdfrwt>
<totfact> 0.56092439E+04</totfact>
</mgrwt>
</event>
<event>
 7    0  0.4714446E-002  0.3946814E+03  0.7546771E-02  0.1045637E+00
         21   -1    0    0  502  501  0.00000000000E+00  0.00000000000E+00  0.86747948400E+02  0.86747948400E+02  0.00000000000E+00 0.  1.
         21   -1    0    0  501  502 -0.00000000000E+00 -0.00000000000E+00 -0.44892538941E+03  0.44892538941E+03  0.00000000000E+00 0.  1.
      99926    2    1    2    0    0 -0.35527136788E-14  0.00000000000E+00 -0.36217744101E+03  0.53567333781E+03  0.39468142351E+03 0.  0.
      99925    2    3    3    0    0 -0.24387101683E+02  0.22936805509E+02 -0.23501023420E+03  0.35417999258E+03  0.26285514868E+03 0.  0.
         25    1    4    4    0    0 -0.50180691467E+02  0.34726560778E+01 -0.13503177820E+03  0.19081732196E+03  0.12509000000E+03 0.  0.
         25    1    4    4    0    0  0.25793589783E+02  0.19464149431E+02 -0.99978456005E+02  0.16336267062E+03  0.12509000000E+03 0.  0.
         25    1    3    3    0    0  0.24387101683E+02 -0.22936805509E+02 -0.12716720680E+03  0.18149334523E+03  0.12509000000E+03 0.  0.
<mgrwt>
<rscale>  2 0.39468142E+03</rscale>
<asrwt>0</asrwt>
<pdfrwt beam="1">  1       21 0.12757051E-01 0.39468142E+03</pdfrwt>
<pdfrwt beam="2">  1       21 0.66018440E-01 0.39468142E+03</pdfrwt>
<totfact> 0.10445227E+05</totfact>
</mgrwt>
</event>
<event>
 7    0  0.4714446E-002  0.4503137E+03  0.7546771E-02  0.1027629E+00
         21   -1    0    0  502  501  0.00000000000E+00  0.00000000000E+00  0.10903415028E+04  0.10903415028E+04  0.00000000000E+00 0. -1.
         21   -1    0    0  501  502 -0.00000000000E+00 -0.00000000000E+00 -0.46495172813E+02  0.46495172813E+02  0.00000000000E+00 0. -1.
      99926    2    1    2    0    0  0.00000000000E+00  0.00000000000E+00  0.10438463300E+04  0.11368366756E+04  0.45031374218E+03 0.  0.
      99925    2    3    3    0    0 -0.10611400871E+03 -0.18886127479E+02  0.62295700056E+03  0.68471699635E+03  0.26295450535E+03 0.  0.
         25    1    3    3    0    0  0.10611400871E+03  0.18886127479E+02  0.42088932944E+03  0.45211967928E+03  0.12509000000E+03 0.  0.
         25    1    4    4    0    0 -0.84224700402E+02 -0.23921006862E+01  0.40160994455E+03  0.42899601159E+03  0.12509000000E+03 0.  0.
         25    1    4    4    0    0 -0.21889308309E+02 -0.16494026793E+02  0.22134705601E+03  0.25572098476E+03  0.12509000000E+03 0.  0.
<mgrwt>
<rscale>  2 0.45031374E+03</rscale>
<asrwt>0</asrwt>
<pdfrwt beam="1">  1       21 0.16034432E+00 0.45031374E+03</pdfrwt>
<pdfrwt beam="2">  1       21 0.68375261E-02 0.45031374E+03</pdfrwt>
<totfact> 0.35504198E+04</totfact>
</mgrwt>
</event>
<event>
 7    0  0.4714446E-002  0.4545819E+03  0.7546771E-02  0.1026364E+00
         21   -1    0    0  502  501  0.00000000000E+00  0.00000000000E+00  0.51281580304E+03  0.51281580304E+03  0.00000000000E+00 0. -1.
         21   -1    0    0  501  502 -0.00000000000E+00 -0.00000000000E+00 -0.10074020745E+03  0.10074020745E+03  0.00000000000E+00 0. -1.
      99926    2    1    2    0    0  0.00000000000E+00  0.00000000000E+00  0.41207559559E+03  0.61355601049E+03  0.45458187549E+03 0.  0.
      99925    2    3    3    0    0  0.79331806818E+02  0.76629734860E+02  0.22764844302E+03  0.36490658953E+03  0.26299687001E+03 0.  0.
         25    1    4    4    0    0  0.42021418083E+02  0.80400932003E+02  0.12755446190E+03  0.20036905523E+03  0.12509000000E+03 0.  0.
         25    1    3    3    0    0 -0.79331806818E+02 -0.76629734860E+02  0.18442715257E+03  0.24864942096E+03  0.12509000000E+03 0.  0.
         25    1    4    4    0    0  0.37310388734E+02 -0.37711971432E+01  0.10009398112E+03  0.16453753430E+03  0.12509000000E+03 0.  0.
<mgrwt>
<rscale>  2 0.45458188E+03</rscale>
<asrwt>0</asrwt>
<pdfrwt beam="1">  1       21 0.75414087E-01 0.45458188E+03</pdfrwt>
<pdfrwt beam="2">  1       21 0.14814737E-01 0.45458188E+03</pdfrwt>
<totfact> 0.58042968E+04</totfact>
</mgrwt>
</event>
<event>
 7    0  0.4714446E-002  0.4560313E+03  0.7546771E-02  0.1025939E+00
         21   -1    0    0  502  501  0.00000000000E+00  0.00000000000E+00  0.12468749040E+03  0.12468749040E+03  0.00000000000E+00 0.  1.
         21   -1    0    0  501  502 -0.00000000000E+00 -0.00000000000E+00 -0.41697157547E+03  0.41697157547E+03  0.00000000000E+00 0.  1.
      99926    2    1    2    0    0  0.00000000000E+00  0.00000000000E+00 -0.29228408506E+03  0.54165906587E+03  0.45603131171E+03 0.  0.
      99925    2    3    3    0    0 -0.42655475483E+02 -0.66822505325E+02 -0.28129096053E+03  0.39315622518E+03  0.26298759689E+03 0.  0.
         25    1    4    4    0    0 -0.90381366474E+01 -0.22881117759E+02 -0.18964601674E+03  0.22851335459E+03  0.12509000000E+03 0.  0.
         25    1    4    4    0    0 -0.33617338836E+02 -0.43941387567E+02 -0.91644943789E+02  0.16464287058E+03  0.12509000000E+03 0.  0.
         25    1    3    3    0    0  0.42655475483E+02  0.66822505325E+02 -0.10993124537E+02  0.14850284069E+03  0.12509000000E+03 0.  0.
<mgrwt>
<rscale>  2 0.45603131E+03</rscale>
<asrwt>0</asrwt>
<pdfrwt beam="1">  1       21 0.18336396E-01 0.45603131E+03</pdfrwt>
<pdfrwt beam="2">  1       21 0.61319348E-01 0.45603131E+03</pdfrwt>
<totfact> 0.61914221E+04</totfact>
</mgrwt>
</event>
<event>
 7    0  0.4714446E-002  0.4541497E+03  0.7546771E-02  0.1026492E+00
         21   -1    0    0  502  501  0.00000000000E+00  0.00000000000E+00  0.52055107745E+02  0.52055107745E+02  0.00000000000E+00 0. -1.
         21   -1    0    0  501  502 -0.00000000000E+00 -0.00000000000E+00 -0.99054597500E+03  0.99054597500E+03  0.00000000000E+00 0. -1.
      99926    2    1    2    0    0  0.00000000000E+00  0.35527136788E-14 -0.93849086726E+03  0.10426010827E+04  0.45414965575E+03 0.  0.
      99925    2    3    3    0    0 -0.38998814544E+02  0.25872358256E+02 -0.35677131780E+03  0.44574646998E+03  0.26308526344E+03 0.  0.
         25    1    4    4    0    0 -0.17868957011E+02  0.52424785615E+02 -0.16593349859E+03  0.21505602020E+03  0.12509000000E+03 0.  0.
         25    1    4    4    0    0 -0.21129857534E+02 -0.26552427359E+02 -0.19083781921E+03  0.23069044978E+03  0.12509000000E+03 0.  0.
         25    1    3    3    0    0  0.38998814544E+02 -0.25872358256E+02 -0.58171954946E+03  0.59685461277E+03  0.12509000000E+03 0.  0.
<mgrwt>
<rscale>  2 0.45414966E+03</rscale>
<asrwt>0</asrwt>
<pdfrwt beam="1">  1       21 0.76551636E-02 0.45414966E+03</pdfrwt>
<pdfrwt beam="2">  1       21 0.14566851E+00 0.45414966E+03</pdfrwt>
<totfact> 0.37800341E+04</totfact>
</mgrwt>
</event>
<event>
 7    0  0.4714446E-002  0.4424071E+03  0.7546771E-02  0.1030011E+00
         21   -1    0    0  502  501  0.00000000000E+00  0.00000000000E+00  0.64382905552E+02  0.64382905552E+02  0.00000000000E+00 0. -1.
         21   -1    0    0  501  502 -0.00000000000E+00 -0.00000000000E+00 -0.75999987196E+03  0.75999987196E+03  0.00000000000E+00 0. -1.
      99926    2    1    2    0    0  0.00000000000E+00 -0.35527136788E-14 -0.69561696641E+03  0.82438277751E+03  0.44240705228E+03 0.  0.
      99925    2    3    3    0    0 -0.85754423196E+02 -0.24785120255E+02 -0.53046879226E+03  0.59879565286E+03  0.26304176672E+03 0.  0.
         25    1    3    3    0    0  0.85754423196E+02  0.24785120255E+02 -0.16514817414E+03  0.22558712465E+03  0.12509000000E+03 0.  0.
         25    1    4    4    0    0 -0.37719602813E+02  0.25318570245E+02 -0.22335519916E+03  0.25999779139E+03  0.12509000000E+03 0.  0.
         25    1    4    4    0    0 -0.48034820383E+02 -0.50103690500E+02 -0.30711359310E+03  0.33879786147E+03  0.12509000000E+03 0.  0.
<mgrwt>
<rscale>  2 0.44240705E+03</rscale>
<asrwt>0</asrwt>
<pdfrwt beam="1">  1       21 0.94680743E-02 0.44240705E+03</pdfrwt>
<pdfrwt beam="2">  1       21 0.11176469E+00 0.44240705E+03</pdfrwt>
<totfact> 0.51512321E+04</totfact>
</mgrwt>
</event>
<event>
 7    0  0.4714446E-002  0.4631664E+03  0.7546771E-02  0.1023867E+00
         21   -1    0    0  502  501  0.00000000000E+00  0.00000000000E+00  0.77567939273E+03  0.77567939273E+03  0.00000000000E+00 0.  1.
         21   -1    0    0  501  502 -0.00000000000E+00 -0.00000000000E+00 -0.69140384207E+02  0.69140384207E+02  0.00000000000E+00 0.  1.
      99926    2    1    2    0    0  0.00000000000E+00  0.00000000000E+00  0.70653900852E+03  0.84481977693E+03  0.46316636853E+03 0.  0.
      99925    2    3    3    0    0  0.50390093757E+02 -0.93658714143E+02  0.54543258577E+03  0.61478955319E+03  0.26297979544E+03 0.  0.
         25    1    4    4    0    0 -0.55633177526E+01 -0.45316998685E+02  0.31977787931E+03  0.34639570013E+03  0.12509000000E+03 0.  0.
         25    1    3    3    0    0 -0.50390093757E+02  0.93658714143E+02  0.16110642275E+03  0.23003022374E+03  0.12509000000E+03 0.  0.
         25    1    4    4    0    0  0.55953411509E+02 -0.48341715458E+02  0.22565470646E+03  0.26839385306E+03  0.12509000000E+03 0.  0.
<mgrwt>
<rscale>  2 0.46316637E+03</rscale>
<asrwt>0</asrwt>
<pdfrwt beam="1">  1       21 0.11407049E+00 0.46316637E+03</pdfrwt>
<pdfrwt beam="2">  1       21 0.10167704E-01 0.46316637E+03</pdfrwt>
<totfact> 0.42859466E+04</totfact>
</mgrwt>
</event>
<event>
 7    0  0.4714446E-002  0.4530848E+03  0.7546771E-02  0.1026806E+00
         21   -1    0    0  502  501  0.00000000000E+00  0.00000000000E+00  0.30282424200E+03  0.30282424200E+03  0.00000000000E+00 0.  1.
         21   -1    0    0  501  502 -0.00000000000E+00 -0.00000000000E+00 -0.16947607676E+03  0.16947607676E+03  0.00000000000E+00 0.  1.
      99926    2    1    2    0    0  0.71054273576E-14  0.00000000000E+00  0.13334816525E+03  0.47230031876E+03  0.45308482421E+03 0.  0.
      99925    2    3    3    0    0  0.32000214299E+02 -0.10409979978E+03  0.10871605195E+03  0.30462494450E+03  0.26289997115E+03 0.  0.
         25    1    4    4    0    0 -0.10682090903E+01 -0.42638966708E+02  0.90615348196E+02  0.16024316516E+03  0.12509000000E+03 0.  0.
         25    1    4    4    0    0  0.33068423389E+02 -0.61460833072E+02  0.18100703755E+02  0.14438177933E+03  0.12509000000E+03 0.  0.
         25    1    3    3    0    0 -0.32000214299E+02  0.10409979978E+03  0.24632113295E+02  0.16767537426E+03  0.12509000000E+03 0.  0.
<mgrwt>
<rscale>  2 0.45308482E+03</rscale>
<asrwt>0</asrwt>
<pdfrwt beam="1">  1       21 0.44532977E-01 0.45308482E+03</pdfrwt>
<pdfrwt beam="2">  1       21 0.24922952E-01 0.45308482E+03</pdfrwt>
<totfact> 0.68297064E+04</totfact>
</mgrwt>
</event>
<event>
 7    0  0.4714446E-002  0.4514097E+03  0.7546771E-02  0.1027302E+00
         21   -1    0    0  502  501  0.00000000000E+00  0.00000000000E+00  0.40124122284E+02  0.40124122284E+02  0.00000000000E+00 0. -1.
         21   -1    0    0  501  502 -0.00000000000E+00 -0.00000000000E+00 -0.12696275015E+04  0.12696275015E+04  0.00000000000E+00 0. -1.
      99926    2    1    2    0    0  0.00000000000E+00  0.00000000000E+00 -0.12295033792E+04  0.13097516238E+04  0.45140974347E+03 0.  0.
      99925    2    3    3    0    0  0.22358186752E+02  0.76241912322E+02 -0.99600354268E+03  0.10331971093E+04  0.26298382451E+03 0.  0.
         25    1    4    4    0    0  0.34026929189E+02  0.11694167611E+02 -0.39818046450E+03  0.41891499839E+03  0.12509000000E+03 0.  0.
         25    1    4    4    0    0 -0.11668742437E+02  0.64547744711E+02 -0.59782307818E+03  0.61428211092E+03  0.12509000000E+03 0.  0.
         25    1    3    3    0    0 -0.22358186752E+02 -0.76241912322E+02 -0.23349983651E+03  0.27655451444E+03  0.12509000000E+03 0.  0.
<mgrwt>
<rscale>  2 0.45140974E+03</rscale>
<asrwt>0</asrwt>
<pdfrwt beam="1">  1       21 0.59006057E-02 0.45140974E+03</pdfrwt>
<pdfrwt beam="2">  1       21 0.18670994E+00 0.45140974E+03</pdfrwt>
<totfact> 0.29652060E+04</totfact>
</mgrwt>
</event>
<event>
 7    0  0.4714446E-002  0.4577652E+03  0.7546771E-02  0.1025431E+00
         21   -1    0    0  502  501  0.00000000000E+00  0.00000000000E+00  0.24988582484E+03  0.24988582484E+03  0.00000000000E+00 0. -1.
         21   -1    0    0  501  502 -0.00000000000E+00 -0.00000000000E+00 -0.20964469711E+03  0.20964469711E+03  0.00000000000E+00 0. -1.
      99926    2    1    2    0    0  0.71054273576E-14  0.00000000000E+00  0.40241127733E+02  0.45953052194E+03  0.45776517150E+03 0.  0.
      99925    2    3    3    0    0 -0.59150502295E+02  0.86728280039E+02  0.74231473346E+02  0.29272696031E+03  0.26297943869E+03 0.  0.
         25    1    4    4    0    0 -0.36313680699E+02  0.75177109534E+02  0.67564543662E+02  0.16487194080E+03  0.12509000000E+03 0.  0.
         25    1    3    3    0    0  0.59150502295E+02 -0.86728280039E+02 -0.33990345613E+02  0.16680356164E+03  0.12509000000E+03 0.  0.
         25    1    4    4    0    0 -0.22836821597E+02  0.11551170505E+02  0.66669296845E+01  0.12785501950E+03  0.12509000000E+03 0.  0.
<mgrwt>
<rscale>  2 0.45776517E+03</rscale>
<asrwt>0</asrwt>
<pdfrwt beam="1">  1       21 0.36747915E-01 0.45776517E+03</pdfrwt>
<pdfrwt beam="2">  1       21 0.30830103E-01 0.45776517E+03</pdfrwt>
<totfact> 0.66730745E+04</totfact>
</mgrwt>
</event>
<event>
 7    0  0.4714446E-002  0.4471355E+03  0.7546771E-02  0.1028580E+00
         21   -1    0    0  502  501  0.00000000000E+00  0.00000000000E+00  0.52235843419E+02  0.52235843419E+02  0.00000000000E+00 0.  1.
         21   -1    0    0  501  502 -0.00000000000E+00 -0.00000000000E+00 -0.95686303566E+03  0.95686303566E+03  0.00000000000E+00 0.  1.
      99926    2    1    2    0    0  0.71054273576E-14  0.00000000000E+00 -0.90462719224E+03  0.10090988791E+04  0.44713553965E+03 0.  0.
      99925    2    3    3    0    0 -0.51448426099E+02 -0.55823155652E+02 -0.73983557493E+03  0.78871977278E+03  0.26260052702E+03 0.  0.
         25    1    4    4    0    0  0.47897744951E+00 -0.49582796915E+02 -0.30828225324E+03  0.33636905169E+03  0.12509000000E+03 0.  0.
         25    1    4    4    0    0 -0.51927403548E+02 -0.62403587373E+01 -0.43155332169E+03  0.45235072109E+03  0.12509000000E+03 0.  0.
         25    1    3    3    0    0  0.51448426099E+02  0.55823155652E+02 -0.16479161731E+03  0.22037910629E+03  0.12509000000E+03 0.  0.
<mgrwt>
<rscale>  2 0.44713554E+03</rscale>
<asrwt>0</asrwt>
<pdfrwt beam="1">  1       21 0.76817414E-02 0.44713554E+03</pdfrwt>
<pdfrwt beam="2">  1       21 0.14071516E+00 0.44713554E+03</pdfrwt>
<totfact> 0.41292919E+04</totfact>
</mgrwt>
</event>
<event>
 7    0  0.4714446E-002  0.4624113E+03  0.7546771E-02  0.1024084E+00
         21   -1    0    0  502  501  0.00000000000E+00  0.00000000000E+00  0.64712674366E+02  0.64712674366E+02  0.00000000000E+00 0.  1.
         21   -1    0    0  501  502 -0.00000000000E+00 -0.00000000000E+00 -0.82605226056E+03  0.82605226056E+03  0.00000000000E+00 0.  1.
      99926    2    1    2    0    0 -0.71054273576E-14  0.00000000000E+00 -0.76133958620E+03  0.89076493493E+03  0.46241129289E+03 0.  0.
      99925    2    3    3    0    0  0.58832738582E+02  0.32623231178E+02 -0.28450898857E+03  0.39323052077E+03  0.26298158024E+03 0.  0.
         25    1    3    3    0    0 -0.58832738582E+02 -0.32623231178E+02 -0.47683059762E+03  0.49753441416E+03  0.12509000000E+03 0.  0.
         25    1    4    4    0    0  0.68433703266E+02  0.56379148905E+01 -0.13878839386E+03  0.19905949914E+03  0.12509000000E+03 0.  0.
         25    1    4    4    0    0 -0.96009646845E+01  0.26985316287E+02 -0.14572059472E+03  0.19417102164E+03  0.12509000000E+03 0.  0.
<mgrwt>
<rscale>  2 0.46241129E+03</rscale>
<asrwt>0</asrwt>
<pdfrwt beam="1">  1       21 0.95165698E-02 0.46241129E+03</pdfrwt>
<pdfrwt beam="2">  1       21 0.12147827E+00 0.46241129E+03</pdfrwt>
<totfact> 0.41192256E+04</totfact>
</mgrwt>
</event>
<event>
 7    0  0.4714446E-002  0.4483091E+03  0.7546771E-02  0.1028227E+00
         21   -1    0    0  502  501  0.00000000000E+00  0.00000000000E+00  0.99370665934E+02  0.99370665934E+02  0.00000000000E+00 0. -1.
         21   -1    0    0  501  502 -0.00000000000E+00 -0.00000000000E+00 -0.50563467878E+03  0.50563467878E+03  0.00000000000E+00 0. -1.
      99926    2    1    2    0    0 -0.88817841970E-15  0.00000000000E+00 -0.40626401285E+03  0.60500534472E+03  0.44830906638E+03 0.  0.
      99925    2    3    3    0    0 -0.33203160257E+01 -0.41508263324E+02 -0.12497635887E+03  0.29435407271E+03  0.26323234873E+03 0.  0.
         25    1    3    3    0    0  0.33203160257E+01  0.41508263324E+02 -0.28128765397E+03  0.31065127201E+03  0.12509000000E+03 0.  0.
         25    1    4    4    0    0 -0.18427794516E+02 -0.20330558225E+02 -0.21317491863E+02  0.12982626378E+03  0.12509000000E+03 0.  0.
         25    1    4    4    0    0  0.15107478491E+02 -0.21177705100E+02 -0.10365886701E+03  0.16452780892E+03  0.12509000000E+03 0.  0.
<mgrwt>
<rscale>  2 0.44830907E+03</rscale>
<asrwt>0</asrwt>
<pdfrwt beam="1">  1       21 0.14613333E-01 0.44830907E+03</pdfrwt>
<pdfrwt beam="2">  1       21 0.74358042E-01 0.44830907E+03</pdfrwt>
<totfact> 0.61561224E+04</totfact>
</mgrwt>
</event>
<event>
 7    0  0.4714446E-002  0.4566509E+03  0.7546771E-02  0.1025757E+00
         21   -1    0    0  502  501  0.00000000000E+00  0.00000000000E+00  0.30531100033E+03  0.30531100033E+03  0.00000000000E+00 0. -1.
         21   -1    0    0  501  502 -0.00000000000E+00 -0.00000000000E+00 -0.17075212540E+03  0.17075212540E+03  0.00000000000E+00 0. -1.
      99926    2    1    2    0    0  0.00000000000E+00  0.00000000000E+00  0.13455887493E+03  0.47606312573E+03  0.45665086100E+03 0.  0.
      99925    2    3    3    0    0  0.10035365178E+03 -0.52509323563E+02  0.66016490933E+02  0.29392677298E+03  0.26307163723E+03 0.  0.
         25    1    3    3    0    0 -0.10035365178E+03  0.52509323563E+02  0.68542383997E+02  0.18213635274E+03  0.12509000000E+03 0.  0.
         25    1    4    4    0    0  0.30756743417E+02 -0.24253685353E+02 -0.59917729062E+01  0.13121595925E+03  0.12509000000E+03 0.  0.
         25    1    4    4    0    0  0.69596908366E+02 -0.28255638210E+02  0.72008263839E+02  0.16271081373E+03  0.12509000000E+03 0.  0.
<mgrwt>
<rscale>  2 0.45665086E+03</rscale>
<asrwt>0</asrwt>
<pdfrwt beam="1">  1       21 0.44898677E-01 0.45665086E+03</pdfrwt>
<pdfrwt beam="2">  1       21 0.25110607E-01 0.45665086E+03</pdfrwt>
<totfact> 0.66117358E+04</totfact>
</mgrwt>
</event>
<event>
 7    0  0.4714446E-002  0.4571621E+03  0.7546771E-02  0.1025608E+00
         21   -1    0    0  502  501  0.00000000000E+00  0.00000000000E+00  0.55794157690E+03  0.55794157690E+03  0.00000000000E+00 0. -1.
         21   -1    0    0  501  502 -0.00000000000E+00 -0.00000000000E+00 -0.93646548163E+02  0.93646548163E+02  0.00000000000E+00 0. -1.
      99926    2    1    2    0    0  0.35527136788E-14  0.71054273576E-14  0.46429502874E+03  0.65158812506E+03  0.45716212771E+03 0.  0.
      99925    2    3    3    0    0  0.29489225156E+02  0.43899957730E+02  0.43734312046E+03  0.51312970477E+03  0.26312785527E+03 0.  0.
         25    1    4    4    0    0  0.43487775741E+02  0.35084419411E+02  0.17705987364E+03  0.22387454093E+03  0.12509000000E+03 0.  0.
         25    1    4    4    0    0 -0.13998550585E+02  0.88155383189E+01  0.26028324682E+03  0.28925516384E+03  0.12509000000E+03 0.  0.
         25    1    3    3    0    0 -0.29489225156E+02 -0.43899957730E+02  0.26951908277E+02  0.13845842029E+03  0.12509000000E+03 0.  0.
<mgrwt>
<rscale>  2 0.45716213E+03</rscale>
<asrwt>0</asrwt>
<pdfrwt beam="1">  1       21 0.82050230E-01 0.45716213E+03</pdfrwt>
<pdfrwt beam="2">  1       21 0.13771551E-01 0.45716213E+03</pdfrwt>
<totfact> 0.54671610E+04</totfact>
</mgrwt>
</event>
<event>
 7    0  0.4714446E-002  0.4557288E+03  0.7546771E-02  0.1026027E+00
         21   -1    0    0  502  501  0.00000000000E+00  0.00000000000E+00  0.41982881825E+03  0.41982881825E+03  0.00000000000E+00 0.  1.
         21   -1    0    0  501  502 -0.00000000000E+00 -0.00000000000E+00 -0.12367463932E+03  0.12367463932E+03  0.00000000000E+00 0.  1.
      99926    2    1    2    0    0  0.14210854715E-13  0.00000000000E+00  0.29615417893E+03  0.54350345757E+03  0.45572876878E+03 0.  0.
      99925    2    3    3    0    0  0.10943135215E+03 -0.81156202304E+01  0.22200362546E+03  0.36133074610E+03  0.26312205198E+03 0.  0.
         25    1    4    4    0    0  0.90364383022E+02  0.32461859166E+01  0.15034842238E+03  0.21547254037E+03  0.12509000000E+03 0.  0.
         25    1    4    4    0    0  0.19066969123E+02 -0.11361806147E+02  0.71655203076E+02  0.14585820573E+03  0.12509000000E+03 0.  0.
         25    1    3    3    0    0 -0.10943135215E+03  0.81156202304E+01  0.74150553469E+02  0.18217271147E+03  0.12509000000E+03 0.  0.
<mgrwt>
<rscale>  2 0.45572877E+03</rscale>
<asrwt>0</asrwt>
<pdfrwt beam="1">  1       21 0.61739532E-01 0.45572877E+03</pdfrwt>
<pdfrwt beam="2">  1       21 0.18187447E-01 0.45572877E+03</pdfrwt>
<totfact> 0.61939886E+04</totfact>
</mgrwt>
</event>
<event>
 7    0  0.4714446E-002  0.4697878E+03  0.7546771E-02  0.1021980E+00
         21   -1    0    0  502  501  0.00000000000E+00  0.00000000000E+00  0.15244313744E+03  0.15244313744E+03  0.00000000000E+00 0.  1.
         21   -1    0    0  501  502 -0.00000000000E+00 -0.00000000000E+00 -0.36193913053E+03  0.36193913053E+03  0.00000000000E+00 0.  1.
      99926    2    1    2    0    0  0.00000000000E+00  0.17763568394E-14 -0.20949599309E+03  0.51438226797E+03  0.46978776749E+03 0.  0.
      99925    2    3    3    0    0  0.12612910235E+03 -0.91426361348E+01 -0.12528837459E+03  0.31758143116E+03  0.26299933528E+03 0.  0.
         25    1    4    4    0    0  0.38887363881E+02  0.54365843603E+01 -0.22328657005E+02  0.13299571626E+03  0.12509000000E+03 0.  0.
         25    1    3    3    0    0 -0.12612910235E+03  0.91426361348E+01 -0.84207618495E+02  0.19680083681E+03  0.12509000000E+03 0.  0.
         25    1    4    4    0    0  0.87241738470E+02 -0.14579220495E+02 -0.10295971759E+03  0.18458571491E+03  0.12509000000E+03 0.  0.
<mgrwt>
<rscale>  2 0.46978777E+03</rscale>
<asrwt>0</asrwt>
<pdfrwt beam="1">  1       21 0.22418109E-01 0.46978777E+03</pdfrwt>
<pdfrwt beam="2">  1       21 0.53226342E-01 0.46978777E+03</pdfrwt>
<totfact> 0.57251088E+04</totfact>
</mgrwt>
</event>
<event>
 7    0  0.4714446E-002  0.4532957E+03  0.7546771E-02  0.1026744E+00
         21   -1    0    0  502  501  0.00000000000E+00  0.00000000000E+00  0.48076506695E+03  0.48076506695E+03  0.00000000000E+00 0.  1.
         21   -1    0    0  501  502 -0.00000000000E+00 -0.00000000000E+00 -0.10684897490E+03  0.10684897490E+03  0.00000000000E+00 0.  1.
      99926    2    1    2    0    0  0.00000000000E+00  0.14210854715E-13  0.37391609206E+03  0.58761404185E+03  0.45329572939E+03 0.  0.
      99925    2    3    3    0    0  0.38444201661E+02 -0.10259331591E+03  0.26193861177E+03  0.38714008019E+03  0.26317724112E+03 0.  0.
         25    1    3    3    0    0 -0.38444201661E+02  0.10259331591E+03  0.11197748029E+03  0.20047396166E+03  0.12509000000E+03 0.  0.
         25    1    4    4    0    0 -0.14299288819E+02 -0.69859798787E+02  0.11353590863E+03  0.18336513244E+03  0.12509000000E+03 0.  0.
         25    1    4    4    0    0  0.52743490480E+02 -0.32733517125E+02  0.14840270314E+03  0.20377494775E+03  0.12509000000E+03 0.  0.
<mgrwt>
<rscale>  2 0.45329573E+03</rscale>
<asrwt>0</asrwt>
<pdfrwt beam="1">  1       21 0.70700744E-01 0.45329573E+03</pdfrwt>
<pdfrwt beam="2">  1       21 0.15713085E-01 0.45329573E+03</pdfrwt>
<totfact> 0.60254777E+04</totfact>
</mgrwt>
</event>
<event>
 7    0  0.4714446E-002  0.4586791E+03  0.7546771E-02  0.1025165E+00
         21   -1    0    0  502  501  0.00000000000E+00  0.00000000000E+00  0.12247149444E+04  0.12247149444E+04  0.00000000000E+00 0.  1.
         21   -1    0    0  501  502 -0.00000000000E+00 -0.00000000000E+00 -0.42946017000E+02  0.42946017000E+02  0.00000000000E+00 0.  1.
      99926    2    1    2    0    0 -0.14210854715E-13  0.00000000000E+00  0.11817689274E+04  0.12676609614E+04  0.45867909838E+03 0.  0.
      99925    2    3    3    0    0 -0.92636572647E+02 -0.64220778099E+02  0.65690883354E+03  0.71645186391E+03  0.26280832328E+03 0.  0.
         25    1    4    4    0    0 -0.47406093708E+01 -0.21564839553E+02  0.30589915461E+03  0.33122396739E+03  0.12509000000E+03 0.  0.
         25    1    4    4    0    0 -0.87895963276E+02 -0.42655938546E+02  0.35100967893E+03  0.38522789652E+03  0.12509000000E+03 0.  0.
         25    1    3    3    0    0  0.92636572647E+02  0.64220778099E+02  0.52486009386E+03  0.55120909749E+03  0.12509000000E+03 0.  0.
<mgrwt>
<rscale>  2 0.45867910E+03</rscale>
<asrwt>0</asrwt>
<pdfrwt beam="1">  1       21 0.18010512E+00 0.45867910E+03</pdfrwt>
<pdfrwt beam="2">  1       21 0.63155915E-02 0.45867910E+03</pdfrwt>
<totfact> 0.29222747E+04</totfact>
</mgrwt>
</event>
<event>
 7    0  0.4714446E-002  0.4564969E+03  0.7546771E-02  0.1025802E+00
         21   -1    0    0  502  501  0.00000000000E+00  0.00000000000E+00  0.31119389848E+03  0.31119389848E+03  0.00000000000E+00 0.  1.
         21   -1    0    0  501  502 -0.00000000000E+00 -0.00000000000E+00 -0.16741120645E+03  0.16741120645E+03  0.00000000000E+00 0.  1.
      99926    2    1    2    0    0  0.00000000000E+00  0.00000000000E+00  0.14378269204E+03  0.47860510493E+03  0.45649686081E+03 0.  0.
      99925    2    3    3    0    0 -0.53905385228E+02 -0.79889771622E+02  0.25311283277E+02  0.28119398832E+03  0.26294720352E+03 0.  0.
         25    1    4    4    0    0 -0.15961912865E+02 -0.77263659915E+02 -0.66903383001E+00  0.14789324363E+03  0.12509000000E+03 0.  0.
         25    1    4    4    0    0 -0.37943472363E+02 -0.26261117062E+01  0.25980317107E+02  0.13330074469E+03  0.12509000000E+03 0.  0.
         25    1    3    3    0    0  0.53905385228E+02  0.79889771622E+02  0.11847140876E+03  0.19741111661E+03  0.12509000000E+03 0.  0.
<mgrwt>
<rscale>  2 0.45649686E+03</rscale>
<asrwt>0</asrwt>
<pdfrwt beam="1">  1       21 0.45763809E-01 0.45649686E+03</pdfrwt>
<pdfrwt beam="2">  1       21 0.24619295E-01 0.45649686E+03</pdfrwt>
<totfact> 0.66014015E+04</totfact>
</mgrwt>
</event>
<event>
 7    0  0.4714446E-002  0.4572195E+03  0.7546771E-02  0.1025591E+00
         21   -1    0    0  502  501  0.00000000000E+00  0.00000000000E+00  0.11850124727E+03  0.11850124727E+03  0.00000000000E+00 0.  1.
         21   -1    0    0  501  502 -0.00000000000E+00 -0.00000000000E+00 -0.44102839418E+03  0.44102839418E+03  0.00000000000E+00 0.  1.
      99926    2    1    2    0    0 -0.17763568394E-14 -0.14210854715E-13 -0.32252714691E+03  0.55952964145E+03  0.45721948686E+03 0.  0.
      99925    2    3    3    0    0 -0.15372046237E+02 -0.94027779182E+02 -0.12312668808E+03  0.30558954192E+03  0.26295867309E+03 0.  0.
         25    1    4    4    0    0 -0.38469897945E+02 -0.75364856372E+02 -0.62438754209E+02  0.16341940139E+03  0.12509000000E+03 0.  0.
         25    1    4    4    0    0  0.23097851708E+02 -0.18662922809E+02 -0.60687933875E+02  0.14217014053E+03  0.12509000000E+03 0.  0.
         25    1    3    3    0    0  0.15372046237E+02  0.94027779182E+02 -0.19940045883E+03  0.25394009952E+03  0.12509000000E+03 0.  0.
<mgrwt>
<rscale>  2 0.45721949E+03</rscale>
<asrwt>0</asrwt>
<pdfrwt beam="1">  1       21 0.17426654E-01 0.45721949E+03</pdfrwt>
<pdfrwt beam="2">  1       21 0.64857116E-01 0.45721949E+03</pdfrwt>
<totfact> 0.60177675E+04</totfact>
</mgrwt>
</event>
<event>
 7    0  0.4714446E-002  0.4527151E+03  0.7546771E-02  0.1026915E+00
         21   -1    0    0  502  501  0.00000000000E+00  0.00000000000E+00  0.48483836617E+03  0.48483836617E+03  0.00000000000E+00 0. -1.
         21   -1    0    0  501  502 -0.00000000000E+00 -0.00000000000E+00 -0.10568002891E+03  0.10568002891E+03  0.00000000000E+00 0. -1.
      99926    2    1    2    0    0  0.00000000000E+00  0.00000000000E+00  0.37915833726E+03  0.59051839508E+03  0.45271506515E+03 0.  0.
      99925    2    3    3    0    0 -0.36776502499E+02 -0.99506791679E+02  0.28223432469E+03  0.40000360553E+03  0.26285463220E+03 0.  0.
         25    1    3    3    0    0  0.36776502499E+02  0.99506791679E+02  0.96924012562E+02  0.19051478955E+03  0.12509000000E+03 0.  0.
         25    1    4    4    0    0 -0.52641102840E+02 -0.47972118128E+02  0.17530998140E+03  0.22683365602E+03  0.12509000000E+03 0.  0.
         25    1    4    4    0    0  0.15864600340E+02 -0.51534673551E+02  0.10692434329E+03  0.17316994950E+03  0.12509000000E+03 0.  0.
<mgrwt>
<rscale>  2 0.45271507E+03</rscale>
<asrwt>0</asrwt>
<pdfrwt beam="1">  1       21 0.71299759E-01 0.45271507E+03</pdfrwt>
<pdfrwt beam="2">  1       21 0.15541181E-01 0.45271507E+03</pdfrwt>
<totfact> 0.60348153E+04</totfact>
</mgrwt>
</event>
<event>
 7    0  0.4714446E-002  0.4534828E+03  0.7546771E-02  0.1026688E+00
         21   -1    0    0  502  501  0.00000000000E+00  0.00000000000E+00  0.25024399626E+03  0.25024399626E+03  0.00000000000E+00 0.  1.
         21   -1    0    0  501  502 -0.00000000000E+00 -0.00000000000E+00 -0.20544617272E+03  0.20544617272E+03  0.00000000000E+00 0.  1.
      99926    2    1    2    0    0 -0.14210854715E-13  0.00000000000E+00  0.44797823534E+02  0.45569016898E+03  0.45348283882E+03 0.  0.
      99925    2    3    3    0    0  0.79783244054E+02 -0.76429257898E+02  0.12438480856E+02  0.28568595534E+03  0.26316335569E+03 0.  0.
         25    1    3    3    0    0 -0.79783244054E+02  0.76429257898E+02  0.32359342678E+02  0.17000421363E+03  0.12509000000E+03 0.  0.
         25    1    4    4    0    0  0.76466557274E+02 -0.21036300541E+02 -0.16078770064E+01  0.14812074024E+03  0.12509000000E+03 0.  0.
         25    1    4    4    0    0  0.33166867801E+01 -0.55392957358E+02  0.14046357863E+02  0.13756521510E+03  0.12509000000E+03 0.  0.
<mgrwt>
<rscale>  2 0.45348284E+03</rscale>
<asrwt>0</asrwt>
<pdfrwt beam="1">  1       21 0.36800588E-01 0.45348284E+03</pdfrwt>
<pdfrwt beam="2">  1       21 0.30212672E-01 0.45348284E+03</pdfrwt>
<totfact> 0.69330695E+04</totfact>
</mgrwt>
</event>
<event>
 7    0  0.4714446E-002  0.4604180E+03  0.7546771E-02  0.1024660E+00
         21   -1    0    0  502  501  0.00000000000E+00  0.00000000000E+00  0.15231731236E+03  0.15231731236E+03  0.00000000000E+00 0. -1.
         21   -1    0    0  501  502 -0.00000000000E+00 -0.00000000000E+00 -0.34793277855E+03  0.34793277855E+03  0.00000000000E+00 0. -1.
      99926    2    1    2    0    0  0.00000000000E+00 -0.14210854715E-13 -0.19561546619E+03  0.50025009091E+03  0.46041800882E+03 0.  0.
      99925    2    3    3    0    0  0.37147067821E+02 -0.64735535889E+02 -0.22251602555E+03  0.35212263752E+03  0.26250023994E+03 0.  0.
         25    1    4    4    0    0  0.54650343326E+02 -0.22049278751E+02 -0.96093228884E+02  0.16838719505E+03  0.12509000000E+03 0.  0.
         25    1    3    3    0    0 -0.37147067821E+02  0.64735535889E+02  0.26900559361E+02  0.14812745339E+03  0.12509000000E+03 0.  0.
         25    1    4    4    0    0 -0.17503275505E+02 -0.42686257139E+02 -0.12642279667E+03  0.18373544247E+03  0.12509000000E+03 0.  0.
<mgrwt>
<rscale>  2 0.46041801E+03</rscale>
<asrwt>0</asrwt>
<pdfrwt beam="1">  1       21 0.22399605E-01 0.46041801E+03</pdfrwt>
<pdfrwt beam="2">  1       21 0.51166585E-01 0.46041801E+03</pdfrwt>
<totfact> 0.62520505E+04</totfact>
</mgrwt>
</event>
<event>
 7    0  0.4714446E-002  0.4962569E+03  0.7546771E-02  0.1014761E+00
         21   -1    0    0  502  501  0.00000000000E+00  0.00000000000E+00  0.23936610374E+03  0.23936610374E+03  0.00000000000E+00 0. -1.
         21   -1    0    0  501  502 -0.00000000000E+00 -0.00000000000E+00 -0.25721156852E+03  0.25721156852E+03  0.00000000000E+00 0. -1.
      99926    2    1    2    0    0 -0.71054273576E-14 -0.14210854715E-13 -0.17845464777E+02  0.49657767226E+03  0.49625691327E+03 0.  0.
      99925    2    3    3    0    0 -0.44202122671E+02 -0.11192494982E+03 -0.97994062767E+02  0.30539104119E+03  0.26302058790E+03 0.  0.
         25    1    3    3    0    0  0.44202122671E+02  0.11192494982E+03  0.80148597989E+02  0.19118663107E+03  0.12509000000E+03 0.  0.
         25    1    4    4    0    0 -0.59025071083E+02 -0.40012848989E+02 -0.54596582476E+02  0.15399117513E+03  0.12509000000E+03 0.  0.
         25    1    4    4    0    0  0.14822948412E+02 -0.71912100832E+02 -0.43397480291E+02  0.15139986605E+03  0.12509000000E+03 0.  0.
<mgrwt>
<rscale>  2 0.49625691E+03</rscale>
<asrwt>0</asrwt>
<pdfrwt beam="1">  1       21 0.35200898E-01 0.49625691E+03</pdfrwt>
<pdfrwt beam="2">  1       21 0.37825231E-01 0.49625691E+03</pdfrwt>
<totfact> 0.47814534E+04</totfact>
</mgrwt>
</event>
<event>
 7    0  0.4714446E-002  0.4484145E+03  0.7546771E-02  0.1028196E+00
         21   -1    0    0  502  501  0.00000000000E+00  0.00000000000E+00  0.39240384684E+03  0.39240384684E+03  0.00000000000E+00 0. -1.
         21   -1    0    0  501  502 -0.00000000000E+00 -0.00000000000E+00 -0.12810497926E+03  0.12810497926E+03  0.00000000000E+00 0. -1.
      99926    2    1    2    0    0 -0.28421709430E-13  0.00000000000E+00  0.26429886758E+03  0.52050882610E+03  0.44841448086E+03 0.  0.
      99925    2    3    3    0    0 -0.98872364262E+02  0.40287810648E+02  0.16146708994E+03  0.32654817367E+03  0.26298904252E+03 0.  0.
         25    1    4    4    0    0 -0.89929984388E+02  0.78804338197E+01  0.90599128034E+02  0.17890000959E+03  0.12509000000E+03 0.  0.
         25    1    4    4    0    0 -0.89423798738E+01  0.32407376828E+02  0.70867961910E+02  0.14764816408E+03  0.12509000000E+03 0.  0.
         25    1    3    3    0    0  0.98872364262E+02 -0.40287810648E+02  0.10283177763E+03  0.19396065244E+03  0.12509000000E+03 0.  0.
<mgrwt>
<rscale>  2 0.44841448E+03</rscale>
<asrwt>0</asrwt>
<pdfrwt beam="1">  1       21 0.57706448E-01 0.44841448E+03</pdfrwt>
<pdfrwt beam="2">  1       21 0.18838968E-01 0.44841448E+03</pdfrwt>
<totfact> 0.67298956E+04</totfact>
</mgrwt>
</event>
<event>
 7    0  0.4714446E-002  0.4543543E+03  0.7546771E-02  0.1026431E+00
         21   -1    0    0  502  501  0.00000000000E+00  0.00000000000E+00  0.45307230965E+03  0.45307230965E+03  0.00000000000E+00 0.  1.
         21   -1    0    0  501  502 -0.00000000000E+00 -0.00000000000E+00 -0.11390996440E+03  0.11390996440E+03  0.00000000000E+00 0.  1.
      99926    2    1    2    0    0  0.00000000000E+00 -0.17763568394E-14  0.33916234526E+03  0.56698227405E+03  0.45435426998E+03 0.  0.
      99925    2    3    3    0    0  0.70619160220E+02 -0.41526038293E+01  0.10422633686E+03  0.29157939453E+03  0.26296597519E+03 0.  0.
         25    1    4    4    0    0  0.23013423211E+02  0.26282131269E+02  0.79015584300E+02  0.15202413866E+03  0.12509000000E+03 0.  0.
         25    1    4    4    0    0  0.47605737009E+02 -0.30434735098E+02  0.25210752556E+02  0.13955525587E+03  0.12509000000E+03 0.  0.
         25    1    3    3    0    0 -0.70619160220E+02  0.41526038293E+01  0.23493600840E+03  0.27540287953E+03  0.12509000000E+03 0.  0.
<mgrwt>
<rscale>  2 0.45435427E+03</rscale>
<asrwt>0</asrwt>
<pdfrwt beam="1">  1       21 0.66628280E-01 0.45435427E+03</pdfrwt>
<pdfrwt beam="2">  1       21 0.16751465E-01 0.45435427E+03</pdfrwt>
<totfact> 0.61069330E+04</totfact>
</mgrwt>
</event>
<event>
 7    0  0.4714446E-002  0.4670482E+03  0.7546771E-02  0.1022757E+00
         21   -1    0    0  502  501  0.00000000000E+00  0.00000000000E+00  0.70997244542E+03  0.70997244542E+03  0.00000000000E+00 0.  1.
         21   -1    0    0  501  502 -0.00000000000E+00 -0.00000000000E+00 -0.76810724288E+02  0.76810724288E+02  0.00000000000E+00 0.  1.
      99926    2    1    2    0    0  0.00000000000E+00  0.00000000000E+00  0.63316172113E+03  0.78678316971E+03  0.46704816778E+03 0.  0.
      99925    2    3    3    0    0 -0.82675257366E+02 -0.55085231646E+02  0.26891977671E+03  0.38905300602E+03  0.26301105351E+03 0.  0.
         25    1    3    3    0    0  0.82675257366E+02  0.55085231646E+02  0.36424194442E+03  0.39773016368E+03  0.12509000000E+03 0.  0.
         25    1    4    4    0    0 -0.69780406904E+02 -0.46574480939E+02  0.11153629496E+03  0.18742022478E+03  0.12509000000E+03 0.  0.
         25    1    4    4    0    0 -0.12894850462E+02 -0.85107507075E+01  0.15738348175E+03  0.20163278125E+03  0.12509000000E+03 0.  0.
<mgrwt>
<rscale>  2 0.46704817E+03</rscale>
<asrwt>0</asrwt>
<pdfrwt beam="1">  1       21 0.10440771E+00 0.46704817E+03</pdfrwt>
<pdfrwt beam="2">  1       21 0.11295695E-01 0.46704817E+03</pdfrwt>
<totfact> 0.44091256E+04</totfact>
</mgrwt>
</event>
<event>
 7    0  0.4714446E-002  0.4499161E+03  0.7546771E-02  0.1027747E+00
         21   -1    0    0  502  501  0.00000000000E+00  0.00000000000E+00  0.71035819028E+03  0.71035819028E+03  0.00000000000E+00 0. -1.
         21   -1    0    0  501  502 -0.00000000000E+00 -0.00000000000E+00 -0.71240280185E+02  0.71240280185E+02  0.00000000000E+00 0. -1.
      99926    2    1    2    0    0  0.00000000000E+00  0.00000000000E+00  0.63911791009E+03  0.78159847046E+03  0.44991606554E+03 0.  0.
      99925    2    3    3    0    0  0.98769446850E+02 -0.38593864571E+02  0.36530117463E+03  0.46243079865E+03  0.26296844932E+03 0.  0.
         25    1    4    4    0    0  0.71767544106E+02 -0.55366624895E+02  0.19873426685E+03  0.25171185999E+03  0.12509000000E+03 0.  0.
         25    1    3    3    0    0 -0.98769446850E+02  0.38593864571E+02  0.27381673546E+03  0.31916767181E+03  0.12509000000E+03 0.  0.
         25    1    4    4    0    0  0.27001902743E+02  0.16772760324E+02  0.16656690778E+03  0.21071893866E+03  0.12509000000E+03 0.  0.
<mgrwt>
<rscale>  2 0.44991607E+03</rscale>
<asrwt>0</asrwt>
<pdfrwt beam="1">  1       21 0.10446444E+00 0.44991607E+03</pdfrwt>
<pdfrwt beam="2">  1       21 0.10476512E-01 0.44991607E+03</pdfrwt>
<totfact> 0.50659271E+04</totfact>
</mgrwt>
</event>
<event>
 7    0  0.4714446E-002  0.4553826E+03  0.7546771E-02  0.1026129E+00
         21   -1    0    0  502  501  0.00000000000E+00  0.00000000000E+00  0.12414785308E+03  0.12414785308E+03  0.00000000000E+00 0.  1.
         21   -1    0    0  501  502 -0.00000000000E+00 -0.00000000000E+00 -0.41759336256E+03  0.41759336256E+03  0.00000000000E+00 0.  1.
      99926    2    1    2    0    0  0.00000000000E+00  0.00000000000E+00 -0.29344550947E+03  0.54174121564E+03  0.45538256191E+03 0.  0.
      99925    2    3    3    0    0 -0.49541463450E+02 -0.86661096851E+02 -0.11978059941E+03  0.30558128806E+03  0.26280797040E+03 0.  0.
         25    1    3    3    0    0  0.49541463450E+02  0.86661096851E+02 -0.17366491006E+03  0.23615992758E+03  0.12509000000E+03 0.  0.
         25    1    4    4    0    0 -0.14941282872E+02 -0.53843150648E+02 -0.10141641624E+03  0.17045563759E+03  0.12509000000E+03 0.  0.
         25    1    4    4    0    0 -0.34600180578E+02 -0.32817946203E+02 -0.18364183175E+02  0.13512565046E+03  0.12509000000E+03 0.  0.
<mgrwt>
<rscale>  2 0.45538256E+03</rscale>
<asrwt>0</asrwt>
<pdfrwt beam="1">  1       21 0.18257037E-01 0.45538256E+03</pdfrwt>
<pdfrwt beam="2">  1       21 0.61410788E-01 0.45538256E+03</pdfrwt>
<totfact> 0.62226979E+04</totfact>
</mgrwt>
</event>
<event>
 7    0  0.4714446E-002  0.4586390E+03  0.7546771E-02  0.1025177E+00
         21   -1    0    0  502  501  0.00000000000E+00  0.00000000000E+00  0.70007237943E+02  0.70007237943E+02  0.00000000000E+00 0.  1.
         21   -1    0    0  501  502 -0.00000000000E+00 -0.00000000000E+00 -0.75117146134E+03  0.75117146134E+03  0.00000000000E+00 0.  1.
      99926    2    1    2    0    0 -0.26645352591E-14  0.00000000000E+00 -0.68116422340E+03  0.82117869928E+03  0.45863902682E+03 0.  0.
      99925    2    3    3    0    0 -0.59815787109E+01 -0.11153039675E+03 -0.36983354418E+03  0.46755586546E+03  0.26335684581E+03 0.  0.
         25    1    3    3    0    0  0.59815787109E+01  0.11153039675E+03 -0.31133067921E+03  0.35362283383E+03  0.12509000000E+03 0.  0.
         25    1    4    4    0    0  0.33318380777E+02 -0.69079990681E+02 -0.16664171525E+03  0.22203407165E+03  0.12509000000E+03 0.  0.
         25    1    4    4    0    0 -0.39299959488E+02 -0.42450406069E+02 -0.20319182893E+03  0.24552179381E+03  0.12509000000E+03 0.  0.
<mgrwt>
<rscale>  2 0.45863903E+03</rscale>
<asrwt>0</asrwt>
<pdfrwt beam="1">  1       21 0.10295182E-01 0.45863903E+03</pdfrwt>
<pdfrwt beam="2">  1       21 0.11046640E+00 0.45863903E+03</pdfrwt>
<totfact> 0.45445803E+04</totfact>
</mgrwt>
</event>
<event>
 6    0  0.4714446E-002  0.4557190E+03  0.7546771E-02  0.1026030E+00
         21   -1    0    0  502  501  0.00000000000E+00  0.00000000000E+00  0.16697856578E+03  0.16697856578E+03  0.00000000000E+00 0. -1.
         21   -1    0    0  501  502 -0.00000000000E+00 -0.00000000000E+00 -0.31093787859E+03  0.31093787859E+03  0.00000000000E+00 0. -1.
      99926    2    1    2    0    0  0.00000000000E+00  0.00000000000E+00 -0.14395931281E+03  0.47791644437E+03  0.45571904070E+03 0.  0.
         25    1    3    3    0    0  0.14455492514E+02  0.28937343537E+02 -0.10974573779E+03  0.16952276006E+03  0.12509000000E+03 0.  0.
         25    1    3    3    0    0 -0.37548759123E+02  0.28015880289E+02  0.53308531427E+02  0.14381970130E+03  0.12509000000E+03 0.  0.
         25    1    3    3    0    0  0.23093266610E+02 -0.56953223827E+02 -0.87522106442E+02  0.16457398301E+03  0.12509000000E+03 0.  0.
<mgrwt>
<rscale>  2 0.45571904E+03</rscale>
<asrwt>0</asrwt>
<pdfrwt beam="1">  1       21 0.24555672E-01 0.45571904E+03</pdfrwt>
<pdfrwt beam="2">  1       21 0.45726158E-01 0.45571904E+03</pdfrwt>
<totfact> 0.66471923E+04</totfact>
</mgrwt>
</event>
<event>
 7    0  0.4714446E-002  0.4549087E+03  0.7546771E-02  0.1026268E+00
         21   -1    0    0  502  501  0.00000000000E+00  0.00000000000E+00  0.38931322454E+03  0.38931322454E+03  0.00000000000E+00 0. -1.
         21   -1    0    0  501  502 -0.00000000000E+00 -0.00000000000E+00 -0.13288910757E+03  0.13288910757E+03  0.00000000000E+00 0. -1.
      99926    2    1    2    0    0  0.00000000000E+00  0.71054273576E-14  0.25642411697E+03  0.52220233210E+03  0.45490872479E+03 0.  0.
      99925    2    3    3    0    0 -0.80535328513E+02  0.59858194542E+02  0.10144963966E+03  0.29919215451E+03  0.26297333200E+03 0.  0.
         25    1    4    4    0    0 -0.97065027006E+01  0.24705050509E+01  0.31774366351E+02  0.12945052355E+03  0.12509000000E+03 0.  0.
         25    1    4    4    0    0 -0.70828825812E+02  0.57387689491E+02  0.69675273307E+02  0.16974163096E+03  0.12509000000E+03 0.  0.
         25    1    3    3    0    0  0.80535328513E+02 -0.59858194542E+02  0.15497447731E+03  0.22301017760E+03  0.12509000000E+03 0.  0.
<mgrwt>
<rscale>  2 0.45490872E+03</rscale>
<asrwt>0</asrwt>
<pdfrwt beam="1">  1       21 0.57251945E-01 0.45490872E+03</pdfrwt>
<pdfrwt beam="2">  1       21 0.19542516E-01 0.45490872E+03</pdfrwt>
<totfact> 0.63783546E+04</totfact>
</mgrwt>
</event>
<event>
 7    0  0.4714446E-002  0.4562892E+03  0.7546771E-02  0.1025863E+00
         21   -1    0    0  502  501  0.00000000000E+00  0.00000000000E+00  0.95361229858E+02  0.95361229858E+02  0.00000000000E+00 0.  1.
         21   -1    0    0  501  502 -0.00000000000E+00 -0.00000000000E+00 -0.54581887554E+03  0.54581887554E+03  0.00000000000E+00 0.  1.
      99926    2    1    2    0    0  0.00000000000E+00  0.00000000000E+00 -0.45045764568E+03  0.64118010540E+03  0.45628920325E+03 0.  0.
      99925    2    3    3    0    0 -0.22410331146E+02  0.11181232823E+03 -0.29515290653E+03  0.41146008061E+03  0.26302079768E+03 0.  0.
         25    1    4    4    0    0 -0.20237787373E+01  0.44243602711E+02 -0.19690001593E+03  0.23744202752E+03  0.12509000000E+03 0.  0.
         25    1    4    4    0    0 -0.20386552409E+02  0.67568725522E+02 -0.98252890599E+02  0.17401805308E+03  0.12509000000E+03 0.  0.
         25    1    3    3    0    0  0.22410331146E+02 -0.11181232823E+03 -0.15530473916E+03  0.22972002479E+03  0.12509000000E+03 0.  0.
<mgrwt>
<rscale>  2 0.45628920E+03</rscale>
<asrwt>0</asrwt>
<pdfrwt beam="1">  1       21 0.14023710E-01 0.45628920E+03</pdfrwt>
<pdfrwt beam="2">  1       21 0.80267481E-01 0.45628920E+03</pdfrwt>
<totfact> 0.55644221E+04</totfact>
</mgrwt>
</event>
<event>
 7    0  0.4714446E-002  0.4697873E+03  0.7546771E-02  0.1021980E+00
         21   -1    0    0  502  501  0.00000000000E+00  0.00000000000E+00  0.84495475545E+02  0.84495475545E+02  0.00000000000E+00 0. -1.
         21   -1    0    0  501  502 -0.00000000000E+00 -0.00000000000E+00 -0.65299377124E+03  0.65299377124E+03  0.00000000000E+00 0. -1.
      99926    2    1    2    0    0  0.71054273576E-14  0.14210854715E-13 -0.56849829569E+03  0.73748924678E+03  0.46978726772E+03 0.  0.
      99925    2    3    3    0    0 -0.58222663992E+02 -0.94106059024E+02 -0.44980199630E+03  0.53259378920E+03  0.26284687457E+03 0.  0.
         25    1    4    4    0    0 -0.32124422638E+02 -0.10992666080E+02 -0.16781973912E+03  0.21204666981E+03  0.12509000000E+03 0.  0.
         25    1    4    4    0    0 -0.26098241353E+02 -0.83113392944E+02 -0.28198225718E+03  0.32054711939E+03  0.12509000000E+03 0.  0.
         25    1    3    3    0    0  0.58222663992E+02  0.94106059024E+02 -0.11869629939E+03  0.20489545758E+03  0.12509000000E+03 0.  0.
<mgrwt>
<rscale>  2 0.46978727E+03</rscale>
<asrwt>0</asrwt>
<pdfrwt beam="1">  1       21 0.12425805E-01 0.46978727E+03</pdfrwt>
<pdfrwt beam="2">  1       21 0.96028498E-01 0.46978727E+03</pdfrwt>
<totfact> 0.45401159E+04</totfact>
</mgrwt>
</event>
<event>
 7    0  0.4714446E-002  0.4528140E+03  0.7546771E-02  0.1026886E+00
         21   -1    0    0  502  501  0.00000000000E+00  0.00000000000E+00  0.25098941595E+02  0.25098941595E+02  0.00000000000E+00 0. -1.
         21   -1    0    0  501  502 -0.00000000000E+00 -0.00000000000E+00 -0.20423225926E+04  0.20423225926E+04  0.00000000000E+00 0. -1.
      99926    2    1    2    0    0  0.71054273576E-14  0.00000000000E+00 -0.20172236510E+04  0.20674215342E+04  0.45281402570E+03 0.  0.
      99925    2    3    3    0    0 -0.41729724177E+02  0.41010495735E+02 -0.84016958430E+03  0.88229410869E+03  0.26293484593E+03 0.  0.
         25    1    4    4    0    0  0.95045005263E+01  0.21291147377E+02 -0.31702652873E+03  0.34160939171E+03  0.12509000000E+03 0.  0.
         25    1    3    3    0    0  0.41729724177E+02 -0.41010495735E+02 -0.11770540667E+04  0.11851274255E+04  0.12509000000E+03 0.  0.
         25    1    4    4    0    0 -0.51234224703E+02  0.19719348358E+02 -0.52314305558E+03  0.54068471698E+03  0.12509000000E+03 0.  0.
<mgrwt>
<rscale>  2 0.45281403E+03</rscale>
<asrwt>0</asrwt>
<pdfrwt beam="1">  1       21 0.36910212E-02 0.45281403E+03</pdfrwt>
<pdfrwt beam="2">  1       21 0.30034152E+00 0.45281403E+03</pdfrwt>
<totfact> 0.12856960E+04</totfact>
</mgrwt>
</event>
<event>
 7    0  0.4714446E-002  0.4514467E+03  0.7546771E-02  0.1027291E+00
         21   -1    0    0  502  501  0.00000000000E+00  0.00000000000E+00  0.40754882852E+02  0.40754882852E+02  0.00000000000E+00 0.  1.
         21   -1    0    0  501  502 -0.00000000000E+00 -0.00000000000E+00 -0.12501823593E+04  0.12501823593E+04  0.00000000000E+00 0.  1.
      99926    2    1    2    0    0 -0.13322676296E-14  0.00000000000E+00 -0.12094274764E+04  0.12909372421E+04  0.45144672154E+03 0.  0.
      99925    2    3    3    0    0 -0.26570985696E+01  0.10598781551E+03 -0.84485486950E+03  0.89118585561E+03  0.26304372545E+03 0.  0.
         25    1    4    4    0    0  0.19324756206E+02  0.22778377889E+02 -0.32208357215E+03  0.34681066340E+03  0.12509000000E+03 0.  0.
         25    1    3    3    0    0  0.26570985696E+01 -0.10598781551E+03 -0.36457260694E+03  0.39975138654E+03  0.12509000000E+03 0.  0.
         25    1    4    4    0    0 -0.21981854776E+02  0.83209437626E+02 -0.52277129735E+03  0.54437519220E+03  0.12509000000E+03 0.  0.
<mgrwt>
<rscale>  2 0.45144672E+03</rscale>
<asrwt>0</asrwt>
<pdfrwt beam="1">  1       21 0.59933659E-02 0.45144672E+03</pdfrwt>
<pdfrwt beam="2">  1       21 0.18385032E+00 0.45144672E+03</pdfrwt>
<totfact> 0.30205234E+04</totfact>
</mgrwt>
</event>
<event>
 7    0  0.4714446E-002  0.4522456E+03  0.7546771E-02  0.1027054E+00
         21   -1    0    0  502  501  0.00000000000E+00  0.00000000000E+00  0.30084106951E+02  0.30084106951E+02  0.00000000000E+00 0. -1.
         21   -1    0    0  501  502 -0.00000000000E+00 -0.00000000000E+00 -0.16996193838E+04  0.16996193838E+04  0.00000000000E+00 0. -1.
      99926    2    1    2    0    0  0.00000000000E+00  0.00000000000E+00 -0.16695352768E+04  0.17297034908E+04  0.45224564705E+03 0.  0.
      99925    2    3    3    0    0  0.24591117890E+02 -0.53694461970E+02 -0.69648557092E+03  0.74687031232E+03  0.26312600516E+03 0.  0.
         25    1    4    4    0    0  0.53186711602E+02 -0.27990213049E+02 -0.36369822947E+03  0.38927649369E+03  0.12509000000E+03 0.  0.
         25    1    3    3    0    0 -0.24591117890E+02  0.53694461970E+02 -0.97304970593E+03  0.98283317843E+03  0.12509000000E+03 0.  0.
         25    1    4    4    0    0 -0.28595593711E+02 -0.25704248922E+02 -0.33278734145E+03  0.35759381863E+03  0.12509000000E+03 0.  0.
<mgrwt>
<rscale>  2 0.45224565E+03</rscale>
<asrwt>0</asrwt>
<pdfrwt beam="1">  1       21 0.44241315E-02 0.45224565E+03</pdfrwt>
<pdfrwt beam="2">  1       21 0.24994413E+00 0.45224565E+03</pdfrwt>
<totfact> 0.19054324E+04</totfact>
</mgrwt>
</event>
<event>
 7    0  0.4714446E-002  0.4542084E+03  0.7546771E-02  0.1026474E+00
         21   -1    0    0  502  501  0.00000000000E+00  0.00000000000E+00  0.21588152934E+02  0.21588152934E+02  0.00000000000E+00 0. -1.
         21   -1    0    0  501  502 -0.00000000000E+00 -0.00000000000E+00 -0.23891026379E+04  0.23891026379E+04  0.00000000000E+00 0. -1.
      99926    2    1    2    0    0  0.14210854715E-13  0.71054273576E-14 -0.23675144850E+04  0.24106907908E+04  0.45420838003E+03 0.  0.
      99925    2    3    3    0    0  0.69129954715E+02  0.54258051890E+02 -0.11265950774E+04  0.11603902786E+04  0.26375413420E+03 0.  0.
         25    1    4    4    0    0  0.70219194814E+02  0.15141006092E+02 -0.50927172704E+03  0.52930632478E+03  0.12509000000E+03 0.  0.
         25    1    4    4    0    0 -0.10892400990E+01  0.39117045798E+02 -0.61732335036E+03  0.63108395378E+03  0.12509000000E+03 0.  0.
         25    1    3    3    0    0 -0.69129954715E+02 -0.54258051890E+02 -0.12409194076E+04  0.12503005123E+04  0.12509000000E+03 0.  0.
<mgrwt>
<rscale>  2 0.45420838E+03</rscale>
<asrwt>0</asrwt>
<pdfrwt beam="1">  1       21 0.31747288E-02 0.45420838E+03</pdfrwt>
<pdfrwt beam="2">  1       21 0.35133858E+00 0.45420838E+03</pdfrwt>
<totfact> 0.81391593E+03</totfact>
</mgrwt>
</event>
<event>
 7    0  0.4714446E-002  0.4448077E+03  0.7546771E-02  0.1029282E+00
         21   -1    0    0  502  501  0.00000000000E+00  0.00000000000E+00  0.60845956781E+03  0.60845956781E+03  0.00000000000E+00 0.  1.
         21   -1    0    0  501  502 -0.00000000000E+00 -0.00000000000E+00 -0.81292944736E+02  0.81292944736E+02  0.00000000000E+00 0.  1.
      99926    2    1    2    0    0  0.00000000000E+00  0.00000000000E+00  0.52716662308E+03  0.68975251255E+03  0.44480768887E+03 0.  0.
      99925    2    3    3    0    0 -0.63322027333E+02 -0.81520841878E+02  0.33496897663E+03  0.43827135977E+03  0.26310120235E+03 0.  0.
         25    1    3    3    0    0  0.63322027333E+02  0.81520841878E+02  0.19219764644E+03  0.25148115278E+03  0.12509000000E+03 0.  0.
         25    1    4    4    0    0 -0.55796104409E+02 -0.19251268816E+02  0.12812954511E+03  0.18854311191E+03  0.12509000000E+03 0.  0.
         25    1    4    4    0    0 -0.75259229240E+01 -0.62269573062E+02  0.20683943152E+03  0.24972824786E+03  0.12509000000E+03 0.  0.
<mgrwt>
<rscale>  2 0.44480769E+03</rscale>
<asrwt>0</asrwt>
<pdfrwt beam="1">  1       21 0.89479346E-01 0.44480769E+03</pdfrwt>
<pdfrwt beam="2">  1       21 0.11954845E-01 0.44480769E+03</pdfrwt>
<totfact> 0.57976391E+04</totfact>
</mgrwt>
</event>
<event>
 7    0  0.4714446E-002  0.4625033E+03  0.7546771E-02  0.1024058E+00
         21   -1    0    0  502  501  0.00000000000E+00  0.00000000000E+00  0.16935198129E+03  0.16935198129E+03  0.00000000000E+00 0.  1.
         21   -1    0    0  501  502 -0.00000000000E+00 -0.00000000000E+00 -0.31577624752E+03  0.31577624752E+03  0.00000000000E+00 0.  1.
      99926    2    1    2    0    0  0.00000000000E+00 -0.14210854715E-13 -0.14642426623E+03  0.48512822881E+03  0.46250333258E+03 0.  0.
      99925    2    3    3    0    0  0.54753419881E+02  0.10674633503E+03 -0.99377194146E+02  0.30553521078E+03  0.26283687199E+03 0.  0.
         25    1    3    3    0    0 -0.54753419881E+02 -0.10674633503E+03 -0.47047072085E+02  0.17959301803E+03  0.12509000000E+03 0.  0.
         25    1    4    4    0    0  0.29932021729E+02  0.28672840256E+02 -0.11941679179E+02  0.13231843974E+03  0.12509000000E+03 0.  0.
         25    1    4    4    0    0  0.24821398153E+02  0.78073494777E+02 -0.87435514967E+02  0.17321677104E+03  0.12509000000E+03 0.  0.
<mgrwt>
<rscale>  2 0.46250333E+03</rscale>
<asrwt>0</asrwt>
<pdfrwt beam="1">  1       21 0.24904703E-01 0.46250333E+03</pdfrwt>
<pdfrwt beam="2">  1       21 0.46437683E-01 0.46250333E+03</pdfrwt>
<totfact> 0.62521195E+04</totfact>
</mgrwt>
</event>
<event>
 7    0  0.4714446E-002  0.4447942E+03  0.7546771E-02  0.1029286E+00
         21   -1    0    0  502  501  0.00000000000E+00  0.00000000000E+00  0.36144389846E+02  0.36144389846E+02  0.00000000000E+00 0.  1.
         21   -1    0    0  501  502 -0.00000000000E+00 -0.00000000000E+00 -0.13684134387E+04  0.13684134387E+04  0.00000000000E+00 0.  1.
      99926    2    1    2    0    0 -0.35527136788E-14  0.00000000000E+00 -0.13322690488E+04  0.14045578285E+04  0.44479419420E+03 0.  0.
      99925    2    3    3    0    0 -0.24168962612E+02  0.82933599545E+02 -0.66689207355E+03  0.72203592556E+03  0.26292340967E+03 0.  0.
         25    1    4    4    0    0  0.50546252707E+01  0.56925250380E+01 -0.34184819466E+03  0.36409566102E+03  0.12509000000E+03 0.  0.
         25    1    3    3    0    0  0.24168962612E+02 -0.82933599545E+02 -0.66537697526E+03  0.68252190294E+03  0.12509000000E+03 0.  0.
         25    1    4    4    0    0 -0.29223587883E+02  0.77241074507E+02 -0.32504387889E+03  0.35794026454E+03  0.12509000000E+03 0.  0.
<mgrwt>
<rscale>  2 0.44479419E+03</rscale>
<asrwt>0</asrwt>
<pdfrwt beam="1">  1       21 0.53153521E-02 0.44479419E+03</pdfrwt>
<pdfrwt beam="2">  1       21 0.20123724E+00 0.44479419E+03</pdfrwt>
<totfact> 0.28397108E+04</totfact>
</mgrwt>
</event>
<event>
 7    0  0.4714446E-002  0.4613774E+03  0.7546771E-02  0.1024383E+00
         21   -1    0    0  502  501  0.00000000000E+00  0.00000000000E+00  0.63497682097E+02  0.63497682097E+02  0.00000000000E+00 0.  1.
         21   -1    0    0  501  502 -0.00000000000E+00 -0.00000000000E+00 -0.83809777476E+03  0.83809777476E+03  0.00000000000E+00 0.  1.
      99926    2    1    2    0    0  0.00000000000E+00  0.00000000000E+00 -0.77460009266E+03  0.90159545686E+03  0.46137735561E+03 0.  0.
      99925    2    3    3    0    0  0.69385839469E+02  0.50674473843E+02 -0.32402080943E+03  0.42614672608E+03  0.26311451915E+03 0.  0.
         25    1    4    4    0    0  0.18216459527E+02  0.58554700292E+02 -0.19045603608E+03  0.23596928212E+03  0.12509000000E+03 0.  0.
         25    1    4    4    0    0  0.51169379941E+02 -0.78802264493E+01 -0.13356477335E+03  0.19017744396E+03  0.12509000000E+03 0.  0.
         25    1    3    3    0    0 -0.69385839469E+02 -0.50674473843E+02 -0.45057928323E+03  0.47544873077E+03  0.12509000000E+03 0.  0.
<mgrwt>
<rscale>  2 0.46137736E+03</rscale>
<asrwt>0</asrwt>
<pdfrwt beam="1">  1       21 0.93378940E-02 0.46137736E+03</pdfrwt>
<pdfrwt beam="2">  1       21 0.12324968E+00 0.46137736E+03</pdfrwt>
<totfact> 0.41075141E+04</totfact>
</mgrwt>
</event>
<event>
 7    0  0.4714446E-002  0.4509679E+03  0.7546771E-02  0.1027434E+00
         21   -1    0    0  502  501  0.00000000000E+00  0.00000000000E+00  0.70140682258E+03  0.70140682258E+03  0.00000000000E+00 0. -1.
         21   -1    0    0  501  502 -0.00000000000E+00 -0.00000000000E+00 -0.72487183095E+02  0.72487183095E+02  0.00000000000E+00 0. -1.
      99926    2    1    2    0    0  0.00000000000E+00  0.00000000000E+00  0.62891963949E+03  0.77389400567E+03  0.45096786924E+03 0.  0.
      99925    2    3    3    0    0 -0.60766267081E+02 -0.19422408832E+02  0.24458593780E+03  0.36471229601E+03  0.26291254954E+03 0.  0.
         25    1    4    4    0    0 -0.67852202011E+02 -0.26419416629E+02  0.13978512442E+03  0.20121952192E+03  0.12509000000E+03 0.  0.
         25    1    4    4    0    0  0.70859349305E+01  0.69970077962E+01  0.10480081338E+03  0.16349277408E+03  0.12509000000E+03 0.  0.
         25    1    3    3    0    0  0.60766267081E+02  0.19422408832E+02  0.38433370168E+03  0.40918170967E+03  0.12509000000E+03 0.  0.
<mgrwt>
<rscale>  2 0.45096787E+03</rscale>
<asrwt>0</asrwt>
<pdfrwt beam="1">  1       21 0.10314806E+00 0.45096787E+03</pdfrwt>
<pdfrwt beam="2">  1       21 0.10659880E-01 0.45096787E+03</pdfrwt>
<totfact> 0.50637272E+04</totfact>
</mgrwt>
</event>
<event>
 7    0  0.4714446E-002  0.4117487E+03  0.7546771E-02  0.1039786E+00
         21   -1    0    0  502  501  0.00000000000E+00  0.00000000000E+00  0.16752318092E+03  0.16752318092E+03  0.00000000000E+00 0. -1.
         21   -1    0    0  501  502 -0.00000000000E+00 -0.00000000000E+00 -0.25300529448E+03  0.25300529448E+03  0.00000000000E+00 0. -1.
      99926    2    1    2    0    0  0.00000000000E+00 -0.35527136788E-14 -0.85482113556E+02  0.42052847540E+03  0.41174871813E+03 0.  0.
      99925    2    3    3    0    0 -0.46614682784E+02  0.30365269650E+02 -0.90094630051E+02  0.28354759476E+03  0.26303463247E+03 0.  0.
         25    1    4    4    0    0 -0.42366778173E+02 -0.52691590136E+01 -0.14295192381E+02  0.13294573538E+03  0.12509000000E+03 0.  0.
         25    1    3    3    0    0  0.46614682784E+02 -0.30365269650E+02  0.46125164948E+01  0.13698088064E+03  0.12509000000E+03 0.  0.
         25    1    4    4    0    0 -0.42479046112E+01  0.35634428664E+02 -0.75799437669E+02  0.15060185939E+03  0.12509000000E+03 0.  0.
<mgrwt>
<rscale>  2 0.41174872E+03</rscale>
<asrwt>0</asrwt>
<pdfrwt beam="1">  1       21 0.24635762E-01 0.41174872E+03</pdfrwt>
<pdfrwt beam="2">  1       21 0.37206661E-01 0.41174872E+03</pdfrwt>
<totfact> 0.10205885E+05</totfact>
</mgrwt>
</event>
<event>
 7    0  0.4714446E-002  0.4529979E+03  0.7546771E-02  0.1026832E+00
         21   -1    0    0  502  501  0.00000000000E+00  0.00000000000E+00  0.37246827007E+03  0.37246827007E+03  0.00000000000E+00 0. -1.
         21   -1    0    0  501  502 -0.00000000000E+00 -0.00000000000E+00 -0.13773464673E+03  0.13773464673E+03  0.00000000000E+00 0. -1.
      99926    2    1    2    0    0  0.00000000000E+00  0.26645352591E-14  0.23473362333E+03  0.51020291680E+03  0.45299794965E+03 0.  0.
      99925    2    3    3    0    0  0.80072544733E+02  0.41799392670E+01  0.61107948786E+02  0.28168056062E+03  0.26302219015E+03 0.  0.
         25    1    3    3    0    0 -0.80072544733E+02 -0.41799392670E+01  0.17362567455E+03  0.22852235618E+03  0.12509000000E+03 0.  0.
         25    1    4    4    0    0  0.72117013090E+02 -0.21691687654E+02  0.44388834117E+02  0.15260822253E+03  0.12509000000E+03 0.  0.
         25    1    4    4    0    0  0.79555316422E+01  0.25871626921E+02  0.16719114669E+02  0.12907233808E+03  0.12509000000E+03 0.  0.
<mgrwt>
<rscale>  2 0.45299795E+03</rscale>
<asrwt>0</asrwt>
<pdfrwt beam="1">  1       21 0.54774746E-01 0.45299795E+03</pdfrwt>
<pdfrwt beam="2">  1       21 0.20255095E-01 0.45299795E+03</pdfrwt>
<totfact> 0.65595675E+04</totfact>
</mgrwt>
</event>
<event>
 7    0  0.4714446E-002  0.4512069E+03  0.7546771E-02  0.1027363E+00
         21   -1    0    0  502  501  0.00000000000E+00  0.00000000000E+00  0.13674150897E+03  0.13674150897E+03  0.00000000000E+00 0.  1.
         21   -1    0    0  501  502 -0.00000000000E+00 -0.00000000000E+00 -0.37221264595E+03  0.37221264595E+03  0.00000000000E+00 0.  1.
      99926    2    1    2    0    0  0.00000000000E+00  0.00000000000E+00 -0.23547113697E+03  0.50895415492E+03  0.45120690981E+03 0.  0.
      99925    2    3    3    0    0 -0.74244238054E+02 -0.20662769641E+02 -0.23818309921E+03  0.36200511690E+03  0.26149064798E+03 0.  0.
         25    1    3    3    0    0  0.74244238054E+02  0.20662769641E+02  0.27119622368E+01  0.14694903801E+03  0.12509000000E+03 0.  0.
         25    1    4    4    0    0 -0.58553431885E+02 -0.21670569477E+01 -0.82762168704E+02  0.16102883341E+03  0.12509000000E+03 0.  0.
         25    1    4    4    0    0 -0.15690806168E+02 -0.18495712693E+02 -0.15542093051E+03  0.20097628349E+03  0.12509000000E+03 0.  0.
<mgrwt>
<rscale>  2 0.45120691E+03</rscale>
<asrwt>0</asrwt>
<pdfrwt beam="1">  1       21 0.20109046E-01 0.45120691E+03</pdfrwt>
<pdfrwt beam="2">  1       21 0.54737153E-01 0.45120691E+03</pdfrwt>
<totfact> 0.66629274E+04</totfact>
</mgrwt>
</event>
<event>
 7    0  0.4714446E-002  0.4511562E+03  0.7546771E-02  0.1027378E+00
         21   -1    0    0  502  501  0.00000000000E+00  0.00000000000E+00  0.14503724843E+03  0.14503724843E+03  0.00000000000E+00 0. -1.
         21   -1    0    0  501  502 -0.00000000000E+00 -0.00000000000E+00 -0.35084426326E+03  0.35084426326E+03  0.00000000000E+00 0. -1.
      99926    2    1    2    0    0  0.35527136788E-14  0.14210854715E-13 -0.20580701483E+03  0.49588151169E+03  0.45115623268E+03 0.  0.
      99925    2    3    3    0    0  0.29467682484E+02  0.98031050147E+02 -0.17292437239E+03  0.33093543754E+03  0.26293914534E+03 0.  0.
         25    1    3    3    0    0 -0.29467682484E+02 -0.98031050147E+02 -0.32882642434E+02  0.16494607415E+03  0.12509000000E+03 0.  0.
         25    1    4    4    0    0  0.32972739823E+02  0.75727902412E+02 -0.61941508159E+02  0.16219178558E+03  0.12509000000E+03 0.  0.
         25    1    4    4    0    0 -0.35050573390E+01  0.22303147736E+02 -0.11098286423E+03  0.16874365197E+03  0.12509000000E+03 0.  0.
<mgrwt>
<rscale>  2 0.45115623E+03</rscale>
<asrwt>0</asrwt>
<pdfrwt beam="1">  1       21 0.21329008E-01 0.45115623E+03</pdfrwt>
<pdfrwt beam="2">  1       21 0.51594744E-01 0.45115623E+03</pdfrwt>
<totfact> 0.67600222E+04</totfact>
</mgrwt>
</event>
<event>
 7    0  0.4714446E-002  0.4561706E+03  0.7546771E-02  0.1025898E+00
         21   -1    0    0  502  501  0.00000000000E+00  0.00000000000E+00  0.57513279983E+02  0.57513279983E+02  0.00000000000E+00 0.  1.
         21   -1    0    0  501  502 -0.00000000000E+00 -0.00000000000E+00 -0.90453726585E+03  0.90453726585E+03  0.00000000000E+00 0.  1.
      99926    2    1    2    0    0  0.71054273576E-14  0.00000000000E+00 -0.84702398586E+03  0.96205054583E+03  0.45617060417E+03 0.  0.
      99925    2    3    3    0    0 -0.50562944904E+02 -0.10007863930E+03 -0.48581743867E+03  0.56369138216E+03  0.26297727120E+03 0.  0.
         25    1    4    4    0    0 -0.46895606091E+02 -0.33427928830E+02 -0.29876144229E+03  0.32897193162E+03  0.12509000000E+03 0.  0.
         25    1    4    4    0    0 -0.36673388130E+01 -0.66650710472E+02 -0.18705599638E+03  0.23471945054E+03  0.12509000000E+03 0.  0.
         25    1    3    3    0    0  0.50562944904E+02  0.10007863930E+03 -0.36120654720E+03  0.39835916367E+03  0.12509000000E+03 0.  0.
<mgrwt>
<rscale>  2 0.45617060E+03</rscale>
<asrwt>0</asrwt>
<pdfrwt beam="1">  1       21 0.84578349E-02 0.45617060E+03</pdfrwt>
<pdfrwt beam="2">  1       21 0.13302019E+00 0.45617060E+03</pdfrwt>
<totfact> 0.40286692E+04</totfact>
</mgrwt>
</event>
<event>
 7    0  0.4714446E-002  0.4607234E+03  0.7546771E-02  0.1024572E+00
         21   -1    0    0  502  501  0.00000000000E+00  0.00000000000E+00  0.10613495857E+03  0.10613495857E+03  0.00000000000E+00 0.  1.
         21   -1    0    0  501  502 -0.00000000000E+00 -0.00000000000E+00 -0.49999081313E+03  0.49999081313E+03  0.00000000000E+00 0.  1.
      99926    2    1    2    0    0  0.14210854715E-13  0.00000000000E+00 -0.39385585456E+03  0.60612577171E+03  0.46072336272E+03 0.  0.
      99925    2    3    3    0    0 -0.80258545413E+02  0.21236708019E+02 -0.35739867556E+03  0.45162960386E+03  0.26333069306E+03 0.  0.
         25    1    4    4    0    0 -0.29389291012E+01  0.24523111988E+02 -0.14257518740E+03  0.19127261301E+03  0.12509000000E+03 0.  0.
         25    1    4    4    0    0 -0.77319616312E+02 -0.32864039694E+01 -0.21482348816E+03  0.26035699085E+03  0.12509000000E+03 0.  0.
         25    1    3    3    0    0  0.80258545413E+02 -0.21236708019E+02 -0.36457178998E+02  0.15449616785E+03  0.12509000000E+03 0.  0.
<mgrwt>
<rscale>  2 0.46072336E+03</rscale>
<asrwt>0</asrwt>
<pdfrwt beam="1">  1       21 0.15608082E-01 0.46072336E+03</pdfrwt>
<pdfrwt beam="2">  1       21 0.73528061E-01 0.46072336E+03</pdfrwt>
<totfact> 0.55739449E+04</totfact>
</mgrwt>
</event>
<event>
 7    0  0.4714446E-002  0.4528184E+03  0.7546771E-02  0.1026885E+00
         21   -1    0    0  502  501  0.00000000000E+00  0.00000000000E+00  0.25025684739E+03  0.25025684739E+03  0.00000000000E+00 0. -1.
         21   -1    0    0  501  502 -0.00000000000E+00 -0.00000000000E+00 -0.20483403218E+03  0.20483403218E+03  0.00000000000E+00 0. -1.
      99926    2    1    2    0    0  0.00000000000E+00 -0.14210854715E-13  0.45422815211E+02  0.45509087957E+03  0.45281837035E+03 0.  0.
      99925    2    3    3    0    0  0.62669345248E+02 -0.88458579760E+02  0.43088222410E+01  0.28453228060E+03  0.26303552153E+03 0.  0.
         25    1    3    3    0    0 -0.62669345248E+02  0.88458579760E+02  0.41113992970E+02  0.17055859898E+03  0.12509000000E+03 0.  0.
         25    1    4    4    0    0  0.15834008803E+02 -0.77368523896E+02 -0.16674814746E+02  0.14886961366E+03  0.12509000000E+03 0.  0.
         25    1    4    4    0    0  0.46835336445E+02 -0.11090055864E+02  0.20983636987E+02  0.13566266694E+03  0.12509000000E+03 0.  0.
<mgrwt>
<rscale>  2 0.45281837E+03</rscale>
<asrwt>0</asrwt>
<pdfrwt beam="1">  1       21 0.36802478E-01 0.45281837E+03</pdfrwt>
<pdfrwt beam="2">  1       21 0.30122652E-01 0.45281837E+03</pdfrwt>
<totfact> 0.69745245E+04</totfact>
</mgrwt>
</event>
<event>
 7    0  0.4714446E-002  0.4536383E+03  0.7546771E-02  0.1026643E+00
         21   -1    0    0  502  501  0.00000000000E+00  0.00000000000E+00  0.25471491076E+03  0.25471491076E+03  0.00000000000E+00 0. -1.
         21   -1    0    0  501  502 -0.00000000000E+00 -0.00000000000E+00 -0.20197848960E+03  0.20197848960E+03  0.00000000000E+00 0. -1.
      99926    2    1    2    0    0  0.00000000000E+00 -0.71054273576E-14  0.52736421156E+02  0.45669340036E+03  0.45363832710E+03 0.  0.
      99925    2    3    3    0    0  0.82776089341E+02  0.61872634985E+02 -0.10017839468E+02  0.28272297398E+03  0.26296733444E+03 0.  0.
         25    1    3    3    0    0 -0.82776089341E+02 -0.61872634985E+02  0.62754260624E+02  0.17397042637E+03  0.12509000000E+03 0.  0.
         25    1    4    4    0    0  0.22829128447E+02  0.22438982573E+01 -0.29309562115E+02  0.13050962691E+03  0.12509000000E+03 0.  0.
         25    1    4    4    0    0  0.59946960893E+02  0.59628736728E+02  0.19291722647E+02  0.15221334707E+03  0.12509000000E+03 0.  0.
<mgrwt>
<rscale>  2 0.45363833E+03</rscale>
<asrwt>0</asrwt>
<pdfrwt beam="1">  1       21 0.37458075E-01 0.45363833E+03</pdfrwt>
<pdfrwt beam="2">  1       21 0.29702719E-01 0.45363833E+03</pdfrwt>
<totfact> 0.69170238E+04</totfact>
</mgrwt>
</event>
<event>
 7    0  0.4714446E-002  0.4623897E+03  0.7546771E-02  0.1024090E+00
         21   -1    0    0  502  501  0.00000000000E+00  0.00000000000E+00  0.69842229276E+02  0.69842229276E+02  0.00000000000E+00 0.  1.
         21   -1    0    0  501  502 -0.00000000000E+00 -0.00000000000E+00 -0.76531154051E+03  0.76531154051E+03  0.00000000000E+00 0.  1.
      99926    2    1    2    0    0  0.00000000000E+00 -0.35527136788E-14 -0.69546931123E+03  0.83515376978E+03  0.46238972341E+03 0.  0.
      99925    2    3    3    0    0 -0.58289524197E+02 -0.19522622072E+02 -0.62086082384E+03  0.67706285956E+03  0.26299648631E+03 0.  0.
         25    1    4    4    0    0 -0.52835995751E+02 -0.21619065758E+02 -0.24575595726E+03  0.28160704019E+03  0.12509000000E+03 0.  0.
         25    1    4    4    0    0 -0.54535284458E+01  0.20964436860E+01 -0.37510486658E+03  0.39545581938E+03  0.12509000000E+03 0.  0.
         25    1    3    3    0    0  0.58289524197E+02  0.19522622072E+02 -0.74608487389E+02  0.15809091022E+03  0.12509000000E+03 0.  0.
<mgrwt>
<rscale>  2 0.46238972E+03</rscale>
<asrwt>0</asrwt>
<pdfrwt beam="1">  1       21 0.10270917E-01 0.46238972E+03</pdfrwt>
<pdfrwt beam="2">  1       21 0.11254581E+00 0.46238972E+03</pdfrwt>
<totfact> 0.43531670E+04</totfact>
</mgrwt>
</event>
<event>
 7    0  0.4714446E-002  0.4888780E+03  0.7546771E-02  0.1016723E+00
         21   -1    0    0  502  501  0.00000000000E+00  0.00000000000E+00  0.32293492242E+04  0.32293492242E+04  0.00000000000E+00 0. -1.
         21   -1    0    0  501  502 -0.00000000000E+00 -0.00000000000E+00 -0.18502314718E+02  0.18502314718E+02  0.00000000000E+00 0. -1.
      99926    2    1    2    0    0  0.14210854715E-13  0.35527136788E-14  0.32108469095E+04  0.32478515389E+04  0.48887804484E+03 0.  0.
      99925    2    3    3    0    0 -0.10932934310E+03 -0.29071702495E+02  0.25398197475E+04  0.25559534038E+04  0.26346799334E+03 0.  0.
         25    1    4    4    0    0 -0.48824681576E+02  0.17838566946E+02  0.99305939255E+03  0.10022557205E+04  0.12509000000E+03 0.  0.
         25    1    3    3    0    0  0.10932934310E+03  0.29071702495E+02  0.67102716198E+03  0.69189813510E+03  0.12509000000E+03 0.  0.
         25    1    4    4    0    0 -0.60504661519E+02 -0.46910269441E+02  0.15467603549E+04  0.15536976833E+04  0.12509000000E+03 0.  0.
<mgrwt>
<rscale>  2 0.48887804E+03</rscale>
<asrwt>0</asrwt>
<pdfrwt beam="1">  1       21 0.47490391E+00 0.48887804E+03</pdfrwt>
<pdfrwt beam="2">  1       21 0.27209309E-02 0.48887804E+03</pdfrwt>
<totfact> 0.16179541E+03</totfact>
</mgrwt>
</event>
<event>
 7    0  0.4714446E-002  0.4650966E+03  0.7546771E-02  0.1023313E+00
         21   -1    0    0  502  501  0.00000000000E+00  0.00000000000E+00  0.95126605520E+02  0.95126605520E+02  0.00000000000E+00 0. -1.
         21   -1    0    0  501  502 -0.00000000000E+00 -0.00000000000E+00 -0.56849205847E+03  0.56849205847E+03  0.00000000000E+00 0. -1.
      99926    2    1    2    0    0 -0.14210854715E-13  0.00000000000E+00 -0.47336545295E+03  0.66361866399E+03  0.46509663420E+03 0.  0.
      99925    2    3    3    0    0  0.73970853143E+02 -0.87953444713E+02 -0.23531962080E+03  0.37117923119E+03  0.26304220609E+03 0.  0.
         25    1    3    3    0    0 -0.73970853143E+02  0.87953444713E+02 -0.23804583215E+03  0.29243943280E+03  0.12509000000E+03 0.  0.
         25    1    4    4    0    0 -0.50598709223E+01 -0.36743312838E+02 -0.10605251229E+03  0.16813779110E+03  0.12509000000E+03 0.  0.
         25    1    4    4    0    0  0.79030724065E+02 -0.51210131875E+02 -0.12926710851E+03  0.20304144010E+03  0.12509000000E+03 0.  0.
<mgrwt>
<rscale>  2 0.46509663E+03</rscale>
<asrwt>0</asrwt>
<pdfrwt beam="1">  1       21 0.13989207E-01 0.46509663E+03</pdfrwt>
<pdfrwt beam="2">  1       21 0.83601771E-01 0.46509663E+03</pdfrwt>
<totfact> 0.50759310E+04</totfact>
</mgrwt>
</event>
<event>
 7    0  0.4714446E-002  0.4549471E+03  0.7546771E-02  0.1026257E+00
         21   -1    0    0  502  501  0.00000000000E+00  0.00000000000E+00  0.31651561285E+03  0.31651561285E+03  0.00000000000E+00 0. -1.
         21   -1    0    0  501  502 -0.00000000000E+00 -0.00000000000E+00 -0.16348079821E+03  0.16348079821E+03  0.00000000000E+00 0. -1.
      99926    2    1    2    0    0  0.00000000000E+00  0.00000000000E+00  0.15303481464E+03  0.47999641105E+03  0.45494713993E+03 0.  0.
      99925    2    3    3    0    0 -0.97946958397E+02  0.29190136711E+02  0.45470009868E+02  0.28592589277E+03  0.26313575131E+03 0.  0.
         25    1    4    4    0    0 -0.47308326052E+02  0.45004687686E+02 -0.44361744797E+01  0.14117608640E+03  0.12509000000E+03 0.  0.
         25    1    3    3    0    0  0.97946958397E+02 -0.29190136711E+02  0.10756480477E+03  0.19407051828E+03  0.12509000000E+03 0.  0.
         25    1    4    4    0    0 -0.50638632345E+02 -0.15814550975E+02  0.49906184348E+02  0.14474980637E+03  0.12509000000E+03 0.  0.
<mgrwt>
<rscale>  2 0.45494714E+03</rscale>
<asrwt>0</asrwt>
<pdfrwt beam="1">  1       21 0.46546413E-01 0.45494714E+03</pdfrwt>
<pdfrwt beam="2">  1       21 0.24041294E-01 0.45494714E+03</pdfrwt>
<totfact> 0.66728351E+04</totfact>
</mgrwt>
</event>
<event>
 7    0  0.4714446E-002  0.4509856E+03  0.7546771E-02  0.1027429E+00
         21   -1    0    0  502  501  0.00000000000E+00  0.00000000000E+00  0.15921868632E+03  0.15921868632E+03  0.00000000000E+00 0.  1.
         21   -1    0    0  501  502 -0.00000000000E+00 -0.00000000000E+00 -0.31935327047E+03  0.31935327047E+03  0.00000000000E+00 0.  1.
      99926    2    1    2    0    0 -0.17763568394E-14  0.00000000000E+00 -0.16013458415E+03  0.47857195679E+03  0.45098562371E+03 0.  0.
      99925    2    3    3    0    0  0.13631308602E+02  0.35366080618E+02  0.76183461746E+01  0.26590995745E+03  0.26308457583E+03 0.  0.
         25    1    3    3    0    0 -0.13631308602E+02 -0.35366080618E+02 -0.16775293032E+03  0.21266199934E+03  0.12509000000E+03 0.  0.
         25    1    4    4    0    0  0.13997658073E+02  0.41857699165E+00  0.39961885435E+02  0.13206275033E+03  0.12509000000E+03 0.  0.
         25    1    4    4    0    0 -0.36634947050E+00  0.34947503626E+02 -0.32343539260E+02  0.13384720712E+03  0.12509000000E+03 0.  0.
<mgrwt>
<rscale>  2 0.45098562E+03</rscale>
<asrwt>0</asrwt>
<pdfrwt beam="1">  1       21 0.23414513E-01 0.45098562E+03</pdfrwt>
<pdfrwt beam="2">  1       21 0.46963715E-01 0.45098562E+03</pdfrwt>
<totfact> 0.68976032E+04</totfact>
</mgrwt>
</event>
<event>
 7    0  0.4714446E-002  0.4391869E+03  0.7546771E-02  0.1030997E+00
         21   -1    0    0  502  501  0.00000000000E+00  0.00000000000E+00  0.93120550796E+02  0.93120550796E+02  0.00000000000E+00 0. -1.
         21   -1    0    0  501  502 -0.00000000000E+00 -0.00000000000E+00 -0.51783722995E+03  0.51783722995E+03  0.00000000000E+00 0. -1.
      99926    2    1    2    0    0  0.71054273576E-14  0.00000000000E+00 -0.42471667915E+03  0.61095778074E+03  0.43918692182E+03 0.  0.
      99925    2    3    3    0    0  0.39638528098E+02 -0.65500860757E+02 -0.18708983454E+03  0.33171666441E+03  0.26300525392E+03 0.  0.
         25    1    3    3    0    0 -0.39638528098E+02  0.65500860757E+02 -0.23762684461E+03  0.27924111633E+03  0.12509000000E+03 0.  0.
         25    1    4    4    0    0  0.37986904523E+02  0.37461314874E+01 -0.94870598146E+02  0.16157034663E+03  0.12509000000E+03 0.  0.
         25    1    4    4    0    0  0.16516235749E+01 -0.69246992244E+02 -0.92219236394E+02  0.17014631779E+03  0.12509000000E+03 0.  0.
<mgrwt>
<rscale>  2 0.43918692E+03</rscale>
<asrwt>0</asrwt>
<pdfrwt beam="1">  1       21 0.13694198E-01 0.43918692E+03</pdfrwt>
<pdfrwt beam="2">  1       21 0.76152535E-01 0.43918692E+03</pdfrwt>
<totfact> 0.65856301E+04</totfact>
</mgrwt>
</event>
<event>
 7    0  0.4714446E-002  0.4490144E+03  0.7546771E-02  0.1028016E+00
         21   -1    0    0  502  501  0.00000000000E+00  0.00000000000E+00  0.11387338075E+03  0.11387338075E+03  0.00000000000E+00 0.  1.
         21   -1    0    0  501  502 -0.00000000000E+00 -0.00000000000E+00 -0.44262734743E+03  0.44262734743E+03  0.00000000000E+00 0.  1.
      99926    2    1    2    0    0  0.00000000000E+00  0.00000000000E+00 -0.32875396667E+03  0.55650072818E+03  0.44901435374E+03 0.  0.
      99925    2    3    3    0    0 -0.31537866068E+02  0.68044757279E+02 -0.30339260148E+03  0.40846210844E+03  0.26300094565E+03 0.  0.
         25    1    4    4    0    0 -0.49694546542E+01  0.57139949763E+02 -0.20425784114E+03  0.24628934834E+03  0.12509000000E+03 0.  0.
         25    1    3    3    0    0  0.31537866068E+02 -0.68044757279E+02 -0.25361365196E+02  0.14803861974E+03  0.12509000000E+03 0.  0.
         25    1    4    4    0    0 -0.26568411414E+02  0.10904807517E+02 -0.99134760335E+02  0.16217276010E+03  0.12509000000E+03 0.  0.
<mgrwt>
<rscale>  2 0.44901435E+03</rscale>
<asrwt>0</asrwt>
<pdfrwt beam="1">  1       21 0.16746085E-01 0.44901435E+03</pdfrwt>
<pdfrwt beam="2">  1       21 0.65092257E-01 0.44901435E+03</pdfrwt>
<totfact> 0.64436223E+04</totfact>
</mgrwt>
</event>
<event>
 7    0  0.4714446E-002  0.4546189E+03  0.7546771E-02  0.1026354E+00
         21   -1    0    0  502  501  0.00000000000E+00  0.00000000000E+00  0.55441352172E+03  0.55441352172E+03  0.00000000000E+00 0. -1.
         21   -1    0    0  501  502 -0.00000000000E+00 -0.00000000000E+00 -0.93196849151E+02  0.93196849151E+02  0.00000000000E+00 0. -1.
      99926    2    1    2    0    0  0.00000000000E+00  0.00000000000E+00  0.46121667257E+03  0.64761037087E+03  0.45461893208E+03 0.  0.
      99925    2    3    3    0    0 -0.23365986826E+02  0.96202643678E+02  0.21325443630E+03  0.35276516282E+03  0.26299218146E+03 0.  0.
         25    1    3    3    0    0  0.23365986826E+02 -0.96202643678E+02  0.24796223627E+03  0.29484520804E+03  0.12509000000E+03 0.  0.
         25    1    4    4    0    0  0.50698546908E+01  0.80406740214E+02  0.13947065628E+03  0.20393753790E+03  0.12509000000E+03 0.  0.
         25    1    4    4    0    0 -0.28435841517E+02  0.15795903464E+02  0.73783780013E+02  0.14882762493E+03  0.12509000000E+03 0.  0.
<mgrwt>
<rscale>  2 0.45461893E+03</rscale>
<asrwt>0</asrwt>
<pdfrwt beam="1">  1       21 0.81531399E-01 0.45461893E+03</pdfrwt>
<pdfrwt beam="2">  1       21 0.13705419E-01 0.45461893E+03</pdfrwt>
<totfact> 0.56007560E+04</totfact>
</mgrwt>
</event>
<event>
 7    0  0.4714446E-002  0.4539326E+03  0.7546771E-02  0.1026556E+00
         21   -1    0    0  502  501  0.00000000000E+00  0.00000000000E+00  0.17304137688E+03  0.17304137688E+03  0.00000000000E+00 0. -1.
         21   -1    0    0  501  502 -0.00000000000E+00 -0.00000000000E+00 -0.29769591745E+03  0.29769591745E+03  0.00000000000E+00 0. -1.
      99926    2    1    2    0    0 -0.44408920985E-15 -0.14210854715E-13 -0.12465454057E+03  0.47073729433E+03  0.45393264455E+03 0.  0.
      99925    2    3    3    0    0  0.45837829495E+00 -0.10186091563E+03 -0.30137302075E+02  0.28376972304E+03  0.26313711729E+03 0.  0.
         25    1    3    3    0    0 -0.45837829495E+00  0.10186091563E+03 -0.94517238494E+02  0.18696757129E+03  0.12509000000E+03 0.  0.
         25    1    4    4    0    0  0.80057457884E+01 -0.88477192074E+02  0.29990411278E+01  0.15345620819E+03  0.12509000000E+03 0.  0.
         25    1    4    4    0    0 -0.75473674934E+01 -0.13383723554E+02 -0.33136343203E+02  0.13031351485E+03  0.12509000000E+03 0.  0.
<mgrwt>
<rscale>  2 0.45393264E+03</rscale>
<asrwt>0</asrwt>
<pdfrwt beam="1">  1       21 0.25447262E-01 0.45393264E+03</pdfrwt>
<pdfrwt beam="2">  1       21 0.43778811E-01 0.45393264E+03</pdfrwt>
<totfact> 0.67954539E+04</totfact>
</mgrwt>
</event>
<event>
 7    0  0.4714446E-002  0.4849470E+03  0.7546771E-02  0.1017784E+00
         21   -1    0    0  502  501  0.00000000000E+00  0.00000000000E+00  0.89702462319E+02  0.89702462319E+02  0.00000000000E+00 0. -1.
         21   -1    0    0  501  502 -0.00000000000E+00 -0.00000000000E+00 -0.65542686982E+03  0.65542686982E+03  0.00000000000E+00 0. -1.
      99926    2    1    2    0    0  0.00000000000E+00  0.00000000000E+00 -0.56572440750E+03  0.74512933214E+03  0.48494702429E+03 0.  0.
      99925    2    3    3    0    0  0.41137976402E+02 -0.51957982699E+02 -0.53565767322E+03  0.60041070280E+03  0.26300552101E+03 0.  0.
         25    1    3    3    0    0 -0.41137976402E+02  0.51957982699E+02 -0.30066734278E+02  0.14471862934E+03  0.12509000000E+03 0.  0.
         25    1    4    4    0    0  0.48243939231E+02 -0.44349774810E+02 -0.22877153269E+03  0.26884624317E+03  0.12509000000E+03 0.  0.
         25    1    4    4    0    0 -0.71059628293E+01 -0.76082078893E+01 -0.30688614053E+03  0.33156445963E+03  0.12509000000E+03 0.  0.
<mgrwt>
<rscale>  2 0.48494702E+03</rscale>
<asrwt>0</asrwt>
<pdfrwt beam="1">  1       21 0.13191538E-01 0.48494702E+03</pdfrwt>
<pdfrwt beam="2">  1       21 0.96386307E-01 0.48494702E+03</pdfrwt>
<totfact> 0.40188425E+04</totfact>
</mgrwt>
</event>
<event>
 7    0  0.4714446E-002  0.4698163E+03  0.7546771E-02  0.1021972E+00
         21   -1    0    0  502  501  0.00000000000E+00  0.00000000000E+00  0.16643661603E+03  0.16643661603E+03  0.00000000000E+00 0.  1.
         21   -1    0    0  501  502 -0.00000000000E+00 -0.00000000000E+00 -0.33154870079E+03  0.33154870079E+03  0.00000000000E+00 0.  1.
      99926    2    1    2    0    0 -0.88817841970E-15  0.00000000000E+00 -0.16511208476E+03  0.49798531682E+03  0.46981632074E+03 0.  0.
      99925    2    3    3    0    0 -0.71785324812E+01 -0.74737375936E+02  0.55978727693E+01  0.27342662874E+03  0.26285657389E+03 0.  0.
         25    1    3    3    0    0  0.71785324812E+01  0.74737375936E+02 -0.17070995753E+03  0.22455868808E+03  0.12509000000E+03 0.  0.
         25    1    4    4    0    0 -0.36694101721E+02 -0.61239704496E+02 -0.90066249571E+00  0.14403151669E+03  0.12509000000E+03 0.  0.
         25    1    4    4    0    0  0.29515569240E+02 -0.13497671440E+02  0.64985352650E+01  0.12939511205E+03  0.12509000000E+03 0.  0.
<mgrwt>
<rscale>  2 0.46981632E+03</rscale>
<asrwt>0</asrwt>
<pdfrwt beam="1">  1       21 0.24475973E-01 0.46981632E+03</pdfrwt>
<pdfrwt beam="2">  1       21 0.48757161E-01 0.46981632E+03</pdfrwt>
<totfact> 0.58253253E+04</totfact>
</mgrwt>
</event>
<event>
 7    0  0.4714446E-002  0.4515713E+03  0.7546771E-02  0.1027255E+00
         21   -1    0    0  502  501  0.00000000000E+00  0.00000000000E+00  0.29001859100E+03  0.29001859100E+03  0.00000000000E+00 0. -1.
         21   -1    0    0  501  502 -0.00000000000E+00 -0.00000000000E+00 -0.17577890792E+03  0.17577890792E+03  0.00000000000E+00 0. -1.
      99926    2    1    2    0    0  0.00000000000E+00  0.00000000000E+00  0.11423968308E+03  0.46579749891E+03  0.45157126216E+03 0.  0.
      99925    2    3    3    0    0  0.10667501942E+03  0.26114688900E+02  0.76181610679E+02  0.29504193760E+03  0.26302959984E+03 0.  0.
         25    1    3    3    0    0 -0.10667501942E+03 -0.26114688900E+02  0.38058072397E+02  0.17075556131E+03  0.12509000000E+03 0.  0.
         25    1    4    4    0    0  0.62959786672E+02 -0.16299820562E+02  0.65623278828E+02  0.15551058392E+03  0.12509000000E+03 0.  0.
         25    1    4    4    0    0  0.43715232751E+02  0.42414509462E+02  0.10558331851E+02  0.13953135368E+03  0.12509000000E+03 0.  0.
<mgrwt>
<rscale>  2 0.45157126E+03</rscale>
<asrwt>0</asrwt>
<pdfrwt beam="1">  1       21 0.42649793E-01 0.45157126E+03</pdfrwt>
<pdfrwt beam="2">  1       21 0.25849839E-01 0.45157126E+03</pdfrwt>
<totfact> 0.69624113E+04</totfact>
</mgrwt>
</event>
<event>
 7    0  0.4714446E-002  0.4529763E+03  0.7546771E-02  0.1026838E+00
         21   -1    0    0  502  501  0.00000000000E+00  0.00000000000E+00  0.54436685544E+03  0.54436685544E+03  0.00000000000E+00 0.  1.
         21   -1    0    0  501  502 -0.00000000000E+00 -0.00000000000E+00 -0.94232212692E+02  0.94232212692E+02  0.00000000000E+00 0.  1.
      99926    2    1    2    0    0  0.14210854715E-13  0.00000000000E+00  0.45013464275E+03  0.63859906814E+03  0.45297634951E+03 0.  0.
      99925    2    3    3    0    0  0.10359134819E+03 -0.40948603394E+02  0.28746786283E+03  0.40511256975E+03  0.26281260713E+03 0.  0.
         25    1    3    3    0    0 -0.10359134819E+03  0.40948603394E+02  0.16266677992E+03  0.23348649839E+03  0.12509000000E+03 0.  0.
         25    1    4    4    0    0  0.54880338201E+02 -0.92040165039E+01  0.19790259833E+03  0.24064395269E+03  0.12509000000E+03 0.  0.
         25    1    4    4    0    0  0.48711009992E+02 -0.31744586891E+02  0.89565264501E+02  0.16446861706E+03  0.12509000000E+03 0.  0.
<mgrwt>
<rscale>  2 0.45297635E+03</rscale>
<asrwt>0</asrwt>
<pdfrwt beam="1">  1       21 0.80053947E-01 0.45297635E+03</pdfrwt>
<pdfrwt beam="2">  1       21 0.13857679E-01 0.45297635E+03</pdfrwt>
<totfact> 0.57272305E+04</totfact>
</mgrwt>
</event>
<event>
 7    0  0.4714446E-002  0.4572115E+03  0.7546771E-02  0.1025593E+00
         21   -1    0    0  502  501  0.00000000000E+00  0.00000000000E+00  0.33591555725E+03  0.33591555725E+03  0.00000000000E+00 0. -1.
         21   -1    0    0  501  502 -0.00000000000E+00 -0.00000000000E+00 -0.15557656447E+03  0.15557656447E+03  0.00000000000E+00 0. -1.
      99926    2    1    2    0    0  0.00000000000E+00  0.00000000000E+00  0.18033899277E+03  0.49149212172E+03  0.45721149745E+03 0.  0.
      99925    2    3    3    0    0 -0.82582431935E+02  0.84707088905E+01  0.27270009930E+02  0.27708775473E+03  0.26294934761E+03 0.  0.
         25    1    3    3    0    0  0.82582431935E+02 -0.84707088905E+01  0.15306898284E+03  0.21440436699E+03  0.12509000000E+03 0.  0.
         25    1    4    4    0    0 -0.99230165116E+01  0.30320133851E+02  0.58562540452E+01  0.12922685706E+03  0.12509000000E+03 0.  0.
         25    1    4    4    0    0 -0.72659415424E+02 -0.21849424960E+02  0.21413755885E+02  0.14786089768E+03  0.12509000000E+03 0.  0.
<mgrwt>
<rscale>  2 0.45721150E+03</rscale>
<asrwt>0</asrwt>
<pdfrwt beam="1">  1       21 0.49399346E-01 0.45721150E+03</pdfrwt>
<pdfrwt beam="2">  1       21 0.22878907E-01 0.45721150E+03</pdfrwt>
<totfact> 0.64728707E+04</totfact>
</mgrwt>
</event>
<event>
 7    0  0.4714446E-002  0.4633622E+03  0.7546771E-02  0.1023811E+00
         21   -1    0    0  502  501  0.00000000000E+00  0.00000000000E+00  0.29377120062E+02  0.29377120062E+02  0.00000000000E+00 0. -1.
         21   -1    0    0  501  502 -0.00000000000E+00 -0.00000000000E+00 -0.18271410566E+04  0.18271410566E+04  0.00000000000E+00 0. -1.
      99926    2    1    2    0    0 -0.14210854715E-13  0.14210854715E-13 -0.17977639365E+04  0.18565181766E+04  0.46336224356E+03 0.  0.
      99925    2    3    3    0    0 -0.95729831111E+02  0.66146364137E+02 -0.12521828647E+04  0.12848139208E+04  0.26314509787E+03 0.  0.
         25    1    3    3    0    0  0.95729831111E+02 -0.66146364137E+02 -0.54558107184E+03  0.57170425580E+03  0.12509000000E+03 0.  0.
         25    1    4    4    0    0 -0.82187760847E+02  0.44145248382E+02 -0.79237025031E+03  0.80759008950E+03  0.12509000000E+03 0.  0.
         25    1    4    4    0    0 -0.13542070264E+02  0.22001115755E+02 -0.45981261436E+03  0.47722383133E+03  0.12509000000E+03 0.  0.
<mgrwt>
<rscale>  2 0.46336224E+03</rscale>
<asrwt>0</asrwt>
<pdfrwt beam="1">  1       21 0.43201649E-02 0.46336224E+03</pdfrwt>
<pdfrwt beam="2">  1       21 0.26869720E+00 0.46336224E+03</pdfrwt>
<totfact> 0.15187269E+04</totfact>
</mgrwt>
</event>
<event>
 7    0  0.4714446E-002  0.4430705E+03  0.7546771E-02  0.1029809E+00
         21   -1    0    0  502  501  0.00000000000E+00  0.00000000000E+00  0.28092160400E+03  0.28092160400E+03  0.00000000000E+00 0. -1.
         21   -1    0    0  501  502 -0.00000000000E+00 -0.00000000000E+00 -0.17470309884E+03  0.17470309884E+03  0.00000000000E+00 0. -1.
      99926    2    1    2    0    0  0.00000000000E+00  0.00000000000E+00  0.10621850517E+03  0.45562470284E+03  0.44307053502E+03 0.  0.
      99925    2    3    3    0    0 -0.70590223321E+02 -0.54629680308E+02  0.11719866264E+03  0.30156155489E+03  0.26312822590E+03 0.  0.
         25    1    4    4    0    0 -0.48892384492E+02 -0.35261763337E+02  0.10188225687E+03  0.17222473568E+03  0.12509000000E+03 0.  0.
         25    1    4    4    0    0 -0.21697838829E+02 -0.19367916971E+02  0.15316405771E+02  0.12933681921E+03  0.12509000000E+03 0.  0.
         25    1    3    3    0    0  0.70590223321E+02  0.54629680308E+02 -0.10980157478E+02  0.15406314795E+03  0.12509000000E+03 0.  0.
<mgrwt>
<rscale>  2 0.44307054E+03</rscale>
<asrwt>0</asrwt>
<pdfrwt beam="1">  1       21 0.41312001E-01 0.44307054E+03</pdfrwt>
<pdfrwt beam="2">  1       21 0.25691632E-01 0.44307054E+03</pdfrwt>
<totfact> 0.75406759E+04</totfact>
</mgrwt>
</event>
<event>
 7    0  0.4714446E-002  0.4484193E+03  0.7546771E-02  0.1028194E+00
         21   -1    0    0  502  501  0.00000000000E+00  0.00000000000E+00  0.87814482381E+02  0.87814482381E+02  0.00000000000E+00 0. -1.
         21   -1    0    0  501  502 -0.00000000000E+00 -0.00000000000E+00 -0.57245649007E+03  0.57245649007E+03  0.00000000000E+00 0. -1.
      99926    2    1    2    0    0 -0.14210854715E-13  0.00000000000E+00 -0.48464200769E+03  0.66027097245E+03  0.44841931431E+03 0.  0.
      99925    2    3    3    0    0  0.78368713280E+02  0.67492018827E+02 -0.34606207006E+03  0.44684947625E+03  0.26309441322E+03 0.  0.
         25    1    4    4    0    0  0.27908425077E+02  0.57802793792E+01 -0.11510879786E+03  0.17236541203E+03  0.12509000000E+03 0.  0.
         25    1    4    4    0    0  0.50460288203E+02  0.61711739448E+02 -0.23095327220E+03  0.27448406422E+03  0.12509000000E+03 0.  0.
         25    1    3    3    0    0 -0.78368713280E+02 -0.67492018827E+02 -0.13857993762E+03  0.21342149620E+03  0.12509000000E+03 0.  0.
<mgrwt>
<rscale>  2 0.44841931E+03</rscale>
<asrwt>0</asrwt>
<pdfrwt beam="1">  1       21 0.12913894E-01 0.44841931E+03</pdfrwt>
<pdfrwt beam="2">  1       21 0.84184779E-01 0.44841931E+03</pdfrwt>
<totfact> 0.58068100E+04</totfact>
</mgrwt>
</event>
<event>
 7    0  0.4714446E-002  0.4535548E+03  0.7546771E-02  0.1026667E+00
         21   -1    0    0  502  501  0.00000000000E+00  0.00000000000E+00  0.68753716061E+02  0.68753716061E+02  0.00000000000E+00 0. -1.
         21   -1    0    0  501  502 -0.00000000000E+00 -0.00000000000E+00 -0.74800301923E+03  0.74800301923E+03  0.00000000000E+00 0. -1.
      99926    2    1    2    0    0  0.71054273576E-14 -0.88817841970E-15 -0.67924930317E+03  0.81675673529E+03  0.45355479139E+03 0.  0.
      99925    2    3    3    0    0 -0.34442972823E+02  0.73427970238E+01 -0.61876826236E+03  0.67341902413E+03  0.26339852791E+03 0.  0.
         25    1    4    4    0    0 -0.92393572635E+01  0.29279329159E+02 -0.38786427082E+03  0.40869162644E+03  0.12509000000E+03 0.  0.
         25    1    3    3    0    0  0.34442972823E+02 -0.73427970238E+01 -0.60481040811E+02  0.14333771117E+03  0.12509000000E+03 0.  0.
         25    1    4    4    0    0 -0.25203615560E+02 -0.21936532135E+02 -0.23090399154E+03  0.26472739769E+03  0.12509000000E+03 0.  0.
<mgrwt>
<rscale>  2 0.45355479E+03</rscale>
<asrwt>0</asrwt>
<pdfrwt beam="1">  1       21 0.10110840E-01 0.45355479E+03</pdfrwt>
<pdfrwt beam="2">  1       21 0.11000045E+00 0.45355479E+03</pdfrwt>
<totfact> 0.47501361E+04</totfact>
</mgrwt>
</event>
<event>
 7    0  0.4714446E-002  0.4443576E+03  0.7546771E-02  0.1029418E+00
         21   -1    0    0  502  501  0.00000000000E+00  0.00000000000E+00  0.66242748443E+03  0.66242748443E+03  0.00000000000E+00 0.  1.
         21   -1    0    0  501  502 -0.00000000000E+00 -0.00000000000E+00 -0.74518982224E+02  0.74518982224E+02  0.00000000000E+00 0.  1.
      99926    2    1    2    0    0  0.00000000000E+00  0.35527136788E-14  0.58790850220E+03  0.73694646665E+03  0.44435761245E+03 0.  0.
      99925    2    3    3    0    0 -0.88393608377E+02 -0.30585717266E+02  0.44514962811E+03  0.52534183453E+03  0.26282491434E+03 0.  0.
         25    1    4    4    0    0 -0.73780542646E+02  0.73378416963E+01  0.20195631537E+03  0.24885994819E+03  0.12509000000E+03 0.  0.
         25    1    3    3    0    0  0.88393608377E+02  0.30585717266E+02  0.14275887410E+03  0.21160463212E+03  0.12509000000E+03 0.  0.
         25    1    4    4    0    0 -0.14613065731E+02 -0.37923558963E+02  0.24319331273E+03  0.27648188634E+03  0.12509000000E+03 0.  0.
<mgrwt>
<rscale>  2 0.44435761E+03</rscale>
<asrwt>0</asrwt>
<pdfrwt beam="1">  1       21 0.97415804E-01 0.44435761E+03</pdfrwt>
<pdfrwt beam="2">  1       21 0.10958674E-01 0.44435761E+03</pdfrwt>
<totfact> 0.55437405E+04</totfact>
</mgrwt>
</event>
<event>
 7    0  0.4714446E-002  0.4531268E+03  0.7546771E-02  0.1026794E+00
         21   -1    0    0  502  501  0.00000000000E+00  0.00000000000E+00  0.71069357220E+02  0.71069357220E+02  0.00000000000E+00 0.  1.
         21   -1    0    0  501  502 -0.00000000000E+00 -0.00000000000E+00 -0.72226596505E+03  0.72226596505E+03  0.00000000000E+00 0.  1.
      99926    2    1    2    0    0  0.00000000000E+00  0.00000000000E+00 -0.65119660783E+03  0.79333532227E+03  0.45312681614E+03 0.  0.
      99925    2    3    3    0    0 -0.10922215640E+03 -0.16272020016E+02 -0.40822008654E+03  0.49858227974E+03  0.26409542314E+03 0.  0.
         25    1    3    3    0    0  0.10922215640E+03  0.16272020016E+02 -0.24297652128E+03  0.29475304253E+03  0.12509000000E+03 0.  0.
         25    1    4    4    0    0 -0.84189764228E+02 -0.24750071885E+02 -0.17266606716E+03  0.23056791040E+03  0.12509000000E+03 0.  0.
         25    1    4    4    0    0 -0.25032392177E+02  0.84780518686E+01 -0.23555401939E+03  0.26801436934E+03  0.12509000000E+03 0.  0.
<mgrwt>
<rscale>  2 0.45312682E+03</rscale>
<asrwt>0</asrwt>
<pdfrwt beam="1">  1       21 0.10451376E-01 0.45312682E+03</pdfrwt>
<pdfrwt beam="2">  1       21 0.10621558E+00 0.45312682E+03</pdfrwt>
<totfact> 0.48802379E+04</totfact>
</mgrwt>
</event>
<event>
 7    0  0.4714446E-002  0.4651632E+03  0.7546771E-02  0.1023294E+00
         21   -1    0    0  502  501  0.00000000000E+00  0.00000000000E+00  0.39508432391E+03  0.39508432391E+03  0.00000000000E+00 0. -1.
         21   -1    0    0  501  502 -0.00000000000E+00 -0.00000000000E+00 -0.13691810494E+03  0.13691810494E+03  0.00000000000E+00 0. -1.
      99926    2    1    2    0    0  0.00000000000E+00  0.14210854715E-13  0.25816621897E+03  0.53200242885E+03  0.46516318393E+03 0.  0.
      99925    2    3    3    0    0 -0.94481092338E+02 -0.77762841572E+02  0.16681289592E+03  0.33460264650E+03  0.26298032714E+03 0.  0.
         25    1    4    4    0    0 -0.49820614461E+02 -0.19202606413E+02  0.12193207146E+03  0.18266300082E+03  0.12509000000E+03 0.  0.
         25    1    4    4    0    0 -0.44660477876E+02 -0.58560235159E+02  0.44880824460E+02  0.15193964568E+03  0.12509000000E+03 0.  0.
         25    1    3    3    0    0  0.94481092338E+02  0.77762841572E+02  0.91353323052E+02  0.19739978235E+03  0.12509000000E+03 0.  0.
<mgrwt>
<rscale>  2 0.46516318E+03</rscale>
<asrwt>0</asrwt>
<pdfrwt beam="1">  1       21 0.58100636E-01 0.46516318E+03</pdfrwt>
<pdfrwt beam="2">  1       21 0.20135015E-01 0.46516318E+03</pdfrwt>
<totfact> 0.58236147E+04</totfact>
</mgrwt>
</event>
<event>
 7    0  0.4714446E-002  0.4577489E+03  0.7546771E-02  0.1025436E+00
         21   -1    0    0  502  501  0.00000000000E+00  0.00000000000E+00  0.22942328381E+03  0.22942328381E+03  0.00000000000E+00 0. -1.
         21   -1    0    0  501  502 -0.00000000000E+00 -0.00000000000E+00 -0.22832689054E+03  0.22832689054E+03  0.00000000000E+00 0. -1.
      99926    2    1    2    0    0  0.17763568394E-14  0.00000000000E+00  0.10963932634E+01  0.45775017435E+03  0.45774886132E+03 0.  0.
      99925    2    3    3    0    0 -0.15053404813E+02  0.74745006667E+01  0.11586727607E+03  0.28715610412E+03  0.26220398417E+03 0.  0.
         25    1    3    3    0    0  0.15053404813E+02 -0.74745006667E+01 -0.11477088280E+03  0.17059407023E+03  0.12509000000E+03 0.  0.
         25    1    4    4    0    0 -0.20913822493E+02 -0.35799291443E+00  0.18143530687E+02  0.12811796102E+03  0.12509000000E+03 0.  0.
         25    1    4    4    0    0  0.58604176803E+01  0.78324935812E+01  0.97723745380E+02  0.15903814310E+03  0.12509000000E+03 0.  0.
<mgrwt>
<rscale>  2 0.45774886E+03</rscale>
<asrwt>0</asrwt>
<pdfrwt beam="1">  1       21 0.33738718E-01 0.45774886E+03</pdfrwt>
<pdfrwt beam="2">  1       21 0.33577484E-01 0.45774886E+03</pdfrwt>
<totfact> 0.66866125E+04</totfact>
</mgrwt>
</event>
<event>
 7    0  0.4714446E-002  0.4124028E+03  0.7546771E-02  0.1039568E+00
         21   -1    0    0  502  501  0.00000000000E+00  0.00000000000E+00  0.25111084282E+04  0.25111084282E+04  0.00000000000E+00 0. -1.
         21   -1    0    0  501  502 -0.00000000000E+00 -0.00000000000E+00 -0.16932368632E+02  0.16932368632E+02  0.00000000000E+00 0. -1.
      99926    2    1    2    0    0  0.71054273576E-14  0.35527136788E-14  0.24941760596E+04  0.25280407968E+04  0.41240278167E+03 0.  0.
      99925    2    3    3    0    0 -0.61062569782E+02 -0.23203364658E+02  0.16845415029E+04  0.17061997799E+04  0.26300300491E+03 0.  0.
         25    1    3    3    0    0  0.61062569782E+02  0.23203364658E+02  0.80963455668E+03  0.82184101688E+03  0.12509000000E+03 0.  0.
         25    1    4    4    0    0 -0.70395418011E+02 -0.77153110963E+01  0.96376289059E+03  0.97442365441E+03  0.12509000000E+03 0.  0.
         25    1    4    4    0    0  0.93328482296E+01 -0.15488053562E+02  0.72077861228E+03  0.73177612552E+03  0.12509000000E+03 0.  0.
<mgrwt>
<rscale>  2 0.41240278E+03</rscale>
<asrwt>0</asrwt>
<pdfrwt beam="1">  1       21 0.36928039E+00 0.41240278E+03</pdfrwt>
<pdfrwt beam="2">  1       21 0.24900559E-02 0.41240278E+03</pdfrwt>
<totfact> 0.96790098E+03</totfact>
</mgrwt>
</event>
<event>
 7    0  0.4714446E-002  0.4514939E+03  0.7546771E-02  0.1027277E+00
         21   -1    0    0  502  501  0.00000000000E+00  0.00000000000E+00  0.23227980575E+03  0.23227980575E+03  0.00000000000E+00 0. -1.
         21   -1    0    0  501  502 -0.00000000000E+00 -0.00000000000E+00 -0.21939781582E+03  0.21939781582E+03  0.00000000000E+00 0. -1.
      99926    2    1    2    0    0  0.00000000000E+00  0.71054273576E-14  0.12881989926E+02  0.45167762157E+03  0.45149388497E+03 0.  0.
      99925    2    3    3    0    0  0.15631235879E+02 -0.32579021198E+02 -0.95723914157E+02  0.28212385824E+03  0.26291648007E+03 0.  0.
         25    1    4    4    0    0 -0.14299521554E+02  0.11859249775E+02 -0.66730965858E+02  0.14298827933E+03  0.12509000000E+03 0.  0.
         25    1    4    4    0    0  0.29930757432E+02 -0.44438270972E+02 -0.28992948299E+02  0.13913557891E+03  0.12509000000E+03 0.  0.
         25    1    3    3    0    0 -0.15631235879E+02  0.32579021198E+02  0.10860590408E+03  0.16955376333E+03  0.12509000000E+03 0.  0.
<mgrwt>
<rscale>  2 0.45149388E+03</rscale>
<asrwt>0</asrwt>
<pdfrwt beam="1">  1       21 0.34158795E-01 0.45149388E+03</pdfrwt>
<pdfrwt beam="2">  1       21 0.32264385E-01 0.45149388E+03</pdfrwt>
<totfact> 0.70748457E+04</totfact>
</mgrwt>
</event>
<event>
 7    0  0.4714446E-002  0.4516573E+03  0.7546771E-02  0.1027229E+00
         21   -1    0    0  502  501  0.00000000000E+00  0.00000000000E+00  0.44241511632E+02  0.44241511632E+02  0.00000000000E+00 0.  1.
         21   -1    0    0  501  502 -0.00000000000E+00 -0.00000000000E+00 -0.11527313494E+04  0.11527313494E+04  0.00000000000E+00 0.  1.
      99926    2    1    2    0    0  0.00000000000E+00  0.00000000000E+00 -0.11084898378E+04  0.11969728610E+04  0.45165729222E+03 0.  0.
      99925    2    3    3    0    0 -0.12217705812E+02 -0.80963742028E+02 -0.89450606246E+03  0.93593461852E+03  0.26292225945E+03 0.  0.
         25    1    3    3    0    0  0.12217705812E+02  0.80963742028E+02 -0.21398377533E+03  0.26103824253E+03  0.12509000000E+03 0.  0.
         25    1    4    4    0    0 -0.22301332895E+02 -0.54943601100E+02 -0.34625807457E+03  0.37290523066E+03  0.12509000000E+03 0.  0.
         25    1    4    4    0    0  0.10083627083E+02 -0.26020140928E+02 -0.54824798789E+03  0.56302938786E+03  0.12509000000E+03 0.  0.
<mgrwt>
<rscale>  2 0.45165729E+03</rscale>
<asrwt>0</asrwt>
<pdfrwt beam="1">  1       21 0.65061057E-02 0.45165729E+03</pdfrwt>
<pdfrwt beam="2">  1       21 0.16951929E+00 0.45165729E+03</pdfrwt>
<totfact> 0.33105752E+04</totfact>
</mgrwt>
</event>
<event>
 7    0  0.4714446E-002  0.4641168E+03  0.7546771E-02  0.1023594E+00
         21   -1    0    0  502  501  0.00000000000E+00  0.00000000000E+00  0.17647625817E+04  0.17647625817E+04  0.00000000000E+00 0. -1.
         21   -1    0    0  501  502 -0.00000000000E+00 -0.00000000000E+00 -0.30514644650E+02  0.30514644650E+02  0.00000000000E+00 0. -1.
      99926    2    1    2    0    0  0.00000000000E+00 -0.88817841970E-15  0.17342479371E+04  0.17952772264E+04  0.46411680889E+03 0.  0.
      99925    2    3    3    0    0  0.11588388863E+03 -0.66894371121E+01  0.12223879464E+04  0.12557200168E+04  0.26291946479E+03 0.  0.
         25    1    4    4    0    0  0.25609116445E+02 -0.30016929128E+02  0.58290547775E+03  0.59748066661E+03  0.12509000000E+03 0.  0.
         25    1    3    3    0    0 -0.11588388863E+03  0.66894371121E+01  0.51185999069E+03  0.53955720955E+03  0.12509000000E+03 0.  0.
         25    1    4    4    0    0  0.90274772186E+02  0.23327492016E+02  0.63948246863E+03  0.65823935021E+03  0.12509000000E+03 0.  0.
<mgrwt>
<rscale>  2 0.46411681E+03</rscale>
<asrwt>0</asrwt>
<pdfrwt beam="1">  1       21 0.25952384E+00 0.46411681E+03</pdfrwt>
<pdfrwt beam="2">  1       21 0.44874489E-02 0.46411681E+03</pdfrwt>
<totfact> 0.16174904E+04</totfact>
</mgrwt>
</event>
<event>
 7    0  0.4714446E-002  0.4540833E+03  0.7546771E-02  0.1026511E+00
         21   -1    0    0  502  501  0.00000000000E+00  0.00000000000E+00  0.60512763858E+03  0.60512763858E+03  0.00000000000E+00 0.  1.
         21   -1    0    0  501  502 -0.00000000000E+00 -0.00000000000E+00 -0.85185183351E+02  0.85185183351E+02  0.00000000000E+00 0.  1.
      99926    2    1    2    0    0  0.00000000000E+00  0.00000000000E+00  0.51994245523E+03  0.69031282193E+03  0.45408329123E+03 0.  0.
      99925    2    3    3    0    0  0.10135122626E+03  0.41408537102E+02  0.28997343331E+03  0.40655236459E+03  0.26308457787E+03 0.  0.
         25    1    4    4    0    0  0.45632148198E+02 -0.24923071550E+01  0.92004926839E+02  0.16186697998E+03  0.12509000000E+03 0.  0.
         25    1    4    4    0    0  0.55719078064E+02  0.43900844257E+02  0.19796850647E+03  0.24468538461E+03  0.12509000000E+03 0.  0.
         25    1    3    3    0    0 -0.10135122626E+03 -0.41408537102E+02  0.22996902192E+03  0.28376045734E+03  0.12509000000E+03 0.  0.
<mgrwt>
<rscale>  2 0.45408329E+03</rscale>
<asrwt>0</asrwt>
<pdfrwt beam="1">  1       21 0.88989357E-01 0.45408329E+03</pdfrwt>
<pdfrwt beam="2">  1       21 0.12527233E-01 0.45408329E+03</pdfrwt>
<totfact> 0.53819492E+04</totfact>
</mgrwt>
</event>
<event>
 7    0  0.4714446E-002  0.4621892E+03  0.7546771E-02  0.1024148E+00
         21   -1    0    0  502  501  0.00000000000E+00  0.00000000000E+00  0.15247668664E+03  0.15247668664E+03  0.00000000000E+00 0.  1.
         21   -1    0    0  501  502 -0.00000000000E+00 -0.00000000000E+00 -0.35024840111E+03  0.35024840111E+03  0.00000000000E+00 0.  1.
      99926    2    1    2    0    0  0.00000000000E+00  0.00000000000E+00 -0.19777171447E+03  0.50272508775E+03  0.46218920672E+03 0.  0.
      99925    2    3    3    0    0  0.78224650724E+02  0.83538137022E+02 -0.84956984981E+02  0.29907738310E+03  0.26292941157E+03 0.  0.
         25    1    4    4    0    0  0.90308958861E+00  0.49135641218E+02 -0.54393403100E+02  0.14498716222E+03  0.12509000000E+03 0.  0.
         25    1    4    4    0    0  0.77321561135E+02  0.34402495805E+02 -0.30563581881E+02  0.15409022088E+03  0.12509000000E+03 0.  0.
         25    1    3    3    0    0 -0.78224650724E+02 -0.83538137022E+02 -0.11281472949E+03  0.20364770465E+03  0.12509000000E+03 0.  0.
<mgrwt>
<rscale>  2 0.46218921E+03</rscale>
<asrwt>0</asrwt>
<pdfrwt beam="1">  1       21 0.22423042E-01 0.46218921E+03</pdfrwt>
<pdfrwt beam="2">  1       21 0.51507117E-01 0.46218921E+03</pdfrwt>
<totfact> 0.61494541E+04</totfact>
</mgrwt>
</event>
<event>
 7    0  0.4714446E-002  0.4087523E+03  0.7546771E-02  0.1040791E+00
         21   -1    0    0  502  501  0.00000000000E+00  0.00000000000E+00  0.18565647852E+03  0.18565647852E+03  0.00000000000E+00 0.  1.
         21   -1    0    0  501  502 -0.00000000000E+00 -0.00000000000E+00 -0.22498333189E+03  0.22498333189E+03  0.00000000000E+00 0.  1.
      99926    2    1    2    0    0  0.00000000000E+00  0.00000000000E+00 -0.39326853363E+02  0.41063981041E+03  0.40875231192E+03 0.  0.
      99925    2    3    3    0    0  0.33662367069E+02 -0.49691188717E+02 -0.20709031994E+02  0.27065230895E+03  0.26309967530E+03 0.  0.
         25    1    4    4    0    0  0.14868690853E+02 -0.38116802467E+02  0.28095935128E+02  0.13457658886E+03  0.12509000000E+03 0.  0.
         25    1    4    4    0    0  0.18793676216E+02 -0.11574386250E+02 -0.48804967121E+02  0.13607572009E+03  0.12509000000E+03 0.  0.
         25    1    3    3    0    0 -0.33662367069E+02  0.49691188717E+02 -0.18617821369E+02  0.13998750146E+03  0.12509000000E+03 0.  0.
<mgrwt>
<rscale>  2 0.40875231E+03</rscale>
<asrwt>0</asrwt>
<pdfrwt beam="1">  1       21 0.27302423E-01 0.40875231E+03</pdfrwt>
<pdfrwt beam="2">  1       21 0.33085784E-01 0.40875231E+03</pdfrwt>
<totfact> 0.10594672E+05</totfact>
</mgrwt>
</event>
<event>
 7    0  0.4714446E-002  0.4557736E+03  0.7546771E-02  0.1026014E+00
         21   -1    0    0  502  501  0.00000000000E+00  0.00000000000E+00  0.59360603573E+03  0.59360603573E+03  0.00000000000E+00 0.  1.
         21   -1    0    0  501  502 -0.00000000000E+00 -0.00000000000E+00 -0.87486286027E+02  0.87486286027E+02  0.00000000000E+00 0.  1.
      99926    2    1    2    0    0  0.00000000000E+00  0.00000000000E+00  0.50611974970E+03  0.68109232176E+03  0.45577357286E+03 0.  0.
      99925    2    3    3    0    0 -0.46014400586E+02  0.70176918289E+02  0.43329051202E+03  0.51377905007E+03  0.26303254468E+03 0.  0.
         25    1    4    4    0    0  0.52081865545E+01  0.10474289225E+02  0.16379035301E+03  0.20642583118E+03  0.12509000000E+03 0.  0.
         25    1    3    3    0    0  0.46014400586E+02 -0.70176918289E+02  0.72829237684E+02  0.16731327169E+03  0.12509000000E+03 0.  0.
         25    1    4    4    0    0 -0.51222587141E+02  0.59702629064E+02  0.26950015901E+03  0.30735321888E+03  0.12509000000E+03 0.  0.
<mgrwt>
<rscale>  2 0.45577357E+03</rscale>
<asrwt>0</asrwt>
<pdfrwt beam="1">  1       21 0.87295003E-01 0.45577357E+03</pdfrwt>
<pdfrwt beam="2">  1       21 0.12865631E-01 0.45577357E+03</pdfrwt>
<totfact> 0.53614650E+04</totfact>
</mgrwt>
</event>
<event>
 6    0  0.4714446E-002  0.4573753E+03  0.7546771E-02  0.1025545E+00
         21   -1    0    0  502  501  0.00000000000E+00  0.00000000000E+00  0.53048782212E+02  0.53048782212E+02  0.00000000000E+00 0. -1.
         21   -1    0    0  501  502 -0.00000000000E+00 -0.00000000000E+00 -0.98584830166E+03  0.98584830166E+03  0.00000000000E+00 0. -1.
      99926    2    1    2    0    0  0.35527136788E-14 -0.14210854715E-13 -0.93279951944E+03  0.10388970839E+04  0.45737534629E+03 0.  0.
         25    1    3    3    0    0 -0.50873417443E+02 -0.79130891124E+02 -0.27305337517E+03  0.31473076800E+03  0.12509000000E+03 0.  0.
         25    1    3    3    0    0  0.26879142766E+02  0.77320176947E+02 -0.48768422603E+03  0.51008265065E+03  0.12509000000E+03 0.  0.
         25    1    3    3    0    0  0.23994274676E+02  0.18107141771E+01 -0.17206191825E+03  0.21408366522E+03  0.12509000000E+03 0.  0.
<mgrwt>
<rscale>  2 0.45737535E+03</rscale>
<asrwt>0</asrwt>
<pdfrwt beam="1">  1       21 0.78012917E-02 0.45737535E+03</pdfrwt>
<pdfrwt beam="2">  1       21 0.14497769E+00 0.45737535E+03</pdfrwt>
<totfact> 0.36996667E+04</totfact>
</mgrwt>
</event>
<event>
 7    0  0.4714446E-002  0.4622343E+03  0.7546771E-02  0.1024135E+00
         21   -1    0    0  502  501  0.00000000000E+00  0.00000000000E+00  0.22996356751E+03  0.22996356751E+03  0.00000000000E+00 0.  1.
         21   -1    0    0  501  502 -0.00000000000E+00 -0.00000000000E+00 -0.23227653842E+03  0.23227653842E+03  0.00000000000E+00 0.  1.
      99926    2    1    2    0    0  0.00000000000E+00  0.00000000000E+00 -0.23129709175E+01  0.46224010593E+03  0.46223431904E+03 0.  0.
      99925    2    3    3    0    0  0.91661202149E+02  0.12006991538E+02 -0.78294502835E+02  0.28913133920E+03  0.26252801434E+03 0.  0.
         25    1    4    4    0    0  0.33289669480E+02 -0.48246334740E+01 -0.75729299480E+02  0.15004637311E+03  0.12509000000E+03 0.  0.
         25    1    4    4    0    0  0.58371532669E+02  0.16831625012E+02 -0.25652033550E+01  0.13908496610E+03  0.12509000000E+03 0.  0.
         25    1    3    3    0    0 -0.91661202149E+02 -0.12006991538E+02  0.75981531918E+02  0.17310876673E+03  0.12509000000E+03 0.  0.
<mgrwt>
<rscale>  2 0.46223432E+03</rscale>
<asrwt>0</asrwt>
<pdfrwt beam="1">  1       21 0.33818172E-01 0.46223432E+03</pdfrwt>
<pdfrwt beam="2">  1       21 0.34158314E-01 0.46223432E+03</pdfrwt>
<totfact> 0.64230248E+04</totfact>
</mgrwt>
</event>
<event>
 7    0  0.4714446E-002  0.4596867E+03  0.7546771E-02  0.1024872E+00
         21   -1    0    0  502  501  0.00000000000E+00  0.00000000000E+00  0.31382900881E+03  0.31382900881E+03  0.00000000000E+00 0.  1.
         21   -1    0    0  501  502 -0.00000000000E+00 -0.00000000000E+00 -0.16833361079E+03  0.16833361079E+03  0.00000000000E+00 0.  1.
      99926    2    1    2    0    0  0.00000000000E+00 -0.71054273576E-14  0.14549539802E+03  0.48216261961E+03  0.45968672039E+03 0.  0.
      99925    2    3    3    0    0 -0.78827434327E+02  0.46968941091E+02  0.16795456312E+03  0.32540877427E+03  0.26317729627E+03 0.  0.
         25    1    4    4    0    0 -0.10819356475E+01  0.36341087597E+01  0.72579686958E+02  0.14467099360E+03  0.12509000000E+03 0.  0.
         25    1    3    3    0    0  0.78827434327E+02 -0.46968941091E+02 -0.22459165100E+02  0.15675384533E+03  0.12509000000E+03 0.  0.
         25    1    4    4    0    0 -0.77745498679E+02  0.43334832331E+02  0.95374876164E+02  0.18073778067E+03  0.12509000000E+03 0.  0.
<mgrwt>
<rscale>  2 0.45968672E+03</rscale>
<asrwt>0</asrwt>
<pdfrwt beam="1">  1       21 0.46151325E-01 0.45968672E+03</pdfrwt>
<pdfrwt beam="2">  1       21 0.24754943E-01 0.45968672E+03</pdfrwt>
<totfact> 0.64124194E+04</totfact>
</mgrwt>
</event>
<event>
 7    0  0.4714446E-002  0.4562686E+03  0.7546771E-02  0.1025869E+00
         21   -1    0    0  502  501  0.00000000000E+00  0.00000000000E+00  0.29221224966E+02  0.29221224966E+02  0.00000000000E+00 0.  1.
         21   -1    0    0  501  502 -0.00000000000E+00 -0.00000000000E+00 -0.17810774816E+04  0.17810774816E+04  0.00000000000E+00 0.  1.
      99926    2    1    2    0    0  0.00000000000E+00  0.00000000000E+00 -0.17518562566E+04  0.18102987066E+04  0.45626863039E+03 0.  0.
      99925    2    3    3    0    0 -0.30907815710E+02 -0.79509029440E+02 -0.79870218058E+03  0.84519395596E+03  0.26296515187E+03 0.  0.
         25    1    4    4    0    0 -0.29537504882E+02 -0.51755730294E+01 -0.42953002977E+03  0.44837797150E+03  0.12509000000E+03 0.  0.
         25    1    4    4    0    0 -0.13703108280E+01 -0.74333456411E+02 -0.36917215081E+03  0.39681598447E+03  0.12509000000E+03 0.  0.
         25    1    3    3    0    0  0.30907815710E+02  0.79509029440E+02 -0.95315407604E+03  0.96510475059E+03  0.12509000000E+03 0.  0.
<mgrwt>
<rscale>  2 0.45626863E+03</rscale>
<asrwt>0</asrwt>
<pdfrwt beam="1">  1       21 0.42972386E-02 0.45626863E+03</pdfrwt>
<pdfrwt beam="2">  1       21 0.26192318E+00 0.45626863E+03</pdfrwt>
<totfact> 0.16895394E+04</totfact>
</mgrwt>
</event>
<event>
 7    0  0.4714446E-002  0.4531437E+03  0.7546771E-02  0.1026789E+00
         21   -1    0    0  502  501  0.00000000000E+00  0.00000000000E+00  0.10449296358E+04  0.10449296358E+04  0.00000000000E+00 0. -1.
         21   -1    0    0  501  502 -0.00000000000E+00 -0.00000000000E+00 -0.49127521194E+02  0.49127521194E+02  0.00000000000E+00 0. -1.
      99926    2    1    2    0    0  0.35527136788E-14  0.00000000000E+00  0.99580211461E+03  0.10940571570E+04  0.45314369831E+03 0.  0.
      99925    2    3    3    0    0 -0.14575016863E+02 -0.10824188333E+03  0.57356617295E+03  0.64033980561E+03  0.26292237537E+03 0.  0.
         25    1    4    4    0    0  0.31199274760E+02 -0.65883242763E+02  0.28146470521E+03  0.31651837988E+03  0.12509000000E+03 0.  0.
         25    1    3    3    0    0  0.14575016863E+02  0.10824188333E+03  0.42223594166E+03  0.45371735139E+03  0.12509000000E+03 0.  0.
         25    1    4    4    0    0 -0.45774291624E+02 -0.42358640570E+02  0.29210146774E+03  0.32382142573E+03  0.12509000000E+03 0.  0.
<mgrwt>
<rscale>  2 0.45314370E+03</rscale>
<asrwt>0</asrwt>
<pdfrwt beam="1">  1       21 0.15366611E+00 0.45314370E+03</pdfrwt>
<pdfrwt beam="2">  1       21 0.72246361E-02 0.45314370E+03</pdfrwt>
<totfact> 0.36222758E+04</totfact>
</mgrwt>
</event>
<event>
 7    0  0.4714446E-002  0.4463855E+03  0.7546771E-02  0.1028805E+00
         21   -1    0    0  502  501  0.00000000000E+00  0.00000000000E+00  0.15738930915E+04  0.15738930915E+04  0.00000000000E+00 0. -1.
         21   -1    0    0  501  502 -0.00000000000E+00 -0.00000000000E+00 -0.31650817966E+02  0.31650817966E+02  0.00000000000E+00 0. -1.
      99926    2    1    2    0    0  0.17763568394E-14 -0.14210854715E-13  0.15422422736E+04  0.16055439095E+04  0.44638550038E+03 0.  0.
      99925    2    3    3    0    0 -0.15096927520E+02  0.10098920088E+03  0.89138758609E+03  0.93495754800E+03  0.26295827048E+03 0.  0.
         25    1    4    4    0    0  0.50348442853E+01  0.43634721168E+02  0.30987278398E+03  0.33704300749E+03  0.12509000000E+03 0.  0.
         25    1    4    4    0    0 -0.20131771805E+02  0.57354479714E+02  0.58151480211E+03  0.59791454051E+03  0.12509000000E+03 0.  0.
         25    1    3    3    0    0  0.15096927520E+02 -0.10098920088E+03  0.65085468749E+03  0.67058636151E+03  0.12509000000E+03 0.  0.
<mgrwt>
<rscale>  2 0.44638550E+03</rscale>
<asrwt>0</asrwt>
<pdfrwt beam="1">  1       21 0.23145481E+00 0.44638550E+03</pdfrwt>
<pdfrwt beam="2">  1       21 0.46545331E-02 0.44638550E+03</pdfrwt>
<totfact> 0.22791683E+04</totfact>
</mgrwt>
</event>
<event>
 7    0  0.4714446E-002  0.4542325E+03  0.7546771E-02  0.1026467E+00
         21   -1    0    0  502  501  0.00000000000E+00  0.00000000000E+00  0.43545432276E+03  0.43545432276E+03  0.00000000000E+00 0.  1.
         21   -1    0    0  501  502 -0.00000000000E+00 -0.00000000000E+00 -0.11845509493E+03  0.11845509493E+03  0.00000000000E+00 0.  1.
      99926    2    1    2    0    0 -0.14210854715E-13  0.00000000000E+00  0.31699922783E+03  0.55390941768E+03  0.45423246533E+03 0.  0.
      99925    2    3    3    0    0 -0.92902891403E+02  0.41991434649E+02  0.14168802692E+03  0.31563278627E+03  0.26297211065E+03 0.  0.
         25    1    3    3    0    0  0.92902891403E+02 -0.41991434649E+02  0.17531120091E+03  0.23827663141E+03  0.12509000000E+03 0.  0.
         25    1    4    4    0    0 -0.97948256592E+01  0.29236976615E+01  0.78802426012E+02  0.14819519919E+03  0.12509000000E+03 0.  0.
         25    1    4    4    0    0 -0.83108065744E+02  0.39067736988E+02  0.62885600909E+02  0.16743758708E+03  0.12509000000E+03 0.  0.
<mgrwt>
<rscale>  2 0.45423247E+03</rscale>
<asrwt>0</asrwt>
<pdfrwt beam="1">  1       21 0.64037400E-01 0.45423247E+03</pdfrwt>
<pdfrwt beam="2">  1       21 0.17419867E-01 0.45423247E+03</pdfrwt>
<totfact> 0.61984427E+04</totfact>
</mgrwt>
</event>
<event>
 7    0  0.4714446E-002  0.4616482E+03  0.7546771E-02  0.1024304E+00
         21   -1    0    0  502  501  0.00000000000E+00  0.00000000000E+00  0.48600041901E+02  0.48600041901E+02  0.00000000000E+00 0.  1.
         21   -1    0    0  501  502 -0.00000000000E+00 -0.00000000000E+00 -0.10962907228E+04  0.10962907228E+04  0.00000000000E+00 0.  1.
      99926    2    1    2    0    0  0.71054273576E-14  0.00000000000E+00 -0.10476906809E+04  0.11448907647E+04  0.46164824299E+03 0.  0.
      99925    2    3    3    0    0 -0.51791138855E+02  0.73752832365E+02 -0.84912688457E+03  0.89350084514E+03  0.26306936692E+03 0.  0.
         25    1    4    4    0    0  0.82081007668E+01  0.30546576574E+02 -0.32710812662E+03  0.35163575026E+03  0.12509000000E+03 0.  0.
         25    1    3    3    0    0  0.51791138855E+02 -0.73752832365E+02 -0.19856379632E+03  0.25138991956E+03  0.12509000000E+03 0.  0.
         25    1    4    4    0    0 -0.59999239622E+02  0.43206255791E+02 -0.52201875795E+03  0.54186509487E+03  0.12509000000E+03 0.  0.
<mgrwt>
<rscale>  2 0.46164824E+03</rscale>
<asrwt>0</asrwt>
<pdfrwt beam="1">  1       21 0.71470653E-02 0.46164824E+03</pdfrwt>
<pdfrwt beam="2">  1       21 0.16121922E+00 0.46164824E+03</pdfrwt>
<totfact> 0.32249642E+04</totfact>
</mgrwt>
</event>
<event>
 7    0  0.4714446E-002  0.4500930E+03  0.7546771E-02  0.1027694E+00
         21   -1    0    0  502  501  0.00000000000E+00  0.00000000000E+00  0.16642141366E+03  0.16642141366E+03  0.00000000000E+00 0.  1.
         21   -1    0    0  501  502 -0.00000000000E+00 -0.00000000000E+00 -0.30432341557E+03  0.30432341557E+03  0.00000000000E+00 0.  1.
      99926    2    1    2    0    0  0.00000000000E+00  0.00000000000E+00 -0.13790200191E+03  0.47074482923E+03  0.45009302607E+03 0.  0.
      99925    2    3    3    0    0 -0.39401942070E+01  0.28561089260E+02 -0.19658592695E+03  0.32959748740E+03  0.26297759614E+03 0.  0.
         25    1    4    4    0    0  0.49112736937E+01  0.53058244948E+02 -0.88415627230E+02  0.16218547779E+03  0.12509000000E+03 0.  0.
         25    1    4    4    0    0 -0.88514679008E+01 -0.24497155688E+02 -0.10817029972E+03  0.16741200961E+03  0.12509000000E+03 0.  0.
         25    1    3    3    0    0  0.39401942070E+01 -0.28561089260E+02  0.58683925036E+02  0.14114734184E+03  0.12509000000E+03 0.  0.
<mgrwt>
<rscale>  2 0.45009303E+03</rscale>
<asrwt>0</asrwt>
<pdfrwt beam="1">  1       21 0.24473738E-01 0.45009303E+03</pdfrwt>
<pdfrwt beam="2">  1       21 0.44753442E-01 0.45009303E+03</pdfrwt>
<totfact> 0.70069122E+04</totfact>
</mgrwt>
</event>
<event>
 7    0  0.4714446E-002  0.4546839E+03  0.7546771E-02  0.1026334E+00
         21   -1    0    0  502  501  0.00000000000E+00  0.00000000000E+00  0.61771603672E+03  0.61771603672E+03  0.00000000000E+00 0. -1.
         21   -1    0    0  501  502 -0.00000000000E+00 -0.00000000000E+00 -0.83670087548E+02  0.83670087548E+02  0.00000000000E+00 0. -1.
      99926    2    1    2    0    0  0.71054273576E-14 -0.14210854715E-13  0.53404594917E+03  0.70138612427E+03  0.45468386764E+03 0.  0.
      99925    2    3    3    0    0 -0.56913369387E+02  0.96990239724E+02  0.32149793413E+03  0.43033187690E+03  0.26301780246E+03 0.  0.
         25    1    3    3    0    0  0.56913369387E+02 -0.96990239724E+02  0.21254801505E+03  0.27105424737E+03  0.12509000000E+03 0.  0.
         25    1    4    4    0    0 -0.60590116770E+00  0.25706532432E+02  0.11126365818E+03  0.16937621633E+03  0.12509000000E+03 0.  0.
         25    1    4    4    0    0 -0.56307468219E+02  0.71283707292E+02  0.21023427594E+03  0.26095566057E+03  0.12509000000E+03 0.  0.
<mgrwt>
<rscale>  2 0.45468387E+03</rscale>
<asrwt>0</asrwt>
<pdfrwt beam="1">  1       21 0.90840591E-01 0.45468387E+03</pdfrwt>
<pdfrwt beam="2">  1       21 0.12304425E-01 0.45468387E+03</pdfrwt>
<totfact> 0.52959391E+04</totfact>
</mgrwt>
</event>
<event>
 7    0  0.4714446E-002  0.4557619E+03  0.7546771E-02  0.1026018E+00
         21   -1    0    0  502  501  0.00000000000E+00  0.00000000000E+00  0.41127080414E+03  0.41127080414E+03  0.00000000000E+00 0.  1.
         21   -1    0    0  501  502 -0.00000000000E+00 -0.00000000000E+00 -0.12626648691E+03  0.12626648691E+03  0.00000000000E+00 0.  1.
      99926    2    1    2    0    0 -0.35527136788E-14  0.00000000000E+00  0.28500431723E+03  0.53753729105E+03  0.45576186593E+03 0.  0.
      99925    2    3    3    0    0  0.73111448921E+01 -0.99735883020E+02  0.11467621239E+03  0.30374278598E+03  0.26288466510E+03 0.  0.
         25    1    4    4    0    0 -0.26983392494E+02 -0.61337137795E+02  0.32889058026E+02  0.14566930418E+03  0.12509000000E+03 0.  0.
         25    1    4    4    0    0  0.34294537387E+02 -0.38398745225E+02  0.81787154360E+02  0.15807348180E+03  0.12509000000E+03 0.  0.
         25    1    3    3    0    0 -0.73111448921E+01  0.99735883020E+02  0.17032810485E+03  0.23379450507E+03  0.12509000000E+03 0.  0.
<mgrwt>
<rscale>  2 0.45576187E+03</rscale>
<asrwt>0</asrwt>
<pdfrwt beam="1">  1       21 0.60481000E-01 0.45576187E+03</pdfrwt>
<pdfrwt beam="2">  1       21 0.18568601E-01 0.45576187E+03</pdfrwt>
<totfact> 0.62321016E+04</totfact>
</mgrwt>
</event>
<event>
 7    0  0.4714446E-002  0.4470589E+03  0.7546771E-02  0.1028603E+00
         21   -1    0    0  502  501  0.00000000000E+00  0.00000000000E+00  0.68260348068E+02  0.68260348068E+02  0.00000000000E+00 0. -1.
         21   -1    0    0  501  502 -0.00000000000E+00 -0.00000000000E+00 -0.73198292965E+03  0.73198292965E+03  0.00000000000E+00 0. -1.
      99926    2    1    2    0    0  0.00000000000E+00 -0.14210854715E-13 -0.66372258159E+03  0.80024327772E+03  0.44705887558E+03 0.  0.
      99925    2    3    3    0    0  0.61140508844E+02 -0.82186185366E+02 -0.46890754104E+03  0.54707704970E+03  0.26253815986E+03 0.  0.
         25    1    4    4    0    0  0.43106854986E+02 -0.34944352137E+02 -0.30837018068E+03  0.33737069393E+03  0.12509000000E+03 0.  0.
         25    1    3    3    0    0 -0.61140508844E+02  0.82186185366E+02 -0.19481504055E+03  0.25316622802E+03  0.12509000000E+03 0.  0.
         25    1    4    4    0    0  0.18033653858E+02 -0.47241833229E+02 -0.16053736036E+03  0.20970635577E+03  0.12509000000E+03 0.  0.
<mgrwt>
<rscale>  2 0.44705888E+03</rscale>
<asrwt>0</asrwt>
<pdfrwt beam="1">  1       21 0.10038287E-01 0.44705888E+03</pdfrwt>
<pdfrwt beam="2">  1       21 0.10764455E+00 0.44705888E+03</pdfrwt>
<totfact> 0.50848682E+04</totfact>
</mgrwt>
</event>
<event>
 7    0  0.4714446E-002  0.4319766E+03  0.7546771E-02  0.1033237E+00
         21   -1    0    0  502  501  0.00000000000E+00  0.00000000000E+00  0.11804695122E+03  0.11804695122E+03  0.00000000000E+00 0.  1.
         21   -1    0    0  501  502 -0.00000000000E+00 -0.00000000000E+00 -0.39518966967E+03  0.39518966967E+03  0.00000000000E+00 0.  1.
      99926    2    1    2    0    0  0.00000000000E+00  0.17763568394E-14 -0.27714271845E+03  0.51323662088E+03  0.43197655333E+03 0.  0.
      99925    2    3    3    0    0 -0.85458368198E+02 -0.14890954943E+02 -0.20628038078E+03  0.34532637035E+03  0.26300918868E+03 0.  0.
         25    1    4    4    0    0 -0.38023468392E+01  0.95995408462E+01 -0.96870512068E+02  0.15854971849E+03  0.12509000000E+03 0.  0.
         25    1    4    4    0    0 -0.81656021359E+02 -0.24490495790E+02 -0.10940986871E+03  0.18677665186E+03  0.12509000000E+03 0.  0.
         25    1    3    3    0    0  0.85458368198E+02  0.14890954943E+02 -0.70862337671E+02  0.16791025053E+03  0.12509000000E+03 0.  0.
<mgrwt>
<rscale>  2 0.43197655E+03</rscale>
<asrwt>0</asrwt>
<pdfrwt beam="1">  1       21 0.17359846E-01 0.43197655E+03</pdfrwt>
<pdfrwt beam="2">  1       21 0.58116128E-01 0.43197655E+03</pdfrwt>
<totfact> 0.77567714E+04</totfact>
</mgrwt>
</event>
<event>
 7    0  0.4714446E-002  0.4581817E+03  0.7546771E-02  0.1025310E+00
         21   -1    0    0  502  501  0.00000000000E+00  0.00000000000E+00  0.31865861171E+03  0.31865861171E+03  0.00000000000E+00 0.  1.
         21   -1    0    0  501  502 -0.00000000000E+00 -0.00000000000E+00 -0.16469854681E+03  0.16469854681E+03  0.00000000000E+00 0.  1.
      99926    2    1    2    0    0  0.00000000000E+00  0.00000000000E+00  0.15396006490E+03  0.48335715851E+03  0.45818166823E+03 0.  0.
      99925    2    3    3    0    0  0.10308784491E+03 -0.42110685554E+02  0.61927745730E+02  0.29226066593E+03  0.26302250389E+03 0.  0.
         25    1    4    4    0    0  0.18502103367E+02 -0.16071949543E+02  0.13137866525E+01  0.12747497608E+03  0.12509000000E+03 0.  0.
         25    1    4    4    0    0  0.84585741541E+02 -0.26038736011E+02  0.60613959078E+02  0.16478568985E+03  0.12509000000E+03 0.  0.
         25    1    3    3    0    0 -0.10308784491E+03  0.42110685554E+02  0.92032319168E+02  0.19109649258E+03  0.12509000000E+03 0.  0.
<mgrwt>
<rscale>  2 0.45818167E+03</rscale>
<asrwt>0</asrwt>
<pdfrwt beam="1">  1       21 0.46861561E-01 0.45818167E+03</pdfrwt>
<pdfrwt beam="2">  1       21 0.24220375E-01 0.45818167E+03</pdfrwt>
<totfact> 0.64804336E+04</totfact>
</mgrwt>
</event>
<event>
 7    0  0.4714446E-002  0.4513521E+03  0.7546771E-02  0.1027320E+00
         21   -1    0    0  502  501  0.00000000000E+00  0.00000000000E+00  0.67860087505E+03  0.67860087505E+03  0.00000000000E+00 0. -1.
         21   -1    0    0  501  502 -0.00000000000E+00 -0.00000000000E+00 -0.75051012105E+02  0.75051012105E+02  0.00000000000E+00 0. -1.
      99926    2    1    2    0    0  0.00000000000E+00  0.14210854715E-13  0.60354986295E+03  0.75365188716E+03  0.45135211305E+03 0.  0.
      99925    2    3    3    0    0  0.50673071432E+02  0.73813504213E+02  0.27548185075E+03  0.39130906289E+03  0.26308998277E+03 0.  0.
         25    1    3    3    0    0 -0.50673071432E+02 -0.73813504213E+02  0.32806801220E+03  0.36234282427E+03  0.12509000000E+03 0.  0.
         25    1    4    4    0    0  0.17500296991E+02 -0.40750940583E+01  0.13708478767E+03  0.18644734886E+03  0.12509000000E+03 0.  0.
         25    1    4    4    0    0  0.33172774441E+02  0.77888598272E+02  0.13839706307E+03  0.20486171402E+03  0.12509000000E+03 0.  0.
<mgrwt>
<rscale>  2 0.45135211E+03</rscale>
<asrwt>0</asrwt>
<pdfrwt beam="1">  1       21 0.99794243E-01 0.45135211E+03</pdfrwt>
<pdfrwt beam="2">  1       21 0.11036914E-01 0.45135211E+03</pdfrwt>
<totfact> 0.51546859E+04</totfact>
</mgrwt>
</event>
<event>
 7    0  0.4714446E-002  0.4573942E+03  0.7546771E-02  0.1025540E+00
         21   -1    0    0  502  501  0.00000000000E+00  0.00000000000E+00  0.42296779257E+03  0.42296779257E+03  0.00000000000E+00 0. -1.
         21   -1    0    0  501  502 -0.00000000000E+00 -0.00000000000E+00 -0.12365565281E+03  0.12365565281E+03  0.00000000000E+00 0. -1.
      99926    2    1    2    0    0  0.00000000000E+00  0.00000000000E+00  0.29931213976E+03  0.54662344539E+03  0.45739417797E+03 0.  0.
      99925    2    3    3    0    0  0.62772888880E+02 -0.59148304334E+02  0.27955958698E+03  0.39340259523E+03  0.26300775991E+03 0.  0.
         25    1    4    4    0    0  0.49722030680E+02 -0.65059051976E+02  0.13213773912E+03  0.19953157840E+03  0.12509000000E+03 0.  0.
         25    1    4    4    0    0  0.13050858199E+02  0.59107476422E+01  0.14742184787E+03  0.19387101683E+03  0.12509000000E+03 0.  0.
         25    1    3    3    0    0 -0.62772888880E+02  0.59148304334E+02  0.19752552776E+02  0.15322085016E+03  0.12509000000E+03 0.  0.
<mgrwt>
<rscale>  2 0.45739418E+03</rscale>
<asrwt>0</asrwt>
<pdfrwt beam="1">  1       21 0.62201145E-01 0.45739418E+03</pdfrwt>
<pdfrwt beam="2">  1       21 0.18184655E-01 0.45739418E+03</pdfrwt>
<totfact> 0.60927731E+04</totfact>
</mgrwt>
</event>
<event>
 7    0  0.4714446E-002  0.4501050E+03  0.7546771E-02  0.1027691E+00
         21   -1    0    0  502  501  0.00000000000E+00  0.00000000000E+00  0.13553677592E+03  0.13553677592E+03  0.00000000000E+00 0. -1.
         21   -1    0    0  501  502 -0.00000000000E+00 -0.00000000000E+00 -0.37368914303E+03  0.37368914303E+03  0.00000000000E+00 0. -1.
      99926    2    1    2    0    0  0.00000000000E+00  0.00000000000E+00 -0.23815236710E+03  0.50922591895E+03  0.45010497284E+03 0.  0.
      99925    2    3    3    0    0 -0.71338234541E+02  0.48431136576E+02 -0.76192246011E+02  0.28715992061E+03  0.26309854229E+03 0.  0.
         25    1    4    4    0    0 -0.56562682209E+02  0.47822786665E+02 -0.69200639366E+02  0.16100494567E+03  0.12509000000E+03 0.  0.
         25    1    3    3    0    0  0.71338234541E+02 -0.48431136576E+02 -0.16196012109E+03  0.22206599834E+03  0.12509000000E+03 0.  0.
         25    1    4    4    0    0 -0.14775552332E+02  0.60834991045E+00 -0.69916066456E+01  0.12615497493E+03  0.12509000000E+03 0.  0.
<mgrwt>
<rscale>  2 0.45010497E+03</rscale>
<asrwt>0</asrwt>
<pdfrwt beam="1">  1       21 0.19931879E-01 0.45010497E+03</pdfrwt>
<pdfrwt beam="2">  1       21 0.54954285E-01 0.45010497E+03</pdfrwt>
<totfact> 0.67200007E+04</totfact>
</mgrwt>
</event>
<event>
 7    0  0.4714446E-002  0.4470871E+03  0.7546771E-02  0.1028594E+00
         21   -1    0    0  502  501  0.00000000000E+00  0.00000000000E+00  0.27168895652E+03  0.27168895652E+03  0.00000000000E+00 0. -1.
         21   -1    0    0  501  502 -0.00000000000E+00 -0.00000000000E+00 -0.18392990406E+03  0.18392990406E+03  0.00000000000E+00 0. -1.
      99926    2    1    2    0    0  0.00000000000E+00 -0.26645352591E-14  0.87759052459E+02  0.45561886058E+03  0.44708712219E+03 0.  0.
      99925    2    3    3    0    0 -0.72858993286E+02  0.77497350412E+01 -0.21873985176E+02  0.27386242373E+03  0.26297084364E+03 0.  0.
         25    1    3    3    0    0  0.72858993286E+02 -0.77497350412E+01  0.10963303763E+03  0.18175643685E+03  0.12509000000E+03 0.  0.
         25    1    4    4    0    0 -0.49321262298E+02 -0.16664283452E+02 -0.43843675681E+02  0.14240808002E+03  0.12509000000E+03 0.  0.
         25    1    4    4    0    0 -0.23537730987E+02  0.24414018493E+02  0.21969690505E+02  0.13145434371E+03  0.12509000000E+03 0.  0.
<mgrwt>
<rscale>  2 0.44708712E+03</rscale>
<asrwt>0</asrwt>
<pdfrwt beam="1">  1       21 0.39954259E-01 0.44708712E+03</pdfrwt>
<pdfrwt beam="2">  1       21 0.27048515E-01 0.44708712E+03</pdfrwt>
<totfact> 0.72996389E+04</totfact>
</mgrwt>
</event>
<event>
 7    0  0.4714446E-002  0.4859308E+03  0.7546771E-02  0.1017518E+00
         21   -1    0    0  502  501  0.00000000000E+00  0.00000000000E+00  0.14271330100E+03  0.14271330100E+03  0.00000000000E+00 0.  1.
         21   -1    0    0  501  502 -0.00000000000E+00 -0.00000000000E+00 -0.41364183141E+03  0.41364183141E+03  0.00000000000E+00 0.  1.
      99926    2    1    2    0    0 -0.71054273576E-14  0.28421709430E-13 -0.27092853041E+03  0.55635513241E+03  0.48593082302E+03 0.  0.
      99925    2    3    3    0    0 -0.46083000079E+02  0.13197910413E+03 -0.18687843269E+03  0.35079722365E+03  0.26190268554E+03 0.  0.
         25    1    3    3    0    0  0.46083000079E+02 -0.13197910413E+03 -0.84050097723E+02  0.20555790875E+03  0.12509000000E+03 0.  0.
         25    1    4    4    0    0  0.12299595751E+02  0.77241364424E+02 -0.10636598290E+03  0.18187561368E+03  0.12509000000E+03 0.  0.
         25    1    4    4    0    0 -0.58382595830E+02  0.54737739709E+02 -0.80512449787E+02  0.16892160997E+03  0.12509000000E+03 0.  0.
<mgrwt>
<rscale>  2 0.48593082E+03</rscale>
<asrwt>0</asrwt>
<pdfrwt beam="1">  1       21 0.20987250E-01 0.48593082E+03</pdfrwt>
<pdfrwt beam="2">  1       21 0.60829680E-01 0.48593082E+03</pdfrwt>
<totfact> 0.48447570E+04</totfact>
</mgrwt>
</event>
<event>
 7    0  0.4714446E-002  0.4438916E+03  0.7546771E-02  0.1029559E+00
         21   -1    0    0  502  501  0.00000000000E+00  0.00000000000E+00  0.22365781479E+03  0.22365781479E+03  0.00000000000E+00 0. -1.
         21   -1    0    0  501  502 -0.00000000000E+00 -0.00000000000E+00 -0.22024692015E+03  0.22024692015E+03  0.00000000000E+00 0. -1.
      99926    2    1    2    0    0 -0.14210854715E-13  0.00000000000E+00  0.34108946367E+01  0.44390473494E+03  0.44389163035E+03 0.  0.
      99925    2    3    3    0    0 -0.96842548719E+02 -0.28660324694E+02  0.18990180285E+02  0.28238038477E+03  0.26301741635E+03 0.  0.
         25    1    4    4    0    0 -0.99723749914E+01  0.57048174550E+01  0.84909584840E+01  0.12590312816E+03  0.12509000000E+03 0.  0.
         25    1    4    4    0    0 -0.86870173728E+02 -0.34365142149E+02  0.10499221801E+02  0.15647725661E+03  0.12509000000E+03 0.  0.
         25    1    3    3    0    0  0.96842548719E+02  0.28660324694E+02 -0.15579285649E+02  0.16152435016E+03  0.12509000000E+03 0.  0.
<mgrwt>
<rscale>  2 0.44389163E+03</rscale>
<asrwt>0</asrwt>
<pdfrwt beam="1">  1       21 0.32890855E-01 0.44389163E+03</pdfrwt>
<pdfrwt beam="2">  1       21 0.32389253E-01 0.44389163E+03</pdfrwt>
<totfact> 0.75871397E+04</totfact>
</mgrwt>
</event>
<event>
 7    0  0.4714446E-002  0.4497338E+03  0.7546771E-02  0.1027801E+00
         21   -1    0    0  502  501  0.00000000000E+00  0.00000000000E+00  0.20133757341E+03  0.20133757341E+03  0.00000000000E+00 0.  1.
         21   -1    0    0  501  502 -0.00000000000E+00 -0.00000000000E+00 -0.25114600556E+03  0.25114600556E+03  0.00000000000E+00 0.  1.
      99926    2    1    2    0    0 -0.71054273576E-14  0.00000000000E+00 -0.49808432147E+02  0.45248357897E+03  0.44973382053E+03 0.  0.
      99925    2    3    3    0    0 -0.51142006763E+02 -0.92615219038E+02 -0.53779293910E+02  0.28860447873E+03  0.26307270675E+03 0.  0.
         25    1    3    3    0    0  0.51142006763E+02  0.92615219038E+02  0.39708617637E+01  0.16387910024E+03  0.12509000000E+03 0.  0.
         25    1    4    4    0    0 -0.22198308080E+02 -0.74417090877E+02  0.24618264081E+01  0.14725568575E+03  0.12509000000E+03 0.  0.
         25    1    4    4    0    0 -0.28943698684E+02 -0.18198128161E+02 -0.56241120318E+02  0.14134879298E+03  0.12509000000E+03 0.  0.
<mgrwt>
<rscale>  2 0.44973382E+03</rscale>
<asrwt>0</asrwt>
<pdfrwt beam="1">  1       21 0.29608467E-01 0.44973382E+03</pdfrwt>
<pdfrwt beam="2">  1       21 0.36933236E-01 0.44973382E+03</pdfrwt>
<totfact> 0.71695831E+04</totfact>
</mgrwt>
</event>
<event>
 7    0  0.4714446E-002  0.4581482E+03  0.7546771E-02  0.1025320E+00
         21   -1    0    0  502  501  0.00000000000E+00  0.00000000000E+00  0.33060067457E+03  0.33060067457E+03  0.00000000000E+00 0.  1.
         21   -1    0    0  501  502 -0.00000000000E+00 -0.00000000000E+00 -0.15872605674E+03  0.15872605674E+03  0.00000000000E+00 0.  1.
      99926    2    1    2    0    0  0.17763568394E-14  0.00000000000E+00  0.17187461784E+03  0.48932673131E+03  0.45814819188E+03 0.  0.
      99925    2    3    3    0    0 -0.22500425721E+01  0.11512276918E+03  0.92586286488E+02  0.30173019013E+03  0.26307902333E+03 0.  0.
         25    1    3    3    0    0  0.22500425721E+01 -0.11512276918E+03  0.79288331349E+02  0.18759654118E+03  0.12509000000E+03 0.  0.
         25    1    4    4    0    0  0.34385465440E+02  0.55502412394E+02  0.66716494661E+02  0.15608163497E+03  0.12509000000E+03 0.  0.
         25    1    4    4    0    0 -0.36635508012E+02  0.59620356787E+02  0.25869791827E+02  0.14564855516E+03  0.12509000000E+03 0.  0.
<mgrwt>
<rscale>  2 0.45814819E+03</rscale>
<asrwt>0</asrwt>
<pdfrwt beam="1">  1       21 0.48617746E-01 0.45814819E+03</pdfrwt>
<pdfrwt beam="2">  1       21 0.23342067E-01 0.45814819E+03</pdfrwt>
<totfact> 0.64402524E+04</totfact>
</mgrwt>
</event>
<event>
 7    0  0.4714446E-002  0.4466478E+03  0.7546771E-02  0.1028726E+00
         21   -1    0    0  502  501  0.00000000000E+00  0.00000000000E+00  0.13787650486E+02  0.13787650486E+02  0.00000000000E+00 0.  1.
         21   -1    0    0  501  502 -0.00000000000E+00 -0.00000000000E+00 -0.36172631327E+04  0.36172631327E+04  0.00000000000E+00 0.  1.
      99926    2    1    2    0    0  0.17763568394E-14  0.00000000000E+00 -0.36034754822E+04  0.36310507832E+04  0.44664777976E+03 0.  0.
      99925    2    3    3    0    0  0.14911234525E+02  0.21102575776E+02 -0.31137652434E+04  0.31249566321E+04  0.26296824554E+03 0.  0.
         25    1    3    3    0    0 -0.14911234525E+02 -0.21102575776E+02 -0.48971023884E+03  0.50609415107E+03  0.12509000000E+03 0.  0.
         25    1    4    4    0    0  0.19417439217E+02  0.14160723314E+02 -0.11124353197E+04  0.11197041626E+04  0.12509000000E+03 0.  0.
         25    1    4    4    0    0 -0.45062046916E+01  0.69418524625E+01 -0.20013299236E+04  0.20052524695E+04  0.12509000000E+03 0.  0.
<mgrwt>
<rscale>  2 0.44664778E+03</rscale>
<asrwt>0</asrwt>
<pdfrwt beam="1">  1       21 0.20275967E-02 0.44664778E+03</pdfrwt>
<pdfrwt beam="2">  1       21 0.53195018E+00 0.44664778E+03</pdfrwt>
<totfact> 0.10565280E+03</totfact>
</mgrwt>
</event>
<event>
 7    0  0.4714446E-002  0.4527990E+03  0.7546771E-02  0.1026891E+00
         21   -1    0    0  502  501  0.00000000000E+00  0.00000000000E+00  0.22418856261E+03  0.22418856261E+03  0.00000000000E+00 0.  1.
         21   -1    0    0  501  502 -0.00000000000E+00 -0.00000000000E+00 -0.22863221373E+03  0.22863221373E+03  0.00000000000E+00 0.  1.
      99926    2    1    2    0    0  0.00000000000E+00 -0.11102230246E-14 -0.44436511266E+01  0.45282077634E+03  0.45279897245E+03 0.  0.
      99925    2    3    3    0    0  0.84011982164E+02 -0.14849212374E+01 -0.75415751455E+02  0.28625317666E+03  0.26304586566E+03 0.  0.
         25    1    3    3    0    0 -0.84011982164E+02  0.14849212374E+01  0.70972100328E+02  0.16656759968E+03  0.12509000000E+03 0.  0.
         25    1    4    4    0    0  0.16416583135E+02  0.91877751458E+01 -0.67665443182E+02  0.14345744914E+03  0.12509000000E+03 0.  0.
         25    1    4    4    0    0  0.67595399029E+02 -0.10672696383E+02 -0.77503082732E+01  0.14279572751E+03  0.12509000000E+03 0.  0.
<mgrwt>
<rscale>  2 0.45279897E+03</rscale>
<asrwt>0</asrwt>
<pdfrwt beam="1">  1       21 0.32968906E-01 0.45279897E+03</pdfrwt>
<pdfrwt beam="2">  1       21 0.33622384E-01 0.45279897E+03</pdfrwt>
<totfact> 0.69925718E+04</totfact>
</mgrwt>
</event>
<event>
 7    0  0.4714446E-002  0.4585787E+03  0.7546771E-02  0.1025194E+00
         21   -1    0    0  502  501  0.00000000000E+00  0.00000000000E+00  0.77168907563E+03  0.77168907563E+03  0.00000000000E+00 0.  1.
         21   -1    0    0  501  502 -0.00000000000E+00 -0.00000000000E+00 -0.68127961643E+02  0.68127961643E+02  0.00000000000E+00 0.  1.
      99926    2    1    2    0    0 -0.14210854715E-13  0.00000000000E+00  0.70356111399E+03  0.83981703727E+03  0.45857869006E+03 0.  0.
      99925    2    3    3    0    0  0.66215720687E+02  0.89976695700E+02  0.38648894366E+03  0.48112134908E+03  0.26386307345E+03 0.  0.
         25    1    4    4    0    0  0.39807966425E+02  0.16704093896E+02  0.13113096189E+03  0.18629690875E+03  0.12509000000E+03 0.  0.
         25    1    3    3    0    0 -0.66215720687E+02 -0.89976695700E+02  0.31707217033E+03  0.35869568820E+03  0.12509000000E+03 0.  0.
         25    1    4    4    0    0  0.26407754263E+02  0.73272601804E+02  0.25535798177E+03  0.29482444033E+03  0.12509000000E+03 0.  0.
<mgrwt>
<rscale>  2 0.45857869E+03</rscale>
<asrwt>0</asrwt>
<pdfrwt beam="1">  1       21 0.11348368E+00 0.45857869E+03</pdfrwt>
<pdfrwt beam="2">  1       21 0.10018818E-01 0.45857869E+03</pdfrwt>
<totfact> 0.44632027E+04</totfact>
</mgrwt>
</event>
<event>
 7    0  0.4714446E-002  0.4505163E+03  0.7546771E-02  0.1027568E+00
         21   -1    0    0  502  501  0.00000000000E+00  0.00000000000E+00  0.14670356146E+04  0.14670356146E+04  0.00000000000E+00 0. -1.
         21   -1    0    0  501  502 -0.00000000000E+00 -0.00000000000E+00 -0.34587587988E+02  0.34587587988E+02  0.00000000000E+00 0. -1.
      99926    2    1    2    0    0  0.17763568394E-14  0.00000000000E+00  0.14324480266E+04  0.15016232026E+04  0.45051625232E+03 0.  0.
      99925    2    3    3    0    0 -0.14494569017E+02 -0.10596331730E+03  0.97410680455E+03  0.10146298750E+04  0.26296653683E+03 0.  0.
         25    1    4    4    0    0 -0.43999456548E+02 -0.59099590084E+02  0.56000209984E+03  0.57851410843E+03  0.12509000000E+03 0.  0.
         25    1    4    4    0    0  0.29504887531E+02 -0.46863727219E+02  0.41410470471E+03  0.43611576661E+03  0.12509000000E+03 0.  0.
         25    1    3    3    0    0  0.14494569017E+02  0.10596331730E+03  0.45834122206E+03  0.48699332756E+03  0.12509000000E+03 0.  0.
<mgrwt>
<rscale>  2 0.45051625E+03</rscale>
<asrwt>0</asrwt>
<pdfrwt beam="1">  1       21 0.21574049E+00 0.45051625E+03</pdfrwt>
<pdfrwt beam="2">  1       21 0.50864110E-02 0.45051625E+03</pdfrwt>
<totfact> 0.24584491E+04</totfact>
</mgrwt>
</event>
<event>
 7    0  0.4714446E-002  0.4578399E+03  0.7546771E-02  0.1025410E+00
         21   -1    0    0  502  501  0.00000000000E+00  0.00000000000E+00  0.51577664152E+02  0.51577664152E+02  0.00000000000E+00 0.  1.
         21   -1    0    0  501  502 -0.00000000000E+00 -0.00000000000E+00 -0.10160280643E+04  0.10160280643E+04  0.00000000000E+00 0.  1.
      99926    2    1    2    0    0  0.00000000000E+00  0.00000000000E+00 -0.96445040012E+03  0.10676057284E+04  0.45783994700E+03 0.  0.
      99925    2    3    3    0    0 -0.10070893453E+03  0.48196056712E+02 -0.53545371913E+03  0.60700741125E+03  0.26321505013E+03 0.  0.
         25    1    3    3    0    0  0.10070893453E+03 -0.48196056712E+02 -0.42899668100E+03  0.46059831718E+03  0.12509000000E+03 0.  0.
         25    1    4    4    0    0 -0.90429087268E+02  0.17472718319E+02 -0.32149848765E+03  0.35705952077E+03  0.12509000000E+03 0.  0.
         25    1    4    4    0    0 -0.10279847263E+02  0.30723338393E+02 -0.21395523147E+03  0.24994789048E+03  0.12509000000E+03 0.  0.
<mgrwt>
<rscale>  2 0.45783995E+03</rscale>
<asrwt>0</asrwt>
<pdfrwt beam="1">  1       21 0.75849505E-02 0.45783995E+03</pdfrwt>
<pdfrwt beam="2">  1       21 0.14941589E+00 0.45783995E+03</pdfrwt>
<totfact> 0.35837095E+04</totfact>
</mgrwt>
</event>
<event>
 7    0  0.4714446E-002  0.4510271E+03  0.7546771E-02  0.1027416E+00
         21   -1    0    0  502  501  0.00000000000E+00  0.00000000000E+00  0.14850599367E+03  0.14850599367E+03  0.00000000000E+00 0.  1.
         21   -1    0    0  501  502 -0.00000000000E+00 -0.00000000000E+00 -0.34245328966E+03  0.34245328966E+03  0.00000000000E+00 0.  1.
      99926    2    1    2    0    0  0.00000000000E+00  0.00000000000E+00 -0.19394729598E+03  0.49095928333E+03  0.45102712143E+03 0.  0.
      99925    2    3    3    0    0  0.11269972920E+01  0.85571801912E+02 -0.47658493981E+02  0.28031331233E+03  0.26264123365E+03 0.  0.
         25    1    4    4    0    0 -0.26837620212E+00  0.19119239213E+02  0.10948301240E+02  0.12701571058E+03  0.12509000000E+03 0.  0.
         25    1    3    3    0    0 -0.11269972920E+01 -0.85571801912E+02 -0.14628880200E+03  0.21064597100E+03  0.12509000000E+03 0.  0.
         25    1    4    4    0    0  0.13953734942E+01  0.66452562699E+02 -0.58606795221E+02  0.15329760175E+03  0.12509000000E+03 0.  0.
<mgrwt>
<rscale>  2 0.45102712E+03</rscale>
<asrwt>0</asrwt>
<pdfrwt beam="1">  1       21 0.21839117E-01 0.45102712E+03</pdfrwt>
<pdfrwt beam="2">  1       21 0.50360778E-01 0.45102712E+03</pdfrwt>
<totfact> 0.68031040E+04</totfact>
</mgrwt>
</event>
<event>
 7    0  0.4714446E-002  0.4481148E+03  0.7546771E-02  0.1028286E+00
         21   -1    0    0  502  501  0.00000000000E+00  0.00000000000E+00  0.11132951209E+03  0.11132951209E+03  0.00000000000E+00 0. -1.
         21   -1    0    0  501  502 -0.00000000000E+00 -0.00000000000E+00 -0.45092917810E+03  0.45092917810E+03  0.00000000000E+00 0. -1.
      99926    2    1    2    0    0  0.00000000000E+00  0.14210854715E-13 -0.33959966601E+03  0.56225869019E+03  0.44811483075E+03 0.  0.
      99925    2    3    3    0    0 -0.27972075665E+02  0.72299205439E+02 -0.30686924076E+03  0.41149927602E+03  0.26297017153E+03 0.  0.
         25    1    3    3    0    0  0.27972075665E+02 -0.72299205439E+02 -0.32730425247E+02  0.15075941417E+03  0.12509000000E+03 0.  0.
         25    1    4    4    0    0  0.67826086339E+01  0.66917493512E+02 -0.13420134779E+03  0.19540077934E+03  0.12509000000E+03 0.  0.
         25    1    4    4    0    0 -0.34754684299E+02  0.53817119272E+01 -0.17266789297E+03  0.21609849668E+03  0.12509000000E+03 0.  0.
<mgrwt>
<rscale>  2 0.44811483E+03</rscale>
<asrwt>0</asrwt>
<pdfrwt beam="1">  1       21 0.16371987E-01 0.44811483E+03</pdfrwt>
<pdfrwt beam="2">  1       21 0.66313113E-01 0.44811483E+03</pdfrwt>
<totfact> 0.64505288E+04</totfact>
</mgrwt>
</event>
<event>
 7    0  0.4714446E-002  0.4712925E+03  0.7546771E-02  0.1021556E+00
         21   -1    0    0  502  501  0.00000000000E+00  0.00000000000E+00  0.89243131743E+03  0.89243131743E+03  0.00000000000E+00 0. -1.
         21   -1    0    0  501  502 -0.00000000000E+00 -0.00000000000E+00 -0.62222326383E+02  0.62222326383E+02  0.00000000000E+00 0. -1.
      99926    2    1    2    0    0  0.00000000000E+00  0.00000000000E+00  0.83020899104E+03  0.95465364381E+03  0.47129248968E+03 0.  0.
      99925    2    3    3    0    0  0.70750885268E+02 -0.93468239103E+02  0.61840700922E+03  0.68216586960E+03  0.26302289846E+03 0.  0.
         25    1    4    4    0    0  0.40140742591E+02 -0.89770421159E+02  0.33825751596E+03  0.37381233652E+03  0.12509000000E+03 0.  0.
         25    1    3    3    0    0 -0.70750885268E+02  0.93468239103E+02  0.21180198183E+03  0.27248777421E+03  0.12509000000E+03 0.  0.
         25    1    4    4    0    0  0.30610142677E+02 -0.36978179440E+01  0.28014949326E+03  0.30835353308E+03  0.12509000000E+03 0.  0.
<mgrwt>
<rscale>  2 0.47129249E+03</rscale>
<asrwt>0</asrwt>
<pdfrwt beam="1">  1       21 0.13123989E+00 0.47129249E+03</pdfrwt>
<pdfrwt beam="2">  1       21 0.91503427E-02 0.47129249E+03</pdfrwt>
<totfact> 0.36124940E+04</totfact>
</mgrwt>
</event>
<event>
 7    0  0.4714446E-002  0.4545964E+03  0.7546771E-02  0.1026360E+00
         21   -1    0    0  502  501  0.00000000000E+00  0.00000000000E+00  0.14388735911E+03  0.14388735911E+03  0.00000000000E+00 0.  1.
         21   -1    0    0  501  502 -0.00000000000E+00 -0.00000000000E+00 -0.35906198907E+03  0.35906198907E+03  0.00000000000E+00 0.  1.
      99926    2    1    2    0    0  0.14210854715E-13  0.00000000000E+00 -0.21517462996E+03  0.50294934819E+03  0.45459644242E+03 0.  0.
      99925    2    3    3    0    0  0.10784650146E+03 -0.22637553049E+02 -0.10781403122E+03  0.30466386474E+03  0.26277914389E+03 0.  0.
         25    1    4    4    0    0  0.66870166932E+02 -0.28002553145E+02 -0.19093935603E+02  0.14583500501E+03  0.12509000000E+03 0.  0.
         25    1    3    3    0    0 -0.10784650146E+03  0.22637553049E+02 -0.10736059874E+03  0.19828548345E+03  0.12509000000E+03 0.  0.
         25    1    4    4    0    0  0.40976334529E+02  0.53650000962E+01 -0.88720095616E+02  0.15882885973E+03  0.12509000000E+03 0.  0.
<mgrwt>
<rscale>  2 0.45459644E+03</rscale>
<asrwt>0</asrwt>
<pdfrwt beam="1">  1       21 0.21159906E-01 0.45459644E+03</pdfrwt>
<pdfrwt beam="2">  1       21 0.52803232E-01 0.45459644E+03</pdfrwt>
<totfact> 0.65272792E+04</totfact>
</mgrwt>
</event>
<event>
 6    0  0.4714446E-002  0.4515640E+03  0.7546771E-02  0.1027257E+00
         21   -1    0    0  502  501  0.00000000000E+00  0.00000000000E+00  0.21726397028E+03  0.21726397028E+03  0.00000000000E+00 0. -1.
         21   -1    0    0  501  502 -0.00000000000E+00 -0.00000000000E+00 -0.23463398215E+03  0.23463398215E+03  0.00000000000E+00 0. -1.
      99926    2    1    2    0    0 -0.71054273576E-14  0.00000000000E+00 -0.17370011865E+02  0.45189795243E+03  0.45156399557E+03 0.  0.
         25    1    3    3    0    0  0.31267700959E+02 -0.43187408619E+02  0.69209962810E+02  0.15257899082E+03  0.12509000000E+03 0.  0.
         25    1    3    3    0    0  0.53874760190E+01 -0.28457461794E+02 -0.24276360511E+01  0.12842216922E+03  0.12509000000E+03 0.  0.
         25    1    3    3    0    0 -0.36655176978E+02  0.71644870413E+02 -0.84152338624E+02  0.17089679240E+03  0.12509000000E+03 0.  0.
<mgrwt>
<rscale>  2 0.45156400E+03</rscale>
<asrwt>0</asrwt>
<pdfrwt beam="1">  1       21 0.31950584E-01 0.45156400E+03</pdfrwt>
<pdfrwt beam="2">  1       21 0.34504997E-01 0.45156400E+03</pdfrwt>
<totfact> 0.70691933E+04</totfact>
</mgrwt>
</event>
<event>
 7    0  0.4714446E-002  0.4466496E+03  0.7546771E-02  0.1028726E+00
         21   -1    0    0  502  501  0.00000000000E+00  0.00000000000E+00  0.33601244904E+03  0.33601244904E+03  0.00000000000E+00 0. -1.
         21   -1    0    0  501  502 -0.00000000000E+00 -0.00000000000E+00 -0.14842895366E+03  0.14842895366E+03  0.00000000000E+00 0. -1.
      99926    2    1    2    0    0  0.00000000000E+00 -0.35527136788E-14  0.18758349538E+03  0.48444140270E+03  0.44664964448E+03 0.  0.
      99925    2    3    3    0    0  0.10090993771E+03 -0.27009666476E+02  0.10585875095E+03  0.30212634692E+03  0.26298653338E+03 0.  0.
         25    1    4    4    0    0  0.82031487526E+02 -0.30768779869E+02  0.33541099071E+02  0.15635982920E+03  0.12509000000E+03 0.  0.
         25    1    3    3    0    0 -0.10090993771E+03  0.27009666476E+02  0.81724744427E+02  0.18231505578E+03  0.12509000000E+03 0.  0.
         25    1    4    4    0    0  0.18878450185E+02  0.37591133934E+01  0.72317651883E+02  0.14576651772E+03  0.12509000000E+03 0.  0.
<mgrwt>
<rscale>  2 0.44664964E+03</rscale>
<asrwt>0</asrwt>
<pdfrwt beam="1">  1       21 0.49413595E-01 0.44664964E+03</pdfrwt>
<pdfrwt beam="2">  1       21 0.21827787E-01 0.44664964E+03</pdfrwt>
<totfact> 0.70967250E+04</totfact>
</mgrwt>
</event>
<event>
 7    0  0.4714446E-002  0.4550590E+03  0.7546771E-02  0.1026224E+00
         21   -1    0    0  502  501  0.00000000000E+00  0.00000000000E+00  0.67135037444E+03  0.67135037444E+03  0.00000000000E+00 0.  1.
         21   -1    0    0  501  502 -0.00000000000E+00 -0.00000000000E+00 -0.77112738786E+02  0.77112738786E+02  0.00000000000E+00 0.  1.
      99926    2    1    2    0    0  0.00000000000E+00  0.14210854715E-13  0.59423763566E+03  0.74846311323E+03  0.45505896786E+03 0.  0.
      99925    2    3    3    0    0 -0.10857484571E+02 -0.10519420989E+03  0.30641205232E+03  0.41729128277E+03  0.26279262186E+03 0.  0.
         25    1    4    4    0    0  0.22752603141E+02 -0.48925699255E+02  0.19263768334E+03  0.23594107345E+03  0.12509000000E+03 0.  0.
         25    1    4    4    0    0 -0.33610087711E+02 -0.56268510633E+02  0.11377436898E+03  0.18135020933E+03  0.12509000000E+03 0.  0.
         25    1    3    3    0    0  0.10857484571E+02  0.10519420989E+03  0.28782558334E+03  0.33117183046E+03  0.12509000000E+03 0.  0.
<mgrwt>
<rscale>  2 0.45505897E+03</rscale>
<asrwt>0</asrwt>
<pdfrwt beam="1">  1       21 0.98727993E-01 0.45505897E+03</pdfrwt>
<pdfrwt beam="2">  1       21 0.11340109E-01 0.45505897E+03</pdfrwt>
<totfact> 0.50326116E+04</totfact>
</mgrwt>
</event>
<event>
 7    0  0.4714446E-002  0.4547051E+03  0.7546771E-02  0.1026328E+00
         21   -1    0    0  502  501  0.00000000000E+00  0.00000000000E+00  0.59164708381E+03  0.59164708381E+03  0.00000000000E+00 0.  1.
         21   -1    0    0  501  502 -0.00000000000E+00 -0.00000000000E+00 -0.87364890853E+02  0.87364890853E+02  0.00000000000E+00 0.  1.
      99926    2    1    2    0    0  0.00000000000E+00  0.00000000000E+00  0.50428219295E+03  0.67901197466E+03  0.45470510400E+03 0.  0.
      99925    2    3    3    0    0  0.73432642973E+02  0.83498269372E+02  0.28847416669E+03  0.40590956467E+03  0.26302265264E+03 0.  0.
         25    1    3    3    0    0 -0.73432642973E+02 -0.83498269372E+02  0.21580802626E+03  0.27310240999E+03  0.12509000000E+03 0.  0.
         25    1    4    4    0    0  0.74814707504E+02  0.49854199893E+02  0.13280336347E+03  0.20338860134E+03  0.12509000000E+03 0.  0.
         25    1    4    4    0    0 -0.13820645302E+01  0.33644069479E+02  0.15567080322E+03  0.20252096333E+03  0.12509000000E+03 0.  0.
<mgrwt>
<rscale>  2 0.45470510E+03</rscale>
<asrwt>0</asrwt>
<pdfrwt beam="1">  1       21 0.87006922E-01 0.45470510E+03</pdfrwt>
<pdfrwt beam="2">  1       21 0.12847778E-01 0.45470510E+03</pdfrwt>
<totfact> 0.54183533E+04</totfact>
</mgrwt>
</event>
<event>
 7    0  0.4714446E-002  0.4539370E+03  0.7546771E-02  0.1026554E+00
         21   -1    0    0  502  501  0.00000000000E+00  0.00000000000E+00  0.19085767135E+03  0.19085767135E+03  0.00000000000E+00 0. -1.
         21   -1    0    0  501  502 -0.00000000000E+00 -0.00000000000E+00 -0.26991165251E+03  0.26991165251E+03  0.00000000000E+00 0. -1.
      99926    2    1    2    0    0  0.00000000000E+00  0.00000000000E+00 -0.79053981155E+02  0.46076932386E+03  0.45393704175E+03 0.  0.
      99925    2    3    3    0    0  0.36884915406E+02 -0.93553673608E+02  0.66752643968E+00  0.28156046888E+03  0.26298871690E+03 0.  0.
         25    1    3    3    0    0 -0.36884915406E+02  0.93553673608E+02 -0.79721507595E+02  0.17920885498E+03  0.12509000000E+03 0.  0.
         25    1    4    4    0    0  0.14702920377E+02 -0.83281241085E+02 -0.20427601274E+02  0.15237039075E+03  0.12509000000E+03 0.  0.
         25    1    4    4    0    0  0.22181995029E+02 -0.10272432523E+02  0.21095127714E+02  0.12919007813E+03  0.12509000000E+03 0.  0.
<mgrwt>
<rscale>  2 0.45393704E+03</rscale>
<asrwt>0</asrwt>
<pdfrwt beam="1">  1       21 0.28067305E-01 0.45393704E+03</pdfrwt>
<pdfrwt beam="2">  1       21 0.39692890E-01 0.45393704E+03</pdfrwt>
<totfact> 0.68704009E+04</totfact>
</mgrwt>
</event>
<event>
 7    0  0.4714446E-002  0.4525629E+03  0.7546771E-02  0.1026960E+00
         21   -1    0    0  502  501  0.00000000000E+00  0.00000000000E+00  0.57613481076E+03  0.57613481076E+03  0.00000000000E+00 0. -1.
         21   -1    0    0  501  502 -0.00000000000E+00 -0.00000000000E+00 -0.88873823077E+02  0.88873823077E+02  0.00000000000E+00 0. -1.
      99926    2    1    2    0    0  0.17763568394E-14  0.00000000000E+00  0.48726098769E+03  0.66500863384E+03  0.45256293812E+03 0.  0.
      99925    2    3    3    0    0 -0.15679750892E+02  0.69490512340E+02  0.43176686595E+03  0.51073001724E+03  0.26333958701E+03 0.  0.
         25    1    4    4    0    0  0.93856472333E+01  0.72984692400E+02  0.23469489888E+03  0.27594213045E+03  0.12509000000E+03 0.  0.
         25    1    4    4    0    0 -0.25065398126E+02 -0.34941800609E+01  0.19707196707E+03  0.23478788678E+03  0.12509000000E+03 0.  0.
         25    1    3    3    0    0  0.15679750892E+02 -0.69490512340E+02  0.55494121742E+02  0.15427861660E+03  0.12509000000E+03 0.  0.
<mgrwt>
<rscale>  2 0.45256294E+03</rscale>
<asrwt>0</asrwt>
<pdfrwt beam="1">  1       21 0.84725706E-01 0.45256294E+03</pdfrwt>
<pdfrwt beam="2">  1       21 0.13069680E-01 0.45256294E+03</pdfrwt>
<totfact> 0.55910614E+04</totfact>
</mgrwt>
</event>
<event>
 7    0  0.4714446E-002  0.4469168E+03  0.7546771E-02  0.1028646E+00
         21   -1    0    0  502  501  0.00000000000E+00  0.00000000000E+00  0.61075924091E+03  0.61075924091E+03  0.00000000000E+00 0. -1.
         21   -1    0    0  501  502 -0.00000000000E+00 -0.00000000000E+00 -0.81756675988E+02  0.81756675988E+02  0.00000000000E+00 0. -1.
      99926    2    1    2    0    0  0.35527136788E-14 -0.71054273576E-14  0.52900256492E+03  0.69251591690E+03  0.44691675004E+03 0.  0.
      99925    2    3    3    0    0 -0.18758081610E+02  0.61304052715E+02  0.46500514866E+03  0.53807100797E+03  0.26302199306E+03 0.  0.
         25    1    4    4    0    0  0.52217701152E+01  0.51790084065E+01  0.27817065722E+03  0.30509098913E+03  0.12509000000E+03 0.  0.
         25    1    3    3    0    0  0.18758081610E+02 -0.61304052715E+02  0.63997416264E+02  0.15444490893E+03  0.12509000000E+03 0.  0.
         25    1    4    4    0    0 -0.23979851725E+02  0.56125044308E+02  0.18683449143E+03  0.23298001884E+03  0.12509000000E+03 0.  0.
<mgrwt>
<rscale>  2 0.44691675E+03</rscale>
<asrwt>0</asrwt>
<pdfrwt beam="1">  1       21 0.89817533E-01 0.44691675E+03</pdfrwt>
<pdfrwt beam="2">  1       21 0.12023041E-01 0.44691675E+03</pdfrwt>
<totfact> 0.56842442E+04</totfact>
</mgrwt>
</event>
<event>
 7    0  0.4714446E-002  0.4526349E+03  0.7546771E-02  0.1026939E+00
         21   -1    0    0  502  501  0.00000000000E+00  0.00000000000E+00  0.21016601071E+03  0.21016601071E+03  0.00000000000E+00 0. -1.
         21   -1    0    0  501  502 -0.00000000000E+00 -0.00000000000E+00 -0.24371011814E+03  0.24371011814E+03  0.00000000000E+00 0. -1.
      99926    2    1    2    0    0  0.00000000000E+00  0.17763568394E-14 -0.33544107426E+02  0.45387612885E+03  0.45263487846E+03 0.  0.
      99925    2    3    3    0    0 -0.11029509822E+03 -0.85694281461E+01 -0.29289077047E+02  0.28683105357E+03  0.26301285038E+03 0.  0.
         25    1    4    4    0    0 -0.66861036497E+02 -0.11812089489E+02 -0.53742212964E+02  0.15213696860E+03  0.12509000000E+03 0.  0.
         25    1    3    3    0    0  0.11029509822E+03  0.85694281461E+01 -0.42550303789E+01  0.16704507528E+03  0.12509000000E+03 0.  0.
         25    1    4    4    0    0 -0.43434061726E+02  0.32426613432E+01  0.24453135917E+02  0.13469408497E+03  0.12509000000E+03 0.  0.
<mgrwt>
<rscale>  2 0.45263488E+03</rscale>
<asrwt>0</asrwt>
<pdfrwt beam="1">  1       21 0.30906766E-01 0.45263488E+03</pdfrwt>
<pdfrwt beam="2">  1       21 0.35839723E-01 0.45263488E+03</pdfrwt>
<totfact> 0.69938744E+04</totfact>
</mgrwt>
</event>
<event>
 7    0  0.4714446E-002  0.4554361E+03  0.7546771E-02  0.1026113E+00
         21   -1    0    0  502  501  0.00000000000E+00  0.00000000000E+00  0.27011972848E+02  0.27011972848E+02  0.00000000000E+00 0. -1.
         21   -1    0    0  501  502 -0.00000000000E+00 -0.00000000000E+00 -0.19197233932E+04  0.19197233932E+04  0.00000000000E+00 0. -1.
      99926    2    1    2    0    0  0.71054273576E-14  0.00000000000E+00 -0.18927114203E+04  0.19467353660E+04  0.45543612581E+03 0.  0.
      99925    2    3    3    0    0 -0.62700846821E+02  0.94480490707E+02 -0.11604667347E+04  0.11952782834E+04  0.26296230352E+03 0.  0.
         25    1    4    4    0    0 -0.62447855753E+02  0.52048580929E+02 -0.50224858526E+03  0.52393696086E+03  0.12509000000E+03 0.  0.
         25    1    3    3    0    0  0.62700846821E+02 -0.94480490707E+02 -0.73224468564E+03  0.75145708265E+03  0.12509000000E+03 0.  0.
         25    1    4    4    0    0 -0.25299106718E+00  0.42431909778E+02 -0.65821814943E+03  0.67134132252E+03  0.12509000000E+03 0.  0.
<mgrwt>
<rscale>  2 0.45543613E+03</rscale>
<asrwt>0</asrwt>
<pdfrwt beam="1">  1       21 0.39723489E-02 0.45543613E+03</pdfrwt>
<pdfrwt beam="2">  1       21 0.28231227E+00 0.45543613E+03</pdfrwt>
<totfact> 0.14549847E+04</totfact>
</mgrwt>
</event>
<event>
 7    0  0.4714446E-002  0.4482257E+03  0.7546771E-02  0.1028252E+00
         21   -1    0    0  502  501  0.00000000000E+00  0.00000000000E+00  0.11413645966E+03  0.11413645966E+03  0.00000000000E+00 0.  1.
         21   -1    0    0  501  502 -0.00000000000E+00 -0.00000000000E+00 -0.44005717760E+03  0.44005717760E+03  0.00000000000E+00 0.  1.
      99926    2    1    2    0    0  0.00000000000E+00  0.00000000000E+00 -0.32592071795E+03  0.55419363726E+03  0.44822569448E+03 0.  0.
      99925    2    3    3    0    0 -0.39822508394E+02 -0.98061371428E+02 -0.22273232174E+03  0.36055165330E+03  0.26303220869E+03 0.  0.
         25    1    4    4    0    0 -0.20003011887E+02 -0.74194935631E+02 -0.76196478018E+02  0.16540380987E+03  0.12509000000E+03 0.  0.
         25    1    4    4    0    0 -0.19819496506E+02 -0.23866435797E+02 -0.14653584372E+03  0.19514784342E+03  0.12509000000E+03 0.  0.
         25    1    3    3    0    0  0.39822508394E+02  0.98061371428E+02 -0.10318839621E+03  0.19364198396E+03  0.12509000000E+03 0.  0.
<mgrwt>
<rscale>  2 0.44822569E+03</rscale>
<asrwt>0</asrwt>
<pdfrwt beam="1">  1       21 0.16784773E-01 0.44822569E+03</pdfrwt>
<pdfrwt beam="2">  1       21 0.64714292E-01 0.44822569E+03</pdfrwt>
<totfact> 0.65004500E+04</totfact>
</mgrwt>
</event>
<event>
 7    0  0.4714446E-002  0.4551258E+03  0.7546771E-02  0.1026204E+00
         21   -1    0    0  502  501  0.00000000000E+00  0.00000000000E+00  0.90723191896E+02  0.90723191896E+02  0.00000000000E+00 0. -1.
         21   -1    0    0  501  502 -0.00000000000E+00 -0.00000000000E+00 -0.57080088720E+03  0.57080088720E+03  0.00000000000E+00 0. -1.
      99926    2    1    2    0    0 -0.71054273576E-14  0.00000000000E+00 -0.48007769530E+03  0.66152407909E+03  0.45512582183E+03 0.  0.
      99925    2    3    3    0    0  0.32824212079E+02  0.10325091363E+03 -0.35034049110E+03  0.45124466898E+03  0.26295458071E+03 0.  0.
         25    1    4    4    0    0  0.23160149638E+02  0.93462394748E+01 -0.15048918860E+03  0.19727708613E+03  0.12509000000E+03 0.  0.
         25    1    4    4    0    0  0.96640624411E+01  0.93904674155E+02 -0.19985130249E+03  0.25396758285E+03  0.12509000000E+03 0.  0.
         25    1    3    3    0    0 -0.32824212079E+02 -0.10325091363E+03 -0.12973720420E+03  0.21027941011E+03  0.12509000000E+03 0.  0.
<mgrwt>
<rscale>  2 0.45512582E+03</rscale>
<asrwt>0</asrwt>
<pdfrwt beam="1">  1       21 0.13341646E-01 0.45512582E+03</pdfrwt>
<pdfrwt beam="2">  1       21 0.83941304E-01 0.45512582E+03</pdfrwt>
<totfact> 0.54987262E+04</totfact>
</mgrwt>
</event>
<event>
 7    0  0.4714446E-002  0.4529087E+03  0.7546771E-02  0.1026858E+00
         21   -1    0    0  502  501  0.00000000000E+00  0.00000000000E+00  0.21468547010E+04  0.21468547010E+04  0.00000000000E+00 0. -1.
         21   -1    0    0  501  502 -0.00000000000E+00 -0.00000000000E+00 -0.23886839850E+02  0.23886839850E+02  0.00000000000E+00 0. -1.
      99926    2    1    2    0    0  0.71054273576E-14  0.00000000000E+00  0.21229678611E+04  0.21707415408E+04  0.45290870790E+03 0.  0.
      99925    2    3    3    0    0  0.35187276398E+02  0.10367127977E+03  0.12445246546E+04  0.12767080661E+04  0.26297526798E+03 0.  0.
         25    1    4    4    0    0 -0.11933174166E+02  0.79166040569E+02  0.68518588033E+03  0.70109689867E+03  0.12509000000E+03 0.  0.
         25    1    3    3    0    0 -0.35187276398E+02 -0.10367127977E+03  0.87844320650E+03  0.89403347466E+03  0.12509000000E+03 0.  0.
         25    1    4    4    0    0  0.47120450564E+02  0.24505239202E+02  0.55933877428E+03  0.57561116747E+03  0.12509000000E+03 0.  0.
<mgrwt>
<rscale>  2 0.45290871E+03</rscale>
<asrwt>0</asrwt>
<pdfrwt beam="1">  1       21 0.31571379E+00 0.45290871E+03</pdfrwt>
<pdfrwt beam="2">  1       21 0.35127720E-02 0.45290871E+03</pdfrwt>
<totfact> 0.11299565E+04</totfact>
</mgrwt>
</event>
<event>
 7    0  0.4714446E-002  0.4599532E+03  0.7546771E-02  0.1024795E+00
         21   -1    0    0  502  501  0.00000000000E+00  0.00000000000E+00  0.70691664225E+02  0.70691664225E+02  0.00000000000E+00 0. -1.
         21   -1    0    0  501  502 -0.00000000000E+00 -0.00000000000E+00 -0.74816794586E+03  0.74816794586E+03  0.00000000000E+00 0. -1.
      99926    2    1    2    0    0  0.00000000000E+00 -0.71054273576E-14 -0.67747628163E+03  0.81885961008E+03  0.45995320289E+03 0.  0.
      99925    2    3    3    0    0  0.99722369210E+02  0.59704622106E+02 -0.45695207621E+03  0.53995527864E+03  0.26312983517E+03 0.  0.
         25    1    4    4    0    0  0.78375716127E+02  0.52341449893E+02 -0.20738199110E+03  0.25987916151E+03  0.12509000000E+03 0.  0.
         25    1    4    4    0    0  0.21346653084E+02  0.73631722133E+01 -0.24957008511E+03  0.28007611712E+03  0.12509000000E+03 0.  0.
         25    1    3    3    0    0 -0.99722369210E+02 -0.59704622106E+02 -0.22052420542E+03  0.27890433145E+03  0.12509000000E+03 0.  0.
<mgrwt>
<rscale>  2 0.45995320E+03</rscale>
<asrwt>0</asrwt>
<pdfrwt beam="1">  1       21 0.10395833E-01 0.45995320E+03</pdfrwt>
<pdfrwt beam="2">  1       21 0.11002470E+00 0.45995320E+03</pdfrwt>
<totfact> 0.45087968E+04</totfact>
</mgrwt>
</event>
<event>
 7    0  0.4714446E-002  0.4487944E+03  0.7546771E-02  0.1028082E+00
         21   -1    0    0  502  501  0.00000000000E+00  0.00000000000E+00  0.74421772262E+02  0.74421772262E+02  0.00000000000E+00 0.  1.
         21   -1    0    0  501  502 -0.00000000000E+00 -0.00000000000E+00 -0.67660455916E+03  0.67660455916E+03  0.00000000000E+00 0.  1.
      99926    2    1    2    0    0  0.00000000000E+00  0.71054273576E-14 -0.60218278690E+03  0.75102633143E+03  0.44879443140E+03 0.  0.
      99925    2    3    3    0    0  0.37484080723E+02 -0.47136623757E+02 -0.23243857270E+03  0.35607670218E+03  0.26293727417E+03 0.  0.
         25    1    4    4    0    0  0.12314271347E+02 -0.59467225323E+02 -0.14502997053E+03  0.20092086158E+03  0.12509000000E+03 0.  0.
         25    1    4    4    0    0  0.25169809375E+02  0.12330601566E+02 -0.87408602176E+02  0.15515584060E+03  0.12509000000E+03 0.  0.
         25    1    3    3    0    0 -0.37484080723E+02  0.47136623757E+02 -0.36974421420E+03  0.39494962924E+03  0.12509000000E+03 0.  0.
<mgrwt>
<rscale>  2 0.44879443E+03</rscale>
<asrwt>0</asrwt>
<pdfrwt beam="1">  1       21 0.10944378E-01 0.44879443E+03</pdfrwt>
<pdfrwt beam="2">  1       21 0.99500676E-01 0.44879443E+03</pdfrwt>
<totfact> 0.52744274E+04</totfact>
</mgrwt>
</event>
<event>
 7    0  0.4714446E-002  0.4248459E+03  0.7546771E-02  0.1035501E+00
         21   -1    0    0  502  501  0.00000000000E+00  0.00000000000E+00  0.21129263132E+03  0.21129263132E+03  0.00000000000E+00 0.  1.
         21   -1    0    0  501  502 -0.00000000000E+00 -0.00000000000E+00 -0.21355928228E+03  0.21355928228E+03  0.00000000000E+00 0.  1.
      99926    2    1    2    0    0 -0.22204460493E-15  0.00000000000E+00 -0.22666509566E+01  0.42485191360E+03  0.42484586709E+03 0.  0.
      99925    2    3    3    0    0  0.19577419136E+01 -0.36416033976E+02 -0.74618397643E+02  0.27581418807E+03  0.26301254873E+03 0.  0.
         25    1    4    4    0    0  0.31217842986E+01 -0.18375438260E+02 -0.79408405980E+02  0.14933387194E+03  0.12509000000E+03 0.  0.
         25    1    3    3    0    0 -0.19577419136E+01  0.36416033976E+02  0.72351746686E+02  0.14903772553E+03  0.12509000000E+03 0.  0.
         25    1    4    4    0    0 -0.11640423851E+01 -0.18040595716E+02  0.47900083369E+01  0.12648031613E+03  0.12509000000E+03 0.  0.
<mgrwt>
<rscale>  2 0.42484587E+03</rscale>
<asrwt>0</asrwt>
<pdfrwt beam="1">  1       21 0.31072446E-01 0.42484587E+03</pdfrwt>
<pdfrwt beam="2">  1       21 0.31405777E-01 0.42484587E+03</pdfrwt>
<totfact> 0.90762767E+04</totfact>
</mgrwt>
</event>
<event>
 7    0  0.4714446E-002  0.4593840E+03  0.7546771E-02  0.1024960E+00
         21   -1    0    0  502  501  0.00000000000E+00  0.00000000000E+00  0.18971763505E+03  0.18971763505E+03  0.00000000000E+00 0. -1.
         21   -1    0    0  501  502 -0.00000000000E+00 -0.00000000000E+00 -0.27808919287E+03  0.27808919287E+03  0.00000000000E+00 0. -1.
      99926    2    1    2    0    0  0.00000000000E+00  0.71054273576E-14 -0.88371557826E+02  0.46780682792E+03  0.45938403979E+03 0.  0.
      99925    2    3    3    0    0  0.85842669388E+02  0.44860236232E+02 -0.12263851900E+03  0.30593299615E+03  0.26300834039E+03 0.  0.
         25    1    4    4    0    0  0.54995707262E+02  0.61534772499E+02 -0.74809789977E+02  0.16749647405E+03  0.12509000000E+03 0.  0.
         25    1    3    3    0    0 -0.85842669388E+02 -0.44860236232E+02  0.34266961169E+02  0.16187383176E+03  0.12509000000E+03 0.  0.
         25    1    4    4    0    0  0.30846962126E+02 -0.16674536267E+02 -0.47828729018E+02  0.13843652210E+03  0.12509000000E+03 0.  0.
<mgrwt>
<rscale>  2 0.45938404E+03</rscale>
<asrwt>0</asrwt>
<pdfrwt beam="1">  1       21 0.27899653E-01 0.45938404E+03</pdfrwt>
<pdfrwt beam="2">  1       21 0.40895469E-01 0.45938404E+03</pdfrwt>
<totfact> 0.65296917E+04</totfact>
</mgrwt>
</event>
<event>
 7    0  0.4714446E-002  0.4558161E+03  0.7546771E-02  0.1026002E+00
         21   -1    0    0  502  501  0.00000000000E+00  0.00000000000E+00  0.51039545254E+03  0.51039545254E+03  0.00000000000E+00 0. -1.
         21   -1    0    0  501  502 -0.00000000000E+00 -0.00000000000E+00 -0.10176832361E+03  0.10176832361E+03  0.00000000000E+00 0. -1.
      99926    2    1    2    0    0  0.00000000000E+00  0.00000000000E+00  0.40862712894E+03  0.61216377615E+03  0.45581614531E+03 0.  0.
      99925    2    3    3    0    0  0.11373587482E+03  0.39323154953E+01  0.26132849421E+03  0.38789672949E+03  0.26309689952E+03 0.  0.
         25    1    4    4    0    0  0.64452216380E+02  0.62367647905E+01  0.79483824392E+02  0.16173488143E+03  0.12509000000E+03 0.  0.
         25    1    3    3    0    0 -0.11373587482E+03 -0.39323154953E+01  0.14729863473E+03  0.22426704666E+03  0.12509000000E+03 0.  0.
         25    1    4    4    0    0  0.49283658442E+02 -0.23044492952E+01  0.18184466981E+03  0.22616184806E+03  0.12509000000E+03 0.  0.
<mgrwt>
<rscale>  2 0.45581615E+03</rscale>
<asrwt>0</asrwt>
<pdfrwt beam="1">  1       21 0.75058154E-01 0.45581615E+03</pdfrwt>
<pdfrwt beam="2">  1       21 0.14965930E-01 0.45581615E+03</pdfrwt>
<totfact> 0.57563765E+04</totfact>
</mgrwt>
</event>
<event>
 7    0  0.4714446E-002  0.4511748E+03  0.7546771E-02  0.1027372E+00
         21   -1    0    0  502  501  0.00000000000E+00  0.00000000000E+00  0.15634203683E+03  0.15634203683E+03  0.00000000000E+00 0. -1.
         21   -1    0    0  501  502 -0.00000000000E+00 -0.00000000000E+00 -0.32550213904E+03  0.32550213904E+03  0.00000000000E+00 0. -1.
      99926    2    1    2    0    0  0.00000000000E+00  0.00000000000E+00 -0.16916010222E+03  0.48184417587E+03  0.45117476618E+03 0.  0.
      99925    2    3    3    0    0  0.15332247822E+02 -0.17399690083E+02 -0.22110810192E+03  0.34442536416E+03  0.26306313254E+03 0.  0.
         25    1    4    4    0    0  0.30842299213E+02 -0.58779541129E+01 -0.68086277693E+02  0.14583911367E+03  0.12509000000E+03 0.  0.
         25    1    4    4    0    0 -0.15510051391E+02 -0.11521735970E+02 -0.15302182423E+03  0.19858625049E+03  0.12509000000E+03 0.  0.
         25    1    3    3    0    0 -0.15332247822E+02  0.17399690083E+02  0.51947999708E+02  0.13741881171E+03  0.12509000000E+03 0.  0.
<mgrwt>
<rscale>  2 0.45117477E+03</rscale>
<asrwt>0</asrwt>
<pdfrwt beam="1">  1       21 0.22991476E-01 0.45117477E+03</pdfrwt>
<pdfrwt beam="2">  1       21 0.47867961E-01 0.45117477E+03</pdfrwt>
<totfact> 0.68626429E+04</totfact>
</mgrwt>
</event>
<event>
 7    0  0.4714446E-002  0.4411197E+03  0.7546771E-02  0.1030404E+00
         21   -1    0    0  502  501  0.00000000000E+00  0.00000000000E+00  0.65375015780E+02  0.65375015780E+02  0.00000000000E+00 0.  1.
         21   -1    0    0  501  502 -0.00000000000E+00 -0.00000000000E+00 -0.74411692372E+03  0.74411692372E+03  0.00000000000E+00 0.  1.
      99926    2    1    2    0    0  0.00000000000E+00  0.00000000000E+00 -0.67874190794E+03  0.80949193950E+03  0.44111973717E+03 0.  0.
      99925    2    3    3    0    0 -0.73994114432E+02 -0.40076677438E+02 -0.33483782066E+03  0.43399387240E+03  0.26296966763E+03 0.  0.
         25    1    4    4    0    0 -0.48374546580E+02 -0.39339320056E+02 -0.12067977288E+03  0.18465858914E+03  0.12509000000E+03 0.  0.
         25    1    3    3    0    0  0.73994114432E+02  0.40076677438E+02 -0.34390408728E+03  0.37549806710E+03  0.12509000000E+03 0.  0.
         25    1    4    4    0    0 -0.25619567852E+02 -0.73735738219E+00 -0.21415804778E+03  0.24933528327E+03  0.12509000000E+03 0.  0.
<mgrwt>
<rscale>  2 0.44111974E+03</rscale>
<asrwt>0</asrwt>
<pdfrwt beam="1">  1       21 0.96139734E-02 0.44111974E+03</pdfrwt>
<pdfrwt beam="2">  1       21 0.10942895E+00 0.44111974E+03</pdfrwt>
<totfact> 0.52833041E+04</totfact>
</mgrwt>
</event>
<event>
 7    0  0.4714446E-002  0.4516293E+03  0.7546771E-02  0.1027237E+00
         21   -1    0    0  502  501  0.00000000000E+00  0.00000000000E+00  0.53518827244E+03  0.53518827244E+03  0.00000000000E+00 0. -1.
         21   -1    0    0  501  502 -0.00000000000E+00 -0.00000000000E+00 -0.95279101517E+02  0.95279101517E+02  0.00000000000E+00 0. -1.
      99926    2    1    2    0    0  0.00000000000E+00  0.71054273576E-14  0.43990917092E+03  0.63046737395E+03  0.45162930702E+03 0.  0.
      99925    2    3    3    0    0  0.95074785144E+02 -0.40796002980E+02  0.22568991408E+03  0.36169065114E+03  0.26302216859E+03 0.  0.
         25    1    4    4    0    0  0.86559151380E+02 -0.11998424427E+02  0.14028995896E+03  0.20728055760E+03  0.12509000000E+03 0.  0.
         25    1    4    4    0    0  0.85156337635E+01 -0.28797578553E+02  0.85399955125E+02  0.15441009353E+03  0.12509000000E+03 0.  0.
         25    1    3    3    0    0 -0.95074785144E+02  0.40796002980E+02  0.21421925684E+03  0.26877672282E+03  0.12509000000E+03 0.  0.
<mgrwt>
<rscale>  2 0.45162931E+03</rscale>
<asrwt>0</asrwt>
<pdfrwt beam="1">  1       21 0.78704156E-01 0.45162931E+03</pdfrwt>
<pdfrwt beam="2">  1       21 0.14011633E-01 0.45162931E+03</pdfrwt>
<totfact> 0.58378914E+04</totfact>
</mgrwt>
</event>
<event>
 7    0  0.4714446E-002  0.4581624E+03  0.7546771E-02  0.1025316E+00
         21   -1    0    0  502  501  0.00000000000E+00  0.00000000000E+00  0.69532936794E+03  0.69532936794E+03  0.00000000000E+00 0. -1.
         21   -1    0    0  501  502 -0.00000000000E+00 -0.00000000000E+00 -0.75472422608E+02  0.75472422608E+02  0.00000000000E+00 0. -1.
      99926    2    1    2    0    0  0.00000000000E+00  0.35527136788E-14  0.61985694534E+03  0.77080179055E+03  0.45816238130E+03 0.  0.
      99925    2    3    3    0    0 -0.38233709890E+02  0.14343836946E+02  0.20475716362E+03  0.33534467543E+03  0.26241759288E+03 0.  0.
         25    1    4    4    0    0 -0.23598769609E+02 -0.17190962150E+02  0.62838934947E+02  0.14299884948E+03  0.12509000000E+03 0.  0.
         25    1    4    4    0    0 -0.14634940280E+02  0.31534799095E+02  0.14191822867E+03  0.19234582595E+03  0.12509000000E+03 0.  0.
         25    1    3    3    0    0  0.38233709890E+02 -0.14343836946E+02  0.41509978172E+03  0.43545711512E+03  0.12509000000E+03 0.  0.
<mgrwt>
<rscale>  2 0.45816238E+03</rscale>
<asrwt>0</asrwt>
<pdfrwt beam="1">  1       21 0.10225432E+00 0.45816238E+03</pdfrwt>
<pdfrwt beam="2">  1       21 0.11098886E-01 0.45816238E+03</pdfrwt>
<totfact> 0.48006588E+04</totfact>
</mgrwt>
</event>
<event>
 7    0  0.4714446E-002  0.4538577E+03  0.7546771E-02  0.1026578E+00
         21   -1    0    0  502  501  0.00000000000E+00  0.00000000000E+00  0.92753729814E+02  0.92753729814E+02  0.00000000000E+00 0.  1.
         21   -1    0    0  501  502 -0.00000000000E+00 -0.00000000000E+00 -0.55519823943E+03  0.55519823943E+03  0.00000000000E+00 0.  1.
      99926    2    1    2    0    0  0.14210854715E-13  0.88817841970E-15 -0.46244450961E+03  0.64795196924E+03  0.45385771997E+03 0.  0.
      99925    2    3    3    0    0 -0.10480177744E+03 -0.43744968220E+01 -0.34812146578E+03  0.44865366211E+03  0.26286689561E+03 0.  0.
         25    1    4    4    0    0 -0.29404198937E+02 -0.35908570971E+02 -0.17218176609E+03  0.21782585030E+03  0.12509000000E+03 0.  0.
         25    1    3    3    0    0  0.10480177744E+03  0.43744968220E+01 -0.11432304383E+03  0.19929830714E+03  0.12509000000E+03 0.  0.
         25    1    4    4    0    0 -0.75397578500E+02  0.31534074149E+02 -0.17593969969E+03  0.23082781181E+03  0.12509000000E+03 0.  0.
<mgrwt>
<rscale>  2 0.45385772E+03</rscale>
<asrwt>0</asrwt>
<pdfrwt beam="1">  1       21 0.13640254E-01 0.45385772E+03</pdfrwt>
<pdfrwt beam="2">  1       21 0.81646800E-01 0.45385772E+03</pdfrwt>
<totfact> 0.56325518E+04</totfact>
</mgrwt>
</event>
<event>
 7    0  0.4714446E-002  0.4610044E+03  0.7546771E-02  0.1024490E+00
         21   -1    0    0  502  501  0.00000000000E+00  0.00000000000E+00  0.44501516392E+03  0.44501516392E+03  0.00000000000E+00 0.  1.
         21   -1    0    0  501  502 -0.00000000000E+00 -0.00000000000E+00 -0.11939202706E+03  0.11939202706E+03  0.00000000000E+00 0.  1.
      99926    2    1    2    0    0 -0.14210854715E-13  0.71054273576E-14  0.32562313686E+03  0.56440719098E+03  0.46100439258E+03 0.  0.
      99925    2    3    3    0    0 -0.91960764087E+02  0.60319174159E+02  0.25826698895E+03  0.38474210349E+03  0.26311492491E+03 0.  0.
         25    1    3    3    0    0  0.91960764087E+02 -0.60319174159E+02  0.67356147904E+02  0.17966508749E+03  0.12509000000E+03 0.  0.
         25    1    4    4    0    0 -0.83531917153E+02  0.25800494385E+02  0.11381338316E+03  0.19037920312E+03  0.12509000000E+03 0.  0.
         25    1    4    4    0    0 -0.84288469341E+01  0.34518679774E+02  0.14445360580E+03  0.19436290037E+03  0.12509000000E+03 0.  0.
<mgrwt>
<rscale>  2 0.46100439E+03</rscale>
<asrwt>0</asrwt>
<pdfrwt beam="1">  1       21 0.65443405E-01 0.46100439E+03</pdfrwt>
<pdfrwt beam="2">  1       21 0.17557651E-01 0.46100439E+03</pdfrwt>
<totfact> 0.58114984E+04</totfact>
</mgrwt>
</event>
<event>
 7    0  0.4714446E-002  0.4534253E+03  0.7546771E-02  0.1026705E+00
         21   -1    0    0  502  501  0.00000000000E+00  0.00000000000E+00  0.69877209827E+03  0.69877209827E+03  0.00000000000E+00 0. -1.
         21   -1    0    0  501  502 -0.00000000000E+00 -0.00000000000E+00 -0.73555635812E+02  0.73555635812E+02  0.00000000000E+00 0. -1.
      99926    2    1    2    0    0  0.00000000000E+00  0.00000000000E+00  0.62521646245E+03  0.77232773408E+03  0.45342530135E+03 0.  0.
      99925    2    3    3    0    0  0.35047209991E+02 -0.10578040727E+03  0.40793943857E+03  0.49796553789E+03  0.26293970771E+03 0.  0.
         25    1    4    4    0    0  0.16073962721E+02 -0.10844936059E+02  0.16276742836E+03  0.20619585047E+03  0.12509000000E+03 0.  0.
         25    1    4    4    0    0  0.18973247270E+02 -0.94935471213E+02  0.24517201021E+03  0.29176968742E+03  0.12509000000E+03 0.  0.
         25    1    3    3    0    0 -0.35047209991E+02  0.10578040727E+03  0.21727702389E+03  0.27436219619E+03  0.12509000000E+03 0.  0.
<mgrwt>
<rscale>  2 0.45342530E+03</rscale>
<asrwt>0</asrwt>
<pdfrwt beam="1">  1       21 0.10276060E+00 0.45342530E+03</pdfrwt>
<pdfrwt beam="2">  1       21 0.10817006E-01 0.45342530E+03</pdfrwt>
<totfact> 0.49744455E+04</totfact>
</mgrwt>
</event>
<event>
 7    0  0.4714446E-002  0.4556801E+03  0.7546771E-02  0.1026042E+00
         21   -1    0    0  502  501  0.00000000000E+00  0.00000000000E+00  0.17801178224E+03  0.17801178224E+03  0.00000000000E+00 0. -1.
         21   -1    0    0  501  502 -0.00000000000E+00 -0.00000000000E+00 -0.29161599580E+03  0.29161599580E+03  0.00000000000E+00 0. -1.
      99926    2    1    2    0    0  0.00000000000E+00  0.00000000000E+00 -0.11360421357E+03  0.46962777804E+03  0.45568007699E+03 0.  0.
      99925    2    3    3    0    0  0.62000735797E+02 -0.68284551337E+02 -0.29068108323E+01  0.27881820212E+03  0.26310505334E+03 0.  0.
         25    1    4    4    0    0  0.49014728720E+02 -0.12167602987E+02 -0.30647650335E+02  0.13833756093E+03  0.12509000000E+03 0.  0.
         25    1    4    4    0    0  0.12986007078E+02 -0.56116948350E+02  0.27740839502E+02  0.14048064119E+03  0.12509000000E+03 0.  0.
         25    1    3    3    0    0 -0.62000735797E+02  0.68284551337E+02 -0.11069740273E+03  0.19080957592E+03  0.12509000000E+03 0.  0.
<mgrwt>
<rscale>  2 0.45568008E+03</rscale>
<asrwt>0</asrwt>
<pdfrwt beam="1">  1       21 0.26178204E-01 0.45568008E+03</pdfrwt>
<pdfrwt beam="2">  1       21 0.42884705E-01 0.45568008E+03</pdfrwt>
<totfact> 0.67100713E+04</totfact>
</mgrwt>
</event>
<event>
 7    0  0.4714446E-002  0.4548102E+03  0.7546771E-02  0.1026297E+00
         21   -1    0    0  502  501  0.00000000000E+00  0.00000000000E+00  0.21580257451E+03  0.21580257451E+03  0.00000000000E+00 0.  1.
         21   -1    0    0  501  502 -0.00000000000E+00 -0.00000000000E+00 -0.23963141316E+03  0.23963141316E+03  0.00000000000E+00 0.  1.
      99926    2    1    2    0    0  0.00000000000E+00  0.00000000000E+00 -0.23828838653E+02  0.45543398767E+03  0.45481018411E+03 0.  0.
      99925    2    3    3    0    0  0.68236145333E+02  0.68190404640E+02 -0.73964872198E+02  0.28970157450E+03  0.26296406053E+03 0.  0.
         25    1    4    4    0    0  0.46322722215E+02  0.29878799844E+02  0.22536160261E+01  0.13671548617E+03  0.12509000000E+03 0.  0.
         25    1    3    3    0    0 -0.68236145333E+02 -0.68190404640E+02  0.50136033545E+02  0.16573241317E+03  0.12509000000E+03 0.  0.
         25    1    4    4    0    0  0.21913423117E+02  0.38311604796E+02 -0.76218488224E+02  0.15298608833E+03  0.12509000000E+03 0.  0.
<mgrwt>
<rscale>  2 0.45481018E+03</rscale>
<asrwt>0</asrwt>
<pdfrwt beam="1">  1       21 0.31735673E-01 0.45481018E+03</pdfrwt>
<pdfrwt beam="2">  1       21 0.35239914E-01 0.45481018E+03</pdfrwt>
<totfact> 0.68617904E+04</totfact>
</mgrwt>
</event>
<event>
 7    0  0.4714446E-002  0.4202870E+03  0.7546771E-02  0.1036973E+00
         21   -1    0    0  502  501  0.00000000000E+00  0.00000000000E+00  0.61502532192E+02  0.61502532192E+02  0.00000000000E+00 0.  1.
         21   -1    0    0  501  502 -0.00000000000E+00 -0.00000000000E+00 -0.71802377140E+03  0.71802377140E+03  0.00000000000E+00 0.  1.
      99926    2    1    2    0    0  0.00000000000E+00  0.35527136788E-14 -0.65652123921E+03  0.77952630360E+03  0.42028695014E+03 0.  0.
      99925    2    3    3    0    0  0.67611901549E+02 -0.31219291160E+02 -0.39690569458E+03  0.48187927693E+03  0.26292107897E+03 0.  0.
         25    1    3    3    0    0 -0.67611901549E+02  0.31219291160E+02 -0.25961554463E+03  0.29764702667E+03  0.12509000000E+03 0.  0.
         25    1    4    4    0    0  0.18653308081E+00  0.94737528712E+01 -0.18229622036E+03  0.22128987063E+03  0.12509000000E+03 0.  0.
         25    1    4    4    0    0  0.67425368468E+02 -0.40693044031E+02 -0.21460947423E+03  0.26058940630E+03  0.12509000000E+03 0.  0.
<mgrwt>
<rscale>  2 0.42028695E+03</rscale>
<asrwt>0</asrwt>
<pdfrwt beam="1">  1       21 0.90444906E-02 0.42028695E+03</pdfrwt>
<pdfrwt beam="2">  1       21 0.10559172E+00 0.42028695E+03</pdfrwt>
<totfact> 0.64674371E+04</totfact>
</mgrwt>
</event>
<event>
 7    0  0.4714446E-002  0.4626062E+03  0.7546771E-02  0.1024028E+00
         21   -1    0    0  502  501  0.00000000000E+00  0.00000000000E+00  0.50595500266E+03  0.50595500266E+03  0.00000000000E+00 0. -1.
         21   -1    0    0  501  502 -0.00000000000E+00 -0.00000000000E+00 -0.10574284076E+03  0.10574284076E+03  0.00000000000E+00 0. -1.
      99926    2    1    2    0    0  0.00000000000E+00  0.00000000000E+00  0.40021216190E+03  0.61169784341E+03  0.46260617927E+03 0.  0.
      99925    2    3    3    0    0 -0.95683002210E+02  0.65730631895E+02  0.20908433400E+03  0.35546921976E+03  0.26299497066E+03 0.  0.
         25    1    3    3    0    0  0.95683002210E+02 -0.65730631895E+02  0.19112782789E+03  0.25622862365E+03  0.12509000000E+03 0.  0.
         25    1    4    4    0    0 -0.61095181235E+01  0.19712297373E+02  0.97048440953E+02  0.15966154475E+03  0.12509000000E+03 0.  0.
         25    1    4    4    0    0 -0.89573484086E+02  0.46018334522E+02  0.11203589305E+03  0.19580767502E+03  0.12509000000E+03 0.  0.
<mgrwt>
<rscale>  2 0.46260618E+03</rscale>
<asrwt>0</asrwt>
<pdfrwt beam="1">  1       21 0.74405146E-01 0.46260618E+03</pdfrwt>
<pdfrwt beam="2">  1       21 0.15550418E-01 0.46260618E+03</pdfrwt>
<totfact> 0.54608369E+04</totfact>
</mgrwt>
</event>
<event>
 7    0  0.4714446E-002  0.4506025E+03  0.7546771E-02  0.1027543E+00
         21   -1    0    0  502  501  0.00000000000E+00  0.00000000000E+00  0.41792052769E+03  0.41792052769E+03  0.00000000000E+00 0.  1.
         21   -1    0    0  501  502 -0.00000000000E+00 -0.00000000000E+00 -0.12146008308E+03  0.12146008308E+03  0.00000000000E+00 0.  1.
      99926    2    1    2    0    0  0.00000000000E+00  0.00000000000E+00  0.29646044461E+03  0.53938061077E+03  0.45060253889E+03 0.  0.
      99925    2    3    3    0    0  0.87871405327E+02  0.64054514379E+02  0.17910873332E+03  0.33629615315E+03  0.26304144081E+03 0.  0.
         25    1    4    4    0    0  0.76971964416E+02  0.44359287185E+02  0.69385690208E+02  0.16838738602E+03  0.12509000000E+03 0.  0.
         25    1    3    3    0    0 -0.87871405327E+02 -0.64054514379E+02  0.11735171129E+03  0.20308445763E+03  0.12509000000E+03 0.  0.
         25    1    4    4    0    0  0.10899440910E+02  0.19695227194E+02  0.10972304312E+03  0.16790876712E+03  0.12509000000E+03 0.  0.
<mgrwt>
<rscale>  2 0.45060254E+03</rscale>
<asrwt>0</asrwt>
<pdfrwt beam="1">  1       21 0.61458901E-01 0.45060254E+03</pdfrwt>
<pdfrwt beam="2">  1       21 0.17861777E-01 0.45060254E+03</pdfrwt>
<totfact> 0.64799596E+04</totfact>
</mgrwt>
</event>
<event>
 7    0  0.4714446E-002  0.4543547E+03  0.7546771E-02  0.1026431E+00
         21   -1    0    0  502  501  0.00000000000E+00  0.00000000000E+00  0.43265101664E+02  0.43265101664E+02  0.00000000000E+00 0. -1.
         21   -1    0    0  501  502 -0.00000000000E+00 -0.00000000000E+00 -0.11928677435E+04  0.11928677435E+04  0.00000000000E+00 0. -1.
      99926    2    1    2    0    0  0.00000000000E+00  0.00000000000E+00 -0.11496026419E+04  0.12361328452E+04  0.45435468170E+03 0.  0.
      99925    2    3    3    0    0 -0.95522355462E+02 -0.41219950147E+02 -0.84085281397E+03  0.88713776069E+03  0.26297594376E+03 0.  0.
         25    1    4    4    0    0 -0.51934768925E+02  0.17018244556E+02 -0.45535224371E+03  0.47537355293E+03  0.12509000000E+03 0.  0.
         25    1    4    4    0    0 -0.43587586537E+02 -0.58238194703E+02 -0.38550057027E+03  0.41176420777E+03  0.12509000000E+03 0.  0.
         25    1    3    3    0    0  0.95522355462E+02  0.41219950147E+02 -0.30874982789E+03  0.34899508450E+03  0.12509000000E+03 0.  0.
<mgrwt>
<rscale>  2 0.45435468E+03</rscale>
<asrwt>0</asrwt>
<pdfrwt beam="1">  1       21 0.63625147E-02 0.45435468E+03</pdfrwt>
<pdfrwt beam="2">  1       21 0.17542173E+00 0.45435468E+03</pdfrwt>
<totfact> 0.31183773E+04</totfact>
</mgrwt>
</event>
<event>
 7    0  0.4714446E-002  0.4120478E+03  0.7546771E-02  0.1039686E+00
         21   -1    0    0  502  501  0.00000000000E+00  0.00000000000E+00  0.32673312095E+02  0.32673312095E+02  0.00000000000E+00 0. -1.
         21   -1    0    0  501  502 -0.00000000000E+00 -0.00000000000E+00 -0.12990983910E+04  0.12990983910E+04  0.00000000000E+00 0. -1.
      99926    2    1    2    0    0 -0.71054273576E-14  0.00000000000E+00 -0.12664250790E+04  0.13317717031E+04  0.41204779903E+03 0.  0.
      99925    2    3    3    0    0  0.54137831288E+02 -0.26860885032E+02 -0.75324909497E+03  0.80012378341E+03  0.26298566079E+03 0.  0.
         25    1    4    4    0    0  0.53452542475E+01  0.10099228107E+02 -0.28161693885E+03  0.30836046196E+03  0.12509000000E+03 0.  0.
         25    1    3    3    0    0 -0.54137831288E+02  0.26860885032E+02 -0.51317598398E+03  0.53164791974E+03  0.12509000000E+03 0.  0.
         25    1    4    4    0    0  0.48792577040E+02 -0.36960113139E+02 -0.47163215612E+03  0.49176332145E+03  0.12509000000E+03 0.  0.
<mgrwt>
<rscale>  2 0.41204780E+03</rscale>
<asrwt>0</asrwt>
<pdfrwt beam="1">  1       21 0.48048999E-02 0.41204780E+03</pdfrwt>
<pdfrwt beam="2">  1       21 0.19104384E+00 0.41204780E+03</pdfrwt>
<totfact> 0.39983827E+04</totfact>
</mgrwt>
</event>
<event>
 7    0  0.4714446E-002  0.4550654E+03  0.7546771E-02  0.1026222E+00
         21   -1    0    0  502  501  0.00000000000E+00  0.00000000000E+00  0.26785857906E+02  0.26785857906E+02  0.00000000000E+00 0. -1.
         21   -1    0    0  501  502 -0.00000000000E+00 -0.00000000000E+00 -0.19327781355E+04  0.19327781355E+04  0.00000000000E+00 0. -1.
      99926    2    1    2    0    0  0.00000000000E+00  0.71054273576E-14 -0.19059922776E+04  0.19595639934E+04  0.45506536015E+03 0.  0.
      99925    2    3    3    0    0 -0.20144044659E+02 -0.54983406931E+02 -0.16166119114E+04  0.16389123724E+04  0.26300329844E+03 0.  0.
         25    1    3    3    0    0  0.20144044659E+02  0.54983406931E+02 -0.28938036626E+03  0.32065162100E+03  0.12509000000E+03 0.  0.
         25    1    4    4    0    0 -0.43915444334E+02 -0.21683824023E+02 -0.94794488468E+03  0.95741619318E+03  0.12509000000E+03 0.  0.
         25    1    4    4    0    0  0.23771399675E+02 -0.33299582907E+02 -0.66866702668E+03  0.68149617925E+03  0.12509000000E+03 0.  0.
<mgrwt>
<rscale>  2 0.45506536E+03</rscale>
<asrwt>0</asrwt>
<pdfrwt beam="1">  1       21 0.39390973E-02 0.45506536E+03</pdfrwt>
<pdfrwt beam="2">  1       21 0.28423204E+00 0.45506536E+03</pdfrwt>
<totfact> 0.14374196E+04</totfact>
</mgrwt>
</event>
<event>
 7    0  0.4714446E-002  0.4543767E+03  0.7546771E-02  0.1026425E+00
         21   -1    0    0  502  501  0.00000000000E+00  0.00000000000E+00  0.95124512594E+03  0.95124512594E+03  0.00000000000E+00 0. -1.
         21   -1    0    0  501  502 -0.00000000000E+00 -0.00000000000E+00 -0.54259985664E+02  0.54259985664E+02  0.00000000000E+00 0. -1.
      99926    2    1    2    0    0  0.88817841970E-15  0.14210854715E-13  0.89698514027E+03  0.10055051116E+04  0.45437670229E+03 0.  0.
      99925    2    3    3    0    0 -0.62636045317E+01 -0.11224567800E+03  0.57668756196E+03  0.64373671644E+03  0.26304009389E+03 0.  0.
         25    1    4    4    0    0 -0.64363199049E+01 -0.76397235503E+02  0.38543174290E+03  0.41241132421E+03  0.12509000000E+03 0.  0.
         25    1    4    4    0    0  0.17271537325E+00 -0.35848442494E+02  0.19125581907E+03  0.23132539222E+03  0.12509000000E+03 0.  0.
         25    1    3    3    0    0  0.62636045317E+01  0.11224567800E+03  0.32029757831E+03  0.36176839517E+03  0.12509000000E+03 0.  0.
<mgrwt>
<rscale>  2 0.45437670E+03</rscale>
<asrwt>0</asrwt>
<pdfrwt beam="1">  1       21 0.13988898E+00 0.45437670E+03</pdfrwt>
<pdfrwt beam="2">  1       21 0.79794102E-02 0.45437670E+03</pdfrwt>
<totfact> 0.39143533E+04</totfact>
</mgrwt>
</event>
<event>
 7    0  0.4714446E-002  0.4516525E+03  0.7546771E-02  0.1027230E+00
         21   -1    0    0  502  501  0.00000000000E+00  0.00000000000E+00  0.11081840704E+03  0.11081840704E+03  0.00000000000E+00 0.  1.
         21   -1    0    0  501  502 -0.00000000000E+00 -0.00000000000E+00 -0.46018983494E+03  0.46018983494E+03  0.00000000000E+00 0.  1.
      99926    2    1    2    0    0  0.00000000000E+00  0.71054273576E-14 -0.34937142789E+03  0.57100824198E+03  0.45165254098E+03 0.  0.
      99925    2    3    3    0    0 -0.67640117297E+02 -0.50622402759E+02 -0.13132487255E+03  0.30581091634E+03  0.26293778974E+03 0.  0.
         25    1    4    4    0    0 -0.16191457399E+02  0.12499407956E+02 -0.65586232036E+02  0.14271461181E+03  0.12509000000E+03 0.  0.
         25    1    3    3    0    0  0.67640117297E+02  0.50622402759E+02 -0.21804655534E+03  0.26519732564E+03  0.12509000000E+03 0.  0.
         25    1    4    4    0    0 -0.51448659898E+02 -0.63121810715E+02 -0.65738640517E+02  0.16309630453E+03  0.12509000000E+03 0.  0.
<mgrwt>
<rscale>  2 0.45165254E+03</rscale>
<asrwt>0</asrwt>
<pdfrwt beam="1">  1       21 0.16296825E-01 0.45165254E+03</pdfrwt>
<pdfrwt beam="2">  1       21 0.67674976E-01 0.45165254E+03</pdfrwt>
<totfact> 0.62127511E+04</totfact>
</mgrwt>
</event>
<event>
 7    0  0.4714446E-002  0.4488823E+03  0.7546771E-02  0.1028056E+00
         21   -1    0    0  502  501  0.00000000000E+00  0.00000000000E+00  0.19037851136E+03  0.19037851136E+03  0.00000000000E+00 0. -1.
         21   -1    0    0  501  502 -0.00000000000E+00 -0.00000000000E+00 -0.26459829905E+03  0.26459829905E+03  0.00000000000E+00 0. -1.
      99926    2    1    2    0    0  0.71054273576E-14  0.00000000000E+00 -0.74219787687E+02  0.45497681041E+03  0.44888230208E+03 0.  0.
      99925    2    3    3    0    0  0.49122336680E+02  0.61319010364E+02 -0.12113734202E+03  0.29998716560E+03  0.26295440460E+03 0.  0.
         25    1    4    4    0    0 -0.14021521008E+02  0.43365172456E+02 -0.56273733581E+02  0.14453851537E+03  0.12509000000E+03 0.  0.
         25    1    4    4    0    0  0.63143857688E+02  0.17953837908E+02 -0.64863608439E+02  0.15544865023E+03  0.12509000000E+03 0.  0.
         25    1    3    3    0    0 -0.49122336680E+02 -0.61319010364E+02  0.46917554333E+02  0.15498964481E+03  0.12509000000E+03 0.  0.
<mgrwt>
<rscale>  2 0.44888230E+03</rscale>
<asrwt>0</asrwt>
<pdfrwt beam="1">  1       21 0.27996840E-01 0.44888230E+03</pdfrwt>
<pdfrwt beam="2">  1       21 0.38911515E-01 0.44888230E+03</pdfrwt>
<totfact> 0.71996940E+04</totfact>
</mgrwt>
</event>
<event>
 7    0  0.4714446E-002  0.4584876E+03  0.7546771E-02  0.1025221E+00
         21   -1    0    0  502  501  0.00000000000E+00  0.00000000000E+00  0.80716722393E+03  0.80716722393E+03  0.00000000000E+00 0.  1.
         21   -1    0    0  501  502 -0.00000000000E+00 -0.00000000000E+00 -0.65107593470E+02  0.65107593470E+02  0.00000000000E+00 0.  1.
      99926    2    1    2    0    0  0.00000000000E+00  0.00000000000E+00  0.74205963046E+03  0.87227481740E+03  0.45848758098E+03 0.  0.
      99925    2    3    3    0    0 -0.13023315209E+02  0.36470272383E+02  0.67453442479E+03  0.72494237356E+03  0.26276428077E+03 0.  0.
         25    1    3    3    0    0  0.13023315209E+02 -0.36470272383E+02  0.67525205670E+02  0.14733244384E+03  0.12509000000E+03 0.  0.
         25    1    4    4    0    0 -0.32722672481E+02  0.41021106707E+02  0.29207475331E+03  0.32203831156E+03  0.12509000000E+03 0.  0.
         25    1    4    4    0    0  0.19699357272E+02 -0.45508343235E+01  0.38245967148E+03  0.40290406201E+03  0.12509000000E+03 0.  0.
<mgrwt>
<rscale>  2 0.45848758E+03</rscale>
<asrwt>0</asrwt>
<pdfrwt beam="1">  1       21 0.11870106E+00 0.45848758E+03</pdfrwt>
<pdfrwt beam="2">  1       21 0.95746466E-02 0.45848758E+03</pdfrwt>
<totfact> 0.43260211E+04</totfact>
</mgrwt>
</event>
<event>
 7    0  0.4714446E-002  0.4569189E+03  0.7546771E-02  0.1025679E+00
         21   -1    0    0  502  501  0.00000000000E+00  0.00000000000E+00  0.38121528205E+02  0.38121528205E+02  0.00000000000E+00 0.  1.
         21   -1    0    0  501  502 -0.00000000000E+00 -0.00000000000E+00 -0.13691400218E+04  0.13691400218E+04  0.00000000000E+00 0.  1.
      99926    2    1    2    0    0  0.71054273576E-14  0.14210854715E-13 -0.13310184936E+04  0.14072615500E+04  0.45691885476E+03 0.  0.
      99925    2    3    3    0    0  0.61580500474E+02 -0.72425644023E+02 -0.63573728066E+03  0.69444943934E+03  0.26279364876E+03 0.  0.
         25    1    3    3    0    0 -0.61580500474E+02  0.72425644023E+02 -0.69528121296E+03  0.71281211069E+03  0.12509000000E+03 0.  0.
         25    1    4    4    0    0  0.81212610463E+01 -0.33653543280E-01 -0.28229631857E+03  0.30887647303E+03  0.12509000000E+03 0.  0.
         25    1    4    4    0    0  0.53459239428E+02 -0.72391990480E+02 -0.35344096210E+03  0.38557296631E+03  0.12509000000E+03 0.  0.
<mgrwt>
<rscale>  2 0.45691885E+03</rscale>
<asrwt>0</asrwt>
<pdfrwt beam="1">  1       21 0.56061070E-02 0.45691885E+03</pdfrwt>
<pdfrwt beam="2">  1       21 0.20134412E+00 0.45691885E+03</pdfrwt>
<totfact> 0.25752980E+04</totfact>
</mgrwt>
</event>
<event>
 7    0  0.4714446E-002  0.4551186E+03  0.7546771E-02  0.1026207E+00
         21   -1    0    0  502  501  0.00000000000E+00  0.00000000000E+00  0.38280712370E+03  0.38280712370E+03  0.00000000000E+00 0. -1.
         21   -1    0    0  501  502 -0.00000000000E+00 -0.00000000000E+00 -0.13527239156E+03  0.13527239156E+03  0.00000000000E+00 0. -1.
      99926    2    1    2    0    0 -0.14210854715E-13 -0.17763568394E-14  0.24753473214E+03  0.51807951526E+03  0.45511860050E+03 0.  0.
      99925    2    3    3    0    0  0.87729778355E+02  0.97337797894E+01  0.74915822508E+02  0.28735011414E+03  0.26299514664E+03 0.  0.
         25    1    4    4    0    0  0.50734733043E+02 -0.22508122932E+02  0.76040718444E+01  0.13706187925E+03  0.12509000000E+03 0.  0.
         25    1    3    3    0    0 -0.87729778355E+02 -0.97337797894E+01  0.17261890963E+03  0.23072940112E+03  0.12509000000E+03 0.  0.
         25    1    4    4    0    0  0.36995045312E+02  0.32241902722E+02  0.67311750664E+02  0.15028823489E+03  0.12509000000E+03 0.  0.
<mgrwt>
<rscale>  2 0.45511860E+03</rscale>
<asrwt>0</asrwt>
<pdfrwt beam="1">  1       21 0.56295165E-01 0.45511860E+03</pdfrwt>
<pdfrwt beam="2">  1       21 0.19892999E-01 0.45511860E+03</pdfrwt>
<totfact> 0.63958100E+04</totfact>
</mgrwt>
</event>
<event>
 7    0  0.4714446E-002  0.4598306E+03  0.7546771E-02  0.1024830E+00
         21   -1    0    0  502  501  0.00000000000E+00  0.00000000000E+00  0.14333910988E+03  0.14333910988E+03  0.00000000000E+00 0. -1.
         21   -1    0    0  501  502 -0.00000000000E+00 -0.00000000000E+00 -0.36878317093E+03  0.36878317093E+03  0.00000000000E+00 0. -1.
      99926    2    1    2    0    0  0.00000000000E+00  0.00000000000E+00 -0.22544406104E+03  0.51212228081E+03  0.45983062734E+03 0.  0.
      99925    2    3    3    0    0  0.65085572235E+02  0.88998341172E+02 -0.18688550663E+03  0.34097583281E+03  0.26302374327E+03 0.  0.
         25    1    4    4    0    0 -0.37344986820E+01  0.59878139519E+02 -0.10355381529E+03  0.17311914635E+03  0.12509000000E+03 0.  0.
         25    1    4    4    0    0  0.68820070917E+02  0.29120201653E+02 -0.83331691343E+02  0.16785668645E+03  0.12509000000E+03 0.  0.
         25    1    3    3    0    0 -0.65085572235E+02 -0.88998341172E+02 -0.38558554414E+02  0.17114644800E+03  0.12509000000E+03 0.  0.
<mgrwt>
<rscale>  2 0.45983063E+03</rscale>
<asrwt>0</asrwt>
<pdfrwt beam="1">  1       21 0.21079281E-01 0.45983063E+03</pdfrwt>
<pdfrwt beam="2">  1       21 0.54232819E-01 0.45983063E+03</pdfrwt>
<totfact> 0.62015292E+04</totfact>
</mgrwt>
</event>
<event>
 7    0  0.4714446E-002  0.4549725E+03  0.7546771E-02  0.1026249E+00
         21   -1    0    0  502  501  0.00000000000E+00  0.00000000000E+00  0.11662300389E+03  0.11662300389E+03  0.00000000000E+00 0. -1.
         21   -1    0    0  501  502 -0.00000000000E+00 -0.00000000000E+00 -0.44373748766E+03  0.44373748766E+03  0.00000000000E+00 0. -1.
      99926    2    1    2    0    0  0.00000000000E+00 -0.71054273576E-14 -0.32711448376E+03  0.56036049155E+03  0.45497252115E+03 0.  0.
      99925    2    3    3    0    0  0.88659950439E+02  0.50171618418E+02 -0.14468464976E+03  0.31683240171E+03  0.26281427813E+03 0.  0.
         25    1    3    3    0    0 -0.88659950439E+02 -0.50171618418E+02 -0.18242983401E+03  0.24352808984E+03  0.12509000000E+03 0.  0.
         25    1    4    4    0    0  0.60942824394E+02  0.61131523811E+02 -0.93422694912E+02  0.17839954897E+03  0.12509000000E+03 0.  0.
         25    1    4    4    0    0  0.27717126045E+02 -0.10959905393E+02 -0.51261954844E+02  0.13843285274E+03  0.12509000000E+03 0.  0.
<mgrwt>
<rscale>  2 0.45497252E+03</rscale>
<asrwt>0</asrwt>
<pdfrwt beam="1">  1       21 0.17150442E-01 0.45497252E+03</pdfrwt>
<pdfrwt beam="2">  1       21 0.65255512E-01 0.45497252E+03</pdfrwt>
<totfact> 0.61200331E+04</totfact>
</mgrwt>
</event>
<event>
 7    0  0.4714446E-002  0.4456219E+03  0.7546771E-02  0.1029036E+00
         21   -1    0    0  502  501  0.00000000000E+00  0.00000000000E+00  0.53635414391E+02  0.53635414391E+02  0.00000000000E+00 0.  1.
         21   -1    0    0  501  502 -0.00000000000E+00 -0.00000000000E+00 -0.92559583130E+03  0.92559583130E+03  0.00000000000E+00 0.  1.
      99926    2    1    2    0    0  0.00000000000E+00  0.17763568394E-14 -0.87196041691E+03  0.97923124569E+03  0.44562188443E+03 0.  0.
      99925    2    3    3    0    0  0.32580398954E+01  0.14569608014E+02 -0.32735700416E+03  0.42024710139E+03  0.26310098775E+03 0.  0.
         25    1    4    4    0    0 -0.11082775070E+02 -0.19534642492E+01 -0.22276302751E+03  0.25572938520E+03  0.12509000000E+03 0.  0.
         25    1    4    4    0    0  0.14340814966E+02  0.16523072263E+02 -0.10459397664E+03  0.16451771619E+03  0.12509000000E+03 0.  0.
         25    1    3    3    0    0 -0.32580398954E+01 -0.14569608014E+02 -0.54460341275E+03  0.55898414430E+03  0.12509000000E+03 0.  0.
<mgrwt>
<rscale>  2 0.44562188E+03</rscale>
<asrwt>0</asrwt>
<pdfrwt beam="1">  1       21 0.78875615E-02 0.44562188E+03</pdfrwt>
<pdfrwt beam="2">  1       21 0.13611703E+00 0.44562188E+03</pdfrwt>
<totfact> 0.43049429E+04</totfact>
</mgrwt>
</event>
<event>
 7    0  0.4714446E-002  0.4336213E+03  0.7546771E-02  0.1032722E+00
         21   -1    0    0  502  501  0.00000000000E+00  0.00000000000E+00  0.13401404216E+03  0.13401404216E+03  0.00000000000E+00 0.  1.
         21   -1    0    0  501  502 -0.00000000000E+00 -0.00000000000E+00 -0.35076069057E+03  0.35076069057E+03  0.00000000000E+00 0.  1.
      99926    2    1    2    0    0  0.00000000000E+00  0.00000000000E+00 -0.21674664841E+03  0.48477473273E+03  0.43362130010E+03 0.  0.
      99925    2    3    3    0    0  0.75997592496E+02  0.37859424659E+02 -0.99908764636E+02  0.29370519229E+03  0.26281554107E+03 0.  0.
         25    1    3    3    0    0 -0.75997592496E+02 -0.37859424659E+02 -0.11683788377E+03  0.19106954044E+03  0.12509000000E+03 0.  0.
         25    1    4    4    0    0  0.46098925730E+02  0.23038829332E+02 -0.92774310472E+02  0.16404413855E+03  0.12509000000E+03 0.  0.
         25    1    4    4    0    0  0.29898666765E+02  0.14820595327E+02 -0.71344541638E+01  0.12966105374E+03  0.12509000000E+03 0.  0.
<mgrwt>
<rscale>  2 0.43362130E+03</rscale>
<asrwt>0</asrwt>
<pdfrwt beam="1">  1       21 0.19707947E-01 0.43362130E+03</pdfrwt>
<pdfrwt beam="2">  1       21 0.51582454E-01 0.43362130E+03</pdfrwt>
<totfact> 0.78921064E+04</totfact>
</mgrwt>
</event>
<event>
 7    0  0.4714446E-002  0.4381380E+03  0.7546771E-02  0.1031320E+00
         21   -1    0    0  502  501  0.00000000000E+00  0.00000000000E+00  0.10252320683E+03  0.10252320683E+03  0.00000000000E+00 0. -1.
         21   -1    0    0  501  502 -0.00000000000E+00 -0.00000000000E+00 -0.46810115054E+03  0.46810115054E+03  0.00000000000E+00 0. -1.
      99926    2    1    2    0    0  0.00000000000E+00  0.00000000000E+00 -0.36557794372E+03  0.57062435737E+03  0.43813801968E+03 0.  0.
      99925    2    3    3    0    0 -0.93734448526E+02 -0.84959190730E+01 -0.26154236443E+03  0.38266362387E+03  0.26299945468E+03 0.  0.
         25    1    4    4    0    0 -0.33920928617E+02 -0.41997481157E+02 -0.11696986493E+03  0.17956579636E+03  0.12509000000E+03 0.  0.
         25    1    3    3    0    0  0.93734448526E+02  0.84959190730E+01 -0.10403557929E+03  0.18796073350E+03  0.12509000000E+03 0.  0.
         25    1    4    4    0    0 -0.59813519909E+02  0.33501562084E+02 -0.14457249950E+03  0.20309782750E+03  0.12509000000E+03 0.  0.
<mgrwt>
<rscale>  2 0.43813802E+03</rscale>
<asrwt>0</asrwt>
<pdfrwt beam="1">  1       21 0.15076942E-01 0.43813802E+03</pdfrwt>
<pdfrwt beam="2">  1       21 0.68838405E-01 0.43813802E+03</pdfrwt>
<totfact> 0.69313659E+04</totfact>
</mgrwt>
</event>
<event>
 7    0  0.4714446E-002  0.4555453E+03  0.7546771E-02  0.1026081E+00
         21   -1    0    0  502  501  0.00000000000E+00  0.00000000000E+00  0.34729583332E+03  0.34729583332E+03  0.00000000000E+00 0. -1.
         21   -1    0    0  501  502 -0.00000000000E+00 -0.00000000000E+00 -0.14938379370E+03  0.14938379370E+03  0.00000000000E+00 0. -1.
      99926    2    1    2    0    0 -0.71054273576E-14  0.17763568394E-14  0.19791203962E+03  0.49667962703E+03  0.45554525184E+03 0.  0.
      99925    2    3    3    0    0 -0.39081746176E+02  0.15285624156E+02  0.23983648360E+03  0.35823758033E+03  0.26277669589E+03 0.  0.
         25    1    4    4    0    0 -0.40487707300E+01  0.31158009830E+01  0.67963063307E+02  0.14245205100E+03  0.12509000000E+03 0.  0.
         25    1    3    3    0    0  0.39081746176E+02 -0.15285624156E+02 -0.41924443982E+02  0.13844204670E+03  0.12509000000E+03 0.  0.
         25    1    4    4    0    0 -0.35032975446E+02  0.12169823173E+02  0.17187342030E+03  0.21578552933E+03  0.12509000000E+03 0.  0.
<mgrwt>
<rscale>  2 0.45554525E+03</rscale>
<asrwt>0</asrwt>
<pdfrwt beam="1">  1       21 0.51072916E-01 0.45554525E+03</pdfrwt>
<pdfrwt beam="2">  1       21 0.21968205E-01 0.45554525E+03</pdfrwt>
<totfact> 0.65221792E+04</totfact>
</mgrwt>
</event>
<event>
 7    0  0.4714446E-002  0.4478190E+03  0.7546771E-02  0.1028374E+00
         21   -1    0    0  502  501  0.00000000000E+00  0.00000000000E+00  0.54808458552E+03  0.54808458552E+03  0.00000000000E+00 0.  1.
         21   -1    0    0  501  502 -0.00000000000E+00 -0.00000000000E+00 -0.91473938087E+02  0.91473938087E+02  0.00000000000E+00 0.  1.
      99926    2    1    2    0    0  0.00000000000E+00  0.00000000000E+00  0.45661064744E+03  0.63955852361E+03  0.44781896093E+03 0.  0.
      99925    2    3    3    0    0 -0.60803692997E+02 -0.66531808331E+02  0.20892780027E+03  0.34780885097E+03  0.26305246718E+03 0.  0.
         25    1    4    4    0    0 -0.15622576557E+02  0.66494206624E+01  0.97154604335E+02  0.15929471095E+03  0.12509000000E+03 0.  0.
         25    1    3    3    0    0  0.60803692997E+02  0.66531808331E+02  0.24768284717E+03  0.29174967263E+03  0.12509000000E+03 0.  0.
         25    1    4    4    0    0 -0.45181116440E+02 -0.73181228994E+02  0.11177319593E+03  0.18851414002E+03  0.12509000000E+03 0.  0.
<mgrwt>
<rscale>  2 0.44781896E+03</rscale>
<asrwt>0</asrwt>
<pdfrwt beam="1">  1       21 0.80600673E-01 0.44781896E+03</pdfrwt>
<pdfrwt beam="2">  1       21 0.13452050E-01 0.44781896E+03</pdfrwt>
<totfact> 0.59614074E+04</totfact>
</mgrwt>
</event>
<event>
 7    0  0.4714446E-002  0.4558385E+03  0.7546771E-02  0.1025995E+00
         21   -1    0    0  502  501  0.00000000000E+00  0.00000000000E+00  0.16467378631E+03  0.16467378631E+03  0.00000000000E+00 0. -1.
         21   -1    0    0  501  502 -0.00000000000E+00 -0.00000000000E+00 -0.31545509888E+03  0.31545509888E+03  0.00000000000E+00 0. -1.
      99926    2    1    2    0    0 -0.35527136788E-14  0.00000000000E+00 -0.15078131256E+03  0.48012888519E+03  0.45583850449E+03 0.  0.
      99925    2    3    3    0    0  0.23212701668E+02 -0.36535732653E+02 -0.20580274585E+03  0.33678121168E+03  0.26304586114E+03 0.  0.
         25    1    4    4    0    0  0.36806119830E+02 -0.50429178227E+02 -0.10168385524E+03  0.17287251658E+03  0.12509000000E+03 0.  0.
         25    1    3    3    0    0 -0.23212701668E+02  0.36535732653E+02  0.55021433282E+02  0.14334767351E+03  0.12509000000E+03 0.  0.
         25    1    4    4    0    0 -0.13593418161E+02  0.13893445574E+02 -0.10411889061E+03  0.16390869510E+03  0.12509000000E+03 0.  0.
<mgrwt>
<rscale>  2 0.45583850E+03</rscale>
<asrwt>0</asrwt>
<pdfrwt beam="1">  1       21 0.24216733E-01 0.45583850E+03</pdfrwt>
<pdfrwt beam="2">  1       21 0.46390455E-01 0.45583850E+03</pdfrwt>
<totfact> 0.66248698E+04</totfact>
</mgrwt>
</event>
<event>
 7    0  0.4714446E-002  0.4552970E+03  0.7546771E-02  0.1026154E+00
         21   -1    0    0  502  501  0.00000000000E+00  0.00000000000E+00  0.48256166251E+03  0.48256166251E+03  0.00000000000E+00 0. -1.
         21   -1    0    0  501  502 -0.00000000000E+00 -0.00000000000E+00 -0.10739318152E+03  0.10739318152E+03  0.00000000000E+00 0. -1.
      99926    2    1    2    0    0  0.00000000000E+00  0.00000000000E+00  0.37516848099E+03  0.58995484403E+03  0.45529696777E+03 0.  0.
      99925    2    3    3    0    0  0.44180490812E+02 -0.57404433945E+02  0.34915530577E+03  0.44308286511E+03  0.26299394101E+03 0.  0.
         25    1    4    4    0    0  0.28792166620E+02 -0.23244498676E+02  0.23884065391E+03  0.27214272292E+03  0.12509000000E+03 0.  0.
         25    1    3    3    0    0 -0.44180490812E+02  0.57404433945E+02  0.26013175225E+02  0.14687197891E+03  0.12509000000E+03 0.  0.
         25    1    4    4    0    0  0.15388324192E+02 -0.34159935270E+02  0.11031465185E+03  0.17094014219E+03  0.12509000000E+03 0.  0.
<mgrwt>
<rscale>  2 0.45529697E+03</rscale>
<asrwt>0</asrwt>
<pdfrwt beam="1">  1       21 0.70964949E-01 0.45529697E+03</pdfrwt>
<pdfrwt beam="2">  1       21 0.15793115E-01 0.45529697E+03</pdfrwt>
<totfact> 0.59161890E+04</totfact>
</mgrwt>
</event>
<event>
 7    0  0.4714446E-002  0.4545122E+03  0.7546771E-02  0.1026385E+00
         21   -1    0    0  502  501  0.00000000000E+00  0.00000000000E+00  0.96521888265E+02  0.96521888265E+02  0.00000000000E+00 0. -1.
         21   -1    0    0  501  502 -0.00000000000E+00 -0.00000000000E+00 -0.53506340134E+03  0.53506340134E+03  0.00000000000E+00 0. -1.
      99926    2    1    2    0    0  0.00000000000E+00 -0.71054273576E-14 -0.43854151307E+03  0.63158528960E+03  0.45451217734E+03 0.  0.
      99925    2    3    3    0    0 -0.83909426970E+02 -0.42565292862E+02 -0.36230420548E+03  0.45748120791E+03  0.26300593567E+03 0.  0.
         25    1    4    4    0    0 -0.19400620191E+02  0.86541449456E+01 -0.19791470524E+03  0.23509363441E+03  0.12509000000E+03 0.  0.
         25    1    4    4    0    0 -0.64508806779E+02 -0.51219437808E+02 -0.16438950023E+03  0.22238757350E+03  0.12509000000E+03 0.  0.
         25    1    3    3    0    0  0.83909426970E+02  0.42565292862E+02 -0.76237307593E+02  0.17410408169E+03  0.12509000000E+03 0.  0.
<mgrwt>
<rscale>  2 0.45451218E+03</rscale>
<asrwt>0</asrwt>
<pdfrwt beam="1">  1       21 0.14194396E-01 0.45451218E+03</pdfrwt>
<pdfrwt beam="2">  1       21 0.78685793E-01 0.45451218E+03</pdfrwt>
<totfact> 0.56994185E+04</totfact>
</mgrwt>
</event>
<event>
 7    0  0.4714446E-002  0.4595589E+03  0.7546771E-02  0.1024909E+00
         21   -1    0    0  502  501  0.00000000000E+00  0.00000000000E+00  0.18063488732E+02  0.18063488732E+02  0.00000000000E+00 0.  1.
         21   -1    0    0  501  502 -0.00000000000E+00 -0.00000000000E+00 -0.29229456718E+04  0.29229456718E+04  0.00000000000E+00 0.  1.
      99926    2    1    2    0    0  0.00000000000E+00  0.00000000000E+00 -0.29048821831E+04  0.29410091606E+04  0.45955890246E+03 0.  0.
      99925    2    3    3    0    0  0.80204563670E+02 -0.83264870975E+02 -0.19523055503E+04  0.19733234884E+04  0.26295021797E+03 0.  0.
         25    1    3    3    0    0 -0.80204563670E+02  0.83264870975E+02 -0.95257663277E+03  0.96768567220E+03  0.12509000000E+03 0.  0.
         25    1    4    4    0    0 -0.61168826841E+00 -0.28398864040E+02 -0.83124494202E+03  0.84108414049E+03  0.12509000000E+03 0.  0.
         25    1    4    4    0    0  0.80816251938E+02 -0.54866006935E+02 -0.11210606083E+04  0.11322393479E+04  0.12509000000E+03 0.  0.
<mgrwt>
<rscale>  2 0.45955890E+03</rscale>
<asrwt>0</asrwt>
<pdfrwt beam="1">  1       21 0.26563958E-02 0.45955890E+03</pdfrwt>
<pdfrwt beam="2">  1       21 0.42984488E+00 0.45955890E+03</pdfrwt>
<totfact> 0.34648894E+03</totfact>
</mgrwt>
</event>
<event>
 7    0  0.4714446E-002  0.4556119E+03  0.7546771E-02  0.1026062E+00
         21   -1    0    0  502  501  0.00000000000E+00  0.00000000000E+00  0.78477282501E+02  0.78477282501E+02  0.00000000000E+00 0. -1.
         21   -1    0    0  501  502 -0.00000000000E+00 -0.00000000000E+00 -0.66128121446E+03  0.66128121446E+03  0.00000000000E+00 0. -1.
      99926    2    1    2    0    0  0.00000000000E+00  0.00000000000E+00 -0.58280393196E+03  0.73975849696E+03  0.45561190801E+03 0.  0.
      99925    2    3    3    0    0 -0.56590831948E+02  0.97871755914E+02 -0.34677318457E+03  0.44969053134E+03  0.26303712585E+03 0.  0.
         25    1    3    3    0    0  0.56590831948E+02 -0.97871755914E+02 -0.23603074739E+03  0.29006796562E+03  0.12509000000E+03 0.  0.
         25    1    4    4    0    0 -0.59498859643E+02  0.68834912479E+02 -0.15584291197E+03  0.21957431723E+03  0.12509000000E+03 0.  0.
         25    1    4    4    0    0  0.29080276942E+01  0.29036843435E+02 -0.19093027260E+03  0.23011621411E+03  0.12509000000E+03 0.  0.
<mgrwt>
<rscale>  2 0.45561191E+03</rscale>
<asrwt>0</asrwt>
<pdfrwt beam="1">  1       21 0.11540777E-01 0.45561191E+03</pdfrwt>
<pdfrwt beam="2">  1       21 0.97247234E-01 0.45561191E+03</pdfrwt>
<totfact> 0.50553295E+04</totfact>
</mgrwt>
</event>
<event>
 7    0  0.4714446E-002  0.4476391E+03  0.7546771E-02  0.1028428E+00
         21   -1    0    0  502  501  0.00000000000E+00  0.00000000000E+00  0.85750199323E+02  0.85750199323E+02  0.00000000000E+00 0. -1.
         21   -1    0    0  501  502 -0.00000000000E+00 -0.00000000000E+00 -0.58419910708E+03  0.58419910708E+03  0.00000000000E+00 0. -1.
      99926    2    1    2    0    0 -0.71054273576E-14  0.00000000000E+00 -0.49844890776E+03  0.66994930641E+03  0.44763909515E+03 0.  0.
      99925    2    3    3    0    0  0.46166283584E+02  0.61541170327E+02 -0.42538666168E+03  0.50592418245E+03  0.26284372747E+03 0.  0.
         25    1    4    4    0    0  0.35399603443E+02  0.49397417905E+02 -0.28546514484E+03  0.31753912174E+03  0.12509000000E+03 0.  0.
         25    1    4    4    0    0  0.10766680141E+02  0.12143752423E+02 -0.13992151684E+03  0.18838506071E+03  0.12509000000E+03 0.  0.
         25    1    3    3    0    0 -0.46166283584E+02 -0.61541170327E+02 -0.73062246082E+02  0.16402512395E+03  0.12509000000E+03 0.  0.
<mgrwt>
<rscale>  2 0.44763910E+03</rscale>
<asrwt>0</asrwt>
<pdfrwt beam="1">  1       21 0.12610324E-01 0.44763910E+03</pdfrwt>
<pdfrwt beam="2">  1       21 0.85911632E-01 0.44763910E+03</pdfrwt>
<totfact> 0.57847681E+04</totfact>
</mgrwt>
</event>
<event>
 7    0  0.4714446E-002  0.4637301E+03  0.7546771E-02  0.1023705E+00
         21   -1    0    0  502  501  0.00000000000E+00  0.00000000000E+00  0.25682516151E+03  0.25682516151E+03  0.00000000000E+00 0. -1.
         21   -1    0    0  501  502 -0.00000000000E+00 -0.00000000000E+00 -0.20933073361E+03  0.20933073361E+03  0.00000000000E+00 0. -1.
      99926    2    1    2    0    0 -0.71054273576E-14 -0.35527136788E-14  0.47494427904E+02  0.46615589512E+03  0.46373009162E+03 0.  0.
      99925    2    3    3    0    0  0.33008153276E+02  0.29186855788E+02 -0.83963118922E+02  0.27942077402E+03  0.26283978558E+03 0.  0.
         25    1    4    4    0    0  0.13230837081E+01  0.17855184956E+01 -0.40281000136E+01  0.12517456737E+03  0.12509000000E+03 0.  0.
         25    1    3    3    0    0 -0.33008153276E+02 -0.29186855788E+02  0.13145754683E+03  0.18673512110E+03  0.12509000000E+03 0.  0.
         25    1    4    4    0    0  0.31685069568E+02  0.27401337293E+02 -0.79935018909E+02  0.15424620665E+03  0.12509000000E+03 0.  0.
<mgrwt>
<rscale>  2 0.46373009E+03</rscale>
<asrwt>0</asrwt>
<pdfrwt beam="1">  1       21 0.37768406E-01 0.46373009E+03</pdfrwt>
<pdfrwt beam="2">  1       21 0.30783931E-01 0.46373009E+03</pdfrwt>
<totfact> 0.63216751E+04</totfact>
</mgrwt>
</event>
<event>
 7    0  0.4714446E-002  0.4568341E+03  0.7546771E-02  0.1025703E+00
         21   -1    0    0  502  501  0.00000000000E+00  0.00000000000E+00  0.31567482295E+03  0.31567482295E+03  0.00000000000E+00 0. -1.
         21   -1    0    0  501  502 -0.00000000000E+00 -0.00000000000E+00 -0.16527880920E+03  0.16527880920E+03  0.00000000000E+00 0. -1.
      99926    2    1    2    0    0  0.14210854715E-13  0.00000000000E+00  0.15039601375E+03  0.48095363216E+03  0.45683414423E+03 0.  0.
      99925    2    3    3    0    0 -0.10809439761E+03 -0.30053083364E+02  0.69061468198E+02  0.29427100572E+03  0.26313181450E+03 0.  0.
         25    1    4    4    0    0 -0.25928033658E+02 -0.42235373346E+02  0.46887767484E+02  0.14248529935E+03  0.12509000000E+03 0.  0.
         25    1    3    3    0    0  0.10809439761E+03  0.30053083364E+02  0.81334545551E+02  0.18668262644E+03  0.12509000000E+03 0.  0.
         25    1    4    4    0    0 -0.82166363950E+02  0.12182289982E+02  0.22173700714E+02  0.15178570637E+03  0.12509000000E+03 0.  0.
<mgrwt>
<rscale>  2 0.45683414E+03</rscale>
<asrwt>0</asrwt>
<pdfrwt beam="1">  1       21 0.46422768E-01 0.45683414E+03</pdfrwt>
<pdfrwt beam="2">  1       21 0.24305707E-01 0.45683414E+03</pdfrwt>
<totfact> 0.65669485E+04</totfact>
</mgrwt>
</event>
<event>
 7    0  0.4714446E-002  0.4536401E+03  0.7546771E-02  0.1026642E+00
         21   -1    0    0  502  501  0.00000000000E+00  0.00000000000E+00  0.54980729380E+03  0.54980729380E+03  0.00000000000E+00 0. -1.
         21   -1    0    0  501  502 -0.00000000000E+00 -0.00000000000E+00 -0.93573381819E+02  0.93573381819E+02  0.00000000000E+00 0. -1.
      99926    2    1    2    0    0 -0.14210854715E-13  0.00000000000E+00  0.45623391198E+03  0.64338067562E+03  0.45364006802E+03 0.  0.
      99925    2    3    3    0    0  0.94564311041E+02 -0.15510340262E+02  0.20552247996E+03  0.34726125744E+03  0.26299793074E+03 0.  0.
         25    1    3    3    0    0 -0.94564311041E+02  0.15510340262E+02  0.25071143202E+03  0.29611941818E+03  0.12509000000E+03 0.  0.
         25    1    4    4    0    0  0.81847991941E+02 -0.26909357116E+02  0.13153601255E+03  0.20092893764E+03  0.12509000000E+03 0.  0.
         25    1    4    4    0    0  0.12716319101E+02  0.11399016854E+02  0.73986467413E+02  0.14633231980E+03  0.12509000000E+03 0.  0.
<mgrwt>
<rscale>  2 0.45364007E+03</rscale>
<asrwt>0</asrwt>
<pdfrwt beam="1">  1       21 0.80854013E-01 0.45364007E+03</pdfrwt>
<pdfrwt beam="2">  1       21 0.13760792E-01 0.45364007E+03</pdfrwt>
<totfact> 0.56690326E+04</totfact>
</mgrwt>
</event>
<event>
 7    0  0.4714446E-002  0.4530725E+03  0.7546771E-02  0.1026810E+00
         21   -1    0    0  502  501  0.00000000000E+00  0.00000000000E+00  0.54013024134E+02  0.54013024134E+02  0.00000000000E+00 0.  1.
         21   -1    0    0  501  502 -0.00000000000E+00 -0.00000000000E+00 -0.95011672807E+03  0.95011672807E+03  0.00000000000E+00 0.  1.
      99926    2    1    2    0    0  0.00000000000E+00  0.83266726847E-16 -0.89610370394E+03  0.10041297522E+04  0.45307252295E+03 0.  0.
      99925    2    3    3    0    0  0.99893036117E+02  0.65719200441E-01 -0.67412599416E+03  0.73045067971E+03  0.26293291255E+03 0.  0.
         25    1    4    4    0    0  0.78867692721E+02  0.18714088309E+02 -0.30045035307E+03  0.33539268450E+03  0.12509000000E+03 0.  0.
         25    1    3    3    0    0 -0.99893036117E+02 -0.65719200441E-01 -0.22197770977E+03  0.27367907249E+03  0.12509000000E+03 0.  0.
         25    1    4    4    0    0  0.21025343396E+02 -0.18648369108E+02 -0.37367564109E+03  0.39505799521E+03  0.12509000000E+03 0.  0.
<mgrwt>
<rscale>  2 0.45307252E+03</rscale>
<asrwt>0</asrwt>
<pdfrwt beam="1">  1       21 0.79430930E-02 0.45307252E+03</pdfrwt>
<pdfrwt beam="2">  1       21 0.13972303E+00 0.45307252E+03</pdfrwt>
<totfact> 0.39599265E+04</totfact>
</mgrwt>
</event>
<event>
 7    0  0.4714446E-002  0.4489731E+03  0.7546771E-02  0.1028029E+00
         21   -1    0    0  502  501  0.00000000000E+00  0.00000000000E+00  0.40944525103E+02  0.40944525103E+02  0.00000000000E+00 0.  1.
         21   -1    0    0  501  502 -0.00000000000E+00 -0.00000000000E+00 -0.12307924578E+04  0.12307924578E+04  0.00000000000E+00 0.  1.
      99926    2    1    2    0    0  0.88817841970E-15  0.00000000000E+00 -0.11898479327E+04  0.12717369829E+04  0.44897310692E+03 0.  0.
      99925    2    3    3    0    0 -0.23580473591E+01 -0.88001291561E+02 -0.57756143334E+03  0.64063314588E+03  0.26283803115E+03 0.  0.
         25    1    4    4    0    0 -0.28058232673E+02 -0.15274516760E+02 -0.24149718124E+03  0.27384114360E+03  0.12509000000E+03 0.  0.
         25    1    4    4    0    0  0.25700185314E+02 -0.72726774800E+02 -0.33606425210E+03  0.36679200228E+03  0.12509000000E+03 0.  0.
         25    1    3    3    0    0  0.23580473591E+01  0.88001291561E+02 -0.61228649932E+03  0.63110383698E+03  0.12509000000E+03 0.  0.
<mgrwt>
<rscale>  2 0.44897311E+03</rscale>
<asrwt>0</asrwt>
<pdfrwt beam="1">  1       21 0.60212544E-02 0.44897311E+03</pdfrwt>
<pdfrwt beam="2">  1       21 0.18099887E+00 0.44897311E+03</pdfrwt>
<totfact> 0.31393103E+04</totfact>
</mgrwt>
</event>
<event>
 7    0  0.4714446E-002  0.4531076E+03  0.7546771E-02  0.1026799E+00
         21   -1    0    0  502  501  0.00000000000E+00  0.00000000000E+00  0.13866960412E+03  0.13866960412E+03  0.00000000000E+00 0.  1.
         21   -1    0    0  501  502 -0.00000000000E+00 -0.00000000000E+00 -0.37013613657E+03  0.37013613657E+03  0.00000000000E+00 0.  1.
      99926    2    1    2    0    0  0.00000000000E+00  0.00000000000E+00 -0.23146653245E+03  0.50880574069E+03  0.45310763193E+03 0.  0.
      99925    2    3    3    0    0 -0.59571819633E+02  0.49663092907E+02 -0.56197648695E+02  0.27993478533E+03  0.26304008027E+03 0.  0.
         25    1    4    4    0    0 -0.41300789480E+02  0.33386914088E+02 -0.67941375612E+02  0.15193413002E+03  0.12509000000E+03 0.  0.
         25    1    4    4    0    0 -0.18271030153E+02  0.16276178818E+02  0.11743726917E+02  0.12800065532E+03  0.12509000000E+03 0.  0.
         25    1    3    3    0    0  0.59571819633E+02 -0.49663092907E+02 -0.17526888376E+03  0.22887095535E+03  0.12509000000E+03 0.  0.
<mgrwt>
<rscale>  2 0.45310763E+03</rscale>
<asrwt>0</asrwt>
<pdfrwt beam="1">  1       21 0.20392590E-01 0.45310763E+03</pdfrwt>
<pdfrwt beam="2">  1       21 0.54431783E-01 0.45310763E+03</pdfrwt>
<totfact> 0.65636586E+04</totfact>
</mgrwt>
</event>
<event>
 7    0  0.4714446E-002  0.4552804E+03  0.7546771E-02  0.1026159E+00
         21   -1    0    0  502  501  0.00000000000E+00  0.00000000000E+00  0.59726506936E+03  0.59726506936E+03  0.00000000000E+00 0.  1.
         21   -1    0    0  501  502 -0.00000000000E+00 -0.00000000000E+00 -0.86762258963E+02  0.86762258963E+02  0.00000000000E+00 0.  1.
      99926    2    1    2    0    0  0.35527136788E-14  0.00000000000E+00  0.51050281040E+03  0.68402732832E+03  0.45528042619E+03 0.  0.
      99925    2    3    3    0    0 -0.23822008792E+02  0.74587919930E+02  0.19781578410E+03  0.33826508282E+03  0.26298542909E+03 0.  0.
         25    1    4    4    0    0 -0.32806218570E+02  0.49258290020E+02  0.14323680442E+03  0.19916555263E+03  0.12509000000E+03 0.  0.
         25    1    3    3    0    0  0.23822008792E+02 -0.74587919930E+02  0.31268702629E+03  0.34576224550E+03  0.12509000000E+03 0.  0.
         25    1    4    4    0    0  0.89842097778E+01  0.25329629910E+02  0.54578979681E+02  0.13909953019E+03  0.12509000000E+03 0.  0.
<mgrwt>
<rscale>  2 0.45528043E+03</rscale>
<asrwt>0</asrwt>
<pdfrwt beam="1">  1       21 0.87833096E-01 0.45528043E+03</pdfrwt>
<pdfrwt beam="2">  1       21 0.12759156E-01 0.45528043E+03</pdfrwt>
<totfact> 0.53660469E+04</totfact>
</mgrwt>
</event>
<event>
 7    0  0.4714446E-002  0.4578454E+03  0.7546771E-02  0.1025408E+00
         21   -1    0    0  502  501  0.00000000000E+00  0.00000000000E+00  0.28774185529E+03  0.28774185529E+03  0.00000000000E+00 0. -1.
         21   -1    0    0  501  502 -0.00000000000E+00 -0.00000000000E+00 -0.18212718455E+03  0.18212718455E+03  0.00000000000E+00 0. -1.
      99926    2    1    2    0    0  0.00000000000E+00  0.71054273576E-14  0.10561467074E+03  0.46986903984E+03  0.45784544983E+03 0.  0.
      99925    2    3    3    0    0 -0.42165062292E+02 -0.61983266147E+02  0.15691737049E+03  0.31527507857E+03  0.26297432621E+03 0.  0.
         25    1    3    3    0    0  0.42165062292E+02  0.61983266147E+02 -0.51302699749E+02  0.15459396127E+03  0.12509000000E+03 0.  0.
         25    1    4    4    0    0 -0.51739429118E+02 -0.59654881750E+02  0.87705735724E+02  0.17197522386E+03  0.12509000000E+03 0.  0.
         25    1    4    4    0    0  0.95743668260E+01 -0.23283843972E+01  0.69211634764E+02  0.14329985471E+03  0.12509000000E+03 0.  0.
<mgrwt>
<rscale>  2 0.45784545E+03</rscale>
<asrwt>0</asrwt>
<pdfrwt beam="1">  1       21 0.42314979E-01 0.45784545E+03</pdfrwt>
<pdfrwt beam="2">  1       21 0.26783409E-01 0.45784545E+03</pdfrwt>
<totfact> 0.65944592E+04</totfact>
</mgrwt>
</event>
<event>
 7    0  0.4714446E-002  0.4385957E+03  0.7546771E-02  0.1031179E+00
         21   -1    0    0  502  501  0.00000000000E+00  0.00000000000E+00  0.85595975172E+02  0.85595975172E+02  0.00000000000E+00 0.  1.
         21   -1    0    0  501  502 -0.00000000000E+00 -0.00000000000E+00 -0.56184351449E+03  0.56184351449E+03  0.00000000000E+00 0.  1.
      99926    2    1    2    0    0  0.35527136788E-14  0.14210854715E-13 -0.47624753932E+03  0.64743948966E+03  0.43859568405E+03 0.  0.
      99925    2    3    3    0    0 -0.28898522072E+02 -0.70396225825E+02 -0.39287918811E+03  0.47895048922E+03  0.26315159410E+03 0.  0.
         25    1    4    4    0    0  0.16875079736E+01 -0.64234411989E+02 -0.24732524205E+03  0.28451044062E+03  0.12509000000E+03 0.  0.
         25    1    3    3    0    0  0.28898522072E+02  0.70396225825E+02 -0.83368351203E+02  0.16848900044E+03  0.12509000000E+03 0.  0.
         25    1    4    4    0    0 -0.30586030046E+02 -0.61618138361E+01 -0.14555394607E+03  0.19444004860E+03  0.12509000000E+03 0.  0.
<mgrwt>
<rscale>  2 0.43859568E+03</rscale>
<asrwt>0</asrwt>
<pdfrwt beam="1">  1       21 0.12587643E-01 0.43859568E+03</pdfrwt>
<pdfrwt beam="2">  1       21 0.82624048E-01 0.43859568E+03</pdfrwt>
<totfact> 0.63698932E+04</totfact>
</mgrwt>
</event>
<event>
 7    0  0.4714446E-002  0.4604802E+03  0.7546771E-02  0.1024642E+00
         21   -1    0    0  502  501  0.00000000000E+00  0.00000000000E+00  0.43267441491E+03  0.43267441491E+03  0.00000000000E+00 0. -1.
         21   -1    0    0  501  502 -0.00000000000E+00 -0.00000000000E+00 -0.12251822874E+03  0.12251822874E+03  0.00000000000E+00 0. -1.
      99926    2    1    2    0    0  0.00000000000E+00  0.00000000000E+00  0.31015618617E+03  0.55519264365E+03  0.46048019691E+03 0.  0.
      99925    2    3    3    0    0  0.32704304496E+02 -0.68420826638E+02  0.30351636621E+03  0.40875980457E+03  0.26308061926E+03 0.  0.
         25    1    3    3    0    0 -0.32704304496E+02  0.68420826638E+02  0.66398199646E+01  0.14643283907E+03  0.12509000000E+03 0.  0.
         25    1    4    4    0    0  0.36940236234E+02 -0.71105153467E+02  0.16855774313E+03  0.22467697873E+03  0.12509000000E+03 0.  0.
         25    1    4    4    0    0 -0.42359317381E+01  0.26843268296E+01  0.13495862308E+03  0.18408282585E+03  0.12509000000E+03 0.  0.
<mgrwt>
<rscale>  2 0.46048020E+03</rscale>
<asrwt>0</asrwt>
<pdfrwt beam="1">  1       21 0.63628590E-01 0.46048020E+03</pdfrwt>
<pdfrwt beam="2">  1       21 0.18017387E-01 0.46048020E+03</pdfrwt>
<totfact> 0.58928073E+04</totfact>
</mgrwt>
</event>
<event>
 7    0  0.4714446E-002  0.4443660E+03  0.7546771E-02  0.1029416E+00
         21   -1    0    0  502  501  0.00000000000E+00  0.00000000000E+00  0.86356429402E+03  0.86356429402E+03  0.00000000000E+00 0.  1.
         21   -1    0    0  501  502 -0.00000000000E+00 -0.00000000000E+00 -0.57164567128E+02  0.57164567128E+02  0.00000000000E+00 0.  1.
      99926    2    1    2    0    0  0.00000000000E+00 -0.71054273576E-14  0.80639972690E+03  0.92072886115E+03  0.44436597104E+03 0.  0.
      99925    2    3    3    0    0  0.58145791037E+02  0.36161698344E+02  0.35347626702E+03  0.44588597129E+03  0.26302134249E+03 0.  0.
         25    1    4    4    0    0  0.97156917492E-01  0.14912627940E+02  0.21572527731E+03  0.24981452977E+03  0.12509000000E+03 0.  0.
         25    1    4    4    0    0  0.58048634120E+02  0.21249070404E+02  0.13775098971E+03  0.19607144152E+03  0.12509000000E+03 0.  0.
         25    1    3    3    0    0 -0.58145791037E+02 -0.36161698344E+02  0.45292345988E+03  0.47484288986E+03  0.12509000000E+03 0.  0.
<mgrwt>
<rscale>  2 0.44436597E+03</rscale>
<asrwt>0</asrwt>
<pdfrwt beam="1">  1       21 0.12699474E+00 0.44436597E+03</pdfrwt>
<pdfrwt beam="2">  1       21 0.84065545E-02 0.44436597E+03</pdfrwt>
<totfact> 0.46063352E+04</totfact>
</mgrwt>
</event>
<event>
 7    0  0.4714446E-002  0.4350733E+03  0.7546771E-02  0.1032269E+00
         21   -1    0    0  502  501  0.00000000000E+00  0.00000000000E+00  0.11392722606E+03  0.11392722606E+03  0.00000000000E+00 0. -1.
         21   -1    0    0  501  502 -0.00000000000E+00 -0.00000000000E+00 -0.41537205904E+03  0.41537205904E+03  0.00000000000E+00 0. -1.
      99926    2    1    2    0    0  0.17763568394E-14  0.35527136788E-14 -0.30144483298E+03  0.52929928510E+03  0.43507326495E+03 0.  0.
      99925    2    3    3    0    0 -0.15923820866E+02  0.21948949300E+02 -0.30189918466E+03  0.40130303913E+03  0.26299370158E+03 0.  0.
         25    1    4    4    0    0  0.11886575029E+02  0.36880868686E+02 -0.11549428241E+03  0.17460792224E+03  0.12509000000E+03 0.  0.
         25    1    4    4    0    0 -0.27810395895E+02 -0.14931919386E+02 -0.18640490225E+03  0.22669511689E+03  0.12509000000E+03 0.  0.
         25    1    3    3    0    0  0.15923820866E+02 -0.21948949300E+02  0.45435168079E+00  0.12799624597E+03  0.12509000000E+03 0.  0.
<mgrwt>
<rscale>  2 0.43507326E+03</rscale>
<asrwt>0</asrwt>
<pdfrwt beam="1">  1       21 0.16754004E-01 0.43507326E+03</pdfrwt>
<pdfrwt beam="2">  1       21 0.61084127E-01 0.43507326E+03</pdfrwt>
<totfact> 0.74300105E+04</totfact>
</mgrwt>
</event>
<event>
 7    0  0.4714446E-002  0.4508588E+03  0.7546771E-02  0.1027466E+00
         21   -1    0    0  502  501  0.00000000000E+00  0.00000000000E+00  0.18094294138E+03  0.18094294138E+03  0.00000000000E+00 0. -1.
         21   -1    0    0  501  502 -0.00000000000E+00 -0.00000000000E+00 -0.28085327876E+03  0.28085327876E+03  0.00000000000E+00 0. -1.
      99926    2    1    2    0    0  0.00000000000E+00 -0.17763568394E-14 -0.99910337385E+02  0.46179622014E+03  0.45085881762E+03 0.  0.
      99925    2    3    3    0    0  0.39239537591E+02  0.11322510916E+02 -0.16684107248E+03  0.31416434024E+03  0.26305008772E+03 0.  0.
         25    1    3    3    0    0 -0.39239537591E+02 -0.11322510916E+02  0.66930735094E+02  0.14763187990E+03  0.12509000000E+03 0.  0.
         25    1    4    4    0    0 -0.17197510656E+02  0.53066251846E+01 -0.58723701740E+02  0.13935528655E+03  0.12509000000E+03 0.  0.
         25    1    4    4    0    0  0.56437048247E+02  0.60158857319E+01 -0.10811737074E+03  0.17480905369E+03  0.12509000000E+03 0.  0.
<mgrwt>
<rscale>  2 0.45085882E+03</rscale>
<asrwt>0</asrwt>
<pdfrwt beam="1">  1       21 0.26609256E-01 0.45085882E+03</pdfrwt>
<pdfrwt beam="2">  1       21 0.41301952E-01 0.45085882E+03</pdfrwt>
<totfact> 0.70333273E+04</totfact>
</mgrwt>
</event>
<event>
 7    0  0.4714446E-002  0.4630214E+03  0.7546771E-02  0.1023909E+00
         21   -1    0    0  502  501  0.00000000000E+00  0.00000000000E+00  0.12895137858E+04  0.12895137858E+04  0.00000000000E+00 0. -1.
         21   -1    0    0  501  502 -0.00000000000E+00 -0.00000000000E+00 -0.41563887440E+02  0.41563887440E+02  0.00000000000E+00 0. -1.
      99926    2    1    2    0    0  0.00000000000E+00  0.00000000000E+00  0.12479498983E+04  0.13310776732E+04  0.46302140704E+03 0.  0.
      99925    2    3    3    0    0  0.58378023322E+02  0.37857535637E+02  0.49662028215E+03  0.56623462600E+03  0.26296151891E+03 0.  0.
         25    1    3    3    0    0 -0.58378023322E+02 -0.37857535637E+02  0.75132961618E+03  0.76484304720E+03  0.12509000000E+03 0.  0.
         25    1    4    4    0    0  0.10428791321E+02 -0.72582145393E+00  0.17190011101E+03  0.21285310139E+03  0.12509000000E+03 0.  0.
         25    1    4    4    0    0  0.47949232001E+02  0.38583357091E+02  0.32472017114E+03  0.35338152461E+03  0.12509000000E+03 0.  0.
<mgrwt>
<rscale>  2 0.46302141E+03</rscale>
<asrwt>0</asrwt>
<pdfrwt beam="1">  1       21 0.18963435E+00 0.46302141E+03</pdfrwt>
<pdfrwt beam="2">  1       21 0.61123372E-02 0.46302141E+03</pdfrwt>
<totfact> 0.26531601E+04</totfact>
</mgrwt>
</event>
<event>
 7    0  0.4714446E-002  0.4562165E+03  0.7546771E-02  0.1025884E+00
         21   -1    0    0  502  501  0.00000000000E+00  0.00000000000E+00  0.46001295204E+03  0.46001295204E+03  0.00000000000E+00 0. -1.
         21   -1    0    0  501  502 -0.00000000000E+00 -0.00000000000E+00 -0.11311286364E+03  0.11311286364E+03  0.00000000000E+00 0. -1.
      99926    2    1    2    0    0  0.00000000000E+00  0.00000000000E+00  0.34690008841E+03  0.57312581568E+03  0.45621653769E+03 0.  0.
      99925    2    3    3    0    0 -0.75789368679E+02  0.52358581484E+02  0.13277358983E+03  0.30858259624E+03  0.26288579856E+03 0.  0.
         25    1    3    3    0    0  0.75789368679E+02 -0.52358581484E+02  0.21412649858E+03  0.26454321944E+03  0.12509000000E+03 0.  0.
         25    1    4    4    0    0 -0.18982674061E+02 -0.11513459757E+02  0.61609588357E+02  0.14119543600E+03  0.12509000000E+03 0.  0.
         25    1    4    4    0    0 -0.56806694618E+02  0.63872041241E+02  0.71164001472E+02  0.16738716023E+03  0.12509000000E+03 0.  0.
<mgrwt>
<rscale>  2 0.45621654E+03</rscale>
<asrwt>0</asrwt>
<pdfrwt beam="1">  1       21 0.67648963E-01 0.45621654E+03</pdfrwt>
<pdfrwt beam="2">  1       21 0.16634245E-01 0.45621654E+03</pdfrwt>
<totfact> 0.59786518E+04</totfact>
</mgrwt>
</event>
<event>
 7    0  0.4714446E-002  0.4579683E+03  0.7546771E-02  0.1025372E+00
         21   -1    0    0  502  501  0.00000000000E+00  0.00000000000E+00  0.85527850768E+03  0.85527850768E+03  0.00000000000E+00 0.  1.
         21   -1    0    0  501  502 -0.00000000000E+00 -0.00000000000E+00 -0.61306047401E+02  0.61306047401E+02  0.00000000000E+00 0.  1.
      99926    2    1    2    0    0  0.14210854715E-13  0.00000000000E+00  0.79397246028E+03  0.91658455508E+03  0.45796831652E+03 0.  0.
      99925    2    3    3    0    0  0.11091867801E+03  0.27242171421E+02  0.53888785084E+03  0.61038077472E+03  0.26290584879E+03 0.  0.
         25    1    3    3    0    0 -0.11091867801E+03 -0.27242171421E+02  0.25508460944E+03  0.30620378036E+03  0.12509000000E+03 0.  0.
         25    1    4    4    0    0  0.35738315828E+02 -0.23216542166E+02  0.24166196259E+03  0.27543465162E+03  0.12509000000E+03 0.  0.
         25    1    4    4    0    0  0.75180362185E+02  0.50458713587E+02  0.29722588825E+03  0.33494612310E+03  0.12509000000E+03 0.  0.
<mgrwt>
<rscale>  2 0.45796832E+03</rscale>
<asrwt>0</asrwt>
<pdfrwt beam="1">  1       21 0.12577624E+00 0.45796832E+03</pdfrwt>
<pdfrwt beam="2">  1       21 0.90155957E-02 0.45796832E+03</pdfrwt>
<totfact> 0.41550632E+04</totfact>
</mgrwt>
</event>
<event>
 7    0  0.4714446E-002  0.4596792E+03  0.7546771E-02  0.1024874E+00
         21   -1    0    0  502  501  0.00000000000E+00  0.00000000000E+00  0.34366991609E+02  0.34366991609E+02  0.00000000000E+00 0. -1.
         21   -1    0    0  501  502 -0.00000000000E+00 -0.00000000000E+00 -0.15371212295E+04  0.15371212295E+04  0.00000000000E+00 0. -1.
      99926    2    1    2    0    0 -0.14210854715E-13  0.88817841970E-15 -0.15027542379E+04  0.15714882212E+04  0.45967915941E+03 0.  0.
      99925    2    3    3    0    0  0.10625320005E+03 -0.68178931054E+01 -0.77295884039E+03  0.82343404092E+03  0.26313879346E+03 0.  0.
         25    1    3    3    0    0 -0.10625320005E+03  0.68178931054E+01 -0.72979539755E+03  0.74805418023E+03  0.12509000000E+03 0.  0.
         25    1    4    4    0    0  0.61363966819E+02  0.43012156997E+01 -0.50835856859E+03  0.52712425408E+03  0.12509000000E+03 0.  0.
         25    1    4    4    0    0  0.44889233228E+02 -0.11119108805E+02 -0.26460027180E+03  0.29630978684E+03  0.12509000000E+03 0.  0.
<mgrwt>
<rscale>  2 0.45967916E+03</rscale>
<asrwt>0</asrwt>
<pdfrwt beam="1">  1       21 0.50539693E-02 0.45967916E+03</pdfrwt>
<pdfrwt beam="2">  1       21 0.22604724E+00 0.45967916E+03</pdfrwt>
<totfact> 0.21295773E+04</totfact>
</mgrwt>
</event>
<event>
 7    0  0.4714446E-002  0.4554930E+03  0.7546771E-02  0.1026097E+00
         21   -1    0    0  502  501  0.00000000000E+00  0.00000000000E+00  0.23932649980E+03  0.23932649980E+03  0.00000000000E+00 0. -1.
         21   -1    0    0  501  502 -0.00000000000E+00 -0.00000000000E+00 -0.21672682883E+03  0.21672682883E+03  0.00000000000E+00 0. -1.
      99926    2    1    2    0    0 -0.71054273576E-14  0.14210854715E-13  0.22599670968E+02  0.45605332863E+03  0.45549302237E+03 0.  0.
      99925    2    3    3    0    0 -0.55409138546E+02  0.84732041388E+02  0.65943356416E+02  0.28939237147E+03  0.26296335665E+03 0.  0.
         25    1    3    3    0    0  0.55409138546E+02 -0.84732041388E+02 -0.43343685448E+02  0.16666095716E+03  0.12509000000E+03 0.  0.
         25    1    4    4    0    0  0.57045627195E+01  0.33569232691E+02  0.71428343618E+01  0.12983822088E+03  0.12509000000E+03 0.  0.
         25    1    4    4    0    0 -0.61113701266E+02  0.51162808697E+02  0.58800522054E+02  0.15955415059E+03  0.12509000000E+03 0.  0.
<mgrwt>
<rscale>  2 0.45549302E+03</rscale>
<asrwt>0</asrwt>
<pdfrwt beam="1">  1       21 0.35195073E-01 0.45549302E+03</pdfrwt>
<pdfrwt beam="2">  1       21 0.31871593E-01 0.45549302E+03</pdfrwt>
<totfact> 0.68200045E+04</totfact>
</mgrwt>
</event>
<event>
 7    0  0.4714446E-002  0.4547366E+03  0.7546771E-02  0.1026319E+00
         21   -1    0    0  502  501  0.00000000000E+00  0.00000000000E+00  0.12944740935E+04  0.12944740935E+04  0.00000000000E+00 0.  1.
         21   -1    0    0  501  502 -0.00000000000E+00 -0.00000000000E+00 -0.39936181840E+02  0.39936181840E+02  0.00000000000E+00 0.  1.
      99926    2    1    2    0    0 -0.71054273576E-14  0.00000000000E+00  0.12545379117E+04  0.13344102753E+04  0.45473663932E+03 0.  0.
      99925    2    3    3    0    0  0.31752031433E+02 -0.12279209820E+02  0.47565709996E+03  0.54481430434E+03  0.26346532783E+03 0.  0.
         25    1    3    3    0    0 -0.31752031433E+02  0.12279209820E+02  0.77888081170E+03  0.78959597101E+03  0.12509000000E+03 0.  0.
         25    1    4    4    0    0 -0.64068470166E+01  0.13119430952E+02  0.17163314954E+03  0.21288168846E+03  0.12509000000E+03 0.  0.
         25    1    4    4    0    0  0.38158878449E+02 -0.25398640772E+02  0.30402395042E+03  0.33193261588E+03  0.12509000000E+03 0.  0.
<mgrwt>
<rscale>  2 0.45473664E+03</rscale>
<asrwt>0</asrwt>
<pdfrwt beam="1">  1       21 0.19036381E+00 0.45473664E+03</pdfrwt>
<pdfrwt beam="2">  1       21 0.58729688E-02 0.45473664E+03</pdfrwt>
<totfact> 0.28189232E+04</totfact>
</mgrwt>
</event>
<event>
 7    0  0.4714446E-002  0.4513248E+03  0.7546771E-02  0.1027328E+00
         21   -1    0    0  502  501  0.00000000000E+00  0.00000000000E+00  0.48667475878E+03  0.48667475878E+03  0.00000000000E+00 0.  1.
         21   -1    0    0  501  502 -0.00000000000E+00 -0.00000000000E+00 -0.10463563441E+03  0.10463563441E+03  0.00000000000E+00 0.  1.
      99926    2    1    2    0    0 -0.71054273576E-14  0.00000000000E+00  0.38203912436E+03  0.59131039319E+03  0.45132481491E+03 0.  0.
      99925    2    3    3    0    0 -0.37023571972E+02 -0.96460697874E+02  0.28936504948E+03  0.40446445834E+03  0.26302843018E+03 0.  0.
         25    1    4    4    0    0  0.59864633461E+01 -0.78148455516E+02  0.13149787761E+03  0.19769223242E+03  0.12509000000E+03 0.  0.
         25    1    4    4    0    0 -0.43010035318E+02 -0.18312242358E+02  0.15786717186E+03  0.20677222592E+03  0.12509000000E+03 0.  0.
         25    1    3    3    0    0  0.37023571972E+02  0.96460697874E+02  0.92674074889E+02  0.18684593486E+03  0.12509000000E+03 0.  0.
<mgrwt>
<rscale>  2 0.45132481E+03</rscale>
<asrwt>0</asrwt>
<pdfrwt beam="1">  1       21 0.71569817E-01 0.45132481E+03</pdfrwt>
<pdfrwt beam="2">  1       21 0.15387593E-01 0.45132481E+03</pdfrwt>
<totfact> 0.60967982E+04</totfact>
</mgrwt>
</event>
<event>
 7    0  0.4714446E-002  0.4583838E+03  0.7546771E-02  0.1025251E+00
         21   -1    0    0  502  501  0.00000000000E+00  0.00000000000E+00  0.36411461206E+02  0.36411461206E+02  0.00000000000E+00 0. -1.
         21   -1    0    0  501  502 -0.00000000000E+00 -0.00000000000E+00 -0.14426484272E+04  0.14426484272E+04  0.00000000000E+00 0. -1.
      99926    2    1    2    0    0  0.00000000000E+00  0.00000000000E+00 -0.14062369660E+04  0.14790598884E+04  0.45838384457E+03 0.  0.
      99925    2    3    3    0    0 -0.10467257740E+03 -0.32907133735E+02 -0.10059438579E+04  0.10455609744E+04  0.26312635395E+03 0.  0.
         25    1    3    3    0    0  0.10467257740E+03  0.32907133735E+02 -0.40029310809E+03  0.43349891395E+03  0.12509000000E+03 0.  0.
         25    1    4    4    0    0 -0.26910194698E+02 -0.39495954254E+02 -0.56372841695E+03  0.57941464009E+03  0.12509000000E+03 0.  0.
         25    1    4    4    0    0 -0.77762382702E+02  0.65888205192E+01 -0.44221544094E+03  0.46614633434E+03  0.12509000000E+03 0.  0.
<mgrwt>
<rscale>  2 0.45838384E+03</rscale>
<asrwt>0</asrwt>
<pdfrwt beam="1">  1       21 0.53546272E-02 0.45838384E+03</pdfrwt>
<pdfrwt beam="2">  1       21 0.21215416E+00 0.45838384E+03</pdfrwt>
<totfact> 0.23668758E+04</totfact>
</mgrwt>
</event>
<event>
 7    0  0.4714446E-002  0.4593144E+03  0.7546771E-02  0.1024980E+00
         21   -1    0    0  502  501  0.00000000000E+00  0.00000000000E+00  0.31135000082E+03  0.31135000082E+03  0.00000000000E+00 0. -1.
         21   -1    0    0  501  502 -0.00000000000E+00 -0.00000000000E+00 -0.16939919635E+03  0.16939919635E+03  0.00000000000E+00 0. -1.
      99926    2    1    2    0    0 -0.14210854715E-13 -0.14210854715E-13  0.14195080447E+03  0.48074919717E+03  0.45931444533E+03 0.  0.
      99925    2    3    3    0    0  0.69858112289E+02  0.90995778684E+02  0.63875833876E+02  0.29392415408E+03  0.26296558445E+03 0.  0.
         25    1    4    4    0    0  0.30718237243E+02  0.46093822240E+02 -0.95189997354E+01  0.13713631906E+03  0.12509000000E+03 0.  0.
         25    1    3    3    0    0 -0.69858112289E+02 -0.90995778684E+02  0.78074970596E+02  0.18682504309E+03  0.12509000000E+03 0.  0.
         25    1    4    4    0    0  0.39139875046E+02  0.44901956444E+02  0.73394833611E+02  0.15678783503E+03  0.12509000000E+03 0.  0.
<mgrwt>
<rscale>  2 0.45931445E+03</rscale>
<asrwt>0</asrwt>
<pdfrwt beam="1">  1       21 0.45786765E-01 0.45931445E+03</pdfrwt>
<pdfrwt beam="2">  1       21 0.24911646E-01 0.45931445E+03</pdfrwt>
<totfact> 0.64411504E+04</totfact>
</mgrwt>
</event>
<event>
 7    0  0.4714446E-002  0.4580929E+03  0.7546771E-02  0.1025336E+00
         21   -1    0    0  502  501  0.00000000000E+00  0.00000000000E+00  0.89251059166E+03  0.89251059166E+03  0.00000000000E+00 0.  1.
         21   -1    0    0  501  502 -0.00000000000E+00 -0.00000000000E+00 -0.58780560394E+02  0.58780560394E+02  0.00000000000E+00 0.  1.
      99926    2    1    2    0    0  0.88817841970E-15  0.00000000000E+00  0.83373003126E+03  0.95129115205E+03  0.45809288462E+03 0.  0.
      99925    2    3    3    0    0 -0.75462998018E+01  0.10779626000E+03  0.61095626490E+03  0.67388776456E+03  0.26302125635E+03 0.  0.
         25    1    4    4    0    0 -0.32477995396E+00  0.70746877484E+02  0.40740541657E+03  0.43200915234E+03  0.12509000000E+03 0.  0.
         25    1    3    3    0    0  0.75462998018E+01 -0.10779626000E+03  0.22277376637E+03  0.27740338749E+03  0.12509000000E+03 0.  0.
         25    1    4    4    0    0 -0.72215198478E+01  0.37049382516E+02  0.20355084833E+03  0.24187861222E+03  0.12509000000E+03 0.  0.
<mgrwt>
<rscale>  2 0.45809288E+03</rscale>
<asrwt>0</asrwt>
<pdfrwt beam="1">  1       21 0.13125155E+00 0.45809288E+03</pdfrwt>
<pdfrwt beam="2">  1       21 0.86442006E-02 0.45809288E+03</pdfrwt>
<totfact> 0.40109678E+04</totfact>
</mgrwt>
</event>
<event>
 7    0  0.4714446E-002  0.4475075E+03  0.7546771E-02  0.1028468E+00
         21   -1    0    0  502  501  0.00000000000E+00  0.00000000000E+00  0.10682512060E+04  0.10682512060E+04  0.00000000000E+00 0.  1.
         21   -1    0    0  501  502 -0.00000000000E+00 -0.00000000000E+00 -0.46867003765E+02  0.46867003765E+02  0.00000000000E+00 0.  1.
      99926    2    1    2    0    0  0.00000000000E+00  0.00000000000E+00  0.10213842022E+04  0.11151182097E+04  0.44750746716E+03 0.  0.
      99925    2    3    3    0    0  0.79629318528E+02  0.18240905796E+02  0.81543107697E+03  0.86068205486E+03  0.26300608216E+03 0.  0.
         25    1    3    3    0    0 -0.79629318528E+02 -0.18240905796E+02  0.20595312522E+03  0.25443615486E+03  0.12509000000E+03 0.  0.
         25    1    4    4    0    0 -0.39694331847E+00 -0.92502668522E+00  0.34358610152E+03  0.36565001093E+03  0.12509000000E+03 0.  0.
         25    1    4    4    0    0  0.80026261846E+02  0.19165932481E+02  0.47184497546E+03  0.49503204393E+03  0.12509000000E+03 0.  0.
<mgrwt>
<rscale>  2 0.44750747E+03</rscale>
<asrwt>0</asrwt>
<pdfrwt beam="1">  1       21 0.15709575E+00 0.44750747E+03</pdfrwt>
<pdfrwt beam="2">  1       21 0.68922071E-02 0.44750747E+03</pdfrwt>
<totfact> 0.37088175E+04</totfact>
</mgrwt>
</event>
<event>
 7    0  0.4714446E-002  0.4517927E+03  0.7546771E-02  0.1027189E+00
         21   -1    0    0  502  501  0.00000000000E+00  0.00000000000E+00  0.37566972864E+03  0.37566972864E+03  0.00000000000E+00 0.  1.
         21   -1    0    0  501  502 -0.00000000000E+00 -0.00000000000E+00 -0.13583517712E+03  0.13583517712E+03  0.00000000000E+00 0.  1.
      99926    2    1    2    0    0 -0.17763568394E-14  0.00000000000E+00  0.23983455151E+03  0.51150490576E+03  0.45179271410E+03 0.  0.
      99925    2    3    3    0    0 -0.15454491540E+02 -0.10795330063E+03  0.17100599731E+03  0.33184513174E+03  0.26265068802E+03 0.  0.
         25    1    3    3    0    0  0.15454491540E+02  0.10795330063E+03  0.68828554206E+02  0.17965977402E+03  0.12509000000E+03 0.  0.
         25    1    4    4    0    0 -0.92150182990E+01 -0.15059308493E+02  0.96809063641E+02  0.15915779038E+03  0.12509000000E+03 0.  0.
         25    1    4    4    0    0 -0.62394732415E+01 -0.92893992139E+02  0.74196933668E+02  0.17268734136E+03  0.12509000000E+03 0.  0.
<mgrwt>
<rscale>  2 0.45179271E+03</rscale>
<asrwt>0</asrwt>
<pdfrwt beam="1">  1       21 0.55245548E-01 0.45179271E+03</pdfrwt>
<pdfrwt beam="2">  1       21 0.19975761E-01 0.45179271E+03</pdfrwt>
<totfact> 0.66137050E+04</totfact>
</mgrwt>
</event>
<event>
 7    0  0.4714446E-002  0.4402712E+03  0.7546771E-02  0.1030664E+00
         21   -1    0    0  502  501  0.00000000000E+00  0.00000000000E+00  0.12214247104E+04  0.12214247104E+04  0.00000000000E+00 0.  1.
         21   -1    0    0  501  502 -0.00000000000E+00 -0.00000000000E+00 -0.39674720842E+02  0.39674720842E+02  0.00000000000E+00 0.  1.
      99926    2    1    2    0    0  0.00000000000E+00  0.00000000000E+00  0.11817499895E+04  0.12610994312E+04  0.44027120920E+03 0.  0.
      99925    2    3    3    0    0  0.32365869926E+02 -0.25025088396E+02  0.10111744885E+04  0.10456526530E+04  0.26313840459E+03 0.  0.
         25    1    3    3    0    0 -0.32365869926E+02  0.25025088396E+02  0.17057550102E+03  0.21544677819E+03  0.12509000000E+03 0.  0.
         25    1    4    4    0    0  0.85725464237E+01 -0.33097208302E+02  0.37440466740E+03  0.39622629496E+03  0.12509000000E+03 0.  0.
         25    1    4    4    0    0  0.23793323502E+02  0.80721199065E+01  0.63676982111E+03  0.64942635806E+03  0.12509000000E+03 0.  0.
<mgrwt>
<rscale>  2 0.44027121E+03</rscale>
<asrwt>0</asrwt>
<pdfrwt beam="1">  1       21 0.17962126E+00 0.44027121E+03</pdfrwt>
<pdfrwt beam="2">  1       21 0.58345186E-02 0.44027121E+03</pdfrwt>
<totfact> 0.33997945E+04</totfact>
</mgrwt>
</event>
<event>
 7    0  0.4714446E-002  0.4757178E+03  0.7546771E-02  0.1020319E+00
         21   -1    0    0  502  501  0.00000000000E+00  0.00000000000E+00  0.79320040028E+02  0.79320040028E+02  0.00000000000E+00 0.  1.
         21   -1    0    0  501  502 -0.00000000000E+00 -0.00000000000E+00 -0.71327314969E+03  0.71327314969E+03  0.00000000000E+00 0.  1.
      99926    2    1    2    0    0  0.00000000000E+00  0.14210854715E-13 -0.63395310966E+03  0.79259318972E+03  0.47571779359E+03 0.  0.
      99925    2    3    3    0    0 -0.42167725320E+02  0.12190529930E+03 -0.43971524662E+03  0.52798994977E+03  0.26226869787E+03 0.  0.
         25    1    4    4    0    0  0.12871283968E+02  0.73119789596E+02 -0.19168808014E+03  0.24063250352E+03  0.12509000000E+03 0.  0.
         25    1    4    4    0    0 -0.55039009288E+02  0.48785509704E+02 -0.24802716648E+03  0.28735744625E+03  0.12509000000E+03 0.  0.
         25    1    3    3    0    0  0.42167725320E+02 -0.12190529930E+03 -0.19423786304E+03  0.26460323995E+03  0.12509000000E+03 0.  0.
<mgrwt>
<rscale>  2 0.47571779E+03</rscale>
<asrwt>0</asrwt>
<pdfrwt beam="1">  1       21 0.11664712E-01 0.47571779E+03</pdfrwt>
<pdfrwt beam="2">  1       21 0.10489310E+00 0.47571779E+03</pdfrwt>
<totfact> 0.41034980E+04</totfact>
</mgrwt>
</event>
<event>
 7    0  0.4714446E-002  0.4517446E+03  0.7546771E-02  0.1027203E+00
         21   -1    0    0  502  501  0.00000000000E+00  0.00000000000E+00  0.35562960918E+03  0.35562960918E+03  0.00000000000E+00 0.  1.
         21   -1    0    0  501  502 -0.00000000000E+00 -0.00000000000E+00 -0.14345910196E+03  0.14345910196E+03  0.00000000000E+00 0.  1.
      99926    2    1    2    0    0 -0.53290705182E-14  0.14210854715E-13  0.21217050722E+03  0.49908871114E+03  0.45174463744E+03 0.  0.
      99925    2    3    3    0    0  0.21479550224E+01 -0.90080790212E+02  0.64199605061E+02  0.28540188782E+03  0.26308456018E+03 0.  0.
         25    1    4    4    0    0  0.37017910505E+02 -0.29123093970E+02  0.42868747326E+02  0.14036993231E+03  0.12509000000E+03 0.  0.
         25    1    4    4    0    0 -0.34869955483E+02 -0.60957696241E+02  0.21330857735E+02  0.14503195551E+03  0.12509000000E+03 0.  0.
         25    1    3    3    0    0 -0.21479550224E+01  0.90080790212E+02  0.14797090215E+03  0.21368682332E+03  0.12509000000E+03 0.  0.
<mgrwt>
<rscale>  2 0.45174464E+03</rscale>
<asrwt>0</asrwt>
<pdfrwt beam="1">  1       21 0.52298472E-01 0.45174464E+03</pdfrwt>
<pdfrwt beam="2">  1       21 0.21096927E-01 0.45174464E+03</pdfrwt>
<totfact> 0.67050695E+04</totfact>
</mgrwt>
</event>
<event>
 7    0  0.4714446E-002  0.4381693E+03  0.7546771E-02  0.1031310E+00
         21   -1    0    0  502  501  0.00000000000E+00  0.00000000000E+00  0.78315666417E+03  0.78315666417E+03  0.00000000000E+00 0. -1.
         21   -1    0    0  501  502 -0.00000000000E+00 -0.00000000000E+00 -0.61287970103E+02  0.61287970103E+02  0.00000000000E+00 0. -1.
      99926    2    1    2    0    0  0.00000000000E+00 -0.17763568394E-14  0.72186869407E+03  0.84444463428E+03  0.43816929249E+03 0.  0.
      99925    2    3    3    0    0 -0.95716617066E+02 -0.81295008300E+01  0.47571361094E+03  0.55209622464E+03  0.26320912230E+03 0.  0.
         25    1    4    4    0    0 -0.17853140815E+02  0.18061961301E+02  0.17990660206E+03  0.22058753965E+03  0.12509000000E+03 0.  0.
         25    1    4    4    0    0 -0.77863476251E+02 -0.26191462131E+02  0.29580700888E+03  0.33150868499E+03  0.12509000000E+03 0.  0.
         25    1    3    3    0    0  0.95716617066E+02  0.81295008300E+01  0.24615508314E+03  0.29234840964E+03  0.12509000000E+03 0.  0.
<mgrwt>
<rscale>  2 0.43816929E+03</rscale>
<asrwt>0</asrwt>
<pdfrwt beam="1">  1       21 0.11517009E+00 0.43816929E+03</pdfrwt>
<pdfrwt beam="2">  1       21 0.90129372E-02 0.43816929E+03</pdfrwt>
<totfact> 0.52254017E+04</totfact>
</mgrwt>
</event>
<event>
 7    0  0.4714446E-002  0.4563736E+03  0.7546771E-02  0.1025838E+00
         21   -1    0    0  502  501  0.00000000000E+00  0.00000000000E+00  0.10831368301E+03  0.10831368301E+03  0.00000000000E+00 0. -1.
         21   -1    0    0  501  502 -0.00000000000E+00 -0.00000000000E+00 -0.48072609158E+03  0.48072609158E+03  0.00000000000E+00 0. -1.
      99926    2    1    2    0    0  0.00000000000E+00  0.14210854715E-13 -0.37241240858E+03  0.58903977459E+03  0.45637359037E+03 0.  0.
      99925    2    3    3    0    0  0.47587820171E+02  0.78834578133E+02 -0.14598518558E+03  0.31445593175E+03  0.26285236781E+03 0.  0.
         25    1    3    3    0    0 -0.47587820171E+02 -0.78834578133E+02 -0.22642722299E+03  0.27458384284E+03  0.12509000000E+03 0.  0.
         25    1    4    4    0    0  0.47287804544E+02  0.73222470038E+02 -0.68000542949E+02  0.16694085335E+03  0.12509000000E+03 0.  0.
         25    1    4    4    0    0  0.30001562784E+00  0.56121080945E+01 -0.77984642634E+02  0.14751507839E+03  0.12509000000E+03 0.  0.
<mgrwt>
<rscale>  2 0.45637359E+03</rscale>
<asrwt>0</asrwt>
<pdfrwt beam="1">  1       21 0.15928483E-01 0.45637359E+03</pdfrwt>
<pdfrwt beam="2">  1       21 0.70695013E-01 0.45637359E+03</pdfrwt>
<totfact> 0.58717943E+04</totfact>
</mgrwt>
</event>
<event>
 7    0  0.4714446E-002  0.4560452E+03  0.7546771E-02  0.1025934E+00
         21   -1    0    0  502  501  0.00000000000E+00  0.00000000000E+00  0.84608062043E+03  0.84608062043E+03  0.00000000000E+00 0. -1.
         21   -1    0    0  501  502 -0.00000000000E+00 -0.00000000000E+00 -0.61453134846E+02  0.61453134846E+02  0.00000000000E+00 0. -1.
      99926    2    1    2    0    0  0.00000000000E+00 -0.35527136788E-14  0.78462748558E+03  0.90753375528E+03  0.45604520152E+03 0.  0.
      99925    2    3    3    0    0  0.94328773852E+02 -0.95100967166E+01  0.61975837977E+03  0.67989876309E+03  0.26300859157E+03 0.  0.
         25    1    4    4    0    0  0.87363905036E+02  0.67419512737E+01  0.35959962096E+03  0.39068824055E+03  0.12509000000E+03 0.  0.
         25    1    3    3    0    0 -0.94328773852E+02  0.95100967166E+01  0.16486910581E+03  0.22763499218E+03  0.12509000000E+03 0.  0.
         25    1    4    4    0    0  0.69648688153E+01 -0.16252047990E+02  0.26015875881E+03  0.28921052254E+03  0.12509000000E+03 0.  0.
<mgrwt>
<rscale>  2 0.45604520E+03</rscale>
<asrwt>0</asrwt>
<pdfrwt beam="1">  1       21 0.12442361E+00 0.45604520E+03</pdfrwt>
<pdfrwt beam="2">  1       21 0.90372262E-02 0.45604520E+03</pdfrwt>
<totfact> 0.42560272E+04</totfact>
</mgrwt>
</event>
<event>
 7    0  0.4714446E-002  0.4623379E+03  0.7546771E-02  0.1024105E+00
         21   -1    0    0  502  501  0.00000000000E+00  0.00000000000E+00  0.42047649747E+03  0.42047649747E+03  0.00000000000E+00 0. -1.
         21   -1    0    0  501  502 -0.00000000000E+00 -0.00000000000E+00 -0.12709174070E+03  0.12709174070E+03  0.00000000000E+00 0. -1.
      99926    2    1    2    0    0  0.00000000000E+00  0.14210854715E-13  0.29338475677E+03  0.54756823816E+03  0.46233792830E+03 0.  0.
      99925    2    3    3    0    0 -0.31095224398E+02 -0.94967326777E+02  0.26185792408E+03  0.38438994483E+03  0.26305959620E+03 0.  0.
         25    1    4    4    0    0 -0.40182325414E+02 -0.14045801546E+02  0.12163956690E+03  0.17959843026E+03  0.12509000000E+03 0.  0.
         25    1    4    4    0    0  0.90871010160E+01 -0.80921525231E+02  0.14021835718E+03  0.20479151457E+03  0.12509000000E+03 0.  0.
         25    1    3    3    0    0  0.31095224398E+02  0.94967326777E+02  0.31526832687E+02  0.16317829333E+03  0.12509000000E+03 0.  0.
<mgrwt>
<rscale>  2 0.46233793E+03</rscale>
<asrwt>0</asrwt>
<pdfrwt beam="1">  1       21 0.61834779E-01 0.46233793E+03</pdfrwt>
<pdfrwt beam="2">  1       21 0.18689962E-01 0.46233793E+03</pdfrwt>
<totfact> 0.58553016E+04</totfact>
</mgrwt>
</event>
<event>
 7    0  0.4714446E-002  0.4538321E+03  0.7546771E-02  0.1026585E+00
         21   -1    0    0  502  501  0.00000000000E+00  0.00000000000E+00  0.10483006060E+03  0.10483006060E+03  0.00000000000E+00 0. -1.
         21   -1    0    0  501  502 -0.00000000000E+00 -0.00000000000E+00 -0.49118451250E+03  0.49118451250E+03  0.00000000000E+00 0. -1.
      99926    2    1    2    0    0  0.00000000000E+00  0.00000000000E+00 -0.38635445190E+03  0.59601457310E+03  0.45383213730E+03 0.  0.
      99925    2    3    3    0    0  0.51180814292E+02  0.13475180912E+02 -0.37311795137E+03  0.45954564148E+03  0.26299075025E+03 0.  0.
         25    1    3    3    0    0 -0.51180814292E+02 -0.13475180912E+02 -0.13236500527E+02  0.13646893162E+03  0.12509000000E+03 0.  0.
         25    1    4    4    0    0 -0.11857151552E+01  0.12456512078E+02 -0.12797609498E+03  0.17939330980E+03  0.12509000000E+03 0.  0.
         25    1    4    4    0    0  0.52366529447E+02  0.10186688343E+01 -0.24514185639E+03  0.28015233168E+03  0.12509000000E+03 0.  0.
<mgrwt>
<rscale>  2 0.45383214E+03</rscale>
<asrwt>0</asrwt>
<pdfrwt beam="1">  1       21 0.15416185E-01 0.45383214E+03</pdfrwt>
<pdfrwt beam="2">  1       21 0.72233016E-01 0.45383214E+03</pdfrwt>
<totfact> 0.59471191E+04</totfact>
</mgrwt>
</event>
<event>
 7    0  0.4714446E-002  0.4529193E+03  0.7546771E-02  0.1026855E+00
         21   -1    0    0  502  501  0.00000000000E+00  0.00000000000E+00  0.20653310068E+04  0.20653310068E+04  0.00000000000E+00 0.  1.
         21   -1    0    0  501  502 -0.00000000000E+00 -0.00000000000E+00 -0.24830876889E+02  0.24830876889E+02  0.00000000000E+00 0.  1.
      99926    2    1    2    0    0  0.00000000000E+00  0.00000000000E+00  0.20405001299E+04  0.20901618837E+04  0.45291933041E+03 0.  0.
      99925    2    3    3    0    0 -0.75982154726E+02 -0.51576539419E+02  0.15748216679E+04  0.15993081730E+04  0.26322978393E+03 0.  0.
         25    1    3    3    0    0  0.75982154726E+02  0.51576539419E+02  0.46567846197E+03  0.49085371069E+03  0.12509000000E+03 0.  0.
         25    1    4    4    0    0 -0.24549716845E+02 -0.35560347023E+02  0.99174680028E+03  0.10005380807E+04  0.12509000000E+03 0.  0.
         25    1    4    4    0    0 -0.51432437881E+02 -0.16016192395E+02  0.58307486763E+03  0.59877009231E+03  0.12509000000E+03 0.  0.
<mgrwt>
<rscale>  2 0.45291933E+03</rscale>
<asrwt>0</asrwt>
<pdfrwt beam="1">  1       21 0.30372503E+00 0.45291933E+03</pdfrwt>
<pdfrwt beam="2">  1       21 0.36516010E-02 0.45291933E+03</pdfrwt>
<totfact> 0.12493699E+04</totfact>
</mgrwt>
</event>
<event>
 7    0  0.4714446E-002  0.4872402E+03  0.7546771E-02  0.1017164E+00
         21   -1    0    0  502  501  0.00000000000E+00  0.00000000000E+00  0.54821098758E+02  0.54821098758E+02  0.00000000000E+00 0. -1.
         21   -1    0    0  501  502 -0.00000000000E+00 -0.00000000000E+00 -0.10826262506E+04  0.10826262506E+04  0.00000000000E+00 0. -1.
      99926    2    1    2    0    0  0.00000000000E+00  0.00000000000E+00 -0.10278051519E+04  0.11374473494E+04  0.48724023070E+03 0.  0.
      99925    2    3    3    0    0 -0.35333816128E+02  0.13509002550E+03 -0.58025966989E+03  0.65222342161E+03  0.26305192193E+03 0.  0.
         25    1    4    4    0    0 -0.19400091671E+02  0.22115297945E+02 -0.25248682664E+03  0.28330646955E+03  0.12509000000E+03 0.  0.
         25    1    4    4    0    0 -0.15933724457E+02  0.11297472756E+03 -0.32777284325E+03  0.36891695206E+03  0.12509000000E+03 0.  0.
         25    1    3    3    0    0  0.35333816128E+02 -0.13509002550E+03 -0.44754548198E+03  0.48522392778E+03  0.12509000000E+03 0.  0.
<mgrwt>
<rscale>  2 0.48724023E+03</rscale>
<asrwt>0</asrwt>
<pdfrwt beam="1">  1       21 0.80619267E-02 0.48724023E+03</pdfrwt>
<pdfrwt beam="2">  1       21 0.15920973E+00 0.48724023E+03</pdfrwt>
<totfact> 0.26806695E+04</totfact>
</mgrwt>
</event>
<event>
 7    0  0.4714446E-002  0.4478246E+03  0.7546771E-02  0.1028373E+00
         21   -1    0    0  502  501  0.00000000000E+00  0.00000000000E+00  0.17962984659E+03  0.17962984659E+03  0.00000000000E+00 0. -1.
         21   -1    0    0  501  502 -0.00000000000E+00 -0.00000000000E+00 -0.27911131097E+03  0.27911131097E+03  0.00000000000E+00 0. -1.
      99926    2    1    2    0    0  0.00000000000E+00  0.00000000000E+00 -0.99481464374E+02  0.45874115756E+03  0.44782461733E+03 0.  0.
      99925    2    3    3    0    0 -0.90549184900E+00 -0.18681775775E+02  0.44175836373E+02  0.26733907602E+03  0.26299971176E+03 0.  0.
         25    1    4    4    0    0 -0.62450402673E+01 -0.49519832153E+02  0.24840906435E+02  0.13695179092E+03  0.12509000000E+03 0.  0.
         25    1    4    4    0    0  0.53395484183E+01  0.30838056378E+02  0.19334929938E+02  0.13038728509E+03  0.12509000000E+03 0.  0.
         25    1    3    3    0    0  0.90549184900E+00  0.18681775775E+02 -0.14365730075E+03  0.19140208154E+03  0.12509000000E+03 0.  0.
<mgrwt>
<rscale>  2 0.44782462E+03</rscale>
<asrwt>0</asrwt>
<pdfrwt beam="1">  1       21 0.26416154E-01 0.44782462E+03</pdfrwt>
<pdfrwt beam="2">  1       21 0.41045781E-01 0.44782462E+03</pdfrwt>
<totfact> 0.72311502E+04</totfact>
</mgrwt>
</event>
<event>
 7    0  0.4714446E-002  0.4612416E+03  0.7546771E-02  0.1024422E+00
         21   -1    0    0  502  501  0.00000000000E+00  0.00000000000E+00  0.58102969124E+02  0.58102969124E+02  0.00000000000E+00 0. -1.
         21   -1    0    0  501  502 -0.00000000000E+00 -0.00000000000E+00 -0.91537414061E+03  0.91537414061E+03  0.00000000000E+00 0. -1.
      99926    2    1    2    0    0 -0.14210854715E-13  0.14210854715E-13 -0.85727117149E+03  0.97347710974E+03  0.46124160883E+03 0.  0.
      99925    2    3    3    0    0 -0.67003671235E+02 -0.96989825929E+02 -0.57001775495E+03  0.63872563221E+03  0.26297086149E+03 0.  0.
         25    1    4    4    0    0  0.55818339231E+00 -0.40557846000E+02 -0.21303757714E+03  0.25035528318E+03  0.12509000000E+03 0.  0.
         25    1    4    4    0    0 -0.67561854628E+02 -0.56431979929E+02 -0.35698017781E+03  0.38837034903E+03  0.12509000000E+03 0.  0.
         25    1    3    3    0    0  0.67003671235E+02  0.96989825929E+02 -0.28725341654E+03  0.33475147753E+03  0.12509000000E+03 0.  0.
<mgrwt>
<rscale>  2 0.46124161E+03</rscale>
<asrwt>0</asrwt>
<pdfrwt beam="1">  1       21 0.85445543E-02 0.46124161E+03</pdfrwt>
<pdfrwt beam="2">  1       21 0.13461384E+00 0.46124161E+03</pdfrwt>
<totfact> 0.38301128E+04</totfact>
</mgrwt>
</event>
<event>
 7    0  0.4714446E-002  0.4569171E+03  0.7546771E-02  0.1025679E+00
         21   -1    0    0  502  501  0.00000000000E+00  0.00000000000E+00  0.62479099505E+03  0.62479099505E+03  0.00000000000E+00 0.  1.
         21   -1    0    0  501  502 -0.00000000000E+00 -0.00000000000E+00 -0.83537228410E+02  0.83537228410E+02  0.00000000000E+00 0.  1.
      99926    2    1    2    0    0  0.00000000000E+00  0.14210854715E-13  0.54125376664E+03  0.70832822346E+03  0.45691709560E+03 0.  0.
      99925    2    3    3    0    0  0.82246383027E+02 -0.73210416925E+02  0.28907546394E+03  0.40606073080E+03  0.26305220124E+03 0.  0.
         25    1    4    4    0    0  0.51096071458E+02 -0.78507676095E+01  0.10108787017E+03  0.16893403644E+03  0.12509000000E+03 0.  0.
         25    1    3    3    0    0 -0.82246383027E+02  0.73210416925E+02  0.25217830270E+03  0.30226749266E+03  0.12509000000E+03 0.  0.
         25    1    4    4    0    0  0.31150311569E+02 -0.65359649315E+02  0.18798759377E+03  0.23712669436E+03  0.12509000000E+03 0.  0.
<mgrwt>
<rscale>  2 0.45691710E+03</rscale>
<asrwt>0</asrwt>
<pdfrwt beam="1">  1       21 0.91881027E-01 0.45691710E+03</pdfrwt>
<pdfrwt beam="2">  1       21 0.12284887E-01 0.45691710E+03</pdfrwt>
<totfact> 0.51669333E+04</totfact>
</mgrwt>
</event>
<event>
 7    0  0.4714446E-002  0.4559303E+03  0.7546771E-02  0.1025968E+00
         21   -1    0    0  502  501  0.00000000000E+00  0.00000000000E+00  0.26949156721E+03  0.26949156721E+03  0.00000000000E+00 0.  1.
         21   -1    0    0  501  502 -0.00000000000E+00 -0.00000000000E+00 -0.19283761537E+03  0.19283761537E+03  0.00000000000E+00 0.  1.
      99926    2    1    2    0    0  0.00000000000E+00  0.00000000000E+00  0.76653951838E+02  0.46232918258E+03  0.45593030688E+03 0.  0.
      99925    2    3    3    0    0  0.89213672271E+02  0.67331478092E+02  0.71237653514E+02  0.29449160737E+03  0.26297888941E+03 0.  0.
         25    1    4    4    0    0  0.70378675643E+02  0.74634208424E+01  0.53778485684E+02  0.15345518648E+03  0.12509000000E+03 0.  0.
         25    1    3    3    0    0 -0.89213672271E+02 -0.67331478092E+02  0.54162983236E+01  0.16783757520E+03  0.12509000000E+03 0.  0.
         25    1    4    4    0    0  0.18834996628E+02  0.59868057249E+02  0.17459167830E+02  0.14103642089E+03  0.12509000000E+03 0.  0.
<mgrwt>
<rscale>  2 0.45593031E+03</rscale>
<asrwt>0</asrwt>
<pdfrwt beam="1">  1       21 0.39631113E-01 0.45593031E+03</pdfrwt>
<pdfrwt beam="2">  1       21 0.28358473E-01 0.45593031E+03</pdfrwt>
<totfact> 0.67508172E+04</totfact>
</mgrwt>
</event>
<event>
 7    0  0.4714446E-002  0.4565971E+03  0.7546771E-02  0.1025773E+00
         21   -1    0    0  502  501  0.00000000000E+00  0.00000000000E+00  0.11976713441E+03  0.11976713441E+03  0.00000000000E+00 0. -1.
         21   -1    0    0  501  502 -0.00000000000E+00 -0.00000000000E+00 -0.43517975542E+03  0.43517975542E+03  0.00000000000E+00 0. -1.
      99926    2    1    2    0    0  0.14210854715E-13  0.00000000000E+00 -0.31541262101E+03  0.55494688983E+03  0.45659711895E+03 0.  0.
      99925    2    3    3    0    0 -0.71836426868E+02  0.31016492186E+02 -0.30002851835E+03  0.40660042466E+03  0.26302908299E+03 0.  0.
         25    1    4    4    0    0 -0.71937582000E+02  0.30816138496E+02 -0.13919557294E+03  0.20284862761E+03  0.12509000000E+03 0.  0.
         25    1    4    4    0    0  0.10115513187E+00  0.20035369008E+00 -0.16083294540E+03  0.20375179705E+03  0.12509000000E+03 0.  0.
         25    1    3    3    0    0  0.71836426868E+02 -0.31016492186E+02 -0.15384102663E+02  0.14834646517E+03  0.12509000000E+03 0.  0.
<mgrwt>
<rscale>  2 0.45659712E+03</rscale>
<asrwt>0</asrwt>
<pdfrwt beam="1">  1       21 0.17612814E-01 0.45659712E+03</pdfrwt>
<pdfrwt beam="2">  1       21 0.63997021E-01 0.45659712E+03</pdfrwt>
<totfact> 0.60769347E+04</totfact>
</mgrwt>
</event>
<event>
 7    0  0.4714446E-002  0.4574549E+03  0.7546771E-02  0.1025522E+00
         21   -1    0    0  502  501  0.00000000000E+00  0.00000000000E+00  0.98569578548E+02  0.98569578548E+02  0.00000000000E+00 0. -1.
         21   -1    0    0  501  502 -0.00000000000E+00 -0.00000000000E+00 -0.53075458364E+03  0.53075458364E+03  0.00000000000E+00 0. -1.
      99926    2    1    2    0    0  0.00000000000E+00  0.00000000000E+00 -0.43218500510E+03  0.62932416219E+03  0.45745494039E+03 0.  0.
      99925    2    3    3    0    0 -0.46432314910E+02  0.97428679870E+02 -0.32816238486E+03  0.43408963361E+03  0.26285918596E+03 0.  0.
         25    1    3    3    0    0  0.46432314910E+02 -0.97428679870E+02 -0.10402262023E+03  0.19523452858E+03  0.12509000000E+03 0.  0.
         25    1    4    4    0    0 -0.60808623170E+02  0.44905065339E+02 -0.19242449343E+03  0.24163784330E+03  0.12509000000E+03 0.  0.
         25    1    4    4    0    0  0.14376308261E+02  0.52523614531E+02 -0.13573789143E+03  0.19245179031E+03  0.12509000000E+03 0.  0.
<mgrwt>
<rscale>  2 0.45745494E+03</rscale>
<asrwt>0</asrwt>
<pdfrwt beam="1">  1       21 0.14495527E-01 0.45745494E+03</pdfrwt>
<pdfrwt beam="2">  1       21 0.78052143E-01 0.45745494E+03</pdfrwt>
<totfact> 0.55818963E+04</totfact>
</mgrwt>
</event>
<event>
 7    0  0.4714446E-002  0.4508761E+03  0.7546771E-02  0.1027461E+00
         21   -1    0    0  502  501  0.00000000000E+00  0.00000000000E+00  0.13946217214E+03  0.13946217214E+03  0.00000000000E+00 0. -1.
         21   -1    0    0  501  502 -0.00000000000E+00 -0.00000000000E+00 -0.36441654424E+03  0.36441654424E+03  0.00000000000E+00 0. -1.
      99926    2    1    2    0    0  0.00000000000E+00  0.17763568394E-14 -0.22495437210E+03  0.50387871638E+03  0.45087613742E+03 0.  0.
      99925    2    3    3    0    0 -0.10301293563E+03 -0.87650618072E+01 -0.18129767541E+03  0.33582543173E+03  0.26309956722E+03 0.  0.
         25    1    4    4    0    0 -0.36162765704E+02 -0.41920055941E+02 -0.80990449918E+02  0.15897168865E+03  0.12509000000E+03 0.  0.
         25    1    3    3    0    0  0.10301293563E+03  0.87650618072E+01 -0.43656696690E+02  0.16805328465E+03  0.12509000000E+03 0.  0.
         25    1    4    4    0    0 -0.66850169929E+02  0.33154994134E+02 -0.10030722549E+03  0.17685374308E+03  0.12509000000E+03 0.  0.
<mgrwt>
<rscale>  2 0.45087614E+03</rscale>
<asrwt>0</asrwt>
<pdfrwt beam="1">  1       21 0.20509143E-01 0.45087614E+03</pdfrwt>
<pdfrwt beam="2">  1       21 0.53590667E-01 0.45087614E+03</pdfrwt>
<totfact> 0.67170833E+04</totfact>
</mgrwt>
</event>
<event>
 7    0  0.4714446E-002  0.4538561E+03  0.7546771E-02  0.1026578E+00
         21   -1    0    0  502  501  0.00000000000E+00  0.00000000000E+00  0.35146265330E+02  0.35146265330E+02  0.00000000000E+00 0.  1.
         21   -1    0    0  501  502 -0.00000000000E+00 -0.00000000000E+00 -0.14652006325E+04  0.14652006325E+04  0.00000000000E+00 0.  1.
      99926    2    1    2    0    0  0.00000000000E+00  0.00000000000E+00 -0.14300543672E+04  0.15003468978E+04  0.45385605732E+03 0.  0.
      99925    2    3    3    0    0  0.15683236291E+02  0.37429860498E+02 -0.12461271417E+04  0.12742414120E+04  0.26308052838E+03 0.  0.
         25    1    4    4    0    0  0.35671041969E+01  0.31208769955E+02 -0.81446607672E+03  0.82461458256E+03  0.12509000000E+03 0.  0.
         25    1    3    3    0    0 -0.15683236291E+02 -0.37429860498E+02 -0.18392722551E+03  0.22610548587E+03  0.12509000000E+03 0.  0.
         25    1    4    4    0    0  0.12116132094E+02  0.62210905422E+01 -0.43166106495E+03  0.44962682940E+03  0.12509000000E+03 0.  0.
<mgrwt>
<rscale>  2 0.45385606E+03</rscale>
<asrwt>0</asrwt>
<pdfrwt beam="1">  1       21 0.51685698E-02 0.45385606E+03</pdfrwt>
<pdfrwt beam="2">  1       21 0.21547062E+00 0.45385606E+03</pdfrwt>
<totfact> 0.23983019E+04</totfact>
</mgrwt>
</event>
<event>
 7    0  0.4714446E-002  0.4606748E+03  0.7546771E-02  0.1024586E+00
         21   -1    0    0  502  501  0.00000000000E+00  0.00000000000E+00  0.50894485392E+03  0.50894485392E+03  0.00000000000E+00 0. -1.
         21   -1    0    0  501  502 -0.00000000000E+00 -0.00000000000E+00 -0.10424571125E+03  0.10424571125E+03  0.00000000000E+00 0. -1.
      99926    2    1    2    0    0  0.00000000000E+00  0.71054273576E-14  0.40469914267E+03  0.61319056517E+03  0.46067480193E+03 0.  0.
      99925    2    3    3    0    0 -0.99472235149E+01 -0.58109581580E+02  0.39005466934E+03  0.47413072400E+03  0.26302400582E+03 0.  0.
         25    1    3    3    0    0  0.99472235149E+01  0.58109581580E+02  0.14644473329E+02  0.13905984117E+03  0.12509000000E+03 0.  0.
         25    1    4    4    0    0 -0.13752425494E+02 -0.11259121016E+02  0.25254231249E+03  0.28238453341E+03  0.12509000000E+03 0.  0.
         25    1    4    4    0    0  0.38052019792E+01 -0.46850460563E+02  0.13751235685E+03  0.19174619059E+03  0.12509000000E+03 0.  0.
<mgrwt>
<rscale>  2 0.46067480E+03</rscale>
<asrwt>0</asrwt>
<pdfrwt beam="1">  1       21 0.74844830E-01 0.46067480E+03</pdfrwt>
<pdfrwt beam="2">  1       21 0.15330252E-01 0.46067480E+03</pdfrwt>
<totfact> 0.55350652E+04</totfact>
</mgrwt>
</event>
<event>
 7    0  0.4714446E-002  0.4432983E+03  0.7546771E-02  0.1029740E+00
         21   -1    0    0  502  501  0.00000000000E+00  0.00000000000E+00  0.21612455328E+03  0.21612455328E+03  0.00000000000E+00 0. -1.
         21   -1    0    0  501  502 -0.00000000000E+00 -0.00000000000E+00 -0.22731491639E+03  0.22731491639E+03  0.00000000000E+00 0. -1.
      99926    2    1    2    0    0  0.00000000000E+00  0.00000000000E+00 -0.11190363110E+02  0.44343946967E+03  0.44329825065E+03 0.  0.
      99925    2    3    3    0    0  0.37407013405E+02 -0.94894074398E+02 -0.95119074620E+01  0.28202542034E+03  0.26276166259E+03 0.  0.
         25    1    4    4    0    0 -0.17837049632E+02 -0.62704850647E+02 -0.11513687800E+02  0.14152784793E+03  0.12509000000E+03 0.  0.
         25    1    3    3    0    0 -0.37407013405E+02  0.94894074398E+02 -0.16784556482E+01  0.16141404933E+03  0.12509000000E+03 0.  0.
         25    1    4    4    0    0  0.55244063036E+02 -0.32189223751E+02  0.20017803376E+01  0.14049757240E+03  0.12509000000E+03 0.  0.
<mgrwt>
<rscale>  2 0.44329825E+03</rscale>
<asrwt>0</asrwt>
<pdfrwt beam="1">  1       21 0.31783023E-01 0.44329825E+03</pdfrwt>
<pdfrwt beam="2">  1       21 0.33428664E-01 0.44329825E+03</pdfrwt>
<totfact> 0.76278119E+04</totfact>
</mgrwt>
</event>
<event>
 7    0  0.4714446E-002  0.4610888E+03  0.7546771E-02  0.1024466E+00
         21   -1    0    0  502  501  0.00000000000E+00  0.00000000000E+00  0.78246443762E+03  0.78246443762E+03  0.00000000000E+00 0. -1.
         21   -1    0    0  501  502 -0.00000000000E+00 -0.00000000000E+00 -0.67927318870E+02  0.67927318870E+02  0.00000000000E+00 0. -1.
      99926    2    1    2    0    0  0.00000000000E+00  0.00000000000E+00  0.71453711875E+03  0.85039175649E+03  0.46108876091E+03 0.  0.
      99925    2    3    3    0    0 -0.10724820119E+03  0.35833594136E+02  0.50889192936E+03  0.58445252444E+03  0.26424900080E+03 0.  0.
         25    1    3    3    0    0  0.10724820119E+03 -0.35833594136E+02  0.20564518939E+03  0.26593923205E+03  0.12509000000E+03 0.  0.
         25    1    4    4    0    0 -0.27833654348E+02 -0.18283734870E+02  0.24120186544E+03  0.27374231545E+03  0.12509000000E+03 0.  0.
         25    1    4    4    0    0 -0.79414546838E+02  0.54117329006E+02  0.26769006392E+03  0.31071020899E+03  0.12509000000E+03 0.  0.
<mgrwt>
<rscale>  2 0.46108876E+03</rscale>
<asrwt>0</asrwt>
<pdfrwt beam="1">  1       21 0.11506829E+00 0.46108876E+03</pdfrwt>
<pdfrwt beam="2">  1       21 0.99893120E-02 0.46108876E+03</pdfrwt>
<totfact> 0.43315566E+04</totfact>
</mgrwt>
</event>
<event>
 6    0  0.4714446E-002  0.4589900E+03  0.7546771E-02  0.1025075E+00
         21   -1    0    0  502  501  0.00000000000E+00  0.00000000000E+00  0.10455222955E+04  0.10455222955E+04  0.00000000000E+00 0.  1.
         21   -1    0    0  501  502 -0.00000000000E+00 -0.00000000000E+00 -0.50374784592E+02  0.50374784592E+02  0.00000000000E+00 0.  1.
      99926    2    1    2    0    0  0.35527136788E-14  0.26645352591E-14  0.99514751089E+03  0.10958970801E+04  0.45899002351E+03 0.  0.
         25    1    3    3    0    0 -0.15484626372E+02  0.23483970847E+02  0.17237960363E+03  0.21483367145E+03  0.12509000000E+03 0.  0.
         25    1    3    3    0    0 -0.18483283907E+02  0.64142985117E+01  0.65415401553E+03  0.66629404856E+03  0.12509000000E+03 0.  0.
         25    1    3    3    0    0  0.33967910279E+02 -0.29898269359E+02  0.16861389172E+03  0.21476936006E+03  0.12509000000E+03 0.  0.
<mgrwt>
<rscale>  2 0.45899002E+03</rscale>
<asrwt>0</asrwt>
<pdfrwt beam="1">  1       21 0.15375326E+00 0.45899002E+03</pdfrwt>
<pdfrwt beam="2">  1       21 0.74080572E-02 0.45899002E+03</pdfrwt>
<totfact> 0.34548834E+04</totfact>
</mgrwt>
</event>
<event>
 7    0  0.4714446E-002  0.4646496E+03  0.7546771E-02  0.1023441E+00
         21   -1    0    0  502  501  0.00000000000E+00  0.00000000000E+00  0.19206692233E+04  0.19206692233E+04  0.00000000000E+00 0. -1.
         21   -1    0    0  501  502 -0.00000000000E+00 -0.00000000000E+00 -0.28102089475E+02  0.28102089475E+02  0.00000000000E+00 0. -1.
      99926    2    1    2    0    0 -0.17763568394E-14  0.88817841970E-15  0.18925671338E+04  0.19487713128E+04  0.46464962440E+03 0.  0.
      99925    2    3    3    0    0 -0.12377145836E+02 -0.55605655482E+01  0.67378516389E+03  0.72351170275E+03  0.26324631679E+03 0.  0.
         25    1    3    3    0    0  0.12377145836E+02  0.55605655482E+01  0.12187819699E+04  0.12252596100E+04  0.12509000000E+03 0.  0.
         25    1    4    4    0    0 -0.30919039732E+02 -0.17607580152E+02  0.26073706373E+03  0.29137147835E+03  0.12509000000E+03 0.  0.
         25    1    4    4    0    0  0.18541893896E+02  0.12047014604E+02  0.41304810016E+03  0.43214022439E+03  0.12509000000E+03 0.  0.
<mgrwt>
<rscale>  2 0.46464962E+03</rscale>
<asrwt>0</asrwt>
<pdfrwt beam="1">  1       21 0.28245127E+00 0.46464962E+03</pdfrwt>
<pdfrwt beam="2">  1       21 0.41326615E-02 0.46464962E+03</pdfrwt>
<totfact> 0.13523030E+04</totfact>
</mgrwt>
</event>
<event>
 7    0  0.4714446E-002  0.4593327E+03  0.7546771E-02  0.1024975E+00
         21   -1    0    0  502  501  0.00000000000E+00  0.00000000000E+00  0.31551345562E+02  0.31551345562E+02  0.00000000000E+00 0. -1.
         21   -1    0    0  501  502 -0.00000000000E+00 -0.00000000000E+00 -0.16717714832E+04  0.16717714832E+04  0.00000000000E+00 0. -1.
      99926    2    1    2    0    0  0.00000000000E+00  0.71054273576E-14 -0.16402201377E+04  0.17033228288E+04  0.45933273242E+03 0.  0.
      99925    2    3    3    0    0 -0.93734338650E+02 -0.24287069710E+02 -0.12722475774E+04  0.13027890585E+04  0.26319088993E+03 0.  0.
         25    1    3    3    0    0  0.93734338650E+02  0.24287069710E+02 -0.36797256023E+03  0.40053377034E+03  0.12509000000E+03 0.  0.
         25    1    4    4    0    0 -0.68821194256E+02  0.18431118669E+02 -0.73444738624E+03  0.74842269752E+03  0.12509000000E+03 0.  0.
         25    1    4    4    0    0 -0.24913144394E+02 -0.42718188379E+02 -0.53780019121E+03  0.55436636095E+03  0.12509000000E+03 0.  0.
<mgrwt>
<rscale>  2 0.45933273E+03</rscale>
<asrwt>0</asrwt>
<pdfrwt beam="1">  1       21 0.46399034E-02 0.45933273E+03</pdfrwt>
<pdfrwt beam="2">  1       21 0.24584877E+00 0.45933273E+03</pdfrwt>
<totfact> 0.18560387E+04</totfact>
</mgrwt>
</event>
<event>
 7    0  0.4714446E-002  0.4544413E+03  0.7546771E-02  0.1026406E+00
         21   -1    0    0  502  501  0.00000000000E+00  0.00000000000E+00  0.15764577616E+03  0.15764577616E+03  0.00000000000E+00 0. -1.
         21   -1    0    0  501  502 -0.00000000000E+00 -0.00000000000E+00 -0.32750145809E+03  0.32750145809E+03  0.00000000000E+00 0. -1.
      99926    2    1    2    0    0  0.88817841970E-15  0.00000000000E+00 -0.16985568193E+03  0.48514723425E+03  0.45444129018E+03 0.  0.
      99925    2    3    3    0    0 -0.53389830625E+01  0.91156276343E+02 -0.17745969545E+03  0.33008821137E+03  0.26292263561E+03 0.  0.
         25    1    4    4    0    0  0.10769975606E+02  0.85694435057E+02 -0.93090479428E+02  0.17824947134E+03  0.12509000000E+03 0.  0.
         25    1    3    3    0    0  0.53389830625E+01 -0.91156276343E+02  0.76040135177E+01  0.15505902289E+03  0.12509000000E+03 0.  0.
         25    1    4    4    0    0 -0.16108958668E+02  0.54618412856E+01 -0.84369216019E+02  0.15183874002E+03  0.12509000000E+03 0.  0.
<mgrwt>
<rscale>  2 0.45444129E+03</rscale>
<asrwt>0</asrwt>
<pdfrwt beam="1">  1       21 0.23183203E-01 0.45444129E+03</pdfrwt>
<pdfrwt beam="2">  1       21 0.48161979E-01 0.45444129E+03</pdfrwt>
<totfact> 0.66622287E+04</totfact>
</mgrwt>
</event>
<event>
 7    0  0.4714446E-002  0.4819000E+03  0.7546771E-02  0.1018614E+00
         21   -1    0    0  502  501  0.00000000000E+00  0.00000000000E+00  0.63868267209E+03  0.63868267209E+03  0.00000000000E+00 0. -1.
         21   -1    0    0  501  502 -0.00000000000E+00 -0.00000000000E+00 -0.90901005678E+02  0.90901005678E+02  0.00000000000E+00 0. -1.
      99926    2    1    2    0    0  0.00000000000E+00  0.00000000000E+00  0.54778166641E+03  0.72958367777E+03  0.48189997801E+03 0.  0.
      99925    2    3    3    0    0  0.74948350067E+02  0.99161666121E+02  0.42421710483E+03  0.51425602004E+03  0.26277140428E+03 0.  0.
         25    1    3    3    0    0 -0.74948350067E+02 -0.99161666121E+02  0.12356456158E+03  0.21532765773E+03  0.12509000000E+03 0.  0.
         25    1    4    4    0    0  0.16787317172E+02  0.17200120027E+02  0.15253485777E+03  0.19872606543E+03  0.12509000000E+03 0.  0.
         25    1    4    4    0    0  0.58161032895E+02  0.81961546094E+02  0.27168224706E+03  0.31552995461E+03  0.12509000000E+03 0.  0.
<mgrwt>
<rscale>  2 0.48189998E+03</rscale>
<asrwt>0</asrwt>
<pdfrwt beam="1">  1       21 0.93923920E-01 0.48189998E+03</pdfrwt>
<pdfrwt beam="2">  1       21 0.13367795E-01 0.48189998E+03</pdfrwt>
<totfact> 0.41762335E+04</totfact>
</mgrwt>
</event>
<event>
 7    0  0.4714446E-002  0.4517083E+03  0.7546771E-02  0.1027214E+00
         21   -1    0    0  502  501  0.00000000000E+00  0.00000000000E+00  0.44731234384E+02  0.44731234384E+02  0.00000000000E+00 0. -1.
         21   -1    0    0  501  502 -0.00000000000E+00 -0.00000000000E+00 -0.11403687670E+04  0.11403687670E+04  0.00000000000E+00 0. -1.
      99926    2    1    2    0    0  0.00000000000E+00  0.14210854715E-13 -0.10956375326E+04  0.11851000014E+04  0.45170832449E+03 0.  0.
      99925    2    3    3    0    0 -0.76634025491E+02  0.78324847140E+02 -0.65118383214E+03  0.71055373862E+03  0.26237125734E+03 0.  0.
         25    1    3    3    0    0  0.76634025491E+02 -0.78324847140E+02 -0.44445370049E+03  0.47454626279E+03  0.12509000000E+03 0.  0.
         25    1    4    4    0    0 -0.23725721243E+02  0.68331918073E+02 -0.39171159571E+03  0.41751364432E+03  0.12509000000E+03 0.  0.
         25    1    4    4    0    0 -0.52908304247E+02  0.99929290671E+01 -0.25947223643E+03  0.29304009430E+03  0.12509000000E+03 0.  0.
<mgrwt>
<rscale>  2 0.45170832E+03</rscale>
<asrwt>0</asrwt>
<pdfrwt beam="1">  1       21 0.65781237E-02 0.45170832E+03</pdfrwt>
<pdfrwt beam="2">  1       21 0.16770126E+00 0.45170832E+03</pdfrwt>
<totfact> 0.33482264E+04</totfact>
</mgrwt>
</event>
<event>
 7    0  0.4714446E-002  0.4501498E+03  0.7546771E-02  0.1027677E+00
         21   -1    0    0  502  501  0.00000000000E+00  0.00000000000E+00  0.21105328102E+04  0.21105328102E+04  0.00000000000E+00 0. -1.
         21   -1    0    0  501  502 -0.00000000000E+00 -0.00000000000E+00 -0.24002808610E+02  0.24002808610E+02  0.00000000000E+00 0. -1.
      99926    2    1    2    0    0  0.00000000000E+00  0.00000000000E+00  0.20865300016E+04  0.21345356188E+04  0.45014981999E+03 0.  0.
      99925    2    3    3    0    0  0.94128968211E+02  0.53028220552E+02  0.13763035339E+04  0.14053296134E+04  0.26280724879E+03 0.  0.
         25    1    4    4    0    0  0.51943905078E+02 -0.10749700973E+02  0.73819456017E+03  0.75059472560E+03  0.12509000000E+03 0.  0.
         25    1    4    4    0    0  0.42185063133E+02  0.63777921525E+02  0.63810897377E+03  0.65473488783E+03  0.12509000000E+03 0.  0.
         25    1    3    3    0    0 -0.94128968211E+02 -0.53028220552E+02  0.71022646761E+03  0.72920600534E+03  0.12509000000E+03 0.  0.
<mgrwt>
<rscale>  2 0.45014982E+03</rscale>
<asrwt>0</asrwt>
<pdfrwt beam="1">  1       21 0.31037234E+00 0.45014982E+03</pdfrwt>
<pdfrwt beam="2">  1       21 0.35298263E-02 0.45014982E+03</pdfrwt>
<totfact> 0.12083775E+04</totfact>
</mgrwt>
</event>
<event>
 7    0  0.4714446E-002  0.4465311E+03  0.7546771E-02  0.1028762E+00
         21   -1    0    0  502  501  0.00000000000E+00  0.00000000000E+00  0.37984906214E+03  0.37984906214E+03  0.00000000000E+00 0.  1.
         21   -1    0    0  501  502 -0.00000000000E+00 -0.00000000000E+00 -0.13122977387E+03  0.13122977387E+03  0.00000000000E+00 0.  1.
      99926    2    1    2    0    0 -0.72858385991E-15  0.00000000000E+00  0.24861928828E+03  0.51107883601E+03  0.44653110319E+03 0.  0.
      99925    2    3    3    0    0 -0.44835785620E-01  0.97848631237E+02  0.11409329645E+03  0.30294640888E+03  0.26303020685E+03 0.  0.
         25    1    4    4    0    0 -0.22491509947E+02  0.29546305249E+02  0.85098667019E+02  0.15578235908E+03  0.12509000000E+03 0.  0.
         25    1    4    4    0    0  0.22446674161E+02  0.68302325988E+02  0.28994629426E+02  0.14716404979E+03  0.12509000000E+03 0.  0.
         25    1    3    3    0    0  0.44835785620E-01 -0.97848631237E+02  0.13452599183E+03  0.20813242713E+03  0.12509000000E+03 0.  0.
<mgrwt>
<rscale>  2 0.44653110E+03</rscale>
<asrwt>0</asrwt>
<pdfrwt beam="1">  1       21 0.55860156E-01 0.44653110E+03</pdfrwt>
<pdfrwt beam="2">  1       21 0.19298496E-01 0.44653110E+03</pdfrwt>
<totfact> 0.69022036E+04</totfact>
</mgrwt>
</event>
<event>
 7    0  0.4714446E-002  0.4540030E+03  0.7546771E-02  0.1026535E+00
         21   -1    0    0  502  501  0.00000000000E+00  0.00000000000E+00  0.60718968560E+03  0.60718968560E+03  0.00000000000E+00 0.  1.
         21   -1    0    0  501  502 -0.00000000000E+00 -0.00000000000E+00 -0.84865862580E+02  0.84865862580E+02  0.00000000000E+00 0.  1.
      99926    2    1    2    0    0  0.00000000000E+00  0.00000000000E+00  0.52232382302E+03  0.69205554818E+03  0.45400297981E+03 0.  0.
      99925    2    3    3    0    0 -0.43736594376E+02 -0.24824164361E+02  0.17461681485E+03  0.31912552733E+03  0.26233745699E+03 0.  0.
         25    1    3    3    0    0  0.43736594376E+02  0.24824164361E+02  0.34770700817E+03  0.37293002085E+03  0.12509000000E+03 0.  0.
         25    1    4    4    0    0  0.82755169790E+01  0.13228033733E+02  0.90558394262E+02  0.15521532118E+03  0.12509000000E+03 0.  0.
         25    1    4    4    0    0 -0.52012111355E+02 -0.38052198095E+02  0.84058420590E+02  0.16391020615E+03  0.12509000000E+03 0.  0.
<mgrwt>
<rscale>  2 0.45400298E+03</rscale>
<asrwt>0</asrwt>
<pdfrwt beam="1">  1       21 0.89292598E-01 0.45400298E+03</pdfrwt>
<pdfrwt beam="2">  1       21 0.12480274E-01 0.45400298E+03</pdfrwt>
<totfact> 0.53757132E+04</totfact>
</mgrwt>
</event>
<event>
 7    0  0.4714446E-002  0.4473159E+03  0.7546771E-02  0.1028526E+00
         21   -1    0    0  502  501  0.00000000000E+00  0.00000000000E+00  0.71785724356E+02  0.71785724356E+02  0.00000000000E+00 0. -1.
         21   -1    0    0  501  502 -0.00000000000E+00 -0.00000000000E+00 -0.69683589383E+03  0.69683589383E+03  0.00000000000E+00 0. -1.
      99926    2    1    2    0    0  0.00000000000E+00  0.14210854715E-13 -0.62505016948E+03  0.76862161819E+03  0.44731585886E+03 0.  0.
      99925    2    3    3    0    0 -0.21181169496E+02  0.10205782816E+03 -0.42781674144E+03  0.51286201335E+03  0.26293694730E+03 0.  0.
         25    1    3    3    0    0  0.21181169496E+02 -0.10205782816E+03 -0.19723342804E+03  0.25575960484E+03  0.12509000000E+03 0.  0.
         25    1    4    4    0    0 -0.35550487837E+01  0.91833932215E+02 -0.21523518117E+03  0.26536729413E+03  0.12509000000E+03 0.  0.
         25    1    4    4    0    0 -0.17626120712E+02  0.10223895948E+02 -0.21258156027E+03  0.24749471923E+03  0.12509000000E+03 0.  0.
<mgrwt>
<rscale>  2 0.44731586E+03</rscale>
<asrwt>0</asrwt>
<pdfrwt beam="1">  1       21 0.10556725E-01 0.44731586E+03</pdfrwt>
<pdfrwt beam="2">  1       21 0.10247586E+00 0.44731586E+03</pdfrwt>
<totfact> 0.52410709E+04</totfact>
</mgrwt>
</event>
<event>
 6    0  0.4714446E-002  0.4467651E+03  0.7546771E-02  0.1028691E+00
         21   -1    0    0  502  501  0.00000000000E+00  0.00000000000E+00  0.16980602140E+04  0.16980602140E+04  0.00000000000E+00 0.  1.
         21   -1    0    0  501  502 -0.00000000000E+00 -0.00000000000E+00 -0.29386338465E+02  0.29386338465E+02  0.00000000000E+00 0.  1.
      99926    2    1    2    0    0  0.00000000000E+00  0.00000000000E+00  0.16686738755E+04  0.17274465525E+04  0.44676513822E+03 0.  0.
         25    1    3    3    0    0  0.46933277949E+02  0.26135480598E+02  0.39680032403E+03  0.41950423261E+03  0.12509000000E+03 0.  0.
         25    1    3    3    0    0 -0.81889176987E+02 -0.58799560777E+02  0.52063190652E+03  0.54485623410E+03  0.12509000000E+03 0.  0.
         25    1    3    3    0    0  0.34955899037E+02  0.32664080178E+02  0.75124164498E+03  0.76308608575E+03  0.12509000000E+03 0.  0.
<mgrwt>
<rscale>  2 0.44676514E+03</rscale>
<asrwt>0</asrwt>
<pdfrwt beam="1">  1       21 0.24971467E+00 0.44676514E+03</pdfrwt>
<pdfrwt beam="2">  1       21 0.43215215E-02 0.44676514E+03</pdfrwt>
<totfact> 0.19940867E+04</totfact>
</mgrwt>
</event>
<event>
 7    0  0.4714446E-002  0.4535891E+03  0.7546771E-02  0.1026657E+00
         21   -1    0    0  502  501  0.00000000000E+00  0.00000000000E+00  0.29540989516E+02  0.29540989516E+02  0.00000000000E+00 0.  1.
         21   -1    0    0  501  502 -0.00000000000E+00 -0.00000000000E+00 -0.17411657377E+04  0.17411657377E+04  0.00000000000E+00 0.  1.
      99926    2    1    2    0    0  0.00000000000E+00  0.00000000000E+00 -0.17116247482E+04  0.17707067273E+04  0.45358905985E+03 0.  0.
      99925    2    3    3    0    0 -0.98959980873E+02  0.71892805500E+01 -0.87477565399E+03  0.91876266912E+03  0.26276916446E+03 0.  0.
         25    1    4    4    0    0 -0.45347452048E+02  0.85790437132E+01 -0.30346643240E+03  0.33146549608E+03  0.12509000000E+03 0.  0.
         25    1    4    4    0    0 -0.53612528824E+02 -0.13897631632E+01 -0.57130922158E+03  0.58729717303E+03  0.12509000000E+03 0.  0.
         25    1    3    3    0    0  0.98959980873E+02 -0.71892805500E+01 -0.83684909424E+03  0.85194405814E+03  0.12509000000E+03 0.  0.
<mgrwt>
<rscale>  2 0.45358906E+03</rscale>
<asrwt>0</asrwt>
<pdfrwt beam="1">  1       21 0.43442628E-02 0.45358906E+03</pdfrwt>
<pdfrwt beam="2">  1       21 0.25605381E+00 0.45358906E+03</pdfrwt>
<totfact> 0.18025801E+04</totfact>
</mgrwt>
</event>
<event>
 7    0  0.4714446E-002  0.4559104E+03  0.7546771E-02  0.1025974E+00
         21   -1    0    0  502  501  0.00000000000E+00  0.00000000000E+00  0.16519058253E+03  0.16519058253E+03  0.00000000000E+00 0. -1.
         21   -1    0    0  501  502 -0.00000000000E+00 -0.00000000000E+00 -0.31456743031E+03  0.31456743031E+03  0.00000000000E+00 0. -1.
      99926    2    1    2    0    0  0.00000000000E+00  0.35527136788E-14 -0.14937684778E+03  0.47975801284E+03  0.45591041689E+03 0.  0.
      99925    2    3    3    0    0  0.91333479152E+02  0.19887073117E+02 -0.16267323986E+03  0.32303659684E+03  0.26296912335E+03 0.  0.
         25    1    3    3    0    0 -0.91333479152E+02 -0.19887073117E+02  0.13296392083E+02  0.15672141600E+03  0.12509000000E+03 0.  0.
         25    1    4    4    0    0  0.33898139239E+02  0.45857163581E+02 -0.63648538491E+02  0.15149458026E+03  0.12509000000E+03 0.  0.
         25    1    4    4    0    0  0.57435339913E+02 -0.25970090464E+02 -0.99024701372E+02  0.17154201658E+03  0.12509000000E+03 0.  0.
<mgrwt>
<rscale>  2 0.45591042E+03</rscale>
<asrwt>0</asrwt>
<pdfrwt beam="1">  1       21 0.24292733E-01 0.45591042E+03</pdfrwt>
<pdfrwt beam="2">  1       21 0.46259916E-01 0.45591042E+03</pdfrwt>
<totfact> 0.66237772E+04</totfact>
</mgrwt>
</event>
<event>
 7    0  0.4714446E-002  0.4519417E+03  0.7546771E-02  0.1027145E+00
         21   -1    0    0  502  501  0.00000000000E+00  0.00000000000E+00  0.46833408925E+02  0.46833408925E+02  0.00000000000E+00 0. -1.
         21   -1    0    0  501  502 -0.00000000000E+00 -0.00000000000E+00 -0.10903076853E+04  0.10903076853E+04  0.00000000000E+00 0. -1.
      99926    2    1    2    0    0 -0.71054273576E-14 -0.14210854715E-13 -0.10434742764E+04  0.11371410942E+04  0.45194170279E+03 0.  0.
      99925    2    3    3    0    0  0.53733183314E+02  0.90841375333E+02 -0.73899718090E+03  0.79146318022E+03  0.26297855769E+03 0.  0.
         25    1    4    4    0    0  0.67587825626E+02  0.41784252706E+02 -0.37634866846E+03  0.40447480304E+03  0.12509000000E+03 0.  0.
         25    1    3    3    0    0 -0.53733183314E+02 -0.90841375333E+02 -0.30447709547E+03  0.34567791400E+03  0.12509000000E+03 0.  0.
         25    1    4    4    0    0 -0.13854642312E+02  0.49057122627E+02 -0.36264851244E+03  0.38698837718E+03  0.12509000000E+03 0.  0.
<mgrwt>
<rscale>  2 0.45194170E+03</rscale>
<asrwt>0</asrwt>
<pdfrwt beam="1">  1       21 0.68872667E-02 0.45194170E+03</pdfrwt>
<pdfrwt beam="2">  1       21 0.16033935E+00 0.45194170E+03</pdfrwt>
<totfact> 0.35042555E+04</totfact>
</mgrwt>
</event>
<event>
 7    0  0.4714446E-002  0.4430939E+03  0.7546771E-02  0.1029802E+00
         21   -1    0    0  502  501  0.00000000000E+00  0.00000000000E+00  0.51368959332E+03  0.51368959332E+03  0.00000000000E+00 0. -1.
         21   -1    0    0  501  502 -0.00000000000E+00 -0.00000000000E+00 -0.95550028595E+02  0.95550028595E+02  0.00000000000E+00 0. -1.
      99926    2    1    2    0    0  0.00000000000E+00  0.44408920985E-15  0.41813956472E+03  0.60923962191E+03  0.44309391930E+03 0.  0.
      99925    2    3    3    0    0 -0.93602559076E+02 -0.10066189608E+01  0.32311656119E+03  0.42637537815E+03  0.26197175159E+03 0.  0.
         25    1    4    4    0    0 -0.15345484099E+02 -0.87331391311E+01  0.18569799326E+03  0.22459520120E+03  0.12509000000E+03 0.  0.
         25    1    4    4    0    0 -0.78257074977E+02  0.77265201703E+01  0.13741856793E+03  0.20178017695E+03  0.12509000000E+03 0.  0.
         25    1    3    3    0    0  0.93602559076E+02  0.10066189608E+01  0.95023003534E+02  0.18286424377E+03  0.12509000000E+03 0.  0.
<mgrwt>
<rscale>  2 0.44309392E+03</rscale>
<asrwt>0</asrwt>
<pdfrwt beam="1">  1       21 0.75542586E-01 0.44309392E+03</pdfrwt>
<pdfrwt beam="2">  1       21 0.14051475E-01 0.44309392E+03</pdfrwt>
<totfact> 0.63915014E+04</totfact>
</mgrwt>
</event>
<event>
 7    0  0.4714446E-002  0.4557167E+03  0.7546771E-02  0.1026031E+00
         21   -1    0    0  502  501  0.00000000000E+00  0.00000000000E+00  0.17316007476E+04  0.17316007476E+04  0.00000000000E+00 0.  1.
         21   -1    0    0  501  502 -0.00000000000E+00 -0.00000000000E+00 -0.29983490188E+02  0.29983490188E+02  0.00000000000E+00 0.  1.
      99926    2    1    2    0    0  0.14210854715E-13 -0.14210854715E-13  0.17016172574E+04  0.17615842378E+04  0.45571672792E+03 0.  0.
      99925    2    3    3    0    0  0.87503153782E+02 -0.64455425541E+02  0.94281932795E+03  0.98490340910E+03  0.26327767906E+03 0.  0.
         25    1    4    4    0    0  0.77396430859E+02 -0.56042262948E+02  0.47108355731E+03  0.49668719413E+03  0.12509000000E+03 0.  0.
         25    1    3    3    0    0 -0.87503153782E+02  0.64455425541E+02  0.75879792949E+03  0.77668082872E+03  0.12509000000E+03 0.  0.
         25    1    4    4    0    0  0.10106722923E+02 -0.84131625927E+01  0.47173577064E+03  0.48821621497E+03  0.12509000000E+03 0.  0.
<mgrwt>
<rscale>  2 0.45571673E+03</rscale>
<asrwt>0</asrwt>
<pdfrwt beam="1">  1       21 0.25464710E+00 0.45571673E+03</pdfrwt>
<pdfrwt beam="2">  1       21 0.44093380E-02 0.45571673E+03</pdfrwt>
<totfact> 0.17909566E+04</totfact>
</mgrwt>
</event>
<event>
 7    0  0.4714446E-002  0.4559521E+03  0.7546771E-02  0.1025962E+00
         21   -1    0    0  502  501  0.00000000000E+00  0.00000000000E+00  0.57925654594E+03  0.57925654594E+03  0.00000000000E+00 0.  1.
         21   -1    0    0  501  502 -0.00000000000E+00 -0.00000000000E+00 -0.89723749171E+02  0.89723749171E+02  0.00000000000E+00 0.  1.
      99926    2    1    2    0    0  0.14210854715E-13 -0.35527136788E-14  0.48953279677E+03  0.66898029511E+03  0.45595205464E+03 0.  0.
      99925    2    3    3    0    0  0.98525440732E+02 -0.28098432794E+02  0.23410730779E+03  0.36667833858E+03  0.26296385309E+03 0.  0.
         25    1    4    4    0    0  0.44093866581E+02 -0.52183677330E+02  0.13529453560E+03  0.19651850985E+03  0.12509000000E+03 0.  0.
         25    1    4    4    0    0  0.54431574150E+02  0.24085244536E+02  0.98812772189E+02  0.17015982874E+03  0.12509000000E+03 0.  0.
         25    1    3    3    0    0 -0.98525440732E+02  0.28098432794E+02  0.25542548899E+03  0.30230195653E+03  0.12509000000E+03 0.  0.
<mgrwt>
<rscale>  2 0.45595205E+03</rscale>
<asrwt>0</asrwt>
<pdfrwt beam="1">  1       21 0.85184785E-01 0.45595205E+03</pdfrwt>
<pdfrwt beam="2">  1       21 0.13194669E-01 0.45595205E+03</pdfrwt>
<totfact> 0.54211691E+04</totfact>
</mgrwt>
</event>
<event>
 7    0  0.4714446E-002  0.4010515E+03  0.7546771E-02  0.1043416E+00
         21   -1    0    0  502  501  0.00000000000E+00  0.00000000000E+00  0.64299238459E+03  0.64299238459E+03  0.00000000000E+00 0. -1.
         21   -1    0    0  501  502 -0.00000000000E+00 -0.00000000000E+00 -0.62536616121E+02  0.62536616121E+02  0.00000000000E+00 0. -1.
      99926    2    1    2    0    0  0.00000000000E+00 -0.35527136788E-14  0.58045576847E+03  0.70552900072E+03  0.40105145767E+03 0.  0.
      99925    2    3    3    0    0  0.12751295475E+02 -0.31389049194E+02  0.44525172732E+03  0.51824443437E+03  0.26302152979E+03 0.  0.
         25    1    4    4    0    0 -0.97979073624E+01  0.17755729779E+02  0.24792342173E+03  0.27843274964E+03  0.12509000000E+03 0.  0.
         25    1    4    4    0    0  0.22549202838E+02 -0.49144778973E+02  0.19732830559E+03  0.23981168473E+03  0.12509000000E+03 0.  0.
         25    1    3    3    0    0 -0.12751295475E+02  0.31389049194E+02  0.13520404116E+03  0.18728456634E+03  0.12509000000E+03 0.  0.
<mgrwt>
<rscale>  2 0.40105146E+03</rscale>
<asrwt>0</asrwt>
<pdfrwt beam="1">  1       21 0.94557700E-01 0.40105146E+03</pdfrwt>
<pdfrwt beam="2">  1       21 0.91965616E-02 0.40105146E+03</pdfrwt>
<totfact> 0.82400502E+04</totfact>
</mgrwt>
</event>
<event>
 7    0  0.4714446E-002  0.4498355E+03  0.7546771E-02  0.1027771E+00
         21   -1    0    0  502  501  0.00000000000E+00  0.00000000000E+00  0.15542570612E+04  0.15542570612E+04  0.00000000000E+00 0.  1.
         21   -1    0    0  501  502 -0.00000000000E+00 -0.00000000000E+00 -0.32548021773E+02  0.32548021773E+02  0.00000000000E+00 0.  1.
      99926    2    1    2    0    0 -0.14210854715E-13  0.71054273576E-14  0.15217090394E+04  0.15868050829E+04  0.44983549290E+03 0.  0.
      99925    2    3    3    0    0 -0.86024803011E+02  0.37346045418E+02  0.11528366818E+04  0.11861689411E+04  0.26300066180E+03 0.  0.
         25    1    4    4    0    0 -0.76995089374E+02 -0.10488739607E+00  0.66946242483E+03  0.68538726363E+03  0.12509000000E+03 0.  0.
         25    1    3    3    0    0  0.86024803011E+02 -0.37346045418E+02  0.36887235755E+03  0.40063614179E+03  0.12509000000E+03 0.  0.
         25    1    4    4    0    0 -0.90297136365E+01  0.37450932814E+02  0.48337425700E+03  0.50078167751E+03  0.12509000000E+03 0.  0.
<mgrwt>
<rscale>  2 0.44983549E+03</rscale>
<asrwt>0</asrwt>
<pdfrwt beam="1">  1       21 0.22856717E+00 0.44983549E+03</pdfrwt>
<pdfrwt beam="2">  1       21 0.47864748E-02 0.44983549E+03</pdfrwt>
<totfact> 0.22623346E+04</totfact>
</mgrwt>
</event>
<event>
 7    0  0.4714446E-002  0.4305423E+03  0.7546771E-02  0.1033689E+00
         21   -1    0    0  502  501  0.00000000000E+00  0.00000000000E+00  0.16233153076E+04  0.16233153076E+04  0.00000000000E+00 0. -1.
         21   -1    0    0  501  502 -0.00000000000E+00 -0.00000000000E+00 -0.28547540375E+02  0.28547540375E+02  0.00000000000E+00 0. -1.
      99926    2    1    2    0    0  0.35527136788E-14 -0.71054273576E-14  0.15947677672E+04  0.16518628479E+04  0.43054225941E+03 0.  0.
      99925    2    3    3    0    0  0.23426543976E+02 -0.59967040380E+02  0.79624422144E+03  0.84104091304E+03  0.26305913468E+03 0.  0.
         25    1    4    4    0    0 -0.68287808667E+01 -0.51213123510E+02  0.49870022989E+03  0.51673866089E+03  0.12509000000E+03 0.  0.
         25    1    4    4    0    0  0.30255324843E+02 -0.87539168692E+01  0.29754399155E+03  0.32430225215E+03  0.12509000000E+03 0.  0.
         25    1    3    3    0    0 -0.23426543976E+02  0.59967040380E+02  0.79852354575E+03  0.81082193490E+03  0.12509000000E+03 0.  0.
<mgrwt>
<rscale>  2 0.43054226E+03</rscale>
<asrwt>0</asrwt>
<pdfrwt beam="1">  1       21 0.23872278E+00 0.43054226E+03</pdfrwt>
<pdfrwt beam="2">  1       21 0.41981688E-02 0.43054226E+03</pdfrwt>
<totfact> 0.24640355E+04</totfact>
</mgrwt>
</event>
<event>
 7    0  0.4714446E-002  0.4538530E+03  0.7546771E-02  0.1026579E+00
         21   -1    0    0  502  501  0.00000000000E+00  0.00000000000E+00  0.38073342958E+03  0.38073342958E+03  0.00000000000E+00 0. -1.
         21   -1    0    0  501  502 -0.00000000000E+00 -0.00000000000E+00 -0.13525380808E+03  0.13525380808E+03  0.00000000000E+00 0. -1.
      99926    2    1    2    0    0  0.00000000000E+00  0.00000000000E+00  0.24547962150E+03  0.51598723766E+03  0.45385304324E+03 0.  0.
      99925    2    3    3    0    0 -0.34158423669E+02  0.25481867243E+02  0.27248971327E+03  0.38110515352E+03  0.26301021032E+03 0.  0.
         25    1    3    3    0    0  0.34158423669E+02 -0.25481867243E+02 -0.27010091769E+02  0.13488208414E+03  0.12509000000E+03 0.  0.
         25    1    4    4    0    0 -0.16196726772E+02 -0.14082563349E+02  0.17719544344E+03  0.21795959677E+03  0.12509000000E+03 0.  0.
         25    1    4    4    0    0 -0.17961696897E+02  0.39564430592E+02  0.95294269832E+02  0.16314555675E+03  0.12509000000E+03 0.  0.
<mgrwt>
<rscale>  2 0.45385304E+03</rscale>
<asrwt>0</asrwt>
<pdfrwt beam="1">  1       21 0.55990210E-01 0.45385304E+03</pdfrwt>
<pdfrwt beam="2">  1       21 0.19890266E-01 0.45385304E+03</pdfrwt>
<totfact> 0.64748745E+04</totfact>
</mgrwt>
</event>
<event>
 7    0  0.4714446E-002  0.4546544E+03  0.7546771E-02  0.1026343E+00
         21   -1    0    0  502  501  0.00000000000E+00  0.00000000000E+00  0.19329732956E+03  0.19329732956E+03  0.00000000000E+00 0. -1.
         21   -1    0    0  501  502 -0.00000000000E+00 -0.00000000000E+00 -0.26734806080E+03  0.26734806080E+03  0.00000000000E+00 0. -1.
      99926    2    1    2    0    0  0.00000000000E+00  0.00000000000E+00 -0.74050731235E+02  0.46064539036E+03  0.45465444555E+03 0.  0.
      99925    2    3    3    0    0 -0.18682499207E+02 -0.99717770144E+02 -0.96608375746E+02  0.29801382858E+03  0.26303306694E+03 0.  0.
         25    1    4    4    0    0 -0.19971531387E+02 -0.35907337472E+02 -0.78806519171E+01  0.13190076469E+03  0.12509000000E+03 0.  0.
         25    1    4    4    0    0  0.12890321801E+01 -0.63810432672E+02 -0.88727723829E+02  0.16611306390E+03  0.12509000000E+03 0.  0.
         25    1    3    3    0    0  0.18682499207E+02  0.99717770144E+02  0.22557644511E+02  0.16263156177E+03  0.12509000000E+03 0.  0.
<mgrwt>
<rscale>  2 0.45465445E+03</rscale>
<asrwt>0</asrwt>
<pdfrwt beam="1">  1       21 0.28426078E-01 0.45465445E+03</pdfrwt>
<pdfrwt beam="2">  1       21 0.39315891E-01 0.45465445E+03</pdfrwt>
<totfact> 0.68321579E+04</totfact>
</mgrwt>
</event>
<event>
 7    0  0.4714446E-002  0.4548883E+03  0.7546771E-02  0.1026274E+00
         21   -1    0    0  502  501  0.00000000000E+00  0.00000000000E+00  0.17581596046E+03  0.17581596046E+03  0.00000000000E+00 0.  1.
         21   -1    0    0  501  502 -0.00000000000E+00 -0.00000000000E+00 -0.29423291407E+03  0.29423291407E+03  0.00000000000E+00 0.  1.
      99926    2    1    2    0    0  0.00000000000E+00  0.71054273576E-14 -0.11841695361E+03  0.47004887453E+03  0.45488830447E+03 0.  0.
      99925    2    3    3    0    0  0.60143304930E+02  0.55846972419E+02  0.58472537012E+01  0.27556184983E+03  0.26299057255E+03 0.  0.
         25    1    3    3    0    0 -0.60143304930E+02 -0.55846972419E+02 -0.12426420731E+03  0.19448702470E+03  0.12509000000E+03 0.  0.
         25    1    4    4    0    0  0.30199155542E+01  0.46456525859E+02 -0.21061633945E+02  0.13512375516E+03  0.12509000000E+03 0.  0.
         25    1    4    4    0    0  0.57123389376E+02  0.93904465593E+01  0.26908887646E+02  0.14043809467E+03  0.12509000000E+03 0.  0.
<mgrwt>
<rscale>  2 0.45488830E+03</rscale>
<asrwt>0</asrwt>
<pdfrwt beam="1">  1       21 0.25855289E-01 0.45488830E+03</pdfrwt>
<pdfrwt beam="2">  1       21 0.43269546E-01 0.45488830E+03</pdfrwt>
<totfact> 0.67491862E+04</totfact>
</mgrwt>
</event>
<event>
 7    0  0.4714446E-002  0.4494140E+03  0.7546771E-02  0.1027897E+00
         21   -1    0    0  502  501  0.00000000000E+00  0.00000000000E+00  0.17506721715E+03  0.17506721715E+03  0.00000000000E+00 0. -1.
         21   -1    0    0  501  502 -0.00000000000E+00 -0.00000000000E+00 -0.28842195065E+03  0.28842195065E+03  0.00000000000E+00 0. -1.
      99926    2    1    2    0    0  0.00000000000E+00  0.00000000000E+00 -0.11335473350E+03  0.46348916780E+03  0.44941396625E+03 0.  0.
      99925    2    3    3    0    0  0.43951619815E+02  0.57267384019E+02  0.10594059129E+02  0.27316809842E+03  0.26324376108E+03 0.  0.
         25    1    4    4    0    0  0.13293930400E+02 -0.47722416203E+01  0.28571323142E+02  0.12908652711E+03  0.12509000000E+03 0.  0.
         25    1    3    3    0    0 -0.43951619815E+02 -0.57267384019E+02 -0.12394879263E+03  0.19032106938E+03  0.12509000000E+03 0.  0.
         25    1    4    4    0    0  0.30657689415E+02  0.62039625639E+02 -0.17977264013E+02  0.14408157131E+03  0.12509000000E+03 0.  0.
<mgrwt>
<rscale>  2 0.44941397E+03</rscale>
<asrwt>0</asrwt>
<pdfrwt beam="1">  1       21 0.25745179E-01 0.44941397E+03</pdfrwt>
<pdfrwt beam="2">  1       21 0.42414992E-01 0.44941397E+03</pdfrwt>
<totfact> 0.71018201E+04</totfact>
</mgrwt>
</event>
<event>
 7    0  0.4714446E-002  0.4508962E+03  0.7546771E-02  0.1027455E+00
         21   -1    0    0  502  501  0.00000000000E+00  0.00000000000E+00  0.29752985906E+02  0.29752985906E+02  0.00000000000E+00 0.  1.
         21   -1    0    0  501  502 -0.00000000000E+00 -0.00000000000E+00 -0.17082942578E+04  0.17082942578E+04  0.00000000000E+00 0.  1.
      99926    2    1    2    0    0  0.00000000000E+00  0.00000000000E+00 -0.16785412719E+04  0.17380472438E+04  0.45089624073E+03 0.  0.
      99925    2    3    3    0    0  0.48934849856E+02  0.97379405758E+02 -0.10926133200E+04  0.11290838284E+04  0.26296208179E+03 0.  0.
         25    1    4    4    0    0  0.14208649267E+02  0.59381226515E+02 -0.70324701175E+03  0.71689042636E+03  0.12509000000E+03 0.  0.
         25    1    4    4    0    0  0.34726200588E+02  0.37998179243E+02 -0.38936630823E+03  0.41219340208E+03  0.12509000000E+03 0.  0.
         25    1    3    3    0    0 -0.48934849856E+02 -0.97379405758E+02 -0.58592795197E+03  0.60896341531E+03  0.12509000000E+03 0.  0.
<mgrwt>
<rscale>  2 0.45089624E+03</rscale>
<asrwt>0</asrwt>
<pdfrwt beam="1">  1       21 0.43754396E-02 0.45089624E+03</pdfrwt>
<pdfrwt beam="2">  1       21 0.25121971E+00 0.45089624E+03</pdfrwt>
<totfact> 0.19081559E+04</totfact>
</mgrwt>
</event>
<event>
 7    0  0.4714446E-002  0.4531905E+03  0.7546771E-02  0.1026775E+00
         21   -1    0    0  502  501  0.00000000000E+00  0.00000000000E+00  0.15464378371E+03  0.15464378371E+03  0.00000000000E+00 0. -1.
         21   -1    0    0  501  502 -0.00000000000E+00 -0.00000000000E+00 -0.33202380108E+03  0.33202380108E+03  0.00000000000E+00 0. -1.
      99926    2    1    2    0    0  0.00000000000E+00  0.00000000000E+00 -0.17738001737E+03  0.48666758479E+03  0.45319054219E+03 0.  0.
      99925    2    3    3    0    0  0.44069458948E+02 -0.10194700652E+03 -0.12333919650E+03  0.31087444565E+03  0.26285938106E+03 0.  0.
         25    1    4    4    0    0  0.31518632287E+02 -0.77704506567E+02 -0.99885769334E+02  0.18070995971E+03  0.12509000000E+03 0.  0.
         25    1    3    3    0    0 -0.44069458948E+02  0.10194700652E+03 -0.54040820877E+02  0.17579313915E+03  0.12509000000E+03 0.  0.
         25    1    4    4    0    0  0.12550826661E+02 -0.24242499955E+02 -0.23453427162E+02  0.13016448594E+03  0.12509000000E+03 0.  0.
<mgrwt>
<rscale>  2 0.45319054E+03</rscale>
<asrwt>0</asrwt>
<pdfrwt beam="1">  1       21 0.22741734E-01 0.45319054E+03</pdfrwt>
<pdfrwt beam="2">  1       21 0.48827028E-01 0.45319054E+03</pdfrwt>
<totfact> 0.67177665E+04</totfact>
</mgrwt>
</event>
<event>
 7    0  0.4714446E-002  0.4656291E+03  0.7546771E-02  0.1023161E+00
         21   -1    0    0  502  501  0.00000000000E+00  0.00000000000E+00  0.83465171957E+03  0.83465171957E+03  0.00000000000E+00 0.  1.
         21   -1    0    0  501  502 -0.00000000000E+00 -0.00000000000E+00 -0.64940405779E+02  0.64940405779E+02  0.00000000000E+00 0.  1.
      99926    2    1    2    0    0  0.00000000000E+00  0.17763568394E-14  0.76971131379E+03  0.89959212535E+03  0.46562912861E+03 0.  0.
      99925    2    3    3    0    0 -0.34007799031E+02  0.12796421542E+02  0.25305894409E+03  0.36677183856E+03  0.26298759206E+03 0.  0.
         25    1    3    3    0    0  0.34007799031E+02 -0.12796421542E+02  0.51665236970E+03  0.53282028679E+03  0.12509000000E+03 0.  0.
         25    1    4    4    0    0  0.38101727058E+01 -0.28453592023E+02  0.12757897397E+03  0.18096415947E+03  0.12509000000E+03 0.  0.
         25    1    4    4    0    0 -0.37817971737E+02  0.41250013565E+02  0.12547997012E+03  0.18580767909E+03  0.12509000000E+03 0.  0.
<mgrwt>
<rscale>  2 0.46562913E+03</rscale>
<asrwt>0</asrwt>
<pdfrwt beam="1">  1       21 0.12274289E+00 0.46562913E+03</pdfrwt>
<pdfrwt beam="2">  1       21 0.95500602E-02 0.46562913E+03</pdfrwt>
<totfact> 0.39831539E+04</totfact>
</mgrwt>
</event>
<event>
 7    0  0.4714446E-002  0.4543300E+03  0.7546771E-02  0.1026439E+00
         21   -1    0    0  502  501  0.00000000000E+00  0.00000000000E+00  0.18702261201E+03  0.18702261201E+03  0.00000000000E+00 0. -1.
         21   -1    0    0  501  502 -0.00000000000E+00 -0.00000000000E+00 -0.27592356832E+03  0.27592356832E+03  0.00000000000E+00 0. -1.
      99926    2    1    2    0    0  0.17763568394E-14  0.00000000000E+00 -0.88900956312E+02  0.46294618034E+03  0.45433004067E+03 0.  0.
      99925    2    3    3    0    0 -0.13948429242E+02  0.42508914166E+02 -0.16128629051E+03  0.31165602478E+03  0.26289664093E+03 0.  0.
         25    1    4    4    0    0 -0.33757727274E+02  0.51358348018E+02 -0.92317766800E+02  0.16717458607E+03  0.12509000000E+03 0.  0.
         25    1    3    3    0    0  0.13948429242E+02 -0.42508914166E+02  0.72385334195E+02  0.15129015556E+03  0.12509000000E+03 0.  0.
         25    1    4    4    0    0  0.19809298032E+02 -0.88494338517E+01 -0.68968523708E+02  0.14448143871E+03  0.12509000000E+03 0.  0.
<mgrwt>
<rscale>  2 0.45433004E+03</rscale>
<asrwt>0</asrwt>
<pdfrwt beam="1">  1       21 0.27503326E-01 0.45433004E+03</pdfrwt>
<pdfrwt beam="2">  1       21 0.40576995E-01 0.45433004E+03</pdfrwt>
<totfact> 0.68326095E+04</totfact>
</mgrwt>
</event>
<event>
 7    0  0.4714446E-002  0.4331255E+03  0.7546771E-02  0.1032877E+00
         21   -1    0    0  502  501  0.00000000000E+00  0.00000000000E+00  0.10743768356E+04  0.10743768356E+04  0.00000000000E+00 0.  1.
         21   -1    0    0  501  502 -0.00000000000E+00 -0.00000000000E+00 -0.43652671668E+02  0.43652671668E+02  0.00000000000E+00 0.  1.
      99926    2    1    2    0    0  0.14210854715E-13  0.17763568394E-14  0.10307241640E+04  0.11180295073E+04  0.43312547491E+03 0.  0.
      99925    2    3    3    0    0 -0.86186162365E+02  0.14360693399E+02  0.72910297478E+03  0.78001007892E+03  0.26304047461E+03 0.  0.
         25    1    3    3    0    0  0.86186162365E+02 -0.14360693399E+02  0.30162118919E+03  0.33801942839E+03  0.12509000000E+03 0.  0.
         25    1    4    4    0    0 -0.75248193660E+01  0.25756961186E+02  0.30447563676E+03  0.33026196486E+03  0.12509000000E+03 0.  0.
         25    1    4    4    0    0 -0.78661342999E+02 -0.11396267787E+02  0.42462733802E+03  0.44974811406E+03  0.12509000000E+03 0.  0.
<mgrwt>
<rscale>  2 0.43312547E+03</rscale>
<asrwt>0</asrwt>
<pdfrwt beam="1">  1       21 0.15799658E+00 0.43312547E+03</pdfrwt>
<pdfrwt beam="2">  1       21 0.64195112E-02 0.43312547E+03</pdfrwt>
<totfact> 0.41507595E+04</totfact>
</mgrwt>
</event>
<event>
 7    0  0.4714446E-002  0.4547794E+03  0.7546771E-02  0.1026306E+00
         21   -1    0    0  502  501  0.00000000000E+00  0.00000000000E+00  0.35492649077E+02  0.35492649077E+02  0.00000000000E+00 0.  1.
         21   -1    0    0  501  502 -0.00000000000E+00 -0.00000000000E+00 -0.14568111470E+04  0.14568111470E+04  0.00000000000E+00 0.  1.
      99926    2    1    2    0    0  0.00000000000E+00 -0.35527136788E-14 -0.14213184979E+04  0.14923037960E+04  0.45477944901E+03 0.  0.
      99925    2    3    3    0    0  0.10932434110E+03 -0.27822941297E+02 -0.91344518513E+03  0.95722554239E+03  0.26300704391E+03 0.  0.
         25    1    4    4    0    0  0.66700113123E+02  0.23968315567E+02 -0.48696684468E+03  0.50774757622E+03  0.12509000000E+03 0.  0.
         25    1    3    3    0    0 -0.10932434110E+03  0.27822941297E+02 -0.50787331276E+03  0.53507825365E+03  0.12509000000E+03 0.  0.
         25    1    4    4    0    0  0.42624227976E+02 -0.51791256863E+02 -0.42647834045E+03  0.44947796617E+03  0.12509000000E+03 0.  0.
<mgrwt>
<rscale>  2 0.45477945E+03</rscale>
<asrwt>0</asrwt>
<pdfrwt beam="1">  1       21 0.52195088E-02 0.45477945E+03</pdfrwt>
<pdfrwt beam="2">  1       21 0.21423687E+00 0.45477945E+03</pdfrwt>
<totfact> 0.24009492E+04</totfact>
</mgrwt>
</event>
<event>
 7    0  0.4714446E-002  0.4613898E+03  0.7546771E-02  0.1024379E+00
         21   -1    0    0  502  501  0.00000000000E+00  0.00000000000E+00  0.79695771486E+02  0.79695771486E+02  0.00000000000E+00 0. -1.
         21   -1    0    0  501  502 -0.00000000000E+00 -0.00000000000E+00 -0.66779136151E+03  0.66779136151E+03  0.00000000000E+00 0. -1.
      99926    2    1    2    0    0  0.71054273576E-14  0.35527136788E-14 -0.58809559003E+03  0.74748713300E+03  0.46138984708E+03 0.  0.
      99925    2    3    3    0    0 -0.33893902613E+02 -0.30319096826E+02 -0.54622749259E+03  0.60795760226E+03  0.26302077524E+03 0.  0.
         25    1    4    4    0    0  0.14247773993E+02 -0.33900768702E+02 -0.22820930841E+03  0.26282933194E+03  0.12509000000E+03 0.  0.
         25    1    4    4    0    0 -0.48141676606E+02  0.35816718762E+01 -0.31801818418E+03  0.34512827032E+03  0.12509000000E+03 0.  0.
         25    1    3    3    0    0  0.33893902613E+02  0.30319096826E+02 -0.41868097433E+02  0.13952953074E+03  0.12509000000E+03 0.  0.
<mgrwt>
<rscale>  2 0.46138985E+03</rscale>
<asrwt>0</asrwt>
<pdfrwt beam="1">  1       21 0.11719966E-01 0.46138985E+03</pdfrwt>
<pdfrwt beam="2">  1       21 0.98204614E-01 0.46138985E+03</pdfrwt>
<totfact> 0.47945572E+04</totfact>
</mgrwt>
</event>
<event>
 7    0  0.4714446E-002  0.4465985E+03  0.7546771E-02  0.1028741E+00
         21   -1    0    0  502  501  0.00000000000E+00  0.00000000000E+00  0.98842610944E+03  0.98842610944E+03  0.00000000000E+00 0. -1.
         21   -1    0    0  501  502 -0.00000000000E+00 -0.00000000000E+00 -0.50446413115E+02  0.50446413115E+02  0.00000000000E+00 0. -1.
      99926    2    1    2    0    0  0.71054273576E-14  0.00000000000E+00  0.93797969633E+03  0.10388725226E+04  0.44659848567E+03 0.  0.
      99925    2    3    3    0    0  0.43784172543E+02  0.76234706246E+02  0.72871364895E+03  0.77970352193E+03  0.26303082660E+03 0.  0.
         25    1    3    3    0    0 -0.43784172543E+02 -0.76234706246E+02  0.20926604738E+03  0.25916900063E+03  0.12509000000E+03 0.  0.
         25    1    4    4    0    0  0.19959916848E+02  0.70613748842E+02  0.45944398832E+03  0.48178935886E+03  0.12509000000E+03 0.  0.
         25    1    4    4    0    0  0.23824255695E+02  0.56209574033E+01  0.26926966063E+03  0.29791416307E+03  0.12509000000E+03 0.  0.
<mgrwt>
<rscale>  2 0.44659849E+03</rscale>
<asrwt>0</asrwt>
<pdfrwt beam="1">  1       21 0.14535677E+00 0.44659849E+03</pdfrwt>
<pdfrwt beam="2">  1       21 0.74185908E-02 0.44659849E+03</pdfrwt>
<totfact> 0.40264957E+04</totfact>
</mgrwt>
</event>
<event>
 7    0  0.4714446E-002  0.4620375E+03  0.7546771E-02  0.1024192E+00
         21   -1    0    0  502  501  0.00000000000E+00  0.00000000000E+00  0.61178377897E+02  0.61178377897E+02  0.00000000000E+00 0.  1.
         21   -1    0    0  501  502 -0.00000000000E+00 -0.00000000000E+00 -0.87236156443E+03  0.87236156443E+03  0.00000000000E+00 0.  1.
      99926    2    1    2    0    0  0.00000000000E+00  0.00000000000E+00 -0.81118318653E+03  0.93353994232E+03  0.46203751125E+03 0.  0.
      99925    2    3    3    0    0  0.47890806031E+02  0.10449059668E+03 -0.57422642320E+03  0.64197891975E+03  0.26303827517E+03 0.  0.
         25    1    4    4    0    0  0.61089178792E+02  0.68407061471E+02 -0.33910639206E+03  0.37289685848E+03  0.12509000000E+03 0.  0.
         25    1    4    4    0    0 -0.13198372761E+02  0.36083535207E+02 -0.23512003114E+03  0.26908206127E+03  0.12509000000E+03 0.  0.
         25    1    3    3    0    0 -0.47890806031E+02 -0.10449059668E+03 -0.23695676333E+03  0.29156102257E+03  0.12509000000E+03 0.  0.
<mgrwt>
<rscale>  2 0.46203751E+03</rscale>
<asrwt>0</asrwt>
<pdfrwt beam="1">  1       21 0.89968206E-02 0.46203751E+03</pdfrwt>
<pdfrwt beam="2">  1       21 0.12828846E+00 0.46203751E+03</pdfrwt>
<totfact> 0.39589679E+04</totfact>
</mgrwt>
</event>
<event>
 7    0  0.4714446E-002  0.4254137E+03  0.7546771E-02  0.1035319E+00
         21   -1    0    0  502  501  0.00000000000E+00  0.00000000000E+00  0.52852634417E+02  0.52852634417E+02  0.00000000000E+00 0.  1.
         21   -1    0    0  501  502 -0.00000000000E+00 -0.00000000000E+00 -0.85604439206E+03  0.85604439206E+03  0.00000000000E+00 0.  1.
      99926    2    1    2    0    0  0.35527136788E-14  0.00000000000E+00 -0.80319175765E+03  0.90889702648E+03  0.42541368713E+03 0.  0.
      99925    2    3    3    0    0  0.18596071694E+02  0.79624634765E+02 -0.52661677212E+03  0.59452920519E+03  0.26354099264E+03 0.  0.
         25    1    4    4    0    0 -0.18672512850E+02  0.67590195325E+02 -0.30544725670E+03  0.33743537451E+03  0.12509000000E+03 0.  0.
         25    1    4    4    0    0  0.37268584544E+02  0.12034439440E+02 -0.22116951541E+03  0.25709383068E+03  0.12509000000E+03 0.  0.
         25    1    3    3    0    0 -0.18596071694E+02 -0.79624634765E+02 -0.27657498553E+03  0.31436782129E+03  0.12509000000E+03 0.  0.
<mgrwt>
<rscale>  2 0.42541369E+03</rscale>
<asrwt>0</asrwt>
<pdfrwt beam="1">  1       21 0.77724465E-02 0.42541369E+03</pdfrwt>
<pdfrwt beam="2">  1       21 0.12588888E+00 0.42541369E+03</pdfrwt>
<totfact> 0.54391626E+04</totfact>
</mgrwt>
</event>
<event>
 7    0  0.4714446E-002  0.4588015E+03  0.7546771E-02  0.1025129E+00
         21   -1    0    0  502  501  0.00000000000E+00  0.00000000000E+00  0.80933603332E+02  0.80933603332E+02  0.00000000000E+00 0. -1.
         21   -1    0    0  501  502 -0.00000000000E+00 -0.00000000000E+00 -0.65022057860E+03  0.65022057860E+03  0.00000000000E+00 0. -1.
      99926    2    1    2    0    0  0.00000000000E+00 -0.71054273576E-14 -0.56928697527E+03  0.73115418193E+03  0.45880145766E+03 0.  0.
      99925    2    3    3    0    0  0.43815438774E+02  0.49158808501E+02 -0.20324259543E+03  0.33876104076E+03  0.26289752568E+03 0.  0.
         25    1    4    4    0    0  0.59806117737E+02  0.39636440867E+02 -0.99719360236E+02  0.17532620474E+03  0.12509000000E+03 0.  0.
         25    1    4    4    0    0 -0.15990678962E+02  0.95223676342E+01 -0.10352323520E+03  0.16343483602E+03  0.12509000000E+03 0.  0.
         25    1    3    3    0    0 -0.43815438774E+02 -0.49158808501E+02 -0.36604437984E+03  0.39239314117E+03  0.12509000000E+03 0.  0.
<mgrwt>
<rscale>  2 0.45880146E+03</rscale>
<asrwt>0</asrwt>
<pdfrwt beam="1">  1       21 0.11902000E-01 0.45880146E+03</pdfrwt>
<pdfrwt beam="2">  1       21 0.95620676E-01 0.45880146E+03</pdfrwt>
<totfact> 0.49740340E+04</totfact>
</mgrwt>
</event>
<event>
 7    0  0.4714446E-002  0.4576814E+03  0.7546771E-02  0.1025456E+00
         21   -1    0    0  502  501  0.00000000000E+00  0.00000000000E+00  0.54826064994E+03  0.54826064994E+03  0.00000000000E+00 0.  1.
         21   -1    0    0  501  502 -0.00000000000E+00 -0.00000000000E+00 -0.95516749017E+02  0.95516749017E+02  0.00000000000E+00 0.  1.
      99926    2    1    2    0    0  0.00000000000E+00  0.00000000000E+00  0.45274390092E+03  0.64377739896E+03  0.45768143898E+03 0.  0.
      99925    2    3    3    0    0  0.34091193391E+02  0.93972691254E+02  0.20346139304E+03  0.34749653052E+03  0.26337088695E+03 0.  0.
         25    1    3    3    0    0 -0.34091193391E+02 -0.93972691254E+02  0.24928250788E+03  0.29628086844E+03  0.12509000000E+03 0.  0.
         25    1    4    4    0    0 -0.24171594136E+02  0.48706022374E+02  0.94410440380E+02  0.16588363973E+03  0.12509000000E+03 0.  0.
         25    1    4    4    0    0  0.58262787527E+02  0.45266668879E+02  0.10905095266E+03  0.18161289078E+03  0.12509000000E+03 0.  0.
<mgrwt>
<rscale>  2 0.45768144E+03</rscale>
<asrwt>0</asrwt>
<pdfrwt beam="1">  1       21 0.80626565E-01 0.45768144E+03</pdfrwt>
<pdfrwt beam="2">  1       21 0.14046581E-01 0.45768144E+03</pdfrwt>
<totfact> 0.54890742E+04</totfact>
</mgrwt>
</event>
<event>
 7    0  0.4714446E-002  0.4466105E+03  0.7546771E-02  0.1028738E+00
         21   -1    0    0  502  501  0.00000000000E+00  0.00000000000E+00  0.14120845838E+03  0.14120845838E+03  0.00000000000E+00 0. -1.
         21   -1    0    0  501  502 -0.00000000000E+00 -0.00000000000E+00 -0.35313213990E+03  0.35313213990E+03  0.00000000000E+00 0. -1.
      99926    2    1    2    0    0  0.00000000000E+00  0.00000000000E+00 -0.21192368152E+03  0.49434059828E+03  0.44661054658E+03 0.  0.
      99925    2    3    3    0    0  0.48957154319E+02 -0.44379276869E+02 -0.43372735190E+02  0.27428775739E+03  0.26265234917E+03 0.  0.
         25    1    4    4    0    0  0.47194207015E+02  0.99026319811E+01 -0.28976263876E+02  0.13715862082E+03  0.12509000000E+03 0.  0.
         25    1    3    3    0    0 -0.48957154319E+02  0.44379276869E+02 -0.16855094633E+03  0.22005284089E+03  0.12509000000E+03 0.  0.
         25    1    4    4    0    0  0.17629473034E+01 -0.54281908850E+02 -0.14396471314E+02  0.13712913658E+03  0.12509000000E+03 0.  0.
<mgrwt>
<rscale>  2 0.44661055E+03</rscale>
<asrwt>0</asrwt>
<pdfrwt beam="1">  1       21 0.20765950E-01 0.44661055E+03</pdfrwt>
<pdfrwt beam="2">  1       21 0.51931196E-01 0.44661055E+03</pdfrwt>
<totfact> 0.70232071E+04</totfact>
</mgrwt>
</event>
<event>
 7    0  0.4714446E-002  0.4568506E+03  0.7546771E-02  0.1025699E+00
         21   -1    0    0  502  501  0.00000000000E+00  0.00000000000E+00  0.36208112399E+03  0.36208112399E+03  0.00000000000E+00 0.  1.
         21   -1    0    0  501  502 -0.00000000000E+00 -0.00000000000E+00 -0.14410618320E+03  0.14410618320E+03  0.00000000000E+00 0.  1.
      99926    2    1    2    0    0  0.00000000000E+00  0.00000000000E+00  0.21797494079E+03  0.50618730718E+03  0.45685064862E+03 0.  0.
      99925    2    3    3    0    0  0.41158892483E+02 -0.71924475957E+02  0.22500675040E+03  0.35597366227E+03  0.26310079025E+03 0.  0.
         25    1    3    3    0    0 -0.41158892483E+02  0.71924475957E+02 -0.70318096087E+01  0.15021364491E+03  0.12509000000E+03 0.  0.
         25    1    4    4    0    0 -0.17869840424E+02 -0.44885968345E+02  0.12335741736E+03  0.18220494469E+03  0.12509000000E+03 0.  0.
         25    1    4    4    0    0  0.59028732907E+02 -0.27038507611E+02  0.10164933304E+03  0.17376871758E+03  0.12509000000E+03 0.  0.
<mgrwt>
<rscale>  2 0.45685065E+03</rscale>
<asrwt>0</asrwt>
<pdfrwt beam="1">  1       21 0.53247224E-01 0.45685065E+03</pdfrwt>
<pdfrwt beam="2">  1       21 0.21192086E-01 0.45685065E+03</pdfrwt>
<totfact> 0.63894413E+04</totfact>
</mgrwt>
</event>
<event>
 7    0  0.4714446E-002  0.4505295E+03  0.7546771E-02  0.1027564E+00
         21   -1    0    0  502  501  0.00000000000E+00  0.00000000000E+00  0.15751408909E+03  0.15751408909E+03  0.00000000000E+00 0.  1.
         21   -1    0    0  501  502 -0.00000000000E+00 -0.00000000000E+00 -0.32215661429E+03  0.32215661429E+03  0.00000000000E+00 0.  1.
      99926    2    1    2    0    0 -0.14210854715E-13 -0.35527136788E-14 -0.16464252520E+03  0.47967070338E+03  0.45052949135E+03 0.  0.
      99925    2    3    3    0    0  0.67768974382E+02  0.20143659534E+02 -0.15311938061E+02  0.27243766243E+03  0.26265837804E+03 0.  0.
         25    1    4    4    0    0  0.22415806507E+02 -0.26392161839E+02  0.56998982656E+01  0.12991925003E+03  0.12509000000E+03 0.  0.
         25    1    3    3    0    0 -0.67768974382E+02 -0.20143659534E+02 -0.14933058714E+03  0.20723304095E+03  0.12509000000E+03 0.  0.
         25    1    4    4    0    0  0.45353167875E+02  0.46535821373E+02 -0.21011836326E+02  0.14251841240E+03  0.12509000000E+03 0.  0.
<mgrwt>
<rscale>  2 0.45052949E+03</rscale>
<asrwt>0</asrwt>
<pdfrwt beam="1">  1       21 0.23163837E-01 0.45052949E+03</pdfrwt>
<pdfrwt beam="2">  1       21 0.47375972E-01 0.45052949E+03</pdfrwt>
<totfact> 0.69145425E+04</totfact>
</mgrwt>
</event>
<event>
 7    0  0.4714446E-002  0.4447352E+03  0.7546771E-02  0.1029304E+00
         21   -1    0    0  502  501  0.00000000000E+00  0.00000000000E+00  0.87296279435E+02  0.87296279435E+02  0.00000000000E+00 0. -1.
         21   -1    0    0  501  502 -0.00000000000E+00 -0.00000000000E+00 -0.56643133466E+03  0.56643133466E+03  0.00000000000E+00 0. -1.
      99926    2    1    2    0    0  0.00000000000E+00  0.35527136788E-14 -0.47913505523E+03  0.65372761410E+03  0.44473519344E+03 0.  0.
      99925    2    3    3    0    0  0.95890643087E+02  0.28835892325E+02 -0.34093956848E+03  0.44213360479E+03  0.26308897926E+03 0.  0.
         25    1    4    4    0    0  0.53415944441E+02  0.52301288343E+02 -0.15390061625E+03  0.21194715300E+03  0.12509000000E+03 0.  0.
         25    1    4    4    0    0  0.42474698646E+02 -0.23465396018E+02 -0.18703895223E+03  0.23018645179E+03  0.12509000000E+03 0.  0.
         25    1    3    3    0    0 -0.95890643087E+02 -0.28835892325E+02 -0.13819548675E+03  0.21159400931E+03  0.12509000000E+03 0.  0.
<mgrwt>
<rscale>  2 0.44473519E+03</rscale>
<asrwt>0</asrwt>
<pdfrwt beam="1">  1       21 0.12837688E-01 0.44473519E+03</pdfrwt>
<pdfrwt beam="2">  1       21 0.83298725E-01 0.44473519E+03</pdfrwt>
<totfact> 0.60215716E+04</totfact>
</mgrwt>
</event>
<event>
 7    0  0.4714446E-002  0.4594908E+03  0.7546771E-02  0.1024929E+00
         21   -1    0    0  502  501  0.00000000000E+00  0.00000000000E+00  0.36154086237E+03  0.36154086237E+03  0.00000000000E+00 0.  1.
         21   -1    0    0  501  502 -0.00000000000E+00 -0.00000000000E+00 -0.14599441659E+03  0.14599441659E+03  0.00000000000E+00 0.  1.
      99926    2    1    2    0    0  0.00000000000E+00 -0.71054273576E-14  0.21554644577E+03  0.50753527896E+03  0.45949079327E+03 0.  0.
      99925    2    3    3    0    0 -0.81648453623E+02 -0.34689559370E+02  0.50431837228E+02  0.28219070378E+03  0.26309387599E+03 0.  0.
         25    1    4    4    0    0 -0.70344880735E+02 -0.26500827662E+01  0.12227144362E+01  0.14354242688E+03  0.12509000000E+03 0.  0.
         25    1    4    4    0    0 -0.11303572888E+02 -0.32039476604E+02  0.49209122792E+02  0.13864827690E+03  0.12509000000E+03 0.  0.
         25    1    3    3    0    0  0.81648453623E+02  0.34689559370E+02  0.16511460855E+03  0.22534457518E+03  0.12509000000E+03 0.  0.
<mgrwt>
<rscale>  2 0.45949079E+03</rscale>
<asrwt>0</asrwt>
<pdfrwt beam="1">  1       21 0.53167774E-01 0.45949079E+03</pdfrwt>
<pdfrwt beam="2">  1       21 0.21469767E-01 0.45949079E+03</pdfrwt>
<totfact> 0.62487240E+04</totfact>
</mgrwt>
</event>
<event>
 7    0  0.4714446E-002  0.4580168E+03  0.7546771E-02  0.1025358E+00
         21   -1    0    0  502  501  0.00000000000E+00  0.00000000000E+00  0.37047134621E+02  0.37047134621E+02  0.00000000000E+00 0. -1.
         21   -1    0    0  501  502 -0.00000000000E+00 -0.00000000000E+00 -0.14156252125E+04  0.14156252125E+04  0.00000000000E+00 0. -1.
      99926    2    1    2    0    0 -0.71054273576E-14  0.00000000000E+00 -0.13785780778E+04  0.14526723471E+04  0.45801684606E+03 0.  0.
      99925    2    3    3    0    0  0.45856396550E+02  0.43822733303E+02 -0.11719499273E+04  0.12029406075E+04  0.26377306918E+03 0.  0.
         25    1    3    3    0    0 -0.45856396550E+02 -0.43822733303E+02 -0.20662815056E+03  0.24973173960E+03  0.12509000000E+03 0.  0.
         25    1    4    4    0    0  0.57866369008E+02  0.31501459413E+02 -0.71627926301E+03  0.73009886271E+03  0.12509000000E+03 0.  0.
         25    1    4    4    0    0 -0.12009972458E+02  0.12321273890E+02 -0.45567066427E+03  0.47284174478E+03  0.12509000000E+03 0.  0.
<mgrwt>
<rscale>  2 0.45801685E+03</rscale>
<asrwt>0</asrwt>
<pdfrwt beam="1">  1       21 0.54481088E-02 0.45801685E+03</pdfrwt>
<pdfrwt beam="2">  1       21 0.20818015E+00 0.45801685E+03</pdfrwt>
<totfact> 0.24384931E+04</totfact>
</mgrwt>
</event>
<event>
 7    0  0.4714446E-002  0.4502661E+03  0.7546771E-02  0.1027643E+00
         21   -1    0    0  502  501  0.00000000000E+00  0.00000000000E+00  0.64211801081E+03  0.64211801081E+03  0.00000000000E+00 0. -1.
         21   -1    0    0  501  502 -0.00000000000E+00 -0.00000000000E+00 -0.78933908654E+02  0.78933908654E+02  0.00000000000E+00 0. -1.
      99926    2    1    2    0    0  0.35527136788E-14  0.00000000000E+00  0.56318410216E+03  0.72105191946E+03  0.45026607427E+03 0.  0.
      99925    2    3    3    0    0  0.23079737732E+02  0.84542045987E+02  0.25329735072E+03  0.37557060499E+03  0.26308496654E+03 0.  0.
         25    1    3    3    0    0 -0.23079737732E+02 -0.84542045987E+02  0.30988675144E+03  0.34548131448E+03  0.12509000000E+03 0.  0.
         25    1    4    4    0    0  0.18518763568E+02  0.83850840044E+02  0.12879727603E+03  0.19902299966E+03  0.12509000000E+03 0.  0.
         25    1    4    4    0    0  0.45609741633E+01  0.69120594241E+00  0.12450007468E+03  0.17654760533E+03  0.12509000000E+03 0.  0.
<mgrwt>
<rscale>  2 0.45026607E+03</rscale>
<asrwt>0</asrwt>
<pdfrwt beam="1">  1       21 0.94429116E-01 0.45026607E+03</pdfrwt>
<pdfrwt beam="2">  1       21 0.11607928E-01 0.45026607E+03</pdfrwt>
<totfact> 0.53748346E+04</totfact>
</mgrwt>
</event>
<event>
 7    0  0.4714446E-002  0.4555520E+03  0.7546771E-02  0.1026079E+00
         21   -1    0    0  502  501  0.00000000000E+00  0.00000000000E+00  0.28396702795E+02  0.28396702795E+02  0.00000000000E+00 0.  1.
         21   -1    0    0  501  502 -0.00000000000E+00 -0.00000000000E+00 -0.18270399912E+04  0.18270399912E+04  0.00000000000E+00 0.  1.
      99926    2    1    2    0    0  0.00000000000E+00  0.00000000000E+00 -0.17986432884E+04  0.18554366940E+04  0.45555202392E+03 0.  0.
      99925    2    3    3    0    0 -0.87198841460E+02  0.71723462381E+02 -0.10752609212E+04  0.11126867695E+04  0.26294087818E+03 0.  0.
         25    1    4    4    0    0 -0.58891364968E+02  0.65881297059E+02 -0.48424790116E+03  0.50788982668E+03  0.12509000000E+03 0.  0.
         25    1    3    3    0    0  0.87198841460E+02 -0.71723462381E+02 -0.72338236721E+03  0.74274992447E+03  0.12509000000E+03 0.  0.
         25    1    4    4    0    0 -0.28307476491E+02  0.58421653223E+01 -0.59101302005E+03  0.60479694285E+03  0.12509000000E+03 0.  0.
<mgrwt>
<rscale>  2 0.45555202E+03</rscale>
<asrwt>0</asrwt>
<pdfrwt beam="1">  1       21 0.41759853E-02 0.45555202E+03</pdfrwt>
<pdfrwt beam="2">  1       21 0.26868238E+00 0.45555202E+03</pdfrwt>
<totfact> 0.16147809E+04</totfact>
</mgrwt>
</event>
<event>
 7    0  0.4714446E-002  0.4596096E+03  0.7546771E-02  0.1024895E+00
         21   -1    0    0  502  501  0.00000000000E+00  0.00000000000E+00  0.37119449128E+03  0.37119449128E+03  0.00000000000E+00 0.  1.
         21   -1    0    0  501  502 -0.00000000000E+00 -0.00000000000E+00 -0.14227108528E+03  0.14227108528E+03  0.00000000000E+00 0.  1.
      99926    2    1    2    0    0  0.00000000000E+00  0.00000000000E+00  0.22892340600E+03  0.51346557655E+03  0.45960958703E+03 0.  0.
      99925    2    3    3    0    0  0.51749018795E+02  0.10473110169E+03  0.13831631009E+03  0.31980680826E+03  0.26362554574E+03 0.  0.
         25    1    4    4    0    0  0.77012334674E+00  0.77429810078E+02  0.46818051130E+02  0.15438719698E+03  0.12509000000E+03 0.  0.
         25    1    3    3    0    0 -0.51749018795E+02 -0.10473110169E+03  0.90607095914E+02  0.19365876830E+03  0.12509000000E+03 0.  0.
         25    1    4    4    0    0  0.50978895448E+02  0.27301291613E+02  0.91498258957E+02  0.16541961128E+03  0.12509000000E+03 0.  0.
<mgrwt>
<rscale>  2 0.45960959E+03</rscale>
<asrwt>0</asrwt>
<pdfrwt beam="1">  1       21 0.54587425E-01 0.45960959E+03</pdfrwt>
<pdfrwt beam="2">  1       21 0.20922218E-01 0.45960959E+03</pdfrwt>
<totfact> 0.62034054E+04</totfact>
</mgrwt>
</event>
<event>
 7    0  0.4714446E-002  0.4457809E+03  0.7546771E-02  0.1028988E+00
         21   -1    0    0  502  501  0.00000000000E+00  0.00000000000E+00  0.65753235032E+02  0.65753235032E+02  0.00000000000E+00 0.  1.
         21   -1    0    0  501  502 -0.00000000000E+00 -0.00000000000E+00 -0.75555462828E+03  0.75555462828E+03  0.00000000000E+00 0.  1.
      99926    2    1    2    0    0  0.00000000000E+00  0.00000000000E+00 -0.68980139325E+03  0.82130786332E+03  0.44578093747E+03 0.  0.
      99925    2    3    3    0    0  0.97607345906E+01  0.72319270809E+02 -0.57503353716E+03  0.63652551091E+03  0.26301294323E+03 0.  0.
         25    1    4    4    0    0  0.30693494721E+02  0.39414176492E+01 -0.27083787403E+03  0.29993047111E+03  0.12509000000E+03 0.  0.
         25    1    3    3    0    0 -0.97607345906E+01 -0.72319270809E+02 -0.11476785609E+03  0.18478235241E+03  0.12509000000E+03 0.  0.
         25    1    4    4    0    0 -0.20932760131E+02  0.68377853160E+02 -0.30419566313E+03  0.33659503980E+03  0.12509000000E+03 0.  0.
<mgrwt>
<rscale>  2 0.44578094E+03</rscale>
<asrwt>0</asrwt>
<pdfrwt beam="1">  1       21 0.96695934E-02 0.44578094E+03</pdfrwt>
<pdfrwt beam="2">  1       21 0.11111098E+00 0.44578094E+03</pdfrwt>
<totfact> 0.50291901E+04</totfact>
</mgrwt>
</event>
<event>
 7    0  0.4714446E-002  0.4553266E+03  0.7546771E-02  0.1026145E+00
         21   -1    0    0  502  501  0.00000000000E+00  0.00000000000E+00  0.51034551708E+03  0.51034551708E+03  0.00000000000E+00 0.  1.
         21   -1    0    0  501  502 -0.00000000000E+00 -0.00000000000E+00 -0.10155976938E+03  0.10155976938E+03  0.00000000000E+00 0.  1.
      99926    2    1    2    0    0 -0.17763568394E-14  0.00000000000E+00  0.40878574769E+03  0.61190528646E+03  0.45532657739E+03 0.  0.
      99925    2    3    3    0    0 -0.57976088247E+01 -0.11261493977E+03  0.27257012864E+03  0.39529979276E+03  0.26315720435E+03 0.  0.
         25    1    3    3    0    0  0.57976088247E+01  0.11261493977E+03  0.13621561905E+03  0.21660549370E+03  0.12509000000E+03 0.  0.
         25    1    4    4    0    0 -0.18713579277E+02 -0.94057519064E+02  0.13023110773E+03  0.20446189000E+03  0.12509000000E+03 0.  0.
         25    1    4    4    0    0  0.12915970452E+02 -0.18557420702E+02  0.14233902091E+03  0.19083790276E+03  0.12509000000E+03 0.  0.
<mgrwt>
<rscale>  2 0.45532658E+03</rscale>
<asrwt>0</asrwt>
<pdfrwt beam="1">  1       21 0.75050810E-01 0.45532658E+03</pdfrwt>
<pdfrwt beam="2">  1       21 0.14935260E-01 0.45532658E+03</pdfrwt>
<totfact> 0.57802145E+04</totfact>
</mgrwt>
</event>
<event>
 7    0  0.4714446E-002  0.4545211E+03  0.7546771E-02  0.1026382E+00
         21   -1    0    0  502  501  0.00000000000E+00  0.00000000000E+00  0.40921696669E+04  0.40921696669E+04  0.00000000000E+00 0. -1.
         21   -1    0    0  501  502 -0.00000000000E+00 -0.00000000000E+00 -0.12621017809E+02  0.12621017809E+02  0.00000000000E+00 0. -1.
      99926    2    1    2    0    0  0.71054273576E-14  0.00000000000E+00  0.40795486491E+04  0.41047906847E+04  0.45452105008E+03 0.  0.
      99925    2    3    3    0    0 -0.61801860933E+02  0.47067582202E+02  0.33027403335E+04  0.33141494926E+04  0.26354946744E+03 0.  0.
         25    1    4    4    0    0 -0.67202989254E+02  0.30405862777E+02  0.20164835100E+04  0.20217057186E+04  0.12509000000E+03 0.  0.
         25    1    4    4    0    0  0.54011283203E+01  0.16661719425E+02  0.12862568235E+04  0.12924437741E+04  0.12509000000E+03 0.  0.
         25    1    3    3    0    0  0.61801860933E+02 -0.47067582202E+02  0.77680831559E+03  0.79064119205E+03  0.12509000000E+03 0.  0.
<mgrwt>
<rscale>  2 0.45452105E+03</rscale>
<asrwt>0</asrwt>
<pdfrwt beam="1">  1       21 0.60178873E+00 0.45452105E+03</pdfrwt>
<pdfrwt beam="2">  1       21 0.18560349E-02 0.45452105E+03</pdfrwt>
<totfact> 0.35780154E+02</totfact>
</mgrwt>
</event>
<event>
 7    0  0.4714446E-002  0.4763770E+03  0.7546771E-02  0.1020136E+00
         21   -1    0    0  502  501  0.00000000000E+00  0.00000000000E+00  0.55386103549E+03  0.55386103549E+03  0.00000000000E+00 0.  1.
         21   -1    0    0  501  502 -0.00000000000E+00 -0.00000000000E+00 -0.10243319220E+03  0.10243319220E+03  0.00000000000E+00 0.  1.
      99926    2    1    2    0    0 -0.14210854715E-13  0.14210854715E-13  0.45142784329E+03  0.65629422769E+03  0.47637696796E+03 0.  0.
      99925    2    3    3    0    0 -0.66302727948E+02  0.10831668754E+03  0.22885001044E+03  0.37113294647E+03  0.26313262842E+03 0.  0.
         25    1    4    4    0    0 -0.14158301504E+01  0.34024894297E+02  0.75553824656E+02  0.15005194610E+03  0.12509000000E+03 0.  0.
         25    1    3    3    0    0  0.66302727948E+02 -0.10831668754E+03  0.22257783285E+03  0.28516128122E+03  0.12509000000E+03 0.  0.
         25    1    4    4    0    0 -0.64886897798E+02  0.74291793240E+02  0.15329618579E+03  0.22108100037E+03  0.12509000000E+03 0.  0.
<mgrwt>
<rscale>  2 0.47637697E+03</rscale>
<asrwt>0</asrwt>
<pdfrwt beam="1">  1       21 0.81450151E-01 0.47637697E+03</pdfrwt>
<pdfrwt beam="2">  1       21 0.15063705E-01 0.47637697E+03</pdfrwt>
<totfact> 0.46913941E+04</totfact>
</mgrwt>
</event>
<event>
 7    0  0.4714446E-002  0.4537709E+03  0.7546771E-02  0.1026603E+00
         21   -1    0    0  502  501  0.00000000000E+00  0.00000000000E+00  0.11634458749E+04  0.11634458749E+04  0.00000000000E+00 0. -1.
         21   -1    0    0  501  502 -0.00000000000E+00 -0.00000000000E+00 -0.44245286634E+02  0.44245286634E+02  0.00000000000E+00 0. -1.
      99926    2    1    2    0    0 -0.35527136788E-14  0.00000000000E+00  0.11192005883E+04  0.12076911615E+04  0.45377085062E+03 0.  0.
      99925    2    3    3    0    0  0.23096064758E+02 -0.10594103815E+03  0.63000232751E+03  0.69124234684E+03  0.26297550765E+03 0.  0.
         25    1    3    3    0    0 -0.23096064758E+02  0.10594103815E+03  0.48919826074E+03  0.51644881468E+03  0.12509000000E+03 0.  0.
         25    1    4    4    0    0 -0.14334318052E+02 -0.56629532452E+02  0.23811936980E+03  0.27524665120E+03  0.12509000000E+03 0.  0.
         25    1    4    4    0    0  0.37430382811E+02 -0.49311505701E+02  0.39188295771E+03  0.41599569564E+03  0.12509000000E+03 0.  0.
<mgrwt>
<rscale>  2 0.45377085E+03</rscale>
<asrwt>0</asrwt>
<pdfrwt beam="1">  1       21 0.17109496E+00 0.45377085E+03</pdfrwt>
<pdfrwt beam="2">  1       21 0.65066606E-02 0.45377085E+03</pdfrwt>
<totfact> 0.32220519E+04</totfact>
</mgrwt>
</event>
<event>
 7    0  0.4714446E-002  0.4551322E+03  0.7546771E-02  0.1026203E+00
         21   -1    0    0  502  501  0.00000000000E+00  0.00000000000E+00  0.34881634314E+03  0.34881634314E+03  0.00000000000E+00 0.  1.
         21   -1    0    0  501  502 -0.00000000000E+00 -0.00000000000E+00 -0.14846302971E+03  0.14846302971E+03  0.00000000000E+00 0.  1.
      99926    2    1    2    0    0  0.00000000000E+00  0.14210854715E-13  0.20035331343E+03  0.49727937284E+03  0.45513220547E+03 0.  0.
      99925    2    3    3    0    0 -0.35285539978E+02  0.85702725331E+02  0.19726710129E+03  0.34156470023E+03  0.26298689841E+03 0.  0.
         25    1    3    3    0    0  0.35285539978E+02 -0.85702725331E+02  0.30862121424E+01  0.15571467261E+03  0.12509000000E+03 0.  0.
         25    1    4    4    0    0 -0.38702542753E+02  0.34681612008E+02  0.57514664675E+02  0.14716027242E+03  0.12509000000E+03 0.  0.
         25    1    4    4    0    0  0.34170027747E+01  0.51021113323E+02  0.13975243661E+03  0.19440442781E+03  0.12509000000E+03 0.  0.
<mgrwt>
<rscale>  2 0.45513221E+03</rscale>
<asrwt>0</asrwt>
<pdfrwt beam="1">  1       21 0.51296521E-01 0.45513221E+03</pdfrwt>
<pdfrwt beam="2">  1       21 0.21832799E-01 0.45513221E+03</pdfrwt>
<totfact> 0.65393559E+04</totfact>
</mgrwt>
</event>
<event>
 7    0  0.4714446E-002  0.4572262E+03  0.7546771E-02  0.1025589E+00
         21   -1    0    0  502  501  0.00000000000E+00  0.00000000000E+00  0.12603326821E+03  0.12603326821E+03  0.00000000000E+00 0.  1.
         21   -1    0    0  501  502 -0.00000000000E+00 -0.00000000000E+00 -0.41468378224E+03  0.41468378224E+03  0.00000000000E+00 0.  1.
      99926    2    1    2    0    0  0.00000000000E+00  0.00000000000E+00 -0.28865051403E+03  0.54071705044E+03  0.45722621249E+03 0.  0.
      99925    2    3    3    0    0  0.91739942323E+02  0.67186048060E+02 -0.20478654465E+03  0.35200866289E+03  0.26275918217E+03 0.  0.
         25    1    4    4    0    0  0.25360854950E+02  0.54714430919E+02 -0.13488514449E+03  0.19359326491E+03  0.12509000000E+03 0.  0.
         25    1    3    3    0    0 -0.91739942323E+02 -0.67186048060E+02 -0.83863969383E+02  0.18870838755E+03  0.12509000000E+03 0.  0.
         25    1    4    4    0    0  0.66379087373E+02  0.12471617141E+02 -0.69901400157E+02  0.15841539798E+03  0.12509000000E+03 0.  0.
<mgrwt>
<rscale>  2 0.45722621E+03</rscale>
<asrwt>0</asrwt>
<pdfrwt beam="1">  1       21 0.18534304E-01 0.45722621E+03</pdfrwt>
<pdfrwt beam="2">  1       21 0.60982909E-01 0.45722621E+03</pdfrwt>
<totfact> 0.61395312E+04</totfact>
</mgrwt>
</event>
<event>
 7    0  0.4714446E-002  0.4377190E+03  0.7546771E-02  0.1031449E+00
         21   -1    0    0  502  501  0.00000000000E+00  0.00000000000E+00  0.13303075129E+03  0.13303075129E+03  0.00000000000E+00 0.  1.
         21   -1    0    0  501  502 -0.00000000000E+00 -0.00000000000E+00 -0.36006314668E+03  0.36006314668E+03  0.00000000000E+00 0.  1.
      99926    2    1    2    0    0 -0.71054273576E-14  0.00000000000E+00 -0.22703239539E+03  0.49309389798E+03  0.43771895511E+03 0.  0.
      99925    2    3    3    0    0  0.45870397729E+02  0.79728508523E+02 -0.11398207080E+03  0.30102981375E+03  0.26299488178E+03 0.  0.
         25    1    4    4    0    0  0.12650715430E+02  0.36990991892E+02 -0.98311734911E+02  0.16383247359E+03  0.12509000000E+03 0.  0.
         25    1    4    4    0    0  0.33219682300E+02  0.42737516631E+02 -0.15670335884E+02  0.13719734016E+03  0.12509000000E+03 0.  0.
         25    1    3    3    0    0 -0.45870397729E+02 -0.79728508523E+02 -0.11305032459E+03  0.19206408423E+03  0.12509000000E+03 0.  0.
<mgrwt>
<rscale>  2 0.43771896E+03</rscale>
<asrwt>0</asrwt>
<pdfrwt beam="1">  1       21 0.19563346E-01 0.43771896E+03</pdfrwt>
<pdfrwt beam="2">  1       21 0.52950462E-01 0.43771896E+03</pdfrwt>
<totfact> 0.75609666E+04</totfact>
</mgrwt>
</event>
<event>
 7    0  0.4714446E-002  0.4519566E+03  0.7546771E-02  0.1027140E+00
         21   -1    0    0  502  501  0.00000000000E+00  0.00000000000E+00  0.27645607002E+02  0.27645607002E+02  0.00000000000E+00 0.  1.
         21   -1    0    0  501  502 -0.00000000000E+00 -0.00000000000E+00 -0.18471722909E+04  0.18471722909E+04  0.00000000000E+00 0.  1.
      99926    2    1    2    0    0 -0.71054273576E-14  0.00000000000E+00 -0.18195266839E+04  0.18748178979E+04  0.45195663163E+03 0.  0.
      99925    2    3    3    0    0  0.59520860479E+02  0.81306453905E+02 -0.96288804221E+03  0.10032499184E+04  0.26306566624E+03 0.  0.
         25    1    4    4    0    0  0.23975448846E+02  0.57018567611E+02 -0.62495748640E+03  0.64034780168E+03  0.12509000000E+03 0.  0.
         25    1    3    3    0    0 -0.59520860479E+02 -0.81306453905E+02 -0.85663864171E+03  0.87156797948E+03  0.12509000000E+03 0.  0.
         25    1    4    4    0    0  0.35545411633E+02  0.24287886294E+02 -0.33793055581E+03  0.36290211677E+03  0.12509000000E+03 0.  0.
<mgrwt>
<rscale>  2 0.45195663E+03</rscale>
<asrwt>0</asrwt>
<pdfrwt beam="1">  1       21 0.40655295E-02 0.45195663E+03</pdfrwt>
<pdfrwt beam="2">  1       21 0.27164305E+00 0.45195663E+03</pdfrwt>
<totfact> 0.16243454E+04</totfact>
</mgrwt>
</event>
<event>
 7    0  0.4714446E-002  0.4952255E+03  0.7546771E-02  0.1015033E+00
         21   -1    0    0  502  501  0.00000000000E+00  0.00000000000E+00  0.21071163041E+03  0.21071163041E+03  0.00000000000E+00 0.  1.
         21   -1    0    0  501  502 -0.00000000000E+00 -0.00000000000E+00 -0.29097624479E+03  0.29097624479E+03  0.00000000000E+00 0.  1.
      99926    2    1    2    0    0  0.00000000000E+00  0.00000000000E+00 -0.80264614384E+02  0.50168787520E+03  0.49522552014E+03 0.  0.
      99925    2    3    3    0    0 -0.85455923643E+02  0.92448825022E+02 -0.12712515155E+03  0.31813156728E+03  0.26305396748E+03 0.  0.
         25    1    4    4    0    0 -0.40294950669E+02  0.38893758219E+02 -0.10589316654E+03  0.17319722370E+03  0.12509000000E+03 0.  0.
         25    1    4    4    0    0 -0.45160972973E+02  0.53555066802E+02 -0.21231985009E+02  0.14493434358E+03  0.12509000000E+03 0.  0.
         25    1    3    3    0    0  0.85455923643E+02 -0.92448825022E+02  0.46860537165E+02  0.18355630792E+03  0.12509000000E+03 0.  0.
<mgrwt>
<rscale>  2 0.49522552E+03</rscale>
<asrwt>0</asrwt>
<pdfrwt beam="1">  1       21 0.30987005E-01 0.49522552E+03</pdfrwt>
<pdfrwt beam="2">  1       21 0.42790624E-01 0.49522552E+03</pdfrwt>
<totfact> 0.47915496E+04</totfact>
</mgrwt>
</event>
<event>
 7    0  0.4714446E-002  0.4533250E+03  0.7546771E-02  0.1026735E+00
         21   -1    0    0  502  501  0.00000000000E+00  0.00000000000E+00  0.45699225694E+02  0.45699225694E+02  0.00000000000E+00 0. -1.
         21   -1    0    0  501  502 -0.00000000000E+00 -0.00000000000E+00 -0.11242181130E+04  0.11242181130E+04  0.00000000000E+00 0. -1.
      99926    2    1    2    0    0  0.00000000000E+00  0.00000000000E+00 -0.10785188873E+04  0.11699173387E+04  0.45332503692E+03 0.  0.
      99925    2    3    3    0    0 -0.53935857462E+02 -0.42488467740E+02 -0.45246586057E+03  0.52780812136E+03  0.26294811536E+03 0.  0.
         25    1    4    4    0    0  0.69946048794E+01 -0.42850645487E+02 -0.21018784791E+03  0.24841807870E+03  0.12509000000E+03 0.  0.
         25    1    3    3    0    0  0.53935857462E+02  0.42488467740E+02 -0.62605302672E+03  0.64210921732E+03  0.12509000000E+03 0.  0.
         25    1    4    4    0    0 -0.60930462341E+02  0.36217774691E+00 -0.24227801267E+03  0.27939004266E+03  0.12509000000E+03 0.  0.
<mgrwt>
<rscale>  2 0.45332504E+03</rscale>
<asrwt>0</asrwt>
<pdfrwt beam="1">  1       21 0.67204750E-02 0.45332504E+03</pdfrwt>
<pdfrwt beam="2">  1       21 0.16532618E+00 0.45332504E+03</pdfrwt>
<totfact> 0.33560167E+04</totfact>
</mgrwt>
</event>
<event>
 7    0  0.4714446E-002  0.4578279E+03  0.7546771E-02  0.1025413E+00
         21   -1    0    0  502  501  0.00000000000E+00  0.00000000000E+00  0.75629775675E+03  0.75629775675E+03  0.00000000000E+00 0.  1.
         21   -1    0    0  501  502 -0.00000000000E+00 -0.00000000000E+00 -0.69286990762E+02  0.69286990762E+02  0.00000000000E+00 0.  1.
      99926    2    1    2    0    0  0.00000000000E+00  0.00000000000E+00  0.68701076599E+03  0.82558474751E+03  0.45782789642E+03 0.  0.
      99925    2    3    3    0    0 -0.68022411187E+02 -0.93391095394E+02  0.44593084185E+03  0.53043057925E+03  0.26297022372E+03 0.  0.
         25    1    4    4    0    0 -0.62408331949E+02 -0.57092069919E+02  0.18550064907E+03  0.23919093472E+03  0.12509000000E+03 0.  0.
         25    1    3    3    0    0  0.68022411187E+02  0.93391095394E+02  0.24107992414E+03  0.29515416827E+03  0.12509000000E+03 0.  0.
         25    1    4    4    0    0 -0.56140792379E+01 -0.36299025475E+02  0.26043019278E+03  0.29123964453E+03  0.12509000000E+03 0.  0.
<mgrwt>
<rscale>  2 0.45782790E+03</rscale>
<asrwt>0</asrwt>
<pdfrwt beam="1">  1       21 0.11122025E+00 0.45782790E+03</pdfrwt>
<pdfrwt beam="2">  1       21 0.10189264E-01 0.45782790E+03</pdfrwt>
<totfact> 0.45533317E+04</totfact>
</mgrwt>
</event>
<event>
 7    0  0.4714446E-002  0.4517130E+03  0.7546771E-02  0.1027212E+00
         21   -1    0    0  502  501  0.00000000000E+00  0.00000000000E+00  0.21879752415E+02  0.21879752415E+02  0.00000000000E+00 0. -1.
         21   -1    0    0  501  502 -0.00000000000E+00 -0.00000000000E+00 -0.23314321350E+04  0.23314321350E+04  0.00000000000E+00 0. -1.
      99926    2    1    2    0    0 -0.17763568394E-14  0.00000000000E+00 -0.23095523826E+04  0.23533118874E+04  0.45171299687E+03 0.  0.
      99925    2    3    3    0    0  0.12354236482E+02  0.47608530978E+02 -0.19706286624E+04  0.19887079988E+04  0.26298855502E+03 0.  0.
         25    1    3    3    0    0 -0.12354236482E+02 -0.47608530978E+02 -0.33892372015E+03  0.36460388857E+03  0.12509000000E+03 0.  0.
         25    1    4    4    0    0  0.19012533276E+02 -0.29522190743E+01 -0.74702292309E+03  0.75766809867E+03  0.12509000000E+03 0.  0.
         25    1    4    4    0    0 -0.66582967941E+01  0.50560750052E+02 -0.12236057393E+04  0.12310399002E+04  0.12509000000E+03 0.  0.
<mgrwt>
<rscale>  2 0.45171300E+03</rscale>
<asrwt>0</asrwt>
<pdfrwt beam="1">  1       21 0.32176104E-02 0.45171300E+03</pdfrwt>
<pdfrwt beam="2">  1       21 0.34285770E+00 0.45171300E+03</pdfrwt>
<totfact> 0.89787099E+03</totfact>
</mgrwt>
</event>
<event>
 7    0  0.4714446E-002  0.4510604E+03  0.7546771E-02  0.1027406E+00
         21   -1    0    0  502  501  0.00000000000E+00  0.00000000000E+00  0.23625028086E+03  0.23625028086E+03  0.00000000000E+00 0. -1.
         21   -1    0    0  501  502 -0.00000000000E+00 -0.00000000000E+00 -0.21529655544E+03  0.21529655544E+03  0.00000000000E+00 0. -1.
      99926    2    1    2    0    0  0.00000000000E+00  0.00000000000E+00  0.20953725423E+02  0.45154683630E+03  0.45106040257E+03 0.  0.
      99925    2    3    3    0    0  0.46922147291E+02 -0.98482228737E+02  0.21605709987E+02  0.28556981841E+03  0.26302638119E+03 0.  0.
         25    1    4    4    0    0  0.64074122250E+02 -0.49401647268E+02  0.46399513345E+01  0.14904715074E+03  0.12509000000E+03 0.  0.
         25    1    4    4    0    0 -0.17151974960E+02 -0.49080581469E+02  0.16965758652E+02  0.13652266767E+03  0.12509000000E+03 0.  0.
         25    1    3    3    0    0 -0.46922147291E+02  0.98482228737E+02 -0.65198456364E+00  0.16597701789E+03  0.12509000000E+03 0.  0.
<mgrwt>
<rscale>  2 0.45106040E+03</rscale>
<asrwt>0</asrwt>
<pdfrwt beam="1">  1       21 0.34742688E-01 0.45106040E+03</pdfrwt>
<pdfrwt beam="2">  1       21 0.31661258E-01 0.45106040E+03</pdfrwt>
<totfact> 0.71005376E+04</totfact>
</mgrwt>
</event>
<event>
 7    0  0.4714446E-002  0.4515461E+03  0.7546771E-02  0.1027262E+00
         21   -1    0    0  502  501  0.00000000000E+00  0.00000000000E+00  0.44872524483E+02  0.44872524483E+02  0.00000000000E+00 0.  1.
         21   -1    0    0  501  502 -0.00000000000E+00 -0.00000000000E+00 -0.11359618083E+04  0.11359618083E+04  0.00000000000E+00 0.  1.
      99926    2    1    2    0    0  0.00000000000E+00  0.14210854715E-13 -0.10910892838E+04  0.11808343328E+04  0.45154611749E+03 0.  0.
      99925    2    3    3    0    0  0.12134309526E+02 -0.95672246321E+02 -0.82630576995E+03  0.87251917341E+03  0.26307425250E+03 0.  0.
         25    1    4    4    0    0 -0.77923788972E+01 -0.13774471202E+02 -0.31089379908E+03  0.33548907528E+03  0.12509000000E+03 0.  0.
         25    1    3    3    0    0 -0.12134309526E+02  0.95672246321E+02 -0.26478351387E+03  0.30831515938E+03  0.12509000000E+03 0.  0.
         25    1    4    4    0    0  0.19926688423E+02 -0.81897775120E+02 -0.51541197086E+03  0.53703009812E+03  0.12509000000E+03 0.  0.
<mgrwt>
<rscale>  2 0.45154612E+03</rscale>
<asrwt>0</asrwt>
<pdfrwt beam="1">  1       21 0.65989004E-02 0.45154612E+03</pdfrwt>
<pdfrwt beam="2">  1       21 0.16705321E+00 0.45154612E+03</pdfrwt>
<totfact> 0.33666263E+04</totfact>
</mgrwt>
</event>
<event>
 7    0  0.4714446E-002  0.4565631E+03  0.7546771E-02  0.1025783E+00
         21   -1    0    0  502  501  0.00000000000E+00  0.00000000000E+00  0.55876120546E+02  0.55876120546E+02  0.00000000000E+00 0.  1.
         21   -1    0    0  501  502 -0.00000000000E+00 -0.00000000000E+00 -0.93264282673E+03  0.93264282673E+03  0.00000000000E+00 0.  1.
      99926    2    1    2    0    0  0.00000000000E+00  0.00000000000E+00 -0.87676670618E+03  0.98851894727E+03  0.45656308661E+03 0.  0.
      99925    2    3    3    0    0  0.43414556191E+02 -0.10265598798E+03 -0.59652088034E+03  0.66200967243E+03  0.26456864922E+03 0.  0.
         25    1    4    4    0    0  0.18776202614E+02 -0.53032656479E+01 -0.27057961672E+03  0.29873317106E+03  0.12509000000E+03 0.  0.
         25    1    3    3    0    0 -0.43414556191E+02  0.10265598798E+03 -0.28024582584E+03  0.32650927484E+03  0.12509000000E+03 0.  0.
         25    1    4    4    0    0  0.24638353577E+02 -0.97352722333E+02 -0.32594126363E+03  0.36327650137E+03  0.12509000000E+03 0.  0.
<mgrwt>
<rscale>  2 0.45656309E+03</rscale>
<asrwt>0</asrwt>
<pdfrwt beam="1">  1       21 0.82170770E-02 0.45656309E+03</pdfrwt>
<pdfrwt beam="2">  1       21 0.13715335E+00 0.45656309E+03</pdfrwt>
<totfact> 0.39136249E+04</totfact>
</mgrwt>
</event>
<event>
 6    0  0.4714446E-002  0.4573586E+03  0.7546771E-02  0.1025550E+00
         21   -1    0    0  502  501  0.00000000000E+00  0.00000000000E+00  0.33795758249E+03  0.33795758249E+03  0.00000000000E+00 0.  1.
         21   -1    0    0  501  502 -0.00000000000E+00 -0.00000000000E+00 -0.15473602514E+03  0.15473602514E+03  0.00000000000E+00 0.  1.
      99926    2    1    2    0    0  0.00000000000E+00 -0.71054273576E-14  0.18322155735E+03  0.49269360763E+03  0.45735855947E+03 0.  0.
         25    1    3    3    0    0  0.92252187898E+02  0.51275853679E+02  0.78589032841E+02  0.18155831990E+03  0.12509000000E+03 0.  0.
         25    1    3    3    0    0 -0.96350391846E+02 -0.51118071506E+02  0.42072056432E+02  0.17121337937E+03  0.12509000000E+03 0.  0.
         25    1    3    3    0    0  0.40982039482E+01 -0.15778217318E+00  0.62560468079E+02  0.13992190835E+03  0.12509000000E+03 0.  0.
<mgrwt>
<rscale>  2 0.45735856E+03</rscale>
<asrwt>0</asrwt>
<pdfrwt beam="1">  1       21 0.49699645E-01 0.45735856E+03</pdfrwt>
<pdfrwt beam="2">  1       21 0.22755298E-01 0.45735856E+03</pdfrwt>
<totfact> 0.64569577E+04</totfact>
</mgrwt>
</event>
<event>
 7    0  0.4714446E-002  0.4484101E+03  0.7546771E-02  0.1028197E+00
         21   -1    0    0  502  501  0.00000000000E+00  0.00000000000E+00  0.35554354346E+02  0.35554354346E+02  0.00000000000E+00 0.  1.
         21   -1    0    0  501  502 -0.00000000000E+00 -0.00000000000E+00 -0.14138324799E+04  0.14138324799E+04  0.00000000000E+00 0.  1.
      99926    2    1    2    0    0  0.00000000000E+00  0.00000000000E+00 -0.13782781256E+04  0.14493868343E+04  0.44841008454E+03 0.  0.
      99925    2    3    3    0    0  0.22731240333E+02 -0.10892020356E+02 -0.12070615154E+04  0.12358499965E+04  0.26399311820E+03 0.  0.
         25    1    3    3    0    0 -0.22731240333E+02  0.10892020356E+02 -0.17121661022E+03  0.21353683783E+03  0.12509000000E+03 0.  0.
         25    1    4    4    0    0 -0.24131668226E+02 -0.28009856206E+02 -0.60926857352E+03  0.62307510962E+03  0.12509000000E+03 0.  0.
         25    1    4    4    0    0  0.46862908559E+02  0.17117835850E+02 -0.59779294186E+03  0.61277488684E+03  0.12509000000E+03 0.  0.
<mgrwt>
<rscale>  2 0.44841008E+03</rscale>
<asrwt>0</asrwt>
<pdfrwt beam="1">  1       21 0.52285812E-02 0.44841008E+03</pdfrwt>
<pdfrwt beam="2">  1       21 0.20791656E+00 0.44841008E+03</pdfrwt>
<totfact> 0.26369656E+04</totfact>
</mgrwt>
</event>
<event>
 7    0  0.4714446E-002  0.4486532E+03  0.7546771E-02  0.1028124E+00
         21   -1    0    0  502  501  0.00000000000E+00  0.00000000000E+00  0.17224076107E+03  0.17224076107E+03  0.00000000000E+00 0.  1.
         21   -1    0    0  501  502 -0.00000000000E+00 -0.00000000000E+00 -0.29216327577E+03  0.29216327577E+03  0.00000000000E+00 0.  1.
      99926    2    1    2    0    0  0.35527136788E-14  0.00000000000E+00 -0.11992251469E+03  0.46440403684E+03  0.44865320672E+03 0.  0.
      99925    2    3    3    0    0  0.13019748287E+02 -0.31759466853E+02 -0.17978265770E+03  0.32154423703E+03  0.26436852078E+03 0.  0.
         25    1    4    4    0    0 -0.26671576946E+02 -0.42836967371E+02 -0.90994489312E+02  0.16270797146E+03  0.12509000000E+03 0.  0.
         25    1    4    4    0    0  0.39691325233E+02  0.11077500518E+02 -0.88788168386E+02  0.15883626557E+03  0.12509000000E+03 0.  0.
         25    1    3    3    0    0 -0.13019748287E+02  0.31759466853E+02  0.59860143005E+02  0.14285979981E+03  0.12509000000E+03 0.  0.
<mgrwt>
<rscale>  2 0.44865321E+03</rscale>
<asrwt>0</asrwt>
<pdfrwt beam="1">  1       21 0.25329524E-01 0.44865321E+03</pdfrwt>
<pdfrwt beam="2">  1       21 0.42965186E-01 0.44865321E+03</pdfrwt>
<totfact> 0.71380944E+04</totfact>
</mgrwt>
</event>
<event>
 7    0  0.4714446E-002  0.4333997E+03  0.7546771E-02  0.1032791E+00
         21   -1    0    0  502  501  0.00000000000E+00  0.00000000000E+00  0.40068794183E+02  0.40068794183E+02  0.00000000000E+00 0.  1.
         21   -1    0    0  501  502 -0.00000000000E+00 -0.00000000000E+00 -0.11719550430E+04  0.11719550430E+04  0.00000000000E+00 0.  1.
      99926    2    1    2    0    0  0.71054273576E-14  0.00000000000E+00 -0.11318862488E+04  0.12120238372E+04  0.43339970193E+03 0.  0.
      99925    2    3    3    0    0  0.52933118381E+02  0.62913450682E+02 -0.83909574413E+03  0.88318678782E+03  0.26301562133E+03 0.  0.
         25    1    4    4    0    0  0.16762300216E+02 -0.14349800729E+01 -0.46675616149E+03  0.48352027493E+03  0.12509000000E+03 0.  0.
         25    1    3    3    0    0 -0.52933118381E+02 -0.62913450682E+02 -0.29279050468E+03  0.32883704936E+03  0.12509000000E+03 0.  0.
         25    1    4    4    0    0  0.36170818165E+02  0.64348430755E+02 -0.37233958264E+03  0.39966651289E+03  0.12509000000E+03 0.  0.
<mgrwt>
<rscale>  2 0.43339970E+03</rscale>
<asrwt>0</asrwt>
<pdfrwt beam="1">  1       21 0.58924698E-02 0.43339970E+03</pdfrwt>
<pdfrwt beam="2">  1       21 0.17234633E+00 0.43339970E+03</pdfrwt>
<totfact> 0.37736272E+04</totfact>
</mgrwt>
</event>
<event>
 7    0  0.4714446E-002  0.4566248E+03  0.7546771E-02  0.1025765E+00
         21   -1    0    0  502  501  0.00000000000E+00  0.00000000000E+00  0.22036839205E+03  0.22036839205E+03  0.00000000000E+00 0.  1.
         21   -1    0    0  501  502 -0.00000000000E+00 -0.00000000000E+00 -0.23654278385E+03  0.23654278385E+03  0.00000000000E+00 0.  1.
      99926    2    1    2    0    0 -0.14210854715E-13 -0.71054273576E-14 -0.16174391801E+02  0.45691117590E+03  0.45662480409E+03 0.  0.
      99925    2    3    3    0    0  0.10114775182E+03  0.35133930477E+02  0.30768549458E+02  0.28569082488E+03  0.26307277133E+03 0.  0.
         25    1    4    4    0    0  0.88524646370E+02  0.25666894098E+01  0.54022244198E+01  0.15336196738E+03  0.12509000000E+03 0.  0.
         25    1    3    3    0    0 -0.10114775182E+03 -0.35133930477E+02 -0.46942941260E+02  0.17122035102E+03  0.12509000000E+03 0.  0.
         25    1    4    4    0    0  0.12623105446E+02  0.32567241067E+02  0.25366325038E+02  0.13232885750E+03  0.12509000000E+03 0.  0.
<mgrwt>
<rscale>  2 0.45662480E+03</rscale>
<asrwt>0</asrwt>
<pdfrwt beam="1">  1       21 0.32407116E-01 0.45662480E+03</pdfrwt>
<pdfrwt beam="2">  1       21 0.34785704E-01 0.45662480E+03</pdfrwt>
<totfact> 0.67526344E+04</totfact>
</mgrwt>
</event>
<event>
 7    0  0.4714446E-002  0.4529264E+03  0.7546771E-02  0.1026853E+00
         21   -1    0    0  502  501  0.00000000000E+00  0.00000000000E+00  0.48439672388E+03  0.48439672388E+03  0.00000000000E+00 0. -1.
         21   -1    0    0  501  502 -0.00000000000E+00 -0.00000000000E+00 -0.10587514522E+03  0.10587514522E+03  0.00000000000E+00 0. -1.
      99926    2    1    2    0    0  0.00000000000E+00 -0.17763568394E-14  0.37852157866E+03  0.59027186910E+03  0.45292636702E+03 0.  0.
      99925    2    3    3    0    0  0.34624070063E+02 -0.54717130028E+01  0.37638206070E+03  0.46034553802E+03  0.26272760207E+03 0.  0.
         25    1    4    4    0    0  0.23414703689E+02 -0.38343691045E+02  0.15997915802E+03  0.20798876435E+03  0.12509000000E+03 0.  0.
         25    1    3    3    0    0 -0.34624070063E+02  0.54717130028E+01  0.21395179593E+01  0.12992633108E+03  0.12509000000E+03 0.  0.
         25    1    4    4    0    0  0.11209366374E+02  0.32871978043E+02  0.21640290267E+03  0.25235677367E+03  0.12509000000E+03 0.  0.
<mgrwt>
<rscale>  2 0.45292637E+03</rscale>
<asrwt>0</asrwt>
<pdfrwt beam="1">  1       21 0.71234811E-01 0.45292637E+03</pdfrwt>
<pdfrwt beam="2">  1       21 0.15569874E-01 0.45292637E+03</pdfrwt>
<totfact> 0.60262661E+04</totfact>
</mgrwt>
</event>
<event>
 7    0  0.4714446E-002  0.4563313E+03  0.7546771E-02  0.1025851E+00
         21   -1    0    0  502  501  0.00000000000E+00  0.00000000000E+00  0.18380779473E+03  0.18380779473E+03  0.00000000000E+00 0.  1.
         21   -1    0    0  501  502 -0.00000000000E+00 -0.00000000000E+00 -0.28322821474E+03  0.28322821474E+03  0.00000000000E+00 0.  1.
      99926    2    1    2    0    0  0.00000000000E+00 -0.14210854715E-13 -0.99420420013E+02  0.46703600947E+03  0.45633125493E+03 0.  0.
      99925    2    3    3    0    0  0.42972555464E+02 -0.94394324130E+02 -0.12647233105E+02  0.28282411241E+03  0.26281666063E+03 0.  0.
         25    1    4    4    0    0  0.34948536161E+02 -0.85491854645E+02  0.69253414764E+01  0.15564615590E+03  0.12509000000E+03 0.  0.
         25    1    4    4    0    0  0.80240193032E+01 -0.89024694843E+01 -0.19572574581E+02  0.12717795652E+03  0.12509000000E+03 0.  0.
         25    1    3    3    0    0 -0.42972555464E+02  0.94394324130E+02 -0.86773186909E+02  0.18421189706E+03  0.12509000000E+03 0.  0.
<mgrwt>
<rscale>  2 0.45633125E+03</rscale>
<asrwt>0</asrwt>
<pdfrwt beam="1">  1       21 0.27030558E-01 0.45633125E+03</pdfrwt>
<pdfrwt beam="2">  1       21 0.41651207E-01 0.45633125E+03</pdfrwt>
<totfact> 0.66947556E+04</totfact>
</mgrwt>
</event>
<event>
 7    0  0.4714446E-002  0.4408496E+03  0.7546771E-02  0.1030486E+00
         21   -1    0    0  502  501  0.00000000000E+00  0.00000000000E+00  0.16834775336E+04  0.16834775336E+04  0.00000000000E+00 0. -1.
         21   -1    0    0  501  502 -0.00000000000E+00 -0.00000000000E+00 -0.28861150302E+02  0.28861150302E+02  0.00000000000E+00 0. -1.
      99926    2    1    2    0    0  0.00000000000E+00  0.00000000000E+00  0.16546163833E+04  0.17123386839E+04  0.44084962574E+03 0.  0.
      99925    2    3    3    0    0 -0.93941443534E+02 -0.50933383950E+01  0.11787009599E+04  0.12113457346E+04  0.26300494101E+03 0.  0.
         25    1    4    4    0    0 -0.61702475800E+02 -0.17018183391E+02  0.45828095971E+03  0.47933887826E+03  0.12509000000E+03 0.  0.
         25    1    3    3    0    0  0.93941443534E+02  0.50933383950E+01  0.47591542346E+03  0.50099294935E+03  0.12509000000E+03 0.  0.
         25    1    4    4    0    0 -0.32238967734E+02  0.11924844996E+02  0.72042000017E+03  0.73200685633E+03  0.12509000000E+03 0.  0.
<mgrwt>
<rscale>  2 0.44084963E+03</rscale>
<asrwt>0</asrwt>
<pdfrwt beam="1">  1       21 0.24757016E+00 0.44084963E+03</pdfrwt>
<pdfrwt beam="2">  1       21 0.42442880E-02 0.44084963E+03</pdfrwt>
<totfact> 0.21246250E+04</totfact>
</mgrwt>
</event>
<event>
 7    0  0.4714446E-002  0.4512959E+03  0.7546771E-02  0.1027336E+00
         21   -1    0    0  502  501  0.00000000000E+00  0.00000000000E+00  0.17803365811E+03  0.17803365811E+03  0.00000000000E+00 0. -1.
         21   -1    0    0  501  502 -0.00000000000E+00 -0.00000000000E+00 -0.28599642766E+03  0.28599642766E+03  0.00000000000E+00 0. -1.
      99926    2    1    2    0    0 -0.14210854715E-13  0.71054273576E-14 -0.10796276956E+03  0.46403008577E+03  0.45129586846E+03 0.  0.
      99925    2    3    3    0    0 -0.65923513712E+02 -0.52975150589E+02 -0.13976236493E+03  0.30972195700E+03  0.26313854859E+03 0.  0.
         25    1    4    4    0    0  0.21114408718E+01 -0.37273923758E+02 -0.87844171385E+02  0.15734646523E+03  0.12509000000E+03 0.  0.
         25    1    3    3    0    0  0.65923513712E+02  0.52975150589E+02  0.31799595377E+02  0.15430812878E+03  0.12509000000E+03 0.  0.
         25    1    4    4    0    0 -0.68034954584E+02 -0.15701226831E+02 -0.51918193547E+02  0.15237549176E+03  0.12509000000E+03 0.  0.
<mgrwt>
<rscale>  2 0.45129587E+03</rscale>
<asrwt>0</asrwt>
<pdfrwt beam="1">  1       21 0.26181421E-01 0.45129587E+03</pdfrwt>
<pdfrwt beam="2">  1       21 0.42058297E-01 0.45129587E+03</pdfrwt>
<totfact> 0.69914250E+04</totfact>
</mgrwt>
</event>
<event>
 7    0  0.4714446E-002  0.4542655E+03  0.7546771E-02  0.1026458E+00
         21   -1    0    0  502  501  0.00000000000E+00  0.00000000000E+00  0.65737107635E+03  0.65737107635E+03  0.00000000000E+00 0. -1.
         21   -1    0    0  501  502 -0.00000000000E+00 -0.00000000000E+00 -0.78478197623E+02  0.78478197623E+02  0.00000000000E+00 0. -1.
      99926    2    1    2    0    0  0.00000000000E+00  0.00000000000E+00  0.57889287873E+03  0.73584927398E+03  0.45426554895E+03 0.  0.
      99925    2    3    3    0    0  0.82448122313E+02  0.76495303799E+02  0.36999599602E+03  0.46764293535E+03  0.26295180838E+03 0.  0.
         25    1    4    4    0    0  0.62969423899E+02  0.21593735529E+02  0.23616711066E+03  0.27541577663E+03  0.12509000000E+03 0.  0.
         25    1    4    4    0    0  0.19478698413E+02  0.54901568269E+02  0.13382888537E+03  0.19222715872E+03  0.12509000000E+03 0.  0.
         25    1    3    3    0    0 -0.82448122313E+02 -0.76495303799E+02  0.20889688271E+03  0.26820633863E+03  0.12509000000E+03 0.  0.
<mgrwt>
<rscale>  2 0.45426555E+03</rscale>
<asrwt>0</asrwt>
<pdfrwt beam="1">  1       21 0.96672214E-01 0.45426555E+03</pdfrwt>
<pdfrwt beam="2">  1       21 0.11540912E-01 0.45426555E+03</pdfrwt>
<totfact> 0.51294997E+04</totfact>
</mgrwt>
</event>
<event>
 7    0  0.4714446E-002  0.4517636E+03  0.7546771E-02  0.1027197E+00
         21   -1    0    0  502  501  0.00000000000E+00  0.00000000000E+00  0.89176639627E+02  0.89176639627E+02  0.00000000000E+00 0.  1.
         21   -1    0    0  501  502 -0.00000000000E+00 -0.00000000000E+00 -0.57215202420E+03  0.57215202420E+03  0.00000000000E+00 0.  1.
      99926    2    1    2    0    0 -0.71054273576E-14 -0.35527136788E-14 -0.48297538457E+03  0.66132866382E+03  0.45176363233E+03 0.  0.
      99925    2    3    3    0    0  0.34169869803E+02  0.29092781531E+02 -0.15754051833E+03  0.30980436850E+03  0.26295581737E+03 0.  0.
         25    1    4    4    0    0 -0.40562996383E+01 -0.18212046548E+02 -0.89673653151E+02  0.15503871896E+03  0.12509000000E+03 0.  0.
         25    1    4    4    0    0  0.38226169441E+02  0.47304828079E+02 -0.67866865183E+02  0.15476564955E+03  0.12509000000E+03 0.  0.
         25    1    3    3    0    0 -0.34169869803E+02 -0.29092781531E+02 -0.32543486623E+03  0.35152429532E+03  0.12509000000E+03 0.  0.
<mgrwt>
<rscale>  2 0.45176363E+03</rscale>
<asrwt>0</asrwt>
<pdfrwt beam="1">  1       21 0.13114212E-01 0.45176363E+03</pdfrwt>
<pdfrwt beam="2">  1       21 0.84140005E-01 0.45176363E+03</pdfrwt>
<totfact> 0.56480521E+04</totfact>
</mgrwt>
</event>
<event>
 7    0  0.4714446E-002  0.4429969E+03  0.7546771E-02  0.1029831E+00
         21   -1    0    0  502  501  0.00000000000E+00  0.00000000000E+00  0.12738021402E+04  0.12738021402E+04  0.00000000000E+00 0.  1.
         21   -1    0    0  501  502 -0.00000000000E+00 -0.00000000000E+00 -0.38515848145E+02  0.38515848145E+02  0.00000000000E+00 0.  1.
      99926    2    1    2    0    0  0.00000000000E+00  0.00000000000E+00  0.12352862921E+04  0.13123179884E+04  0.44299692911E+03 0.  0.
      99925    2    3    3    0    0 -0.90515993172E+01  0.41291676946E+02  0.10594351325E+04  0.10924132989E+04  0.26301536370E+03 0.  0.
         25    1    4    4    0    0 -0.42821447076E+02  0.34343120973E+02  0.55185610817E+03  0.56851191589E+03  0.12509000000E+03 0.  0.
         25    1    3    3    0    0  0.90515993172E+01 -0.41291676946E+02  0.17585115955E+03  0.21990468947E+03  0.12509000000E+03 0.  0.
         25    1    4    4    0    0  0.33769847758E+02  0.69485559729E+01  0.50757902437E+03  0.52390138302E+03  0.12509000000E+03 0.  0.
<mgrwt>
<rscale>  2 0.44299693E+03</rscale>
<asrwt>0</asrwt>
<pdfrwt beam="1">  1       21 0.18732382E+00 0.44299693E+03</pdfrwt>
<pdfrwt beam="2">  1       21 0.56640962E-02 0.44299693E+03</pdfrwt>
<totfact> 0.31608004E+04</totfact>
</mgrwt>
</event>
<event>
 6    0  0.4714446E-002  0.4595160E+03  0.7546771E-02  0.1024922E+00
         21   -1    0    0  502  501  0.00000000000E+00  0.00000000000E+00  0.21611104768E+03  0.21611104768E+03  0.00000000000E+00 0. -1.
         21   -1    0    0  501  502 -0.00000000000E+00 -0.00000000000E+00 -0.24426671283E+03  0.24426671283E+03  0.00000000000E+00 0. -1.
      99926    2    1    2    0    0 -0.14210854715E-13 -0.71054273576E-14 -0.28155665144E+02  0.46037776051E+03  0.45951598546E+03 0.  0.
         25    1    3    3    0    0 -0.87198253889E+02 -0.46793675965E+02 -0.10178502697E+02  0.15982582272E+03  0.12509000000E+03 0.  0.
         25    1    3    3    0    0 -0.50510499642E+01 -0.78115151678E+01  0.29990591460E+02  0.12897083605E+03  0.12509000000E+03 0.  0.
         25    1    3    3    0    0  0.92249303853E+02  0.54605191133E+02 -0.47967753907E+02  0.17158110174E+03  0.12509000000E+03 0.  0.
<mgrwt>
<rscale>  2 0.45951599E+03</rscale>
<asrwt>0</asrwt>
<pdfrwt beam="1">  1       21 0.31781036E-01 0.45951599E+03</pdfrwt>
<pdfrwt beam="2">  1       21 0.35921576E-01 0.45951599E+03</pdfrwt>
<totfact> 0.65752308E+04</totfact>
</mgrwt>
</event>
<event>
 7    0  0.4714446E-002  0.4523835E+03  0.7546771E-02  0.1027014E+00
         21   -1    0    0  502  501  0.00000000000E+00  0.00000000000E+00  0.59762692371E+02  0.59762692371E+02  0.00000000000E+00 0. -1.
         21   -1    0    0  501  502 -0.00000000000E+00 -0.00000000000E+00 -0.85609770392E+03  0.85609770392E+03  0.00000000000E+00 0. -1.
      99926    2    1    2    0    0  0.14210854715E-13  0.00000000000E+00 -0.79633501155E+03  0.91586039629E+03  0.45238348210E+03 0.  0.
      99925    2    3    3    0    0 -0.75770400786E+02  0.76579165917E+02 -0.55374286057E+03  0.62242559586E+03  0.26301510311E+03 0.  0.
         25    1    4    4    0    0 -0.51706235704E+01  0.53447966071E+02 -0.22581496526E+03  0.26367276511E+03  0.12509000000E+03 0.  0.
         25    1    4    4    0    0 -0.70599777215E+02  0.23131199846E+02 -0.32792789531E+03  0.35875283075E+03  0.12509000000E+03 0.  0.
         25    1    3    3    0    0  0.75770400786E+02 -0.76579165917E+02 -0.24259215098E+03  0.29343480043E+03  0.12509000000E+03 0.  0.
<mgrwt>
<rscale>  2 0.45238348E+03</rscale>
<asrwt>0</asrwt>
<pdfrwt beam="1">  1       21 0.87886316E-02 0.45238348E+03</pdfrwt>
<pdfrwt beam="2">  1       21 0.12589672E+00 0.45238348E+03</pdfrwt>
<totfact> 0.43437431E+04</totfact>
</mgrwt>
</event>
<event>
 7    0  0.4714446E-002  0.4477099E+03  0.7546771E-02  0.1028407E+00
         21   -1    0    0  502  501  0.00000000000E+00  0.00000000000E+00  0.22441275130E+04  0.22441275130E+04  0.00000000000E+00 0. -1.
         21   -1    0    0  501  502 -0.00000000000E+00 -0.00000000000E+00 -0.22329851431E+02  0.22329851431E+02  0.00000000000E+00 0. -1.
      99926    2    1    2    0    0  0.17763568394E-14  0.00000000000E+00  0.22217976615E+04  0.22664573644E+04  0.44770987908E+03 0.  0.
      99925    2    3    3    0    0 -0.11694792737E+02  0.65950130421E+02  0.18239427402E+04  0.18440568028E+04  0.26323408723E+03 0.  0.
         25    1    4    4    0    0  0.14956088126E+02  0.62991055776E+02  0.10876997050E+04  0.10967815252E+04  0.12509000000E+03 0.  0.
         25    1    3    3    0    0  0.11694792737E+02 -0.65950130421E+02  0.39785492140E+03  0.42240056162E+03  0.12509000000E+03 0.  0.
         25    1    4    4    0    0 -0.26650880863E+02  0.29590746451E+01  0.73624303515E+03  0.74727527758E+03  0.12509000000E+03 0.  0.
<mgrwt>
<rscale>  2 0.44770988E+03</rscale>
<asrwt>0</asrwt>
<pdfrwt beam="1">  1       21 0.33001860E+00 0.44770988E+03</pdfrwt>
<pdfrwt beam="2">  1       21 0.32838032E-02 0.44770988E+03</pdfrwt>
<totfact> 0.10403581E+04</totfact>
</mgrwt>
</event>
<event>
 7    0  0.4714446E-002  0.4531091E+03  0.7546771E-02  0.1026799E+00
         21   -1    0    0  502  501  0.00000000000E+00  0.00000000000E+00  0.27409449057E+03  0.27409449057E+03  0.00000000000E+00 0.  1.
         21   -1    0    0  501  502 -0.00000000000E+00 -0.00000000000E+00 -0.18726009975E+03  0.18726009975E+03  0.00000000000E+00 0.  1.
      99926    2    1    2    0    0  0.00000000000E+00  0.14210854715E-13  0.86834390820E+02  0.46135459031E+03  0.45310908904E+03 0.  0.
      99925    2    3    3    0    0 -0.44021677734E+02  0.99636473209E+02  0.78368027676E+02  0.29526870196E+03  0.26301468342E+03 0.  0.
         25    1    4    4    0    0 -0.97610020833E+01  0.28527492097E+02  0.17350055980E+01  0.12868416107E+03  0.12509000000E+03 0.  0.
         25    1    4    4    0    0 -0.34260675651E+02  0.71108981111E+02  0.76633022078E+02  0.16658454089E+03  0.12509000000E+03 0.  0.
         25    1    3    3    0    0  0.44021677734E+02 -0.99636473209E+02  0.84663631435E+01  0.16608588835E+03  0.12509000000E+03 0.  0.
<mgrwt>
<rscale>  2 0.45310909E+03</rscale>
<asrwt>0</asrwt>
<pdfrwt beam="1">  1       21 0.40308013E-01 0.45310909E+03</pdfrwt>
<pdfrwt beam="2">  1       21 0.27538250E-01 0.45310909E+03</pdfrwt>
<totfact> 0.69114706E+04</totfact>
</mgrwt>
</event>
<event>
 7    0  0.4714446E-002  0.4566208E+03  0.7546771E-02  0.1025766E+00
         21   -1    0    0  502  501  0.00000000000E+00  0.00000000000E+00  0.91827837865E+03  0.91827837865E+03  0.00000000000E+00 0.  1.
         21   -1    0    0  501  502 -0.00000000000E+00 -0.00000000000E+00 -0.56764539257E+02  0.56764539257E+02  0.00000000000E+00 0.  1.
      99926    2    1    2    0    0  0.00000000000E+00  0.00000000000E+00  0.86151383939E+03  0.97504291791E+03  0.45662084522E+03 0.  0.
      99925    2    3    3    0    0  0.52364850350E+02 -0.10101562108E+03  0.57071192481E+03  0.63865104096E+03  0.26309089254E+03 0.  0.
         25    1    4    4    0    0  0.25611936515E+02 -0.76534743801E+01  0.27100885231E+03  0.29967958405E+03  0.12509000000E+03 0.  0.
         25    1    3    3    0    0 -0.52364850350E+02  0.10101562108E+03  0.29080191458E+03  0.33639187695E+03  0.12509000000E+03 0.  0.
         25    1    4    4    0    0  0.26752913835E+02 -0.93362146697E+02  0.29970307250E+03  0.33897145691E+03  0.12509000000E+03 0.  0.
<mgrwt>
<rscale>  2 0.45662085E+03</rscale>
<asrwt>0</asrwt>
<pdfrwt beam="1">  1       21 0.13504093E+00 0.45662085E+03</pdfrwt>
<pdfrwt beam="2">  1       21 0.83477269E-02 0.45662085E+03</pdfrwt>
<totfact> 0.39638362E+04</totfact>
</mgrwt>
</event>
<event>
 7    0  0.4714446E-002  0.4402920E+03  0.7546771E-02  0.1030657E+00
         21   -1    0    0  502  501  0.00000000000E+00  0.00000000000E+00  0.50085084108E+03  0.50085084108E+03  0.00000000000E+00 0.  1.
         21   -1    0    0  501  502 -0.00000000000E+00 -0.00000000000E+00 -0.96763851978E+02  0.96763851978E+02  0.00000000000E+00 0.  1.
      99926    2    1    2    0    0  0.00000000000E+00  0.00000000000E+00  0.40408698910E+03  0.59761469305E+03  0.44029197880E+03 0.  0.
      99925    2    3    3    0    0 -0.68354797527E+02 -0.65919751128E+02  0.22082625638E+03  0.35626474756E+03  0.26294969654E+03 0.  0.
         25    1    3    3    0    0  0.68354797527E+02  0.65919751128E+02  0.18326073272E+03  0.24134994550E+03  0.12509000000E+03 0.  0.
         25    1    4    4    0    0 -0.56635749532E+02 -0.15937545704E+01  0.93118088977E+02  0.16591755414E+03  0.12509000000E+03 0.  0.
         25    1    4    4    0    0 -0.11719047995E+02 -0.64325996558E+02  0.12770816740E+03  0.19034719341E+03  0.12509000000E+03 0.  0.
<mgrwt>
<rscale>  2 0.44029198E+03</rscale>
<asrwt>0</asrwt>
<pdfrwt beam="1">  1       21 0.73654534E-01 0.44029198E+03</pdfrwt>
<pdfrwt beam="2">  1       21 0.14229978E-01 0.44029198E+03</pdfrwt>
<totfact> 0.66188321E+04</totfact>
</mgrwt>
</event>
<event>
 7    0  0.4714446E-002  0.4620103E+03  0.7546771E-02  0.1024200E+00
         21   -1    0    0  502  501  0.00000000000E+00  0.00000000000E+00  0.29723651589E+03  0.29723651589E+03  0.00000000000E+00 0.  1.
         21   -1    0    0  501  502 -0.00000000000E+00 -0.00000000000E+00 -0.17953170555E+03  0.17953170555E+03  0.00000000000E+00 0.  1.
      99926    2    1    2    0    0  0.00000000000E+00 -0.14210854715E-13  0.11770481034E+03  0.47676822144E+03  0.46201029707E+03 0.  0.
      99925    2    3    3    0    0  0.39095321365E+02 -0.65316311601E+02  0.16872514427E+03  0.32170292136E+03  0.26311581212E+03 0.  0.
         25    1    4    4    0    0  0.11797988646E+02 -0.73013259505E+02  0.81825125025E+02  0.16677226324E+03  0.12509000000E+03 0.  0.
         25    1    4    4    0    0  0.27297332719E+02  0.76969479040E+01  0.86900019246E+02  0.15493065812E+03  0.12509000000E+03 0.  0.
         25    1    3    3    0    0 -0.39095321365E+02  0.65316311601E+02 -0.51020333935E+02  0.15506530008E+03  0.12509000000E+03 0.  0.
<mgrwt>
<rscale>  2 0.46201030E+03</rscale>
<asrwt>0</asrwt>
<pdfrwt beam="1">  1       21 0.43711252E-01 0.46201030E+03</pdfrwt>
<pdfrwt beam="2">  1       21 0.26401721E-01 0.46201030E+03</pdfrwt>
<totfact> 0.63338961E+04</totfact>
</mgrwt>
</event>
<event>
 7    0  0.4714446E-002  0.4523782E+03  0.7546771E-02  0.1027015E+00
         21   -1    0    0  502  501  0.00000000000E+00  0.00000000000E+00  0.97315938388E+02  0.97315938388E+02  0.00000000000E+00 0.  1.
         21   -1    0    0  501  502 -0.00000000000E+00 -0.00000000000E+00 -0.52572583244E+03  0.52572583244E+03  0.00000000000E+00 0.  1.
      99926    2    1    2    0    0 -0.71054273576E-14  0.00000000000E+00 -0.42840989405E+03  0.62304177083E+03  0.45237817241E+03 0.  0.
      99925    2    3    3    0    0 -0.58413598461E+02 -0.34223208954E+02 -0.39085818853E+03  0.47593291588E+03  0.26298030412E+03 0.  0.
         25    1    3    3    0    0  0.58413598461E+02  0.34223208954E+02 -0.37551705517E+02  0.14710885495E+03  0.12509000000E+03 0.  0.
         25    1    4    4    0    0 -0.28813674538E+02 -0.10611502832E+02 -0.26424550001E+03  0.29396602560E+03  0.12509000000E+03 0.  0.
         25    1    4    4    0    0 -0.29599923924E+02 -0.23611706123E+02 -0.12661268853E+03  0.18196689028E+03  0.12509000000E+03 0.  0.
<mgrwt>
<rscale>  2 0.45237817E+03</rscale>
<asrwt>0</asrwt>
<pdfrwt beam="1">  1       21 0.14311167E-01 0.45237817E+03</pdfrwt>
<pdfrwt beam="2">  1       21 0.77312622E-01 0.45237817E+03</pdfrwt>
<totfact> 0.58483230E+04</totfact>
</mgrwt>
</event>
<event>
 7    0  0.4714446E-002  0.4562896E+03  0.7546771E-02  0.1025863E+00
         21   -1    0    0  502  501  0.00000000000E+00  0.00000000000E+00  0.31338563882E+03  0.31338563882E+03  0.00000000000E+00 0. -1.
         21   -1    0    0  501  502 -0.00000000000E+00 -0.00000000000E+00 -0.16608944277E+03  0.16608944277E+03  0.00000000000E+00 0. -1.
      99926    2    1    2    0    0  0.00000000000E+00  0.00000000000E+00  0.14729619605E+03  0.47947508159E+03  0.45628958403E+03 0.  0.
      99925    2    3    3    0    0 -0.99196674006E+01 -0.20357081789E+02 -0.25497035031E+02  0.26495743806E+03  0.26275375280E+03 0.  0.
         25    1    3    3    0    0  0.99196674006E+01  0.20357081789E+02  0.17279323108E+03  0.21451764353E+03  0.12509000000E+03 0.  0.
         25    1    4    4    0    0  0.16104470434E+02  0.24049637779E+02 -0.15413222666E+02  0.12931672196E+03  0.12509000000E+03 0.  0.
         25    1    4    4    0    0 -0.26024137835E+02 -0.44406719568E+02 -0.10083812365E+02  0.13564071610E+03  0.12509000000E+03 0.  0.
<mgrwt>
<rscale>  2 0.45628958E+03</rscale>
<asrwt>0</asrwt>
<pdfrwt beam="1">  1       21 0.46086124E-01 0.45628958E+03</pdfrwt>
<pdfrwt beam="2">  1       21 0.24424918E-01 0.45628958E+03</pdfrwt>
<totfact> 0.66059575E+04</totfact>
</mgrwt>
</event>
<event>
 7    0  0.4714446E-002  0.4124143E+03  0.7546771E-02  0.1039564E+00
         21   -1    0    0  502  501  0.00000000000E+00  0.00000000000E+00  0.41753963617E+03  0.41753963617E+03  0.00000000000E+00 0.  1.
         21   -1    0    0  501  502 -0.00000000000E+00 -0.00000000000E+00 -0.10183796001E+03  0.10183796001E+03  0.00000000000E+00 0.  1.
      99926    2    1    2    0    0  0.00000000000E+00  0.00000000000E+00  0.31570167617E+03  0.51937759618E+03  0.41241428089E+03 0.  0.
      99925    2    3    3    0    0  0.25203863432E+02  0.61022422535E+02  0.20921295715E+03  0.34232865899E+03  0.26279246287E+03 0.  0.
         25    1    3    3    0    0 -0.25203863432E+02 -0.61022422535E+02  0.10648871902E+03  0.17704893719E+03  0.12509000000E+03 0.  0.
         25    1    4    4    0    0  0.15135224677E+02  0.64497686440E+02  0.13945852563E+03  0.19870887009E+03  0.12509000000E+03 0.  0.
         25    1    4    4    0    0  0.10068638755E+02 -0.34752639058E+01  0.69754431517E+02  0.14361978889E+03  0.12509000000E+03 0.  0.
<mgrwt>
<rscale>  2 0.41241428E+03</rscale>
<asrwt>0</asrwt>
<pdfrwt beam="1">  1       21 0.61402887E-01 0.41241428E+03</pdfrwt>
<pdfrwt beam="2">  1       21 0.14976171E-01 0.41241428E+03</pdfrwt>
<totfact> 0.90935920E+04</totfact>
</mgrwt>
</event>
<event>
 7    0  0.4714446E-002  0.4559203E+03  0.7546771E-02  0.1025971E+00
         21   -1    0    0  502  501  0.00000000000E+00  0.00000000000E+00  0.20273919184E+03  0.20273919184E+03  0.00000000000E+00 0.  1.
         21   -1    0    0  501  502 -0.00000000000E+00 -0.00000000000E+00 -0.25631858368E+03  0.25631858368E+03  0.00000000000E+00 0.  1.
      99926    2    1    2    0    0  0.00000000000E+00  0.00000000000E+00 -0.53579391841E+02  0.45905777551E+03  0.45592026718E+03 0.  0.
      99925    2    3    3    0    0 -0.34666233625E+02 -0.40286216518E+02  0.67943705517E+02  0.27673910317E+03  0.26295143488E+03 0.  0.
         25    1    4    4    0    0 -0.31138079691E+02 -0.39801091325E+02  0.12111932152E+01  0.13491731530E+03  0.12509000000E+03 0.  0.
         25    1    4    4    0    0 -0.35281539342E+01 -0.48512519327E+00  0.66732512302E+02  0.14182178787E+03  0.12509000000E+03 0.  0.
         25    1    3    3    0    0  0.34666233625E+02  0.40286216518E+02 -0.12152309736E+03  0.18231867235E+03  0.12509000000E+03 0.  0.
<mgrwt>
<rscale>  2 0.45592027E+03</rscale>
<asrwt>0</asrwt>
<pdfrwt beam="1">  1       21 0.29814587E-01 0.45592027E+03</pdfrwt>
<pdfrwt beam="2">  1       21 0.37693909E-01 0.45592027E+03</pdfrwt>
<totfact> 0.67750627E+04</totfact>
</mgrwt>
</event>
<event>
 7    0  0.4714446E-002  0.4460286E+03  0.7546771E-02  0.1028913E+00
         21   -1    0    0  502  501  0.00000000000E+00  0.00000000000E+00  0.57442506270E+02  0.57442506270E+02  0.00000000000E+00 0.  1.
         21   -1    0    0  501  502 -0.00000000000E+00 -0.00000000000E+00 -0.86582873578E+03  0.86582873578E+03  0.00000000000E+00 0.  1.
      99926    2    1    2    0    0  0.00000000000E+00  0.35527136788E-14 -0.80838622951E+03  0.92327124205E+03  0.44602857569E+03 0.  0.
      99925    2    3    3    0    0 -0.55058682864E+01 -0.21920377282E+02 -0.30085257112E+03  0.40006120772E+03  0.26272777327E+03 0.  0.
         25    1    4    4    0    0 -0.12837013936E+00  0.28116023992E+02 -0.13258583676E+03  0.18443708818E+03  0.12509000000E+03 0.  0.
         25    1    3    3    0    0  0.55058682864E+01  0.21920377282E+02 -0.50753365838E+03  0.52321003433E+03  0.12509000000E+03 0.  0.
         25    1    4    4    0    0 -0.53774981471E+01 -0.50036401274E+02 -0.16826673436E+03  0.21562411955E+03  0.12509000000E+03 0.  0.
<mgrwt>
<rscale>  2 0.44602858E+03</rscale>
<asrwt>0</asrwt>
<pdfrwt beam="1">  1       21 0.84474274E-02 0.44602858E+03</pdfrwt>
<pdfrwt beam="2">  1       21 0.12732776E+00 0.44602858E+03</pdfrwt>
<totfact> 0.45341754E+04</totfact>
</mgrwt>
</event>
<event>
 7    0  0.4714446E-002  0.4545456E+03  0.7546771E-02  0.1026375E+00
         21   -1    0    0  502  501  0.00000000000E+00  0.00000000000E+00  0.10158486591E+04  0.10158486591E+04  0.00000000000E+00 0. -1.
         21   -1    0    0  501  502 -0.00000000000E+00 -0.00000000000E+00 -0.50847060488E+02  0.50847060488E+02  0.00000000000E+00 0. -1.
      99926    2    1    2    0    0  0.00000000000E+00  0.00000000000E+00  0.96500159861E+03  0.10666957196E+04  0.45454556742E+03 0.  0.
      99925    2    3    3    0    0 -0.48025480095E+02  0.95665589298E+02  0.52549103841E+03  0.59736066620E+03  0.26313605293E+03 0.  0.
         25    1    4    4    0    0 -0.30926299630E+02  0.89354216837E+02  0.26770141069E+03  0.31024533109E+03  0.12509000000E+03 0.  0.
         25    1    4    4    0    0 -0.17099180465E+02  0.63113724617E+01  0.25778962772E+03  0.28711533511E+03  0.12509000000E+03 0.  0.
         25    1    3    3    0    0  0.48025480095E+02 -0.95665589298E+02  0.43951056020E+03  0.46933505339E+03  0.12509000000E+03 0.  0.
<mgrwt>
<rscale>  2 0.45454557E+03</rscale>
<asrwt>0</asrwt>
<pdfrwt beam="1">  1       21 0.14938950E+00 0.45454557E+03</pdfrwt>
<pdfrwt beam="2">  1       21 0.74775095E-02 0.45454557E+03</pdfrwt>
<totfact> 0.36801018E+04</totfact>
</mgrwt>
</event>
<event>
 7    0  0.4714446E-002  0.4540690E+03  0.7546771E-02  0.1026516E+00
         21   -1    0    0  502  501  0.00000000000E+00  0.00000000000E+00  0.78178211988E+03  0.78178211988E+03  0.00000000000E+00 0. -1.
         21   -1    0    0  501  502 -0.00000000000E+00 -0.00000000000E+00 -0.65932276684E+02  0.65932276684E+02  0.00000000000E+00 0. -1.
      99926    2    1    2    0    0  0.00000000000E+00  0.00000000000E+00  0.71584984319E+03  0.84771439656E+03  0.45406904776E+03 0.  0.
      99925    2    3    3    0    0  0.42260155304E+02  0.10308595941E+03  0.42744014883E+03  0.51418734270E+03  0.26319366787E+03 0.  0.
         25    1    4    4    0    0  0.92292005478E+01  0.65200849054E+02  0.15230203246E+03  0.20779736777E+03  0.12509000000E+03 0.  0.
         25    1    3    3    0    0 -0.42260155304E+02 -0.10308595941E+03  0.28840969437E+03  0.33352705386E+03  0.12509000000E+03 0.  0.
         25    1    4    4    0    0  0.33030954756E+02  0.37885110360E+02  0.27513811636E+03  0.30638997493E+03  0.12509000000E+03 0.  0.
<mgrwt>
<rscale>  2 0.45406905E+03</rscale>
<asrwt>0</asrwt>
<pdfrwt beam="1">  1       21 0.11496795E+00 0.45406905E+03</pdfrwt>
<pdfrwt beam="2">  1       21 0.96959235E-02 0.45406905E+03</pdfrwt>
<totfact> 0.45875914E+04</totfact>
</mgrwt>
</event>
<event>
 7    0  0.4714446E-002  0.4562462E+03  0.7546771E-02  0.1025876E+00
         21   -1    0    0  502  501  0.00000000000E+00  0.00000000000E+00  0.24276651447E+03  0.24276651447E+03  0.00000000000E+00 0.  1.
         21   -1    0    0  501  502 -0.00000000000E+00 -0.00000000000E+00 -0.21436297330E+03  0.21436297330E+03  0.00000000000E+00 0.  1.
      99926    2    1    2    0    0  0.35527136788E-14  0.00000000000E+00  0.28403541175E+02  0.45712948777E+03  0.45624621361E+03 0.  0.
      99925    2    3    3    0    0 -0.27059665654E+02  0.55539866829E+02 -0.78593694822E+02  0.28130907108E+03  0.26294661491E+03 0.  0.
         25    1    4    4    0    0 -0.25844742775E+02  0.38362167641E+02 -0.79055706800E+02  0.15503844527E+03  0.12509000000E+03 0.  0.
         25    1    3    3    0    0  0.27059665654E+02 -0.55539866829E+02  0.10699723600E+03  0.17582041669E+03  0.12509000000E+03 0.  0.
         25    1    4    4    0    0 -0.12149228798E+01  0.17177699189E+02  0.46201197779E+00  0.12627062581E+03  0.12509000000E+03 0.  0.
<mgrwt>
<rscale>  2 0.45624621E+03</rscale>
<asrwt>0</asrwt>
<pdfrwt beam="1">  1       21 0.35700958E-01 0.45624621E+03</pdfrwt>
<pdfrwt beam="2">  1       21 0.31523967E-01 0.45624621E+03</pdfrwt>
<totfact> 0.67714292E+04</totfact>
</mgrwt>
</event>
<event>
 7    0  0.4714446E-002  0.4564104E+03  0.7546771E-02  0.1025827E+00
         21   -1    0    0  502  501  0.00000000000E+00  0.00000000000E+00  0.92895060367E+02  0.92895060367E+02  0.00000000000E+00 0.  1.
         21   -1    0    0  501  502 -0.00000000000E+00 -0.00000000000E+00 -0.56060686535E+03  0.56060686535E+03  0.00000000000E+00 0.  1.
      99926    2    1    2    0    0  0.71054273576E-14  0.00000000000E+00 -0.46771180499E+03  0.65350192572E+03  0.45641037937E+03 0.  0.
      99925    2    3    3    0    0 -0.52948708958E+02  0.95947657114E+02 -0.34147815565E+03  0.44471504632E+03  0.26297266578E+03 0.  0.
         25    1    3    3    0    0  0.52948708958E+02 -0.95947657114E+02 -0.12623364934E+03  0.20878687940E+03  0.12509000000E+03 0.  0.
         25    1    4    4    0    0 -0.63798322126E+02  0.37150723791E+02 -0.15609871439E+03  0.21322457391E+03  0.12509000000E+03 0.  0.
         25    1    4    4    0    0  0.10849613167E+02  0.58796933323E+02 -0.18537944126E+03  0.23149047241E+03  0.12509000000E+03 0.  0.
<mgrwt>
<rscale>  2 0.45641038E+03</rscale>
<asrwt>0</asrwt>
<pdfrwt beam="1">  1       21 0.13661039E-01 0.45641038E+03</pdfrwt>
<pdfrwt beam="2">  1       21 0.82442182E-01 0.45641038E+03</pdfrwt>
<totfact> 0.54887012E+04</totfact>
</mgrwt>
</event>
<event>
 7    0  0.4714446E-002  0.4515015E+03  0.7546771E-02  0.1027275E+00
         21   -1    0    0  502  501  0.00000000000E+00  0.00000000000E+00  0.89363625676E+02  0.89363625676E+02  0.00000000000E+00 0. -1.
         21   -1    0    0  501  502 -0.00000000000E+00 -0.00000000000E+00 -0.57029252646E+03  0.57029252646E+03  0.00000000000E+00 0. -1.
      99926    2    1    2    0    0  0.00000000000E+00  0.00000000000E+00 -0.48092890078E+03  0.65965615213E+03  0.45150152983E+03 0.  0.
      99925    2    3    3    0    0  0.15161609040E+02 -0.99332837348E+02 -0.23885729688E+03  0.36923739158E+03  0.26303337451E+03 0.  0.
         25    1    3    3    0    0 -0.15161609040E+02  0.99332837348E+02 -0.24207160390E+03  0.29041876055E+03  0.12509000000E+03 0.  0.
         25    1    4    4    0    0 -0.23992497044E+02 -0.76195752521E+02 -0.12942232827E+03  0.19692404569E+03  0.12509000000E+03 0.  0.
         25    1    4    4    0    0  0.39154106084E+02 -0.23137084828E+02 -0.10943496861E+03  0.17231334589E+03  0.12509000000E+03 0.  0.
<mgrwt>
<rscale>  2 0.45150153E+03</rscale>
<asrwt>0</asrwt>
<pdfrwt beam="1">  1       21 0.13141709E-01 0.45150153E+03</pdfrwt>
<pdfrwt beam="2">  1       21 0.83866551E-01 0.45150153E+03</pdfrwt>
<totfact> 0.56696167E+04</totfact>
</mgrwt>
</event>
<event>
 7    0  0.4714446E-002  0.4537885E+03  0.7546771E-02  0.1026598E+00
         21   -1    0    0  502  501  0.00000000000E+00  0.00000000000E+00  0.38915334404E+03  0.38915334404E+03  0.00000000000E+00 0. -1.
         21   -1    0    0  501  502 -0.00000000000E+00 -0.00000000000E+00 -0.13228975317E+03  0.13228975317E+03  0.00000000000E+00 0. -1.
      99926    2    1    2    0    0  0.00000000000E+00  0.00000000000E+00  0.25686359087E+03  0.52144309721E+03  0.45378849623E+03 0.  0.
      99925    2    3    3    0    0 -0.25040849008E+02 -0.79690087746E+02  0.24746435564E+03  0.37073341627E+03  0.26311044150E+03 0.  0.
         25    1    4    4    0    0  0.64669527770E+01 -0.65697842156E+02  0.94289443930E+02  0.16998833865E+03  0.12509000000E+03 0.  0.
         25    1    4    4    0    0 -0.31507801785E+02 -0.13992245590E+02  0.15317491171E+03  0.20074507762E+03  0.12509000000E+03 0.  0.
         25    1    3    3    0    0  0.25040849008E+02  0.79690087746E+02  0.93992352222E+01  0.15070968093E+03  0.12509000000E+03 0.  0.
<mgrwt>
<rscale>  2 0.45378850E+03</rscale>
<asrwt>0</asrwt>
<pdfrwt beam="1">  1       21 0.57228433E-01 0.45378850E+03</pdfrwt>
<pdfrwt beam="2">  1       21 0.19454376E-01 0.45378850E+03</pdfrwt>
<totfact> 0.64405808E+04</totfact>
</mgrwt>
</event>
<event>
 7    0  0.4714446E-002  0.4529392E+03  0.7546771E-02  0.1026849E+00
         21   -1    0    0  502  501  0.00000000000E+00  0.00000000000E+00  0.16056040890E+04  0.16056040890E+04  0.00000000000E+00 0. -1.
         21   -1    0    0  501  502 -0.00000000000E+00 -0.00000000000E+00 -0.31943420952E+02  0.31943420952E+02  0.00000000000E+00 0. -1.
      99926    2    1    2    0    0  0.00000000000E+00 -0.14210854715E-13  0.15736606680E+04  0.16375475099E+04  0.45293923344E+03 0.  0.
      99925    2    3    3    0    0  0.49311592876E+02 -0.78699294426E+02  0.77733143801E+03  0.82612101122E+03  0.26383052992E+03 0.  0.
         25    1    4    4    0    0  0.75479624072E+01  0.13594604330E+01  0.35934819345E+03  0.38057515960E+03  0.12509000000E+03 0.  0.
         25    1    3    3    0    0 -0.49311592876E+02  0.78699294426E+02  0.79632923003E+03  0.81142649872E+03  0.12509000000E+03 0.  0.
         25    1    4    4    0    0  0.41763630469E+02 -0.80058754859E+02  0.41798324456E+03  0.44554585161E+03  0.12509000000E+03 0.  0.
<mgrwt>
<rscale>  2 0.45293923E+03</rscale>
<asrwt>0</asrwt>
<pdfrwt beam="1">  1       21 0.23611819E+00 0.45293923E+03</pdfrwt>
<pdfrwt beam="2">  1       21 0.46975630E-02 0.45293923E+03</pdfrwt>
<totfact> 0.20927301E+04</totfact>
</mgrwt>
</event>
<event>
 7    0  0.4714446E-002  0.4682012E+03  0.7546771E-02  0.1022429E+00
         21   -1    0    0  502  501  0.00000000000E+00  0.00000000000E+00  0.44640171383E+03  0.44640171383E+03  0.00000000000E+00 0. -1.
         21   -1    0    0  501  502 -0.00000000000E+00 -0.00000000000E+00 -0.12276633228E+03  0.12276633228E+03  0.00000000000E+00 0. -1.
      99926    2    1    2    0    0  0.00000000000E+00  0.00000000000E+00  0.32363538154E+03  0.56916804611E+03  0.46820124362E+03 0.  0.
      99925    2    3    3    0    0 -0.11330815356E+03 -0.26643869057E+02  0.14586106494E+03  0.32259179185E+03  0.26313756950E+03 0.  0.
         25    1    3    3    0    0  0.11330815356E+03  0.26643869057E+02  0.17777431661E+03  0.24657625426E+03  0.12509000000E+03 0.  0.
         25    1    4    4    0    0 -0.26132481468E+02 -0.13882302808E+02  0.10001231571E+03  0.16286680544E+03  0.12509000000E+03 0.  0.
         25    1    4    4    0    0 -0.87175672095E+02 -0.12761566249E+02  0.45848749223E+02  0.15972498641E+03  0.12509000000E+03 0.  0.
<mgrwt>
<rscale>  2 0.46820124E+03</rscale>
<asrwt>0</asrwt>
<pdfrwt beam="1">  1       21 0.65647310E-01 0.46820124E+03</pdfrwt>
<pdfrwt beam="2">  1       21 0.18053873E-01 0.46820124E+03</pdfrwt>
<totfact> 0.54681116E+04</totfact>
</mgrwt>
</event>
<event>
 7    0  0.4714446E-002  0.4444992E+03  0.7546771E-02  0.1029375E+00
         21   -1    0    0  502  501  0.00000000000E+00  0.00000000000E+00  0.29228514780E+03  0.29228514780E+03  0.00000000000E+00 0.  1.
         21   -1    0    0  501  502 -0.00000000000E+00 -0.00000000000E+00 -0.16899550685E+03  0.16899550685E+03  0.00000000000E+00 0.  1.
      99926    2    1    2    0    0  0.00000000000E+00  0.00000000000E+00  0.12328964095E+03  0.46128065465E+03  0.44449916399E+03 0.  0.
      99925    2    3    3    0    0  0.47252300255E+02 -0.89058399096E+02  0.56314912798E+02  0.28721945668E+03  0.26298187877E+03 0.  0.
         25    1    4    4    0    0  0.63495212119E+02 -0.37137052609E+02  0.33245656132E+02  0.14887439132E+03  0.12509000000E+03 0.  0.
         25    1    3    3    0    0 -0.47252300255E+02  0.89058399096E+02  0.66974728154E+02  0.17406119797E+03  0.12509000000E+03 0.  0.
         25    1    4    4    0    0 -0.16242911864E+02 -0.51921346487E+02  0.23069256665E+02  0.13834506536E+03  0.12509000000E+03 0.  0.
<mgrwt>
<rscale>  2 0.44449916E+03</rscale>
<asrwt>0</asrwt>
<pdfrwt beam="1">  1       21 0.42983110E-01 0.44449916E+03</pdfrwt>
<pdfrwt beam="2">  1       21 0.24852280E-01 0.44449916E+03</pdfrwt>
<totfact> 0.74070279E+04</totfact>
</mgrwt>
</event>
<event>
 7    0  0.4714446E-002  0.4579915E+03  0.7546771E-02  0.1025365E+00
         21   -1    0    0  502  501  0.00000000000E+00  0.00000000000E+00  0.57513745874E+03  0.57513745874E+03  0.00000000000E+00 0.  1.
         21   -1    0    0  501  502 -0.00000000000E+00 -0.00000000000E+00 -0.91176551487E+02  0.91176551487E+02  0.00000000000E+00 0.  1.
      99926    2    1    2    0    0  0.00000000000E+00  0.00000000000E+00  0.48396090726E+03  0.66631401023E+03  0.45799148516E+03 0.  0.
      99925    2    3    3    0    0 -0.32310917117E+02  0.10876752387E+03  0.26893597405E+03  0.39289565018E+03  0.26299441853E+03 0.  0.
         25    1    4    4    0    0 -0.52832398157E+02  0.71492908542E+02  0.12947819108E+03  0.20078498034E+03  0.12509000000E+03 0.  0.
         25    1    4    4    0    0  0.20521481040E+02  0.37274615330E+02  0.13945778298E+03  0.19211066984E+03  0.12509000000E+03 0.  0.
         25    1    3    3    0    0  0.32310917117E+02 -0.10876752387E+03  0.21502493320E+03  0.27341836005E+03  0.12509000000E+03 0.  0.
<mgrwt>
<rscale>  2 0.45799149E+03</rscale>
<asrwt>0</asrwt>
<pdfrwt beam="1">  1       21 0.84579036E-01 0.45799149E+03</pdfrwt>
<pdfrwt beam="2">  1       21 0.13408317E-01 0.45799149E+03</pdfrwt>
<totfact> 0.53497243E+04</totfact>
</mgrwt>
</event>
<event>
 7    0  0.4714446E-002  0.4250949E+03  0.7546771E-02  0.1035421E+00
         21   -1    0    0  502  501  0.00000000000E+00  0.00000000000E+00  0.62932260095E+03  0.62932260095E+03  0.00000000000E+00 0. -1.
         21   -1    0    0  501  502 -0.00000000000E+00 -0.00000000000E+00 -0.71785793568E+02  0.71785793568E+02  0.00000000000E+00 0. -1.
      99926    2    1    2    0    0  0.00000000000E+00  0.00000000000E+00  0.55753680738E+03  0.70110839452E+03  0.42509491796E+03 0.  0.
      99925    2    3    3    0    0 -0.40614979969E+02  0.68522735502E+02  0.32878550721E+03  0.42849216736E+03  0.26298419318E+03 0.  0.
         25    1    4    4    0    0 -0.47186920309E+02  0.65693819085E+02  0.16532408216E+03  0.22253503894E+03  0.12509000000E+03 0.  0.
         25    1    3    3    0    0  0.40614979969E+02 -0.68522735502E+02  0.22875130018E+03  0.27261622716E+03  0.12509000000E+03 0.  0.
         25    1    4    4    0    0  0.65719403397E+01  0.28289164168E+01  0.16346142505E+03  0.20595712842E+03  0.12509000000E+03 0.  0.
<mgrwt>
<rscale>  2 0.42509492E+03</rscale>
<asrwt>0</asrwt>
<pdfrwt beam="1">  1       21 0.92547438E-01 0.42509492E+03</pdfrwt>
<pdfrwt beam="2">  1       21 0.10556735E-01 0.42509492E+03</pdfrwt>
<totfact> 0.67346990E+04</totfact>
</mgrwt>
</event>
<event>
 7    0  0.4714446E-002  0.4569345E+03  0.7546771E-02  0.1025674E+00
         21   -1    0    0  502  501  0.00000000000E+00  0.00000000000E+00  0.18797315982E+03  0.18797315982E+03  0.00000000000E+00 0.  1.
         21   -1    0    0  501  502 -0.00000000000E+00 -0.00000000000E+00 -0.27768481687E+03  0.27768481687E+03  0.00000000000E+00 0.  1.
      99926    2    1    2    0    0  0.00000000000E+00  0.00000000000E+00 -0.89711657052E+02  0.46565797669E+03  0.45693453563E+03 0.  0.
      99925    2    3    3    0    0 -0.40473782141E+02  0.10662073351E+03 -0.71885281503E+02  0.29544811911E+03  0.26289920032E+03 0.  0.
         25    1    4    4    0    0 -0.13944022593E+02  0.74885260938E+02 -0.23573767185E+01  0.14647628954E+03  0.12509000000E+03 0.  0.
         25    1    3    3    0    0  0.40473782141E+02 -0.10662073351E+03 -0.17826375549E+02  0.17020985759E+03  0.12509000000E+03 0.  0.
         25    1    4    4    0    0 -0.26529759547E+02  0.31735472571E+02 -0.69527904785E+02  0.14897182957E+03  0.12509000000E+03 0.  0.
<mgrwt>
<rscale>  2 0.45693454E+03</rscale>
<asrwt>0</asrwt>
<pdfrwt beam="1">  1       21 0.27643112E-01 0.45693454E+03</pdfrwt>
<pdfrwt beam="2">  1       21 0.40836002E-01 0.45693454E+03</pdfrwt>
<totfact> 0.66729312E+04</totfact>
</mgrwt>
</event>
<event>
 7    0  0.4714446E-002  0.4526540E+03  0.7546771E-02  0.1026934E+00
         21   -1    0    0  502  501  0.00000000000E+00  0.00000000000E+00  0.46173262783E+02  0.46173262783E+02  0.00000000000E+00 0.  1.
         21   -1    0    0  501  502 -0.00000000000E+00 -0.00000000000E+00 -0.11093846245E+04  0.11093846245E+04  0.00000000000E+00 0.  1.
      99926    2    1    2    0    0 -0.35527136788E-14  0.00000000000E+00 -0.10632113617E+04  0.11555578872E+04  0.45265398614E+03 0.  0.
      99925    2    3    3    0    0 -0.11909563163E+02 -0.64792850631E+02 -0.44270903193E+03  0.51915345568E+03  0.26303815770E+03 0.  0.
         25    1    4    4    0    0  0.23411518228E+02 -0.60918660405E+02 -0.23438849109E+03  0.27357751229E+03  0.12509000000E+03 0.  0.
         25    1    4    4    0    0 -0.35321081391E+02 -0.38741902266E+01 -0.20832054083E+03  0.24557594339E+03  0.12509000000E+03 0.  0.
         25    1    3    3    0    0  0.11909563163E+02  0.64792850631E+02 -0.62050232974E+03  0.63640443156E+03  0.12509000000E+03 0.  0.
<mgrwt>
<rscale>  2 0.45265399E+03</rscale>
<asrwt>0</asrwt>
<pdfrwt beam="1">  1       21 0.67901849E-02 0.45265399E+03</pdfrwt>
<pdfrwt beam="2">  1       21 0.16314482E+00 0.45265399E+03</pdfrwt>
<totfact> 0.34218689E+04</totfact>
</mgrwt>
</event>
<event>
 7    0  0.4714446E-002  0.4582154E+03  0.7546771E-02  0.1025300E+00
         21   -1    0    0  502  501  0.00000000000E+00  0.00000000000E+00  0.24361651493E+03  0.24361651493E+03  0.00000000000E+00 0.  1.
         21   -1    0    0  501  502 -0.00000000000E+00 -0.00000000000E+00 -0.21546298513E+03  0.21546298513E+03  0.00000000000E+00 0.  1.
      99926    2    1    2    0    0  0.00000000000E+00  0.13322676296E-14  0.28153529802E+02  0.45907950006E+03  0.45821541455E+03 0.  0.
      99925    2    3    3    0    0 -0.65723321204E+02 -0.28911181847E+01  0.11321116726E+03  0.29412428400E+03  0.26337124469E+03 0.  0.
         25    1    4    4    0    0 -0.63417953128E+02 -0.11183564268E+02  0.30634004977E+02  0.14398909420E+03  0.12509000000E+03 0.  0.
         25    1    3    3    0    0  0.65723321204E+02  0.28911181847E+01 -0.85057637462E+02  0.16495521606E+03  0.12509000000E+03 0.  0.
         25    1    4    4    0    0 -0.23053680756E+01  0.82924460838E+01  0.82577162287E+02  0.15013518980E+03  0.12509000000E+03 0.  0.
<mgrwt>
<rscale>  2 0.45821541E+03</rscale>
<asrwt>0</asrwt>
<pdfrwt beam="1">  1       21 0.35825958E-01 0.45821541E+03</pdfrwt>
<pdfrwt beam="2">  1       21 0.31685733E-01 0.45821541E+03</pdfrwt>
<totfact> 0.66524836E+04</totfact>
</mgrwt>
</event>
<event>
 7    0  0.4714446E-002  0.4664342E+03  0.7546771E-02  0.1022931E+00
         21   -1    0    0  502  501  0.00000000000E+00  0.00000000000E+00  0.15322782173E+03  0.15322782173E+03  0.00000000000E+00 0.  1.
         21   -1    0    0  501  502 -0.00000000000E+00 -0.00000000000E+00 -0.35496299146E+03  0.35496299146E+03  0.00000000000E+00 0.  1.
      99926    2    1    2    0    0  0.14210854715E-13  0.00000000000E+00 -0.20173516973E+03  0.50819081320E+03  0.46643415817E+03 0.  0.
      99925    2    3    3    0    0 -0.96486316645E+02 -0.60366936658E+02 -0.72502227541E+02  0.29534711987E+03  0.26271576252E+03 0.  0.
         25    1    4    4    0    0 -0.69891106462E+01 -0.23825532697E+02 -0.22209483866E+02  0.12944988586E+03  0.12509000000E+03 0.  0.
         25    1    4    4    0    0 -0.89497205999E+02 -0.36541403961E+02 -0.50292743675E+02  0.16589723401E+03  0.12509000000E+03 0.  0.
         25    1    3    3    0    0  0.96486316645E+02  0.60366936658E+02 -0.12923294219E+03  0.21284369333E+03  0.12509000000E+03 0.  0.
<mgrwt>
<rscale>  2 0.46643416E+03</rscale>
<asrwt>0</asrwt>
<pdfrwt beam="1">  1       21 0.22533504E-01 0.46643416E+03</pdfrwt>
<pdfrwt beam="2">  1       21 0.52200439E-01 0.46643416E+03</pdfrwt>
<totfact> 0.59145743E+04</totfact>
</mgrwt>
</event>
<event>
 7    0  0.4714446E-002  0.4564830E+03  0.7546771E-02  0.1025806E+00
         21   -1    0    0  502  501  0.00000000000E+00  0.00000000000E+00  0.24659582517E+03  0.24659582517E+03  0.00000000000E+00 0. -1.
         21   -1    0    0  501  502 -0.00000000000E+00 -0.00000000000E+00 -0.21125334651E+03  0.21125334651E+03  0.00000000000E+00 0. -1.
      99926    2    1    2    0    0  0.00000000000E+00  0.00000000000E+00  0.35342478662E+02  0.45784917169E+03  0.45648304812E+03 0.  0.
      99925    2    3    3    0    0 -0.68395882365E+02  0.25359881644E+02  0.11083730210E+03  0.29454547673E+03  0.26296579626E+03 0.  0.
         25    1    4    4    0    0  0.35102729963E+01 -0.44309729830E+00  0.64736477623E+02  0.14089300191E+03  0.12509000000E+03 0.  0.
         25    1    4    4    0    0 -0.71906155361E+02  0.25802978942E+02  0.46100824475E+02  0.15365247482E+03  0.12509000000E+03 0.  0.
         25    1    3    3    0    0  0.68395882365E+02 -0.25359881644E+02 -0.75494823436E+02  0.16330369496E+03  0.12509000000E+03 0.  0.
<mgrwt>
<rscale>  2 0.45648305E+03</rscale>
<asrwt>0</asrwt>
<pdfrwt beam="1">  1       21 0.36264092E-01 0.45648305E+03</pdfrwt>
<pdfrwt beam="2">  1       21 0.31066669E-01 0.45648305E+03</pdfrwt>
<totfact> 0.67534927E+04</totfact>
</mgrwt>
</event>
<event>
 7    0  0.4714446E-002  0.4500087E+03  0.7546771E-02  0.1027719E+00
         21   -1    0    0  502  501  0.00000000000E+00  0.00000000000E+00  0.29168106313E+04  0.29168106313E+04  0.00000000000E+00 0.  1.
         21   -1    0    0  501  502 -0.00000000000E+00 -0.00000000000E+00 -0.17356953848E+02  0.17356953848E+02  0.00000000000E+00 0.  1.
      99926    2    1    2    0    0  0.00000000000E+00  0.14210854715E-13  0.28994536774E+04  0.29341675851E+04  0.45000865551E+03 0.  0.
      99925    2    3    3    0    0 -0.45761515884E+02  0.90810570455E+02  0.20807276028E+04  0.20997213200E+04  0.26279571622E+03 0.  0.
         25    1    4    4    0    0 -0.63454148371E+02  0.48198536298E+02  0.11289696118E+04  0.11386700226E+04  0.12509000000E+03 0.  0.
         25    1    4    4    0    0  0.17692632487E+02  0.42612034157E+02  0.95175799103E+03  0.96105129742E+03  0.12509000000E+03 0.  0.
         25    1    3    3    0    0  0.45761515884E+02 -0.90810570455E+02  0.81872607457E+03  0.83444626509E+03  0.12509000000E+03 0.  0.
<mgrwt>
<rscale>  2 0.45000866E+03</rscale>
<asrwt>0</asrwt>
<pdfrwt beam="1">  1       21 0.42894240E+00 0.45000866E+03</pdfrwt>
<pdfrwt beam="2">  1       21 0.25524952E-02 0.45000866E+03</pdfrwt>
<totfact> 0.37752654E+03</totfact>
</mgrwt>
</event>
<event>
 7    0  0.4714446E-002  0.4423546E+03  0.7546771E-02  0.1030027E+00
         21   -1    0    0  502  501  0.00000000000E+00  0.00000000000E+00  0.60613561155E+02  0.60613561155E+02  0.00000000000E+00 0. -1.
         21   -1    0    0  501  502 -0.00000000000E+00 -0.00000000000E+00 -0.80707002186E+03  0.80707002186E+03  0.00000000000E+00 0. -1.
      99926    2    1    2    0    0  0.35527136788E-14  0.00000000000E+00 -0.74645646071E+03  0.86768358302E+03  0.44235455520E+03 0.  0.
      99925    2    3    3    0    0 -0.11203540444E+02  0.96841906292E+02 -0.52581046391E+03  0.59595570786E+03  0.26302602085E+03 0.  0.
         25    1    4    4    0    0  0.32857004795E+02  0.60484295249E+02 -0.27956026718E+03  0.31390983391E+03  0.12509000000E+03 0.  0.
         25    1    4    4    0    0 -0.44060545238E+02  0.36357611044E+02 -0.24625019672E+03  0.28204587395E+03  0.12509000000E+03 0.  0.
         25    1    3    3    0    0  0.11203540444E+02 -0.96841906292E+02 -0.22064599680E+03  0.27172787515E+03  0.12509000000E+03 0.  0.
<mgrwt>
<rscale>  2 0.44235456E+03</rscale>
<asrwt>0</asrwt>
<pdfrwt beam="1">  1       21 0.89137590E-02 0.44235456E+03</pdfrwt>
<pdfrwt beam="2">  1       21 0.11868677E+00 0.44235456E+03</pdfrwt>
<totfact> 0.49372504E+04</totfact>
</mgrwt>
</event>
<event>
 7    0  0.4714446E-002  0.4538959E+03  0.7546771E-02  0.1026567E+00
         21   -1    0    0  502  501  0.00000000000E+00  0.00000000000E+00  0.15917019554E+03  0.15917019554E+03  0.00000000000E+00 0.  1.
         21   -1    0    0  501  502 -0.00000000000E+00 -0.00000000000E+00 -0.32358673712E+03  0.32358673712E+03  0.00000000000E+00 0.  1.
      99926    2    1    2    0    0  0.14210854715E-13 -0.71054273576E-14 -0.16441654159E+03  0.48275693266E+03  0.45389586569E+03 0.  0.
      99925    2    3    3    0    0  0.87725080284E+02 -0.62997468821E+02 -0.71111668045E+02  0.29297369232E+03  0.26289226742E+03 0.  0.
         25    1    4    4    0    0  0.66795342160E+02 -0.54818967925E+02 -0.11136909122E+02  0.15244105688E+03  0.12509000000E+03 0.  0.
         25    1    3    3    0    0 -0.87725080284E+02  0.62997468821E+02 -0.93304873540E+02  0.18978324034E+03  0.12509000000E+03 0.  0.
         25    1    4    4    0    0  0.20929738125E+02 -0.81785008956E+01 -0.59974758923E+02  0.14053263544E+03  0.12509000000E+03 0.  0.
<mgrwt>
<rscale>  2 0.45389587E+03</rscale>
<asrwt>0</asrwt>
<pdfrwt beam="1">  1       21 0.23407382E-01 0.45389587E+03</pdfrwt>
<pdfrwt beam="2">  1       21 0.47586284E-01 0.45389587E+03</pdfrwt>
<totfact> 0.67086028E+04</totfact>
</mgrwt>
</event>
<event>
 7    0  0.4714446E-002  0.4540091E+03  0.7546771E-02  0.1026533E+00
         21   -1    0    0  502  501  0.00000000000E+00  0.00000000000E+00  0.77829617899E+02  0.77829617899E+02  0.00000000000E+00 0.  1.
         21   -1    0    0  501  502 -0.00000000000E+00 -0.00000000000E+00 -0.66210105816E+03  0.66210105816E+03  0.00000000000E+00 0.  1.
      99926    2    1    2    0    0  0.00000000000E+00  0.71054273576E-14 -0.58427144026E+03  0.73993067606E+03  0.45400912928E+03 0.  0.
      99925    2    3    3    0    0 -0.36466231491E+02  0.25437302681E+02 -0.53583079278E+03  0.59861242941E+03  0.26314513059E+03 0.  0.
         25    1    4    4    0    0  0.81522570669E+01 -0.11603128447E+02 -0.21053831325E+03  0.24530589339E+03  0.12509000000E+03 0.  0.
         25    1    3    3    0    0  0.36466231491E+02 -0.25437302681E+02 -0.48440647484E+02  0.14131824665E+03  0.12509000000E+03 0.  0.
         25    1    4    4    0    0 -0.44618488558E+02  0.37040431128E+02 -0.32529247953E+03  0.35330653603E+03  0.12509000000E+03 0.  0.
<mgrwt>
<rscale>  2 0.45400913E+03</rscale>
<asrwt>0</asrwt>
<pdfrwt beam="1">  1       21 0.11445531E-01 0.45400913E+03</pdfrwt>
<pdfrwt beam="2">  1       21 0.97367808E-01 0.45400913E+03</pdfrwt>
<totfact> 0.51185580E+04</totfact>
</mgrwt>
</event>
<event>
 7    0  0.4714446E-002  0.4592576E+03  0.7546771E-02  0.1024997E+00
         21   -1    0    0  502  501  0.00000000000E+00  0.00000000000E+00  0.87464320521E+02  0.87464320521E+02  0.00000000000E+00 0.  1.
         21   -1    0    0  501  502 -0.00000000000E+00 -0.00000000000E+00 -0.60286725520E+03  0.60286725520E+03  0.00000000000E+00 0.  1.
      99926    2    1    2    0    0  0.35527136788E-14  0.00000000000E+00 -0.51540293468E+03  0.69033157572E+03  0.45925755232E+03 0.  0.
      99925    2    3    3    0    0 -0.20181491745E+02  0.89585236354E+02 -0.21395712152E+03  0.35128896254E+03  0.26304653233E+03 0.  0.
         25    1    4    4    0    0 -0.33786513532E+02  0.12016846806E+02 -0.11235970489E+03  0.17192482220E+03  0.12509000000E+03 0.  0.
         25    1    3    3    0    0  0.20181491745E+02 -0.89585236354E+02 -0.30144581316E+03  0.33904261319E+03  0.12509000000E+03 0.  0.
         25    1    4    4    0    0  0.13605021787E+02  0.77568389549E+02 -0.10159741662E+03  0.17936414034E+03  0.12509000000E+03 0.  0.
<mgrwt>
<rscale>  2 0.45925755E+03</rscale>
<asrwt>0</asrwt>
<pdfrwt beam="1">  1       21 0.12862400E-01 0.45925755E+03</pdfrwt>
<pdfrwt beam="2">  1       21 0.88656950E-01 0.45925755E+03</pdfrwt>
<totfact> 0.51677244E+04</totfact>
</mgrwt>
</event>
<event>
 7    0  0.4714446E-002  0.4542301E+03  0.7546771E-02  0.1026468E+00
         21   -1    0    0  502  501  0.00000000000E+00  0.00000000000E+00  0.20602556179E+03  0.20602556179E+03  0.00000000000E+00 0.  1.
         21   -1    0    0  501  502 -0.00000000000E+00 -0.00000000000E+00 -0.25036330318E+03  0.25036330318E+03  0.00000000000E+00 0.  1.
      99926    2    1    2    0    0  0.00000000000E+00  0.71054273576E-14 -0.44337741388E+02  0.45638886497E+03  0.45423007470E+03 0.  0.
      99925    2    3    3    0    0  0.56870448007E+02  0.33715208721E+02 -0.11916059437E+03  0.29633596564E+03  0.26314405584E+03 0.  0.
         25    1    4    4    0    0  0.70901195821E+00 -0.13059094633E+02 -0.44991206740E+02  0.13357679228E+03  0.12509000000E+03 0.  0.
         25    1    3    3    0    0 -0.56870448007E+02 -0.33715208721E+02  0.74822852985E+02  0.16005289933E+03  0.12509000000E+03 0.  0.
         25    1    4    4    0    0  0.56161436049E+02  0.46774303355E+02 -0.74169387633E+02  0.16275917337E+03  0.12509000000E+03 0.  0.
<mgrwt>
<rscale>  2 0.45423007E+03</rscale>
<asrwt>0</asrwt>
<pdfrwt beam="1">  1       21 0.30297877E-01 0.45423007E+03</pdfrwt>
<pdfrwt beam="2">  1       21 0.36818132E-01 0.45423007E+03</pdfrwt>
<totfact> 0.68866232E+04</totfact>
</mgrwt>
</event>
<event>
 7    0  0.4714446E-002  0.4473265E+03  0.7546771E-02  0.1028522E+00
         21   -1    0    0  502  501  0.00000000000E+00  0.00000000000E+00  0.50868184463E+02  0.50868184463E+02  0.00000000000E+00 0. -1.
         21   -1    0    0  501  502 -0.00000000000E+00 -0.00000000000E+00 -0.98342890398E+03  0.98342890398E+03  0.00000000000E+00 0. -1.
      99926    2    1    2    0    0  0.00000000000E+00  0.00000000000E+00 -0.93256071952E+03  0.10342970884E+04  0.44732647091E+03 0.  0.
      99925    2    3    3    0    0  0.25301689174E+02 -0.86310328764E+02 -0.71947556847E+03  0.77134759135E+03  0.26313943970E+03 0.  0.
         25    1    4    4    0    0  0.37670622406E+02 -0.99843475414E+01 -0.33609091561E+03  0.36072617682E+03  0.12509000000E+03 0.  0.
         25    1    4    4    0    0 -0.12368933232E+02 -0.76325981222E+02 -0.38338465286E+03  0.41062141452E+03  0.12509000000E+03 0.  0.
         25    1    3    3    0    0 -0.25301689174E+02  0.86310328764E+02 -0.21308515105E+03  0.26294949710E+03  0.12509000000E+03 0.  0.
<mgrwt>
<rscale>  2 0.44732647E+03</rscale>
<asrwt>0</asrwt>
<pdfrwt beam="1">  1       21 0.74806154E-02 0.44732647E+03</pdfrwt>
<pdfrwt beam="2">  1       21 0.14462190E+00 0.44732647E+03</pdfrwt>
<totfact> 0.40214423E+04</totfact>
</mgrwt>
</event>
<event>
 7    0  0.4714446E-002  0.4727102E+03  0.7546771E-02  0.1021158E+00
         21   -1    0    0  502  501  0.00000000000E+00  0.00000000000E+00  0.90437093664E+02  0.90437093664E+02  0.00000000000E+00 0.  1.
         21   -1    0    0  501  502 -0.00000000000E+00 -0.00000000000E+00 -0.61770816186E+03  0.61770816186E+03  0.00000000000E+00 0.  1.
      99926    2    1    2    0    0  0.26645352591E-14  0.00000000000E+00 -0.52727106819E+03  0.70814525552E+03  0.47271018983E+03 0.  0.
      99925    2    3    3    0    0  0.39895513129E+01 -0.54996194192E+02 -0.50162498479E+03  0.56905633580E+03  0.26297716641E+03 0.  0.
         25    1    4    4    0    0 -0.28917140979E+02 -0.28343960578E+02 -0.19482692359E+03  0.23504173969E+03  0.12509000000E+03 0.  0.
         25    1    3    3    0    0 -0.39895513129E+01  0.54996194192E+02 -0.25646083402E+02  0.13908891972E+03  0.12509000000E+03 0.  0.
         25    1    4    4    0    0  0.32906692292E+02 -0.26652233614E+02 -0.30679806120E+03  0.33401459611E+03  0.12509000000E+03 0.  0.
<mgrwt>
<rscale>  2 0.47271019E+03</rscale>
<asrwt>0</asrwt>
<pdfrwt beam="1">  1       21 0.13299572E-01 0.47271019E+03</pdfrwt>
<pdfrwt beam="2">  1       21 0.90839439E-01 0.47271019E+03</pdfrwt>
<totfact> 0.45745027E+04</totfact>
</mgrwt>
</event>
<event>
 7    0  0.4714446E-002  0.4573127E+03  0.7546771E-02  0.1025563E+00
         21   -1    0    0  502  501  0.00000000000E+00  0.00000000000E+00  0.22206534125E+03  0.22206534125E+03  0.00000000000E+00 0.  1.
         21   -1    0    0  501  502 -0.00000000000E+00 -0.00000000000E+00 -0.23544302500E+03  0.23544302500E+03  0.00000000000E+00 0.  1.
      99926    2    1    2    0    0  0.00000000000E+00  0.00000000000E+00 -0.13377683755E+02  0.45750836625E+03  0.45731274066E+03 0.  0.
      99925    2    3    3    0    0  0.20331969021E+02  0.10834225808E+03  0.25134273629E+02  0.28638819557E+03  0.26312550808E+03 0.  0.
         25    1    4    4    0    0  0.37676781575E+02  0.24427821167E+02  0.13662083354E+01  0.13291212489E+03  0.12509000000E+03 0.  0.
         25    1    4    4    0    0 -0.17344812555E+02  0.83914436916E+02  0.23768065293E+02  0.15347607069E+03  0.12509000000E+03 0.  0.
         25    1    3    3    0    0 -0.20331969021E+02 -0.10834225808E+03 -0.38511957383E+02  0.17112017068E+03  0.12509000000E+03 0.  0.
<mgrwt>
<rscale>  2 0.45731274E+03</rscale>
<asrwt>0</asrwt>
<pdfrwt beam="1">  1       21 0.32656668E-01 0.45731274E+03</pdfrwt>
<pdfrwt beam="2">  1       21 0.34623974E-01 0.45731274E+03</pdfrwt>
<totfact> 0.67115362E+04</totfact>
</mgrwt>
</event>
<event>
 7    0  0.4714446E-002  0.4574788E+03  0.7546771E-02  0.1025515E+00
         21   -1    0    0  502  501  0.00000000000E+00  0.00000000000E+00  0.20713312888E+03  0.20713312888E+03  0.00000000000E+00 0. -1.
         21   -1    0    0  501  502 -0.00000000000E+00 -0.00000000000E+00 -0.25259941872E+03  0.25259941872E+03  0.00000000000E+00 0. -1.
      99926    2    1    2    0    0  0.00000000000E+00  0.00000000000E+00 -0.45466289845E+02  0.45973254760E+03  0.45747877744E+03 0.  0.
      99925    2    3    3    0    0  0.10271029078E+03 -0.23504608776E+02  0.18554052668E+02  0.28409660930E+03  0.26318199041E+03 0.  0.
         25    1    4    4    0    0  0.23911586440E+02 -0.19881113696E+01  0.39229758736E+02  0.13327489870E+03  0.12509000000E+03 0.  0.
         25    1    3    3    0    0 -0.10271029078E+03  0.23504608776E+02 -0.64020342513E+02  0.17563593830E+03  0.12509000000E+03 0.  0.
         25    1    4    4    0    0  0.78798704345E+02 -0.21516497406E+02 -0.20675706068E+02  0.15082171060E+03  0.12509000000E+03 0.  0.
<mgrwt>
<rscale>  2 0.45747878E+03</rscale>
<asrwt>0</asrwt>
<pdfrwt beam="1">  1       21 0.30460754E-01 0.45747878E+03</pdfrwt>
<pdfrwt beam="2">  1       21 0.37146973E-01 0.45747878E+03</pdfrwt>
<totfact> 0.66868188E+04</totfact>
</mgrwt>
</event>
<event>
 7    0  0.4714446E-002  0.4534626E+03  0.7546771E-02  0.1026694E+00
         21   -1    0    0  502  501  0.00000000000E+00  0.00000000000E+00  0.29702848534E+03  0.29702848534E+03  0.00000000000E+00 0. -1.
         21   -1    0    0  501  502 -0.00000000000E+00 -0.00000000000E+00 -0.17307119965E+03  0.17307119965E+03  0.00000000000E+00 0. -1.
      99926    2    1    2    0    0  0.44408920985E-15  0.00000000000E+00  0.12395728569E+03  0.47009968500E+03  0.45346257305E+03 0.  0.
      99925    2    3    3    0    0 -0.24997459152E+01 -0.82990598845E+02  0.69756339924E+00  0.27584687172E+03  0.26305383825E+03 0.  0.
         25    1    4    4    0    0 -0.37384039278E+01 -0.82093609255E+02 -0.11750787708E+02  0.15012969545E+03  0.12509000000E+03 0.  0.
         25    1    4    4    0    0  0.12386580126E+01 -0.89698958968E+00  0.12448351108E+02  0.12571717627E+03  0.12509000000E+03 0.  0.
         25    1    3    3    0    0  0.24997459152E+01  0.82990598845E+02  0.12325972229E+03  0.19425281328E+03  0.12509000000E+03 0.  0.
<mgrwt>
<rscale>  2 0.45346257E+03</rscale>
<asrwt>0</asrwt>
<pdfrwt beam="1">  1       21 0.43680660E-01 0.45346257E+03</pdfrwt>
<pdfrwt beam="2">  1       21 0.25451647E-01 0.45346257E+03</pdfrwt>
<totfact> 0.68257047E+04</totfact>
</mgrwt>
</event>
<event>
 7    0  0.4714446E-002  0.4554189E+03  0.7546771E-02  0.1026118E+00
         21   -1    0    0  502  501  0.00000000000E+00  0.00000000000E+00  0.79387379384E+02  0.79387379384E+02  0.00000000000E+00 0. -1.
         21   -1    0    0  501  502 -0.00000000000E+00 -0.00000000000E+00 -0.65314647840E+03  0.65314647840E+03  0.00000000000E+00 0. -1.
      99926    2    1    2    0    0  0.00000000000E+00 -0.71054273576E-14 -0.57375909902E+03  0.73253385779E+03  0.45541887214E+03 0.  0.
      99925    2    3    3    0    0  0.94054405948E+02  0.36491467908E+02 -0.27722729836E+03  0.39525581905E+03  0.26304814965E+03 0.  0.
         25    1    4    4    0    0  0.63344603359E+02  0.49406640794E+02 -0.11645709538E+03  0.18884734071E+03  0.12509000000E+03 0.  0.
         25    1    4    4    0    0  0.30709802589E+02 -0.12915172886E+02 -0.16077020298E+03  0.20640847834E+03  0.12509000000E+03 0.  0.
         25    1    3    3    0    0 -0.94054405948E+02 -0.36491467908E+02 -0.29653180067E+03  0.33727803874E+03  0.12509000000E+03 0.  0.
<mgrwt>
<rscale>  2 0.45541887E+03</rscale>
<asrwt>0</asrwt>
<pdfrwt beam="1">  1       21 0.11674614E-01 0.45541887E+03</pdfrwt>
<pdfrwt beam="2">  1       21 0.96050955E-01 0.45541887E+03</pdfrwt>
<totfact> 0.51003755E+04</totfact>
</mgrwt>
</event>
<event>
 7    0  0.4714446E-002  0.4659099E+03  0.7546771E-02  0.1023081E+00
         21   -1    0    0  502  501  0.00000000000E+00  0.00000000000E+00  0.63476590761E+02  0.63476590761E+02  0.00000000000E+00 0. -1.
         21   -1    0    0  501  502 -0.00000000000E+00 -0.00000000000E+00 -0.85492957158E+03  0.85492957158E+03  0.00000000000E+00 0. -1.
      99926    2    1    2    0    0  0.00000000000E+00  0.00000000000E+00 -0.79145298082E+03  0.91840616234E+03  0.46590992496E+03 0.  0.
      99925    2    3    3    0    0 -0.77744309186E+02  0.66236054893E+02 -0.62914299253E+03  0.68944452150E+03  0.26283350357E+03 0.  0.
         25    1    3    3    0    0  0.77744309186E+02 -0.66236054893E+02 -0.16230998829E+03  0.22896164084E+03  0.12509000000E+03 0.  0.
         25    1    4    4    0    0 -0.51594586237E+02 -0.41767506369E+01 -0.32701726026E+03  0.35393112773E+03  0.12509000000E+03 0.  0.
         25    1    4    4    0    0 -0.26149722949E+02  0.70412805530E+02 -0.30212573227E+03  0.33551339376E+03  0.12509000000E+03 0.  0.
<mgrwt>
<rscale>  2 0.46590992E+03</rscale>
<asrwt>0</asrwt>
<pdfrwt beam="1">  1       21 0.93347935E-02 0.46590992E+03</pdfrwt>
<pdfrwt beam="2">  1       21 0.12572493E+00 0.46590992E+03</pdfrwt>
<totfact> 0.39008072E+04</totfact>
</mgrwt>
</event>
<event>
 7    0  0.4714446E-002  0.4575457E+03  0.7546771E-02  0.1025495E+00
         21   -1    0    0  502  501  0.00000000000E+00  0.00000000000E+00  0.60873124875E+03  0.60873124875E+03  0.00000000000E+00 0.  1.
         21   -1    0    0  501  502 -0.00000000000E+00 -0.00000000000E+00 -0.85977217810E+02  0.85977217810E+02  0.00000000000E+00 0.  1.
      99926    2    1    2    0    0  0.14210854715E-13  0.00000000000E+00  0.52275403094E+03  0.69470846656E+03  0.45754570990E+03 0.  0.
      99925    2    3    3    0    0  0.11471906938E+03 -0.11473323347E+02  0.30934355264E+03  0.42179155177E+03  0.26253109827E+03 0.  0.
         25    1    4    4    0    0  0.72082857886E+02  0.71401448765E+01  0.10889160641E+03  0.18097461180E+03  0.12509000000E+03 0.  0.
         25    1    4    4    0    0  0.42636211495E+02 -0.18613468223E+02  0.20045194623E+03  0.24081693997E+03  0.12509000000E+03 0.  0.
         25    1    3    3    0    0 -0.11471906938E+03  0.11473323347E+02  0.21341047830E+03  0.27291691479E+03  0.12509000000E+03 0.  0.
<mgrwt>
<rscale>  2 0.45754571E+03</rscale>
<asrwt>0</asrwt>
<pdfrwt beam="1">  1       21 0.89519299E-01 0.45754571E+03</pdfrwt>
<pdfrwt beam="2">  1       21 0.12643709E-01 0.45754571E+03</pdfrwt>
<totfact> 0.52138633E+04</totfact>
</mgrwt>
</event>
<event>
 7    0  0.4714446E-002  0.4461832E+03  0.7546771E-02  0.1028866E+00
         21   -1    0    0  502  501  0.00000000000E+00  0.00000000000E+00  0.16417775558E+03  0.16417775558E+03  0.00000000000E+00 0.  1.
         21   -1    0    0  501  502 -0.00000000000E+00 -0.00000000000E+00 -0.30314625400E+03  0.30314625400E+03  0.00000000000E+00 0.  1.
      99926    2    1    2    0    0  0.00000000000E+00  0.00000000000E+00 -0.13896849842E+03  0.46732400958E+03  0.44618324305E+03 0.  0.
      99925    2    3    3    0    0 -0.83842714249E+02 -0.17743400265E+02 -0.25171776505E+02  0.27774122818E+03  0.26298696263E+03 0.  0.
         25    1    4    4    0    0 -0.74764339851E+02  0.84494561670E+01 -0.31975745477E+02  0.14943579297E+03  0.12509000000E+03 0.  0.
         25    1    4    4    0    0 -0.90783743983E+01 -0.26192856432E+02  0.68039689721E+01  0.12830543521E+03  0.12509000000E+03 0.  0.
         25    1    3    3    0    0  0.83842714249E+02  0.17743400265E+02 -0.11379672192E+03  0.18958278140E+03  0.12509000000E+03 0.  0.
<mgrwt>
<rscale>  2 0.44618324E+03</rscale>
<asrwt>0</asrwt>
<pdfrwt beam="1">  1       21 0.24143788E-01 0.44618324E+03</pdfrwt>
<pdfrwt beam="2">  1       21 0.44580331E-01 0.44618324E+03</pdfrwt>
<totfact> 0.72581420E+04</totfact>
</mgrwt>
</event>
<event>
 7    0  0.4714446E-002  0.4538269E+03  0.7546771E-02  0.1026587E+00
         21   -1    0    0  502  501  0.00000000000E+00  0.00000000000E+00  0.78679957484E+02  0.78679957484E+02  0.00000000000E+00 0. -1.
         21   -1    0    0  501  502 -0.00000000000E+00 -0.00000000000E+00 -0.65441968984E+03  0.65441968984E+03  0.00000000000E+00 0. -1.
      99926    2    1    2    0    0  0.00000000000E+00  0.00000000000E+00 -0.57573973235E+03  0.73309964732E+03  0.45382689816E+03 0.  0.
      99925    2    3    3    0    0 -0.68840403264E+02  0.31213248729E+02 -0.22849319088E+03  0.35634915073E+03  0.26279709079E+03 0.  0.
         25    1    3    3    0    0  0.68840403264E+02 -0.31213248729E+02 -0.34724654147E+03  0.37675049659E+03  0.12509000000E+03 0.  0.
         25    1    4    4    0    0 -0.17603276355E+02 -0.10399401391E+02 -0.14297220928E+03  0.19106696107E+03  0.12509000000E+03 0.  0.
         25    1    4    4    0    0 -0.51237126909E+02  0.41612650120E+02 -0.85520981605E+02  0.16528218966E+03  0.12509000000E+03 0.  0.
<mgrwt>
<rscale>  2 0.45382690E+03</rscale>
<asrwt>0</asrwt>
<pdfrwt beam="1">  1       21 0.11570582E-01 0.45382690E+03</pdfrwt>
<pdfrwt beam="2">  1       21 0.96238193E-01 0.45382690E+03</pdfrwt>
<totfact> 0.51616924E+04</totfact>
</mgrwt>
</event>
<event>
 7    0  0.4714446E-002  0.4546331E+03  0.7546771E-02  0.1026349E+00
         21   -1    0    0  502  501  0.00000000000E+00  0.00000000000E+00  0.15347051002E+03  0.15347051002E+03  0.00000000000E+00 0.  1.
         21   -1    0    0  501  502 -0.00000000000E+00 -0.00000000000E+00 -0.33669546691E+03  0.33669546691E+03  0.00000000000E+00 0.  1.
      99926    2    1    2    0    0 -0.35527136788E-14 -0.71054273576E-14 -0.18322495690E+03  0.49016597693E+03  0.45463314893E+03 0.  0.
      99925    2    3    3    0    0 -0.16410789558E+02 -0.63885886716E+02 -0.16332821111E+02  0.27141677436E+03  0.26277287498E+03 0.  0.
         25    1    4    4    0    0 -0.31138382549E+02 -0.30782768598E+02 -0.41291515092E+02  0.13881525503E+03  0.12509000000E+03 0.  0.
         25    1    4    4    0    0  0.14727592990E+02 -0.33103118118E+02  0.24958693981E+02  0.13260151933E+03  0.12509000000E+03 0.  0.
         25    1    3    3    0    0  0.16410789558E+02  0.63885886716E+02 -0.16689213578E+03  0.21874920256E+03  0.12509000000E+03 0.  0.
<mgrwt>
<rscale>  2 0.45463315E+03</rscale>
<asrwt>0</asrwt>
<pdfrwt beam="1">  1       21 0.22569193E-01 0.45463315E+03</pdfrwt>
<pdfrwt beam="2">  1       21 0.49514038E-01 0.45463315E+03</pdfrwt>
<totfact> 0.66159672E+04</totfact>
</mgrwt>
</event>
<event>
 7    0  0.4714446E-002  0.4562791E+03  0.7546771E-02  0.1025866E+00
         21   -1    0    0  502  501  0.00000000000E+00  0.00000000000E+00  0.19874099852E+04  0.19874099852E+04  0.00000000000E+00 0.  1.
         21   -1    0    0  501  502 -0.00000000000E+00 -0.00000000000E+00 -0.26188683660E+02  0.26188683660E+02  0.00000000000E+00 0.  1.
      99926    2    1    2    0    0  0.00000000000E+00  0.00000000000E+00  0.19612213015E+04  0.20135986688E+04  0.45627908742E+03 0.  0.
      99925    2    3    3    0    0 -0.88440775280E+02 -0.53704421306E+02  0.14459764126E+04  0.14733850636E+04  0.26326759072E+03 0.  0.
         25    1    3    3    0    0  0.88440775280E+02  0.53704421306E+02  0.51524488896E+03  0.54021360526E+03  0.12509000000E+03 0.  0.
         25    1    4    4    0    0 -0.11904716266E+02 -0.38522499457E+01  0.74161607520E+03  0.75219576787E+03  0.12509000000E+03 0.  0.
         25    1    4    4    0    0 -0.76536059014E+02 -0.49852171361E+02  0.70436033736E+03  0.72118929573E+03  0.12509000000E+03 0.  0.
<mgrwt>
<rscale>  2 0.45627909E+03</rscale>
<asrwt>0</asrwt>
<pdfrwt beam="1">  1       21 0.29226607E+00 0.45627909E+03</pdfrwt>
<pdfrwt beam="2">  1       21 0.38512783E-02 0.45627909E+03</pdfrwt>
<totfact> 0.13355800E+04</totfact>
</mgrwt>
</event>
<event>
 7    0  0.4714446E-002  0.4537888E+03  0.7546771E-02  0.1026598E+00
         21   -1    0    0  502  501  0.00000000000E+00  0.00000000000E+00  0.53220547374E+03  0.53220547374E+03  0.00000000000E+00 0. -1.
         21   -1    0    0  501  502 -0.00000000000E+00 -0.00000000000E+00 -0.96731583623E+02  0.96731583623E+02  0.00000000000E+00 0. -1.
      99926    2    1    2    0    0  0.00000000000E+00  0.00000000000E+00  0.43547389012E+03  0.62893705736E+03  0.45378884203E+03 0.  0.
      99925    2    3    3    0    0 -0.42549640627E+02  0.51341457004E+02  0.39913888570E+03  0.48260128671E+03  0.26295576574E+03 0.  0.
         25    1    4    4    0    0 -0.52505026941E+02  0.44857631246E+02  0.17798236717E+03  0.22824157391E+03  0.12509000000E+03 0.  0.
         25    1    4    4    0    0  0.99553863138E+01  0.64838257574E+01  0.22115651853E+03  0.25435971281E+03  0.12509000000E+03 0.  0.
         25    1    3    3    0    0  0.42549640627E+02 -0.51341457004E+02  0.36335004419E+02  0.14633577065E+03  0.12509000000E+03 0.  0.
<mgrwt>
<rscale>  2 0.45378884E+03</rscale>
<asrwt>0</asrwt>
<pdfrwt beam="1">  1       21 0.78265509E-01 0.45378884E+03</pdfrwt>
<pdfrwt beam="2">  1       21 0.14225233E-01 0.45378884E+03</pdfrwt>
<totfact> 0.57479150E+04</totfact>
</mgrwt>
</event>
<event>
 6    0  0.4714446E-002  0.4510786E+03  0.7546771E-02  0.1027401E+00
         21   -1    0    0  502  501  0.00000000000E+00  0.00000000000E+00  0.61692367484E+03  0.61692367484E+03  0.00000000000E+00 0. -1.
         21   -1    0    0  501  502 -0.00000000000E+00 -0.00000000000E+00 -0.82454230545E+02  0.82454230545E+02  0.00000000000E+00 0. -1.
      99926    2    1    2    0    0  0.00000000000E+00  0.00000000000E+00  0.53446944429E+03  0.69937790538E+03  0.45107856040E+03 0.  0.
         25    1    3    3    0    0  0.35349603522E+02 -0.10442625125E+02  0.12694621881E+03  0.18199311377E+03  0.12509000000E+03 0.  0.
         25    1    3    3    0    0 -0.56636248315E+02  0.94056888123E+02  0.22540126830E+03  0.28019208176E+03  0.12509000000E+03 0.  0.
         25    1    3    3    0    0  0.21286644794E+02 -0.83614262999E+02  0.18212195718E+03  0.23719270986E+03  0.12509000000E+03 0.  0.
<mgrwt>
<rscale>  2 0.45107856E+03</rscale>
<asrwt>0</asrwt>
<pdfrwt beam="1">  1       21 0.90724067E-01 0.45107856E+03</pdfrwt>
<pdfrwt beam="2">  1       21 0.12125622E-01 0.45107856E+03</pdfrwt>
<totfact> 0.54602430E+04</totfact>
</mgrwt>
</event>
<event>
 7    0  0.4714446E-002  0.4545734E+03  0.7546771E-02  0.1026367E+00
         21   -1    0    0  502  501  0.00000000000E+00  0.00000000000E+00  0.43321391943E+03  0.43321391943E+03  0.00000000000E+00 0.  1.
         21   -1    0    0  501  502 -0.00000000000E+00 -0.00000000000E+00 -0.11924647623E+03  0.11924647623E+03  0.00000000000E+00 0.  1.
      99926    2    1    2    0    0  0.00000000000E+00  0.71054273576E-14  0.31396744320E+03  0.55246039566E+03  0.45457335313E+03 0.  0.
      99925    2    3    3    0    0  0.83229555208E+02  0.55090148385E+02  0.13421602828E+03  0.31179431459E+03  0.26313431752E+03 0.  0.
         25    1    4    4    0    0  0.58721255580E+02 -0.56678137616E+00  0.93571157149E+02  0.16688791642E+03  0.12509000000E+03 0.  0.
         25    1    3    3    0    0 -0.83229555208E+02 -0.55090148385E+02  0.17975141492E+03  0.24066608106E+03  0.12509000000E+03 0.  0.
         25    1    4    4    0    0  0.24508299628E+02  0.55656929761E+02  0.40644871131E+02  0.14490639817E+03  0.12509000000E+03 0.  0.
<mgrwt>
<rscale>  2 0.45457335E+03</rscale>
<asrwt>0</asrwt>
<pdfrwt beam="1">  1       21 0.63707929E-01 0.45457335E+03</pdfrwt>
<pdfrwt beam="2">  1       21 0.17536247E-01 0.45457335E+03</pdfrwt>
<totfact> 0.61912934E+04</totfact>
</mgrwt>
</event>
<event>
 7    0  0.4714446E-002  0.4524789E+03  0.7546771E-02  0.1026985E+00
         21   -1    0    0  502  501  0.00000000000E+00  0.00000000000E+00  0.31967780609E+03  0.31967780609E+03  0.00000000000E+00 0.  1.
         21   -1    0    0  501  502 -0.00000000000E+00 -0.00000000000E+00 -0.16011209152E+03  0.16011209152E+03  0.00000000000E+00 0.  1.
      99926    2    1    2    0    0 -0.71054273576E-14  0.00000000000E+00  0.15956571457E+03  0.47978989762E+03  0.45247887087E+03 0.  0.
      99925    2    3    3    0    0 -0.59104767179E+02 -0.17302341915E+02  0.19834405926E+03  0.33506943377E+03  0.26294184730E+03 0.  0.
         25    1    4    4    0    0 -0.68814975759E+02 -0.14424913242E+02  0.12056809842E+03  0.18742399384E+03  0.12509000000E+03 0.  0.
         25    1    3    3    0    0  0.59104767179E+02  0.17302341915E+02 -0.38778344692E+02  0.14472046385E+03  0.12509000000E+03 0.  0.
         25    1    4    4    0    0  0.97102085800E+01 -0.28774286731E+01  0.77775960846E+02  0.14764543993E+03  0.12509000000E+03 0.  0.
<mgrwt>
<rscale>  2 0.45247887E+03</rscale>
<asrwt>0</asrwt>
<pdfrwt beam="1">  1       21 0.47011442E-01 0.45247887E+03</pdfrwt>
<pdfrwt beam="2">  1       21 0.23545896E-01 0.45247887E+03</pdfrwt>
<totfact> 0.68067398E+04</totfact>
</mgrwt>
</event>
<event>
 7    0  0.4714446E-002  0.4614724E+03  0.7546771E-02  0.1024355E+00
         21   -1    0    0  502  501  0.00000000000E+00  0.00000000000E+00  0.29077423414E+03  0.29077423414E+03  0.00000000000E+00 0. -1.
         21   -1    0    0  501  502 -0.00000000000E+00 -0.00000000000E+00 -0.18309458178E+03  0.18309458178E+03  0.00000000000E+00 0. -1.
      99926    2    1    2    0    0  0.00000000000E+00  0.00000000000E+00  0.10767965236E+03  0.47386881591E+03  0.46147236880E+03 0.  0.
      99925    2    3    3    0    0 -0.80973287724E+02 -0.31885161280E+02 -0.16201268968E+02  0.27748315553E+03  0.26298494948E+03 0.  0.
         25    1    4    4    0    0 -0.59005229024E+01 -0.87593672683E+01  0.15262075203E+02  0.12645940742E+03  0.12509000000E+03 0.  0.
         25    1    3    3    0    0  0.80973287724E+02  0.31885161280E+02  0.12388092133E+03  0.19638566038E+03  0.12509000000E+03 0.  0.
         25    1    4    4    0    0 -0.75072764822E+02 -0.23125794012E+02 -0.31463344171E+02  0.15102374811E+03  0.12509000000E+03 0.  0.
<mgrwt>
<rscale>  2 0.46147237E+03</rscale>
<asrwt>0</asrwt>
<pdfrwt beam="1">  1       21 0.42760917E-01 0.46147237E+03</pdfrwt>
<pdfrwt beam="2">  1       21 0.26925674E-01 0.46147237E+03</pdfrwt>
<totfact> 0.63809455E+04</totfact>
</mgrwt>
</event>
<event>
 7    0  0.4714446E-002  0.4450387E+03  0.7546771E-02  0.1029212E+00
         21   -1    0    0  502  501  0.00000000000E+00  0.00000000000E+00  0.27486679107E+03  0.27486679107E+03  0.00000000000E+00 0. -1.
         21   -1    0    0  501  502 -0.00000000000E+00 -0.00000000000E+00 -0.18014131336E+03  0.18014131336E+03  0.00000000000E+00 0. -1.
      99926    2    1    2    0    0  0.00000000000E+00  0.00000000000E+00  0.94725477709E+02  0.45500810443E+03  0.44503871626E+03 0.  0.
      99925    2    3    3    0    0 -0.40207500171E+02 -0.88399009389E+02  0.96791818259E+02  0.29663258298E+03  0.26304221196E+03 0.  0.
         25    1    4    4    0    0  0.63450948005E+01 -0.61047819973E+02  0.21553598913E+02  0.14099348310E+03  0.12509000000E+03 0.  0.
         25    1    4    4    0    0 -0.46552594971E+02 -0.27351189417E+02  0.75238219347E+02  0.15563909988E+03  0.12509000000E+03 0.  0.
         25    1    3    3    0    0  0.40207500171E+02  0.88399009389E+02 -0.20663405508E+01  0.15837552145E+03  0.12509000000E+03 0.  0.
<mgrwt>
<rscale>  2 0.44503872E+03</rscale>
<asrwt>0</asrwt>
<pdfrwt beam="1">  1       21 0.40421587E-01 0.44503872E+03</pdfrwt>
<pdfrwt beam="2">  1       21 0.26491370E-01 0.44503872E+03</pdfrwt>
<totfact> 0.74264141E+04</totfact>
</mgrwt>
</event>
<event>
 7    0  0.4714446E-002  0.4584423E+03  0.7546771E-02  0.1025234E+00
         21   -1    0    0  502  501  0.00000000000E+00  0.00000000000E+00  0.11061202121E+03  0.11061202121E+03  0.00000000000E+00 0. -1.
         21   -1    0    0  501  502 -0.00000000000E+00 -0.00000000000E+00 -0.47501466101E+03  0.47501466101E+03  0.00000000000E+00 0. -1.
      99926    2    1    2    0    0  0.00000000000E+00  0.22204460493E-15 -0.36440263980E+03  0.58562668221E+03  0.45844228320E+03 0.  0.
      99925    2    3    3    0    0  0.82463252686E+02 -0.11300968448E+01 -0.33345926648E+03  0.43263496474E+03  0.26301419193E+03 0.  0.
         25    1    4    4    0    0  0.74491843542E+01 -0.12366834613E+02 -0.18848878427E+03  0.22668030096E+03  0.12509000000E+03 0.  0.
         25    1    4    4    0    0  0.75014068331E+02  0.11236737768E+02 -0.14497048221E+03  0.20595466379E+03  0.12509000000E+03 0.  0.
         25    1    3    3    0    0 -0.82463252686E+02  0.11300968448E+01 -0.30943373319E+02  0.15299171747E+03  0.12509000000E+03 0.  0.
<mgrwt>
<rscale>  2 0.45844228E+03</rscale>
<asrwt>0</asrwt>
<pdfrwt beam="1">  1       21 0.16266474E-01 0.45844228E+03</pdfrwt>
<pdfrwt beam="2">  1       21 0.69855097E-01 0.45844228E+03</pdfrwt>
<totfact> 0.57978068E+04</totfact>
</mgrwt>
</event>
<event>
 7    0  0.4714446E-002  0.4527058E+03  0.7546771E-02  0.1026918E+00
         21   -1    0    0  502  501  0.00000000000E+00  0.00000000000E+00  0.12712466880E+04  0.12712466880E+04  0.00000000000E+00 0.  1.
         21   -1    0    0  501  502 -0.00000000000E+00 -0.00000000000E+00 -0.40303458504E+02  0.40303458504E+02  0.00000000000E+00 0.  1.
      99926    2    1    2    0    0  0.00000000000E+00  0.00000000000E+00  0.12309432295E+04  0.13115501465E+04  0.45270581237E+03 0.  0.
      99925    2    3    3    0    0  0.58192155330E+02  0.67593762359E+02  0.96748756105E+03  0.10065720473E+04  0.26305866644E+03 0.  0.
         25    1    4    4    0    0  0.20755022122E+02  0.54837417281E+01  0.34764549890E+03  0.37008883173E+03  0.12509000000E+03 0.  0.
         25    1    4    4    0    0  0.37437133208E+02  0.62110020631E+02  0.61984206216E+03  0.63648321559E+03  0.12509000000E+03 0.  0.
         25    1    3    3    0    0 -0.58192155330E+02 -0.67593762359E+02  0.26345566847E+03  0.30497809921E+03  0.12509000000E+03 0.  0.
<mgrwt>
<rscale>  2 0.45270581E+03</rscale>
<asrwt>0</asrwt>
<pdfrwt beam="1">  1       21 0.18694802E+00 0.45270581E+03</pdfrwt>
<pdfrwt beam="2">  1       21 0.59269800E-02 0.45270581E+03</pdfrwt>
<totfact> 0.29300347E+04</totfact>
</mgrwt>
</event>
<event>
 7    0  0.4714446E-002  0.4551784E+03  0.7546771E-02  0.1026189E+00
         21   -1    0    0  502  501  0.00000000000E+00  0.00000000000E+00  0.51669022161E+03  0.51669022161E+03  0.00000000000E+00 0. -1.
         21   -1    0    0  501  502 -0.00000000000E+00 -0.00000000000E+00 -0.10024739177E+03  0.10024739177E+03  0.00000000000E+00 0. -1.
      99926    2    1    2    0    0  0.00000000000E+00 -0.71054273576E-14  0.41644282984E+03  0.61693761338E+03  0.45517841368E+03 0.  0.
      99925    2    3    3    0    0  0.95501996335E+02 -0.34955675750E+02  0.19412280055E+03  0.34231745008E+03  0.26297346703E+03 0.  0.
         25    1    4    4    0    0  0.83298752874E+02 -0.41813195282E+02  0.10319962935E+03  0.18704196622E+03  0.12509000000E+03 0.  0.
         25    1    3    3    0    0 -0.95501996335E+02  0.34955675750E+02  0.22232002929E+03  0.27462016331E+03  0.12509000000E+03 0.  0.
         25    1    4    4    0    0  0.12203243461E+02  0.68575195315E+01  0.90923171206E+02  0.15527548386E+03  0.12509000000E+03 0.  0.
<mgrwt>
<rscale>  2 0.45517841E+03</rscale>
<asrwt>0</asrwt>
<pdfrwt beam="1">  1       21 0.75983855E-01 0.45517841E+03</pdfrwt>
<pdfrwt beam="2">  1       21 0.14742264E-01 0.45517841E+03</pdfrwt>
<totfact> 0.57566490E+04</totfact>
</mgrwt>
</event>
<event>
 7    0  0.4714446E-002  0.4551613E+03  0.7546771E-02  0.1026194E+00
         21   -1    0    0  502  501  0.00000000000E+00  0.00000000000E+00  0.10294462974E+03  0.10294462974E+03  0.00000000000E+00 0. -1.
         21   -1    0    0  501  502 -0.00000000000E+00 -0.00000000000E+00 -0.50311460872E+03  0.50311460872E+03  0.00000000000E+00 0. -1.
      99926    2    1    2    0    0  0.00000000000E+00 -0.88817841970E-15 -0.40016997898E+03  0.60605923847E+03  0.45516127741E+03 0.  0.
      99925    2    3    3    0    0  0.60869241131E+02  0.70101129196E+01 -0.12481888033E+03  0.29748195183E+03  0.26298584102E+03 0.  0.
         25    1    4    4    0    0 -0.27911199463E+01  0.26054639749E+02 -0.49481166291E+02  0.13704936527E+03  0.12509000000E+03 0.  0.
         25    1    4    4    0    0  0.63660361077E+02 -0.19044526829E+02 -0.75337714036E+02  0.16043258656E+03  0.12509000000E+03 0.  0.
         25    1    3    3    0    0 -0.60869241131E+02 -0.70101129196E+01 -0.27535109865E+03  0.30857728664E+03  0.12509000000E+03 0.  0.
<mgrwt>
<rscale>  2 0.45516128E+03</rscale>
<asrwt>0</asrwt>
<pdfrwt beam="1">  1       21 0.15138916E-01 0.45516128E+03</pdfrwt>
<pdfrwt beam="2">  1       21 0.73987442E-01 0.45516128E+03</pdfrwt>
<totfact> 0.58232621E+04</totfact>
</mgrwt>
</event>
<event>
 7    0  0.4714446E-002  0.4538296E+03  0.7546771E-02  0.1026586E+00
         21   -1    0    0  502  501  0.00000000000E+00  0.00000000000E+00  0.27005725940E+03  0.27005725940E+03  0.00000000000E+00 0.  1.
         21   -1    0    0  501  502 -0.00000000000E+00 -0.00000000000E+00 -0.19066446435E+03  0.19066446435E+03  0.00000000000E+00 0.  1.
      99926    2    1    2    0    0  0.00000000000E+00  0.00000000000E+00  0.79392795051E+02  0.46072172376E+03  0.45382958347E+03 0.  0.
      99925    2    3    3    0    0  0.91607814689E+02 -0.64489471914E+02  0.52102441649E+02  0.29059484408E+03  0.26302056057E+03 0.  0.
         25    1    3    3    0    0 -0.91607814689E+02  0.64489471914E+02  0.27290353402E+02  0.17012687968E+03  0.12509000000E+03 0.  0.
         25    1    4    4    0    0  0.72298440320E+02 -0.54188394430E+02  0.26936572570E+01  0.15433149534E+03  0.12509000000E+03 0.  0.
         25    1    4    4    0    0  0.19309374368E+02 -0.10301077485E+02  0.49408784392E+02  0.13626334874E+03  0.12509000000E+03 0.  0.
<mgrwt>
<rscale>  2 0.45382958E+03</rscale>
<asrwt>0</asrwt>
<pdfrwt beam="1">  1       21 0.39714303E-01 0.45382958E+03</pdfrwt>
<pdfrwt beam="2">  1       21 0.28038892E-01 0.45382958E+03</pdfrwt>
<totfact> 0.68766450E+04</totfact>
</mgrwt>
</event>
<event>
 7    0  0.4714446E-002  0.4608936E+03  0.7546771E-02  0.1024522E+00
         21   -1    0    0  502  501  0.00000000000E+00  0.00000000000E+00  0.86164048176E+03  0.86164048176E+03  0.00000000000E+00 0. -1.
         21   -1    0    0  501  502 -0.00000000000E+00 -0.00000000000E+00 -0.61633276304E+02  0.61633276304E+02  0.00000000000E+00 0. -1.
      99926    2    1    2    0    0  0.00000000000E+00 -0.88817841970E-15  0.80000720546E+03  0.92327375806E+03  0.46089359243E+03 0.  0.
      99925    2    3    3    0    0  0.69062503198E+02 -0.79888028275E+01  0.30881368577E+03  0.41165668231E+03  0.26317652109E+03 0.  0.
         25    1    3    3    0    0 -0.69062503198E+02  0.79888028275E+01  0.49119351969E+03  0.51161707576E+03  0.12509000000E+03 0.  0.
         25    1    4    4    0    0  0.61624682804E+02  0.22103715133E+02  0.13557808986E+03  0.19574243869E+03  0.12509000000E+03 0.  0.
         25    1    4    4    0    0  0.74378203936E+01 -0.30092517960E+02  0.17323559591E+03  0.21591424362E+03  0.12509000000E+03 0.  0.
<mgrwt>
<rscale>  2 0.46089359E+03</rscale>
<asrwt>0</asrwt>
<pdfrwt beam="1">  1       21 0.12671183E+00 0.46089359E+03</pdfrwt>
<pdfrwt beam="2">  1       21 0.90637176E-02 0.46089359E+03</pdfrwt>
<totfact> 0.40349152E+04</totfact>
</mgrwt>
</event>
<event>
 7    0  0.4714446E-002  0.4468270E+03  0.7546771E-02  0.1028672E+00
         21   -1    0    0  502  501  0.00000000000E+00  0.00000000000E+00  0.21260455454E+04  0.21260455454E+04  0.00000000000E+00 0.  1.
         21   -1    0    0  501  502 -0.00000000000E+00 -0.00000000000E+00 -0.23477199953E+02  0.23477199953E+02  0.00000000000E+00 0.  1.
      99926    2    1    2    0    0  0.31086244690E-14  0.14210854715E-13  0.21025683454E+04  0.21495227453E+04  0.44682701968E+03 0.  0.
      99925    2    3    3    0    0  0.26097755087E+01  0.94380190142E+02  0.15583887055E+04  0.15832247497E+04  0.26288936739E+03 0.  0.
         25    1    4    4    0    0 -0.36471716913E+02  0.47045961770E+02  0.85776200968E+03  0.86887667825E+03  0.12509000000E+03 0.  0.
         25    1    3    3    0    0 -0.26097755087E+01 -0.94380190142E+02  0.54417963992E+03  0.56629799560E+03  0.12509000000E+03 0.  0.
         25    1    4    4    0    0  0.39081492421E+02  0.47334228372E+02  0.70062669583E+03  0.71434807149E+03  0.12509000000E+03 0.  0.
<mgrwt>
<rscale>  2 0.44682702E+03</rscale>
<asrwt>0</asrwt>
<pdfrwt beam="1">  1       21 0.31265362E+00 0.44682702E+03</pdfrwt>
<pdfrwt beam="2">  1       21 0.34525309E-02 0.44682702E+03</pdfrwt>
<totfact> 0.12173087E+04</totfact>
</mgrwt>
</event>
<event>
 7    0  0.4714446E-002  0.4506402E+03  0.7546771E-02  0.1027531E+00
         21   -1    0    0  502  501  0.00000000000E+00  0.00000000000E+00  0.72494867258E+03  0.72494867258E+03  0.00000000000E+00 0. -1.
         21   -1    0    0  501  502 -0.00000000000E+00 -0.00000000000E+00 -0.70031382619E+02  0.70031382619E+02  0.00000000000E+00 0. -1.
      99926    2    1    2    0    0  0.35527136788E-14  0.00000000000E+00  0.65491728997E+03  0.79498005520E+03  0.45064024618E+03 0.  0.
      99925    2    3    3    0    0 -0.27633933460E+02 -0.95751050109E+02  0.33573962359E+03  0.43797334842E+03  0.26299745474E+03 0.  0.
         25    1    4    4    0    0 -0.35155284214E+02 -0.32276498926E+02  0.21218431285E+03  0.25089311890E+03  0.12509000000E+03 0.  0.
         25    1    4    4    0    0  0.75213507540E+01 -0.63474551183E+02  0.12355531073E+03  0.18708022952E+03  0.12509000000E+03 0.  0.
         25    1    3    3    0    0  0.27633933460E+02  0.95751050109E+02  0.31917766638E+03  0.35700670679E+03  0.12509000000E+03 0.  0.
<mgrwt>
<rscale>  2 0.45064025E+03</rscale>
<asrwt>0</asrwt>
<pdfrwt beam="1">  1       21 0.10661009E+00 0.45064025E+03</pdfrwt>
<pdfrwt beam="2">  1       21 0.10298733E-01 0.45064025E+03</pdfrwt>
<totfact> 0.49686985E+04</totfact>
</mgrwt>
</event>
<event>
 7    0  0.4714446E-002  0.4507553E+03  0.7546771E-02  0.1027497E+00
         21   -1    0    0  502  501  0.00000000000E+00  0.00000000000E+00  0.35198062592E+02  0.35198062592E+02  0.00000000000E+00 0.  1.
         21   -1    0    0  501  502 -0.00000000000E+00 -0.00000000000E+00 -0.14431213602E+04  0.14431213602E+04  0.00000000000E+00 0.  1.
      99926    2    1    2    0    0  0.00000000000E+00  0.00000000000E+00 -0.14079232976E+04  0.14783194228E+04  0.45075525938E+03 0.  0.
      99925    2    3    3    0    0 -0.56621995167E+02 -0.91037179434E+02 -0.82404110472E+03  0.87164014867E+03  0.26309501731E+03 0.  0.
         25    1    3    3    0    0  0.56621995167E+02  0.91037179434E+02 -0.58388219291E+03  0.60667927414E+03  0.12509000000E+03 0.  0.
         25    1    4    4    0    0 -0.30705485242E+02 -0.28545242664E+02 -0.51193395478E+03  0.52866013644E+03  0.12509000000E+03 0.  0.
         25    1    4    4    0    0 -0.25916509926E+02 -0.62491936771E+02 -0.31210714994E+03  0.34298001223E+03  0.12509000000E+03 0.  0.
<mgrwt>
<rscale>  2 0.45075526E+03</rscale>
<asrwt>0</asrwt>
<pdfrwt beam="1">  1       21 0.51761863E-02 0.45075526E+03</pdfrwt>
<pdfrwt beam="2">  1       21 0.21222370E+00 0.45075526E+03</pdfrwt>
<totfact> 0.25134104E+04</totfact>
</mgrwt>
</event>
<event>
 7    0  0.4714446E-002  0.4507378E+03  0.7546771E-02  0.1027502E+00
         21   -1    0    0  502  501  0.00000000000E+00  0.00000000000E+00  0.15203713728E+03  0.15203713728E+03  0.00000000000E+00 0.  1.
         21   -1    0    0  501  502 -0.00000000000E+00 -0.00000000000E+00 -0.33407068821E+03  0.33407068821E+03  0.00000000000E+00 0.  1.
      99926    2    1    2    0    0  0.00000000000E+00  0.00000000000E+00 -0.18203355093E+03  0.48610782548E+03  0.45073784435E+03 0.  0.
      99925    2    3    3    0    0  0.39005181139E+02 -0.53474393255E+02 -0.20858790774E+03  0.34211630887E+03  0.26297098443E+03 0.  0.
         25    1    4    4    0    0 -0.15406321430E+02 -0.35000058458E+02 -0.12580539311E+03  0.18148516156E+03  0.12509000000E+03 0.  0.
         25    1    3    3    0    0 -0.39005181139E+02  0.53474393255E+02  0.26554356813E+02  0.14399151661E+03  0.12509000000E+03 0.  0.
         25    1    4    4    0    0  0.54411502569E+02 -0.18474334797E+02 -0.82782514637E+02  0.16063114731E+03  0.12509000000E+03 0.  0.
<mgrwt>
<rscale>  2 0.45073784E+03</rscale>
<asrwt>0</asrwt>
<pdfrwt beam="1">  1       21 0.22358403E-01 0.45073784E+03</pdfrwt>
<pdfrwt beam="2">  1       21 0.49128042E-01 0.45073784E+03</pdfrwt>
<totfact> 0.68548297E+04</totfact>
</mgrwt>
</event>
<event>
 7    0  0.4714446E-002  0.4474469E+03  0.7546771E-02  0.1028486E+00
         21   -1    0    0  502  501  0.00000000000E+00  0.00000000000E+00  0.88651894474E+03  0.88651894474E+03  0.00000000000E+00 0. -1.
         21   -1    0    0  501  502 -0.00000000000E+00 -0.00000000000E+00 -0.56459240731E+02  0.56459240731E+02  0.00000000000E+00 0. -1.
      99926    2    1    2    0    0  0.00000000000E+00 -0.35527136788E-14  0.83005970401E+03  0.94297818548E+03  0.44744691982E+03 0.  0.
      99925    2    3    3    0    0 -0.71047999866E+02  0.16812960633E+02  0.36318435041E+03  0.45415245187E+03  0.26271863891E+03 0.  0.
         25    1    3    3    0    0  0.71047999866E+02 -0.16812960633E+02  0.46687535360E+03  0.48882573360E+03  0.12509000000E+03 0.  0.
         25    1    4    4    0    0 -0.36136430824E+02  0.48574920852E+02  0.18358229808E+03  0.23025058705E+03  0.12509000000E+03 0.  0.
         25    1    4    4    0    0 -0.34911569042E+02 -0.31761960219E+02  0.17960205233E+03  0.22390186482E+03  0.12509000000E+03 0.  0.
<mgrwt>
<rscale>  2 0.44744692E+03</rscale>
<asrwt>0</asrwt>
<pdfrwt beam="1">  1       21 0.13037042E+00 0.44744692E+03</pdfrwt>
<pdfrwt beam="2">  1       21 0.83028301E-02 0.44744692E+03</pdfrwt>
<totfact> 0.43966552E+04</totfact>
</mgrwt>
</event>
<event>
 7    0  0.4714446E-002  0.4559003E+03  0.7546771E-02  0.1025977E+00
         21   -1    0    0  502  501  0.00000000000E+00  0.00000000000E+00  0.14328823073E+03  0.14328823073E+03  0.00000000000E+00 0. -1.
         21   -1    0    0  501  502 -0.00000000000E+00 -0.00000000000E+00 -0.36263454796E+03  0.36263454796E+03  0.00000000000E+00 0. -1.
      99926    2    1    2    0    0  0.00000000000E+00  0.00000000000E+00 -0.21934631722E+03  0.50592277869E+03  0.45590026444E+03 0.  0.
      99925    2    3    3    0    0  0.71354573865E+02  0.63797699394E+02 -0.20672993636E+03  0.34790916274E+03  0.26294846885E+03 0.  0.
         25    1    4    4    0    0  0.37258456632E+02  0.72334925209E+02 -0.12246200568E+03  0.19304140730E+03  0.12509000000E+03 0.  0.
         25    1    4    4    0    0  0.34096117234E+02 -0.85372258154E+01 -0.84267930676E+02  0.15486775544E+03  0.12509000000E+03 0.  0.
         25    1    3    3    0    0 -0.71354573865E+02 -0.63797699394E+02 -0.12616380869E+02  0.15801361595E+03  0.12509000000E+03 0.  0.
<mgrwt>
<rscale>  2 0.45590026E+03</rscale>
<asrwt>0</asrwt>
<pdfrwt beam="1">  1       21 0.21071799E-01 0.45590026E+03</pdfrwt>
<pdfrwt beam="2">  1       21 0.53328609E-01 0.45590026E+03</pdfrwt>
<totfact> 0.64395167E+04</totfact>
</mgrwt>
</event>
<event>
 7    0  0.4714446E-002  0.4516158E+03  0.7546771E-02  0.1027241E+00
         21   -1    0    0  502  501  0.00000000000E+00  0.00000000000E+00  0.17481914877E+03  0.17481914877E+03  0.00000000000E+00 0.  1.
         21   -1    0    0  501  502 -0.00000000000E+00 -0.00000000000E+00 -0.29166830063E+03  0.29166830063E+03  0.00000000000E+00 0.  1.
      99926    2    1    2    0    0  0.14210854715E-13  0.17763568394E-14 -0.11684915185E+03  0.46648744940E+03  0.45161578378E+03 0.  0.
      99925    2    3    3    0    0  0.88808068746E+02 -0.89823176252E+01 -0.14010777423E+03  0.31106535728E+03  0.26299032871E+03 0.  0.
         25    1    4    4    0    0  0.51953992661E+02 -0.35754524641E+02 -0.99688915566E+02  0.17193891756E+03  0.12509000000E+03 0.  0.
         25    1    3    3    0    0 -0.88808068746E+02  0.89823176252E+01  0.23258622375E+02  0.15542209212E+03  0.12509000000E+03 0.  0.
         25    1    4    4    0    0  0.36854076085E+02  0.26772207016E+02 -0.40418858661E+02  0.13912643972E+03  0.12509000000E+03 0.  0.
<mgrwt>
<rscale>  2 0.45161578E+03</rscale>
<asrwt>0</asrwt>
<pdfrwt beam="1">  1       21 0.25708699E-01 0.45161578E+03</pdfrwt>
<pdfrwt beam="2">  1       21 0.42892397E-01 0.45161578E+03</pdfrwt>
<totfact> 0.69546255E+04</totfact>
</mgrwt>
</event>
<event>
 7    0  0.4714446E-002  0.4522916E+03  0.7546771E-02  0.1027041E+00
         21   -1    0    0  502  501  0.00000000000E+00  0.00000000000E+00  0.84146388357E+02  0.84146388357E+02  0.00000000000E+00 0.  1.
         21   -1    0    0  501  502 -0.00000000000E+00 -0.00000000000E+00 -0.60777333276E+03  0.60777333276E+03  0.00000000000E+00 0.  1.
      99926    2    1    2    0    0 -0.71054273576E-14  0.00000000000E+00 -0.52362694440E+03  0.69191972111E+03  0.45229163552E+03 0.  0.
      99925    2    3    3    0    0 -0.50391897644E+02 -0.93000389841E+02 -0.37961967435E+03  0.47380503159E+03  0.26304314275E+03 0.  0.
         25    1    3    3    0    0  0.50391897644E+02  0.93000389841E+02 -0.14400727005E+03  0.21811468952E+03  0.12509000000E+03 0.  0.
         25    1    4    4    0    0 -0.68763423701E+01 -0.47772445814E+02 -0.24675471015E+03  0.28082892612E+03  0.12509000000E+03 0.  0.
         25    1    4    4    0    0 -0.43515555274E+02 -0.45227944027E+02 -0.13286496420E+03  0.19297610547E+03  0.12509000000E+03 0.  0.
<mgrwt>
<rscale>  2 0.45229164E+03</rscale>
<asrwt>0</asrwt>
<pdfrwt beam="1">  1       21 0.12374469E-01 0.45229164E+03</pdfrwt>
<pdfrwt beam="2">  1       21 0.89378431E-01 0.45229164E+03</pdfrwt>
<totfact> 0.54496475E+04</totfact>
</mgrwt>
</event>
<event>
 7    0  0.4714446E-002  0.4525802E+03  0.7546771E-02  0.1026955E+00
         21   -1    0    0  502  501  0.00000000000E+00  0.00000000000E+00  0.19294631540E+03  0.19294631540E+03  0.00000000000E+00 0.  1.
         21   -1    0    0  501  502 -0.00000000000E+00 -0.00000000000E+00 -0.26539611398E+03  0.26539611398E+03  0.00000000000E+00 0.  1.
      99926    2    1    2    0    0  0.00000000000E+00  0.00000000000E+00 -0.72449798580E+02  0.45834242939E+03  0.45258016888E+03 0.  0.
      99925    2    3    3    0    0 -0.97864544674E+02 -0.27549418758E+02 -0.90643282283E+02  0.29612359409E+03  0.26293827940E+03 0.  0.
         25    1    4    4    0    0 -0.77468359521E+02 -0.81713077907E+00 -0.19736986074E+02  0.14845562013E+03  0.12509000000E+03 0.  0.
         25    1    4    4    0    0 -0.20396185154E+02 -0.26732287979E+02 -0.70906296209E+02  0.14766797395E+03  0.12509000000E+03 0.  0.
         25    1    3    3    0    0  0.97864544674E+02  0.27549418758E+02  0.18193483703E+02  0.16221883530E+03  0.12509000000E+03 0.  0.
<mgrwt>
<rscale>  2 0.45258017E+03</rscale>
<asrwt>0</asrwt>
<pdfrwt beam="1">  1       21 0.28374458E-01 0.45258017E+03</pdfrwt>
<pdfrwt beam="2">  1       21 0.39028840E-01 0.45258017E+03</pdfrwt>
<totfact> 0.69635589E+04</totfact>
</mgrwt>
</event>
<event>
 7    0  0.4714446E-002  0.4604766E+03  0.7546771E-02  0.1024643E+00
         21   -1    0    0  502  501  0.00000000000E+00  0.00000000000E+00  0.17893230690E+04  0.17893230690E+04  0.00000000000E+00 0. -1.
         21   -1    0    0  501  502 -0.00000000000E+00 -0.00000000000E+00 -0.29625547745E+02  0.29625547745E+02  0.00000000000E+00 0. -1.
      99926    2    1    2    0    0  0.35527136788E-14  0.00000000000E+00  0.17596975212E+04  0.18189486167E+04  0.46047660532E+03 0.  0.
      99925    2    3    3    0    0 -0.28413478434E+02 -0.39261516493E+02  0.15271274084E+04  0.15504618239E+04  0.26356204861E+03 0.  0.
         25    1    3    3    0    0  0.28413478434E+02  0.39261516493E+02  0.23257011282E+03  0.26848679281E+03  0.12509000000E+03 0.  0.
         25    1    4    4    0    0  0.19391652852E+02 -0.48496623114E+01  0.61460103490E+03  0.62752011571E+03  0.12509000000E+03 0.  0.
         25    1    4    4    0    0 -0.47805131287E+02 -0.34411854182E+02  0.91252637352E+03  0.92294170821E+03  0.12509000000E+03 0.  0.
<mgrwt>
<rscale>  2 0.46047661E+03</rscale>
<asrwt>0</asrwt>
<pdfrwt beam="1">  1       21 0.26313567E+00 0.46047661E+03</pdfrwt>
<pdfrwt beam="2">  1       21 0.43566994E-02 0.46047661E+03</pdfrwt>
<totfact> 0.16198476E+04</totfact>
</mgrwt>
</event>
<event>
 7    0  0.4714446E-002  0.4648718E+03  0.7546771E-02  0.1023378E+00
         21   -1    0    0  502  501  0.00000000000E+00  0.00000000000E+00  0.18724144045E+04  0.18724144045E+04  0.00000000000E+00 0.  1.
         21   -1    0    0  501  502 -0.00000000000E+00 -0.00000000000E+00 -0.28853894511E+02  0.28853894511E+02  0.00000000000E+00 0.  1.
      99926    2    1    2    0    0  0.00000000000E+00  0.35527136788E-14  0.18435605100E+04  0.19012682990E+04  0.46487180043E+03 0.  0.
      99925    2    3    3    0    0  0.57962398137E+02  0.27584785228E+02  0.72462948925E+03  0.77353841236E+03  0.26296999588E+03 0.  0.
         25    1    4    4    0    0  0.49836567032E+02  0.30053563922E+02  0.28929654416E+03  0.32051037219E+03  0.12509000000E+03 0.  0.
         25    1    3    3    0    0 -0.57962398137E+02 -0.27584785228E+02  0.11189310208E+04  0.11277298867E+04  0.12509000000E+03 0.  0.
         25    1    4    4    0    0  0.81258311046E+01 -0.24687786938E+01  0.43533294509E+03  0.45302804017E+03  0.12509000000E+03 0.  0.
<mgrwt>
<rscale>  2 0.46487180E+03</rscale>
<asrwt>0</asrwt>
<pdfrwt beam="1">  1       21 0.27535498E+00 0.46487180E+03</pdfrwt>
<pdfrwt beam="2">  1       21 0.42432210E-02 0.46487180E+03</pdfrwt>
<totfact> 0.14264870E+04</totfact>
</mgrwt>
</event>
<event>
 7    0  0.4714446E-002  0.4574259E+03  0.7546771E-02  0.1025530E+00
         21   -1    0    0  502  501  0.00000000000E+00  0.00000000000E+00  0.10113871874E+04  0.10113871874E+04  0.00000000000E+00 0.  1.
         21   -1    0    0  501  502 -0.00000000000E+00 -0.00000000000E+00 -0.51720668615E+02  0.51720668615E+02  0.00000000000E+00 0.  1.
      99926    2    1    2    0    0  0.14210854715E-13  0.00000000000E+00  0.95966651875E+03  0.10631078560E+04  0.45742593525E+03 0.  0.
      99925    2    3    3    0    0  0.11270273021E+03  0.35456941052E+01  0.65948057384E+03  0.71890793302E+03  0.26305800034E+03 0.  0.
         25    1    4    4    0    0  0.71170441887E+02  0.33571846102E+01  0.43935849271E+03  0.46234175207E+03  0.12509000000E+03 0.  0.
         25    1    4    4    0    0  0.41532288321E+02  0.18850949493E+00  0.22012208113E+03  0.25656618096E+03  0.12509000000E+03 0.  0.
         25    1    3    3    0    0 -0.11270273021E+03 -0.35456941052E+01  0.30018594490E+03  0.34419992295E+03  0.12509000000E+03 0.  0.
<mgrwt>
<rscale>  2 0.45742594E+03</rscale>
<asrwt>0</asrwt>
<pdfrwt beam="1">  1       21 0.14873340E+00 0.45742594E+03</pdfrwt>
<pdfrwt beam="2">  1       21 0.76059813E-02 0.45742594E+03</pdfrwt>
<totfact> 0.36111534E+04</totfact>
</mgrwt>
</event>
<event>
 7    0  0.4714446E-002  0.4565534E+03  0.7546771E-02  0.1025786E+00
         21   -1    0    0  502  501  0.00000000000E+00  0.00000000000E+00  0.17543886568E+03  0.17543886568E+03  0.00000000000E+00 0. -1.
         21   -1    0    0  501  502 -0.00000000000E+00 -0.00000000000E+00 -0.29702791748E+03  0.29702791748E+03  0.00000000000E+00 0. -1.
      99926    2    1    2    0    0  0.88817841970E-15  0.00000000000E+00 -0.12158905180E+03  0.47246678316E+03  0.45655335249E+03 0.  0.
      99925    2    3    3    0    0 -0.61379642331E+01 -0.92201530674E+02 -0.14654772228E+03  0.31495729076E+03  0.26302673483E+03 0.  0.
         25    1    4    4    0    0 -0.12029495496E+02 -0.19340781406E+02 -0.34333167987E+02  0.13170060407E+03  0.12509000000E+03 0.  0.
         25    1    3    3    0    0  0.61379642331E+01  0.92201530674E+02  0.24958670478E+02  0.15750949240E+03  0.12509000000E+03 0.  0.
         25    1    4    4    0    0  0.58915312625E+01 -0.72860749268E+02 -0.11221455429E+03  0.18325668670E+03  0.12509000000E+03 0.  0.
<mgrwt>
<rscale>  2 0.45655335E+03</rscale>
<asrwt>0</asrwt>
<pdfrwt beam="1">  1       21 0.25799834E-01 0.45655335E+03</pdfrwt>
<pdfrwt beam="2">  1       21 0.43680576E-01 0.45655335E+03</pdfrwt>
<totfact> 0.66430261E+04</totfact>
</mgrwt>
</event>
<event>
 7    0  0.4714446E-002  0.4552984E+03  0.7546771E-02  0.1026154E+00
         21   -1    0    0  502  501  0.00000000000E+00  0.00000000000E+00  0.14790452082E+03  0.14790452082E+03  0.00000000000E+00 0. -1.
         21   -1    0    0  501  502 -0.00000000000E+00 -0.00000000000E+00 -0.35038932044E+03  0.35038932044E+03  0.00000000000E+00 0. -1.
      99926    2    1    2    0    0  0.00000000000E+00 -0.88817841970E-15 -0.20248479962E+03  0.49829384126E+03  0.45529842759E+03 0.  0.
      99925    2    3    3    0    0 -0.89689938511E+02  0.32286542869E+01 -0.51316526667E+02  0.28252993296E+03  0.26293548226E+03 0.  0.
         25    1    4    4    0    0 -0.62290002705E+02 -0.35239938740E+02 -0.27510407818E+02  0.14671819368E+03  0.12509000000E+03 0.  0.
         25    1    4    4    0    0 -0.27399935806E+02  0.38468593027E+02 -0.23806118849E+02  0.13581173928E+03  0.12509000000E+03 0.  0.
         25    1    3    3    0    0  0.89689938511E+02 -0.32286542869E+01 -0.15116827295E+03  0.21576390830E+03  0.12509000000E+03 0.  0.
<mgrwt>
<rscale>  2 0.45529843E+03</rscale>
<asrwt>0</asrwt>
<pdfrwt beam="1">  1       21 0.21750665E-01 0.45529843E+03</pdfrwt>
<pdfrwt beam="2">  1       21 0.51527841E-01 0.45529843E+03</pdfrwt>
<totfact> 0.65236008E+04</totfact>
</mgrwt>
</event>
<event>
 7    0  0.4714446E-002  0.4578628E+03  0.7546771E-02  0.1025403E+00
         21   -1    0    0  502  501  0.00000000000E+00  0.00000000000E+00  0.16087301261E+03  0.16087301261E+03  0.00000000000E+00 0. -1.
         21   -1    0    0  501  502 -0.00000000000E+00 -0.00000000000E+00 -0.32578227465E+03  0.32578227465E+03  0.00000000000E+00 0. -1.
      99926    2    1    2    0    0  0.00000000000E+00  0.00000000000E+00 -0.16490926204E+03  0.48665528727E+03  0.45786275664E+03 0.  0.
      99925    2    3    3    0    0  0.28789834382E+02 -0.38550805975E+02  0.85856708771E+01  0.26742249079E+03  0.26291834403E+03 0.  0.
         25    1    4    4    0    0  0.41418267967E+01 -0.50841252970E+02 -0.18940135822E+02  0.13641196640E+03  0.12509000000E+03 0.  0.
         25    1    3    3    0    0 -0.28789834382E+02  0.38550805975E+02 -0.17349493291E+03  0.21923279648E+03  0.12509000000E+03 0.  0.
         25    1    4    4    0    0  0.24648007585E+02  0.12290446995E+02  0.27525806699E+02  0.13101052439E+03  0.12509000000E+03 0.  0.
<mgrwt>
<rscale>  2 0.45786276E+03</rscale>
<asrwt>0</asrwt>
<pdfrwt beam="1">  1       21 0.23657796E-01 0.45786276E+03</pdfrwt>
<pdfrwt beam="2">  1       21 0.47909158E-01 0.45786276E+03</pdfrwt>
<totfact> 0.64735050E+04</totfact>
</mgrwt>
</event>
<event>
 7    0  0.4714446E-002  0.4523466E+03  0.7546771E-02  0.1027025E+00
         21   -1    0    0  502  501  0.00000000000E+00  0.00000000000E+00  0.10172914057E+04  0.10172914057E+04  0.00000000000E+00 0.  1.
         21   -1    0    0  501  502 -0.00000000000E+00 -0.00000000000E+00 -0.50284868606E+02  0.50284868606E+02  0.00000000000E+00 0.  1.
      99926    2    1    2    0    0 -0.35527136788E-14  0.00000000000E+00  0.96700653714E+03  0.10675762744E+04  0.45234661344E+03 0.  0.
      99925    2    3    3    0    0  0.24530453791E+02 -0.34930640149E+02  0.36920372630E+03  0.45533645081E+03  0.26305512566E+03 0.  0.
         25    1    3    3    0    0 -0.24530453791E+02  0.34930640149E+02  0.59780281084E+03  0.61223982355E+03  0.12509000000E+03 0.  0.
         25    1    4    4    0    0  0.21975516583E+02 -0.50502273192E+02  0.22979786750E+03  0.26737234512E+03  0.12509000000E+03 0.  0.
         25    1    4    4    0    0  0.25549372083E+01  0.15571633043E+02  0.13940585880E+03  0.18796410569E+03  0.12509000000E+03 0.  0.
<mgrwt>
<rscale>  2 0.45234661E+03</rscale>
<asrwt>0</asrwt>
<pdfrwt beam="1">  1       21 0.14960166E+00 0.45234661E+03</pdfrwt>
<pdfrwt beam="2">  1       21 0.73948342E-02 0.45234661E+03</pdfrwt>
<totfact> 0.37407604E+04</totfact>
</mgrwt>
</event>
<event>
 7    0  0.4714446E-002  0.4499292E+03  0.7546771E-02  0.1027743E+00
         21   -1    0    0  502  501  0.00000000000E+00  0.00000000000E+00  0.64832317231E+02  0.64832317231E+02  0.00000000000E+00 0. -1.
         21   -1    0    0  501  502 -0.00000000000E+00 -0.00000000000E+00 -0.78061481611E+03  0.78061481611E+03  0.00000000000E+00 0. -1.
      99926    2    1    2    0    0  0.00000000000E+00  0.00000000000E+00 -0.71578249888E+03  0.84544713334E+03  0.44992918284E+03 0.  0.
      99925    2    3    3    0    0  0.76940562725E+02 -0.32655444916E+02 -0.32305525734E+03  0.42488985708E+03  0.26302179201E+03 0.  0.
         25    1    4    4    0    0  0.57914870998E+02 -0.47868914162E-01 -0.11652873404E+03  0.18050093776E+03  0.12509000000E+03 0.  0.
         25    1    4    4    0    0  0.19025691727E+02 -0.32607576002E+02 -0.20652652330E+03  0.24438891932E+03  0.12509000000E+03 0.  0.
         25    1    3    3    0    0 -0.76940562725E+02  0.32655444916E+02 -0.39272724154E+03  0.42055727627E+03  0.12509000000E+03 0.  0.
<mgrwt>
<rscale>  2 0.44992918E+03</rscale>
<asrwt>0</asrwt>
<pdfrwt beam="1">  1       21 0.95341645E-02 0.44992918E+03</pdfrwt>
<pdfrwt beam="2">  1       21 0.11479629E+00 0.44992918E+03</pdfrwt>
<totfact> 0.47505487E+04</totfact>
</mgrwt>
</event>
<event>
 7    0  0.4714446E-002  0.4524578E+03  0.7546771E-02  0.1026992E+00
         21   -1    0    0  502  501  0.00000000000E+00  0.00000000000E+00  0.23640993675E+03  0.23640993675E+03  0.00000000000E+00 0.  1.
         21   -1    0    0  501  502 -0.00000000000E+00 -0.00000000000E+00 -0.21648627478E+03  0.21648627478E+03  0.00000000000E+00 0.  1.
      99926    2    1    2    0    0  0.00000000000E+00 -0.17763568394E-14  0.19923661971E+02  0.45289621152E+03  0.45245776168E+03 0.  0.
      99925    2    3    3    0    0 -0.98181701099E+02 -0.14589076128E+02 -0.36694402786E+02  0.28346893824E+03  0.26297466072E+03 0.  0.
         25    1    4    4    0    0 -0.69347786566E+02  0.14622574730E+02 -0.47395401228E+02  0.15138285025E+03  0.12509000000E+03 0.  0.
         25    1    4    4    0    0 -0.28833914533E+02 -0.29211650858E+02  0.10700998442E+02  0.13208608799E+03  0.12509000000E+03 0.  0.
         25    1    3    3    0    0  0.98181701099E+02  0.14589076128E+02  0.56618064757E+02  0.16942727328E+03  0.12509000000E+03 0.  0.
<mgrwt>
<rscale>  2 0.45245776E+03</rscale>
<asrwt>0</asrwt>
<pdfrwt beam="1">  1       21 0.34766167E-01 0.45245776E+03</pdfrwt>
<pdfrwt beam="2">  1       21 0.31836217E-01 0.45245776E+03</pdfrwt>
<totfact> 0.70111615E+04</totfact>
</mgrwt>
</event>
<event>
 7    0  0.4714446E-002  0.4165012E+03  0.7546771E-02  0.1038211E+00
         21   -1    0    0  502  501  0.00000000000E+00  0.00000000000E+00  0.11918916907E+02  0.11918916907E+02  0.00000000000E+00 0.  1.
         21   -1    0    0  501  502 -0.00000000000E+00 -0.00000000000E+00 -0.36386124790E+04  0.36386124790E+04  0.00000000000E+00 0.  1.
      99926    2    1    2    0    0  0.17763568394E-14  0.00000000000E+00 -0.36266935621E+04  0.36505313959E+04  0.41650123550E+03 0.  0.
      99925    2    3    3    0    0 -0.11998891757E+02  0.69495860455E+02 -0.24663176024E+04  0.24813036491E+04  0.26300500943E+03 0.  0.
         25    1    3    3    0    0  0.11998891757E+02 -0.69495860455E+02 -0.11603759597E+04  0.11692277468E+04  0.12509000000E+03 0.  0.
         25    1    4    4    0    0  0.24254943851E+02  0.17690273615E+02 -0.98379360244E+03  0.99216863908E+03  0.12509000000E+03 0.  0.
         25    1    4    4    0    0 -0.36253835608E+02  0.51805586840E+02 -0.14825240000E+04  0.14891350100E+04  0.12509000000E+03 0.  0.
<mgrwt>
<rscale>  2 0.41650124E+03</rscale>
<asrwt>0</asrwt>
<pdfrwt beam="1">  1       21 0.17527801E-02 0.41650124E+03</pdfrwt>
<pdfrwt beam="2">  1       21 0.53509063E+00 0.41650124E+03</pdfrwt>
<totfact> 0.12972666E+03</totfact>
</mgrwt>
</event>
<event>
 7    0  0.4714446E-002  0.4592773E+03  0.7546771E-02  0.1024991E+00
         21   -1    0    0  502  501  0.00000000000E+00  0.00000000000E+00  0.38182970572E+03  0.38182970572E+03  0.00000000000E+00 0.  1.
         21   -1    0    0  501  502 -0.00000000000E+00 -0.00000000000E+00 -0.13810842643E+03  0.13810842643E+03  0.00000000000E+00 0.  1.
      99926    2    1    2    0    0 -0.35527136788E-14  0.00000000000E+00  0.24372127928E+03  0.51993813215E+03  0.45927725753E+03 0.  0.
      99925    2    3    3    0    0  0.20771682885E+02  0.68055281492E+02  0.47522281408E+02  0.27661830349E+03  0.26305196150E+03 0.  0.
         25    1    4    4    0    0  0.42939641730E+02  0.47347733607E+02  0.46262629507E+02  0.14789644924E+03  0.12509000000E+03 0.  0.
         25    1    3    3    0    0 -0.20771682885E+02 -0.68055281492E+02  0.19619899788E+03  0.24331982865E+03  0.12509000000E+03 0.  0.
         25    1    4    4    0    0 -0.22167958845E+02  0.20707547885E+02  0.12596519008E+01  0.12872185425E+03  0.12509000000E+03 0.  0.
<mgrwt>
<rscale>  2 0.45927726E+03</rscale>
<asrwt>0</asrwt>
<pdfrwt beam="1">  1       21 0.56151427E-01 0.45927726E+03</pdfrwt>
<pdfrwt beam="2">  1       21 0.20310063E-01 0.45927726E+03</pdfrwt>
<totfact> 0.61768436E+04</totfact>
</mgrwt>
</event>
<event>
 7    0  0.4714446E-002  0.4519546E+03  0.7546771E-02  0.1027141E+00
         21   -1    0    0  502  501  0.00000000000E+00  0.00000000000E+00  0.17488961746E+03  0.17488961746E+03  0.00000000000E+00 0.  1.
         21   -1    0    0  501  502 -0.00000000000E+00 -0.00000000000E+00 -0.29198835975E+03  0.29198835975E+03  0.00000000000E+00 0.  1.
      99926    2    1    2    0    0  0.35527136788E-14  0.13322676296E-14 -0.11709874229E+03  0.46687797721E+03  0.45195456647E+03 0.  0.
      99925    2    3    3    0    0  0.30586163275E+02  0.23434044028E+01 -0.18327373914E+03  0.32207589422E+03  0.26306389576E+03 0.  0.
         25    1    3    3    0    0 -0.30586163275E+02 -0.23434044028E+01  0.66174996850E+02  0.14480208298E+03  0.12509000000E+03 0.  0.
         25    1    4    4    0    0 -0.12452002154E+02  0.17470402797E+02 -0.11997184749E+03  0.17464541111E+03  0.12509000000E+03 0.  0.
         25    1    4    4    0    0  0.43038165430E+02 -0.15126998394E+02 -0.63301891653E+02  0.14743048311E+03  0.12509000000E+03 0.  0.
<mgrwt>
<rscale>  2 0.45195457E+03</rscale>
<asrwt>0</asrwt>
<pdfrwt beam="1">  1       21 0.25719062E-01 0.45195457E+03</pdfrwt>
<pdfrwt beam="2">  1       21 0.42939464E-01 0.45195457E+03</pdfrwt>
<totfact> 0.69328450E+04</totfact>
</mgrwt>
</event>
<event>
 7    0  0.4714446E-002  0.4533243E+03  0.7546771E-02  0.1026735E+00
         21   -1    0    0  502  501  0.00000000000E+00  0.00000000000E+00  0.66564225727E+02  0.66564225727E+02  0.00000000000E+00 0.  1.
         21   -1    0    0  501  502 -0.00000000000E+00 -0.00000000000E+00 -0.77182181760E+03  0.77182181760E+03  0.00000000000E+00 0.  1.
      99926    2    1    2    0    0  0.71054273576E-14  0.16653345369E-14 -0.70525759187E+03  0.83838604332E+03  0.45332426226E+03 0.  0.
      99925    2    3    3    0    0 -0.45015708724E+02 -0.30235112829E+00 -0.63325934939E+03  0.68719821157E+03  0.26305412553E+03 0.  0.
         25    1    4    4    0    0 -0.32453680456E+02  0.23867675386E+02 -0.23998815152E+03  0.27361419603E+03  0.12509000000E+03 0.  0.
         25    1    4    4    0    0 -0.12562028268E+02 -0.24170026515E+02 -0.39327119787E+03  0.41358401554E+03  0.12509000000E+03 0.  0.
         25    1    3    3    0    0  0.45015708724E+02  0.30235112829E+00 -0.71998242483E+02  0.15118783175E+03  0.12509000000E+03 0.  0.
<mgrwt>
<rscale>  2 0.45332426E+03</rscale>
<asrwt>0</asrwt>
<pdfrwt beam="1">  1       21 0.97888567E-02 0.45332426E+03</pdfrwt>
<pdfrwt beam="2">  1       21 0.11350321E+00 0.45332426E+03</pdfrwt>
<totfact> 0.46572740E+04</totfact>
</mgrwt>
</event>
<event>
 7    0  0.4714446E-002  0.4542420E+03  0.7546771E-02  0.1026465E+00
         21   -1    0    0  502  501  0.00000000000E+00  0.00000000000E+00  0.27734555621E+03  0.27734555621E+03  0.00000000000E+00 0. -1.
         21   -1    0    0  501  502 -0.00000000000E+00 -0.00000000000E+00 -0.18599160489E+03  0.18599160489E+03  0.00000000000E+00 0. -1.
      99926    2    1    2    0    0  0.00000000000E+00  0.00000000000E+00  0.91353951327E+02  0.46333716110E+03  0.45424198445E+03 0.  0.
      99925    2    3    3    0    0  0.66616337909E+02  0.71962903596E+02  0.11328884147E+03  0.30288454044E+03  0.26322668419E+03 0.  0.
         25    1    4    4    0    0  0.66838835848E+02  0.21922539492E+02  0.37615215541E+02  0.14835915966E+03  0.12509000000E+03 0.  0.
         25    1    4    4    0    0 -0.22249793960E+00  0.50040364103E+02  0.75673625925E+02  0.15452538078E+03  0.12509000000E+03 0.  0.
         25    1    3    3    0    0 -0.66616337909E+02 -0.71962903596E+02 -0.21934890139E+02  0.16045262066E+03  0.12509000000E+03 0.  0.
<mgrwt>
<rscale>  2 0.45424198E+03</rscale>
<asrwt>0</asrwt>
<pdfrwt beam="1">  1       21 0.40786111E-01 0.45424198E+03</pdfrwt>
<pdfrwt beam="2">  1       21 0.27351707E-01 0.45424198E+03</pdfrwt>
<totfact> 0.68344748E+04</totfact>
</mgrwt>
</event>
<event>
 7    0  0.4714446E-002  0.4693084E+03  0.7546771E-02  0.1022116E+00
         21   -1    0    0  502  501  0.00000000000E+00  0.00000000000E+00  0.74430644399E+02  0.74430644399E+02  0.00000000000E+00 0.  1.
         21   -1    0    0  501  502 -0.00000000000E+00 -0.00000000000E+00 -0.73978394050E+03  0.73978394050E+03  0.00000000000E+00 0.  1.
      99926    2    1    2    0    0  0.00000000000E+00 -0.71054273576E-14 -0.66535329610E+03  0.81421458490E+03  0.46930840780E+03 0.  0.
      99925    2    3    3    0    0  0.84233437757E+02 -0.49541267525E+02 -0.27528553617E+03  0.39308518120E+03  0.26302894143E+03 0.  0.
         25    1    4    4    0    0  0.33279344396E+02 -0.64627330194E+02 -0.14342146132E+03  0.20371899823E+03  0.12509000000E+03 0.  0.
         25    1    4    4    0    0  0.50954093361E+02  0.15086062669E+02 -0.13186407485E+03  0.18936618297E+03  0.12509000000E+03 0.  0.
         25    1    3    3    0    0 -0.84233437757E+02  0.49541267525E+02 -0.39006775993E+03  0.42112940370E+03  0.12509000000E+03 0.  0.
<mgrwt>
<rscale>  2 0.46930841E+03</rscale>
<asrwt>0</asrwt>
<pdfrwt beam="1">  1       21 0.10945683E-01 0.46930841E+03</pdfrwt>
<pdfrwt beam="2">  1       21 0.10879176E+00 0.46930841E+03</pdfrwt>
<totfact> 0.42149428E+04</totfact>
</mgrwt>
</event>
<event>
 7    0  0.4714446E-002  0.4528105E+03  0.7546771E-02  0.1026887E+00
         21   -1    0    0  502  501  0.00000000000E+00  0.00000000000E+00  0.69097418604E+02  0.69097418604E+02  0.00000000000E+00 0. -1.
         21   -1    0    0  501  502 -0.00000000000E+00 -0.00000000000E+00 -0.74184141850E+03  0.74184141850E+03  0.00000000000E+00 0. -1.
      99926    2    1    2    0    0  0.00000000000E+00  0.00000000000E+00 -0.67274399990E+03  0.81093883711E+03  0.45281045497E+03 0.  0.
      99925    2    3    3    0    0  0.84996919655E+02  0.23495964091E+02 -0.54526989185E+03  0.61175627511E+03  0.26296377793E+03 0.  0.
         25    1    4    4    0    0  0.37527676406E+02  0.24510664263E+02 -0.18770163871E+03  0.22997502567E+03  0.12509000000E+03 0.  0.
         25    1    4    4    0    0  0.47469243250E+02 -0.10147001718E+01 -0.35756825314E+03  0.38178124944E+03  0.12509000000E+03 0.  0.
         25    1    3    3    0    0 -0.84996919655E+02 -0.23495964091E+02 -0.12747410805E+03  0.19918256200E+03  0.12509000000E+03 0.  0.
<mgrwt>
<rscale>  2 0.45281045E+03</rscale>
<asrwt>0</asrwt>
<pdfrwt beam="1">  1       21 0.10161385E-01 0.45281045E+03</pdfrwt>
<pdfrwt beam="2">  1       21 0.10909433E+00 0.45281045E+03</pdfrwt>
<totfact> 0.48060720E+04</totfact>
</mgrwt>
</event>
<event>
 7    0  0.4714446E-002  0.4484716E+03  0.7546771E-02  0.1028179E+00
         21   -1    0    0  502  501  0.00000000000E+00  0.00000000000E+00  0.10135773400E+03  0.10135773400E+03  0.00000000000E+00 0.  1.
         21   -1    0    0  501  502 -0.00000000000E+00 -0.00000000000E+00 -0.49608151874E+03  0.49608151874E+03  0.00000000000E+00 0.  1.
      99926    2    1    2    0    0  0.00000000000E+00  0.00000000000E+00 -0.39472378473E+03  0.59743925274E+03  0.44847162060E+03 0.  0.
      99925    2    3    3    0    0 -0.89571127975E+02  0.33101789269E+02 -0.18859483493E+03  0.33810285447E+03  0.26386893152E+03 0.  0.
         25    1    4    4    0    0 -0.55004895369E+02  0.32173501459E+02 -0.14339780880E+03  0.20067663636E+03  0.12509000000E+03 0.  0.
         25    1    4    4    0    0 -0.34566232606E+02  0.92828780961E+00 -0.45197026128E+02  0.13742621812E+03  0.12509000000E+03 0.  0.
         25    1    3    3    0    0  0.89571127975E+02 -0.33101789269E+02 -0.20612894981E+03  0.25933639827E+03  0.12509000000E+03 0.  0.
<mgrwt>
<rscale>  2 0.44847162E+03</rscale>
<asrwt>0</asrwt>
<pdfrwt beam="1">  1       21 0.14905549E-01 0.44847162E+03</pdfrwt>
<pdfrwt beam="2">  1       21 0.72953164E-01 0.44847162E+03</pdfrwt>
<totfact> 0.61971615E+04</totfact>
</mgrwt>
</event>
<event>
 7    0  0.4714446E-002  0.4587095E+03  0.7546771E-02  0.1025156E+00
         21   -1    0    0  502  501  0.00000000000E+00  0.00000000000E+00  0.22448966475E+03  0.22448966475E+03  0.00000000000E+00 0. -1.
         21   -1    0    0  501  502 -0.00000000000E+00 -0.00000000000E+00 -0.23432528706E+03  0.23432528706E+03  0.00000000000E+00 0. -1.
      99926    2    1    2    0    0  0.00000000000E+00  0.00000000000E+00 -0.98356223090E+01  0.45881495181E+03  0.45870951651E+03 0.  0.
      99925    2    3    3    0    0  0.89130031664E+02  0.71707352729E+02 -0.28692282407E+02  0.28825942212E+03  0.26302878244E+03 0.  0.
         25    1    4    4    0    0  0.42343842300E+02  0.39593088446E+02 -0.54941261981E+02  0.14841382685E+03  0.12509000000E+03 0.  0.
         25    1    4    4    0    0  0.46786189364E+02  0.32114264282E+02  0.26248979574E+02  0.13984559526E+03  0.12509000000E+03 0.  0.
         25    1    3    3    0    0 -0.89130031664E+02 -0.71707352729E+02  0.18856660098E+02  0.17055552970E+03  0.12509000000E+03 0.  0.
<mgrwt>
<rscale>  2 0.45870952E+03</rscale>
<asrwt>0</asrwt>
<pdfrwt beam="1">  1       21 0.33013186E-01 0.45870952E+03</pdfrwt>
<pdfrwt beam="2">  1       21 0.34459601E-01 0.45870952E+03</pdfrwt>
<totfact> 0.66283522E+04</totfact>
</mgrwt>
</event>
<event>
 7    0  0.4714446E-002  0.4562099E+03  0.7546771E-02  0.1025886E+00
         21   -1    0    0  502  501  0.00000000000E+00  0.00000000000E+00  0.46910552082E+03  0.46910552082E+03  0.00000000000E+00 0. -1.
         21   -1    0    0  501  502 -0.00000000000E+00 -0.00000000000E+00 -0.11091718289E+03  0.11091718289E+03  0.00000000000E+00 0. -1.
      99926    2    1    2    0    0 -0.14210854715E-13 -0.71054273576E-14  0.35818833793E+03  0.58002270371E+03  0.45620987647E+03 0.  0.
      99925    2    3    3    0    0  0.10364493942E+03  0.42097363639E+02  0.25462531148E+03  0.38282414885E+03  0.26306998726E+03 0.  0.
         25    1    3    3    0    0 -0.10364493942E+03 -0.42097363639E+02  0.10356302645E+03  0.19719855487E+03  0.12509000000E+03 0.  0.
         25    1    4    4    0    0  0.93203452798E+02  0.34320729724E+02  0.15216409351E+03  0.22060420567E+03  0.12509000000E+03 0.  0.
         25    1    4    4    0    0  0.10441486623E+02  0.77766339156E+01  0.10246121797E+03  0.16221994318E+03  0.12509000000E+03 0.  0.
<mgrwt>
<rscale>  2 0.45620988E+03</rscale>
<asrwt>0</asrwt>
<pdfrwt beam="1">  1       21 0.68986106E-01 0.45620988E+03</pdfrwt>
<pdfrwt beam="2">  1       21 0.16311351E-01 0.45620988E+03</pdfrwt>
<totfact> 0.59355313E+04</totfact>
</mgrwt>
</event>
<event>
 7    0  0.4714446E-002  0.4512926E+03  0.7546771E-02  0.1027337E+00
         21   -1    0    0  502  501  0.00000000000E+00  0.00000000000E+00  0.46687735813E+03  0.46687735813E+03  0.00000000000E+00 0. -1.
         21   -1    0    0  501  502 -0.00000000000E+00 -0.00000000000E+00 -0.10905699522E+03  0.10905699522E+03  0.00000000000E+00 0. -1.
      99926    2    1    2    0    0  0.00000000000E+00  0.00000000000E+00  0.35782036291E+03  0.57593435335E+03  0.45129255174E+03 0.  0.
      99925    2    3    3    0    0 -0.36126180355E+02 -0.78908799725E+02  0.14054809088E+03  0.31062990959E+03  0.26306933555E+03 0.  0.
         25    1    3    3    0    0  0.36126180355E+02  0.78908799725E+02  0.21727227203E+03  0.26530444375E+03  0.12509000000E+03 0.  0.
         25    1    4    4    0    0 -0.44455284434E+02 -0.82735956084E+01  0.71808112867E+02  0.15115765899E+03  0.12509000000E+03 0.  0.
         25    1    4    4    0    0  0.83291040788E+01 -0.70635204116E+02  0.68739978011E+02  0.15947225060E+03  0.12509000000E+03 0.  0.
<mgrwt>
<rscale>  2 0.45129255E+03</rscale>
<asrwt>0</asrwt>
<pdfrwt beam="1">  1       21 0.68658435E-01 0.45129255E+03</pdfrwt>
<pdfrwt beam="2">  1       21 0.16037794E-01 0.45129255E+03</pdfrwt>
<totfact> 0.61981550E+04</totfact>
</mgrwt>
</event>
<event>
 7    0  0.4714446E-002  0.4529226E+03  0.7546771E-02  0.1026854E+00
         21   -1    0    0  502  501  0.00000000000E+00  0.00000000000E+00  0.97892865721E+02  0.97892865721E+02  0.00000000000E+00 0. -1.
         21   -1    0    0  501  502 -0.00000000000E+00 -0.00000000000E+00 -0.52388611992E+03  0.52388611992E+03  0.00000000000E+00 0. -1.
      99926    2    1    2    0    0 -0.71054273576E-14  0.00000000000E+00 -0.42599325420E+03  0.62177898564E+03  0.45292256994E+03 0.  0.
      99925    2    3    3    0    0  0.45895516135E+02  0.60138997863E+02 -0.15661637971E+03  0.31529161873E+03  0.26297721761E+03 0.  0.
         25    1    3    3    0    0 -0.45895516135E+02 -0.60138997863E+02 -0.26937687449E+03  0.30648736691E+03  0.12509000000E+03 0.  0.
         25    1    4    4    0    0  0.39379518767E+02  0.25512422492E+01 -0.47611588256E+02  0.13954077100E+03  0.12509000000E+03 0.  0.
         25    1    4    4    0    0  0.65159973677E+01  0.57587755614E+02 -0.10900479145E+03  0.17575084773E+03  0.12509000000E+03 0.  0.
<mgrwt>
<rscale>  2 0.45292257E+03</rscale>
<asrwt>0</asrwt>
<pdfrwt beam="1">  1       21 0.14396010E-01 0.45292257E+03</pdfrwt>
<pdfrwt beam="2">  1       21 0.77042077E-01 0.45292257E+03</pdfrwt>
<totfact> 0.58307924E+04</totfact>
</mgrwt>
</event>
<event>
 7    0  0.4714446E-002  0.4549422E+03  0.7546771E-02  0.1026258E+00
         21   -1    0    0  502  501  0.00000000000E+00  0.00000000000E+00  0.75450908827E+02  0.75450908827E+02  0.00000000000E+00 0.  1.
         21   -1    0    0  501  502 -0.00000000000E+00 -0.00000000000E+00 -0.68578510774E+03  0.68578510774E+03  0.00000000000E+00 0.  1.
      99926    2    1    2    0    0  0.00000000000E+00  0.00000000000E+00 -0.61033419891E+03  0.76123601657E+03  0.45494223650E+03 0.  0.
      99925    2    3    3    0    0 -0.59474103582E+02  0.72632803666E+02 -0.27827457324E+03  0.39418861327E+03  0.26293579360E+03 0.  0.
         25    1    3    3    0    0  0.59474103582E+02 -0.72632803666E+02 -0.33205962567E+03  0.36704740329E+03  0.12509000000E+03 0.  0.
         25    1    4    4    0    0  0.27326033853E+01  0.58204484048E+02 -0.12349069217E+03  0.18518285082E+03  0.12509000000E+03 0.  0.
         25    1    4    4    0    0 -0.62206706967E+02  0.14428319618E+02 -0.15478388107E+03  0.20900576245E+03  0.12509000000E+03 0.  0.
<mgrwt>
<rscale>  2 0.45494224E+03</rscale>
<asrwt>0</asrwt>
<pdfrwt beam="1">  1       21 0.11095723E-01 0.45494224E+03</pdfrwt>
<pdfrwt beam="2">  1       21 0.10085074E+00 0.45494224E+03</pdfrwt>
<totfact> 0.49719093E+04</totfact>
</mgrwt>
</event>
<event>
 7    0  0.4714446E-002  0.4516424E+03  0.7546771E-02  0.1027233E+00
         21   -1    0    0  502  501  0.00000000000E+00  0.00000000000E+00  0.26447686093E+03  0.26447686093E+03  0.00000000000E+00 0.  1.
         21   -1    0    0  501  502 -0.00000000000E+00 -0.00000000000E+00 -0.19281543210E+03  0.19281543210E+03  0.00000000000E+00 0.  1.
      99926    2    1    2    0    0  0.00000000000E+00 -0.14210854715E-13  0.71661428830E+02  0.45729229303E+03  0.45164242591E+03 0.  0.
      99925    2    3    3    0    0 -0.33535389860E+02 -0.93763721479E+02  0.92570305730E+02  0.29604420134E+03  0.26297651950E+03 0.  0.
         25    1    3    3    0    0  0.33535389860E+02  0.93763721479E+02 -0.20908876900E+02  0.16124809168E+03  0.12509000000E+03 0.  0.
         25    1    4    4    0    0 -0.34125234046E+02 -0.24912951276E+02  0.75880864262E+02  0.15228460330E+03  0.12509000000E+03 0.  0.
         25    1    4    4    0    0  0.58984418609E+00 -0.68850770203E+02  0.16689441468E+02  0.14375959805E+03  0.12509000000E+03 0.  0.
<mgrwt>
<rscale>  2 0.45164243E+03</rscale>
<asrwt>0</asrwt>
<pdfrwt beam="1">  1       21 0.38893656E-01 0.45164243E+03</pdfrwt>
<pdfrwt beam="2">  1       21 0.28355210E-01 0.45164243E+03</pdfrwt>
<totfact> 0.70240257E+04</totfact>
</mgrwt>
</event>
<event>
 7    0  0.4714446E-002  0.4557893E+03  0.7546771E-02  0.1026010E+00
         21   -1    0    0  502  501  0.00000000000E+00  0.00000000000E+00  0.91543713401E+03  0.91543713401E+03  0.00000000000E+00 0. -1.
         21   -1    0    0  501  502 -0.00000000000E+00 -0.00000000000E+00 -0.56733529823E+02  0.56733529823E+02  0.00000000000E+00 0. -1.
      99926    2    1    2    0    0  0.00000000000E+00  0.00000000000E+00  0.85870360419E+03  0.97217066383E+03  0.45578933706E+03 0.  0.
      99925    2    3    3    0    0 -0.92212059851E+02 -0.66857127376E+02  0.53847373936E+03  0.60999996666E+03  0.26300770309E+03 0.  0.
         25    1    3    3    0    0  0.92212059851E+02  0.66857127376E+02  0.32022986483E+03  0.36217069717E+03  0.12509000000E+03 0.  0.
         25    1    4    4    0    0 -0.85082119343E+02 -0.37438109977E+02  0.25817709409E+03  0.30156839875E+03  0.12509000000E+03 0.  0.
         25    1    4    4    0    0 -0.71299405076E+01 -0.29419017399E+02  0.28029664527E+03  0.30843156791E+03  0.12509000000E+03 0.  0.
<mgrwt>
<rscale>  2 0.45578934E+03</rscale>
<asrwt>0</asrwt>
<pdfrwt beam="1">  1       21 0.13462310E+00 0.45578934E+03</pdfrwt>
<pdfrwt beam="2">  1       21 0.83431667E-02 0.45578934E+03</pdfrwt>
<totfact> 0.40008395E+04</totfact>
</mgrwt>
</event>
<event>
 7    0  0.4714446E-002  0.4548058E+03  0.7546771E-02  0.1026299E+00
         21   -1    0    0  502  501  0.00000000000E+00  0.00000000000E+00  0.19520911455E+03  0.19520911455E+03  0.00000000000E+00 0.  1.
         21   -1    0    0  501  502 -0.00000000000E+00 -0.00000000000E+00 -0.26490610024E+03  0.26490610024E+03  0.00000000000E+00 0.  1.
      99926    2    1    2    0    0  0.00000000000E+00  0.00000000000E+00 -0.69696985688E+02  0.46011521479E+03  0.45480582787E+03 0.  0.
      99925    2    3    3    0    0 -0.47448158618E+02 -0.27992799698E+02  0.55946656078E+02  0.27445757986E+03  0.26298671112E+03 0.  0.
         25    1    4    4    0    0 -0.45844344039E+02  0.18020189815E+02  0.16492899075E+02  0.13544724043E+03  0.12509000000E+03 0.  0.
         25    1    4    4    0    0 -0.16038145787E+01 -0.46012989513E+02  0.39453757002E+02  0.13901033942E+03  0.12509000000E+03 0.  0.
         25    1    3    3    0    0  0.47448158618E+02  0.27992799698E+02 -0.12564364177E+03  0.18565763493E+03  0.12509000000E+03 0.  0.
<mgrwt>
<rscale>  2 0.45480583E+03</rscale>
<asrwt>0</asrwt>
<pdfrwt beam="1">  1       21 0.28707223E-01 0.45480583E+03</pdfrwt>
<pdfrwt beam="2">  1       21 0.38956780E-01 0.45480583E+03</pdfrwt>
<totfact> 0.68277828E+04</totfact>
</mgrwt>
</event>
<event>
 7    0  0.4714446E-002  0.4573753E+03  0.7546771E-02  0.1025545E+00
         21   -1    0    0  502  501  0.00000000000E+00  0.00000000000E+00  0.41999124115E+03  0.41999124115E+03  0.00000000000E+00 0. -1.
         21   -1    0    0  501  502 -0.00000000000E+00 -0.00000000000E+00 -0.12452176843E+03  0.12452176843E+03  0.00000000000E+00 0. -1.
      99926    2    1    2    0    0  0.00000000000E+00  0.14210854715E-13  0.29546947272E+03  0.54451300958E+03  0.45737534727E+03 0.  0.
      99925    2    3    3    0    0  0.63340781588E+02  0.82425413459E+02  0.24512575412E+03  0.37425437837E+03  0.26300893712E+03 0.  0.
         25    1    3    3    0    0 -0.63340781588E+02 -0.82425413459E+02  0.50343718599E+02  0.17025863120E+03  0.12509000000E+03 0.  0.
         25    1    4    4    0    0  0.63817812984E+02  0.46410386077E+02  0.16415028833E+03  0.22095126714E+03  0.12509000000E+03 0.  0.
         25    1    4    4    0    0 -0.47703139614E+00  0.36015027383E+02  0.80975465783E+02  0.15330311124E+03  0.12509000000E+03 0.  0.
<mgrwt>
<rscale>  2 0.45737535E+03</rscale>
<asrwt>0</asrwt>
<pdfrwt beam="1">  1       21 0.61763418E-01 0.45737535E+03</pdfrwt>
<pdfrwt beam="2">  1       21 0.18312025E-01 0.45737535E+03</pdfrwt>
<totfact> 0.61074468E+04</totfact>
</mgrwt>
</event>
<event>
 7    0  0.4714446E-002  0.4458854E+03  0.7546771E-02  0.1028956E+00
         21   -1    0    0  502  501  0.00000000000E+00  0.00000000000E+00  0.75818938502E+02  0.75818938502E+02  0.00000000000E+00 0.  1.
         21   -1    0    0  501  502 -0.00000000000E+00 -0.00000000000E+00 -0.65555459922E+03  0.65555459922E+03  0.00000000000E+00 0.  1.
      99926    2    1    2    0    0  0.00000000000E+00  0.17763568394E-14 -0.57973566072E+03  0.73137353772E+03  0.44588542853E+03 0.  0.
      99925    2    3    3    0    0  0.34620497335E+02  0.12842278288E+02 -0.20980246388E+03  0.33912160188E+03  0.26386148652E+03 0.  0.
         25    1    3    3    0    0 -0.34620497335E+02 -0.12842278288E+02 -0.36993319684E+03  0.39225193584E+03  0.12509000000E+03 0.  0.
         25    1    4    4    0    0  0.38090440805E+02 -0.28320991232E+02 -0.11967703127E+03  0.17950782751E+03  0.12509000000E+03 0.  0.
         25    1    4    4    0    0 -0.34699434698E+01  0.41163269520E+02 -0.90125432614E+02  0.15961377437E+03  0.12509000000E+03 0.  0.
<mgrwt>
<rscale>  2 0.44588543E+03</rscale>
<asrwt>0</asrwt>
<pdfrwt beam="1">  1       21 0.11149843E-01 0.44588543E+03</pdfrwt>
<pdfrwt beam="2">  1       21 0.96405096E-01 0.44588543E+03</pdfrwt>
<totfact> 0.55074793E+04</totfact>
</mgrwt>
</event>
<event>
 7    0  0.4714446E-002  0.4522407E+03  0.7546771E-02  0.1027056E+00
         21   -1    0    0  502  501  0.00000000000E+00  0.00000000000E+00  0.72503685576E+03  0.72503685576E+03  0.00000000000E+00 0.  1.
         21   -1    0    0  501  502 -0.00000000000E+00 -0.00000000000E+00 -0.70521110021E+02  0.70521110021E+02  0.00000000000E+00 0.  1.
      99926    2    1    2    0    0  0.00000000000E+00  0.00000000000E+00  0.65451574574E+03  0.79555796578E+03  0.45224066104E+03 0.  0.
      99925    2    3    3    0    0 -0.86727444099E+02  0.56466684444E+02  0.34434892861E+03  0.44547069301E+03  0.26297873998E+03 0.  0.
         25    1    4    4    0    0 -0.14610178177E+02  0.40681112735E+02  0.12273735195E+03  0.18050034876E+03  0.12509000000E+03 0.  0.
         25    1    3    3    0    0  0.86727444099E+02 -0.56466684444E+02  0.31016681713E+03  0.35008727278E+03  0.12509000000E+03 0.  0.
         25    1    4    4    0    0 -0.72117265922E+02  0.15785571710E+02  0.22161157666E+03  0.26497034424E+03  0.12509000000E+03 0.  0.
<mgrwt>
<rscale>  2 0.45224066E+03</rscale>
<asrwt>0</asrwt>
<pdfrwt beam="1">  1       21 0.10662306E+00 0.45224066E+03</pdfrwt>
<pdfrwt beam="2">  1       21 0.10370752E-01 0.45224066E+03</pdfrwt>
<totfact> 0.49033682E+04</totfact>
</mgrwt>
</event>
<event>
 7    0  0.4714446E-002  0.4550272E+03  0.7546771E-02  0.1026233E+00
         21   -1    0    0  502  501  0.00000000000E+00  0.00000000000E+00  0.10496987116E+03  0.10496987116E+03  0.00000000000E+00 0. -1.
         21   -1    0    0  501  502 -0.00000000000E+00 -0.00000000000E+00 -0.49311699827E+03  0.49311699827E+03  0.00000000000E+00 0. -1.
      99926    2    1    2    0    0 -0.35527136788E-14  0.14210854715E-13 -0.38814712712E+03  0.59808686943E+03  0.45502715424E+03 0.  0.
      99925    2    3    3    0    0  0.29913125924E+02 -0.10108722324E+03 -0.29881989715E+03  0.41169941299E+03  0.26284910865E+03 0.  0.
         25    1    4    4    0    0  0.40752037502E+02 -0.82674000703E+02 -0.18087108998E+03  0.23844827163E+03  0.12509000000E+03 0.  0.
         25    1    4    4    0    0 -0.10838911578E+02 -0.18413222539E+02 -0.11794880716E+03  0.17325114135E+03  0.12509000000E+03 0.  0.
         25    1    3    3    0    0 -0.29913125924E+02  0.10108722324E+03 -0.89327229969E+02  0.18638745644E+03  0.12509000000E+03 0.  0.
<mgrwt>
<rscale>  2 0.45502715E+03</rscale>
<asrwt>0</asrwt>
<pdfrwt beam="1">  1       21 0.15436746E-01 0.45502715E+03</pdfrwt>
<pdfrwt beam="2">  1       21 0.72517205E-01 0.45502715E+03</pdfrwt>
<totfact> 0.58783566E+04</totfact>
</mgrwt>
</event>
<event>
 7    0  0.4714446E-002  0.4529851E+03  0.7546771E-02  0.1026836E+00
         21   -1    0    0  502  501  0.00000000000E+00  0.00000000000E+00  0.80570065835E+02  0.80570065835E+02  0.00000000000E+00 0.  1.
         21   -1    0    0  501  502 -0.00000000000E+00 -0.00000000000E+00 -0.63669904831E+03  0.63669904831E+03  0.00000000000E+00 0.  1.
      99926    2    1    2    0    0  0.00000000000E+00  0.00000000000E+00 -0.55612898247E+03  0.71726911414E+03  0.45298513988E+03 0.  0.
      99925    2    3    3    0    0 -0.86911140716E+02 -0.60619432829E+02 -0.29702233868E+03  0.41065531312E+03  0.26303470209E+03 0.  0.
         25    1    4    4    0    0 -0.18875910180E+02 -0.37657853669E+02 -0.95864774818E+02  0.16313177826E+03  0.12509000000E+03 0.  0.
         25    1    4    4    0    0 -0.68035230536E+02 -0.22961579160E+02 -0.20115756386E+03  0.24752353486E+03  0.12509000000E+03 0.  0.
         25    1    3    3    0    0  0.86911140716E+02  0.60619432829E+02 -0.25910664379E+03  0.30661380102E+03  0.12509000000E+03 0.  0.
<mgrwt>
<rscale>  2 0.45298514E+03</rscale>
<asrwt>0</asrwt>
<pdfrwt beam="1">  1       21 0.11848539E-01 0.45298514E+03</pdfrwt>
<pdfrwt beam="2">  1       21 0.93632215E-01 0.45298514E+03</pdfrwt>
<totfact> 0.52807386E+04</totfact>
</mgrwt>
</event>
<event>
 7    0  0.4714446E-002  0.4527723E+03  0.7546771E-02  0.1026899E+00
         21   -1    0    0  502  501  0.00000000000E+00  0.00000000000E+00  0.12496821222E+03  0.12496821222E+03  0.00000000000E+00 0.  1.
         21   -1    0    0  501  502 -0.00000000000E+00 -0.00000000000E+00 -0.41010973018E+03  0.41010973018E+03  0.00000000000E+00 0.  1.
      99926    2    1    2    0    0  0.00000000000E+00 -0.17763568394E-14 -0.28514151796E+03  0.53507794240E+03  0.45277225973E+03 0.  0.
      99925    2    3    3    0    0  0.22098536232E+02  0.14552345649E+02 -0.52035295954E+02  0.26920930020E+03  0.26280384172E+03 0.  0.
         25    1    4    4    0    0 -0.19012263733E+01  0.39987350727E+02 -0.46072860118E+02  0.13918627597E+03  0.12509000000E+03 0.  0.
         25    1    4    4    0    0  0.23999762605E+02 -0.25435005078E+02 -0.59624358356E+01  0.13002302423E+03  0.12509000000E+03 0.  0.
         25    1    3    3    0    0 -0.22098536232E+02 -0.14552345649E+02 -0.23310622200E+03  0.26586864220E+03  0.12509000000E+03 0.  0.
<mgrwt>
<rscale>  2 0.45277226E+03</rscale>
<asrwt>0</asrwt>
<pdfrwt beam="1">  1       21 0.18377678E-01 0.45277226E+03</pdfrwt>
<pdfrwt beam="2">  1       21 0.60310255E-01 0.45277226E+03</pdfrwt>
<totfact> 0.63984222E+04</totfact>
</mgrwt>
</event>
<event>
 6    0  0.4714446E-002  0.4534216E+03  0.7546771E-02  0.1026707E+00
         21   -1    0    0  502  501  0.00000000000E+00  0.00000000000E+00  0.10606496656E+04  0.10606496656E+04  0.00000000000E+00 0.  1.
         21   -1    0    0  501  502 -0.00000000000E+00 -0.00000000000E+00 -0.48458787255E+02  0.48458787255E+02  0.00000000000E+00 0.  1.
      99926    2    1    2    0    0  0.71054273576E-14  0.00000000000E+00  0.10121908783E+04  0.11091084529E+04  0.45342164261E+03 0.  0.
         25    1    3    3    0    0  0.35334099442E+01  0.50666358746E+02  0.32550739861E+03  0.35239486311E+03  0.12509000000E+03 0.  0.
         25    1    3    3    0    0  0.48045904689E+02  0.19674053043E+02  0.48686005780E+03  0.50534710972E+03  0.12509000000E+03 0.  0.
         25    1    3    3    0    0 -0.51579314634E+02 -0.70340411789E+02  0.19982342194E+03  0.25136648003E+03  0.12509000000E+03 0.  0.
<mgrwt>
<rscale>  2 0.45342164E+03</rscale>
<asrwt>0</asrwt>
<pdfrwt beam="1">  1       21 0.15597788E+00 0.45342164E+03</pdfrwt>
<pdfrwt beam="2">  1       21 0.71262929E-02 0.45342164E+03</pdfrwt>
<totfact> 0.35613520E+04</totfact>
</mgrwt>
</event>
<event>
 7    0  0.4714446E-002  0.4612583E+03  0.7546771E-02  0.1024417E+00
         21   -1    0    0  502  501  0.00000000000E+00  0.00000000000E+00  0.92325405021E+02  0.92325405021E+02  0.00000000000E+00 0.  1.
         21   -1    0    0  501  502 -0.00000000000E+00 -0.00000000000E+00 -0.57611243969E+03  0.57611243969E+03  0.00000000000E+00 0.  1.
      99926    2    1    2    0    0 -0.14210854715E-13  0.00000000000E+00 -0.48378703467E+03  0.66843784471E+03  0.46125834120E+03 0.  0.
      99925    2    3    3    0    0  0.11706733666E+03 -0.12118385876E+02 -0.29518352605E+03  0.41334882465E+03  0.26433372884E+03 0.  0.
         25    1    4    4    0    0  0.13224220703E+02 -0.49892822032E+00 -0.11576868212E+03  0.17095328251E+03  0.12509000000E+03 0.  0.
         25    1    3    3    0    0 -0.11706733666E+03  0.12118385876E+02 -0.18860350863E+03  0.25508902006E+03  0.12509000000E+03 0.  0.
         25    1    4    4    0    0  0.10384311596E+03 -0.11619457655E+02 -0.17941484393E+03  0.24239554214E+03  0.12509000000E+03 0.  0.
<mgrwt>
<rscale>  2 0.46125834E+03</rscale>
<asrwt>0</asrwt>
<pdfrwt beam="1">  1       21 0.13577266E-01 0.46125834E+03</pdfrwt>
<pdfrwt beam="2">  1       21 0.84722415E-01 0.46125834E+03</pdfrwt>
<totfact> 0.52034975E+04</totfact>
</mgrwt>
</event>
<event>
 7    0  0.4714446E-002  0.4319146E+03  0.7546771E-02  0.1033257E+00
         21   -1    0    0  502  501  0.00000000000E+00  0.00000000000E+00  0.56665459455E+03  0.56665459455E+03  0.00000000000E+00 0.  1.
         21   -1    0    0  501  502 -0.00000000000E+00 -0.00000000000E+00 -0.82303328453E+02  0.82303328453E+02  0.00000000000E+00 0.  1.
      99926    2    1    2    0    0 -0.71054273576E-14  0.00000000000E+00  0.48435126609E+03  0.64895792300E+03  0.43191461756E+03 0.  0.
      99925    2    3    3    0    0  0.40658679378E+02 -0.71359488585E+02  0.25761938080E+03  0.37729607303E+03  0.26313357167E+03 0.  0.
         25    1    4    4    0    0  0.57346820070E+00 -0.84502075289E+01  0.85148109417E+02  0.15155673364E+03  0.12509000000E+03 0.  0.
         25    1    3    3    0    0 -0.40658679378E+02  0.71359488585E+02  0.22673188530E+03  0.27166184997E+03  0.12509000000E+03 0.  0.
         25    1    4    4    0    0  0.40085211177E+02 -0.62909281056E+02  0.17247127138E+03  0.22573933939E+03  0.12509000000E+03 0.  0.
<mgrwt>
<rscale>  2 0.43191462E+03</rscale>
<asrwt>0</asrwt>
<pdfrwt beam="1">  1       21 0.83331556E-01 0.43191462E+03</pdfrwt>
<pdfrwt beam="2">  1       21 0.12103431E-01 0.43191462E+03</pdfrwt>
<totfact> 0.67179460E+04</totfact>
</mgrwt>
</event>
<event>
 7    0  0.4714446E-002  0.4552462E+03  0.7546771E-02  0.1026169E+00
         21   -1    0    0  502  501  0.00000000000E+00  0.00000000000E+00  0.52042593428E+03  0.52042593428E+03  0.00000000000E+00 0.  1.
         21   -1    0    0  501  502 -0.00000000000E+00 -0.00000000000E+00 -0.99557452268E+02  0.99557452268E+02  0.00000000000E+00 0.  1.
      99926    2    1    2    0    0 -0.71054273576E-14 -0.35527136788E-14  0.42086848201E+03  0.61998338655E+03  0.45524621958E+03 0.  0.
      99925    2    3    3    0    0  0.50082569520E+02  0.18996732404E+02  0.40101632303E+03  0.48246700233E+03  0.26285200663E+03 0.  0.
         25    1    4    4    0    0  0.46069894445E+02  0.24176703018E+01  0.14477736748E+03  0.19681533106E+03  0.12509000000E+03 0.  0.
         25    1    4    4    0    0  0.40126750749E+01  0.16579062102E+02  0.25623895555E+03  0.28565167127E+03  0.12509000000E+03 0.  0.
         25    1    3    3    0    0 -0.50082569520E+02 -0.18996732404E+02  0.19852158981E+02  0.13751638422E+03  0.12509000000E+03 0.  0.
<mgrwt>
<rscale>  2 0.45524622E+03</rscale>
<asrwt>0</asrwt>
<pdfrwt beam="1">  1       21 0.76533224E-01 0.45524622E+03</pdfrwt>
<pdfrwt beam="2">  1       21 0.14640802E-01 0.45524622E+03</pdfrwt>
<totfact> 0.57353204E+04</totfact>
</mgrwt>
</event>
<event>
 7    0  0.4714446E-002  0.4546003E+03  0.7546771E-02  0.1026359E+00
         21   -1    0    0  502  501  0.00000000000E+00  0.00000000000E+00  0.20365060758E+03  0.20365060758E+03  0.00000000000E+00 0.  1.
         21   -1    0    0  501  502 -0.00000000000E+00 -0.00000000000E+00 -0.25369610670E+03  0.25369610670E+03  0.00000000000E+00 0.  1.
      99926    2    1    2    0    0  0.00000000000E+00  0.17763568394E-14 -0.50045499119E+02  0.45734671427E+03  0.45460033554E+03 0.  0.
      99925    2    3    3    0    0 -0.10941959294E+03  0.12900514793E+02 -0.73265567607E+01  0.28526682952E+03  0.26302930443E+03 0.  0.
         25    1    4    4    0    0 -0.70477929471E+02  0.35443638659E+01 -0.41597480688E+02  0.14952444468E+03  0.12509000000E+03 0.  0.
         25    1    4    4    0    0 -0.38941663470E+02  0.93561509273E+01  0.34270923927E+02  0.13574238484E+03  0.12509000000E+03 0.  0.
         25    1    3    3    0    0  0.10941959294E+03 -0.12900514793E+02 -0.42718942358E+02  0.17207988476E+03  0.12509000000E+03 0.  0.
<mgrwt>
<rscale>  2 0.45460034E+03</rscale>
<asrwt>0</asrwt>
<pdfrwt beam="1">  1       21 0.29948619E-01 0.45460034E+03</pdfrwt>
<pdfrwt beam="2">  1       21 0.37308251E-01 0.45460034E+03</pdfrwt>
<totfact> 0.68592623E+04</totfact>
</mgrwt>
</event>
<event>
 7    0  0.4714446E-002  0.4210185E+03  0.7546771E-02  0.1036735E+00
         21   -1    0    0  502  501  0.00000000000E+00  0.00000000000E+00  0.98226458010E+03  0.98226458010E+03  0.00000000000E+00 0.  1.
         21   -1    0    0  501  502 -0.00000000000E+00 -0.00000000000E+00 -0.45114254921E+02  0.45114254921E+02  0.00000000000E+00 0.  1.
      99926    2    1    2    0    0  0.00000000000E+00  0.71054273576E-14  0.93715032518E+03  0.10273788350E+04  0.42101845407E+03 0.  0.
      99925    2    3    3    0    0  0.46710447873E+02 -0.60253545498E+02  0.60271569089E+03  0.66226736109E+03  0.26366550368E+03 0.  0.
         25    1    4    4    0    0 -0.13899262315E+02 -0.42355197740E+02  0.25850534091E+03  0.29061946192E+03  0.12509000000E+03 0.  0.
         25    1    4    4    0    0  0.60609710188E+02 -0.17898347758E+02  0.34421034998E+03  0.37164789917E+03  0.12509000000E+03 0.  0.
         25    1    3    3    0    0 -0.46710447873E+02  0.60253545498E+02  0.33443463429E+03  0.36511147393E+03  0.12509000000E+03 0.  0.
<mgrwt>
<rscale>  2 0.42101845E+03</rscale>
<asrwt>0</asrwt>
<pdfrwt beam="1">  1       21 0.14445066E+00 0.42101845E+03</pdfrwt>
<pdfrwt beam="2">  1       21 0.66344499E-02 0.42101845E+03</pdfrwt>
<totfact> 0.50162965E+04</totfact>
</mgrwt>
</event>
<event>
 7    0  0.4714446E-002  0.4515437E+03  0.7546771E-02  0.1027263E+00
         21   -1    0    0  502  501  0.00000000000E+00  0.00000000000E+00  0.67149434307E+02  0.67149434307E+02  0.00000000000E+00 0. -1.
         21   -1    0    0  501  502 -0.00000000000E+00 -0.00000000000E+00 -0.75909676758E+03  0.75909676758E+03  0.00000000000E+00 0. -1.
      99926    2    1    2    0    0  0.35527136788E-14  0.00000000000E+00 -0.69194733328E+03  0.82624620189E+03  0.45154365692E+03 0.  0.
      99925    2    3    3    0    0  0.29674073121E+02  0.33671876445E+02 -0.62034383469E+03  0.67528622379E+03  0.26300316523E+03 0.  0.
         25    1    4    4    0    0 -0.11913111216E+02 -0.13026659521E+02 -0.31759105848E+03  0.34179409680E+03  0.12509000000E+03 0.  0.
         25    1    3    3    0    0 -0.29674073121E+02 -0.33671876445E+02 -0.71603498583E+02  0.15095997810E+03  0.12509000000E+03 0.  0.
         25    1    4    4    0    0  0.41587184337E+02  0.46698535966E+02 -0.30275277621E+03  0.33349212699E+03  0.12509000000E+03 0.  0.
<mgrwt>
<rscale>  2 0.45154366E+03</rscale>
<asrwt>0</asrwt>
<pdfrwt beam="1">  1       21 0.98749176E-02 0.45154366E+03</pdfrwt>
<pdfrwt beam="2">  1       21 0.11163187E+00 0.45154366E+03</pdfrwt>
<totfact> 0.47804687E+04</totfact>
</mgrwt>
</event>
<event>
 7    0  0.4714446E-002  0.4602297E+03  0.7546771E-02  0.1024715E+00
         21   -1    0    0  502  501  0.00000000000E+00  0.00000000000E+00  0.48556693277E+03  0.48556693277E+03  0.00000000000E+00 0.  1.
         21   -1    0    0  501  502 -0.00000000000E+00 -0.00000000000E+00 -0.10905365885E+03  0.10905365885E+03  0.00000000000E+00 0.  1.
      99926    2    1    2    0    0  0.00000000000E+00  0.00000000000E+00  0.37651327391E+03  0.59462059162E+03  0.46022972801E+03 0.  0.
      99925    2    3    3    0    0 -0.85893329682E+02 -0.17258091540E+02  0.13369100712E+03  0.30776580752E+03  0.26300380432E+03 0.  0.
         25    1    3    3    0    0  0.85893329682E+02  0.17258091540E+02  0.24282226680E+03  0.28685478410E+03  0.12509000000E+03 0.  0.
         25    1    4    4    0    0 -0.38713272877E+02 -0.43022541870E+02  0.90668147869E+02  0.16497841599E+03  0.12509000000E+03 0.  0.
         25    1    4    4    0    0 -0.47180056805E+02  0.25764450330E+02  0.43022859249E+02  0.14278739153E+03  0.12509000000E+03 0.  0.
<mgrwt>
<rscale>  2 0.46022973E+03</rscale>
<asrwt>0</asrwt>
<pdfrwt beam="1">  1       21 0.71406901E-01 0.46022973E+03</pdfrwt>
<pdfrwt beam="2">  1       21 0.16037303E-01 0.46022973E+03</pdfrwt>
<totfact> 0.56633473E+04</totfact>
</mgrwt>
</event>
<event>
 7    0  0.4714446E-002  0.4529821E+03  0.7546771E-02  0.1026836E+00
         21   -1    0    0  502  501  0.00000000000E+00  0.00000000000E+00  0.15530857450E+03  0.15530857450E+03  0.00000000000E+00 0.  1.
         21   -1    0    0  501  502 -0.00000000000E+00 -0.00000000000E+00 -0.33029849764E+03  0.33029849764E+03  0.00000000000E+00 0.  1.
      99926    2    1    2    0    0  0.00000000000E+00  0.00000000000E+00 -0.17498992314E+03  0.48560707214E+03  0.45298206953E+03 0.  0.
      99925    2    3    3    0    0 -0.22804237262E+02  0.69401271731E+02 -0.20028519617E+03  0.33855630304E+03  0.26300121820E+03 0.  0.
         25    1    3    3    0    0  0.22804237262E+02 -0.69401271731E+02  0.25295273029E+02  0.14705076910E+03  0.12509000000E+03 0.  0.
         25    1    4    4    0    0  0.23164963683E+02  0.49234347699E+02 -0.81542377071E+02  0.15892546647E+03  0.12509000000E+03 0.  0.
         25    1    4    4    0    0 -0.45969200945E+02  0.20166924032E+02 -0.11874281909E+03  0.17963083657E+03  0.12509000000E+03 0.  0.
<mgrwt>
<rscale>  2 0.45298207E+03</rscale>
<asrwt>0</asrwt>
<pdfrwt beam="1">  1       21 0.22839496E-01 0.45298207E+03</pdfrwt>
<pdfrwt beam="2">  1       21 0.48573308E-01 0.45298207E+03</pdfrwt>
<totfact> 0.67366887E+04</totfact>
</mgrwt>
</event>
<event>
 7    0  0.4714446E-002  0.4495107E+03  0.7546771E-02  0.1027868E+00
         21   -1    0    0  502  501  0.00000000000E+00  0.00000000000E+00  0.83503028697E+02  0.83503028697E+02  0.00000000000E+00 0. -1.
         21   -1    0    0  501  502 -0.00000000000E+00 -0.00000000000E+00 -0.60494773726E+03  0.60494773726E+03  0.00000000000E+00 0. -1.
      99926    2    1    2    0    0  0.00000000000E+00 -0.17763568394E-14 -0.52144470857E+03  0.68845076596E+03  0.44951070406E+03 0.  0.
      99925    2    3    3    0    0 -0.42278221114E+02  0.14710104968E+02 -0.48020748357E+03  0.54933983183E+03  0.26300416041E+03 0.  0.
         25    1    4    4    0    0 -0.14898290545E+02  0.44799263898E+02 -0.27155245784E+03  0.30268329747E+03  0.12509000000E+03 0.  0.
         25    1    4    4    0    0 -0.27379930570E+02 -0.30089158929E+02 -0.20865502573E+03  0.24665653436E+03  0.12509000000E+03 0.  0.
         25    1    3    3    0    0  0.42278221114E+02 -0.14710104968E+02 -0.41237224999E+02  0.13911093413E+03  0.12509000000E+03 0.  0.
<mgrwt>
<rscale>  2 0.44951070E+03</rscale>
<asrwt>0</asrwt>
<pdfrwt beam="1">  1       21 0.12279857E-01 0.44951070E+03</pdfrwt>
<pdfrwt beam="2">  1       21 0.88962902E-01 0.44951070E+03</pdfrwt>
<totfact> 0.55911852E+04</totfact>
</mgrwt>
</event>
<event>
 7    0  0.4714446E-002  0.4511461E+03  0.7546771E-02  0.1027381E+00
         21   -1    0    0  502  501  0.00000000000E+00  0.00000000000E+00  0.18141767477E+03  0.18141767477E+03  0.00000000000E+00 0.  1.
         21   -1    0    0  501  502 -0.00000000000E+00 -0.00000000000E+00 -0.28047537878E+03  0.28047537878E+03  0.00000000000E+00 0.  1.
      99926    2    1    2    0    0  0.00000000000E+00  0.00000000000E+00 -0.99057704007E+02  0.46189305355E+03  0.45114605639E+03 0.  0.
      99925    2    3    3    0    0 -0.93279548596E+01  0.10855548175E+03 -0.72955832967E+02  0.29396414260E+03  0.26309895517E+03 0.  0.
         25    1    4    4    0    0 -0.44860645351E+01  0.11362395691E+02 -0.22833716719E+02  0.12774237954E+03  0.12509000000E+03 0.  0.
         25    1    3    3    0    0  0.93279548596E+01 -0.10855548175E+03 -0.26101871040E+02  0.16792891094E+03  0.12509000000E+03 0.  0.
         25    1    4    4    0    0 -0.48418903245E+01  0.97193086056E+02 -0.50122116248E+02  0.16622176306E+03  0.12509000000E+03 0.  0.
<mgrwt>
<rscale>  2 0.45114606E+03</rscale>
<asrwt>0</asrwt>
<pdfrwt beam="1">  1       21 0.26679070E-01 0.45114606E+03</pdfrwt>
<pdfrwt beam="2">  1       21 0.41246379E-01 0.45114606E+03</pdfrwt>
<totfact> 0.70164418E+04</totfact>
</mgrwt>
</event>
<event>
 7    0  0.4714446E-002  0.4540438E+03  0.7546771E-02  0.1026523E+00
         21   -1    0    0  502  501  0.00000000000E+00  0.00000000000E+00  0.68310752339E+03  0.68310752339E+03  0.00000000000E+00 0. -1.
         21   -1    0    0  501  502 -0.00000000000E+00 -0.00000000000E+00 -0.75447773209E+02  0.75447773209E+02  0.00000000000E+00 0. -1.
      99926    2    1    2    0    0 -0.14210854715E-13 -0.17763568394E-14  0.60765975018E+03  0.75855529660E+03  0.45404379305E+03 0.  0.
      99925    2    3    3    0    0  0.11074685804E+03  0.10196676192E+02  0.40861900625E+03  0.49849075727E+03  0.26297281998E+03 0.  0.
         25    1    4    4    0    0  0.94965579940E+02 -0.11961830147E+02  0.22587147801E+03  0.27536699045E+03  0.12509000000E+03 0.  0.
         25    1    4    4    0    0  0.15781278096E+02  0.22158506339E+02  0.18274752824E+03  0.22312376682E+03  0.12509000000E+03 0.  0.
         25    1    3    3    0    0 -0.11074685804E+03 -0.10196676192E+02  0.19904074393E+03  0.26006453933E+03  0.12509000000E+03 0.  0.
<mgrwt>
<rscale>  2 0.45404379E+03</rscale>
<asrwt>0</asrwt>
<pdfrwt beam="1">  1       21 0.10045699E+00 0.45404379E+03</pdfrwt>
<pdfrwt beam="2">  1       21 0.11095261E-01 0.45404379E+03</pdfrwt>
<totfact> 0.50210116E+04</totfact>
</mgrwt>
</event>
<event>
 7    0  0.4714446E-002  0.4500759E+03  0.7546771E-02  0.1027699E+00
         21   -1    0    0  502  501  0.00000000000E+00  0.00000000000E+00  0.53662412003E+03  0.53662412003E+03  0.00000000000E+00 0.  1.
         21   -1    0    0  501  502 -0.00000000000E+00 -0.00000000000E+00 -0.94371600522E+02  0.94371600522E+02  0.00000000000E+00 0.  1.
      99926    2    1    2    0    0  0.71054273576E-14  0.14210854715E-13  0.44225251951E+03  0.63099572055E+03  0.45007589176E+03 0.  0.
      99925    2    3    3    0    0 -0.62465138190E+02 -0.88540531789E+02  0.28422013028E+03  0.40216595107E+03  0.26308753388E+03 0.  0.
         25    1    3    3    0    0  0.62465138190E+02  0.88540531789E+02  0.15803238923E+03  0.22882976949E+03  0.12509000000E+03 0.  0.
         25    1    4    4    0    0 -0.17451725190E+00 -0.70553098121E+02  0.14113987820E+03  0.20135973636E+03  0.12509000000E+03 0.  0.
         25    1    4    4    0    0 -0.62290620938E+02 -0.17987433669E+02  0.14308025208E+03  0.20080621470E+03  0.12509000000E+03 0.  0.
<mgrwt>
<rscale>  2 0.45007589E+03</rscale>
<asrwt>0</asrwt>
<pdfrwt beam="1">  1       21 0.78915310E-01 0.45007589E+03</pdfrwt>
<pdfrwt beam="2">  1       21 0.13878177E-01 0.45007589E+03</pdfrwt>
<totfact> 0.59072637E+04</totfact>
</mgrwt>
</event>
<event>
 7    0  0.4714446E-002  0.4482273E+03  0.7546771E-02  0.1028252E+00
         21   -1    0    0  502  501  0.00000000000E+00  0.00000000000E+00  0.41688442148E+03  0.41688442148E+03  0.00000000000E+00 0. -1.
         21   -1    0    0  501  502 -0.00000000000E+00 -0.00000000000E+00 -0.12048164098E+03  0.12048164098E+03  0.00000000000E+00 0. -1.
      99926    2    1    2    0    0  0.26645352591E-14  0.00000000000E+00  0.29640278051E+03  0.53736606246E+03  0.44822726021E+03 0.  0.
      99925    2    3    3    0    0 -0.50767456977E+01 -0.35281550807E+02  0.30829257243E+03  0.40675428495E+03  0.26293378811E+03 0.  0.
         25    1    3    3    0    0  0.50767456977E+01  0.35281550807E+02 -0.11889791927E+02  0.13061177752E+03  0.12509000000E+03 0.  0.
         25    1    4    4    0    0  0.22658862403E+02  0.86354808841E+01  0.17722630029E+03  0.21827657957E+03  0.12509000000E+03 0.  0.
         25    1    4    4    0    0 -0.27735608101E+02 -0.43917031691E+02  0.13106627214E+03  0.18847770537E+03  0.12509000000E+03 0.  0.
<mgrwt>
<rscale>  2 0.44822726E+03</rscale>
<asrwt>0</asrwt>
<pdfrwt beam="1">  1       21 0.61306532E-01 0.44822726E+03</pdfrwt>
<pdfrwt beam="2">  1       21 0.17717889E-01 0.44822726E+03</pdfrwt>
<totfact> 0.66186169E+04</totfact>
</mgrwt>
</event>
<event>
 7    0  0.4714446E-002  0.4557886E+03  0.7546771E-02  0.1026010E+00
         21   -1    0    0  502  501  0.00000000000E+00  0.00000000000E+00  0.23704959359E+03  0.23704959359E+03  0.00000000000E+00 0.  1.
         21   -1    0    0  501  502 -0.00000000000E+00 -0.00000000000E+00 -0.21909262236E+03  0.21909262236E+03  0.00000000000E+00 0.  1.
      99926    2    1    2    0    0  0.00000000000E+00  0.00000000000E+00  0.17956971229E+02  0.45614221595E+03  0.45578862245E+03 0.  0.
      99925    2    3    3    0    0  0.51726126004E+02  0.92300998539E+02 -0.31030622454E+02  0.28513824267E+03  0.26295598769E+03 0.  0.
         25    1    3    3    0    0 -0.51726126004E+02 -0.92300998539E+02  0.48987593682E+02  0.17100397328E+03  0.12509000000E+03 0.  0.
         25    1    4    4    0    0  0.40036332989E+02  0.22073512342E+02  0.15003058443E+02  0.13402517588E+03  0.12509000000E+03 0.  0.
         25    1    4    4    0    0  0.11689793015E+02  0.70227486198E+02 -0.46033680896E+02  0.15111306679E+03  0.12509000000E+03 0.  0.
<mgrwt>
<rscale>  2 0.45578862E+03</rscale>
<asrwt>0</asrwt>
<pdfrwt beam="1">  1       21 0.34860234E-01 0.45578862E+03</pdfrwt>
<pdfrwt beam="2">  1       21 0.32219503E-01 0.45578862E+03</pdfrwt>
<totfact> 0.68033118E+04</totfact>
</mgrwt>
</event>
<event>
 7    0  0.4714446E-002  0.4507597E+03  0.7546771E-02  0.1027496E+00
         21   -1    0    0  502  501  0.00000000000E+00  0.00000000000E+00  0.10407389086E+03  0.10407389086E+03  0.00000000000E+00 0. -1.
         21   -1    0    0  501  502 -0.00000000000E+00 -0.00000000000E+00 -0.48807704890E+03  0.48807704890E+03  0.00000000000E+00 0. -1.
      99926    2    1    2    0    0  0.00000000000E+00  0.00000000000E+00 -0.38400315804E+03  0.59215093977E+03  0.45075970325E+03 0.  0.
      99925    2    3    3    0    0  0.60192562124E+02 -0.82093849194E+02 -0.19116942871E+03  0.34076498177E+03  0.26308264427E+03 0.  0.
         25    1    3    3    0    0 -0.60192562124E+02  0.82093849194E+02 -0.19283372933E+03  0.25138595800E+03  0.12509000000E+03 0.  0.
         25    1    4    4    0    0 -0.87891465964E+01 -0.47940031796E+02 -0.10538802702E+03  0.17067407561E+03  0.12509000000E+03 0.  0.
         25    1    4    4    0    0  0.68981708720E+02 -0.34153817398E+02 -0.85781401697E+02  0.17009090616E+03  0.12509000000E+03 0.  0.
<mgrwt>
<rscale>  2 0.45075970E+03</rscale>
<asrwt>0</asrwt>
<pdfrwt beam="1">  1       21 0.15304984E-01 0.45075970E+03</pdfrwt>
<pdfrwt beam="2">  1       21 0.71776036E-01 0.45075970E+03</pdfrwt>
<totfact> 0.61188858E+04</totfact>
</mgrwt>
</event>
<event>
 7    0  0.4714446E-002  0.4555264E+03  0.7546771E-02  0.1026087E+00
         21   -1    0    0  502  501  0.00000000000E+00  0.00000000000E+00  0.27751384532E+03  0.27751384532E+03  0.00000000000E+00 0.  1.
         21   -1    0    0  501  502 -0.00000000000E+00 -0.00000000000E+00 -0.18693149470E+03  0.18693149470E+03  0.00000000000E+00 0.  1.
      99926    2    1    2    0    0  0.00000000000E+00  0.14210854715E-13  0.90582350622E+02  0.46444534003E+03  0.45552641156E+03 0.  0.
      99925    2    3    3    0    0 -0.52602152987E+01  0.11044441727E+03  0.31343276641E+02  0.28729451401E+03  0.26330609112E+03 0.  0.
         25    1    4    4    0    0 -0.41954490897E+01  0.90455724741E+02  0.42373161614E+02  0.16013379673E+03  0.12509000000E+03 0.  0.
         25    1    3    3    0    0  0.52602152987E+01 -0.11044441727E+03  0.59239073981E+02  0.17715082602E+03  0.12509000000E+03 0.  0.
         25    1    4    4    0    0 -0.10647662090E+01  0.19988692532E+02 -0.11029884973E+02  0.12716071728E+03  0.12509000000E+03 0.  0.
<mgrwt>
<rscale>  2 0.45552641E+03</rscale>
<asrwt>0</asrwt>
<pdfrwt beam="1">  1       21 0.40810860E-01 0.45552641E+03</pdfrwt>
<pdfrwt beam="2">  1       21 0.27489926E-01 0.45552641E+03</pdfrwt>
<totfact> 0.67568235E+04</totfact>
</mgrwt>
</event>
<event>
 7    0  0.4714446E-002  0.4473243E+03  0.7546771E-02  0.1028523E+00
         21   -1    0    0  502  501  0.00000000000E+00  0.00000000000E+00  0.69962096800E+02  0.69962096800E+02  0.00000000000E+00 0. -1.
         21   -1    0    0  501  502 -0.00000000000E+00 -0.00000000000E+00 -0.71502659540E+03  0.71502659540E+03  0.00000000000E+00 0. -1.
      99926    2    1    2    0    0  0.17763568394E-14  0.00000000000E+00 -0.64506449860E+03  0.78498869220E+03  0.44732431135E+03 0.  0.
      99925    2    3    3    0    0  0.14581333330E+02 -0.80596572406E+02 -0.29122434092E+03  0.40085487690E+03  0.26299162121E+03 0.  0.
         25    1    4    4    0    0  0.47467449625E+02 -0.47034206017E+02 -0.15131361873E+03  0.20738537707E+03  0.12509000000E+03 0.  0.
         25    1    3    3    0    0 -0.14581333330E+02  0.80596572406E+02 -0.35384015768E+03  0.38413381529E+03  0.12509000000E+03 0.  0.
         25    1    4    4    0    0 -0.32886116295E+02 -0.33562366389E+02 -0.13991072219E+03  0.19346949983E+03  0.12509000000E+03 0.  0.
<mgrwt>
<rscale>  2 0.44732431E+03</rscale>
<asrwt>0</asrwt>
<pdfrwt beam="1">  1       21 0.10288543E-01 0.44732431E+03</pdfrwt>
<pdfrwt beam="2">  1       21 0.10515097E+00 0.44732431E+03</pdfrwt>
<totfact> 0.51534805E+04</totfact>
</mgrwt>
</event>
<event>
 7    0  0.4714446E-002  0.4531061E+03  0.7546771E-02  0.1026800E+00
         21   -1    0    0  502  501  0.00000000000E+00  0.00000000000E+00  0.16628435075E+03  0.16628435075E+03  0.00000000000E+00 0.  1.
         21   -1    0    0  501  502 -0.00000000000E+00 -0.00000000000E+00 -0.30866581192E+03  0.30866581192E+03  0.00000000000E+00 0.  1.
      99926    2    1    2    0    0  0.00000000000E+00  0.00000000000E+00 -0.14238146116E+03  0.47495016267E+03  0.45310614268E+03 0.  0.
      99925    2    3    3    0    0  0.17551465886E+02 -0.10399192193E+03 -0.12697793508E+03  0.31061163859E+03  0.26312320356E+03 0.  0.
         25    1    4    4    0    0  0.43038803445E+02 -0.59951175612E+02 -0.42525483651E+02  0.15133541198E+03  0.12509000000E+03 0.  0.
         25    1    4    4    0    0 -0.25487337559E+02 -0.44040746313E+02 -0.84452451427E+02  0.15927622661E+03  0.12509000000E+03 0.  0.
         25    1    3    3    0    0 -0.17551465886E+02  0.10399192193E+03 -0.15403526083E+02  0.16433852408E+03  0.12509000000E+03 0.  0.
<mgrwt>
<rscale>  2 0.45310614E+03</rscale>
<asrwt>0</asrwt>
<pdfrwt beam="1">  1       21 0.24453581E-01 0.45310614E+03</pdfrwt>
<pdfrwt beam="2">  1       21 0.45392031E-01 0.45310614E+03</pdfrwt>
<totfact> 0.68087183E+04</totfact>
</mgrwt>
</event>
<event>
 7    0  0.4714446E-002  0.4569595E+03  0.7546771E-02  0.1025667E+00
         21   -1    0    0  502  501  0.00000000000E+00  0.00000000000E+00  0.28494135199E+03  0.28494135199E+03  0.00000000000E+00 0. -1.
         21   -1    0    0  501  502 -0.00000000000E+00 -0.00000000000E+00 -0.18320609853E+03  0.18320609853E+03  0.00000000000E+00 0. -1.
      99926    2    1    2    0    0  0.00000000000E+00  0.14210854715E-13  0.10173525346E+03  0.46814745052E+03  0.45695948796E+03 0.  0.
      99925    2    3    3    0    0 -0.14750731163E+02  0.10878569478E+03  0.29400265103E+02  0.28667632307E+03  0.26318629744E+03 0.  0.
         25    1    4    4    0    0 -0.21624688823E+02  0.84472660074E+02  0.42756511375E+02  0.15836314228E+03  0.12509000000E+03 0.  0.
         25    1    3    3    0    0  0.14750731163E+02 -0.10878569478E+03  0.72334988360E+02  0.18147112746E+03  0.12509000000E+03 0.  0.
         25    1    4    4    0    0  0.68739576601E+01  0.24313034709E+02 -0.13356246272E+02  0.12831318079E+03  0.12509000000E+03 0.  0.
<mgrwt>
<rscale>  2 0.45695949E+03</rscale>
<asrwt>0</asrwt>
<pdfrwt beam="1">  1       21 0.41903140E-01 0.45695949E+03</pdfrwt>
<pdfrwt beam="2">  1       21 0.26942073E-01 0.45695949E+03</pdfrwt>
<totfact> 0.66533953E+04</totfact>
</mgrwt>
</event>
<event>
 7    0  0.4714446E-002  0.4568926E+03  0.7546771E-02  0.1025686E+00
         21   -1    0    0  502  501  0.00000000000E+00  0.00000000000E+00  0.22848719275E+02  0.22848719275E+02  0.00000000000E+00 0.  1.
         21   -1    0    0  501  502 -0.00000000000E+00 -0.00000000000E+00 -0.22840541442E+04  0.22840541442E+04  0.00000000000E+00 0.  1.
      99926    2    1    2    0    0  0.00000000000E+00  0.14210854715E-13 -0.22612054249E+04  0.23069028635E+04  0.45689259986E+03 0.  0.
      99925    2    3    3    0    0 -0.23621690143E+02 -0.81068689987E+02 -0.18138846875E+04  0.18348080986E+04  0.26308360384E+03 0.  0.
         25    1    4    4    0    0 -0.50254800034E+02 -0.27356170066E+02 -0.91717810477E+03  0.92743576001E+03  0.12509000000E+03 0.  0.
         25    1    4    4    0    0  0.26633109891E+02 -0.53712519921E+02 -0.89670658268E+03  0.90737233861E+03  0.12509000000E+03 0.  0.
         25    1    3    3    0    0  0.23621690143E+02  0.81068689987E+02 -0.44732073748E+03  0.47209476488E+03  0.12509000000E+03 0.  0.
<mgrwt>
<rscale>  2 0.45689260E+03</rscale>
<asrwt>0</asrwt>
<pdfrwt beam="1">  1       21 0.33601093E-02 0.45689260E+03</pdfrwt>
<pdfrwt beam="2">  1       21 0.33588997E+00 0.45689260E+03</pdfrwt>
<totfact> 0.91793547E+03</totfact>
</mgrwt>
</event>
<event>
 7    0  0.4714446E-002  0.4591681E+03  0.7546771E-02  0.1025023E+00
         21   -1    0    0  502  501  0.00000000000E+00  0.00000000000E+00  0.31167910976E+04  0.31167910976E+04  0.00000000000E+00 0.  1.
         21   -1    0    0  501  502 -0.00000000000E+00 -0.00000000000E+00 -0.16911254499E+02  0.16911254499E+02  0.00000000000E+00 0.  1.
      99926    2    1    2    0    0  0.17763568394E-14  0.00000000000E+00  0.30998798431E+04  0.31337023521E+04  0.45916814991E+03 0.  0.
      99925    2    3    3    0    0 -0.12511222265E+02 -0.96116039206E+02  0.23909077415E+04  0.24072838965E+04  0.26302301486E+03 0.  0.
         25    1    4    4    0    0  0.53928751766E+01 -0.78233210152E+02  0.15061746472E+04  0.15133932385E+04  0.12509000000E+03 0.  0.
         25    1    4    4    0    0 -0.17904097441E+02 -0.17882829054E+02  0.88473309426E+03  0.89389065800E+03  0.12509000000E+03 0.  0.
         25    1    3    3    0    0  0.12511222265E+02  0.96116039206E+02  0.70897210160E+03  0.72641845559E+03  0.12509000000E+03 0.  0.
<mgrwt>
<rscale>  2 0.45916815E+03</rscale>
<asrwt>0</asrwt>
<pdfrwt beam="1">  1       21 0.45835123E+00 0.45916815E+03</pdfrwt>
<pdfrwt beam="2">  1       21 0.24869514E-02 0.45916815E+03</pdfrwt>
<totfact> 0.24879076E+03</totfact>
</mgrwt>
</event>
<event>
 7    0  0.4714446E-002  0.4497705E+03  0.7546771E-02  0.1027790E+00
         21   -1    0    0  502  501  0.00000000000E+00  0.00000000000E+00  0.94826011552E+02  0.94826011552E+02  0.00000000000E+00 0.  1.
         21   -1    0    0  501  502 -0.00000000000E+00 -0.00000000000E+00 -0.53332815088E+03  0.53332815088E+03  0.00000000000E+00 0.  1.
      99926    2    1    2    0    0  0.00000000000E+00  0.00000000000E+00 -0.43850213933E+03  0.62815416243E+03  0.44977052547E+03 0.  0.
      99925    2    3    3    0    0 -0.48808976107E+02  0.66521220854E+02 -0.17950894504E+03  0.32893455786E+03  0.26299637456E+03 0.  0.
         25    1    4    4    0    0 -0.93146025689E+01  0.42658168090E+02 -0.13298652964E+03  0.18772161914E+03  0.12509000000E+03 0.  0.
         25    1    3    3    0    0  0.48808976107E+02 -0.66521220854E+02 -0.25899319429E+03  0.29921960457E+03  0.12509000000E+03 0.  0.
         25    1    4    4    0    0 -0.39494373538E+02  0.23863052765E+02 -0.46522415402E+02  0.14121293872E+03  0.12509000000E+03 0.  0.
<mgrwt>
<rscale>  2 0.44977053E+03</rscale>
<asrwt>0</asrwt>
<pdfrwt beam="1">  1       21 0.13945002E-01 0.44977053E+03</pdfrwt>
<pdfrwt beam="2">  1       21 0.78430608E-01 0.44977053E+03</pdfrwt>
<totfact> 0.59392074E+04</totfact>
</mgrwt>
</event>
<event>
 7    0  0.4714446E-002  0.4546198E+03  0.7546771E-02  0.1026353E+00
         21   -1    0    0  502  501  0.00000000000E+00  0.00000000000E+00  0.71546005307E+02  0.71546005307E+02  0.00000000000E+00 0.  1.
         21   -1    0    0  501  502 -0.00000000000E+00 -0.00000000000E+00 -0.72218966564E+03  0.72218966564E+03  0.00000000000E+00 0.  1.
      99926    2    1    2    0    0  0.00000000000E+00  0.00000000000E+00 -0.65064366033E+03  0.79373567094E+03  0.45461977806E+03 0.  0.
      99925    2    3    3    0    0  0.68401067652E+02 -0.69818479522E+02 -0.50778982845E+03  0.58017525439E+03  0.26305795898E+03 0.  0.
         25    1    3    3    0    0 -0.68401067652E+02  0.69818479522E+02 -0.14285383188E+03  0.21356041656E+03  0.12509000000E+03 0.  0.
         25    1    4    4    0    0  0.50894163929E+02  0.16855271022E+01 -0.22878688572E+03  0.26567650273E+03  0.12509000000E+03 0.  0.
         25    1    4    4    0    0  0.17506903722E+02 -0.71504006624E+02 -0.27900294273E+03  0.31449875166E+03  0.12509000000E+03 0.  0.
<mgrwt>
<rscale>  2 0.45461978E+03</rscale>
<asrwt>0</asrwt>
<pdfrwt beam="1">  1       21 0.10521471E-01 0.45461978E+03</pdfrwt>
<pdfrwt beam="2">  1       21 0.10620437E+00 0.45461978E+03</pdfrwt>
<totfact> 0.48213017E+04</totfact>
</mgrwt>
</event>
<event>
 7    0  0.4714446E-002  0.4536602E+03  0.7546771E-02  0.1026636E+00
         21   -1    0    0  502  501  0.00000000000E+00  0.00000000000E+00  0.21234699299E+03  0.21234699299E+03  0.00000000000E+00 0. -1.
         21   -1    0    0  501  502 -0.00000000000E+00 -0.00000000000E+00 -0.24230106212E+03  0.24230106212E+03  0.00000000000E+00 0. -1.
      99926    2    1    2    0    0 -0.88817841970E-15  0.00000000000E+00 -0.29954069130E+02  0.45464805510E+03  0.45366023382E+03 0.  0.
      99925    2    3    3    0    0 -0.33963965142E+01 -0.11086252863E+03 -0.31236305803E+02  0.28746196718E+03  0.26335648846E+03 0.  0.
         25    1    4    4    0    0  0.27942729265E+02 -0.24549352608E+02 -0.17678636150E+02  0.13169475733E+03  0.12509000000E+03 0.  0.
         25    1    3    3    0    0  0.33963965142E+01  0.11086252863E+03  0.12822366730E+01  0.16718608792E+03  0.12509000000E+03 0.  0.
         25    1    4    4    0    0 -0.31339125779E+02 -0.86313176017E+02 -0.13557669652E+02  0.15576720985E+03  0.12509000000E+03 0.  0.
<mgrwt>
<rscale>  2 0.45366023E+03</rscale>
<asrwt>0</asrwt>
<pdfrwt beam="1">  1       21 0.31227499E-01 0.45366023E+03</pdfrwt>
<pdfrwt beam="2">  1       21 0.35632509E-01 0.45366023E+03</pdfrwt>
<totfact> 0.69309560E+04</totfact>
</mgrwt>
</event>
<event>
 7    0  0.4714446E-002  0.4541540E+03  0.7546771E-02  0.1026490E+00
         21   -1    0    0  502  501  0.00000000000E+00  0.00000000000E+00  0.20166773642E+03  0.20166773642E+03  0.00000000000E+00 0. -1.
         21   -1    0    0  501  502 -0.00000000000E+00 -0.00000000000E+00 -0.25568772668E+03  0.25568772668E+03  0.00000000000E+00 0. -1.
      99926    2    1    2    0    0  0.00000000000E+00 -0.14210854715E-13 -0.54019990256E+02  0.45735546310E+03  0.45415400502E+03 0.  0.
      99925    2    3    3    0    0  0.39164839752E+02 -0.98607268777E+02 -0.71040633467E+02  0.29244794804E+03  0.26310027096E+03 0.  0.
         25    1    4    4    0    0  0.55760098802E+02 -0.36818332151E+02 -0.50029849950E+02  0.15038374974E+03  0.12509000000E+03 0.  0.
         25    1    3    3    0    0 -0.39164839752E+02  0.98607268777E+02  0.17020643212E+02  0.16490751506E+03  0.12509000000E+03 0.  0.
         25    1    4    4    0    0 -0.16595259050E+02 -0.61788936626E+02 -0.21010783517E+02  0.14206419829E+03  0.12509000000E+03 0.  0.
<mgrwt>
<rscale>  2 0.45415401E+03</rscale>
<asrwt>0</asrwt>
<pdfrwt beam="1">  1       21 0.29657020E-01 0.45415401E+03</pdfrwt>
<pdfrwt beam="2">  1       21 0.37601136E-01 0.45415401E+03</pdfrwt>
<totfact> 0.68836921E+04</totfact>
</mgrwt>
</event>
<event>
 7    0  0.4714446E-002  0.4459515E+03  0.7546771E-02  0.1028936E+00
         21   -1    0    0  502  501  0.00000000000E+00  0.00000000000E+00  0.20458439768E+03  0.20458439768E+03  0.00000000000E+00 0.  1.
         21   -1    0    0  501  502 -0.00000000000E+00 -0.00000000000E+00 -0.24302042878E+03  0.24302042878E+03  0.00000000000E+00 0.  1.
      99926    2    1    2    0    0  0.00000000000E+00 -0.71054273576E-14 -0.38436031108E+02  0.44760482646E+03  0.44595151326E+03 0.  0.
      99925    2    3    3    0    0  0.14353110684E+02  0.60411836598E+02  0.59929894089E+02  0.27678631128E+03  0.26298948291E+03 0.  0.
         25    1    4    4    0    0 -0.13704639081E+02 -0.56633267055E+01  0.30003536421E+02  0.12948980925E+03  0.12509000000E+03 0.  0.
         25    1    4    4    0    0  0.28057749765E+02  0.66075163304E+02  0.29926357668E+02  0.14729650203E+03  0.12509000000E+03 0.  0.
         25    1    3    3    0    0 -0.14353110684E+02 -0.60411836598E+02 -0.98365925197E+02  0.17081851518E+03  0.12509000000E+03 0.  0.
<mgrwt>
<rscale>  2 0.44595151E+03</rscale>
<asrwt>0</asrwt>
<pdfrwt beam="1">  1       21 0.30085941E-01 0.44595151E+03</pdfrwt>
<pdfrwt beam="2">  1       21 0.35738298E-01 0.44595151E+03</pdfrwt>
<totfact> 0.74312833E+04</totfact>
</mgrwt>
</event>
<event>
 7    0  0.4714446E-002  0.4613502E+03  0.7546771E-02  0.1024390E+00
         21   -1    0    0  502  501  0.00000000000E+00  0.00000000000E+00  0.22785252097E+03  0.22785252097E+03  0.00000000000E+00 0.  1.
         21   -1    0    0  501  502 -0.00000000000E+00 -0.00000000000E+00 -0.23353267579E+03  0.23353267579E+03  0.00000000000E+00 0.  1.
      99926    2    1    2    0    0  0.22204460493E-14  0.00000000000E+00 -0.56801548201E+01  0.46138519675E+03  0.46135023098E+03 0.  0.
      99925    2    3    3    0    0 -0.36077896495E+01  0.64573648195E+02  0.96629824755E+02  0.28732310378E+03  0.26274411649E+03 0.  0.
         25    1    4    4    0    0 -0.34803161536E+02  0.52668977321E+02  0.62540193174E+02  0.15344075432E+03  0.12509000000E+03 0.  0.
         25    1    4    4    0    0  0.31195371886E+02  0.11904670873E+02  0.34089631581E+02  0.13388234946E+03  0.12509000000E+03 0.  0.
         25    1    3    3    0    0  0.36077896495E+01 -0.64573648195E+02 -0.10230997958E+03  0.17406209297E+03  0.12509000000E+03 0.  0.
<mgrwt>
<rscale>  2 0.46135023E+03</rscale>
<asrwt>0</asrwt>
<pdfrwt beam="1">  1       21 0.33507724E-01 0.46135023E+03</pdfrwt>
<pdfrwt beam="2">  1       21 0.34343040E-01 0.46135023E+03</pdfrwt>
<totfact> 0.64737678E+04</totfact>
</mgrwt>
</event>
<event>
 7    0  0.4714446E-002  0.4527123E+03  0.7546771E-02  0.1026916E+00
         21   -1    0    0  502  501  0.00000000000E+00  0.00000000000E+00  0.87970299443E+03  0.87970299443E+03  0.00000000000E+00 0.  1.
         21   -1    0    0  501  502 -0.00000000000E+00 -0.00000000000E+00 -0.58243641984E+02  0.58243641984E+02  0.00000000000E+00 0.  1.
      99926    2    1    2    0    0  0.71054273576E-14 -0.35527136788E-14  0.82145935244E+03  0.93794663641E+03  0.45271229831E+03 0.  0.
      99925    2    3    3    0    0  0.35568190127E+02 -0.19923580170E+02  0.73192467929E+03  0.77880515536E+03  0.26298609975E+03 0.  0.
         25    1    3    3    0    0 -0.35568190127E+02  0.19923580170E+02  0.89534673153E+02  0.15914148105E+03  0.12509000000E+03 0.  0.
         25    1    4    4    0    0  0.50856776368E+02 -0.13854674638E+02  0.44793480013E+03  0.46805069915E+03  0.12509000000E+03 0.  0.
         25    1    4    4    0    0 -0.15288586241E+02 -0.60689055318E+01  0.28398987916E+03  0.31075445620E+03  0.12509000000E+03 0.  0.
<mgrwt>
<rscale>  2 0.45271230E+03</rscale>
<asrwt>0</asrwt>
<pdfrwt beam="1">  1       21 0.12936808E+00 0.45271230E+03</pdfrwt>
<pdfrwt beam="2">  1       21 0.85652420E-02 0.45271230E+03</pdfrwt>
<totfact> 0.42386063E+04</totfact>
</mgrwt>
</event>
<event>
 7    0  0.4714446E-002  0.4491675E+03  0.7546771E-02  0.1027971E+00
         21   -1    0    0  502  501  0.00000000000E+00  0.00000000000E+00  0.39851790872E+03  0.39851790872E+03  0.00000000000E+00 0.  1.
         21   -1    0    0  501  502 -0.00000000000E+00 -0.00000000000E+00 -0.12656361501E+03  0.12656361501E+03  0.00000000000E+00 0.  1.
      99926    2    1    2    0    0  0.00000000000E+00 -0.35527136788E-14  0.27195429371E+03  0.52508152373E+03  0.44916752854E+03 0.  0.
      99925    2    3    3    0    0 -0.55425851611E+02  0.15141055714E+02  0.27840801234E+03  0.38727573583E+03  0.26300227685E+03 0.  0.
         25    1    4    4    0    0 -0.25959842951E+02  0.47276734294E+02  0.15308063226E+03  0.20491508272E+03  0.12509000000E+03 0.  0.
         25    1    3    3    0    0  0.55425851611E+02 -0.15141055714E+02 -0.64537186364E+01  0.13780578790E+03  0.12509000000E+03 0.  0.
         25    1    4    4    0    0 -0.29466008660E+02 -0.32135678580E+02  0.12532738008E+03  0.18236065311E+03  0.12509000000E+03 0.  0.
<mgrwt>
<rscale>  2 0.44916753E+03</rscale>
<asrwt>0</asrwt>
<pdfrwt beam="1">  1       21 0.58605575E-01 0.44916753E+03</pdfrwt>
<pdfrwt beam="2">  1       21 0.18612296E-01 0.44916753E+03</pdfrwt>
<totfact> 0.66564552E+04</totfact>
</mgrwt>
</event>
<event>
 7    0  0.4714446E-002  0.4595302E+03  0.7546771E-02  0.1024918E+00
         21   -1    0    0  502  501  0.00000000000E+00  0.00000000000E+00  0.30215365864E+03  0.30215365864E+03  0.00000000000E+00 0.  1.
         21   -1    0    0  501  502 -0.00000000000E+00 -0.00000000000E+00 -0.17471906197E+03  0.17471906197E+03  0.00000000000E+00 0.  1.
      99926    2    1    2    0    0  0.00000000000E+00  0.00000000000E+00  0.12743459668E+03  0.47687272061E+03  0.45953021145E+03 0.  0.
      99925    2    3    3    0    0 -0.91517896673E+02  0.69173926083E+02  0.10663853955E+03  0.30587406110E+03  0.26272914889E+03 0.  0.
         25    1    3    3    0    0  0.91517896673E+02 -0.69173926083E+02  0.20796057123E+02  0.17099865951E+03  0.12509000000E+03 0.  0.
         25    1    4    4    0    0 -0.34115887019E+02 -0.42520993780E+01  0.60912243210E+02  0.14331707354E+03  0.12509000000E+03 0.  0.
         25    1    4    4    0    0 -0.57402009654E+02  0.73426025461E+02  0.45726296343E+02  0.16255698756E+03  0.12509000000E+03 0.  0.
<mgrwt>
<rscale>  2 0.45953021E+03</rscale>
<asrwt>0</asrwt>
<pdfrwt beam="1">  1       21 0.44434362E-01 0.45953021E+03</pdfrwt>
<pdfrwt beam="2">  1       21 0.25693980E-01 0.45953021E+03</pdfrwt>
<totfact> 0.64575613E+04</totfact>
</mgrwt>
</event>
<event>
 7    0  0.4714446E-002  0.4658522E+03  0.7546771E-02  0.1023097E+00
         21   -1    0    0  502  501  0.00000000000E+00  0.00000000000E+00  0.29154822938E+03  0.29154822938E+03  0.00000000000E+00 0.  1.
         21   -1    0    0  501  502 -0.00000000000E+00 -0.00000000000E+00 -0.18609125951E+03  0.18609125951E+03  0.00000000000E+00 0.  1.
      99926    2    1    2    0    0  0.00000000000E+00 -0.14210854715E-13  0.10545696987E+03  0.47763948889E+03  0.46585223929E+03 0.  0.
      99925    2    3    3    0    0  0.54105356037E+02 -0.95852981012E+02  0.12218424629E+03  0.31018055841E+03  0.26299772860E+03 0.  0.
         25    1    3    3    0    0 -0.54105356037E+02  0.95852981012E+02 -0.16727276426E+02  0.16745893048E+03  0.12509000000E+03 0.  0.
         25    1    4    4    0    0  0.30828462442E+02 -0.94017018560E+01  0.37138501453E+02  0.13440819352E+03  0.12509000000E+03 0.  0.
         25    1    4    4    0    0  0.23276893595E+02 -0.86451279156E+02  0.85045744839E+02  0.17577236489E+03  0.12509000000E+03 0.  0.
<mgrwt>
<rscale>  2 0.46585224E+03</rscale>
<asrwt>0</asrwt>
<pdfrwt beam="1">  1       21 0.42874740E-01 0.46585224E+03</pdfrwt>
<pdfrwt beam="2">  1       21 0.27366361E-01 0.46585224E+03</pdfrwt>
<totfact> 0.61411358E+04</totfact>
</mgrwt>
</event>
<event>
 7    0  0.4714446E-002  0.4546329E+03  0.7546771E-02  0.1026349E+00
         21   -1    0    0  502  501  0.00000000000E+00  0.00000000000E+00  0.16421770746E+02  0.16421770746E+02  0.00000000000E+00 0. -1.
         21   -1    0    0  501  502 -0.00000000000E+00 -0.00000000000E+00 -0.31466020924E+04  0.31466020924E+04  0.00000000000E+00 0. -1.
      99926    2    1    2    0    0 -0.71054273576E-14  0.14210854715E-13 -0.31301803216E+04  0.31630238631E+04  0.45463294289E+03 0.  0.
      99925    2    3    3    0    0  0.34074510517E+02 -0.90172324110E+02 -0.23777861145E+04  0.23942347689E+04  0.26306121382E+03 0.  0.
         25    1    3    3    0    0 -0.34074510517E+02  0.90172324110E+02 -0.75239420717E+03  0.76878909422E+03  0.12509000000E+03 0.  0.
         25    1    4    4    0    0  0.40862481848E+02 -0.64129406448E+02 -0.15078161322E+04  0.15149057132E+04  0.12509000000E+03 0.  0.
         25    1    4    4    0    0 -0.67879713313E+01 -0.26042917661E+02 -0.86996998224E+03  0.87932905570E+03  0.12509000000E+03 0.  0.
<mgrwt>
<rscale>  2 0.45463294E+03</rscale>
<asrwt>0</asrwt>
<pdfrwt beam="1">  1       21 0.24149630E-02 0.45463294E+03</pdfrwt>
<pdfrwt beam="2">  1       21 0.46273624E+00 0.45463294E+03</pdfrwt>
<totfact> 0.24446767E+03</totfact>
</mgrwt>
</event>
<event>
 7    0  0.4714446E-002  0.4559513E+03  0.7546771E-02  0.1025962E+00
         21   -1    0    0  502  501  0.00000000000E+00  0.00000000000E+00  0.13827528024E+04  0.13827528024E+04  0.00000000000E+00 0.  1.
         21   -1    0    0  501  502 -0.00000000000E+00 -0.00000000000E+00 -0.37586537520E+02  0.37586537520E+02  0.00000000000E+00 0.  1.
      99926    2    1    2    0    0  0.71054273576E-14  0.00000000000E+00  0.13451662649E+04  0.14203393399E+04  0.45595126971E+03 0.  0.
      99925    2    3    3    0    0 -0.58588497047E+02  0.71930477086E+02  0.63747375873E+03  0.69571336959E+03  0.26275025030E+03 0.  0.
         25    1    3    3    0    0  0.58588497047E+02 -0.71930477086E+02  0.70769250614E+03  0.72462597032E+03  0.12509000000E+03 0.  0.
         25    1    4    4    0    0 -0.53272720076E+02  0.68874238777E+02  0.37895028732E+03  0.40845130901E+03  0.12509000000E+03 0.  0.
         25    1    4    4    0    0 -0.53157769707E+01  0.30562383090E+01  0.25852347141E+03  0.28726206058E+03  0.12509000000E+03 0.  0.
<mgrwt>
<rscale>  2 0.45595127E+03</rscale>
<asrwt>0</asrwt>
<pdfrwt beam="1">  1       21 0.20334597E+00 0.45595127E+03</pdfrwt>
<pdfrwt beam="2">  1       21 0.55274329E-02 0.45595127E+03</pdfrwt>
<totfact> 0.25605227E+04</totfact>
</mgrwt>
</event>
<event>
 7    0  0.4714446E-002  0.4521135E+03  0.7546771E-02  0.1027094E+00
         21   -1    0    0  502  501  0.00000000000E+00  0.00000000000E+00  0.25116232019E+03  0.25116232019E+03  0.00000000000E+00 0.  1.
         21   -1    0    0  501  502 -0.00000000000E+00 -0.00000000000E+00 -0.20346069451E+03  0.20346069451E+03  0.00000000000E+00 0.  1.
      99926    2    1    2    0    0  0.14210854715E-13  0.00000000000E+00  0.47701625678E+02  0.45462301469E+03  0.45211352600E+03 0.  0.
      99925    2    3    3    0    0 -0.94263989642E+02  0.57701470945E+02  0.31092806019E+02  0.28687761093E+03  0.26290082080E+03 0.  0.
         25    1    4    4    0    0 -0.99414111094E+01  0.12645580540E+02 -0.13546432237E+01  0.12612725923E+03  0.12509000000E+03 0.  0.
         25    1    3    3    0    0  0.94263989642E+02 -0.57701470945E+02  0.16608819659E+02  0.16774540376E+03  0.12509000000E+03 0.  0.
         25    1    4    4    0    0 -0.84322578532E+02  0.45055890405E+02  0.32447449243E+02  0.16075035170E+03  0.12509000000E+03 0.  0.
<mgrwt>
<rscale>  2 0.45211353E+03</rscale>
<asrwt>0</asrwt>
<pdfrwt beam="1">  1       21 0.36935636E-01 0.45211353E+03</pdfrwt>
<pdfrwt beam="2">  1       21 0.29920690E-01 0.45211353E+03</pdfrwt>
<totfact> 0.70175645E+04</totfact>
</mgrwt>
</event>
<event>
 7    0  0.4714446E-002  0.4504827E+03  0.7546771E-02  0.1027578E+00
         21   -1    0    0  502  501  0.00000000000E+00  0.00000000000E+00  0.11536444729E+03  0.11536444729E+03  0.00000000000E+00 0.  1.
         21   -1    0    0  501  502 -0.00000000000E+00 -0.00000000000E+00 -0.43976858057E+03  0.43976858057E+03  0.00000000000E+00 0.  1.
      99926    2    1    2    0    0 -0.35527136788E-14  0.00000000000E+00 -0.32440413328E+03  0.55513302786E+03  0.45048267107E+03 0.  0.
      99925    2    3    3    0    0  0.19401455651E+02  0.10619069700E+03 -0.18702018549E+03  0.34024994844E+03  0.26294599640E+03 0.  0.
         25    1    3    3    0    0 -0.19401455651E+02 -0.10619069700E+03 -0.13738394779E+03  0.21488307942E+03  0.12509000000E+03 0.  0.
         25    1    4    4    0    0  0.33607737908E+02  0.47664647373E+02 -0.54705513332E+02  0.14846413690E+03  0.12509000000E+03 0.  0.
         25    1    4    4    0    0 -0.14206282257E+02  0.58526049628E+02 -0.13231467216E+03  0.19178581154E+03  0.12509000000E+03 0.  0.
<mgrwt>
<rscale>  2 0.45048267E+03</rscale>
<asrwt>0</asrwt>
<pdfrwt beam="1">  1       21 0.16965359E-01 0.45048267E+03</pdfrwt>
<pdfrwt beam="2">  1       21 0.64671852E-01 0.45048267E+03</pdfrwt>
<totfact> 0.63777339E+04</totfact>
</mgrwt>
</event>
<event>
 7    0  0.4714446E-002  0.4565672E+03  0.7546771E-02  0.1025782E+00
         21   -1    0    0  502  501  0.00000000000E+00  0.00000000000E+00  0.20472806138E+03  0.20472806138E+03  0.00000000000E+00 0. -1.
         21   -1    0    0  501  502 -0.00000000000E+00 -0.00000000000E+00 -0.25454936848E+03  0.25454936848E+03  0.00000000000E+00 0. -1.
      99926    2    1    2    0    0  0.00000000000E+00  0.00000000000E+00 -0.49821307098E+02  0.45927742986E+03  0.45656718557E+03 0.  0.
      99925    2    3    3    0    0 -0.37582636116E+02  0.10811473161E+03 -0.36761389658E+02  0.28922061796E+03  0.26305116680E+03 0.  0.
         25    1    3    3    0    0  0.37582636116E+02 -0.10811473161E+03 -0.13059917440E+02  0.17005681190E+03  0.12509000000E+03 0.  0.
         25    1    4    4    0    0  0.14417189529E+01  0.70798162528E+02  0.12634449072E+02  0.14429690147E+03  0.12509000000E+03 0.  0.
         25    1    4    4    0    0 -0.39024355069E+02  0.37316569087E+02 -0.49395838730E+02  0.14492371649E+03  0.12509000000E+03 0.  0.
<mgrwt>
<rscale>  2 0.45656719E+03</rscale>
<asrwt>0</asrwt>
<pdfrwt beam="1">  1       21 0.30107068E-01 0.45656719E+03</pdfrwt>
<pdfrwt beam="2">  1       21 0.37433730E-01 0.45656719E+03</pdfrwt>
<totfact> 0.67386970E+04</totfact>
</mgrwt>
</event>
<event>
 7    0  0.4714446E-002  0.4567456E+03  0.7546771E-02  0.1025729E+00
         21   -1    0    0  502  501  0.00000000000E+00  0.00000000000E+00  0.72037398839E+03  0.72037398839E+03  0.00000000000E+00 0. -1.
         21   -1    0    0  501  502 -0.00000000000E+00 -0.00000000000E+00 -0.72398693303E+02  0.72398693303E+02  0.00000000000E+00 0. -1.
      99926    2    1    2    0    0  0.00000000000E+00  0.00000000000E+00  0.64797529508E+03  0.79277268169E+03  0.45674559855E+03 0.  0.
      99925    2    3    3    0    0  0.10598293162E+03  0.42642178495E+02  0.42522536514E+03  0.51292312109E+03  0.26310222310E+03 0.  0.
         25    1    4    4    0    0  0.89584895533E+02  0.25702406528E+02  0.19360631970E+03  0.24863021203E+03  0.12509000000E+03 0.  0.
         25    1    4    4    0    0  0.16398036090E+02  0.16939771967E+02  0.23161904545E+03  0.26429290905E+03  0.12509000000E+03 0.  0.
         25    1    3    3    0    0 -0.10598293162E+03 -0.42642178495E+02  0.22274992994E+03  0.27984956060E+03  0.12509000000E+03 0.  0.
<mgrwt>
<rscale>  2 0.45674560E+03</rscale>
<asrwt>0</asrwt>
<pdfrwt beam="1">  1       21 0.10593735E+00 0.45674560E+03</pdfrwt>
<pdfrwt beam="2">  1       21 0.10646867E-01 0.45674560E+03</pdfrwt>
<totfact> 0.47462803E+04</totfact>
</mgrwt>
</event>
<event>
 7    0  0.4714446E-002  0.4572700E+03  0.7546771E-02  0.1025576E+00
         21   -1    0    0  502  501  0.00000000000E+00  0.00000000000E+00  0.25929647296E+03  0.25929647296E+03  0.00000000000E+00 0. -1.
         21   -1    0    0  501  502 -0.00000000000E+00 -0.00000000000E+00 -0.20159918470E+03  0.20159918470E+03  0.00000000000E+00 0. -1.
      99926    2    1    2    0    0  0.00000000000E+00  0.00000000000E+00  0.57697288266E+02  0.46089565766E+03  0.45726997515E+03 0.  0.
      99925    2    3    3    0    0 -0.35437215744E+02  0.10023078706E+03 -0.89290693863E+01  0.28372741398E+03  0.26290589614E+03 0.  0.
         25    1    4    4    0    0 -0.19122633378E+02  0.12712912918E+02  0.15996069673E+02  0.12818219692E+03  0.12509000000E+03 0.  0.
         25    1    3    3    0    0  0.35437215744E+02 -0.10023078706E+03  0.66626357652E+02  0.17716824368E+03  0.12509000000E+03 0.  0.
         25    1    4    4    0    0 -0.16314582366E+02  0.87517874143E+02 -0.24925139059E+02  0.15554521706E+03  0.12509000000E+03 0.  0.
<mgrwt>
<rscale>  2 0.45726998E+03</rscale>
<asrwt>0</asrwt>
<pdfrwt beam="1">  1       21 0.38131834E-01 0.45726998E+03</pdfrwt>
<pdfrwt beam="2">  1       21 0.29646939E-01 0.45726998E+03</pdfrwt>
<totfact> 0.66896084E+04</totfact>
</mgrwt>
</event>
<event>
 7    0  0.4714446E-002  0.4567126E+03  0.7546771E-02  0.1025739E+00
         21   -1    0    0  502  501  0.00000000000E+00  0.00000000000E+00  0.19904736897E+03  0.19904736897E+03  0.00000000000E+00 0.  1.
         21   -1    0    0  501  502 -0.00000000000E+00 -0.00000000000E+00 -0.26198080733E+03  0.26198080733E+03  0.00000000000E+00 0.  1.
      99926    2    1    2    0    0  0.00000000000E+00  0.00000000000E+00 -0.62933438354E+02  0.46102817630E+03  0.45671255914E+03 0.  0.
      99925    2    3    3    0    0  0.52586512712E+02  0.99934384304E+02 -0.18316435328E+02  0.28669972898E+03  0.26288594544E+03 0.  0.
         25    1    4    4    0    0  0.14406845209E+02  0.34806157595E+02  0.27651668275E+02  0.13353332413E+03  0.12509000000E+03 0.  0.
         25    1    4    4    0    0  0.38179667504E+02  0.65128226709E+02 -0.45968103603E+02  0.15316640485E+03  0.12509000000E+03 0.  0.
         25    1    3    3    0    0 -0.52586512712E+02 -0.99934384304E+02 -0.44617003026E+02  0.17432844732E+03  0.12509000000E+03 0.  0.
<mgrwt>
<rscale>  2 0.45671256E+03</rscale>
<asrwt>0</asrwt>
<pdfrwt beam="1">  1       21 0.29271672E-01 0.45671256E+03</pdfrwt>
<pdfrwt beam="2">  1       21 0.38526589E-01 0.45671256E+03</pdfrwt>
<totfact> 0.67183464E+04</totfact>
</mgrwt>
</event>
<event>
 7    0  0.4714446E-002  0.4487878E+03  0.7546771E-02  0.1028084E+00
         21   -1    0    0  502  501  0.00000000000E+00  0.00000000000E+00  0.15123895632E+03  0.15123895632E+03  0.00000000000E+00 0.  1.
         21   -1    0    0  501  502 -0.00000000000E+00 -0.00000000000E+00 -0.33293425738E+03  0.33293425738E+03  0.00000000000E+00 0.  1.
      99926    2    1    2    0    0  0.00000000000E+00  0.00000000000E+00 -0.18169530107E+03  0.48417321370E+03  0.44878783232E+03 0.  0.
      99925    2    3    3    0    0 -0.83072640706E+02  0.83173296705E+01 -0.18668306758E+03  0.33369853968E+03  0.26369282519E+03 0.  0.
         25    1    4    4    0    0 -0.65408357778E+01 -0.19187984363E+02 -0.74205443147E+02  0.14684998185E+03  0.12509000000E+03 0.  0.
         25    1    3    3    0    0  0.83072640706E+02 -0.83173296705E+01  0.49877665098E+01  0.15047467402E+03  0.12509000000E+03 0.  0.
         25    1    4    4    0    0 -0.76531804929E+02  0.27505314034E+02 -0.11247762443E+03  0.18684855783E+03  0.12509000000E+03 0.  0.
<mgrwt>
<rscale>  2 0.44878783E+03</rscale>
<asrwt>0</asrwt>
<pdfrwt beam="1">  1       21 0.22241023E-01 0.44878783E+03</pdfrwt>
<pdfrwt beam="2">  1       21 0.48960919E-01 0.44878783E+03</pdfrwt>
<totfact> 0.69775629E+04</totfact>
</mgrwt>
</event>
<event>
 7    0  0.4714446E-002  0.4526348E+03  0.7546771E-02  0.1026939E+00
         21   -1    0    0  502  501  0.00000000000E+00  0.00000000000E+00  0.99187381359E+02  0.99187381359E+02  0.00000000000E+00 0.  1.
         21   -1    0    0  501  502 -0.00000000000E+00 -0.00000000000E+00 -0.51639204659E+03  0.51639204659E+03  0.00000000000E+00 0.  1.
      99926    2    1    2    0    0  0.00000000000E+00  0.00000000000E+00 -0.41720466524E+03  0.61557942795E+03  0.45263484115E+03 0.  0.
      99925    2    3    3    0    0 -0.30419836320E+02 -0.47880635988E+02 -0.13340472381E+03  0.30028934470E+03  0.26298088992E+03 0.  0.
         25    1    4    4    0    0 -0.54684202085E+02 -0.19463338342E+02 -0.78341240252E+02  0.15860025700E+03  0.12509000000E+03 0.  0.
         25    1    3    3    0    0  0.30419836320E+02  0.47880635988E+02 -0.28379994142E+03  0.31529008325E+03  0.12509000000E+03 0.  0.
         25    1    4    4    0    0  0.24264365765E+02 -0.28417297646E+02 -0.55063483562E+02  0.14168908770E+03  0.12509000000E+03 0.  0.
<mgrwt>
<rscale>  2 0.45263484E+03</rscale>
<asrwt>0</asrwt>
<pdfrwt beam="1">  1       21 0.14586380E-01 0.45263484E+03</pdfrwt>
<pdfrwt beam="2">  1       21 0.75940004E-01 0.45263484E+03</pdfrwt>
<totfact> 0.58820439E+04</totfact>
</mgrwt>
</event>
<event>
 7    0  0.4714446E-002  0.4556939E+03  0.7546771E-02  0.1026038E+00
         21   -1    0    0  502  501  0.00000000000E+00  0.00000000000E+00  0.12153979543E+04  0.12153979543E+04  0.00000000000E+00 0.  1.
         21   -1    0    0  501  502 -0.00000000000E+00 -0.00000000000E+00 -0.42713768561E+02  0.42713768561E+02  0.00000000000E+00 0.  1.
      99926    2    1    2    0    0 -0.71054273576E-14  0.00000000000E+00  0.11726841858E+04  0.12581117229E+04  0.45569387501E+03 0.  0.
      99925    2    3    3    0    0  0.62167047322E+02  0.21809138125E+02  0.48153513824E+03  0.55265095554E+03  0.26307149031E+03 0.  0.
         25    1    3    3    0    0 -0.62167047322E+02 -0.21809138125E+02  0.69114904752E+03  0.70546076734E+03  0.12509000000E+03 0.  0.
         25    1    4    4    0    0  0.71857518115E+02  0.53450743153E+01  0.26944561004E+03  0.30568041743E+03  0.12509000000E+03 0.  0.
         25    1    4    4    0    0 -0.96904707926E+01  0.16464063809E+02  0.21208952820E+03  0.24697053811E+03  0.12509000000E+03 0.  0.
<mgrwt>
<rscale>  2 0.45569388E+03</rscale>
<asrwt>0</asrwt>
<pdfrwt beam="1">  1       21 0.17873497E+00 0.45569388E+03</pdfrwt>
<pdfrwt beam="2">  1       21 0.62814373E-02 0.45569388E+03</pdfrwt>
<totfact> 0.30192485E+04</totfact>
</mgrwt>
</event>
<event>
 7    0  0.4714446E-002  0.4519458E+03  0.7546771E-02  0.1027143E+00
         21   -1    0    0  502  501  0.00000000000E+00  0.00000000000E+00  0.44031153905E+02  0.44031153905E+02  0.00000000000E+00 0.  1.
         21   -1    0    0  501  502 -0.00000000000E+00 -0.00000000000E+00 -0.11597187103E+04  0.11597187103E+04  0.00000000000E+00 0.  1.
      99926    2    1    2    0    0  0.00000000000E+00  0.00000000000E+00 -0.11156875564E+04  0.12037498642E+04  0.45194580657E+03 0.  0.
      99925    2    3    3    0    0 -0.10286516758E+03  0.10633775420E+02 -0.60147439604E+03  0.66453098262E+03  0.26293660430E+03 0.  0.
         25    1    4    4    0    0 -0.58638822883E+02 -0.34381941334E+02 -0.29579563294E+03  0.32827304795E+03  0.12509000000E+03 0.  0.
         25    1    4    4    0    0 -0.44226344696E+02  0.45015716754E+02 -0.30567876310E+03  0.33625793467E+03  0.12509000000E+03 0.  0.
         25    1    3    3    0    0  0.10286516758E+03 -0.10633775420E+02 -0.51421316033E+03  0.53921888157E+03  0.12509000000E+03 0.  0.
<mgrwt>
<rscale>  2 0.45194581E+03</rscale>
<asrwt>0</asrwt>
<pdfrwt beam="1">  1       21 0.64751698E-02 0.45194581E+03</pdfrwt>
<pdfrwt beam="2">  1       21 0.17054687E+00 0.45194581E+03</pdfrwt>
<totfact> 0.32811010E+04</totfact>
</mgrwt>
</event>
<event>
 7    0  0.4714446E-002  0.4555301E+03  0.7546771E-02  0.1026086E+00
         21   -1    0    0  502  501  0.00000000000E+00  0.00000000000E+00  0.24355389037E+03  0.24355389037E+03  0.00000000000E+00 0.  1.
         21   -1    0    0  501  502 -0.00000000000E+00 -0.00000000000E+00 -0.21299972826E+03  0.21299972826E+03  0.00000000000E+00 0.  1.
      99926    2    1    2    0    0 -0.71054273576E-14  0.00000000000E+00  0.30554162109E+02  0.45655361863E+03  0.45553007569E+03 0.  0.
      99925    2    3    3    0    0 -0.38313857867E+02  0.90661993102E+01  0.12585765942E+03  0.29444127371E+03  0.26325912245E+03 0.  0.
         25    1    3    3    0    0  0.38313857867E+02 -0.90661993102E+01 -0.95303497312E+02  0.16211234492E+03  0.12509000000E+03 0.  0.
         25    1    4    4    0    0 -0.51718090176E+02  0.18690184564E+02  0.42041289066E+02  0.14296524730E+03  0.12509000000E+03 0.  0.
         25    1    4    4    0    0  0.13404232308E+02 -0.96239852541E+01  0.83816370355E+02  0.15147602640E+03  0.12509000000E+03 0.  0.
<mgrwt>
<rscale>  2 0.45553008E+03</rscale>
<asrwt>0</asrwt>
<pdfrwt beam="1">  1       21 0.35816749E-01 0.45553008E+03</pdfrwt>
<pdfrwt beam="2">  1       21 0.31323489E-01 0.45553008E+03</pdfrwt>
<totfact> 0.68143502E+04</totfact>
</mgrwt>
</event>
<event>
 7    0  0.4714446E-002  0.4584618E+03  0.7546771E-02  0.1025228E+00
         21   -1    0    0  502  501  0.00000000000E+00  0.00000000000E+00  0.52496425311E+03  0.52496425311E+03  0.00000000000E+00 0. -1.
         21   -1    0    0  501  502 -0.00000000000E+00 -0.00000000000E+00 -0.10009595288E+03  0.10009595288E+03  0.00000000000E+00 0. -1.
      99926    2    1    2    0    0  0.00000000000E+00  0.35527136788E-14  0.42486830023E+03  0.62506020599E+03  0.45846176347E+03 0.  0.
      99925    2    3    3    0    0 -0.48705506770E+02 -0.23104406611E+02  0.40717948631E+03  0.48770503778E+03  0.26297343937E+03 0.  0.
         25    1    4    4    0    0 -0.25592865247E+02  0.28904186589E+02  0.20534947924E+03  0.24352897872E+03  0.12509000000E+03 0.  0.
         25    1    4    4    0    0 -0.23112641522E+02 -0.52008593201E+02  0.20183000707E+03  0.24417605906E+03  0.12509000000E+03 0.  0.
         25    1    3    3    0    0  0.48705506770E+02  0.23104406611E+02  0.17688813929E+02  0.13735516821E+03  0.12509000000E+03 0.  0.
<mgrwt>
<rscale>  2 0.45846176E+03</rscale>
<asrwt>0</asrwt>
<pdfrwt beam="1">  1       21 0.77200624E-01 0.45846176E+03</pdfrwt>
<pdfrwt beam="2">  1       21 0.14719993E-01 0.45846176E+03</pdfrwt>
<totfact> 0.55625628E+04</totfact>
</mgrwt>
</event>
<event>
 7    0  0.4714446E-002  0.4552078E+03  0.7546771E-02  0.1026180E+00
         21   -1    0    0  502  501  0.00000000000E+00  0.00000000000E+00  0.54854812410E+03  0.54854812410E+03  0.00000000000E+00 0.  1.
         21   -1    0    0  501  502 -0.00000000000E+00 -0.00000000000E+00 -0.94437549022E+02  0.94437549022E+02  0.00000000000E+00 0.  1.
      99926    2    1    2    0    0  0.00000000000E+00 -0.71054273576E-14  0.45411057508E+03  0.64298567312E+03  0.45520782226E+03 0.  0.
      99925    2    3    3    0    0 -0.20427612306E+02  0.60931051094E+02  0.15376456477E+03  0.31134563582E+03  0.26298799067E+03 0.  0.
         25    1    4    4    0    0  0.56339159976E+00  0.42683679434E+02  0.12072728196E+03  0.17901061033E+03  0.12509000000E+03 0.  0.
         25    1    3    3    0    0  0.20427612306E+02 -0.60931051094E+02  0.30034601031E+03  0.33164003730E+03  0.12509000000E+03 0.  0.
         25    1    4    4    0    0 -0.20991003905E+02  0.18247371660E+02  0.33037282808E+02  0.13233502549E+03  0.12509000000E+03 0.  0.
<mgrwt>
<rscale>  2 0.45520782E+03</rscale>
<asrwt>0</asrwt>
<pdfrwt beam="1">  1       21 0.80668840E-01 0.45520782E+03</pdfrwt>
<pdfrwt beam="2">  1       21 0.13887875E-01 0.45520782E+03</pdfrwt>
<totfact> 0.56015487E+04</totfact>
</mgrwt>
</event>
<event>
 7    0  0.4714446E-002  0.4634134E+03  0.7546771E-02  0.1023796E+00
         21   -1    0    0  502  501  0.00000000000E+00  0.00000000000E+00  0.38524591468E+03  0.38524591468E+03  0.00000000000E+00 0. -1.
         21   -1    0    0  501  502 -0.00000000000E+00 -0.00000000000E+00 -0.13936033063E+03  0.13936033063E+03  0.00000000000E+00 0. -1.
      99926    2    1    2    0    0  0.14210854715E-13  0.35527136788E-14  0.24588558405E+03  0.52460624531E+03  0.46341341389E+03 0.  0.
      99925    2    3    3    0    0  0.11086772076E+03  0.16961256373E+02  0.10362550524E+03  0.30445908124E+03  0.26339656620E+03 0.  0.
         25    1    3    3    0    0 -0.11086772076E+03 -0.16961256373E+02  0.14226007881E+03  0.22014716407E+03  0.12509000000E+03 0.  0.
         25    1    4    4    0    0  0.20384885056E+02 -0.15788347974E+01  0.21336132982E+02  0.12853316665E+03  0.12509000000E+03 0.  0.
         25    1    4    4    0    0  0.90482835704E+02  0.18540091171E+02  0.82289372260E+02  0.17592591459E+03  0.12509000000E+03 0.  0.
<mgrwt>
<rscale>  2 0.46341341E+03</rscale>
<asrwt>0</asrwt>
<pdfrwt beam="1">  1       21 0.56653811E-01 0.46341341E+03</pdfrwt>
<pdfrwt beam="2">  1       21 0.20494166E-01 0.46341341E+03</pdfrwt>
<totfact> 0.59502331E+04</totfact>
</mgrwt>
</event>
<event>
 7    0  0.4714446E-002  0.4536348E+03  0.7546771E-02  0.1026644E+00
         21   -1    0    0  502  501  0.00000000000E+00  0.00000000000E+00  0.11167050036E+04  0.11167050036E+04  0.00000000000E+00 0.  1.
         21   -1    0    0  501  502 -0.00000000000E+00 -0.00000000000E+00 -0.46069575125E+02  0.46069575125E+02  0.00000000000E+00 0.  1.
      99926    2    1    2    0    0  0.00000000000E+00  0.71054273576E-14  0.10706354284E+04  0.11627745787E+04  0.45363476522E+03 0.  0.
      99925    2    3    3    0    0  0.85228127243E+02  0.46023419395E+02  0.81788145360E+03  0.86458995684E+03  0.26306602314E+03 0.  0.
         25    1    4    4    0    0  0.24306727681E+02 -0.96666655115E+01  0.31773416954E+03  0.34247156382E+03  0.12509000000E+03 0.  0.
         25    1    4    4    0    0  0.60921399562E+02  0.55690084907E+02  0.50014728406E+03  0.52211839302E+03  0.12509000000E+03 0.  0.
         25    1    3    3    0    0 -0.85228127243E+02 -0.46023419395E+02  0.25275397483E+03  0.29818462183E+03  0.12509000000E+03 0.  0.
<mgrwt>
<rscale>  2 0.45363477E+03</rscale>
<asrwt>0</asrwt>
<pdfrwt beam="1">  1       21 0.16422131E+00 0.45363477E+03</pdfrwt>
<pdfrwt beam="2">  1       21 0.67749382E-02 0.45363477E+03</pdfrwt>
<totfact> 0.33715979E+04</totfact>
</mgrwt>
</event>
<event>
 7    0  0.4714446E-002  0.4556596E+03  0.7546771E-02  0.1026048E+00
         21   -1    0    0  502  501  0.00000000000E+00  0.00000000000E+00  0.48589902978E+02  0.48589902978E+02  0.00000000000E+00 0.  1.
         21   -1    0    0  501  502 -0.00000000000E+00 -0.00000000000E+00 -0.10682551114E+04  0.10682551114E+04  0.00000000000E+00 0.  1.
      99926    2    1    2    0    0  0.14210854715E-13  0.00000000000E+00 -0.10196652084E+04  0.11168450144E+04  0.45565957565E+03 0.  0.
      99925    2    3    3    0    0  0.94484246833E+02 -0.62996166823E+02 -0.64517267708E+03  0.70600690263E+03  0.26325305958E+03 0.  0.
         25    1    4    4    0    0  0.52209976891E+02 -0.72310383351E+02 -0.32180411984E+03  0.35659511056E+03  0.12509000000E+03 0.  0.
         25    1    3    3    0    0 -0.94484246833E+02  0.62996166823E+02 -0.37449253135E+03  0.41083811176E+03  0.12509000000E+03 0.  0.
         25    1    4    4    0    0  0.42274269942E+02  0.93142165287E+01 -0.32336855724E+03  0.34941179207E+03  0.12509000000E+03 0.  0.
<mgrwt>
<rscale>  2 0.45565958E+03</rscale>
<asrwt>0</asrwt>
<pdfrwt beam="1">  1       21 0.71455746E-02 0.45565958E+03</pdfrwt>
<pdfrwt beam="2">  1       21 0.15709633E+00 0.45565958E+03</pdfrwt>
<totfact> 0.34729851E+04</totfact>
</mgrwt>
</event>
<event>
 7    0  0.4714446E-002  0.4606825E+03  0.7546771E-02  0.1024583E+00
         21   -1    0    0  502  501  0.00000000000E+00  0.00000000000E+00  0.47454613635E+03  0.47454613635E+03  0.00000000000E+00 0.  1.
         21   -1    0    0  501  502 -0.00000000000E+00 -0.00000000000E+00 -0.11180597343E+03  0.11180597343E+03  0.00000000000E+00 0.  1.
      99926    2    1    2    0    0  0.88817841970E-15 -0.14210854715E-13  0.36274016292E+03  0.58635210977E+03  0.46068250547E+03 0.  0.
      99925    2    3    3    0    0 -0.28937339533E+01 -0.68157958016E+02  0.10412593921E+03  0.29108493290E+03  0.26312420262E+03 0.  0.
         25    1    4    4    0    0  0.16435167456E+02 -0.55252834778E+01  0.75037587234E+02  0.14689721265E+03  0.12509000000E+03 0.  0.
         25    1    4    4    0    0 -0.19328901409E+02 -0.62632674539E+02  0.29088351980E+02  0.14418772025E+03  0.12509000000E+03 0.  0.
         25    1    3    3    0    0  0.28937339533E+01  0.68157958016E+02  0.25861422371E+03  0.29526717687E+03  0.12509000000E+03 0.  0.
<mgrwt>
<rscale>  2 0.46068251E+03</rscale>
<asrwt>0</asrwt>
<pdfrwt beam="1">  1       21 0.69786196E-01 0.46068251E+03</pdfrwt>
<pdfrwt beam="2">  1       21 0.16442055E-01 0.46068251E+03</pdfrwt>
<totfact> 0.56925915E+04</totfact>
</mgrwt>
</event>
<event>
 7    0  0.4714446E-002  0.4299932E+03  0.7546771E-02  0.1033862E+00
         21   -1    0    0  502  501  0.00000000000E+00  0.00000000000E+00  0.45519309081E+02  0.45519309081E+02  0.00000000000E+00 0. -1.
         21   -1    0    0  501  502 -0.00000000000E+00 -0.00000000000E+00 -0.10154709815E+04  0.10154709815E+04  0.00000000000E+00 0. -1.
      99926    2    1    2    0    0  0.00000000000E+00 -0.88817841970E-15 -0.96995167239E+03  0.10609902905E+04  0.42999319747E+03 0.  0.
      99925    2    3    3    0    0 -0.65602129102E+02 -0.63539862776E+01 -0.76784256632E+03  0.81433342091E+03  0.26308306915E+03 0.  0.
         25    1    4    4    0    0 -0.10181135781E+02 -0.32253813077E+02 -0.42419590580E+03  0.44354665886E+03  0.12509000000E+03 0.  0.
         25    1    4    4    0    0 -0.55420993321E+02  0.25899826800E+02 -0.34364666052E+03  0.37078676206E+03  0.12509000000E+03 0.  0.
         25    1    3    3    0    0  0.65602129102E+02  0.63539862776E+01 -0.20210910607E+03  0.24665686964E+03  0.12509000000E+03 0.  0.
<mgrwt>
<rscale>  2 0.42999320E+03</rscale>
<asrwt>0</asrwt>
<pdfrwt beam="1">  1       21 0.66940164E-02 0.42999320E+03</pdfrwt>
<pdfrwt beam="2">  1       21 0.14933396E+00 0.42999320E+03</pdfrwt>
<totfact> 0.45046511E+04</totfact>
</mgrwt>
</event>
<event>
 7    0  0.4714446E-002  0.4001782E+03  0.7546771E-02  0.1043718E+00
         21   -1    0    0  502  501  0.00000000000E+00  0.00000000000E+00  0.66355539071E+03  0.66355539071E+03  0.00000000000E+00 0. -1.
         21   -1    0    0  501  502 -0.00000000000E+00 -0.00000000000E+00 -0.60335043028E+02  0.60335043028E+02  0.00000000000E+00 0. -1.
      99926    2    1    2    0    0 -0.35527136788E-14  0.22204460493E-14  0.60322034769E+03  0.72389043374E+03  0.40017817557E+03 0.  0.
      99925    2    3    3    0    0 -0.17045367279E+02  0.23204192853E+01  0.47783939922E+03  0.54594713033E+03  0.26349923866E+03 0.  0.
         25    1    3    3    0    0  0.17045367279E+02 -0.23204192853E+01  0.12538094847E+03  0.17794330341E+03  0.12509000000E+03 0.  0.
         25    1    4    4    0    0  0.16538647890E+02 -0.31421611208E+02  0.22525428190E+03  0.26009199168E+03  0.12509000000E+03 0.  0.
         25    1    4    4    0    0 -0.33584015169E+02  0.33742030493E+02  0.25258511732E+03  0.28585513864E+03  0.12509000000E+03 0.  0.
<mgrwt>
<rscale>  2 0.40017818E+03</rscale>
<asrwt>0</asrwt>
<pdfrwt beam="1">  1       21 0.97581671E-01 0.40017818E+03</pdfrwt>
<pdfrwt beam="2">  1       21 0.88728008E-02 0.40017818E+03</pdfrwt>
<totfact> 0.81473289E+04</totfact>
</mgrwt>
</event>
<event>
 7    0  0.4714446E-002  0.4639622E+03  0.7546771E-02  0.1023638E+00
         21   -1    0    0  502  501  0.00000000000E+00  0.00000000000E+00  0.67065529260E+03  0.67065529260E+03  0.00000000000E+00 0. -1.
         21   -1    0    0  501  502 -0.00000000000E+00 -0.00000000000E+00 -0.80242764904E+02  0.80242764904E+02  0.00000000000E+00 0. -1.
      99926    2    1    2    0    0  0.00000000000E+00  0.71054273576E-14  0.59041252770E+03  0.75089805750E+03  0.46396221819E+03 0.  0.
      99925    2    3    3    0    0 -0.46490082659E+02 -0.49520023247E+02  0.53139858005E+03  0.59680810130E+03  0.26302452054E+03 0.  0.
         25    1    4    4    0    0 -0.47823077486E+02 -0.48275291463E+02  0.33444326004E+03  0.36347950807E+03  0.12509000000E+03 0.  0.
         25    1    4    4    0    0  0.13329948270E+01 -0.12447317837E+01  0.19695532001E+03  0.23332859322E+03  0.12509000000E+03 0.  0.
         25    1    3    3    0    0  0.46490082659E+02  0.49520023247E+02  0.59013947645E+02  0.15408995621E+03  0.12509000000E+03 0.  0.
<mgrwt>
<rscale>  2 0.46396222E+03</rscale>
<asrwt>0</asrwt>
<pdfrwt beam="1">  1       21 0.98625775E-01 0.46396222E+03</pdfrwt>
<pdfrwt beam="2">  1       21 0.11800407E-01 0.46396222E+03</pdfrwt>
<totfact> 0.46837742E+04</totfact>
</mgrwt>
</event>
<event>
 7    0  0.4714446E-002  0.4581526E+03  0.7546771E-02  0.1025318E+00
         21   -1    0    0  502  501  0.00000000000E+00  0.00000000000E+00  0.34116177789E+03  0.34116177789E+03  0.00000000000E+00 0.  1.
         21   -1    0    0  501  502 -0.00000000000E+00 -0.00000000000E+00 -0.15381541624E+03  0.15381541624E+03  0.00000000000E+00 0.  1.
      99926    2    1    2    0    0  0.00000000000E+00  0.14210854715E-13  0.18734636165E+03  0.49497719413E+03  0.45815255482E+03 0.  0.
      99925    2    3    3    0    0 -0.71349873708E+02 -0.83578534594E+02  0.77258477819E+02  0.29537001443E+03  0.26305588209E+03 0.  0.
         25    1    3    3    0    0  0.71349873708E+02  0.83578534594E+02  0.11008788383E+03  0.19960717970E+03  0.12509000000E+03 0.  0.
         25    1    4    4    0    0 -0.11855725781E+02 -0.73706205863E+02  0.48674908377E+02  0.15359009676E+03  0.12509000000E+03 0.  0.
         25    1    4    4    0    0 -0.59494147927E+02 -0.98723287308E+01  0.28583569442E+02  0.14177991767E+03  0.12509000000E+03 0.  0.
<mgrwt>
<rscale>  2 0.45815255E+03</rscale>
<asrwt>0</asrwt>
<pdfrwt beam="1">  1       21 0.50170850E-01 0.45815255E+03</pdfrwt>
<pdfrwt beam="2">  1       21 0.22619914E-01 0.45815255E+03</pdfrwt>
<totfact> 0.64007997E+04</totfact>
</mgrwt>
</event>
<event>
 7    0  0.4714446E-002  0.4412451E+03  0.7546771E-02  0.1030365E+00
         21   -1    0    0  502  501  0.00000000000E+00  0.00000000000E+00  0.19848984278E+04  0.19848984278E+04  0.00000000000E+00 0.  1.
         21   -1    0    0  501  502 -0.00000000000E+00 -0.00000000000E+00 -0.24522322440E+02  0.24522322440E+02  0.00000000000E+00 0.  1.
      99926    2    1    2    0    0  0.00000000000E+00 -0.71054273576E-14  0.19603761054E+04  0.20094207503E+04  0.44124514392E+03 0.  0.
      99925    2    3    3    0    0  0.80485747567E+02 -0.56112234230E+02  0.13324665555E+04  0.13616982408E+04  0.26292287643E+03 0.  0.
         25    1    4    4    0    0  0.44481863132E+02 -0.66497187186E+02  0.63683152114E+03  0.65391314903E+03  0.12509000000E+03 0.  0.
         25    1    4    4    0    0  0.36003884435E+02  0.10384952956E+02  0.69563503439E+03  0.70778509176E+03  0.12509000000E+03 0.  0.
         25    1    3    3    0    0 -0.80485747567E+02  0.56112234230E+02  0.62790954987E+03  0.64772250949E+03  0.12509000000E+03 0.  0.
<mgrwt>
<rscale>  2 0.44124514E+03</rscale>
<asrwt>0</asrwt>
<pdfrwt beam="1">  1       21 0.29189672E+00 0.44124514E+03</pdfrwt>
<pdfrwt beam="2">  1       21 0.36062252E-02 0.44124514E+03</pdfrwt>
<totfact> 0.15106185E+04</totfact>
</mgrwt>
</event>
<event>
 7    0  0.4714446E-002  0.4464066E+03  0.7546771E-02  0.1028799E+00
         21   -1    0    0  502  501  0.00000000000E+00  0.00000000000E+00  0.30441118034E+03  0.30441118034E+03  0.00000000000E+00 0. -1.
         21   -1    0    0  501  502 -0.00000000000E+00 -0.00000000000E+00 -0.16365929497E+03  0.16365929497E+03  0.00000000000E+00 0. -1.
      99926    2    1    2    0    0 -0.14210854715E-13  0.71054273576E-14  0.14075188537E+03  0.46807047530E+03  0.44640662699E+03 0.  0.
      99925    2    3    3    0    0  0.61052618587E+02 -0.63286868139E+02  0.29145526236E+02  0.27876612402E+03  0.26292287897E+03 0.  0.
         25    1    4    4    0    0  0.48257086204E+02 -0.63775652540E+02  0.36215247617E+02  0.15282386098E+03  0.12509000000E+03 0.  0.
         25    1    3    3    0    0 -0.61052618587E+02  0.63286868139E+02  0.11160635913E+03  0.18930435128E+03  0.12509000000E+03 0.  0.
         25    1    4    4    0    0  0.12795532383E+02  0.48878440088E+00 -0.70697213802E+01  0.12594226304E+03  0.12509000000E+03 0.  0.
<mgrwt>
<rscale>  2 0.44640663E+03</rscale>
<asrwt>0</asrwt>
<pdfrwt beam="1">  1       21 0.44766350E-01 0.44640663E+03</pdfrwt>
<pdfrwt beam="2">  1       21 0.24067543E-01 0.44640663E+03</pdfrwt>
<totfact> 0.72391034E+04</totfact>
</mgrwt>
</event>
<event>
 7    0  0.4714446E-002  0.4517793E+03  0.7546771E-02  0.1027193E+00
         21   -1    0    0  502  501  0.00000000000E+00  0.00000000000E+00  0.81969743928E+02  0.81969743928E+02  0.00000000000E+00 0.  1.
         21   -1    0    0  501  502 -0.00000000000E+00 -0.00000000000E+00 -0.62249972091E+03  0.62249972091E+03  0.00000000000E+00 0.  1.
      99926    2    1    2    0    0 -0.14210854715E-13  0.00000000000E+00 -0.54052997698E+03  0.70446946484E+03  0.45177933870E+03 0.  0.
      99925    2    3    3    0    0  0.98560197921E+02  0.39704896517E+02 -0.29580149271E+03  0.40979993717E+03  0.26295793199E+03 0.  0.
         25    1    4    4    0    0  0.69071736781E+02  0.48740196290E+02 -0.12595581544E+03  0.19661863365E+03  0.12509000000E+03 0.  0.
         25    1    4    4    0    0  0.29488461140E+02 -0.90352997730E+01 -0.16984567727E+03  0.21318130352E+03  0.12509000000E+03 0.  0.
         25    1    3    3    0    0 -0.98560197921E+02 -0.39704896517E+02 -0.24472848427E+03  0.29466952767E+03  0.12509000000E+03 0.  0.
<mgrwt>
<rscale>  2 0.45177934E+03</rscale>
<asrwt>0</asrwt>
<pdfrwt beam="1">  1       21 0.12054373E-01 0.45177934E+03</pdfrwt>
<pdfrwt beam="2">  1       21 0.91544082E-01 0.45177934E+03</pdfrwt>
<totfact> 0.54016933E+04</totfact>
</mgrwt>
</event>
<event>
 7    0  0.4714446E-002  0.4592281E+03  0.7546771E-02  0.1025005E+00
         21   -1    0    0  502  501  0.00000000000E+00  0.00000000000E+00  0.93710231191E+03  0.93710231191E+03  0.00000000000E+00 0. -1.
         21   -1    0    0  501  502 -0.00000000000E+00 -0.00000000000E+00 -0.56261309081E+02  0.56261309081E+02  0.00000000000E+00 0. -1.
      99926    2    1    2    0    0  0.00000000000E+00  0.00000000000E+00  0.88084100283E+03  0.99336362099E+03  0.45922806016E+03 0.  0.
      99925    2    3    3    0    0  0.41588390993E+02 -0.53248701675E+02  0.34535754379E+03  0.43932836805E+03  0.26300677449E+03 0.  0.
         25    1    4    4    0    0  0.47489627985E+02 -0.21918234324E+02  0.22580042134E+03  0.26337997672E+03  0.12509000000E+03 0.  0.
         25    1    4    4    0    0 -0.59012369917E+01 -0.31330467350E+02  0.11955712246E+03  0.17594839133E+03  0.12509000000E+03 0.  0.
         25    1    3    3    0    0 -0.41588390993E+02  0.53248701675E+02  0.53548345903E+03  0.55403525293E+03  0.12509000000E+03 0.  0.
<mgrwt>
<rscale>  2 0.45922806E+03</rscale>
<asrwt>0</asrwt>
<pdfrwt beam="1">  1       21 0.13780915E+00 0.45922806E+03</pdfrwt>
<pdfrwt beam="2">  1       21 0.82737225E-02 0.45922806E+03</pdfrwt>
<totfact> 0.38150378E+04</totfact>
</mgrwt>
</event>
<event>
 7    0  0.4714446E-002  0.4593234E+03  0.7546771E-02  0.1024978E+00
         21   -1    0    0  502  501  0.00000000000E+00  0.00000000000E+00  0.14541659717E+03  0.14541659717E+03  0.00000000000E+00 0.  1.
         21   -1    0    0  501  502 -0.00000000000E+00 -0.00000000000E+00 -0.36271298076E+03  0.36271298076E+03  0.00000000000E+00 0.  1.
      99926    2    1    2    0    0  0.00000000000E+00  0.14210854715E-13 -0.21729638359E+03  0.50812957793E+03  0.45932336066E+03 0.  0.
      99925    2    3    3    0    0 -0.10540958853E+02  0.11656530506E+03 -0.13145154940E+03  0.31651688051E+03  0.26306813500E+03 0.  0.
         25    1    4    4    0    0 -0.14673005576E+02  0.16940534261E+02 -0.70524625690E+02  0.14533929174E+03  0.12509000000E+03 0.  0.
         25    1    3    3    0    0  0.10540958853E+02 -0.11656530506E+03 -0.85844834185E+02  0.19161269742E+03  0.12509000000E+03 0.  0.
         25    1    4    4    0    0  0.41320467227E+01  0.99624770796E+02 -0.60926923713E+02  0.17117758878E+03  0.12509000000E+03 0.  0.
<mgrwt>
<rscale>  2 0.45932336E+03</rscale>
<asrwt>0</asrwt>
<pdfrwt beam="1">  1       21 0.21384794E-01 0.45932336E+03</pdfrwt>
<pdfrwt beam="2">  1       21 0.53340143E-01 0.45932336E+03</pdfrwt>
<totfact> 0.62529795E+04</totfact>
</mgrwt>
</event>
<event>
 7    0  0.4714446E-002  0.4564608E+03  0.7546771E-02  0.1025813E+00
         21   -1    0    0  502  501  0.00000000000E+00  0.00000000000E+00  0.10906018233E+03  0.10906018233E+03  0.00000000000E+00 0.  1.
         21   -1    0    0  501  502 -0.00000000000E+00 -0.00000000000E+00 -0.47761811468E+03  0.47761811468E+03  0.00000000000E+00 0.  1.
      99926    2    1    2    0    0  0.71054273576E-14  0.00000000000E+00 -0.36855793235E+03  0.58667829701E+03  0.45646081396E+03 0.  0.
      99925    2    3    3    0    0  0.61347121973E+02  0.93243694173E+02 -0.26488968461E+03  0.38956799903E+03  0.26294262679E+03 0.  0.
         25    1    4    4    0    0  0.30741384986E+02  0.56703405294E+01 -0.13611053827E+03  0.18748539207E+03  0.12509000000E+03 0.  0.
         25    1    3    3    0    0 -0.61347121973E+02 -0.93243694173E+02 -0.10366824775E+03  0.19711029798E+03  0.12509000000E+03 0.  0.
         25    1    4    4    0    0  0.30605736987E+02  0.87573353644E+02 -0.12877914634E+03  0.20208260696E+03  0.12509000000E+03 0.  0.
<mgrwt>
<rscale>  2 0.45646081E+03</rscale>
<asrwt>0</asrwt>
<pdfrwt beam="1">  1       21 0.16038262E-01 0.45646081E+03</pdfrwt>
<pdfrwt beam="2">  1       21 0.70237958E-01 0.45646081E+03</pdfrwt>
<totfact> 0.58823668E+04</totfact>
</mgrwt>
</event>
<event>
 7    0  0.4714446E-002  0.4384784E+03  0.7546771E-02  0.1031215E+00
         21   -1    0    0  502  501  0.00000000000E+00  0.00000000000E+00  0.38430887265E+03  0.38430887265E+03  0.00000000000E+00 0. -1.
         21   -1    0    0  501  502 -0.00000000000E+00 -0.00000000000E+00 -0.12507082958E+03  0.12507082958E+03  0.00000000000E+00 0. -1.
      99926    2    1    2    0    0  0.00000000000E+00  0.00000000000E+00  0.25923804307E+03  0.50937970223E+03  0.43847841232E+03 0.  0.
      99925    2    3    3    0    0 -0.56592639191E+02 -0.72088343306E+02  0.12965801468E+03  0.30729569023E+03  0.26309691068E+03 0.  0.
         25    1    4    4    0    0 -0.41596475909E+02  0.20911914055E+01  0.51775455079E+02  0.14164337520E+03  0.12509000000E+03 0.  0.
         25    1    4    4    0    0 -0.14996163282E+02 -0.74179534711E+02  0.77882559600E+02  0.16565231502E+03  0.12509000000E+03 0.  0.
         25    1    3    3    0    0  0.56592639191E+02  0.72088343306E+02  0.12958002839E+03  0.20208401201E+03  0.12509000000E+03 0.  0.
<mgrwt>
<rscale>  2 0.43847841E+03</rscale>
<asrwt>0</asrwt>
<pdfrwt beam="1">  1       21 0.56516010E-01 0.43847841E+03</pdfrwt>
<pdfrwt beam="2">  1       21 0.18392769E-01 0.43847841E+03</pdfrwt>
<totfact> 0.73827945E+04</totfact>
</mgrwt>
</event>
<event>
 7    0  0.4714446E-002  0.4590607E+03  0.7546771E-02  0.1025054E+00
         21   -1    0    0  502  501  0.00000000000E+00  0.00000000000E+00  0.43124759854E+02  0.43124759854E+02  0.00000000000E+00 0.  1.
         21   -1    0    0  501  502 -0.00000000000E+00 -0.00000000000E+00 -0.12216690439E+04  0.12216690439E+04  0.00000000000E+00 0.  1.
      99926    2    1    2    0    0  0.00000000000E+00  0.14210854715E-13 -0.11785442840E+04  0.12647938037E+04  0.45906071118E+03 0.  0.
      99925    2    3    3    0    0 -0.93291134789E+02  0.66971970846E+02 -0.79951208637E+03  0.84946093040E+03  0.26301295656E+03 0.  0.
         25    1    3    3    0    0  0.93291134789E+02 -0.66971970846E+02 -0.37903219764E+03  0.41533287332E+03  0.12509000000E+03 0.  0.
         25    1    4    4    0    0 -0.36224112636E+02 -0.39832090240E+01 -0.41558267679E+03  0.43552786551E+03  0.12509000000E+03 0.  0.
         25    1    4    4    0    0 -0.57067022153E+02  0.70955179870E+02 -0.38392940958E+03  0.41393306489E+03  0.12509000000E+03 0.  0.
<mgrwt>
<rscale>  2 0.45906071E+03</rscale>
<asrwt>0</asrwt>
<pdfrwt beam="1">  1       21 0.63418779E-02 0.45906071E+03</pdfrwt>
<pdfrwt beam="2">  1       21 0.17965717E+00 0.45906071E+03</pdfrwt>
<totfact> 0.29220037E+04</totfact>
</mgrwt>
</event>
<event>
 7    0  0.4714446E-002  0.4535933E+03  0.7546771E-02  0.1026656E+00
         21   -1    0    0  502  501  0.00000000000E+00  0.00000000000E+00  0.17529069223E+04  0.17529069223E+04  0.00000000000E+00 0.  1.
         21   -1    0    0  501  502 -0.00000000000E+00 -0.00000000000E+00 -0.29343670581E+02  0.29343670581E+02  0.00000000000E+00 0.  1.
      99926    2    1    2    0    0  0.00000000000E+00  0.00000000000E+00  0.17235632517E+04  0.17822505929E+04  0.45359331250E+03 0.  0.
      99925    2    3    3    0    0 -0.42079759233E+02  0.31514920763E+02  0.14741007043E+04  0.14982735392E+04  0.26284370905E+03 0.  0.
         25    1    4    4    0    0 -0.18436729787E+02  0.31607458735E+01  0.94040330606E+03  0.94887079703E+03  0.12509000000E+03 0.  0.
         25    1    4    4    0    0 -0.23643029446E+02  0.28354174890E+02  0.53369739825E+03  0.54940274214E+03  0.12509000000E+03 0.  0.
         25    1    3    3    0    0  0.42079759233E+02 -0.31514920763E+02  0.24946254739E+03  0.28397705368E+03  0.12509000000E+03 0.  0.
<mgrwt>
<rscale>  2 0.45359331E+03</rscale>
<asrwt>0</asrwt>
<pdfrwt beam="1">  1       21 0.25778036E+00 0.45359331E+03</pdfrwt>
<pdfrwt beam="2">  1       21 0.43152469E-02 0.45359331E+03</pdfrwt>
<totfact> 0.17796567E+04</totfact>
</mgrwt>
</event>
<event>
 7    0  0.4714446E-002  0.4408963E+03  0.7546771E-02  0.1030472E+00
         21   -1    0    0  502  501  0.00000000000E+00  0.00000000000E+00  0.10403536989E+03  0.10403536989E+03  0.00000000000E+00 0.  1.
         21   -1    0    0  501  502 -0.00000000000E+00 -0.00000000000E+00 -0.46712376402E+03  0.46712376402E+03  0.00000000000E+00 0.  1.
      99926    2    1    2    0    0 -0.35527136788E-14  0.00000000000E+00 -0.36308839413E+03  0.57115913392E+03  0.44089633056E+03 0.  0.
      99925    2    3    3    0    0 -0.21153248316E+02  0.52196172843E+02 -0.33762667770E+03  0.43163240717E+03  0.26295030147E+03 0.  0.
         25    1    4    4    0    0  0.17170817660E+02  0.53477817606E+02 -0.15455420631E+03  0.20661370899E+03  0.12509000000E+03 0.  0.
         25    1    3    3    0    0  0.21153248316E+02 -0.52196172843E+02 -0.25461716429E+02  0.13952672675E+03  0.12509000000E+03 0.  0.
         25    1    4    4    0    0 -0.38324065976E+02 -0.12816447629E+01 -0.18307247139E+03  0.22501869818E+03  0.12509000000E+03 0.  0.
<mgrwt>
<rscale>  2 0.44089633E+03</rscale>
<asrwt>0</asrwt>
<pdfrwt beam="1">  1       21 0.15299319E-01 0.44089633E+03</pdfrwt>
<pdfrwt beam="2">  1       21 0.68694673E-01 0.44089633E+03</pdfrwt>
<totfact> 0.67733124E+04</totfact>
</mgrwt>
</event>
<event>
 7    0  0.4714446E-002  0.4529989E+03  0.7546771E-02  0.1026832E+00
         21   -1    0    0  502  501  0.00000000000E+00  0.00000000000E+00  0.69964863548E+02  0.69964863548E+02  0.00000000000E+00 0.  1.
         21   -1    0    0  501  502 -0.00000000000E+00 -0.00000000000E+00 -0.73325365006E+03  0.73325365006E+03  0.00000000000E+00 0.  1.
      99926    2    1    2    0    0  0.71054273576E-14 -0.14210854715E-13 -0.66328878652E+03  0.80321851361E+03  0.45299885904E+03 0.  0.
      99925    2    3    3    0    0 -0.38725818817E+02  0.74816850349E+02 -0.28898185524E+03  0.39967119663E+03  0.26292451887E+03 0.  0.
         25    1    4    4    0    0 -0.12239504947E+02  0.43717860205E+02 -0.20213070851E+03  0.24200286818E+03  0.12509000000E+03 0.  0.
         25    1    3    3    0    0  0.38725818817E+02 -0.74816850349E+02 -0.37430693128E+03  0.40354731698E+03  0.12509000000E+03 0.  0.
         25    1    4    4    0    0 -0.26486313870E+02  0.31098990144E+02 -0.86851146726E+02  0.15766832846E+03  0.12509000000E+03 0.  0.
<mgrwt>
<rscale>  2 0.45299886E+03</rscale>
<asrwt>0</asrwt>
<pdfrwt beam="1">  1       21 0.10288951E-01 0.45299886E+03</pdfrwt>
<pdfrwt beam="2">  1       21 0.10783142E+00 0.45299886E+03</pdfrwt>
<totfact> 0.48364590E+04</totfact>
</mgrwt>
</event>
<event>
 7    0  0.4714446E-002  0.4576537E+03  0.7546771E-02  0.1025464E+00
         21   -1    0    0  502  501  0.00000000000E+00  0.00000000000E+00  0.73666043239E+03  0.73666043239E+03  0.00000000000E+00 0.  1.
         21   -1    0    0  501  502 -0.00000000000E+00 -0.00000000000E+00 -0.71079863410E+02  0.71079863410E+02  0.00000000000E+00 0.  1.
      99926    2    1    2    0    0 -0.17763568394E-14  0.00000000000E+00  0.66558056898E+03  0.80774029580E+03  0.45765368092E+03 0.  0.
      99925    2    3    3    0    0  0.53189900220E+01  0.50499766875E+02  0.60119527845E+03  0.65816926971E+03  0.26300666656E+03 0.  0.
         25    1    3    3    0    0 -0.53189900220E+01 -0.50499766875E+02  0.64385290535E+02  0.14957102609E+03  0.12509000000E+03 0.  0.
         25    1    4    4    0    0  0.32229341604E+02  0.42542267996E+02  0.36345700670E+03  0.38806839454E+03  0.12509000000E+03 0.  0.
         25    1    4    4    0    0 -0.26910351582E+02  0.79574988784E+01  0.23773827175E+03  0.27010087517E+03  0.12509000000E+03 0.  0.
<mgrwt>
<rscale>  2 0.45765368E+03</rscale>
<asrwt>0</asrwt>
<pdfrwt beam="1">  1       21 0.10833241E+00 0.45765368E+03</pdfrwt>
<pdfrwt beam="2">  1       21 0.10452922E-01 0.45765368E+03</pdfrwt>
<totfact> 0.46418487E+04</totfact>
</mgrwt>
</event>
<event>
 7    0  0.4714446E-002  0.4580749E+03  0.7546771E-02  0.1025341E+00
         21   -1    0    0  502  501  0.00000000000E+00  0.00000000000E+00  0.28451772765E+03  0.28451772765E+03  0.00000000000E+00 0.  1.
         21   -1    0    0  501  502 -0.00000000000E+00 -0.00000000000E+00 -0.18437566825E+03  0.18437566825E+03  0.00000000000E+00 0.  1.
      99926    2    1    2    0    0  0.00000000000E+00  0.00000000000E+00  0.10014205939E+03  0.46889339590E+03  0.45807486797E+03 0.  0.
      99925    2    3    3    0    0 -0.42295313645E+02  0.95399991148E+01 -0.47330967653E+02  0.27071240048E+03  0.26299254388E+03 0.  0.
         25    1    4    4    0    0  0.95837485628E+01 -0.34555149403E+01  0.33138703459E+01  0.12554791379E+03  0.12509000000E+03 0.  0.
         25    1    3    3    0    0  0.42295313645E+02 -0.95399991148E+01  0.14747302705E+03  0.19818099542E+03  0.12509000000E+03 0.  0.
         25    1    4    4    0    0 -0.51879062208E+02  0.12995514055E+02 -0.50644837999E+02  0.14516448669E+03  0.12509000000E+03 0.  0.
<mgrwt>
<rscale>  2 0.45807487E+03</rscale>
<asrwt>0</asrwt>
<pdfrwt beam="1">  1       21 0.41840842E-01 0.45807487E+03</pdfrwt>
<pdfrwt beam="2">  1       21 0.27114069E-01 0.45807487E+03</pdfrwt>
<totfact> 0.65896575E+04</totfact>
</mgrwt>
</event>
<event>
 7    0  0.4714446E-002  0.4589885E+03  0.7546771E-02  0.1025075E+00
         21   -1    0    0  502  501  0.00000000000E+00  0.00000000000E+00  0.96128898594E+03  0.96128898594E+03  0.00000000000E+00 0.  1.
         21   -1    0    0  501  502 -0.00000000000E+00 -0.00000000000E+00 -0.54788526558E+02  0.54788526558E+02  0.00000000000E+00 0.  1.
      99926    2    1    2    0    0  0.00000000000E+00  0.00000000000E+00  0.90650045938E+03  0.10160775125E+04  0.45898848411E+03 0.  0.
      99925    2    3    3    0    0  0.18069821054E+02 -0.86011973282E+02  0.73907239229E+03  0.78935247256E+03  0.26291585522E+03 0.  0.
         25    1    4    4    0    0  0.17026955731E+01 -0.12888936818E+02  0.42232913275E+03  0.44065681469E+03  0.12509000000E+03 0.  0.
         25    1    4    4    0    0  0.16367125481E+02 -0.73123036464E+02  0.31674325954E+03  0.34869565787E+03  0.12509000000E+03 0.  0.
         25    1    3    3    0    0 -0.18069821054E+02  0.86011973282E+02  0.16742806709E+03  0.22672503993E+03  0.12509000000E+03 0.  0.
<mgrwt>
<rscale>  2 0.45898848E+03</rscale>
<asrwt>0</asrwt>
<pdfrwt beam="1">  1       21 0.14136602E+00 0.45898848E+03</pdfrwt>
<pdfrwt beam="2">  1       21 0.80571369E-02 0.45898848E+03</pdfrwt>
<totfact> 0.37369761E+04</totfact>
</mgrwt>
</event>
<event>
 7    0  0.4714446E-002  0.4448541E+03  0.7546771E-02  0.1029268E+00
         21   -1    0    0  502  501  0.00000000000E+00  0.00000000000E+00  0.19879812725E+03  0.19879812725E+03  0.00000000000E+00 0. -1.
         21   -1    0    0  501  502 -0.00000000000E+00 -0.00000000000E+00 -0.24886450249E+03  0.24886450249E+03  0.00000000000E+00 0. -1.
      99926    2    1    2    0    0  0.00000000000E+00 -0.35527136788E-14 -0.50066375240E+02  0.44766262974E+03  0.44485412006E+03 0.  0.
      99925    2    3    3    0    0 -0.44065088125E+02  0.17473210732E+02 -0.12420652029E+03  0.29472043709E+03  0.26303199667E+03 0.  0.
         25    1    3    3    0    0  0.44065088125E+02 -0.17473210732E+02  0.74140145052E+02  0.15294219265E+03  0.12509000000E+03 0.  0.
         25    1    4    4    0    0 -0.42575085825E+02  0.25930203698E+02 -0.98217482145E+02  0.16667091917E+03  0.12509000000E+03 0.  0.
         25    1    4    4    0    0 -0.14900022996E+01 -0.84569929667E+01 -0.25989038148E+02  0.12804951792E+03  0.12509000000E+03 0.  0.
<mgrwt>
<rscale>  2 0.44485412E+03</rscale>
<asrwt>0</asrwt>
<pdfrwt beam="1">  1       21 0.29235019E-01 0.44485412E+03</pdfrwt>
<pdfrwt beam="2">  1       21 0.36597721E-01 0.44485412E+03</pdfrwt>
<totfact> 0.74974338E+04</totfact>
</mgrwt>
</event>
<event>
 7    0  0.4714446E-002  0.4493553E+03  0.7546771E-02  0.1027914E+00
         21   -1    0    0  502  501  0.00000000000E+00  0.00000000000E+00  0.10356466078E+03  0.10356466078E+03  0.00000000000E+00 0. -1.
         21   -1    0    0  501  502 -0.00000000000E+00 -0.00000000000E+00 -0.48742550074E+03  0.48742550074E+03  0.00000000000E+00 0. -1.
      99926    2    1    2    0    0  0.71054273576E-14  0.00000000000E+00 -0.38386083996E+03  0.59099016153E+03  0.44935534554E+03 0.  0.
      99925    2    3    3    0    0  0.48522968974E+02 -0.93507798661E+02 -0.21255348382E+03  0.35415286443E+03  0.26295832554E+03 0.  0.
         25    1    4    4    0    0  0.14731225458E+02 -0.78701674610E+02 -0.14377218377E+03  0.20670972768E+03  0.12509000000E+03 0.  0.
         25    1    4    4    0    0  0.33791743517E+02 -0.14806124051E+02 -0.68781300050E+02  0.14744313675E+03  0.12509000000E+03 0.  0.
         25    1    3    3    0    0 -0.48522968974E+02  0.93507798661E+02 -0.17130735614E+03  0.23683729710E+03  0.12509000000E+03 0.  0.
<mgrwt>
<rscale>  2 0.44935535E+03</rscale>
<asrwt>0</asrwt>
<pdfrwt beam="1">  1       21 0.15230097E-01 0.44935535E+03</pdfrwt>
<pdfrwt beam="2">  1       21 0.71680220E-01 0.44935535E+03</pdfrwt>
<totfact> 0.61954186E+04</totfact>
</mgrwt>
</event>
<event>
 7    0  0.4714446E-002  0.4567381E+03  0.7546771E-02  0.1025732E+00
         21   -1    0    0  502  501  0.00000000000E+00  0.00000000000E+00  0.20839432336E+04  0.20839432336E+04  0.00000000000E+00 0. -1.
         21   -1    0    0  501  502 -0.00000000000E+00 -0.00000000000E+00 -0.25025835743E+02  0.25025835743E+02  0.00000000000E+00 0. -1.
      99926    2    1    2    0    0  0.00000000000E+00  0.00000000000E+00  0.20589173979E+04  0.21089690694E+04  0.45673809153E+03 0.  0.
      99925    2    3    3    0    0  0.39373790111E+02  0.10781952199E+03  0.13087927551E+04  0.13398723053E+04  0.26295241790E+03 0.  0.
         25    1    4    4    0    0 -0.19165773241E+02  0.64574259946E+02  0.62911377114E+03  0.64495643810E+03  0.12509000000E+03 0.  0.
         25    1    4    4    0    0  0.58539563352E+02  0.43245262042E+02  0.67967898399E+03  0.69491586724E+03  0.12509000000E+03 0.  0.
         25    1    3    3    0    0 -0.39373790111E+02 -0.10781952199E+03  0.75012464276E+03  0.76909676403E+03  0.12509000000E+03 0.  0.
<mgrwt>
<rscale>  2 0.45673809E+03</rscale>
<asrwt>0</asrwt>
<pdfrwt beam="1">  1       21 0.30646212E+00 0.45673809E+03</pdfrwt>
<pdfrwt beam="2">  1       21 0.36802714E-02 0.45673809E+03</pdfrwt>
<totfact> 0.11850286E+04</totfact>
</mgrwt>
</event>
<event>
 7    0  0.4714446E-002  0.4572323E+03  0.7546771E-02  0.1025587E+00
         21   -1    0    0  502  501  0.00000000000E+00  0.00000000000E+00  0.15851014785E+03  0.15851014785E+03  0.00000000000E+00 0.  1.
         21   -1    0    0  501  502 -0.00000000000E+00 -0.00000000000E+00 -0.32972874909E+03  0.32972874909E+03  0.00000000000E+00 0.  1.
      99926    2    1    2    0    0  0.71054273576E-14 -0.71054273576E-14 -0.17121860123E+03  0.48823889694E+03  0.45723233818E+03 0.  0.
      99925    2    3    3    0    0  0.59667051962E+02 -0.50293227675E+02 -0.17030742490E+02  0.27490589498E+03  0.26304683816E+03 0.  0.
         25    1    3    3    0    0 -0.59667051962E+02  0.50293227675E+02 -0.15418785874E+03  0.21333300196E+03  0.12509000000E+03 0.  0.
         25    1    4    4    0    0  0.68678701065E+02 -0.41033185806E+02 -0.13542283416E+02  0.14910193781E+03  0.12509000000E+03 0.  0.
         25    1    4    4    0    0 -0.90116491029E+01 -0.92600418696E+01 -0.34884590747E+01  0.12580395718E+03  0.12509000000E+03 0.  0.
<mgrwt>
<rscale>  2 0.45723234E+03</rscale>
<asrwt>0</asrwt>
<pdfrwt beam="1">  1       21 0.23310316E-01 0.45723234E+03</pdfrwt>
<pdfrwt beam="2">  1       21 0.48489522E-01 0.45723234E+03</pdfrwt>
<totfact> 0.64946482E+04</totfact>
</mgrwt>
</event>
<event>
 7    0  0.4714446E-002  0.4535659E+03  0.7546771E-02  0.1026664E+00
         21   -1    0    0  502  501  0.00000000000E+00  0.00000000000E+00  0.59718053210E+03  0.59718053210E+03  0.00000000000E+00 0.  1.
         21   -1    0    0  501  502 -0.00000000000E+00 -0.00000000000E+00 -0.86122193795E+02  0.86122193795E+02  0.00000000000E+00 0.  1.
      99926    2    1    2    0    0  0.14210854715E-13  0.00000000000E+00  0.51105833831E+03  0.68330272590E+03  0.45356586078E+03 0.  0.
      99925    2    3    3    0    0 -0.92718264526E+02 -0.54364412988E+02  0.27561011652E+03  0.39583874690E+03  0.26301180818E+03 0.  0.
         25    1    4    4    0    0 -0.62378440176E+01 -0.33756606834E+02  0.11023291107E+03  0.17022697197E+03  0.12509000000E+03 0.  0.
         25    1    3    3    0    0  0.92718264526E+02  0.54364412988E+02  0.23544822179E+03  0.28746397900E+03  0.12509000000E+03 0.  0.
         25    1    4    4    0    0 -0.86480420508E+02 -0.20607806154E+02  0.16537720544E+03  0.22561177493E+03  0.12509000000E+03 0.  0.
<mgrwt>
<rscale>  2 0.45356586E+03</rscale>
<asrwt>0</asrwt>
<pdfrwt beam="1">  1       21 0.87820665E-01 0.45356586E+03</pdfrwt>
<pdfrwt beam="2">  1       21 0.12665029E-01 0.45356586E+03</pdfrwt>
<totfact> 0.54431224E+04</totfact>
</mgrwt>
</event>
<event>
 7    0  0.4714446E-002  0.4710018E+03  0.7546771E-02  0.1021638E+00
         21   -1    0    0  502  501  0.00000000000E+00  0.00000000000E+00  0.57537288620E+03  0.57537288620E+03  0.00000000000E+00 0.  1.
         21   -1    0    0  501  502 -0.00000000000E+00 -0.00000000000E+00 -0.96390837647E+02  0.96390837647E+02  0.00000000000E+00 0.  1.
      99926    2    1    2    0    0  0.00000000000E+00  0.00000000000E+00  0.47898204856E+03  0.67176372385E+03  0.47100180238E+03 0.  0.
      99925    2    3    3    0    0  0.11486670063E+03 -0.22462848746E+02  0.36979040391E+03  0.46861534988E+03  0.26297616779E+03 0.  0.
         25    1    3    3    0    0 -0.11486670063E+03  0.22462848746E+02  0.10919164465E+03  0.20314837397E+03  0.12509000000E+03 0.  0.
         25    1    4    4    0    0  0.47615360369E+02 -0.50483966061E+02  0.18750374180E+03  0.23584107925E+03  0.12509000000E+03 0.  0.
         25    1    4    4    0    0  0.67251340263E+02  0.28021117316E+02  0.18228666211E+03  0.23277427063E+03  0.12509000000E+03 0.  0.
<mgrwt>
<rscale>  2 0.47100180E+03</rscale>
<asrwt>0</asrwt>
<pdfrwt beam="1">  1       21 0.84613658E-01 0.47100180E+03</pdfrwt>
<pdfrwt beam="2">  1       21 0.14175123E-01 0.47100180E+03</pdfrwt>
<totfact> 0.48101630E+04</totfact>
</mgrwt>
</event>
<event>
 7    0  0.4714446E-002  0.4386577E+03  0.7546771E-02  0.1031159E+00
         21   -1    0    0  502  501  0.00000000000E+00  0.00000000000E+00  0.12971198881E+03  0.12971198881E+03  0.00000000000E+00 0. -1.
         21   -1    0    0  501  502 -0.00000000000E+00 -0.00000000000E+00 -0.37086113530E+03  0.37086113530E+03  0.00000000000E+00 0. -1.
      99926    2    1    2    0    0  0.26645352591E-14  0.00000000000E+00 -0.24114914649E+03  0.50057312411E+03  0.43865765892E+03 0.  0.
      99925    2    3    3    0    0  0.22811485601E+01  0.75343148880E+02 -0.22370270691E+03  0.35348920223E+03  0.26311579446E+03 0.  0.
         25    1    3    3    0    0 -0.22811485601E+01 -0.75343148880E+02 -0.17446439587E+02  0.14708392188E+03  0.12509000000E+03 0.  0.
         25    1    4    4    0    0 -0.26595764252E+02  0.28169862078E+02 -0.72801590766E+02  0.14982808657E+03  0.12509000000E+03 0.  0.
         25    1    4    4    0    0  0.28876912812E+02  0.47173286802E+02 -0.15090111614E+03  0.20366111566E+03  0.12509000000E+03 0.  0.
<mgrwt>
<rscale>  2 0.43865766E+03</rscale>
<asrwt>0</asrwt>
<pdfrwt beam="1">  1       21 0.19075293E-01 0.43865766E+03</pdfrwt>
<pdfrwt beam="2">  1       21 0.54538401E-01 0.43865766E+03</pdfrwt>
<totfact> 0.74424626E+04</totfact>
</mgrwt>
</event>
<event>
 7    0  0.4714446E-002  0.4470162E+03  0.7546771E-02  0.1028616E+00
         21   -1    0    0  502  501  0.00000000000E+00  0.00000000000E+00  0.62629546049E+02  0.62629546049E+02  0.00000000000E+00 0. -1.
         21   -1    0    0  501  502 -0.00000000000E+00 -0.00000000000E+00 -0.79764051296E+03  0.79764051296E+03  0.00000000000E+00 0. -1.
      99926    2    1    2    0    0  0.00000000000E+00  0.00000000000E+00 -0.73501096691E+03  0.86027005901E+03  0.44701616632E+03 0.  0.
      99925    2    3    3    0    0 -0.36536161537E+02  0.98642740591E+02 -0.48120849579E+03  0.55839511169E+03  0.26301749556E+03 0.  0.
         25    1    4    4    0    0 -0.50618159224E+02  0.35413624744E+02 -0.27925949865E+03  0.31216934274E+03  0.12509000000E+03 0.  0.
         25    1    4    4    0    0  0.14081997686E+02  0.63229115847E+02 -0.20194899714E+03  0.24622576895E+03  0.12509000000E+03 0.  0.
         25    1    3    3    0    0  0.36536161537E+02 -0.98642740591E+02 -0.25380247112E+03  0.30187494732E+03  0.12509000000E+03 0.  0.
<mgrwt>
<rscale>  2 0.44701617E+03</rscale>
<asrwt>0</asrwt>
<pdfrwt beam="1">  1       21 0.92102273E-02 0.44701617E+03</pdfrwt>
<pdfrwt beam="2">  1       21 0.11730008E+00 0.44701617E+03</pdfrwt>
<totfact> 0.47913988E+04</totfact>
</mgrwt>
</event>
<event>
 7    0  0.4714446E-002  0.4671448E+03  0.7546771E-02  0.1022729E+00
         21   -1    0    0  502  501  0.00000000000E+00  0.00000000000E+00  0.82081458081E+03  0.82081458081E+03  0.00000000000E+00 0.  1.
         21   -1    0    0  501  502 -0.00000000000E+00 -0.00000000000E+00 -0.66465768843E+02  0.66465768843E+02  0.00000000000E+00 0.  1.
      99926    2    1    2    0    0  0.00000000000E+00 -0.14210854715E-13  0.75434881197E+03  0.88728034966E+03  0.46714482633E+03 0.  0.
      99925    2    3    3    0    0  0.85604866894E+02 -0.70406204505E+02  0.57649505080E+03  0.64322155483E+03  0.26287296958E+03 0.  0.
         25    1    3    3    0    0 -0.85604866894E+02  0.70406204505E+02  0.17785376117E+03  0.24405879482E+03  0.12509000000E+03 0.  0.
         25    1    4    4    0    0  0.41740163682E+02 -0.36928756386E+02  0.37932297149E+03  0.40328575367E+03  0.12509000000E+03 0.  0.
         25    1    4    4    0    0  0.43864703212E+02 -0.33477448118E+02  0.19717207930E+03  0.23993580116E+03  0.12509000000E+03 0.  0.
<mgrwt>
<rscale>  2 0.46714483E+03</rscale>
<asrwt>0</asrwt>
<pdfrwt beam="1">  1       21 0.12070802E+00 0.46714483E+03</pdfrwt>
<pdfrwt beam="2">  1       21 0.97743782E-02 0.46714483E+03</pdfrwt>
<totfact> 0.39859872E+04</totfact>
</mgrwt>
</event>
<event>
 7    0  0.4714446E-002  0.4661570E+03  0.7546771E-02  0.1023011E+00
         21   -1    0    0  502  501  0.00000000000E+00  0.00000000000E+00  0.13021764708E+03  0.13021764708E+03  0.00000000000E+00 0. -1.
         21   -1    0    0  501  502 -0.00000000000E+00 -0.00000000000E+00 -0.41719060454E+03  0.41719060454E+03  0.00000000000E+00 0. -1.
      99926    2    1    2    0    0  0.00000000000E+00  0.00000000000E+00 -0.28697295746E+03  0.54740825162E+03  0.46615696458E+03 0.  0.
      99925    2    3    3    0    0 -0.65857966718E+02  0.80519304090E+02 -0.25665341418E+03  0.38191682309E+03  0.26299972364E+03 0.  0.
         25    1    4    4    0    0 -0.70919743729E+01  0.11473885024E+02 -0.90148903372E+02  0.15477816066E+03  0.12509000000E+03 0.  0.
         25    1    3    3    0    0  0.65857966718E+02 -0.80519304090E+02 -0.30319543273E+02  0.16549142853E+03  0.12509000000E+03 0.  0.
         25    1    4    4    0    0 -0.58765992346E+02  0.69045419066E+02 -0.16650451081E+03  0.22713866243E+03  0.12509000000E+03 0.  0.
<mgrwt>
<rscale>  2 0.46615696E+03</rscale>
<asrwt>0</asrwt>
<pdfrwt beam="1">  1       21 0.19149654E-01 0.46615696E+03</pdfrwt>
<pdfrwt beam="2">  1       21 0.61351558E-01 0.46615696E+03</pdfrwt>
<totfact> 0.56848635E+04</totfact>
</mgrwt>
</event>
<event>
 7    0  0.4714446E-002  0.4555199E+03  0.7546771E-02  0.1026089E+00
         21   -1    0    0  502  501  0.00000000000E+00  0.00000000000E+00  0.23263167137E+03  0.23263167137E+03  0.00000000000E+00 0.  1.
         21   -1    0    0  501  502 -0.00000000000E+00 -0.00000000000E+00 -0.22299020744E+03  0.22299020744E+03  0.00000000000E+00 0.  1.
      99926    2    1    2    0    0 -0.14210854715E-13  0.00000000000E+00  0.96414639248E+01  0.45562187881E+03  0.45551985536E+03 0.  0.
      99925    2    3    3    0    0  0.82220375299E+02 -0.13477985760E+02 -0.71243420608E+02  0.28494171341E+03  0.26301009267E+03 0.  0.
         25    1    3    3    0    0 -0.82220375299E+02  0.13477985760E+02  0.80884884533E+02  0.17068016540E+03  0.12509000000E+03 0.  0.
         25    1    4    4    0    0  0.74457124180E+02  0.14800069524E+02 -0.25306094410E+02  0.14849515788E+03  0.12509000000E+03 0.  0.
         25    1    4    4    0    0  0.77632511187E+01 -0.28278055284E+02 -0.45937326199E+02  0.13644655553E+03  0.12509000000E+03 0.  0.
<mgrwt>
<rscale>  2 0.45551986E+03</rscale>
<asrwt>0</asrwt>
<pdfrwt beam="1">  1       21 0.34210540E-01 0.45551986E+03</pdfrwt>
<pdfrwt beam="2">  1       21 0.32792677E-01 0.45551986E+03</pdfrwt>
<totfact> 0.68216866E+04</totfact>
</mgrwt>
</event>
<event>
 7    0  0.4714446E-002  0.4422927E+03  0.7546771E-02  0.1030046E+00
         21   -1    0    0  502  501  0.00000000000E+00  0.00000000000E+00  0.28937001781E+02  0.28937001781E+02  0.00000000000E+00 0.  1.
         21   -1    0    0  501  502 -0.00000000000E+00 -0.00000000000E+00 -0.16900749912E+04  0.16900749912E+04  0.00000000000E+00 0.  1.
      99926    2    1    2    0    0  0.00000000000E+00  0.00000000000E+00 -0.16611379894E+04  0.17190119930E+04  0.44229267700E+03 0.  0.
      99925    2    3    3    0    0 -0.70913615750E+02  0.71465277796E+02 -0.10633352193E+04  0.11000195158E+04  0.26310666955E+03 0.  0.
         25    1    4    4    0    0 -0.44912971384E+01  0.61524953162E+02 -0.50343882259E+03  0.52240180685E+03  0.12509000000E+03 0.  0.
         25    1    3    3    0    0  0.70913615750E+02 -0.71465277796E+02 -0.59780277012E+03  0.61899247725E+03  0.12509000000E+03 0.  0.
         25    1    4    4    0    0 -0.66422318612E+02  0.99403246341E+01 -0.55989639674E+03  0.57761770891E+03  0.12509000000E+03 0.  0.
<mgrwt>
<rscale>  2 0.44229268E+03</rscale>
<asrwt>0</asrwt>
<pdfrwt beam="1">  1       21 0.42554385E-02 0.44229268E+03</pdfrwt>
<pdfrwt beam="2">  1       21 0.24854061E+00 0.44229268E+03</pdfrwt>
<totfact> 0.20851247E+04</totfact>
</mgrwt>
</event>
<event>
 7    0  0.4714446E-002  0.4420992E+03  0.7546771E-02  0.1030105E+00
         21   -1    0    0  502  501  0.00000000000E+00  0.00000000000E+00  0.87585227262E+02  0.87585227262E+02  0.00000000000E+00 0.  1.
         21   -1    0    0  501  502 -0.00000000000E+00 -0.00000000000E+00 -0.55788995725E+03  0.55788995725E+03  0.00000000000E+00 0.  1.
      99926    2    1    2    0    0  0.71054273576E-14  0.88817841970E-15 -0.47030472999E+03  0.64547518451E+03  0.44209916848E+03 0.  0.
      99925    2    3    3    0    0  0.49327003170E+02  0.47681489793E+01 -0.17181051767E+03  0.31805772717E+03  0.26303227053E+03 0.  0.
         25    1    3    3    0    0 -0.49327003170E+02 -0.47681489793E+01 -0.29849421232E+03  0.32741745735E+03  0.12509000000E+03 0.  0.
         25    1    4    4    0    0 -0.14374011686E+02  0.15068998381E+02 -0.85668307624E+02  0.15303677321E+03  0.12509000000E+03 0.  0.
         25    1    4    4    0    0  0.63701014857E+02 -0.10300849402E+02 -0.86142210044E+02  0.16502095395E+03  0.12509000000E+03 0.  0.
<mgrwt>
<rscale>  2 0.44209917E+03</rscale>
<asrwt>0</asrwt>
<pdfrwt beam="1">  1       21 0.12880181E-01 0.44209917E+03</pdfrwt>
<pdfrwt beam="2">  1       21 0.82042640E-01 0.44209917E+03</pdfrwt>
<totfact> 0.62040020E+04</totfact>
</mgrwt>
</event>
<event>
 7    0  0.4714446E-002  0.4573554E+03  0.7546771E-02  0.1025551E+00
         21   -1    0    0  502  501  0.00000000000E+00  0.00000000000E+00  0.85062507134E+03  0.85062507134E+03  0.00000000000E+00 0.  1.
         21   -1    0    0  501  502 -0.00000000000E+00 -0.00000000000E+00 -0.61476532026E+02  0.61476532026E+02  0.00000000000E+00 0.  1.
      99926    2    1    2    0    0  0.00000000000E+00  0.00000000000E+00  0.78914853932E+03  0.91210160337E+03  0.45735535174E+03 0.  0.
      99925    2    3    3    0    0  0.90584455809E+01 -0.11454268474E+03  0.47446704447E+03  0.55450681403E+03  0.26297670705E+03 0.  0.
         25    1    4    4    0    0  0.72503623516E+01 -0.62305792429E+02  0.16308867641E+03  0.21489533265E+03  0.12509000000E+03 0.  0.
         25    1    4    4    0    0  0.18080832293E+01 -0.52236892312E+02  0.31137836807E+03  0.33961148138E+03  0.12509000000E+03 0.  0.
         25    1    3    3    0    0 -0.90584455809E+01  0.11454268474E+03  0.31468149484E+03  0.35759478933E+03  0.12509000000E+03 0.  0.
<mgrwt>
<rscale>  2 0.45735535E+03</rscale>
<asrwt>0</asrwt>
<pdfrwt beam="1">  1       21 0.12509192E+00 0.45735535E+03</pdfrwt>
<pdfrwt beam="2">  1       21 0.90406670E-02 0.45735535E+03</pdfrwt>
<totfact> 0.41936078E+04</totfact>
</mgrwt>
</event>
<event>
 6    0  0.4714446E-002  0.4569254E+03  0.7546771E-02  0.1025677E+00
         21   -1    0    0  502  501  0.00000000000E+00  0.00000000000E+00  0.65598433206E+03  0.65598433206E+03  0.00000000000E+00 0.  1.
         21   -1    0    0  501  502 -0.00000000000E+00 -0.00000000000E+00 -0.79567773819E+02  0.79567773819E+02  0.00000000000E+00 0.  1.
      99926    2    1    2    0    0 -0.17763568394E-14  0.00000000000E+00  0.57641655824E+03  0.73555210588E+03  0.45692543358E+03 0.  0.
         25    1    3    3    0    0 -0.21927303634E+02  0.91058482026E+01  0.92064950734E+02  0.15712156558E+03  0.12509000000E+03 0.  0.
         25    1    3    3    0    0  0.86324594121E+01  0.73672624902E+02  0.34014854825E+03  0.36993339670E+03  0.12509000000E+03 0.  0.
         25    1    3    3    0    0  0.13294844222E+02 -0.82778473104E+02  0.14420305926E+03  0.20849714361E+03  0.12509000000E+03 0.  0.
<mgrwt>
<rscale>  2 0.45692543E+03</rscale>
<asrwt>0</asrwt>
<pdfrwt beam="1">  1       21 0.96468281E-01 0.45692543E+03</pdfrwt>
<pdfrwt beam="2">  1       21 0.11701144E-01 0.45692543E+03</pdfrwt>
<totfact> 0.50249828E+04</totfact>
</mgrwt>
</event>
<event>
 7    0  0.4714446E-002  0.4605067E+03  0.7546771E-02  0.1024634E+00
         21   -1    0    0  502  501  0.00000000000E+00  0.00000000000E+00  0.37748872786E+03  0.37748872786E+03  0.00000000000E+00 0. -1.
         21   -1    0    0  501  502 -0.00000000000E+00 -0.00000000000E+00 -0.14044550478E+03  0.14044550478E+03  0.00000000000E+00 0. -1.
      99926    2    1    2    0    0 -0.71054273576E-14  0.00000000000E+00  0.23704322308E+03  0.51793423264E+03  0.46050665547E+03 0.  0.
      99925    2    3    3    0    0  0.54196009180E+02  0.10244808069E+03  0.17490685536E+03  0.33643697938E+03  0.26299166602E+03 0.  0.
         25    1    4    4    0    0 -0.43344136575E+01  0.69612885512E+02  0.66963555643E+02  0.15810239358E+03  0.12509000000E+03 0.  0.
         25    1    3    3    0    0 -0.54196009180E+02 -0.10244808069E+03  0.62136367725E+02  0.18149725326E+03  0.12509000000E+03 0.  0.
         25    1    4    4    0    0  0.58530422838E+02  0.32835195176E+02  0.10794329971E+03  0.17833458580E+03  0.12509000000E+03 0.  0.
<mgrwt>
<rscale>  2 0.46050666E+03</rscale>
<asrwt>0</asrwt>
<pdfrwt beam="1">  1       21 0.55513048E-01 0.46050666E+03</pdfrwt>
<pdfrwt beam="2">  1       21 0.20653751E-01 0.46050666E+03</pdfrwt>
<totfact> 0.61305312E+04</totfact>
</mgrwt>
</event>
<event>
 7    0  0.4714446E-002  0.4529761E+03  0.7546771E-02  0.1026838E+00
         21   -1    0    0  502  501  0.00000000000E+00  0.00000000000E+00  0.24330739728E+03  0.24330739728E+03  0.00000000000E+00 0. -1.
         21   -1    0    0  501  502 -0.00000000000E+00 -0.00000000000E+00 -0.21083137704E+03  0.21083137704E+03  0.00000000000E+00 0. -1.
      99926    2    1    2    0    0  0.00000000000E+00  0.00000000000E+00  0.32476020247E+02  0.45413877432E+03  0.45297608596E+03 0.  0.
      99925    2    3    3    0    0 -0.99489296803E+02  0.32833194591E+02  0.58117647928E+02  0.28896874067E+03  0.26296222778E+03 0.  0.
         25    1    4    4    0    0 -0.47689335267E+02  0.56004124414E+02  0.20533150527E+02  0.14656006625E+03  0.12509000000E+03 0.  0.
         25    1    3    3    0    0  0.99489296803E+02 -0.32833194591E+02 -0.25641627681E+02  0.16517003365E+03  0.12509000000E+03 0.  0.
         25    1    4    4    0    0 -0.51799961536E+02 -0.23170929822E+02  0.37584497401E+02  0.14240867442E+03  0.12509000000E+03 0.  0.
<mgrwt>
<rscale>  2 0.45297609E+03</rscale>
<asrwt>0</asrwt>
<pdfrwt beam="1">  1       21 0.35780500E-01 0.45297609E+03</pdfrwt>
<pdfrwt beam="2">  1       21 0.31004614E-01 0.45297609E+03</pdfrwt>
<totfact> 0.69728175E+04</totfact>
</mgrwt>
</event>
<event>
 6    0  0.4714446E-002  0.4544913E+03  0.7546771E-02  0.1026391E+00
         21   -1    0    0  502  501  0.00000000000E+00  0.00000000000E+00  0.64754317463E+03  0.64754317463E+03  0.00000000000E+00 0. -1.
         21   -1    0    0  501  502 -0.00000000000E+00 -0.00000000000E+00 -0.79748491747E+02  0.79748491747E+02  0.00000000000E+00 0. -1.
      99926    2    1    2    0    0  0.35527136788E-14  0.00000000000E+00  0.56779468288E+03  0.72729166637E+03  0.45449132673E+03 0.  0.
         25    1    3    3    0    0 -0.43198945634E+02  0.54386695171E+02  0.18085109739E+03  0.23060504991E+03  0.12509000000E+03 0.  0.
         25    1    3    3    0    0  0.99386842640E+01 -0.72443005910E+02  0.85762597426E+02  0.16837309098E+03  0.12509000000E+03 0.  0.
         25    1    3    3    0    0  0.33260261370E+02  0.18056310739E+02  0.30118098806E+03  0.32831352548E+03  0.12509000000E+03 0.  0.
<mgrwt>
<rscale>  2 0.45449133E+03</rscale>
<asrwt>0</asrwt>
<pdfrwt beam="1">  1       21 0.95226935E-01 0.45449133E+03</pdfrwt>
<pdfrwt beam="2">  1       21 0.11727720E-01 0.45449133E+03</pdfrwt>
<totfact> 0.51652474E+04</totfact>
</mgrwt>
</event>
<event>
 7    0  0.4714446E-002  0.4548052E+03  0.7546771E-02  0.1026299E+00
         21   -1    0    0  502  501  0.00000000000E+00  0.00000000000E+00  0.27625200002E+03  0.27625200002E+03  0.00000000000E+00 0.  1.
         21   -1    0    0  501  502 -0.00000000000E+00 -0.00000000000E+00 -0.18719115609E+03  0.18719115609E+03  0.00000000000E+00 0.  1.
      99926    2    1    2    0    0 -0.35527136788E-14 -0.35527136788E-14  0.89060843922E+02  0.46344315611E+03  0.45480515062E+03 0.  0.
      99925    2    3    3    0    0  0.18702837512E+02  0.20071169298E+02  0.16768569151E+03  0.31316999574E+03  0.26306711526E+03 0.  0.
         25    1    3    3    0    0 -0.18702837512E+02 -0.20071169298E+02 -0.78624847589E+02  0.15027316037E+03  0.12509000000E+03 0.  0.
         25    1    4    4    0    0  0.58280156318E+01  0.25133974405E+02  0.12893473860E+03  0.18148652113E+03  0.12509000000E+03 0.  0.
         25    1    4    4    0    0  0.12874821880E+02 -0.50628051067E+01  0.38750952912E+02  0.13168347461E+03  0.12509000000E+03 0.  0.
<mgrwt>
<rscale>  2 0.45480515E+03</rscale>
<asrwt>0</asrwt>
<pdfrwt beam="1">  1       21 0.40625294E-01 0.45480515E+03</pdfrwt>
<pdfrwt beam="2">  1       21 0.27528111E-01 0.45480515E+03</pdfrwt>
<totfact> 0.68031244E+04</totfact>
</mgrwt>
</event>
<event>
 7    0  0.4714446E-002  0.4523810E+03  0.7546771E-02  0.1027014E+00
         21   -1    0    0  502  501  0.00000000000E+00  0.00000000000E+00  0.89902780388E+02  0.89902780388E+02  0.00000000000E+00 0. -1.
         21   -1    0    0  501  502 -0.00000000000E+00 -0.00000000000E+00 -0.56908310385E+03  0.56908310385E+03  0.00000000000E+00 0. -1.
      99926    2    1    2    0    0 -0.71054273576E-14  0.35527136788E-14 -0.47918032346E+03  0.65898588424E+03  0.45238104871E+03 0.  0.
      99925    2    3    3    0    0 -0.51672076977E+02  0.18041480504E+02 -0.16216028924E+03  0.31381243689E+03  0.26303381452E+03 0.  0.
         25    1    4    4    0    0 -0.60132482121E+02 -0.13271269409E+02 -0.82501569849E+02  0.16200635520E+03  0.12509000000E+03 0.  0.
         25    1    3    3    0    0  0.51672076977E+02 -0.18041480504E+02 -0.31702003422E+03  0.34517344735E+03  0.12509000000E+03 0.  0.
         25    1    4    4    0    0  0.84604051447E+01  0.31312749913E+02 -0.79658719394E+02  0.15180608169E+03  0.12509000000E+03 0.  0.
<mgrwt>
<rscale>  2 0.45238105E+03</rscale>
<asrwt>0</asrwt>
<pdfrwt beam="1">  1       21 0.13220997E-01 0.45238105E+03</pdfrwt>
<pdfrwt beam="2">  1       21 0.83688693E-01 0.45238105E+03</pdfrwt>
<totfact> 0.56341024E+04</totfact>
</mgrwt>
</event>
<event>
 7    0  0.4714446E-002  0.4600862E+03  0.7546771E-02  0.1024756E+00
         21   -1    0    0  502  501  0.00000000000E+00  0.00000000000E+00  0.42940721399E+03  0.42940721399E+03  0.00000000000E+00 0.  1.
         21   -1    0    0  501  502 -0.00000000000E+00 -0.00000000000E+00 -0.12323927622E+03  0.12323927622E+03  0.00000000000E+00 0.  1.
      99926    2    1    2    0    0  0.00000000000E+00  0.00000000000E+00  0.30616793777E+03  0.55264649022E+03  0.46008622782E+03 0.  0.
      99925    2    3    3    0    0 -0.10048050828E+03  0.15249645114E+02  0.11925211307E+03  0.30583903927E+03  0.26265484433E+03 0.  0.
         25    1    3    3    0    0  0.10048050828E+03 -0.15249645114E+02  0.18691582470E+03  0.24680745094E+03  0.12509000000E+03 0.  0.
         25    1    4    4    0    0 -0.32034148566E+02  0.42233975958E+02  0.68056143909E+02  0.15195078882E+03  0.12509000000E+03 0.  0.
         25    1    4    4    0    0 -0.68446359709E+02 -0.26984330844E+02  0.51195969161E+02  0.15388825045E+03  0.12509000000E+03 0.  0.
<mgrwt>
<rscale>  2 0.46008623E+03</rscale>
<asrwt>0</asrwt>
<pdfrwt beam="1">  1       21 0.63148119E-01 0.46008623E+03</pdfrwt>
<pdfrwt beam="2">  1       21 0.18123423E-01 0.46008623E+03</pdfrwt>
<totfact> 0.59270692E+04</totfact>
</mgrwt>
</event>
<event>
 7    0  0.4714446E-002  0.4601305E+03  0.7546771E-02  0.1024743E+00
         21   -1    0    0  502  501  0.00000000000E+00  0.00000000000E+00  0.70652186068E+03  0.70652186068E+03  0.00000000000E+00 0.  1.
         21   -1    0    0  501  502 -0.00000000000E+00 -0.00000000000E+00 -0.74916321928E+02  0.74916321928E+02  0.00000000000E+00 0.  1.
      99926    2    1    2    0    0  0.88817841970E-15 -0.14210854715E-13  0.63160553875E+03  0.78143818261E+03  0.46013049959E+03 0.  0.
      99925    2    3    3    0    0  0.73480009644E+01 -0.11368102994E+03  0.34395137479E+03  0.44771704778E+03  0.26300311209E+03 0.  0.
         25    1    4    4    0    0 -0.18714408317E+01 -0.28726612031E+02  0.11023765227E+03  0.16919978903E+03  0.12509000000E+03 0.  0.
         25    1    3    3    0    0 -0.73480009644E+01  0.11368102994E+03  0.28765416397E+03  0.33372113483E+03  0.12509000000E+03 0.  0.
         25    1    4    4    0    0  0.92194417961E+01 -0.84954417905E+02  0.23371372252E+03  0.27851725875E+03  0.12509000000E+03 0.  0.
<mgrwt>
<rscale>  2 0.46013050E+03</rscale>
<asrwt>0</asrwt>
<pdfrwt beam="1">  1       21 0.10390027E+00 0.46013050E+03</pdfrwt>
<pdfrwt beam="2">  1       21 0.11017107E-01 0.46013050E+03</pdfrwt>
<totfact> 0.46763980E+04</totfact>
</mgrwt>
</event>
<event>
 7    0  0.4714446E-002  0.4570067E+03  0.7546771E-02  0.1025653E+00
         21   -1    0    0  502  501  0.00000000000E+00  0.00000000000E+00  0.53938321323E+03  0.53938321323E+03  0.00000000000E+00 0. -1.
         21   -1    0    0  501  502 -0.00000000000E+00 -0.00000000000E+00 -0.96802765063E+02  0.96802765063E+02  0.00000000000E+00 0. -1.
      99926    2    1    2    0    0  0.00000000000E+00  0.00000000000E+00  0.44258044817E+03  0.63618597830E+03  0.45700672411E+03 0.  0.
      99925    2    3    3    0    0  0.17061755453E+02 -0.11373542323E+03  0.27828481527E+03  0.39982309397E+03  0.26303843458E+03 0.  0.
         25    1    4    4    0    0 -0.12781260375E+02 -0.70130331305E+02  0.98189507116E+02  0.17427079903E+03  0.12509000000E+03 0.  0.
         25    1    3    3    0    0 -0.17061755453E+02  0.11373542323E+03  0.16429563290E+03  0.23636288433E+03  0.12509000000E+03 0.  0.
         25    1    4    4    0    0  0.29843015828E+02 -0.43605091927E+02  0.18009530815E+03  0.22555229494E+03  0.12509000000E+03 0.  0.
<mgrwt>
<rscale>  2 0.45700672E+03</rscale>
<asrwt>0</asrwt>
<pdfrwt beam="1">  1       21 0.79321059E-01 0.45700672E+03</pdfrwt>
<pdfrwt beam="2">  1       21 0.14235701E-01 0.45700672E+03</pdfrwt>
<totfact> 0.55618267E+04</totfact>
</mgrwt>
</event>
<event>
 7    0  0.4714446E-002  0.4467200E+03  0.7546771E-02  0.1028705E+00
         21   -1    0    0  502  501  0.00000000000E+00  0.00000000000E+00  0.61305688136E+02  0.61305688136E+02  0.00000000000E+00 0.  1.
         21   -1    0    0  501  502 -0.00000000000E+00 -0.00000000000E+00 -0.81378580865E+03  0.81378580865E+03  0.00000000000E+00 0.  1.
      99926    2    1    2    0    0 -0.35527136788E-14  0.00000000000E+00 -0.75248012051E+03  0.87509149678E+03  0.44672004206E+03 0.  0.
      99925    2    3    3    0    0 -0.21924906805E+02  0.10120192110E+03 -0.51346469538E+03  0.58613057914E+03  0.26302192309E+03 0.  0.
         25    1    4    4    0    0 -0.42526592979E+02  0.79056928412E+02 -0.28200994166E+03  0.32130301016E+03  0.12509000000E+03 0.  0.
         25    1    4    4    0    0  0.20601686174E+02  0.22144992692E+02 -0.23145475372E+03  0.26482756898E+03  0.12509000000E+03 0.  0.
         25    1    3    3    0    0  0.21924906805E+02 -0.10120192110E+03 -0.23901542513E+03  0.28896091764E+03  0.12509000000E+03 0.  0.
<mgrwt>
<rscale>  2 0.44672004E+03</rscale>
<asrwt>0</asrwt>
<pdfrwt beam="1">  1       21 0.90155430E-02 0.44672004E+03</pdfrwt>
<pdfrwt beam="2">  1       21 0.11967438E+00 0.44672004E+03</pdfrwt>
<totfact> 0.47323423E+04</totfact>
</mgrwt>
</event>
<event>
 7    0  0.4714446E-002  0.4553256E+03  0.7546771E-02  0.1026146E+00
         21   -1    0    0  502  501  0.00000000000E+00  0.00000000000E+00  0.12360365243E+04  0.12360365243E+04  0.00000000000E+00 0. -1.
         21   -1    0    0  501  502 -0.00000000000E+00 -0.00000000000E+00 -0.41932697987E+02  0.41932697987E+02  0.00000000000E+00 0. -1.
      99926    2    1    2    0    0  0.00000000000E+00  0.00000000000E+00  0.11941038263E+04  0.12779692223E+04  0.45532558142E+03 0.  0.
      99925    2    3    3    0    0 -0.11145554694E+03  0.40416105520E+01  0.80939605252E+03  0.85834289700E+03  0.26304350482E+03 0.  0.
         25    1    4    4    0    0 -0.21373020076E+02  0.40340730995E+01  0.44311107529E+03  0.46094252665E+03  0.12509000000E+03 0.  0.
         25    1    3    3    0    0  0.11145554694E+03 -0.40416105520E+01  0.38470777376E+03  0.41962632526E+03  0.12509000000E+03 0.  0.
         25    1    4    4    0    0 -0.90082526864E+02  0.75374525584E-02  0.36628497723E+03  0.39740037034E+03  0.12509000000E+03 0.  0.
<mgrwt>
<rscale>  2 0.45532558E+03</rscale>
<asrwt>0</asrwt>
<pdfrwt beam="1">  1       21 0.18177005E+00 0.45532558E+03</pdfrwt>
<pdfrwt beam="2">  1       21 0.61665740E-02 0.45532558E+03</pdfrwt>
<totfact> 0.29686074E+04</totfact>
</mgrwt>
</event>
<event>
 7    0  0.4714446E-002  0.4529353E+03  0.7546771E-02  0.1026850E+00
         21   -1    0    0  502  501  0.00000000000E+00  0.00000000000E+00  0.14755218998E+04  0.14755218998E+04  0.00000000000E+00 0.  1.
         21   -1    0    0  501  502 -0.00000000000E+00 -0.00000000000E+00 -0.34758949069E+02  0.34758949069E+02  0.00000000000E+00 0.  1.
      99926    2    1    2    0    0  0.00000000000E+00  0.00000000000E+00  0.14407629507E+04  0.15102808488E+04  0.45293527380E+03 0.  0.
      99925    2    3    3    0    0  0.87239755602E+02  0.59055204240E+02  0.10276277830E+04  0.10659538668E+04  0.26294579969E+03 0.  0.
         25    1    3    3    0    0 -0.87239755602E+02 -0.59055204240E+02  0.41313516766E+03  0.44432698203E+03  0.12509000000E+03 0.  0.
         25    1    4    4    0    0  0.53203846213E+02  0.12604588374E+01  0.39971667639E+03  0.42220038784E+03  0.12509000000E+03 0.  0.
         25    1    4    4    0    0  0.34035909389E+02  0.57794745402E+02  0.62791110664E+03  0.64375347895E+03  0.12509000000E+03 0.  0.
<mgrwt>
<rscale>  2 0.45293527E+03</rscale>
<asrwt>0</asrwt>
<pdfrwt beam="1">  1       21 0.21698847E+00 0.45293527E+03</pdfrwt>
<pdfrwt beam="2">  1       21 0.51116111E-02 0.45293527E+03</pdfrwt>
<totfact> 0.23909419E+04</totfact>
</mgrwt>
</event>
<event>
 7    0  0.4714446E-002  0.4449034E+03  0.7546771E-02  0.1029253E+00
         21   -1    0    0  502  501  0.00000000000E+00  0.00000000000E+00  0.30073456929E+03  0.30073456929E+03  0.00000000000E+00 0.  1.
         21   -1    0    0  501  502 -0.00000000000E+00 -0.00000000000E+00 -0.16454629605E+03  0.16454629605E+03  0.00000000000E+00 0.  1.
      99926    2    1    2    0    0  0.00000000000E+00  0.00000000000E+00  0.13618827325E+03  0.46528086534E+03  0.44490340287E+03 0.  0.
      99925    2    3    3    0    0 -0.25504042976E+02  0.95122376239E+02  0.11981003204E+03  0.30523562938E+03  0.26289850322E+03 0.  0.
         25    1    3    3    0    0  0.25504042976E+02 -0.95122376239E+02  0.16378241209E+02  0.16004523596E+03  0.12509000000E+03 0.  0.
         25    1    4    4    0    0  0.15542868458E+02  0.77345053684E+02  0.63696056205E+02  0.16102339509E+03  0.12509000000E+03 0.  0.
         25    1    4    4    0    0 -0.41046911434E+02  0.17777322554E+02  0.56113975834E+02  0.14421223429E+03  0.12509000000E+03 0.  0.
<mgrwt>
<rscale>  2 0.44490340E+03</rscale>
<asrwt>0</asrwt>
<pdfrwt beam="1">  1       21 0.44225672E-01 0.44490340E+03</pdfrwt>
<pdfrwt beam="2">  1       21 0.24197985E-01 0.44490340E+03</pdfrwt>
<totfact> 0.73502194E+04</totfact>
</mgrwt>
</event>
<event>
 7    0  0.4714446E-002  0.4522665E+03  0.7546771E-02  0.1027048E+00
         21   -1    0    0  502  501  0.00000000000E+00  0.00000000000E+00  0.83675307366E+02  0.83675307366E+02  0.00000000000E+00 0. -1.
         21   -1    0    0  501  502 -0.00000000000E+00 -0.00000000000E+00 -0.61112709900E+03  0.61112709900E+03  0.00000000000E+00 0. -1.
      99926    2    1    2    0    0  0.00000000000E+00  0.00000000000E+00 -0.52745179164E+03  0.69480240637E+03  0.45226650483E+03 0.  0.
      99925    2    3    3    0    0  0.69667799829E+02 -0.76244273457E+02 -0.39348250098E+03  0.48441687809E+03  0.26299133377E+03 0.  0.
         25    1    4    4    0    0  0.56613954475E+02 -0.53787310068E+01 -0.17400645783E+03  0.22172015257E+03  0.12509000000E+03 0.  0.
         25    1    3    3    0    0 -0.69667799829E+02  0.76244273457E+02 -0.13396929066E+03  0.21038552827E+03  0.12509000000E+03 0.  0.
         25    1    4    4    0    0  0.13053845354E+02 -0.70865542450E+02 -0.21947604315E+03  0.26269672553E+03  0.12509000000E+03 0.  0.
<mgrwt>
<rscale>  2 0.45226650E+03</rscale>
<asrwt>0</asrwt>
<pdfrwt beam="1">  1       21 0.12305193E-01 0.45226650E+03</pdfrwt>
<pdfrwt beam="2">  1       21 0.89871630E-01 0.45226650E+03</pdfrwt>
<totfact> 0.54345941E+04</totfact>
</mgrwt>
</event>
<event>
 7    0  0.4714446E-002  0.4611119E+03  0.7546771E-02  0.1024459E+00
         21   -1    0    0  502  501  0.00000000000E+00  0.00000000000E+00  0.50345062426E+03  0.50345062426E+03  0.00000000000E+00 0.  1.
         21   -1    0    0  501  502 -0.00000000000E+00 -0.00000000000E+00 -0.10558344809E+03  0.10558344809E+03  0.00000000000E+00 0.  1.
      99926    2    1    2    0    0  0.88817841970E-15  0.00000000000E+00  0.39786717617E+03  0.60903407234E+03  0.46111192936E+03 0.  0.
      99925    2    3    3    0    0 -0.52969386190E+01  0.36645847553E+02  0.39800662558E+03  0.47857908682E+03  0.26316856316E+03 0.  0.
         25    1    3    3    0    0  0.52969386190E+01 -0.36645847553E+02 -0.13944940743E+00  0.13045498552E+03  0.12509000000E+03 0.  0.
         25    1    4    4    0    0 -0.15755618651E+02  0.50221693502E+02  0.24622055357E+03  0.28114502862E+03  0.12509000000E+03 0.  0.
         25    1    4    4    0    0  0.10458680032E+02 -0.13575845949E+02  0.15178607201E+03  0.19743405820E+03  0.12509000000E+03 0.  0.
<mgrwt>
<rscale>  2 0.46111193E+03</rscale>
<asrwt>0</asrwt>
<pdfrwt beam="1">  1       21 0.74036855E-01 0.46111193E+03</pdfrwt>
<pdfrwt beam="2">  1       21 0.15526978E-01 0.46111193E+03</pdfrwt>
<totfact> 0.55401927E+04</totfact>
</mgrwt>
</event>
<event>
 7    0  0.4714446E-002  0.4526084E+03  0.7546771E-02  0.1026947E+00
         21   -1    0    0  502  501  0.00000000000E+00  0.00000000000E+00  0.90810124428E+02  0.90810124428E+02  0.00000000000E+00 0.  1.
         21   -1    0    0  501  502 -0.00000000000E+00 -0.00000000000E+00 -0.56396343426E+03  0.56396343426E+03  0.00000000000E+00 0.  1.
      99926    2    1    2    0    0  0.00000000000E+00  0.00000000000E+00 -0.47315330983E+03  0.65477355868E+03  0.45260839425E+03 0.  0.
      99925    2    3    3    0    0 -0.35356879391E+02 -0.98809632883E+02 -0.34896327793E+03  0.44962940304E+03  0.26339661779E+03 0.  0.
         25    1    3    3    0    0  0.35356879391E+02  0.98809632883E+02 -0.12419003189E+03  0.20514415564E+03  0.12509000000E+03 0.  0.
         25    1    4    4    0    0 -0.21862021992E+02 -0.26601235628E+02 -0.11007661307E+03  0.17014682656E+03  0.12509000000E+03 0.  0.
         25    1    4    4    0    0 -0.13494857399E+02 -0.72208397255E+02 -0.23888666487E+03  0.27948257649E+03  0.12509000000E+03 0.  0.
<mgrwt>
<rscale>  2 0.45260839E+03</rscale>
<asrwt>0</asrwt>
<pdfrwt beam="1">  1       21 0.13354430E-01 0.45260839E+03</pdfrwt>
<pdfrwt beam="2">  1       21 0.82935801E-01 0.45260839E+03</pdfrwt>
<totfact> 0.56485340E+04</totfact>
</mgrwt>
</event>
<event>
 7    0  0.4714446E-002  0.4453824E+03  0.7546771E-02  0.1029108E+00
         21   -1    0    0  502  501  0.00000000000E+00  0.00000000000E+00  0.57994698642E+02  0.57994698642E+02  0.00000000000E+00 0. -1.
         21   -1    0    0  501  502 -0.00000000000E+00 -0.00000000000E+00 -0.85510173415E+03  0.85510173415E+03  0.00000000000E+00 0. -1.
      99926    2    1    2    0    0  0.00000000000E+00  0.00000000000E+00 -0.79710703551E+03  0.91309643279E+03  0.44538238573E+03 0.  0.
      99925    2    3    3    0    0  0.84076078947E+02 -0.61119694215E+02 -0.51425267320E+03  0.58681664113E+03  0.26285652805E+03 0.  0.
         25    1    3    3    0    0 -0.84076078947E+02  0.61119694215E+02 -0.28285436231E+03  0.32627979166E+03  0.12509000000E+03 0.  0.
         25    1    4    4    0    0  0.82244197133E+02 -0.20559554562E+02 -0.27973587875E+03  0.31794099013E+03  0.12509000000E+03 0.  0.
         25    1    4    4    0    0  0.18318818143E+01 -0.40560139653E+02 -0.23451679445E+03  0.26887565100E+03  0.12509000000E+03 0.  0.
<mgrwt>
<rscale>  2 0.44538239E+03</rscale>
<asrwt>0</asrwt>
<pdfrwt beam="1">  1       21 0.85286321E-02 0.44538239E+03</pdfrwt>
<pdfrwt beam="2">  1       21 0.12575026E+00 0.44538239E+03</pdfrwt>
<totfact> 0.46040059E+04</totfact>
</mgrwt>
</event>
<event>
 7    0  0.4714446E-002  0.4535636E+03  0.7546771E-02  0.1026665E+00
         21   -1    0    0  502  501  0.00000000000E+00  0.00000000000E+00  0.51762910130E+03  0.51762910130E+03  0.00000000000E+00 0. -1.
         21   -1    0    0  501  502 -0.00000000000E+00 -0.00000000000E+00 -0.99356833930E+02  0.99356833930E+02  0.00000000000E+00 0. -1.
      99926    2    1    2    0    0 -0.71054273576E-14  0.14210854715E-13  0.41827226737E+03  0.61698593523E+03  0.45356361695E+03 0.  0.
      99925    2    3    3    0    0  0.33753257470E+02 -0.90898315539E+02  0.33971361084E+03  0.44029197163E+03  0.26277347037E+03 0.  0.
         25    1    4    4    0    0  0.46658667842E+02 -0.36427774413E+02  0.13067281983E+03  0.19033367536E+03  0.12509000000E+03 0.  0.
         25    1    3    3    0    0 -0.33753257470E+02  0.90898315539E+02  0.78558656529E+02  0.17669396360E+03  0.12509000000E+03 0.  0.
         25    1    4    4    0    0 -0.12905410372E+02 -0.54470541125E+02  0.20904079101E+03  0.24995829627E+03  0.12509000000E+03 0.  0.
<mgrwt>
<rscale>  2 0.45356362E+03</rscale>
<asrwt>0</asrwt>
<pdfrwt beam="1">  1       21 0.76121925E-01 0.45356362E+03</pdfrwt>
<pdfrwt beam="2">  1       21 0.14611299E-01 0.45356362E+03</pdfrwt>
<totfact> 0.58303284E+04</totfact>
</mgrwt>
</event>
<event>
 7    0  0.4714446E-002  0.4420729E+03  0.7546771E-02  0.1030113E+00
         21   -1    0    0  502  501  0.00000000000E+00  0.00000000000E+00  0.11900152397E+03  0.11900152397E+03  0.00000000000E+00 0. -1.
         21   -1    0    0  501  502 -0.00000000000E+00 -0.00000000000E+00 -0.41055863004E+03  0.41055863004E+03  0.00000000000E+00 0. -1.
      99926    2    1    2    0    0  0.71054273576E-14  0.00000000000E+00 -0.29155710606E+03  0.52956015401E+03  0.44207285668E+03 0.  0.
      99925    2    3    3    0    0  0.59062393128E+02 -0.51523104830E+02 -0.26122570683E+03  0.37886012583E+03  0.26296982417E+03 0.  0.
         25    1    4    4    0    0  0.51532538745E+02 -0.35838888125E+02 -0.91149405096E+02  0.16702021016E+03  0.12509000000E+03 0.  0.
         25    1    4    4    0    0  0.75298543828E+01 -0.15684216704E+02 -0.17007630173E+03  0.21183991567E+03  0.12509000000E+03 0.  0.
         25    1    3    3    0    0 -0.59062393128E+02  0.51523104830E+02 -0.30331399236E+02  0.15070002818E+03  0.12509000000E+03 0.  0.
<mgrwt>
<rscale>  2 0.44207286E+03</rscale>
<asrwt>0</asrwt>
<pdfrwt beam="1">  1       21 0.17500225E-01 0.44207286E+03</pdfrwt>
<pdfrwt beam="2">  1       21 0.60376267E-01 0.44207286E+03</pdfrwt>
<totfact> 0.70144764E+04</totfact>
</mgrwt>
</event>
<event>
 7    0  0.4714446E-002  0.4553987E+03  0.7546771E-02  0.1026124E+00
         21   -1    0    0  502  501  0.00000000000E+00  0.00000000000E+00  0.13241039266E+04  0.13241039266E+04  0.00000000000E+00 0. -1.
         21   -1    0    0  501  502 -0.00000000000E+00 -0.00000000000E+00 -0.39156293953E+02  0.39156293953E+02  0.00000000000E+00 0. -1.
      99926    2    1    2    0    0  0.00000000000E+00 -0.14210854715E-13  0.12849476327E+04  0.13632602206E+04  0.45539873770E+03 0.  0.
      99925    2    3    3    0    0 -0.83314603907E+02 -0.74070214938E+02  0.74320011650E+03  0.79619267667E+03  0.26296129994E+03 0.  0.
         25    1    3    3    0    0  0.83314603907E+02  0.74070214938E+02  0.54174751616E+03  0.56706754388E+03  0.12509000000E+03 0.  0.
         25    1    4    4    0    0 -0.40000214295E+02 -0.78701153366E+02  0.40603905054E+03  0.43394597285E+03  0.12509000000E+03 0.  0.
         25    1    4    4    0    0 -0.43314389612E+02  0.46309384282E+01  0.33716106595E+03  0.36224670383E+03  0.12509000000E+03 0.  0.
<mgrwt>
<rscale>  2 0.45539874E+03</rscale>
<asrwt>0</asrwt>
<pdfrwt beam="1">  1       21 0.19472114E+00 0.45539874E+03</pdfrwt>
<pdfrwt beam="2">  1       21 0.57582794E-02 0.45539874E+03</pdfrwt>
<totfact> 0.27243198E+04</totfact>
</mgrwt>
</event>
<event>
 7    0  0.4714446E-002  0.4595592E+03  0.7546771E-02  0.1024909E+00
         21   -1    0    0  502  501  0.00000000000E+00  0.00000000000E+00  0.30257697628E+03  0.30257697628E+03  0.00000000000E+00 0.  1.
         21   -1    0    0  501  502 -0.00000000000E+00 -0.00000000000E+00 -0.17449665612E+03  0.17449665612E+03  0.00000000000E+00 0.  1.
      99926    2    1    2    0    0  0.00000000000E+00  0.00000000000E+00  0.12808032016E+03  0.47707363240E+03  0.45955922613E+03 0.  0.
      99925    2    3    3    0    0  0.68261592247E+02 -0.17661646706E+02  0.17771395135E+03  0.32514409549E+03  0.26299212077E+03 0.  0.
         25    1    4    4    0    0  0.67297743449E+02 -0.10375613993E+02  0.64805639499E+02  0.15647338000E+03  0.12509000000E+03 0.  0.
         25    1    4    4    0    0  0.96384879785E+00 -0.72860327130E+01  0.11290831185E+03  0.16867071549E+03  0.12509000000E+03 0.  0.
         25    1    3    3    0    0 -0.68261592247E+02  0.17661646706E+02 -0.49633631195E+02  0.15192953691E+03  0.12509000000E+03 0.  0.
<mgrwt>
<rscale>  2 0.45955923E+03</rscale>
<asrwt>0</asrwt>
<pdfrwt beam="1">  1       21 0.44496614E-01 0.45955923E+03</pdfrwt>
<pdfrwt beam="2">  1       21 0.25661273E-01 0.45955923E+03</pdfrwt>
<totfact> 0.64546660E+04</totfact>
</mgrwt>
</event>
<event>
 7    0  0.4714446E-002  0.4502758E+03  0.7546771E-02  0.1027640E+00
         21   -1    0    0  502  501  0.00000000000E+00  0.00000000000E+00  0.86988317826E+03  0.86988317826E+03  0.00000000000E+00 0.  1.
         21   -1    0    0  501  502 -0.00000000000E+00 -0.00000000000E+00 -0.58268816300E+02  0.58268816300E+02  0.00000000000E+00 0.  1.
      99926    2    1    2    0    0  0.71054273576E-14  0.35527136788E-14  0.81161436196E+03  0.92815199456E+03  0.45027575158E+03 0.  0.
      99925    2    3    3    0    0  0.40621400750E+02  0.10192182681E+02  0.30581000060E+03  0.40542879931E+03  0.26286646049E+03 0.  0.
         25    1    4    4    0    0  0.44298127404E+02  0.37877798739E+02  0.15680620846E+03  0.20888452992E+03  0.12509000000E+03 0.  0.
         25    1    4    4    0    0 -0.36767266544E+01 -0.27685616058E+02  0.14900379214E+03  0.19654426939E+03  0.12509000000E+03 0.  0.
         25    1    3    3    0    0 -0.40621400750E+02 -0.10192182681E+02  0.50580436135E+03  0.52272319525E+03  0.12509000000E+03 0.  0.
<mgrwt>
<rscale>  2 0.45027575E+03</rscale>
<asrwt>0</asrwt>
<pdfrwt beam="1">  1       21 0.12792399E+00 0.45027575E+03</pdfrwt>
<pdfrwt beam="2">  1       21 0.85689441E-02 0.45027575E+03</pdfrwt>
<totfact> 0.43628376E+04</totfact>
</mgrwt>
</event>
<event>
 7    0  0.4714446E-002  0.4591200E+03  0.7546771E-02  0.1025037E+00
         21   -1    0    0  502  501  0.00000000000E+00  0.00000000000E+00  0.14757233430E+03  0.14757233430E+03  0.00000000000E+00 0.  1.
         21   -1    0    0  501  502 -0.00000000000E+00 -0.00000000000E+00 -0.35709804767E+03  0.35709804767E+03  0.00000000000E+00 0.  1.
      99926    2    1    2    0    0  0.00000000000E+00  0.17763568394E-14 -0.20952571337E+03  0.50467038198E+03  0.45911999508E+03 0.  0.
      99925    2    3    3    0    0 -0.10977173479E+03 -0.11828538209E+02 -0.88920046301E+02  0.29879910398E+03  0.26302924140E+03 0.  0.
         25    1    4    4    0    0 -0.69955158520E+02 -0.15988089486E+02 -0.77884403501E+01  0.14442129729E+03  0.12509000000E+03 0.  0.
         25    1    4    4    0    0 -0.39816576273E+02  0.41595512771E+01 -0.81131605951E+02  0.15437780669E+03  0.12509000000E+03 0.  0.
         25    1    3    3    0    0  0.10977173479E+03  0.11828538209E+02 -0.12060566707E+03  0.20587127800E+03  0.12509000000E+03 0.  0.
<mgrwt>
<rscale>  2 0.45912000E+03</rscale>
<asrwt>0</asrwt>
<pdfrwt beam="1">  1       21 0.21701814E-01 0.45912000E+03</pdfrwt>
<pdfrwt beam="2">  1       21 0.52514419E-01 0.45912000E+03</pdfrwt>
<totfact> 0.62862670E+04</totfact>
</mgrwt>
</event>
<event>
 7    0  0.4714446E-002  0.4449073E+03  0.7546771E-02  0.1029252E+00
         21   -1    0    0  502  501  0.00000000000E+00  0.00000000000E+00  0.62327874230E+02  0.62327874230E+02  0.00000000000E+00 0.  1.
         21   -1    0    0  501  502 -0.00000000000E+00 -0.00000000000E+00 -0.79395647765E+03  0.79395647765E+03  0.00000000000E+00 0.  1.
      99926    2    1    2    0    0 -0.14210854715E-13  0.44408920985E-15 -0.73162860342E+03  0.85628435188E+03  0.44490726891E+03 0.  0.
      99925    2    3    3    0    0 -0.96192145643E+02  0.20519328058E+01 -0.53786290856E+03  0.60638478822E+03  0.26296171522E+03 0.  0.
         25    1    4    4    0    0 -0.65005435539E+02  0.30600834023E+02 -0.32967045396E+03  0.35985029388E+03  0.12509000000E+03 0.  0.
         25    1    3    3    0    0  0.96192145643E+02 -0.20519328058E+01 -0.19376569486E+03  0.24989956366E+03  0.12509000000E+03 0.  0.
         25    1    4    4    0    0 -0.31186710104E+02 -0.28548901217E+02 -0.20819245460E+03  0.24653449434E+03  0.12509000000E+03 0.  0.
<mgrwt>
<rscale>  2 0.44490727E+03</rscale>
<asrwt>0</asrwt>
<pdfrwt beam="1">  1       21 0.91658647E-02 0.44490727E+03</pdfrwt>
<pdfrwt beam="2">  1       21 0.11675830E+00 0.44490727E+03</pdfrwt>
<totfact> 0.48918690E+04</totfact>
</mgrwt>
</event>
<event>
 7    0  0.4714446E-002  0.4552408E+03  0.7546771E-02  0.1026171E+00
         21   -1    0    0  502  501  0.00000000000E+00  0.00000000000E+00  0.95805872545E+02  0.95805872545E+02  0.00000000000E+00 0. -1.
         21   -1    0    0  501  502 -0.00000000000E+00 -0.00000000000E+00 -0.54079193201E+03  0.54079193201E+03  0.00000000000E+00 0. -1.
      99926    2    1    2    0    0  0.00000000000E+00  0.00000000000E+00 -0.44498605947E+03  0.63659780456E+03  0.45524078425E+03 0.  0.
      99925    2    3    3    0    0  0.55079634439E+02  0.59821146313E+02 -0.16866682978E+03  0.32257207237E+03  0.26266310501E+03 0.  0.
         25    1    4    4    0    0  0.41604454762E+02 -0.67561292655E+01 -0.70363057258E+02  0.14958289964E+03  0.12509000000E+03 0.  0.
         25    1    4    4    0    0  0.13475179676E+02  0.66577275579E+02 -0.98303772518E+02  0.17298917273E+03  0.12509000000E+03 0.  0.
         25    1    3    3    0    0 -0.55079634439E+02 -0.59821146313E+02 -0.27631922969E+03  0.31402573218E+03  0.12509000000E+03 0.  0.
<mgrwt>
<rscale>  2 0.45524078E+03</rscale>
<asrwt>0</asrwt>
<pdfrwt beam="1">  1       21 0.14089099E-01 0.45524078E+03</pdfrwt>
<pdfrwt beam="2">  1       21 0.79528225E-01 0.45524078E+03</pdfrwt>
<totfact> 0.56373064E+04</totfact>
</mgrwt>
</event>
<event>
 7    0  0.4714446E-002  0.4514544E+03  0.7546771E-02  0.1027289E+00
         21   -1    0    0  502  501  0.00000000000E+00  0.00000000000E+00  0.19978277082E+03  0.19978277082E+03  0.00000000000E+00 0.  1.
         21   -1    0    0  501  502 -0.00000000000E+00 -0.00000000000E+00 -0.25504081025E+03  0.25504081025E+03  0.00000000000E+00 0.  1.
      99926    2    1    2    0    0  0.00000000000E+00 -0.71054273576E-14 -0.55258039434E+02  0.45482358107E+03  0.45145435979E+03 0.  0.
      99925    2    3    3    0    0  0.13911837371E+02  0.58811648325E+02 -0.12730385873E+03  0.29832930841E+03  0.26294819758E+03 0.  0.
         25    1    4    4    0    0  0.31233085770E+02  0.40693015890E+02 -0.99212854406E+02  0.16769652879E+03  0.12509000000E+03 0.  0.
         25    1    3    3    0    0 -0.13911837371E+02 -0.58811648325E+02  0.72045819293E+02  0.15649427266E+03  0.12509000000E+03 0.  0.
         25    1    4    4    0    0 -0.17321248399E+02  0.18118632435E+02 -0.28091004321E+02  0.13063277962E+03  0.12509000000E+03 0.  0.
<mgrwt>
<rscale>  2 0.45145436E+03</rscale>
<asrwt>0</asrwt>
<pdfrwt beam="1">  1       21 0.29379819E-01 0.45145436E+03</pdfrwt>
<pdfrwt beam="2">  1       21 0.37506001E-01 0.45145436E+03</pdfrwt>
<totfact> 0.70532823E+04</totfact>
</mgrwt>
</event>
<event>
 7    0  0.4714446E-002  0.4570144E+03  0.7546771E-02  0.1025651E+00
         21   -1    0    0  502  501  0.00000000000E+00  0.00000000000E+00  0.43342114208E+03  0.43342114208E+03  0.00000000000E+00 0.  1.
         21   -1    0    0  501  502 -0.00000000000E+00 -0.00000000000E+00 -0.12047298590E+03  0.12047298590E+03  0.00000000000E+00 0.  1.
      99926    2    1    2    0    0  0.00000000000E+00  0.00000000000E+00  0.31294815618E+03  0.55389412799E+03  0.45701439426E+03 0.  0.
      99925    2    3    3    0    0 -0.78456367462E+02  0.80903979357E+02  0.22470274668E+03  0.36380042512E+03  0.26298016937E+03 0.  0.
         25    1    4    4    0    0 -0.44188292411E+02  0.82382657903E+02  0.11531312754E+03  0.19412401447E+03  0.12509000000E+03 0.  0.
         25    1    4    4    0    0 -0.34268075051E+02 -0.14786785464E+01  0.10938961914E+03  0.16967641066E+03  0.12509000000E+03 0.  0.
         25    1    3    3    0    0  0.78456367462E+02 -0.80903979357E+02  0.88245409496E+02  0.19009370286E+03  0.12509000000E+03 0.  0.
<mgrwt>
<rscale>  2 0.45701439E+03</rscale>
<asrwt>0</asrwt>
<pdfrwt beam="1">  1       21 0.63738403E-01 0.45701439E+03</pdfrwt>
<pdfrwt beam="2">  1       21 0.17716616E-01 0.45701439E+03</pdfrwt>
<totfact> 0.60637788E+04</totfact>
</mgrwt>
</event>
<event>
 7    0  0.4714446E-002  0.4595433E+03  0.7546771E-02  0.1024914E+00
         21   -1    0    0  502  501  0.00000000000E+00  0.00000000000E+00  0.19572305672E+02  0.19572305672E+02  0.00000000000E+00 0. -1.
         21   -1    0    0  501  502 -0.00000000000E+00 -0.00000000000E+00 -0.26974340749E+04  0.26974340749E+04  0.00000000000E+00 0. -1.
      99926    2    1    2    0    0 -0.44408920985E-14  0.00000000000E+00 -0.26778617692E+04  0.27170063806E+04  0.45954326997E+03 0.  0.
      99925    2    3    3    0    0  0.28599111810E+01 -0.84602284494E+02 -0.21591467311E+04  0.21767485491E+04  0.26297131738E+03 0.  0.
         25    1    4    4    0    0  0.34980342607E+02 -0.22014507146E+02 -0.94110544006E+03  0.95028165315E+03  0.12509000000E+03 0.  0.
         25    1    4    4    0    0 -0.32120431426E+02 -0.62587777348E+02 -0.12180412910E+04  0.12264668959E+04  0.12509000000E+03 0.  0.
         25    1    3    3    0    0 -0.28599111810E+01  0.84602284494E+02 -0.51871503812E+03  0.54025783150E+03  0.12509000000E+03 0.  0.
<mgrwt>
<rscale>  2 0.45954327E+03</rscale>
<asrwt>0</asrwt>
<pdfrwt beam="1">  1       21 0.28782787E-02 0.45954327E+03</pdfrwt>
<pdfrwt beam="2">  1       21 0.39668169E+00 0.45954327E+03</pdfrwt>
<totfact> 0.49785155E+03</totfact>
</mgrwt>
</event>
<event>
 7    0  0.4714446E-002  0.4563094E+03  0.7546771E-02  0.1025857E+00
         21   -1    0    0  502  501  0.00000000000E+00  0.00000000000E+00  0.28967322493E+03  0.28967322493E+03  0.00000000000E+00 0. -1.
         21   -1    0    0  501  502 -0.00000000000E+00 -0.00000000000E+00 -0.17970098246E+03  0.17970098246E+03  0.00000000000E+00 0. -1.
      99926    2    1    2    0    0  0.14210854715E-13  0.00000000000E+00  0.10997224247E+03  0.46937420738E+03  0.45630938237E+03 0.  0.
      99925    2    3    3    0    0  0.80447751335E+02 -0.10167439050E+02 -0.14065442805E+02  0.27544619759E+03  0.26286413520E+03 0.  0.
         25    1    3    3    0    0 -0.80447751335E+02  0.10167439050E+02  0.12403768528E+03  0.19392800979E+03  0.12509000000E+03 0.  0.
         25    1    4    4    0    0 -0.97771260404E+00 -0.10469999737E+02 -0.12816577068E+02  0.12618379280E+03  0.12509000000E+03 0.  0.
         25    1    4    4    0    0  0.81425463940E+02  0.30256068651E+00 -0.12488657371E+01  0.14926240480E+03  0.12509000000E+03 0.  0.
<mgrwt>
<rscale>  2 0.45630938E+03</rscale>
<asrwt>0</asrwt>
<pdfrwt beam="1">  1       21 0.42599004E-01 0.45630938E+03</pdfrwt>
<pdfrwt beam="2">  1       21 0.26426615E-01 0.45630938E+03</pdfrwt>
<totfact> 0.66785994E+04</totfact>
</mgrwt>
</event>
<event>
 7    0  0.4714446E-002  0.4557096E+03  0.7546771E-02  0.1026033E+00
         21   -1    0    0  502  501  0.00000000000E+00  0.00000000000E+00  0.42239570971E+03  0.42239570971E+03  0.00000000000E+00 0. -1.
         21   -1    0    0  501  502 -0.00000000000E+00 -0.00000000000E+00 -0.12291273042E+03  0.12291273042E+03  0.00000000000E+00 0. -1.
      99926    2    1    2    0    0 -0.35527136788E-14  0.00000000000E+00  0.29948297929E+03  0.54530844012E+03  0.45570960049E+03 0.  0.
      99925    2    3    3    0    0  0.19478412957E+02 -0.20835419234E+02  0.56652614831E+02  0.27066755229E+03  0.26313092146E+03 0.  0.
         25    1    4    4    0    0 -0.19543220675E+02 -0.98156648240E+00  0.19197048537E+00  0.12661139720E+03  0.12509000000E+03 0.  0.
         25    1    4    4    0    0  0.39021633632E+02 -0.19853852752E+02  0.56460644346E+02  0.14405615509E+03  0.12509000000E+03 0.  0.
         25    1    3    3    0    0 -0.19478412957E+02  0.20835419234E+02  0.24283036446E+03  0.27464088783E+03  0.12509000000E+03 0.  0.
<mgrwt>
<rscale>  2 0.45570960E+03</rscale>
<asrwt>0</asrwt>
<pdfrwt beam="1">  1       21 0.62117016E-01 0.45570960E+03</pdfrwt>
<pdfrwt beam="2">  1       21 0.18075402E-01 0.45570960E+03</pdfrwt>
<totfact> 0.61829699E+04</totfact>
</mgrwt>
</event>
<event>
 7    0  0.4714446E-002  0.4552056E+03  0.7546771E-02  0.1026181E+00
         21   -1    0    0  502  501  0.00000000000E+00  0.00000000000E+00  0.13022313210E+03  0.13022313210E+03  0.00000000000E+00 0.  1.
         21   -1    0    0  501  502 -0.00000000000E+00 -0.00000000000E+00 -0.39780216531E+03  0.39780216531E+03  0.00000000000E+00 0.  1.
      99926    2    1    2    0    0  0.00000000000E+00  0.00000000000E+00 -0.26757903321E+03  0.52802529741E+03  0.45520564110E+03 0.  0.
      99925    2    3    3    0    0  0.68163666856E+02 -0.67920432560E+02 -0.23789650152E+03  0.36743877423E+03  0.26297725517E+03 0.  0.
         25    1    4    4    0    0  0.19189482039E+02 -0.17904434564E+02 -0.15836743901E+03  0.20351058655E+03  0.12509000000E+03 0.  0.
         25    1    3    3    0    0 -0.68163666856E+02  0.67920432560E+02 -0.29682531684E+02  0.16058652318E+03  0.12509000000E+03 0.  0.
         25    1    4    4    0    0  0.48974184817E+02 -0.50015997996E+02 -0.79529062511E+02  0.16392818769E+03  0.12509000000E+03 0.  0.
<mgrwt>
<rscale>  2 0.45520564E+03</rscale>
<asrwt>0</asrwt>
<pdfrwt beam="1">  1       21 0.19150461E-01 0.45520564E+03</pdfrwt>
<pdfrwt beam="2">  1       21 0.58500319E-01 0.45520564E+03</pdfrwt>
<totfact> 0.63237272E+04</totfact>
</mgrwt>
</event>
<event>
 7    0  0.4714446E-002  0.4015480E+03  0.7546771E-02  0.1043245E+00
         21   -1    0    0  502  501  0.00000000000E+00  0.00000000000E+00  0.10451106541E+04  0.10451106541E+04  0.00000000000E+00 0. -1.
         21   -1    0    0  501  502 -0.00000000000E+00 -0.00000000000E+00 -0.38570264130E+02  0.38570264130E+02  0.00000000000E+00 0. -1.
      99926    2    1    2    0    0  0.00000000000E+00  0.00000000000E+00  0.10065403900E+04  0.10836809183E+04  0.40154797459E+03 0.  0.
      99925    2    3    3    0    0 -0.47990383473E+02  0.18947072137E+01  0.65035925775E+03  0.70312977335E+03  0.26290235299E+03 0.  0.
         25    1    3    3    0    0  0.47990383473E+02 -0.18947072137E+01  0.35618113224E+03  0.38055114490E+03  0.12509000000E+03 0.  0.
         25    1    4    4    0    0 -0.30107350194E+02  0.37002006041E+02  0.37377060989E+03  0.39702339717E+03  0.12509000000E+03 0.  0.
         25    1    4    4    0    0 -0.17883033279E+02 -0.35107298827E+02  0.27658864786E+03  0.30610637618E+03  0.12509000000E+03 0.  0.
<mgrwt>
<rscale>  2 0.40154797E+03</rscale>
<asrwt>0</asrwt>
<pdfrwt beam="1">  1       21 0.15369273E+00 0.40154797E+03</pdfrwt>
<pdfrwt beam="2">  1       21 0.56720983E-02 0.40154797E+03</pdfrwt>
<totfact> 0.56034908E+04</totfact>
</mgrwt>
</event>
<event>
 7    0  0.4714446E-002  0.4538589E+03  0.7546771E-02  0.1026577E+00
         21   -1    0    0  502  501  0.00000000000E+00  0.00000000000E+00  0.37718902724E+03  0.37718902724E+03  0.00000000000E+00 0.  1.
         21   -1    0    0  501  502 -0.00000000000E+00 -0.00000000000E+00 -0.13652828846E+03  0.13652828846E+03  0.00000000000E+00 0.  1.
      99926    2    1    2    0    0  0.17763568394E-14  0.00000000000E+00  0.24066073878E+03  0.51371731570E+03  0.45385888695E+03 0.  0.
      99925    2    3    3    0    0  0.98600176747E+01 -0.92044981867E+02  0.80074614893E+02  0.29009953930E+03  0.26301387819E+03 0.  0.
         25    1    3    3    0    0 -0.98600176747E+01  0.92044981867E+02  0.16058612389E+03  0.22361777640E+03  0.12509000000E+03 0.  0.
         25    1    4    4    0    0  0.26458934155E+02 -0.45603729985E+02  0.44269356152E+01  0.13581929629E+03  0.12509000000E+03 0.  0.
         25    1    4    4    0    0 -0.16598916480E+02 -0.46441251883E+02  0.75647679277E+02  0.15428024302E+03  0.12509000000E+03 0.  0.
<mgrwt>
<rscale>  2 0.45385889E+03</rscale>
<asrwt>0</asrwt>
<pdfrwt beam="1">  1       21 0.55468974E-01 0.45385889E+03</pdfrwt>
<pdfrwt beam="2">  1       21 0.20077690E-01 0.45385889E+03</pdfrwt>
<totfact> 0.64903039E+04</totfact>
</mgrwt>
</event>
<event>
 7    0  0.4714446E-002  0.4557502E+03  0.7546771E-02  0.1026021E+00
         21   -1    0    0  502  501  0.00000000000E+00  0.00000000000E+00  0.13071344431E+03  0.13071344431E+03  0.00000000000E+00 0.  1.
         21   -1    0    0  501  502 -0.00000000000E+00 -0.00000000000E+00 -0.39725874657E+03  0.39725874657E+03  0.00000000000E+00 0.  1.
      99926    2    1    2    0    0  0.27755575616E-16  0.00000000000E+00 -0.26654530226E+03  0.52797219088E+03  0.45575019055E+03 0.  0.
      99925    2    3    3    0    0 -0.23018352909E+00  0.95571515232E+02 -0.23922709052E+03  0.36819809942E+03  0.26307084991E+03 0.  0.
         25    1    4    4    0    0 -0.71118014437E+01  0.11291997175E+02 -0.13619723653E+03  0.18540572337E+03  0.12509000000E+03 0.  0.
         25    1    4    4    0    0  0.68816179146E+01  0.84279518057E+02 -0.10302985399E+03  0.18279237605E+03  0.12509000000E+03 0.  0.
         25    1    3    3    0    0  0.23018352909E+00 -0.95571515232E+02 -0.27318211740E+02  0.15977409146E+03  0.12509000000E+03 0.  0.
<mgrwt>
<rscale>  2 0.45575019E+03</rscale>
<asrwt>0</asrwt>
<pdfrwt beam="1">  1       21 0.19222565E-01 0.45575019E+03</pdfrwt>
<pdfrwt beam="2">  1       21 0.58420404E-01 0.45575019E+03</pdfrwt>
<totfact> 0.62968743E+04</totfact>
</mgrwt>
</event>
<event>
 7    0  0.4714446E-002  0.4568311E+03  0.7546771E-02  0.1025704E+00
         21   -1    0    0  502  501  0.00000000000E+00  0.00000000000E+00  0.70892088785E+02  0.70892088785E+02  0.00000000000E+00 0.  1.
         21   -1    0    0  501  502 -0.00000000000E+00 -0.00000000000E+00 -0.73595874284E+03  0.73595874284E+03  0.00000000000E+00 0.  1.
      99926    2    1    2    0    0  0.00000000000E+00 -0.14210854715E-13 -0.66506665406E+03  0.80685083163E+03  0.45683105209E+03 0.  0.
      99925    2    3    3    0    0 -0.67104315547E+02 -0.85154576620E+02 -0.48672596113E+03  0.56352553097E+03  0.26249680329E+03 0.  0.
         25    1    3    3    0    0  0.67104315547E+02  0.85154576620E+02 -0.17834069292E+03  0.24332530065E+03  0.12509000000E+03 0.  0.
         25    1    4    4    0    0 -0.39464397343E+02 -0.57296140830E+01 -0.25997005267E+03  0.29124251668E+03  0.12509000000E+03 0.  0.
         25    1    4    4    0    0 -0.27639918204E+02 -0.79424962537E+02 -0.22675590846E+03  0.27228301430E+03  0.12509000000E+03 0.  0.
<mgrwt>
<rscale>  2 0.45683105E+03</rscale>
<asrwt>0</asrwt>
<pdfrwt beam="1">  1       21 0.10425307E-01 0.45683105E+03</pdfrwt>
<pdfrwt beam="2">  1       21 0.10822923E+00 0.45683105E+03</pdfrwt>
<totfact> 0.46759705E+04</totfact>
</mgrwt>
</event>
<event>
 6    0  0.4714446E-002  0.4542516E+03  0.7546771E-02  0.1026462E+00
         21   -1    0    0  502  501  0.00000000000E+00  0.00000000000E+00  0.74954211502E+02  0.74954211502E+02  0.00000000000E+00 0. -1.
         21   -1    0    0  501  502 -0.00000000000E+00 -0.00000000000E+00 -0.68823511359E+03  0.68823511359E+03  0.00000000000E+00 0. -1.
      99926    2    1    2    0    0 -0.14210854715E-13  0.00000000000E+00 -0.61328090209E+03  0.76318932510E+03  0.45425156144E+03 0.  0.
         25    1    3    3    0    0 -0.82087169703E+02 -0.42551412917E+02 -0.34499067267E+03  0.37843757543E+03  0.12509000000E+03 0.  0.
         25    1    3    3    0    0  0.65788240053E+01  0.30635250747E+02 -0.11778964004E+03  0.17465310451E+03  0.12509000000E+03 0.  0.
         25    1    3    3    0    0  0.75508345698E+02  0.11916162170E+02 -0.15050058938E+03  0.21009864515E+03  0.12509000000E+03 0.  0.
<mgrwt>
<rscale>  2 0.45425156E+03</rscale>
<asrwt>0</asrwt>
<pdfrwt beam="1">  1       21 0.11022677E-01 0.45425156E+03</pdfrwt>
<pdfrwt beam="2">  1       21 0.10121105E+00 0.45425156E+03</pdfrwt>
<totfact> 0.49889053E+04</totfact>
</mgrwt>
</event>
<event>
 7    0  0.4714446E-002  0.4163912E+03  0.7546771E-02  0.1038247E+00
         21   -1    0    0  502  501  0.00000000000E+00  0.00000000000E+00  0.92127796536E+02  0.92127796536E+02  0.00000000000E+00 0. -1.
         21   -1    0    0  501  502 -0.00000000000E+00 -0.00000000000E+00 -0.47049209847E+03  0.47049209847E+03  0.00000000000E+00 0. -1.
      99926    2    1    2    0    0  0.71054273576E-14  0.00000000000E+00 -0.37836430193E+03  0.56261989500E+03  0.41639116379E+03 0.  0.
      99925    2    3    3    0    0 -0.48034065514E+02 -0.25502759655E+02 -0.30961828731E+03  0.40987440464E+03  0.26301308245E+03 0.  0.
         25    1    4    4    0    0 -0.43346295095E+01 -0.35394142166E+02 -0.11148465734E+03  0.17131220399E+03  0.12509000000E+03 0.  0.
         25    1    3    3    0    0  0.48034065514E+02  0.25502759655E+02 -0.68746014616E+02  0.15274549036E+03  0.12509000000E+03 0.  0.
         25    1    4    4    0    0 -0.43699436005E+02  0.98913825104E+01 -0.19813362997E+03  0.23856220066E+03  0.12509000000E+03 0.  0.
<mgrwt>
<rscale>  2 0.41639116E+03</rscale>
<asrwt>0</asrwt>
<pdfrwt beam="1">  1       21 0.13548206E-01 0.41639116E+03</pdfrwt>
<pdfrwt beam="2">  1       21 0.69190013E-01 0.41639116E+03</pdfrwt>
<totfact> 0.83860884E+04</totfact>
</mgrwt>
</event>
<event>
 7    0  0.4714446E-002  0.4789294E+03  0.7546771E-02  0.1019430E+00
         21   -1    0    0  502  501  0.00000000000E+00  0.00000000000E+00  0.84393454361E+03  0.84393454361E+03  0.00000000000E+00 0. -1.
         21   -1    0    0  501  502 -0.00000000000E+00 -0.00000000000E+00 -0.67947619836E+02  0.67947619836E+02  0.00000000000E+00 0. -1.
      99926    2    1    2    0    0  0.17763568394E-14  0.00000000000E+00  0.77598692378E+03  0.91188216345E+03  0.47892940413E+03 0.  0.
      99925    2    3    3    0    0 -0.43078795097E+01 -0.11559663421E+03  0.34851006945E+03  0.45170273241E+03  0.26304933053E+03 0.  0.
         25    1    4    4    0    0  0.22714911121E+02 -0.92627774071E+02  0.18705062076E+03  0.24439990700E+03  0.12509000000E+03 0.  0.
         25    1    4    4    0    0 -0.27022790631E+02 -0.22968860142E+02  0.16145944869E+03  0.20730282541E+03  0.12509000000E+03 0.  0.
         25    1    3    3    0    0  0.43078795097E+01  0.11559663421E+03  0.42747685433E+03  0.46017943104E+03  0.12509000000E+03 0.  0.
<mgrwt>
<rscale>  2 0.47892940E+03</rscale>
<asrwt>0</asrwt>
<pdfrwt beam="1">  1       21 0.12410802E+00 0.47892940E+03</pdfrwt>
<pdfrwt beam="2">  1       21 0.99922975E-02 0.47892940E+03</pdfrwt>
<totfact> 0.35576259E+04</totfact>
</mgrwt>
</event>
<event>
 7    0  0.4714446E-002  0.4479004E+03  0.7546771E-02  0.1028350E+00
         21   -1    0    0  502  501  0.00000000000E+00  0.00000000000E+00  0.36897866412E+02  0.36897866412E+02  0.00000000000E+00 0. -1.
         21   -1    0    0  501  502 -0.00000000000E+00 -0.00000000000E+00 -0.13592573283E+04  0.13592573283E+04  0.00000000000E+00 0. -1.
      99926    2    1    2    0    0  0.00000000000E+00 -0.71054273576E-14 -0.13223594619E+04  0.13961551947E+04  0.44790041446E+03 0.  0.
      99925    2    3    3    0    0  0.69659277794E+02  0.52660935433E+02 -0.10270813384E+04  0.10637965520E+04  0.26294759776E+03 0.  0.
         25    1    4    4    0    0  0.62523456675E+02  0.63679182176E+01 -0.60961815517E+03  0.62548504077E+03  0.12509000000E+03 0.  0.
         25    1    4    4    0    0  0.71358211195E+01  0.46293017216E+02 -0.41746318323E+03  0.43831151119E+03  0.12509000000E+03 0.  0.
         25    1    3    3    0    0 -0.69659277794E+02 -0.52660935433E+02 -0.29527812351E+03  0.33235864278E+03  0.12509000000E+03 0.  0.
<mgrwt>
<rscale>  2 0.44790041E+03</rscale>
<asrwt>0</asrwt>
<pdfrwt beam="1">  1       21 0.54261569E-02 0.44790041E+03</pdfrwt>
<pdfrwt beam="2">  1       21 0.19989078E+00 0.44790041E+03</pdfrwt>
<totfact> 0.27944956E+04</totfact>
</mgrwt>
</event>
<event>
 7    0  0.4714446E-002  0.4540124E+03  0.7546771E-02  0.1026532E+00
         21   -1    0    0  502  501  0.00000000000E+00  0.00000000000E+00  0.52956401365E+02  0.52956401365E+02  0.00000000000E+00 0. -1.
         21   -1    0    0  501  502 -0.00000000000E+00 -0.00000000000E+00 -0.97309896404E+03  0.97309896404E+03  0.00000000000E+00 0. -1.
      99926    2    1    2    0    0  0.00000000000E+00  0.00000000000E+00 -0.92014256268E+03  0.10260553654E+04  0.45401241969E+03 0.  0.
      99925    2    3    3    0    0 -0.51397216627E+02  0.99383271207E+02 -0.55658288479E+03  0.62562827347E+03  0.26288309274E+03 0.  0.
         25    1    4    4    0    0 -0.66471461358E+01  0.36157521823E+02 -0.33668369312E+03  0.36104704437E+03  0.12509000000E+03 0.  0.
         25    1    3    3    0    0  0.51397216627E+02 -0.99383271207E+02 -0.36355967788E+03  0.40042709193E+03  0.12509000000E+03 0.  0.
         25    1    4    4    0    0 -0.44750070492E+02  0.63225749384E+02 -0.21989919168E+03  0.26458122910E+03  0.12509000000E+03 0.  0.
<mgrwt>
<rscale>  2 0.45401242E+03</rscale>
<asrwt>0</asrwt>
<pdfrwt beam="1">  1       21 0.77877057E-02 0.45401242E+03</pdfrwt>
<pdfrwt beam="2">  1       21 0.14310280E+00 0.45401242E+03</pdfrwt>
<totfact> 0.38464158E+04</totfact>
</mgrwt>
</event>
<event>
 7    0  0.4714446E-002  0.4488745E+03  0.7546771E-02  0.1028058E+00
         21   -1    0    0  502  501  0.00000000000E+00  0.00000000000E+00  0.20362242526E+03  0.20362242526E+03  0.00000000000E+00 0. -1.
         21   -1    0    0  501  502 -0.00000000000E+00 -0.00000000000E+00 -0.24737985089E+03  0.24737985089E+03  0.00000000000E+00 0. -1.
      99926    2    1    2    0    0 -0.14210854715E-13  0.00000000000E+00 -0.43757425633E+02  0.45100227615E+03  0.44887452679E+03 0.  0.
      99925    2    3    3    0    0 -0.97252511216E+02 -0.25863098154E+02  0.98129670075E+01  0.28175616585E+03  0.26298914786E+03 0.  0.
         25    1    3    3    0    0  0.97252511216E+02  0.25863098154E+02 -0.53570392640E+02  0.16924611030E+03  0.12509000000E+03 0.  0.
         25    1    4    4    0    0 -0.22605633701E+02 -0.18351280506E+02 -0.27172341963E+02  0.13127691510E+03  0.12509000000E+03 0.  0.
         25    1    4    4    0    0 -0.74646877515E+02 -0.75118176482E+01  0.36985308971E+02  0.15047925075E+03  0.12509000000E+03 0.  0.
<mgrwt>
<rscale>  2 0.44887453E+03</rscale>
<asrwt>0</asrwt>
<pdfrwt beam="1">  1       21 0.29944474E-01 0.44887453E+03</pdfrwt>
<pdfrwt beam="2">  1       21 0.36379390E-01 0.44887453E+03</pdfrwt>
<totfact> 0.72309515E+04</totfact>
</mgrwt>
</event>
<event>
 7    0  0.4714446E-002  0.4625376E+03  0.7546771E-02  0.1024048E+00
         21   -1    0    0  502  501  0.00000000000E+00  0.00000000000E+00  0.58366910188E+02  0.58366910188E+02  0.00000000000E+00 0.  1.
         21   -1    0    0  501  502 -0.00000000000E+00 -0.00000000000E+00 -0.91636271469E+03  0.91636271469E+03  0.00000000000E+00 0.  1.
      99926    2    1    2    0    0  0.00000000000E+00  0.00000000000E+00 -0.85799580450E+03  0.97472962488E+03  0.46253761044E+03 0.  0.
      99925    2    3    3    0    0 -0.10427561313E+03  0.32437866474E+02 -0.64180106629E+03  0.70212498147E+03  0.26295486731E+03 0.  0.
         25    1    3    3    0    0  0.10427561313E+03 -0.32437866474E+02 -0.21619473821E+03  0.27260464340E+03  0.12509000000E+03 0.  0.
         25    1    4    4    0    0 -0.92910239123E+02  0.31101986893E+02 -0.37219499192E+03  0.40469280477E+03  0.12509000000E+03 0.  0.
         25    1    4    4    0    0 -0.11365374007E+02  0.13358795808E+01 -0.26960607437E+03  0.29743217670E+03  0.12509000000E+03 0.  0.
<mgrwt>
<rscale>  2 0.46253761E+03</rscale>
<asrwt>0</asrwt>
<pdfrwt beam="1">  1       21 0.85833689E-02 0.46253761E+03</pdfrwt>
<pdfrwt beam="2">  1       21 0.13475923E+00 0.46253761E+03</pdfrwt>
<totfact> 0.37873791E+04</totfact>
</mgrwt>
</event>
<event>
 7    0  0.4714446E-002  0.4438257E+03  0.7546771E-02  0.1029579E+00
         21   -1    0    0  502  501  0.00000000000E+00  0.00000000000E+00  0.18173510926E+03  0.18173510926E+03  0.00000000000E+00 0. -1.
         21   -1    0    0  501  502 -0.00000000000E+00 -0.00000000000E+00 -0.27097301925E+03  0.27097301925E+03  0.00000000000E+00 0. -1.
      99926    2    1    2    0    0 -0.71054273576E-14 -0.71054273576E-14 -0.89237909990E+02  0.45270812851E+03  0.44382569218E+03 0.  0.
      99925    2    3    3    0    0 -0.48793936095E+02 -0.44558388258E+02  0.23013852265E+02  0.27211393040E+03  0.26296398148E+03 0.  0.
         25    1    3    3    0    0  0.48793936095E+02  0.44558388258E+02 -0.11225176226E+03  0.18059419812E+03  0.12509000000E+03 0.  0.
         25    1    4    4    0    0 -0.11528761569E+02 -0.88025690605E+01 -0.25247688797E+02  0.12843423008E+03  0.12509000000E+03 0.  0.
         25    1    4    4    0    0 -0.37265174526E+02 -0.35755819198E+02  0.48261541063E+02  0.14367970032E+03  0.12509000000E+03 0.  0.
<mgrwt>
<rscale>  2 0.44382569E+03</rscale>
<asrwt>0</asrwt>
<pdfrwt beam="1">  1       21 0.26725751E-01 0.44382569E+03</pdfrwt>
<pdfrwt beam="2">  1       21 0.39848973E-01 0.44382569E+03</pdfrwt>
<totfact> 0.75190893E+04</totfact>
</mgrwt>
</event>
<event>
 7    0  0.4714446E-002  0.3920062E+03  0.7546771E-02  0.1046583E+00
         21   -1    0    0  502  501  0.00000000000E+00  0.00000000000E+00  0.42018531963E+03  0.42018531963E+03  0.00000000000E+00 0.  1.
         21   -1    0    0  501  502 -0.00000000000E+00 -0.00000000000E+00 -0.91429224203E+02  0.91429224203E+02  0.00000000000E+00 0.  1.
      99926    2    1    2    0    0  0.13322676296E-14 -0.35527136788E-14  0.32875609543E+03  0.51161454384E+03  0.39200621319E+03 0.  0.
      99925    2    3    3    0    0 -0.23985669627E+01  0.25503235641E+02  0.22561527494E+03  0.34747525816E+03  0.26302211807E+03 0.  0.
         25    1    3    3    0    0  0.23985669627E+01 -0.25503235641E+02  0.10314082050E+03  0.16413928568E+03  0.12509000000E+03 0.  0.
         25    1    4    4    0    0  0.25087773388E+02  0.41340146580E+02  0.99088690100E+02  0.16674675619E+03  0.12509000000E+03 0.  0.
         25    1    4    4    0    0 -0.27486340350E+02 -0.15836910939E+02  0.12652658484E+03  0.18072850197E+03  0.12509000000E+03 0.  0.
<mgrwt>
<rscale>  2 0.39200621E+03</rscale>
<asrwt>0</asrwt>
<pdfrwt beam="1">  1       21 0.61791958E-01 0.39200621E+03</pdfrwt>
<pdfrwt beam="2">  1       21 0.13445474E-01 0.39200621E+03</pdfrwt>
<totfact> 0.10986303E+05</totfact>
</mgrwt>
</event>
<event>
 7    0  0.4714446E-002  0.4608506E+03  0.7546771E-02  0.1024535E+00
         21   -1    0    0  502  501  0.00000000000E+00  0.00000000000E+00  0.10068921273E+03  0.10068921273E+03  0.00000000000E+00 0. -1.
         21   -1    0    0  501  502 -0.00000000000E+00 -0.00000000000E+00 -0.52732369299E+03  0.52732369299E+03  0.00000000000E+00 0. -1.
      99926    2    1    2    0    0 -0.35527136788E-14  0.00000000000E+00 -0.42663448026E+03  0.62801290572E+03  0.46085055063E+03 0.  0.
      99925    2    3    3    0    0  0.31253447991E+02  0.41317305474E+02 -0.12182960936E+03  0.29449017012E+03  0.26305533417E+03 0.  0.
         25    1    4    4    0    0  0.47203181944E+02  0.34169232941E+02 -0.88232197787E+02  0.16379287436E+03  0.12509000000E+03 0.  0.
         25    1    3    3    0    0 -0.31253447991E+02 -0.41317305474E+02 -0.30480487090E+03  0.33352273560E+03  0.12509000000E+03 0.  0.
         25    1    4    4    0    0 -0.15949733952E+02  0.71480725328E+01 -0.33597411575E+02  0.13069729576E+03  0.12509000000E+03 0.  0.
<mgrwt>
<rscale>  2 0.46085055E+03</rscale>
<asrwt>0</asrwt>
<pdfrwt beam="1">  1       21 0.14807237E-01 0.46085055E+03</pdfrwt>
<pdfrwt beam="2">  1       21 0.77547604E-01 0.46085055E+03</pdfrwt>
<totfact> 0.54428377E+04</totfact>
</mgrwt>
</event>
<event>
 7    0  0.4714446E-002  0.4475279E+03  0.7546771E-02  0.1028462E+00
         21   -1    0    0  502  501  0.00000000000E+00  0.00000000000E+00  0.84849564467E+03  0.84849564467E+03  0.00000000000E+00 0.  1.
         21   -1    0    0  501  502 -0.00000000000E+00 -0.00000000000E+00 -0.59010690920E+02  0.59010690920E+02  0.00000000000E+00 0.  1.
      99926    2    1    2    0    0  0.00000000000E+00  0.55511151231E-15  0.78948495375E+03  0.90750633559E+03  0.44752793984E+03 0.  0.
      99925    2    3    3    0    0 -0.85150502657E+02  0.50670819787E+00  0.37228591720E+03  0.46371200366E+03  0.26302310419E+03 0.  0.
         25    1    3    3    0    0  0.85150502657E+02 -0.50670819787E+00  0.41719903655E+03  0.44379433193E+03  0.12509000000E+03 0.  0.
         25    1    4    4    0    0 -0.88934979493E+01  0.14729685004E+02  0.13821224307E+03  0.18720627704E+03  0.12509000000E+03 0.  0.
         25    1    4    4    0    0 -0.76257004708E+02 -0.14222976806E+02  0.23407367412E+03  0.27650572662E+03  0.12509000000E+03 0.  0.
<mgrwt>
<rscale>  2 0.44752794E+03</rscale>
<asrwt>0</asrwt>
<pdfrwt beam="1">  1       21 0.12477876E+00 0.44752794E+03</pdfrwt>
<pdfrwt beam="2">  1       21 0.86780433E-02 0.44752794E+03</pdfrwt>
<totfact> 0.45514177E+04</totfact>
</mgrwt>
</event>
<event>
 7    0  0.4714446E-002  0.4571353E+03  0.7546771E-02  0.1025615E+00
         21   -1    0    0  502  501  0.00000000000E+00  0.00000000000E+00  0.84273746671E+02  0.84273746671E+02  0.00000000000E+00 0. -1.
         21   -1    0    0  501  502 -0.00000000000E+00 -0.00000000000E+00 -0.61992220184E+03  0.61992220184E+03  0.00000000000E+00 0. -1.
      99926    2    1    2    0    0 -0.71054273576E-14  0.00000000000E+00 -0.53564845517E+03  0.70419594851E+03  0.45713528236E+03 0.  0.
      99925    2    3    3    0    0  0.56030207755E+02  0.42085606098E+02 -0.47718558357E+03  0.54935410056E+03  0.26300810675E+03 0.  0.
         25    1    4    4    0    0  0.27274838631E+02  0.20037685308E+02 -0.15620913336E+03  0.20296361029E+03  0.12509000000E+03 0.  0.
         25    1    4    4    0    0  0.28755369123E+02  0.22047920790E+02 -0.32097645021E+03  0.34639049027E+03  0.12509000000E+03 0.  0.
         25    1    3    3    0    0 -0.56030207755E+02 -0.42085606098E+02 -0.58462871604E+02  0.15484184795E+03  0.12509000000E+03 0.  0.
<mgrwt>
<rscale>  2 0.45713528E+03</rscale>
<asrwt>0</asrwt>
<pdfrwt beam="1">  1       21 0.12393198E-01 0.45713528E+03</pdfrwt>
<pdfrwt beam="2">  1       21 0.91165033E-01 0.45713528E+03</pdfrwt>
<totfact> 0.51799866E+04</totfact>
</mgrwt>
</event>
<event>
 7    0  0.4714446E-002  0.4566031E+03  0.7546771E-02  0.1025771E+00
         21   -1    0    0  502  501  0.00000000000E+00  0.00000000000E+00  0.16405118826E+04  0.16405118826E+04  0.00000000000E+00 0. -1.
         21   -1    0    0  501  502 -0.00000000000E+00 -0.00000000000E+00 -0.31771547029E+02  0.31771547029E+02  0.00000000000E+00 0. -1.
      99926    2    1    2    0    0 -0.71054273576E-14  0.35527136788E-14  0.16087403356E+04  0.16722834297E+04  0.45660311182E+03 0.  0.
      99925    2    3    3    0    0 -0.48678299618E+02  0.14596111525E+02  0.63474424678E+03  0.68897345185E+03  0.26306184673E+03 0.  0.
         25    1    4    4    0    0 -0.24575593975E+02  0.21761156033E+02  0.22161207250E+03  0.25658707394E+03  0.12509000000E+03 0.  0.
         25    1    3    3    0    0  0.48678299618E+02 -0.14596111525E+02  0.97399608884E+03  0.98330997783E+03  0.12509000000E+03 0.  0.
         25    1    4    4    0    0 -0.24102705643E+02 -0.71650445082E+01  0.41313217428E+03  0.43238637791E+03  0.12509000000E+03 0.  0.
<mgrwt>
<rscale>  2 0.45660311E+03</rscale>
<asrwt>0</asrwt>
<pdfrwt beam="1">  1       21 0.24125169E+00 0.45660311E+03</pdfrwt>
<pdfrwt beam="2">  1       21 0.46722874E-02 0.45660311E+03</pdfrwt>
<totfact> 0.19599523E+04</totfact>
</mgrwt>
</event>
<event>
 7    0  0.4714446E-002  0.4530036E+03  0.7546771E-02  0.1026830E+00
         21   -1    0    0  502  501  0.00000000000E+00  0.00000000000E+00  0.22551874551E+02  0.22551874551E+02  0.00000000000E+00 0.  1.
         21   -1    0    0  501  502 -0.00000000000E+00 -0.00000000000E+00 -0.22748917704E+04  0.22748917704E+04  0.00000000000E+00 0.  1.
      99926    2    1    2    0    0  0.00000000000E+00 -0.35527136788E-14 -0.22523398959E+04  0.22974436450E+04  0.45300363717E+03 0.  0.
      99925    2    3    3    0    0 -0.10813444383E+03 -0.74787647583E+01 -0.13025203663E+04  0.13333100253E+04  0.26345270712E+03 0.  0.
         25    1    3    3    0    0  0.10813444383E+03  0.74787647583E+01 -0.94981952953E+03  0.96413361970E+03  0.12509000000E+03 0.  0.
         25    1    4    4    0    0 -0.52991112941E+02 -0.45013568027E+02 -0.65316793646E+03  0.66866294998E+03  0.12509000000E+03 0.  0.
         25    1    4    4    0    0 -0.55143330887E+02  0.37534803269E+02 -0.64935242988E+03  0.66464707528E+03  0.12509000000E+03 0.  0.
<mgrwt>
<rscale>  2 0.45300364E+03</rscale>
<asrwt>0</asrwt>
<pdfrwt beam="1">  1       21 0.33164533E-02 0.45300364E+03</pdfrwt>
<pdfrwt beam="2">  1       21 0.33454279E+00 0.45300364E+03</pdfrwt>
<totfact> 0.95807025E+03</totfact>
</mgrwt>
</event>
<event>
 7    0  0.4714446E-002  0.4506204E+03  0.7546771E-02  0.1027537E+00
         21   -1    0    0  502  501  0.00000000000E+00  0.00000000000E+00  0.17730194621E+03  0.17730194621E+03  0.00000000000E+00 0. -1.
         21   -1    0    0  501  502 -0.00000000000E+00 -0.00000000000E+00 -0.28631769982E+03  0.28631769982E+03  0.00000000000E+00 0. -1.
      99926    2    1    2    0    0  0.00000000000E+00  0.14210854715E-13 -0.10901575361E+03  0.46361964602E+03  0.45062039639E+03 0.  0.
      99925    2    3    3    0    0 -0.64653780179E+02 -0.63533309013E+02 -0.90918677816E+01  0.27963898480E+03  0.26438363624E+03 0.  0.
         25    1    4    4    0    0 -0.33489483813E+02  0.39456228864E+01 -0.29043507141E+02  0.13277103175E+03  0.12509000000E+03 0.  0.
         25    1    4    4    0    0 -0.31164296366E+02 -0.67478931899E+02  0.19951639360E+02  0.14686795304E+03  0.12509000000E+03 0.  0.
         25    1    3    3    0    0  0.64653780179E+02  0.63533309013E+02 -0.99923885830E+02  0.18398066122E+03  0.12509000000E+03 0.  0.
<mgrwt>
<rscale>  2 0.45062040E+03</rscale>
<asrwt>0</asrwt>
<pdfrwt beam="1">  1       21 0.26073816E-01 0.45062040E+03</pdfrwt>
<pdfrwt beam="2">  1       21 0.42105543E-01 0.45062040E+03</pdfrwt>
<totfact> 0.70324894E+04</totfact>
</mgrwt>
</event>
<event>
 7    0  0.4714446E-002  0.4572242E+03  0.7546771E-02  0.1025589E+00
         21   -1    0    0  502  501  0.00000000000E+00  0.00000000000E+00  0.15991119717E+02  0.15991119717E+02  0.00000000000E+00 0. -1.
         21   -1    0    0  501  502 -0.00000000000E+00 -0.00000000000E+00 -0.32682824603E+04  0.32682824603E+04  0.00000000000E+00 0. -1.
      99926    2    1    2    0    0 -0.88817841970E-15  0.00000000000E+00 -0.32522913406E+04  0.32842735801E+04  0.45722421673E+03 0.  0.
      99925    2    3    3    0    0 -0.41180668223E+01  0.78282215501E+02 -0.26494288836E+04  0.26635999831E+04  0.26295702525E+03 0.  0.
         25    1    4    4    0    0 -0.24899332507E+02  0.73725812555E+02 -0.14723559644E+04  0.14797077638E+04  0.12509000000E+03 0.  0.
         25    1    4    4    0    0  0.20781265685E+02  0.45564029463E+01 -0.11770729192E+04  0.11838922193E+04  0.12509000000E+03 0.  0.
         25    1    3    3    0    0  0.41180668223E+01 -0.78282215501E+02 -0.60286245707E+03  0.62067359698E+03  0.12509000000E+03 0.  0.
<mgrwt>
<rscale>  2 0.45722422E+03</rscale>
<asrwt>0</asrwt>
<pdfrwt beam="1">  1       21 0.23516354E-02 0.45722422E+03</pdfrwt>
<pdfrwt beam="2">  1       21 0.48062975E+00 0.45722422E+03</pdfrwt>
<totfact> 0.19177908E+03</totfact>
</mgrwt>
</event>
<event>
 7    0  0.4714446E-002  0.4756788E+03  0.7546771E-02  0.1020330E+00
         21   -1    0    0  502  501  0.00000000000E+00  0.00000000000E+00  0.79229171619E+02  0.79229171619E+02  0.00000000000E+00 0.  1.
         21   -1    0    0  501  502 -0.00000000000E+00 -0.00000000000E+00 -0.71397426053E+03  0.71397426053E+03  0.00000000000E+00 0.  1.
      99926    2    1    2    0    0  0.00000000000E+00  0.00000000000E+00 -0.63474508891E+03  0.79320343215E+03  0.47567883795E+03 0.  0.
      99925    2    3    3    0    0 -0.78140878907E+02 -0.91785170888E+02 -0.48043031646E+03  0.56084364292E+03  0.26306232776E+03 0.  0.
         25    1    4    4    0    0 -0.21708429250E+02 -0.65188649560E+02 -0.18188059641E+03  0.23119012821E+03  0.12509000000E+03 0.  0.
         25    1    4    4    0    0 -0.56432449658E+02 -0.26596521328E+02 -0.29854972005E+03  0.32965351471E+03  0.12509000000E+03 0.  0.
         25    1    3    3    0    0  0.78140878907E+02  0.91785170888E+02 -0.15431477245E+03  0.23235978922E+03  0.12509000000E+03 0.  0.
<mgrwt>
<rscale>  2 0.47567884E+03</rscale>
<asrwt>0</asrwt>
<pdfrwt beam="1">  1       21 0.11651348E-01 0.47567884E+03</pdfrwt>
<pdfrwt beam="2">  1       21 0.10499622E+00 0.47567884E+03</pdfrwt>
<totfact> 0.41021608E+04</totfact>
</mgrwt>
</event>
<event>
 7    0  0.4714446E-002  0.4565872E+03  0.7546771E-02  0.1025776E+00
         21   -1    0    0  502  501  0.00000000000E+00  0.00000000000E+00  0.83163754897E+02  0.83163754897E+02  0.00000000000E+00 0.  1.
         21   -1    0    0  501  502 -0.00000000000E+00 -0.00000000000E+00 -0.62669084636E+03  0.62669084636E+03  0.00000000000E+00 0.  1.
      99926    2    1    2    0    0 -0.14210854715E-13  0.00000000000E+00 -0.54352709146E+03  0.70985460126E+03  0.45658718310E+03 0.  0.
      99925    2    3    3    0    0  0.81400906056E+02 -0.57588611597E+02 -0.25354542257E+03  0.37867574915E+03  0.26299712164E+03 0.  0.
         25    1    4    4    0    0  0.64439907152E+02 -0.17920459188E+02 -0.17319454422E+03  0.22386938768E+03  0.12509000000E+03 0.  0.
         25    1    4    4    0    0  0.16960998904E+02 -0.39668152409E+02 -0.80350878350E+02  0.15480636147E+03  0.12509000000E+03 0.  0.
         25    1    3    3    0    0 -0.81400906056E+02  0.57588611597E+02 -0.28998166889E+03  0.33117885211E+03  0.12509000000E+03 0.  0.
<mgrwt>
<rscale>  2 0.45658718E+03</rscale>
<asrwt>0</asrwt>
<pdfrwt beam="1">  1       21 0.12229964E-01 0.45658718E+03</pdfrwt>
<pdfrwt beam="2">  1       21 0.92160421E-01 0.45658718E+03</pdfrwt>
<totfact> 0.51722274E+04</totfact>
</mgrwt>
</event>
<event>
 7    0  0.4714446E-002  0.4545756E+03  0.7546771E-02  0.1026366E+00
         21   -1    0    0  502  501  0.00000000000E+00  0.00000000000E+00  0.16858006845E+03  0.16858006845E+03  0.00000000000E+00 0.  1.
         21   -1    0    0  501  502 -0.00000000000E+00 -0.00000000000E+00 -0.30644041910E+03  0.30644041910E+03  0.00000000000E+00 0.  1.
      99926    2    1    2    0    0  0.00000000000E+00 -0.71054273576E-14 -0.13786035065E+03  0.47502048756E+03  0.45457561232E+03 0.  0.
      99925    2    3    3    0    0 -0.84905640325E+02  0.61706464777E+02 -0.12956094936E+03  0.31151806031E+03  0.26313647931E+03 0.  0.
         25    1    4    4    0    0 -0.45822927070E+02  0.58845032372E+02 -0.34708529743E+02  0.14971529186E+03  0.12509000000E+03 0.  0.
         25    1    3    3    0    0  0.84905640325E+02 -0.61706464777E+02 -0.82994012983E+01  0.16350242725E+03  0.12509000000E+03 0.  0.
         25    1    4    4    0    0 -0.39082713255E+02  0.28614324046E+01 -0.94852419612E+02  0.16180276845E+03  0.12509000000E+03 0.  0.
<mgrwt>
<rscale>  2 0.45457561E+03</rscale>
<asrwt>0</asrwt>
<pdfrwt beam="1">  1       21 0.24791187E-01 0.45457561E+03</pdfrwt>
<pdfrwt beam="2">  1       21 0.45064767E-01 0.45457561E+03</pdfrwt>
<totfact> 0.67290744E+04</totfact>
</mgrwt>
</event>
<event>
 7    0  0.4714446E-002  0.4676651E+03  0.7546771E-02  0.1022581E+00
         21   -1    0    0  502  501  0.00000000000E+00  0.00000000000E+00  0.29463869526E+03  0.29463869526E+03  0.00000000000E+00 0.  1.
         21   -1    0    0  501  502 -0.00000000000E+00 -0.00000000000E+00 -0.18557529794E+03  0.18557529794E+03  0.00000000000E+00 0.  1.
      99926    2    1    2    0    0  0.00000000000E+00 -0.17763568394E-14  0.10906339732E+03  0.48021399319E+03  0.46766510948E+03 0.  0.
      99925    2    3    3    0    0 -0.12309084430E+03 -0.13637887782E+02  0.82923906056E+02  0.30225858014E+03  0.26295727245E+03 0.  0.
         25    1    3    3    0    0  0.12309084430E+03  0.13637887782E+02  0.26139491265E+02  0.17795541306E+03  0.12509000000E+03 0.  0.
         25    1    4    4    0    0 -0.10464680619E+03 -0.11462552898E+02  0.36280763566E+02  0.16746983630E+03  0.12509000000E+03 0.  0.
         25    1    4    4    0    0 -0.18444038106E+02 -0.21753348838E+01  0.46643142490E+02  0.13478874384E+03  0.12509000000E+03 0.  0.
<mgrwt>
<rscale>  2 0.46766511E+03</rscale>
<asrwt>0</asrwt>
<pdfrwt beam="1">  1       21 0.43329220E-01 0.46766511E+03</pdfrwt>
<pdfrwt beam="2">  1       21 0.27290485E-01 0.46766511E+03</pdfrwt>
<totfact> 0.60383979E+04</totfact>
</mgrwt>
</event>
<event>
 7    0  0.4714446E-002  0.4567907E+03  0.7546771E-02  0.1025716E+00
         21   -1    0    0  502  501  0.00000000000E+00  0.00000000000E+00  0.12382158973E+04  0.12382158973E+04  0.00000000000E+00 0. -1.
         21   -1    0    0  501  502 -0.00000000000E+00 -0.00000000000E+00 -0.42128699110E+02  0.42128699110E+02  0.00000000000E+00 0. -1.
      99926    2    1    2    0    0  0.00000000000E+00  0.00000000000E+00  0.11960871982E+04  0.12803445964E+04  0.45679065214E+03 0.  0.
      99925    2    3    3    0    0 -0.63061571996E+02 -0.43080841231E+02  0.99243941953E+03  0.10294409364E+04  0.26264028515E+03 0.  0.
         25    1    4    4    0    0 -0.66016278918E+02 -0.89510508447E+01  0.45429684424E+03  0.47589011461E+03  0.12509000000E+03 0.  0.
         25    1    4    4    0    0  0.29547069221E+01 -0.34129790386E+02  0.53814257529E+03  0.55355082181E+03  0.12509000000E+03 0.  0.
         25    1    3    3    0    0  0.63061571996E+02  0.43080841231E+02  0.20364777863E+03  0.25090365997E+03  0.12509000000E+03 0.  0.
<mgrwt>
<rscale>  2 0.45679065E+03</rscale>
<asrwt>0</asrwt>
<pdfrwt beam="1">  1       21 0.18209055E+00 0.45679065E+03</pdfrwt>
<pdfrwt beam="2">  1       21 0.61953978E-02 0.45679065E+03</pdfrwt>
<totfact> 0.29280840E+04</totfact>
</mgrwt>
</event>
<event>
 7    0  0.4714446E-002  0.4511576E+03  0.7546771E-02  0.1027377E+00
         21   -1    0    0  502  501  0.00000000000E+00  0.00000000000E+00  0.53051286331E+02  0.53051286331E+02  0.00000000000E+00 0. -1.
         21   -1    0    0  501  502 -0.00000000000E+00 -0.00000000000E+00 -0.95918134907E+03  0.95918134907E+03  0.00000000000E+00 0. -1.
      99926    2    1    2    0    0  0.00000000000E+00  0.14210854715E-13 -0.90613006274E+03  0.10122326354E+04  0.45115764160E+03 0.  0.
      99925    2    3    3    0    0  0.39510563741E+02  0.94118914031E+02 -0.47960144046E+03  0.55616945080E+03  0.26246421030E+03 0.  0.
         25    1    3    3    0    0 -0.39510563741E+02 -0.94118914031E+02 -0.42652862228E+03  0.45606318461E+03  0.12509000000E+03 0.  0.
         25    1    4    4    0    0 -0.46320877973E+01  0.79148437729E+02 -0.25579503725E+03  0.29557493232E+03  0.12509000000E+03 0.  0.
         25    1    4    4    0    0  0.44142651538E+02  0.14970476303E+02 -0.22380640321E+03  0.26059451848E+03  0.12509000000E+03 0.  0.
<mgrwt>
<rscale>  2 0.45115764E+03</rscale>
<asrwt>0</asrwt>
<pdfrwt beam="1">  1       21 0.78016597E-02 0.45115764E+03</pdfrwt>
<pdfrwt beam="2">  1       21 0.14105608E+00 0.45115764E+03</pdfrwt>
<totfact> 0.39877407E+04</totfact>
</mgrwt>
</event>
<event>
 7    0  0.4714446E-002  0.4567073E+03  0.7546771E-02  0.1025741E+00
         21   -1    0    0  502  501  0.00000000000E+00  0.00000000000E+00  0.30511738044E+03  0.30511738044E+03  0.00000000000E+00 0. -1.
         21   -1    0    0  501  502 -0.00000000000E+00 -0.00000000000E+00 -0.17090274953E+03  0.17090274953E+03  0.00000000000E+00 0. -1.
      99926    2    1    2    0    0  0.71054273576E-14  0.00000000000E+00  0.13421463091E+03  0.47602012997E+03  0.45670734282E+03 0.  0.
      99925    2    3    3    0    0 -0.48419306496E+02 -0.60982148564E+02 -0.38345092996E+01  0.27410845399E+03  0.26278791716E+03 0.  0.
         25    1    3    3    0    0  0.48419306496E+02  0.60982148564E+02  0.13804914021E+03  0.20191167598E+03  0.12509000000E+03 0.  0.
         25    1    4    4    0    0 -0.16366428157E+02 -0.49822646470E+02  0.32543725136E+02  0.13948748409E+03  0.12509000000E+03 0.  0.
         25    1    4    4    0    0 -0.32052878339E+02 -0.11159502094E+02 -0.36378234436E+02  0.13462096990E+03  0.12509000000E+03 0.  0.
<mgrwt>
<rscale>  2 0.45670734E+03</rscale>
<asrwt>0</asrwt>
<pdfrwt beam="1">  1       21 0.44870203E-01 0.45670734E+03</pdfrwt>
<pdfrwt beam="2">  1       21 0.25132757E-01 0.45670734E+03</pdfrwt>
<totfact> 0.66090944E+04</totfact>
</mgrwt>
</event>
<event>
 7    0  0.4714446E-002  0.4527979E+03  0.7546771E-02  0.1026891E+00
         21   -1    0    0  502  501  0.00000000000E+00  0.00000000000E+00  0.24549917733E+03  0.24549917733E+03  0.00000000000E+00 0.  1.
         21   -1    0    0  501  502 -0.00000000000E+00 -0.00000000000E+00 -0.20878474413E+03  0.20878474413E+03  0.00000000000E+00 0.  1.
      99926    2    1    2    0    0  0.00000000000E+00 -0.35527136788E-14  0.36714433202E+02  0.45428392145E+03  0.45279789276E+03 0.  0.
      99925    2    3    3    0    0  0.53703897928E+02 -0.24290934320E+02  0.11767174649E+03  0.29404736877E+03  0.26295067411E+03 0.  0.
         25    1    4    4    0    0  0.25345173882E+02 -0.50098914057E+02  0.75831996086E+02  0.15668528571E+03  0.12509000000E+03 0.  0.
         25    1    4    4    0    0  0.28358724046E+02  0.25807979737E+02  0.41839750399E+02  0.13736208305E+03  0.12509000000E+03 0.  0.
         25    1    3    3    0    0 -0.53703897928E+02  0.24290934320E+02 -0.80957313283E+02  0.16023655269E+03  0.12509000000E+03 0.  0.
<mgrwt>
<rscale>  2 0.45279789E+03</rscale>
<asrwt>0</asrwt>
<pdfrwt beam="1">  1       21 0.36102820E-01 0.45279789E+03</pdfrwt>
<pdfrwt beam="2">  1       21 0.30703639E-01 0.45279789E+03</pdfrwt>
<totfact> 0.69816954E+04</totfact>
</mgrwt>
</event>
<event>
 7    0  0.4714446E-002  0.4472350E+03  0.7546771E-02  0.1028550E+00
         21   -1    0    0  502  501  0.00000000000E+00  0.00000000000E+00  0.17231953903E+03  0.17231953903E+03  0.00000000000E+00 0.  1.
         21   -1    0    0  501  502 -0.00000000000E+00 -0.00000000000E+00 -0.29018640695E+03  0.29018640695E+03  0.00000000000E+00 0.  1.
      99926    2    1    2    0    0  0.00000000000E+00  0.00000000000E+00 -0.11786686792E+03  0.46250594599E+03  0.44723500704E+03 0.  0.
      99925    2    3    3    0    0  0.11425522353E+02 -0.47823157764E+02 -0.17145913585E+03  0.31780889605E+03  0.26303357611E+03 0.  0.
         25    1    3    3    0    0 -0.11425522353E+02  0.47823157764E+02  0.53592267928E+02  0.14469704994E+03  0.12509000000E+03 0.  0.
         25    1    4    4    0    0  0.45855826496E+02 -0.28865574933E+02 -0.82096134993E+02  0.15913284300E+03  0.12509000000E+03 0.  0.
         25    1    4    4    0    0 -0.34430304143E+02 -0.18957582831E+02 -0.89363000854E+02  0.15867605305E+03  0.12509000000E+03 0.  0.
<mgrwt>
<rscale>  2 0.44723501E+03</rscale>
<asrwt>0</asrwt>
<pdfrwt beam="1">  1       21 0.25341109E-01 0.44723501E+03</pdfrwt>
<pdfrwt beam="2">  1       21 0.42674471E-01 0.44723501E+03</pdfrwt>
<totfact> 0.72352189E+04</totfact>
</mgrwt>
</event>
<event>
 7    0  0.4714446E-002  0.4523620E+03  0.7546771E-02  0.1027020E+00
         21   -1    0    0  502  501  0.00000000000E+00  0.00000000000E+00  0.18637377268E+04  0.18637377268E+04  0.00000000000E+00 0.  1.
         21   -1    0    0  501  502 -0.00000000000E+00 -0.00000000000E+00 -0.27449056453E+02  0.27449056453E+02  0.00000000000E+00 0.  1.
      99926    2    1    2    0    0  0.00000000000E+00  0.00000000000E+00  0.18362886704E+04  0.18911867833E+04  0.45236198814E+03 0.  0.
      99925    2    3    3    0    0 -0.63786706371E+02  0.47763906051E+02  0.83617017931E+03  0.88013058360E+03  0.26286715428E+03 0.  0.
         25    1    4    4    0    0 -0.41930404276E+02  0.62878729412E+02  0.47601991817E+03  0.49795016217E+03  0.12509000000E+03 0.  0.
         25    1    4    4    0    0 -0.21856302095E+02 -0.15114823361E+02  0.36015026114E+03  0.38218042143E+03  0.12509000000E+03 0.  0.
         25    1    3    3    0    0  0.63786706371E+02 -0.47763906051E+02  0.10001184911E+04  0.10110561997E+04  0.12509000000E+03 0.  0.
<mgrwt>
<rscale>  2 0.45236199E+03</rscale>
<asrwt>0</asrwt>
<pdfrwt beam="1">  1       21 0.27407899E+00 0.45236199E+03</pdfrwt>
<pdfrwt beam="2">  1       21 0.40366272E-02 0.45236199E+03</pdfrwt>
<totfact> 0.15891615E+04</totfact>
</mgrwt>
</event>
<event>
 7    0  0.4714446E-002  0.4521415E+03  0.7546771E-02  0.1027085E+00
         21   -1    0    0  502  501  0.00000000000E+00  0.00000000000E+00  0.91131075005E+03  0.91131075005E+03  0.00000000000E+00 0. -1.
         21   -1    0    0  501  502 -0.00000000000E+00 -0.00000000000E+00 -0.56081829499E+02  0.56081829499E+02  0.00000000000E+00 0. -1.
      99926    2    1    2    0    0  0.00000000000E+00  0.14210854715E-13  0.85522892055E+03  0.96739257954E+03  0.45214145620E+03 0.  0.
      99925    2    3    3    0    0 -0.33250869602E+02  0.78854164982E+02  0.68872154749E+03  0.74223527221E+03  0.26315818374E+03 0.  0.
         25    1    3    3    0    0  0.33250869602E+02 -0.78854164982E+02  0.16650737306E+03  0.22515730733E+03  0.12509000000E+03 0.  0.
         25    1    4    4    0    0 -0.52190791211E+02  0.57794834759E+02  0.40127376890E+03  0.42747194916E+03  0.12509000000E+03 0.  0.
         25    1    4    4    0    0  0.18939921609E+02  0.21059330222E+02  0.28744777859E+03  0.31476332305E+03  0.12509000000E+03 0.  0.
<mgrwt>
<rscale>  2 0.45214146E+03</rscale>
<asrwt>0</asrwt>
<pdfrwt beam="1">  1       21 0.13401628E+00 0.45214146E+03</pdfrwt>
<pdfrwt beam="2">  1       21 0.82473284E-02 0.45214146E+03</pdfrwt>
<totfact> 0.41361120E+04</totfact>
</mgrwt>
</event>
<event>
 7    0  0.4714446E-002  0.4525194E+03  0.7546771E-02  0.1026973E+00
         21   -1    0    0  502  501  0.00000000000E+00  0.00000000000E+00  0.43803864286E+02  0.43803864286E+02  0.00000000000E+00 0. -1.
         21   -1    0    0  501  502 -0.00000000000E+00 -0.00000000000E+00 -0.11686973958E+04  0.11686973958E+04  0.00000000000E+00 0. -1.
      99926    2    1    2    0    0  0.71054273576E-14 -0.17763568394E-14 -0.11248935315E+04  0.12125012601E+04  0.45251944540E+03 0.  0.
      99925    2    3    3    0    0 -0.53821057351E+02  0.13020244220E+02 -0.45238904411E+03  0.52622432862E+03  0.26303985218E+03 0.  0.
         25    1    4    4    0    0 -0.38644454694E+02 -0.10452308306E+02 -0.16019491024E+03  0.20715347449E+03  0.12509000000E+03 0.  0.
         25    1    3    3    0    0  0.53821057351E+02 -0.13020244220E+02 -0.67250448740E+03  0.68627693146E+03  0.12509000000E+03 0.  0.
         25    1    4    4    0    0 -0.15176602657E+02  0.23472552525E+02 -0.29219413386E+03  0.31907085413E+03  0.12509000000E+03 0.  0.
<mgrwt>
<rscale>  2 0.45251945E+03</rscale>
<asrwt>0</asrwt>
<pdfrwt beam="1">  1       21 0.64417445E-02 0.45251945E+03</pdfrwt>
<pdfrwt beam="2">  1       21 0.17186727E+00 0.45251945E+03</pdfrwt>
<totfact> 0.32383389E+04</totfact>
</mgrwt>
</event>
<event>
 7    0  0.4714446E-002  0.4510878E+03  0.7546771E-02  0.1027398E+00
         21   -1    0    0  502  501  0.00000000000E+00  0.00000000000E+00  0.80116142326E+03  0.80116142326E+03  0.00000000000E+00 0. -1.
         21   -1    0    0  501  502 -0.00000000000E+00 -0.00000000000E+00 -0.63495386826E+02  0.63495386826E+02  0.00000000000E+00 0. -1.
      99926    2    1    2    0    0  0.00000000000E+00  0.00000000000E+00  0.73766603644E+03  0.86465681009E+03  0.45108781620E+03 0.  0.
      99925    2    3    3    0    0  0.93157128570E+02 -0.47431984752E+02  0.52909562377E+03  0.59993588360E+03  0.26277907367E+03 0.  0.
         25    1    4    4    0    0  0.23034532882E+02 -0.17256039477E+02  0.17772565813E+03  0.21923110696E+03  0.12509000000E+03 0.  0.
         25    1    4    4    0    0  0.70122595688E+02 -0.30175945275E+02  0.35136996564E+03  0.38070477663E+03  0.12509000000E+03 0.  0.
         25    1    3    3    0    0 -0.93157128570E+02  0.47431984752E+02  0.20857041267E+03  0.26472092649E+03  0.12509000000E+03 0.  0.
<mgrwt>
<rscale>  2 0.45108782E+03</rscale>
<asrwt>0</asrwt>
<pdfrwt beam="1">  1       21 0.11781785E+00 0.45108782E+03</pdfrwt>
<pdfrwt beam="2">  1       21 0.93375574E-02 0.45108782E+03</pdfrwt>
<totfact> 0.46191663E+04</totfact>
</mgrwt>
</event>
<event>
 7    0  0.4714446E-002  0.4534724E+03  0.7546771E-02  0.1026692E+00
         21   -1    0    0  502  501  0.00000000000E+00  0.00000000000E+00  0.41812388666E+02  0.41812388666E+02  0.00000000000E+00 0.  1.
         21   -1    0    0  501  502 -0.00000000000E+00 -0.00000000000E+00 -0.12295231538E+04  0.12295231538E+04  0.00000000000E+00 0.  1.
      99926    2    1    2    0    0  0.00000000000E+00  0.71054273576E-14 -0.11877107652E+04  0.12713355425E+04  0.45347238056E+03 0.  0.
      99925    2    3    3    0    0 -0.93849623441E+02  0.57136327374E+02 -0.80513301998E+03  0.85409993647E+03  0.26301180561E+03 0.  0.
         25    1    4    4    0    0 -0.30049419338E+02  0.65434039758E+02 -0.40053885862E+03  0.42575047448E+03  0.12509000000E+03 0.  0.
         25    1    3    3    0    0  0.93849623441E+02 -0.57136327374E+02 -0.38257774519E+03  0.41723560603E+03  0.12509000000E+03 0.  0.
         25    1    4    4    0    0 -0.63800204103E+02 -0.82977123834E+01 -0.40459416137E+03  0.42834946199E+03  0.12509000000E+03 0.  0.
<mgrwt>
<rscale>  2 0.45347238E+03</rscale>
<asrwt>0</asrwt>
<pdfrwt beam="1">  1       21 0.61488814E-02 0.45347238E+03</pdfrwt>
<pdfrwt beam="2">  1       21 0.18081221E+00 0.45347238E+03</pdfrwt>
<totfact> 0.30317549E+04</totfact>
</mgrwt>
</event>
<event>
 7    0  0.4714446E-002  0.4538331E+03  0.7546771E-02  0.1026585E+00
         21   -1    0    0  502  501  0.00000000000E+00  0.00000000000E+00  0.87755021435E+03  0.87755021435E+03  0.00000000000E+00 0.  1.
         21   -1    0    0  501  502 -0.00000000000E+00 -0.00000000000E+00 -0.58675990532E+02  0.58675990532E+02  0.00000000000E+00 0.  1.
      99926    2    1    2    0    0  0.71054273576E-14  0.00000000000E+00  0.81887422382E+03  0.93622620489E+03  0.45383313263E+03 0.  0.
      99925    2    3    3    0    0  0.61858586847E+02  0.90849616076E+02  0.56208887827E+03  0.63017660221E+03  0.26286594566E+03 0.  0.
         25    1    4    4    0    0  0.67669323585E+02  0.49046339698E+02  0.25782508790E+03  0.29850622245E+03  0.12509000000E+03 0.  0.
         25    1    3    3    0    0 -0.61858586847E+02 -0.90849616076E+02  0.25678534555E+03  0.30604960268E+03  0.12509000000E+03 0.  0.
         25    1    4    4    0    0 -0.58107367385E+01  0.41803276378E+02  0.30426379038E+03  0.33167037976E+03  0.12509000000E+03 0.  0.
<mgrwt>
<rscale>  2 0.45383313E+03</rscale>
<asrwt>0</asrwt>
<pdfrwt beam="1">  1       21 0.12905149E+00 0.45383313E+03</pdfrwt>
<pdfrwt beam="2">  1       21 0.86288227E-02 0.45383313E+03</pdfrwt>
<totfact> 0.42086412E+04</totfact>
</mgrwt>
</event>
<event>
 7    0  0.4714446E-002  0.4573403E+03  0.7546771E-02  0.1025555E+00
         21   -1    0    0  502  501  0.00000000000E+00  0.00000000000E+00  0.82421272547E+03  0.82421272547E+03  0.00000000000E+00 0.  1.
         21   -1    0    0  501  502 -0.00000000000E+00 -0.00000000000E+00 -0.63442413191E+02  0.63442413191E+02  0.00000000000E+00 0.  1.
      99926    2    1    2    0    0  0.14210854715E-13  0.14210854715E-13  0.76077031228E+03  0.88765513866E+03  0.45734032967E+03 0.  0.
      99925    2    3    3    0    0 -0.78388223581E+02 -0.83411150891E+02  0.45347611183E+03  0.53668595565E+03  0.26322822286E+03 0.  0.
         25    1    4    4    0    0 -0.78786431628E+02 -0.57630333302E+02  0.23319600930E+03  0.28205751892E+03  0.12509000000E+03 0.  0.
         25    1    4    4    0    0  0.39820804693E+00 -0.25780817588E+02  0.22028010252E+03  0.25462843673E+03  0.12509000000E+03 0.  0.
         25    1    3    3    0    0  0.78388223581E+02  0.83411150891E+02  0.30729420045E+03  0.35096918301E+03  0.12509000000E+03 0.  0.
<mgrwt>
<rscale>  2 0.45734033E+03</rscale>
<asrwt>0</asrwt>
<pdfrwt beam="1">  1       21 0.12120775E+00 0.45734033E+03</pdfrwt>
<pdfrwt beam="2">  1       21 0.93297672E-02 0.45734033E+03</pdfrwt>
<totfact> 0.42978651E+04</totfact>
</mgrwt>
</event>
<event>
 7    0  0.4714446E-002  0.4553283E+03  0.7546771E-02  0.1026145E+00
         21   -1    0    0  502  501  0.00000000000E+00  0.00000000000E+00  0.82695469042E+03  0.82695469042E+03  0.00000000000E+00 0.  1.
         21   -1    0    0  501  502 -0.00000000000E+00 -0.00000000000E+00 -0.62676903796E+02  0.62676903796E+02  0.00000000000E+00 0.  1.
      99926    2    1    2    0    0  0.00000000000E+00  0.00000000000E+00  0.76427778662E+03  0.88963159421E+03  0.45532827532E+03 0.  0.
      99925    2    3    3    0    0 -0.66447982484E+02 -0.92062258678E+02  0.47903424293E+03  0.55811661542E+03  0.26292500196E+03 0.  0.
         25    1    4    4    0    0 -0.28432782314E+02 -0.11227428051E+02  0.26472652250E+03  0.29438430336E+03  0.12509000000E+03 0.  0.
         25    1    3    3    0    0  0.66447982484E+02  0.92062258678E+02  0.28524354369E+03  0.33151497879E+03  0.12509000000E+03 0.  0.
         25    1    4    4    0    0 -0.38015200171E+02 -0.80834830627E+02  0.21430772043E+03  0.26373231206E+03  0.12509000000E+03 0.  0.
<mgrwt>
<rscale>  2 0.45532828E+03</rscale>
<asrwt>0</asrwt>
<pdfrwt beam="1">  1       21 0.12161098E+00 0.45532828E+03</pdfrwt>
<pdfrwt beam="2">  1       21 0.92171922E-02 0.45532828E+03</pdfrwt>
<totfact> 0.43572905E+04</totfact>
</mgrwt>
</event>
<event>
 7    0  0.4714446E-002  0.4659777E+03  0.7546771E-02  0.1023062E+00
         21   -1    0    0  502  501  0.00000000000E+00  0.00000000000E+00  0.12603900912E+03  0.12603900912E+03  0.00000000000E+00 0. -1.
         21   -1    0    0  501  502 -0.00000000000E+00 -0.00000000000E+00 -0.43069043994E+03  0.43069043994E+03  0.00000000000E+00 0. -1.
      99926    2    1    2    0    0  0.00000000000E+00  0.00000000000E+00 -0.30465143082E+03  0.55672944906E+03  0.46597766593E+03 0.  0.
      99925    2    3    3    0    0  0.15972829524E+02 -0.66919662553E+02 -0.31216680195E+03  0.41377014918E+03  0.26272466879E+03 0.  0.
         25    1    4    4    0    0 -0.72351337330E+00 -0.28017287940E+02 -0.21308763621E+03  0.24867517106E+03  0.12509000000E+03 0.  0.
         25    1    3    3    0    0 -0.15972829524E+02  0.66919662553E+02  0.75153711255E+01  0.14295929988E+03  0.12509000000E+03 0.  0.
         25    1    4    4    0    0  0.16696342897E+02 -0.38902374613E+02 -0.99079165738E+02  0.16509497812E+03  0.12509000000E+03 0.  0.
<mgrwt>
<rscale>  2 0.46597767E+03</rscale>
<asrwt>0</asrwt>
<pdfrwt beam="1">  1       21 0.18535148E-01 0.46597767E+03</pdfrwt>
<pdfrwt beam="2">  1       21 0.63336830E-01 0.46597767E+03</pdfrwt>
<totfact> 0.56367136E+04</totfact>
</mgrwt>
</event>
<event>
 7    0  0.4714446E-002  0.4642021E+03  0.7546771E-02  0.1023570E+00
         21   -1    0    0  502  501  0.00000000000E+00  0.00000000000E+00  0.58062098005E+02  0.58062098005E+02  0.00000000000E+00 0. -1.
         21   -1    0    0  501  502 -0.00000000000E+00 -0.00000000000E+00 -0.92781500691E+03  0.92781500691E+03  0.00000000000E+00 0. -1.
      99926    2    1    2    0    0  0.71054273576E-14  0.00000000000E+00 -0.86975290890E+03  0.98587710491E+03  0.46420205024E+03 0.  0.
      99925    2    3    3    0    0 -0.61421056799E+02  0.30339473550E+02 -0.32957563834E+03  0.42718933736E+03  0.26301634683E+03 0.  0.
         25    1    3    3    0    0  0.61421056799E+02 -0.30339473550E+02 -0.54017727057E+03  0.55868776755E+03  0.12509000000E+03 0.  0.
         25    1    4    4    0    0 -0.82342744222E+01  0.26278870820E+01 -0.20728581137E+03  0.24225941625E+03  0.12509000000E+03 0.  0.
         25    1    4    4    0    0 -0.53186782377E+02  0.27711586468E+02 -0.12228982697E+03  0.18492992112E+03  0.12509000000E+03 0.  0.
<mgrwt>
<rscale>  2 0.46420205E+03</rscale>
<asrwt>0</asrwt>
<pdfrwt beam="1">  1       21 0.85385446E-02 0.46420205E+03</pdfrwt>
<pdfrwt beam="2">  1       21 0.13644337E+00 0.46420205E+03</pdfrwt>
<totfact> 0.36987863E+04</totfact>
</mgrwt>
</event>
<event>
 7    0  0.4714446E-002  0.4562240E+03  0.7546771E-02  0.1025882E+00
         21   -1    0    0  502  501  0.00000000000E+00  0.00000000000E+00  0.35606750290E+03  0.35606750290E+03  0.00000000000E+00 0.  1.
         21   -1    0    0  501  502 -0.00000000000E+00 -0.00000000000E+00 -0.14613823792E+03  0.14613823792E+03  0.00000000000E+00 0.  1.
      99926    2    1    2    0    0  0.00000000000E+00  0.53290705182E-14  0.20992926498E+03  0.50220574082E+03  0.45622396891E+03 0.  0.
      99925    2    3    3    0    0 -0.84743125619E+02  0.11904390173E+02  0.48579836176E+02  0.28083668670E+03  0.26303256883E+03 0.  0.
         25    1    3    3    0    0  0.84743125619E+02 -0.11904390173E+02  0.16134942881E+03  0.22136905412E+03  0.12509000000E+03 0.  0.
         25    1    4    4    0    0 -0.15473202196E+02 -0.25799736123E+02  0.25751706988E+02  0.13120863113E+03  0.12509000000E+03 0.  0.
         25    1    4    4    0    0 -0.69269923423E+02  0.37704126296E+02  0.22828129188E+02  0.14962805557E+03  0.12509000000E+03 0.  0.
<mgrwt>
<rscale>  2 0.45622397E+03</rscale>
<asrwt>0</asrwt>
<pdfrwt beam="1">  1       21 0.52362868E-01 0.45622397E+03</pdfrwt>
<pdfrwt beam="2">  1       21 0.21490917E-01 0.45622397E+03</pdfrwt>
<totfact> 0.64487161E+04</totfact>
</mgrwt>
</event>
<event>
 7    0  0.4714446E-002  0.4556295E+03  0.7546771E-02  0.1026056E+00
         21   -1    0    0  502  501  0.00000000000E+00  0.00000000000E+00  0.67184205280E+02  0.67184205280E+02  0.00000000000E+00 0. -1.
         21   -1    0    0  501  502 -0.00000000000E+00 -0.00000000000E+00 -0.77249661969E+03  0.77249661969E+03  0.00000000000E+00 0. -1.
      99926    2    1    2    0    0  0.00000000000E+00 -0.35527136788E-14 -0.70531241441E+03  0.83968082497E+03  0.45562954898E+03 0.  0.
      99925    2    3    3    0    0 -0.10885586150E+03 -0.31959771703E+02 -0.45866416677E+03  0.54075961168E+03  0.26301542570E+03 0.  0.
         25    1    4    4    0    0 -0.93657838404E+02 -0.51377433299E+01 -0.27644678674E+03  0.31759804959E+03  0.12509000000E+03 0.  0.
         25    1    3    3    0    0  0.10885586150E+03  0.31959771703E+02 -0.24664824763E+03  0.29892121328E+03  0.12509000000E+03 0.  0.
         25    1    4    4    0    0 -0.15198023097E+02 -0.26822028373E+02 -0.18221738003E+03  0.22316156210E+03  0.12509000000E+03 0.  0.
<mgrwt>
<rscale>  2 0.45562955E+03</rscale>
<asrwt>0</asrwt>
<pdfrwt beam="1">  1       21 0.98800305E-02 0.45562955E+03</pdfrwt>
<pdfrwt beam="2">  1       21 0.11360244E+00 0.45562955E+03</pdfrwt>
<totfact> 0.45678550E+04</totfact>
</mgrwt>
</event>
<event>
 7    0  0.4714446E-002  0.4552041E+03  0.7546771E-02  0.1026181E+00
         21   -1    0    0  502  501  0.00000000000E+00  0.00000000000E+00  0.94215538538E+02  0.94215538538E+02  0.00000000000E+00 0. -1.
         21   -1    0    0  501  502 -0.00000000000E+00 -0.00000000000E+00 -0.54983172855E+03  0.54983172855E+03  0.00000000000E+00 0. -1.
      99926    2    1    2    0    0  0.00000000000E+00  0.00000000000E+00 -0.45561619001E+03  0.64404726708E+03  0.45520409669E+03 0.  0.
      99925    2    3    3    0    0  0.10843701839E+03 -0.32899410849E+02 -0.28145366531E+03  0.40151675086E+03  0.26298018425E+03 0.  0.
         25    1    4    4    0    0  0.42495829664E+02 -0.51187931994E+02 -0.11607442406E+03  0.18315807365E+03  0.12509000000E+03 0.  0.
         25    1    4    4    0    0  0.65941188729E+02  0.18288521145E+02 -0.16537924125E+03  0.21835867721E+03  0.12509000000E+03 0.  0.
         25    1    3    3    0    0 -0.10843701839E+03  0.32899410849E+02 -0.17416252469E+03  0.24253051622E+03  0.12509000000E+03 0.  0.
<mgrwt>
<rscale>  2 0.45520410E+03</rscale>
<asrwt>0</asrwt>
<pdfrwt beam="1">  1       21 0.13855226E-01 0.45520410E+03</pdfrwt>
<pdfrwt beam="2">  1       21 0.80857608E-01 0.45520410E+03</pdfrwt>
<totfact> 0.55955566E+04</totfact>
</mgrwt>
</event>
<event>
 7    0  0.4714446E-002  0.4566871E+03  0.7546771E-02  0.1025746E+00
         21   -1    0    0  502  501  0.00000000000E+00  0.00000000000E+00  0.16088292461E+03  0.16088292461E+03  0.00000000000E+00 0.  1.
         21   -1    0    0  501  502 -0.00000000000E+00 -0.00000000000E+00 -0.32409144443E+03  0.32409144443E+03  0.00000000000E+00 0.  1.
      99926    2    1    2    0    0  0.00000000000E+00  0.00000000000E+00 -0.16320851982E+03  0.48497436904E+03  0.45668711136E+03 0.  0.
      99925    2    3    3    0    0 -0.47795453008E+01  0.10544156524E+03 -0.15012706926E+03  0.32078118958E+03  0.26310010819E+03 0.  0.
         25    1    4    4    0    0  0.35329510108E+02  0.40922930260E+02 -0.59944361320E+02  0.14887476300E+03  0.12509000000E+03 0.  0.
         25    1    4    4    0    0 -0.40109055409E+02  0.64518634983E+02 -0.90182707936E+02  0.17190642657E+03  0.12509000000E+03 0.  0.
         25    1    3    3    0    0  0.47795453008E+01 -0.10544156524E+03 -0.13081450559E+02  0.16419317947E+03  0.12509000000E+03 0.  0.
<mgrwt>
<rscale>  2 0.45668711E+03</rscale>
<asrwt>0</asrwt>
<pdfrwt beam="1">  1       21 0.23659254E-01 0.45668711E+03</pdfrwt>
<pdfrwt beam="2">  1       21 0.47660506E-01 0.45668711E+03</pdfrwt>
<totfact> 0.65458682E+04</totfact>
</mgrwt>
</event>
<event>
 7    0  0.4714446E-002  0.4648292E+03  0.7546771E-02  0.1023390E+00
         21   -1    0    0  502  501  0.00000000000E+00  0.00000000000E+00  0.35106423099E+03  0.35106423099E+03  0.00000000000E+00 0.  1.
         21   -1    0    0  501  502 -0.00000000000E+00 -0.00000000000E+00 -0.15386516340E+03  0.15386516340E+03  0.00000000000E+00 0.  1.
      99926    2    1    2    0    0  0.00000000000E+00  0.00000000000E+00  0.19719906760E+03  0.50492939439E+03  0.46482923860E+03 0.  0.
      99925    2    3    3    0    0 -0.12195156612E+03 -0.11972180141E+02  0.12206151221E+03  0.31438103332E+03  0.26252791046E+03 0.  0.
         25    1    4    4    0    0 -0.10186028805E+03 -0.19813884964E+01  0.82996465294E+02  0.18142592299E+03  0.12509000000E+03 0.  0.
         25    1    4    4    0    0 -0.20091278074E+02 -0.99907916450E+01  0.39065046914E+02  0.13295511033E+03  0.12509000000E+03 0.  0.
         25    1    3    3    0    0  0.12195156612E+03  0.11972180141E+02  0.75137555389E+02  0.19054836107E+03  0.12509000000E+03 0.  0.
<mgrwt>
<rscale>  2 0.46482924E+03</rscale>
<asrwt>0</asrwt>
<pdfrwt beam="1">  1       21 0.51627093E-01 0.46482924E+03</pdfrwt>
<pdfrwt beam="2">  1       21 0.22627230E-01 0.46482924E+03</pdfrwt>
<totfact> 0.60097890E+04</totfact>
</mgrwt>
</event>
<event>
 7    0  0.4714446E-002  0.4575755E+03  0.7546771E-02  0.1025487E+00
         21   -1    0    0  502  501  0.00000000000E+00  0.00000000000E+00  0.19141319889E+02  0.19141319889E+02  0.00000000000E+00 0. -1.
         21   -1    0    0  501  502 -0.00000000000E+00 -0.00000000000E+00 -0.27345988164E+04  0.27345988164E+04  0.00000000000E+00 0. -1.
      99926    2    1    2    0    0  0.00000000000E+00  0.71054273576E-14 -0.27154574965E+04  0.27537401363E+04  0.45757548323E+03 0.  0.
      99925    2    3    3    0    0 -0.65375958632E+02 -0.55078820280E+02 -0.12423485557E+04  0.12728602789E+04  0.26350647687E+03 0.  0.
         25    1    4    4    0    0 -0.20135956246E+02 -0.67264595162E+02 -0.64495942336E+03  0.66071941729E+03  0.12509000000E+03 0.  0.
         25    1    3    3    0    0  0.65375958632E+02  0.55078820280E+02 -0.14731089408E+04  0.14808798574E+04  0.12509000000E+03 0.  0.
         25    1    4    4    0    0 -0.45240002387E+02  0.12185774882E+02 -0.59738913230E+03  0.61214086158E+03  0.12509000000E+03 0.  0.
<mgrwt>
<rscale>  2 0.45757548E+03</rscale>
<asrwt>0</asrwt>
<pdfrwt beam="1">  1       21 0.28148991E-02 0.45757548E+03</pdfrwt>
<pdfrwt beam="2">  1       21 0.40214701E+00 0.45757548E+03</pdfrwt>
<totfact> 0.47723075E+03</totfact>
</mgrwt>
</event>
<event>
 7    0  0.4714446E-002  0.4238948E+03  0.7546771E-02  0.1035806E+00
         21   -1    0    0  502  501  0.00000000000E+00  0.00000000000E+00  0.13338431863E+04  0.13338431863E+04  0.00000000000E+00 0.  1.
         21   -1    0    0  501  502 -0.00000000000E+00 -0.00000000000E+00 -0.33678394152E+02  0.33678394152E+02  0.00000000000E+00 0.  1.
      99926    2    1    2    0    0 -0.35527136788E-14  0.00000000000E+00  0.13001647922E+04  0.13675215805E+04  0.42389478207E+03 0.  0.
      99925    2    3    3    0    0 -0.22427383324E+02  0.19950006469E+02  0.10851056590E+04  0.11169244353E+04  0.26299222961E+03 0.  0.
         25    1    4    4    0    0 -0.38657312916E+02  0.33247134679E+02  0.63995826533E+03  0.65405951508E+03  0.12509000000E+03 0.  0.
         25    1    3    3    0    0  0.22427383324E+02 -0.19950006469E+02  0.21505913321E+03  0.25059714515E+03  0.12509000000E+03 0.  0.
         25    1    4    4    0    0  0.16229929592E+02 -0.13297128210E+02  0.44514739362E+03  0.46286492023E+03  0.12509000000E+03 0.  0.
<mgrwt>
<rscale>  2 0.42389478E+03</rscale>
<asrwt>0</asrwt>
<pdfrwt beam="1">  1       21 0.19615337E+00 0.42389478E+03</pdfrwt>
<pdfrwt beam="2">  1       21 0.49527059E-02 0.42389478E+03</pdfrwt>
<totfact> 0.34920932E+04</totfact>
</mgrwt>
</event>
<event>
 7    0  0.4714446E-002  0.4591372E+03  0.7546771E-02  0.1025032E+00
         21   -1    0    0  502  501  0.00000000000E+00  0.00000000000E+00  0.46955858287E+02  0.46955858287E+02  0.00000000000E+00 0. -1.
         21   -1    0    0  501  502 -0.00000000000E+00 -0.00000000000E+00 -0.11223676742E+04  0.11223676742E+04  0.00000000000E+00 0. -1.
      99926    2    1    2    0    0  0.00000000000E+00  0.00000000000E+00 -0.10754118159E+04  0.11693235325E+04  0.45913717975E+03 0.  0.
      99925    2    3    3    0    0 -0.10869427867E+03  0.20160262564E+02 -0.57678010005E+03  0.64348897812E+03  0.26302452119E+03 0.  0.
         25    1    4    4    0    0 -0.27438829277E+02  0.13876272103E+02 -0.19656126766E+03  0.23500910690E+03  0.12509000000E+03 0.  0.
         25    1    3    3    0    0  0.10869427867E+03 -0.20160262564E+02 -0.49863171587E+03  0.52583455437E+03  0.12509000000E+03 0.  0.
         25    1    4    4    0    0 -0.81255449394E+02  0.62839904610E+01 -0.38021883239E+03  0.40847987123E+03  0.12509000000E+03 0.  0.
<mgrwt>
<rscale>  2 0.45913718E+03</rscale>
<asrwt>0</asrwt>
<pdfrwt beam="1">  1       21 0.69052734E-02 0.45913718E+03</pdfrwt>
<pdfrwt beam="2">  1       21 0.16505407E+00 0.45913718E+03</pdfrwt>
<totfact> 0.32096437E+04</totfact>
</mgrwt>
</event>
<event>
 7    0  0.4714446E-002  0.4546240E+03  0.7546771E-02  0.1026352E+00
         21   -1    0    0  502  501  0.00000000000E+00  0.00000000000E+00  0.63131797861E+03  0.63131797861E+03  0.00000000000E+00 0.  1.
         21   -1    0    0  501  502 -0.00000000000E+00 -0.00000000000E+00 -0.81845842989E+02  0.81845842989E+02  0.00000000000E+00 0.  1.
      99926    2    1    2    0    0  0.00000000000E+00  0.14210854715E-13  0.54947213562E+03  0.71316382160E+03  0.45462402996E+03 0.  0.
      99925    2    3    3    0    0 -0.37801118531E+02  0.90348488742E+02  0.25828435211E+03  0.38145671081E+03  0.26307155243E+03 0.  0.
         25    1    4    4    0    0 -0.25634519656E+02  0.84352520827E+02  0.16334532683E+03  0.22383404626E+03  0.12509000000E+03 0.  0.
         25    1    4    4    0    0 -0.12166598875E+02  0.59959679149E+01  0.94939025276E+02  0.15762266455E+03  0.12509000000E+03 0.  0.
         25    1    3    3    0    0  0.37801118531E+02 -0.90348488742E+02  0.29118778352E+03  0.33170711079E+03  0.12509000000E+03 0.  0.
<mgrwt>
<rscale>  2 0.45462403E+03</rscale>
<asrwt>0</asrwt>
<pdfrwt beam="1">  1       21 0.92840877E-01 0.45462403E+03</pdfrwt>
<pdfrwt beam="2">  1       21 0.12036154E-01 0.45462403E+03</pdfrwt>
<totfact> 0.52348753E+04</totfact>
</mgrwt>
</event>
<event>
 7    0  0.4714446E-002  0.4599434E+03  0.7546771E-02  0.1024798E+00
         21   -1    0    0  502  501  0.00000000000E+00  0.00000000000E+00  0.29034259360E+03  0.29034259360E+03  0.00000000000E+00 0.  1.
         21   -1    0    0  501  502 -0.00000000000E+00 -0.00000000000E+00 -0.18215368334E+03  0.18215368334E+03  0.00000000000E+00 0.  1.
      99926    2    1    2    0    0 -0.14210854715E-13  0.00000000000E+00  0.10818891026E+03  0.47249627694E+03  0.45994335675E+03 0.  0.
      99925    2    3    3    0    0 -0.11727838821E+03  0.91794617411E+01  0.62730421021E+02  0.29486614097E+03  0.26300656362E+03 0.  0.
         25    1    3    3    0    0  0.11727838821E+03 -0.91794617411E+01  0.45458489243E+02  0.17763013597E+03  0.12509000000E+03 0.  0.
         25    1    4    4    0    0 -0.33349997373E+02 -0.16575037961E+02  0.23204296440E+01  0.13053676379E+03  0.12509000000E+03 0.  0.
         25    1    4    4    0    0 -0.83928390841E+02  0.25754499702E+02  0.60409991377E+02  0.16432937717E+03  0.12509000000E+03 0.  0.
<mgrwt>
<rscale>  2 0.45994336E+03</rscale>
<asrwt>0</asrwt>
<pdfrwt beam="1">  1       21 0.42697440E-01 0.45994336E+03</pdfrwt>
<pdfrwt beam="2">  1       21 0.26787306E-01 0.45994336E+03</pdfrwt>
<totfact> 0.64676905E+04</totfact>
</mgrwt>
</event>
<event>
 7    0  0.4714446E-002  0.4782543E+03  0.7546771E-02  0.1019616E+00
         21   -1    0    0  502  501  0.00000000000E+00  0.00000000000E+00  0.29980070445E+03  0.29980070445E+03  0.00000000000E+00 0. -1.
         21   -1    0    0  501  502 -0.00000000000E+00 -0.00000000000E+00 -0.19073271347E+03  0.19073271347E+03  0.00000000000E+00 0. -1.
      99926    2    1    2    0    0  0.00000000000E+00  0.00000000000E+00  0.10906799098E+03  0.49053341792E+03  0.47825433343E+03 0.  0.
      99925    2    3    3    0    0  0.71159401516E+02 -0.92504474230E+02  0.13445128846E+03  0.31758094449E+03  0.26298245028E+03 0.  0.
         25    1    4    4    0    0  0.40247409195E+02 -0.28553926605E+02  0.24881806454E+02  0.13675449925E+03  0.12509000000E+03 0.  0.
         25    1    3    3    0    0 -0.71159401516E+02  0.92504474230E+02 -0.25383297484E+02  0.17295247344E+03  0.12509000000E+03 0.  0.
         25    1    4    4    0    0  0.30911992322E+02 -0.63950547625E+02  0.10956948201E+03  0.18082644524E+03  0.12509000000E+03 0.  0.
<mgrwt>
<rscale>  2 0.47825433E+03</rscale>
<asrwt>0</asrwt>
<pdfrwt beam="1">  1       21 0.44088339E-01 0.47825433E+03</pdfrwt>
<pdfrwt beam="2">  1       21 0.28048928E-01 0.47825433E+03</pdfrwt>
<totfact> 0.55053778E+04</totfact>
</mgrwt>
</event>
<event>
 7    0  0.4714446E-002  0.4276165E+03  0.7546771E-02  0.1034616E+00
         21   -1    0    0  502  501  0.00000000000E+00  0.00000000000E+00  0.12348258726E+03  0.12348258726E+03  0.00000000000E+00 0.  1.
         21   -1    0    0  501  502 -0.00000000000E+00 -0.00000000000E+00 -0.37020573562E+03  0.37020573562E+03  0.00000000000E+00 0.  1.
      99926    2    1    2    0    0  0.00000000000E+00  0.00000000000E+00 -0.24672314836E+03  0.49368832288E+03  0.42761647327E+03 0.  0.
      99925    2    3    3    0    0  0.54369209971E+01  0.78018547001E+02 -0.12128443039E+03  0.30004216658E+03  0.26305690426E+03 0.  0.
         25    1    4    4    0    0 -0.46794682052E+01  0.70342129738E+02 -0.35743280061E+02  0.14796960096E+03  0.12509000000E+03 0.  0.
         25    1    3    3    0    0 -0.54369209971E+01 -0.78018547001E+02 -0.12543871797E+03  0.19364615630E+03  0.12509000000E+03 0.  0.
         25    1    4    4    0    0  0.10116389202E+02  0.76764172630E+01 -0.85541150333E+02  0.15207256562E+03  0.12509000000E+03 0.  0.
<mgrwt>
<rscale>  2 0.42761647E+03</rscale>
<asrwt>0</asrwt>
<pdfrwt beam="1">  1       21 0.18159204E-01 0.42761647E+03</pdfrwt>
<pdfrwt beam="2">  1       21 0.54442020E-01 0.42761647E+03</pdfrwt>
<totfact> 0.82170547E+04</totfact>
</mgrwt>
</event>
<event>
 7    0  0.4714446E-002  0.4530177E+03  0.7546771E-02  0.1026826E+00
         21   -1    0    0  502  501  0.00000000000E+00  0.00000000000E+00  0.74778657704E+03  0.74778657704E+03  0.00000000000E+00 0. -1.
         21   -1    0    0  501  502 -0.00000000000E+00 -0.00000000000E+00 -0.68610828086E+02  0.68610828086E+02  0.00000000000E+00 0. -1.
      99926    2    1    2    0    0  0.14210854715E-13 -0.17763568394E-14  0.67917574896E+03  0.81639740513E+03  0.45301768744E+03 0.  0.
      99925    2    3    3    0    0 -0.93136716513E+02 -0.11537089398E+01  0.31842575725E+03  0.42337852057E+03  0.26301830695E+03 0.  0.
         25    1    4    4    0    0 -0.22931088050E+02  0.25381348587E+02  0.18327983102E+03  0.22451960319E+03  0.12509000000E+03 0.  0.
         25    1    4    4    0    0 -0.70205628463E+02 -0.26535057526E+02  0.13514592623E+03  0.19885891738E+03  0.12509000000E+03 0.  0.
         25    1    3    3    0    0  0.93136716513E+02  0.11537089398E+01  0.36074999170E+03  0.39301888456E+03  0.12509000000E+03 0.  0.
<mgrwt>
<rscale>  2 0.45301769E+03</rscale>
<asrwt>0</asrwt>
<pdfrwt beam="1">  1       21 0.10996861E+00 0.45301769E+03</pdfrwt>
<pdfrwt beam="2">  1       21 0.10089828E-01 0.45301769E+03</pdfrwt>
<totfact> 0.47719860E+04</totfact>
</mgrwt>
</event>
<event>
 7    0  0.4714446E-002  0.4536505E+03  0.7546771E-02  0.1026639E+00
         21   -1    0    0  502  501  0.00000000000E+00  0.00000000000E+00  0.42409431619E+03  0.42409431619E+03  0.00000000000E+00 0. -1.
         21   -1    0    0  501  502 -0.00000000000E+00 -0.00000000000E+00 -0.12131662679E+03  0.12131662679E+03  0.00000000000E+00 0. -1.
      99926    2    1    2    0    0  0.00000000000E+00  0.71054273576E-14  0.30277768940E+03  0.54541094298E+03  0.45365049050E+03 0.  0.
      99925    2    3    3    0    0 -0.10510402201E+03 -0.37725938248E+02  0.18279334873E+03  0.33922206850E+03  0.26303631223E+03 0.  0.
         25    1    4    4    0    0 -0.48970548781E+02 -0.56467578923E+02  0.11196180954E+03  0.18376522253E+03  0.12509000000E+03 0.  0.
         25    1    4    4    0    0 -0.56133473228E+02  0.18741640675E+02  0.70831539197E+02  0.15545684596E+03  0.12509000000E+03 0.  0.
         25    1    3    3    0    0  0.10510402201E+03  0.37725938248E+02  0.11998434066E+03  0.20618887449E+03  0.12509000000E+03 0.  0.
<mgrwt>
<rscale>  2 0.45365049E+03</rscale>
<asrwt>0</asrwt>
<pdfrwt beam="1">  1       21 0.62366811E-01 0.45365049E+03</pdfrwt>
<pdfrwt beam="2">  1       21 0.17840681E-01 0.45365049E+03</pdfrwt>
<totfact> 0.62839121E+04</totfact>
</mgrwt>
</event>
<event>
 7    0  0.4714446E-002  0.4566477E+03  0.7546771E-02  0.1025758E+00
         21   -1    0    0  502  501  0.00000000000E+00  0.00000000000E+00  0.15867227155E+03  0.15867227155E+03  0.00000000000E+00 0. -1.
         21   -1    0    0  501  502 -0.00000000000E+00 -0.00000000000E+00 -0.32855004018E+03  0.32855004018E+03  0.00000000000E+00 0. -1.
      99926    2    1    2    0    0  0.00000000000E+00  0.00000000000E+00 -0.16987776862E+03  0.48722231173E+03  0.45664770313E+03 0.  0.
      99925    2    3    3    0    0 -0.52803483489E+02 -0.44434440048E+02 -0.20445286877E+03  0.34023396872E+03  0.26305047156E+03 0.  0.
         25    1    4    4    0    0 -0.28543222084E+02 -0.42505782392E+02 -0.60815064442E+02  0.14821416001E+03  0.12509000000E+03 0.  0.
         25    1    3    3    0    0  0.52803483489E+02  0.44434440048E+02  0.34575100152E+02  0.14698834301E+03  0.12509000000E+03 0.  0.
         25    1    4    4    0    0 -0.24260261405E+02 -0.19286576562E+01 -0.14363780433E+03  0.19201980871E+03  0.12509000000E+03 0.  0.
<mgrwt>
<rscale>  2 0.45664770E+03</rscale>
<asrwt>0</asrwt>
<pdfrwt beam="1">  1       21 0.23334158E-01 0.45664770E+03</pdfrwt>
<pdfrwt beam="2">  1       21 0.48316182E-01 0.45664770E+03</pdfrwt>
<totfact> 0.65319425E+04</totfact>
</mgrwt>
</event>
<event>
 7    0  0.4714446E-002  0.4533717E+03  0.7546771E-02  0.1026721E+00
         21   -1    0    0  502  501  0.00000000000E+00  0.00000000000E+00  0.51204897750E+03  0.51204897750E+03  0.00000000000E+00 0.  1.
         21   -1    0    0  501  502 -0.00000000000E+00 -0.00000000000E+00 -0.10035461952E+03  0.10035461952E+03  0.00000000000E+00 0.  1.
      99926    2    1    2    0    0 -0.71054273576E-14 -0.35527136788E-14  0.41169435798E+03  0.61240359702E+03  0.45337172525E+03 0.  0.
      99925    2    3    3    0    0  0.61696226545E+02  0.18555315298E+02  0.38249296609E+03  0.46869920084E+03  0.26311090373E+03 0.  0.
         25    1    3    3    0    0 -0.61696226545E+02 -0.18555315298E+02  0.29201391889E+02  0.14370439619E+03  0.12509000000E+03 0.  0.
         25    1    4    4    0    0  0.11543896513E+01  0.32557730383E+02  0.15592267823E+03  0.20253574526E+03  0.12509000000E+03 0.  0.
         25    1    4    4    0    0  0.60541836894E+02 -0.14002415085E+02  0.22657028786E+03  0.26616345557E+03  0.12509000000E+03 0.  0.
<mgrwt>
<rscale>  2 0.45337173E+03</rscale>
<asrwt>0</asrwt>
<pdfrwt beam="1">  1       21 0.75301319E-01 0.45337173E+03</pdfrwt>
<pdfrwt beam="2">  1       21 0.14758033E-01 0.45337173E+03</pdfrwt>
<totfact> 0.58672144E+04</totfact>
</mgrwt>
</event>
<event>
 7    0  0.4714446E-002  0.4550154E+03  0.7546771E-02  0.1026237E+00
         21   -1    0    0  502  501  0.00000000000E+00  0.00000000000E+00  0.28737585260E+03  0.28737585260E+03  0.00000000000E+00 0.  1.
         21   -1    0    0  501  502 -0.00000000000E+00 -0.00000000000E+00 -0.18011171571E+03  0.18011171571E+03  0.00000000000E+00 0.  1.
      99926    2    1    2    0    0  0.00000000000E+00  0.71054273576E-14  0.10726413690E+03  0.46748756831E+03  0.45501541893E+03 0.  0.
      99925    2    3    3    0    0  0.85685138577E+02 -0.62986762961E+02  0.10767449275E+03  0.30330184490E+03  0.26284774575E+03 0.  0.
         25    1    3    3    0    0 -0.85685138577E+02  0.62986762961E+02 -0.41035584922E+00  0.16418572341E+03  0.12509000000E+03 0.  0.
         25    1    4    4    0    0  0.45737647031E+02 -0.34608141157E+02  0.11523744446E+02  0.13809402803E+03  0.12509000000E+03 0.  0.
         25    1    4    4    0    0  0.39947491546E+02 -0.28378621804E+02  0.96150748300E+02  0.16520781687E+03  0.12509000000E+03 0.  0.
<mgrwt>
<rscale>  2 0.45501542E+03</rscale>
<asrwt>0</asrwt>
<pdfrwt beam="1">  1       21 0.42261155E-01 0.45501542E+03</pdfrwt>
<pdfrwt beam="2">  1       21 0.26487017E-01 0.45501542E+03</pdfrwt>
<totfact> 0.67614948E+04</totfact>
</mgrwt>
</event>
<event>
 7    0  0.4714446E-002  0.4543854E+03  0.7546771E-02  0.1026422E+00
         21   -1    0    0  502  501  0.00000000000E+00  0.00000000000E+00  0.13118782574E+04  0.13118782574E+04  0.00000000000E+00 0.  1.
         21   -1    0    0  501  502 -0.00000000000E+00 -0.00000000000E+00 -0.39345508427E+02  0.39345508427E+02  0.00000000000E+00 0.  1.
      99926    2    1    2    0    0 -0.14210854715E-13  0.71054273576E-14  0.12725327490E+04  0.13512237658E+04  0.45438537403E+03 0.  0.
      99925    2    3    3    0    0 -0.86651423719E+02  0.59173665775E+02  0.68352387056E+03  0.74000452619E+03  0.26342328144E+03 0.  0.
         25    1    4    4    0    0 -0.91926819322E+01  0.48807047844E+02  0.36385098870E+03  0.38794546447E+03  0.12509000000E+03 0.  0.
         25    1    3    3    0    0  0.86651423719E+02 -0.59173665775E+02  0.58900887841E+03  0.61121923963E+03  0.12509000000E+03 0.  0.
         25    1    4    4    0    0 -0.77458741787E+02  0.10366617931E+02  0.31967288186E+03  0.35205906173E+03  0.12509000000E+03 0.  0.
<mgrwt>
<rscale>  2 0.45438537E+03</rscale>
<asrwt>0</asrwt>
<pdfrwt beam="1">  1       21 0.19292324E+00 0.45438537E+03</pdfrwt>
<pdfrwt beam="2">  1       21 0.57861050E-02 0.45438537E+03</pdfrwt>
<totfact> 0.27793833E+04</totfact>
</mgrwt>
</event>
<event>
 7    0  0.4714446E-002  0.4574284E+03  0.7546771E-02  0.1025530E+00
         21   -1    0    0  502  501  0.00000000000E+00  0.00000000000E+00  0.28538053011E+03  0.28538053011E+03  0.00000000000E+00 0. -1.
         21   -1    0    0  501  502 -0.00000000000E+00 -0.00000000000E+00 -0.18329976191E+03  0.18329976191E+03  0.00000000000E+00 0. -1.
      99926    2    1    2    0    0  0.00000000000E+00  0.94368957093E-15  0.10208076819E+03  0.46868029202E+03  0.45742839100E+03 0.  0.
      99925    2    3    3    0    0  0.32168687882E+02 -0.49991479067E+00 -0.49467669664E+02  0.26955844110E+03  0.26302020537E+03 0.  0.
         25    1    3    3    0    0 -0.32168687882E+02  0.49991479067E+00  0.15154843786E+03  0.19912185092E+03  0.12509000000E+03 0.  0.
         25    1    4    4    0    0  0.44076531335E+02  0.27992367293E+02 -0.34307799150E+02  0.13982434131E+03  0.12509000000E+03 0.  0.
         25    1    4    4    0    0 -0.11907843452E+02 -0.28492282083E+02 -0.15159870514E+02  0.12973409979E+03  0.12509000000E+03 0.  0.
<mgrwt>
<rscale>  2 0.45742839E+03</rscale>
<asrwt>0</asrwt>
<pdfrwt beam="1">  1       21 0.41967725E-01 0.45742839E+03</pdfrwt>
<pdfrwt beam="2">  1       21 0.26955847E-01 0.45742839E+03</pdfrwt>
<totfact> 0.66248997E+04</totfact>
</mgrwt>
</event>
<event>
 7    0  0.4714446E-002  0.4796508E+03  0.7546771E-02  0.1019231E+00
         21   -1    0    0  502  501  0.00000000000E+00  0.00000000000E+00  0.14310973566E+03  0.14310973566E+03  0.00000000000E+00 0.  1.
         21   -1    0    0  501  502 -0.00000000000E+00 -0.00000000000E+00 -0.40190298458E+03  0.40190298458E+03  0.00000000000E+00 0.  1.
      99926    2    1    2    0    0 -0.71054273576E-14  0.00000000000E+00 -0.25879324892E+03  0.54501272024E+03  0.47965083085E+03 0.  0.
      99925    2    3    3    0    0  0.35438608725E+02 -0.11082867582E+02 -0.12310855757E+02  0.26612241352E+03  0.26323156510E+03 0.  0.
         25    1    4    4    0    0  0.47030256768E+02 -0.18828794156E+01  0.22280823515E+02  0.13549661798E+03  0.12509000000E+03 0.  0.
         25    1    3    3    0    0 -0.35438608725E+02  0.11082867582E+02 -0.24648239316E+03  0.27889030672E+03  0.12509000000E+03 0.  0.
         25    1    4    4    0    0 -0.11591648043E+02 -0.91999881665E+01 -0.34591679272E+02  0.13062579554E+03  0.12509000000E+03 0.  0.
<mgrwt>
<rscale>  2 0.47965083E+03</rscale>
<asrwt>0</asrwt>
<pdfrwt beam="1">  1       21 0.21045549E-01 0.47965083E+03</pdfrwt>
<pdfrwt beam="2">  1       21 0.59103381E-01 0.47965083E+03</pdfrwt>
<totfact> 0.51400399E+04</totfact>
</mgrwt>
</event>
<event>
 7    0  0.4714446E-002  0.4523310E+03  0.7546771E-02  0.1027029E+00
         21   -1    0    0  502  501  0.00000000000E+00  0.00000000000E+00  0.16431541042E+03  0.16431541042E+03  0.00000000000E+00 0.  1.
         21   -1    0    0  501  502 -0.00000000000E+00 -0.00000000000E+00 -0.31129660206E+03  0.31129660206E+03  0.00000000000E+00 0.  1.
      99926    2    1    2    0    0  0.14210854715E-13  0.00000000000E+00 -0.14698119164E+03  0.47561201248E+03  0.45233098028E+03 0.  0.
      99925    2    3    3    0    0 -0.89623690362E+02  0.38060976627E+02 -0.37606980356E+02  0.28302107290E+03  0.26306957049E+03 0.  0.
         25    1    3    3    0    0  0.89623690362E+02 -0.38060976627E+02 -0.10937421129E+03  0.19259093959E+03  0.12509000000E+03 0.  0.
         25    1    4    4    0    0 -0.44031411835E+02 -0.71564543421E+01 -0.49910716909E+02  0.14187518398E+03  0.12509000000E+03 0.  0.
         25    1    4    4    0    0 -0.45592278527E+02  0.45217430969E+02  0.12303736553E+02  0.14114588892E+03  0.12509000000E+03 0.  0.
<mgrwt>
<rscale>  2 0.45233098E+03</rscale>
<asrwt>0</asrwt>
<pdfrwt beam="1">  1       21 0.24164031E-01 0.45233098E+03</pdfrwt>
<pdfrwt beam="2">  1       21 0.45778911E-01 0.45233098E+03</pdfrwt>
<totfact> 0.68459648E+04</totfact>
</mgrwt>
</event>
<event>
 7    0  0.4714446E-002  0.4636476E+03  0.7546771E-02  0.1023729E+00
         21   -1    0    0  502  501  0.00000000000E+00  0.00000000000E+00  0.12663982537E+04  0.12663982537E+04  0.00000000000E+00 0. -1.
         21   -1    0    0  501  502 -0.00000000000E+00 -0.00000000000E+00 -0.42437102878E+02  0.42437102878E+02  0.00000000000E+00 0. -1.
      99926    2    1    2    0    0  0.00000000000E+00  0.00000000000E+00  0.12239611508E+04  0.13088353566E+04  0.46364759452E+03 0.  0.
      99925    2    3    3    0    0 -0.47063411690E+02  0.46410766425E+02  0.10508728746E+04  0.10852822680E+04  0.26293512248E+03 0.  0.
         25    1    4    4    0    0 -0.11952668627E+02  0.26961977051E+02  0.36562482121E+03  0.38755494123E+03  0.12509000000E+03 0.  0.
         25    1    4    4    0    0 -0.35110743064E+02  0.19448789374E+02  0.68524805342E+03  0.69772732676E+03  0.12509000000E+03 0.  0.
         25    1    3    3    0    0  0.47063411690E+02 -0.46410766425E+02  0.17308827620E+03  0.22355308859E+03  0.12509000000E+03 0.  0.
<mgrwt>
<rscale>  2 0.46364759E+03</rscale>
<asrwt>0</asrwt>
<pdfrwt beam="1">  1       21 0.18623501E+00 0.46364759E+03</pdfrwt>
<pdfrwt beam="2">  1       21 0.62407513E-02 0.46364759E+03</pdfrwt>
<totfact> 0.26997014E+04</totfact>
</mgrwt>
</event>
<event>
 7    0  0.4714446E-002  0.4521759E+03  0.7546771E-02  0.1027075E+00
         21   -1    0    0  502  501  0.00000000000E+00  0.00000000000E+00  0.63602573333E+03  0.63602573333E+03  0.00000000000E+00 0. -1.
         21   -1    0    0  501  502 -0.00000000000E+00 -0.00000000000E+00 -0.80367433926E+02  0.80367433926E+02  0.00000000000E+00 0. -1.
      99926    2    1    2    0    0  0.00000000000E+00  0.00000000000E+00  0.55565829940E+03  0.71639316725E+03  0.45217587772E+03 0.  0.
      99925    2    3    3    0    0 -0.43361821837E+02  0.99270628331E+02  0.31576936192E+03  0.42496716349E+03  0.26296747874E+03 0.  0.
         25    1    4    4    0    0  0.17042483986E+02  0.60883760970E+02  0.14928838015E+03  0.20477257424E+03  0.12509000000E+03 0.  0.
         25    1    3    3    0    0  0.43361821837E+02 -0.99270628331E+02  0.23988893748E+03  0.29142600376E+03  0.12509000000E+03 0.  0.
         25    1    4    4    0    0 -0.60404305823E+02  0.38386867361E+02  0.16648098176E+03  0.22019458925E+03  0.12509000000E+03 0.  0.
<mgrwt>
<rscale>  2 0.45217588E+03</rscale>
<asrwt>0</asrwt>
<pdfrwt beam="1">  1       21 0.93533193E-01 0.45217588E+03</pdfrwt>
<pdfrwt beam="2">  1       21 0.11818741E-01 0.45217588E+03</pdfrwt>
<totfact> 0.53193876E+04</totfact>
</mgrwt>
</event>
<event>
 7    0  0.4714446E-002  0.4801319E+03  0.7546771E-02  0.1019099E+00
         21   -1    0    0  502  501  0.00000000000E+00  0.00000000000E+00  0.48919628368E+03  0.48919628368E+03  0.00000000000E+00 0.  1.
         21   -1    0    0  501  502 -0.00000000000E+00 -0.00000000000E+00 -0.11780886975E+03  0.11780886975E+03  0.00000000000E+00 0.  1.
      99926    2    1    2    0    0  0.00000000000E+00  0.14210854715E-13  0.37138741393E+03  0.60700515343E+03  0.48013190382E+03 0.  0.
      99925    2    3    3    0    0 -0.12675350820E+02 -0.12157269639E+03  0.30242657689E+03  0.41900597745E+03  0.26298971406E+03 0.  0.
         25    1    3    3    0    0  0.12675350820E+02  0.12157269639E+03  0.68960837044E+02  0.18799917599E+03  0.12509000000E+03 0.  0.
         25    1    4    4    0    0 -0.21656240122E+00 -0.70523127936E+02  0.21162482160E+03  0.25574622518E+03  0.12509000000E+03 0.  0.
         25    1    4    4    0    0 -0.12458788419E+02 -0.51049568452E+02  0.90801755286E+02  0.16325975227E+03  0.12509000000E+03 0.  0.
<mgrwt>
<rscale>  2 0.48013190E+03</rscale>
<asrwt>0</asrwt>
<pdfrwt beam="1">  1       21 0.71940629E-01 0.48013190E+03</pdfrwt>
<pdfrwt beam="2">  1       21 0.17324834E-01 0.48013190E+03</pdfrwt>
<totfact> 0.47987028E+04</totfact>
</mgrwt>
</event>
<event>
 7    0  0.4714446E-002  0.4564618E+03  0.7546771E-02  0.1025812E+00
         21   -1    0    0  502  501  0.00000000000E+00  0.00000000000E+00  0.44006083675E+03  0.44006083675E+03  0.00000000000E+00 0. -1.
         21   -1    0    0  501  502 -0.00000000000E+00 -0.00000000000E+00 -0.11836851055E+03  0.11836851055E+03  0.00000000000E+00 0. -1.
      99926    2    1    2    0    0  0.00000000000E+00  0.71054273576E-14  0.32169232620E+03  0.55842934730E+03  0.45646180912E+03 0.  0.
      99925    2    3    3    0    0 -0.90849877003E+02  0.39608384877E+02  0.13222576327E+03  0.31070447799E+03  0.26311802650E+03 0.  0.
         25    1    3    3    0    0  0.90849877003E+02 -0.39608384877E+02  0.18946656293E+03  0.24772486930E+03  0.12509000000E+03 0.  0.
         25    1    4    4    0    0 -0.58941459362E+02 -0.18635449881E+02  0.64481951856E+02  0.15371013577E+03  0.12509000000E+03 0.  0.
         25    1    4    4    0    0 -0.31908417641E+02  0.58243834758E+02  0.67743811416E+02  0.15699434222E+03  0.12509000000E+03 0.  0.
<mgrwt>
<rscale>  2 0.45646181E+03</rscale>
<asrwt>0</asrwt>
<pdfrwt beam="1">  1       21 0.64714828E-01 0.45646181E+03</pdfrwt>
<pdfrwt beam="2">  1       21 0.17407134E-01 0.45646181E+03</pdfrwt>
<totfact> 0.60609024E+04</totfact>
</mgrwt>
</event>
<event>
 7    0  0.4714446E-002  0.4515326E+03  0.7546771E-02  0.1027266E+00
         21   -1    0    0  502  501  0.00000000000E+00  0.00000000000E+00  0.92055869386E+02  0.92055869386E+02  0.00000000000E+00 0. -1.
         21   -1    0    0  501  502 -0.00000000000E+00 -0.00000000000E+00 -0.55369006647E+03  0.55369006647E+03  0.00000000000E+00 0. -1.
      99926    2    1    2    0    0  0.00000000000E+00  0.00000000000E+00 -0.46163419708E+03  0.64574593585E+03  0.45153259213E+03 0.  0.
      99925    2    3    3    0    0 -0.15020360719E+02 -0.94623408207E+02 -0.36842983186E+03  0.46267829149E+03  0.26296665148E+03 0.  0.
         25    1    3    3    0    0  0.15020360719E+02  0.94623408207E+02 -0.93204365218E+02  0.18306764436E+03  0.12509000000E+03 0.  0.
         25    1    4    4    0    0 -0.18545705230E+00 -0.46529694425E+02 -0.24919651803E+03  0.28268615027E+03  0.12509000000E+03 0.  0.
         25    1    4    4    0    0 -0.14834903667E+02 -0.48093713782E+02 -0.11923331383E+03  0.17999214122E+03  0.12509000000E+03 0.  0.
<mgrwt>
<rscale>  2 0.45153259E+03</rscale>
<asrwt>0</asrwt>
<pdfrwt beam="1">  1       21 0.13537628E-01 0.45153259E+03</pdfrwt>
<pdfrwt beam="2">  1       21 0.81425010E-01 0.45153259E+03</pdfrwt>
<totfact> 0.57504320E+04</totfact>
</mgrwt>
</event>
<event>
 7    0  0.4714446E-002  0.4682508E+03  0.7546771E-02  0.1022415E+00
         21   -1    0    0  502  501  0.00000000000E+00  0.00000000000E+00  0.31785035704E+03  0.31785035704E+03  0.00000000000E+00 0.  1.
         21   -1    0    0  501  502 -0.00000000000E+00 -0.00000000000E+00 -0.17245441449E+03  0.17245441449E+03  0.00000000000E+00 0.  1.
      99926    2    1    2    0    0  0.71054273576E-14 -0.71054273576E-14  0.14539594255E+03  0.49030477154E+03  0.46825077563E+03 0.  0.
      99925    2    3    3    0    0  0.59570396759E+02 -0.28124413212E+02  0.20189235763E+03  0.33805836664E+03  0.26302722367E+03 0.  0.
         25    1    3    3    0    0 -0.59570396759E+02  0.28124413212E+02 -0.56496415081E+02  0.15224640490E+03  0.12509000000E+03 0.  0.
         25    1    4    4    0    0  0.33209471301E+02  0.13424927272E+02  0.62284327751E+02  0.14425651888E+03  0.12509000000E+03 0.  0.
         25    1    4    4    0    0  0.26360925458E+02 -0.41549340484E+02  0.13960802988E+03  0.19380184775E+03  0.12509000000E+03 0.  0.
<mgrwt>
<rscale>  2 0.46825078E+03</rscale>
<asrwt>0</asrwt>
<pdfrwt beam="1">  1       21 0.46742700E-01 0.46825078E+03</pdfrwt>
<pdfrwt beam="2">  1       21 0.25360943E-01 0.46825078E+03</pdfrwt>
<totfact> 0.59453381E+04</totfact>
</mgrwt>
</event>
<event>
 7    0  0.4714446E-002  0.4583424E+03  0.7546771E-02  0.1025263E+00
         21   -1    0    0  502  501  0.00000000000E+00  0.00000000000E+00  0.15970776023E+03  0.15970776023E+03  0.00000000000E+00 0. -1.
         21   -1    0    0  501  502 -0.00000000000E+00 -0.00000000000E+00 -0.32884708338E+03  0.32884708338E+03  0.00000000000E+00 0. -1.
      99926    2    1    2    0    0  0.00000000000E+00  0.00000000000E+00 -0.16913932315E+03  0.48855484361E+03  0.45834236612E+03 0.  0.
      99925    2    3    3    0    0  0.44394149735E+02  0.16123633980E+02 -0.21935136882E+03  0.34572778128E+03  0.26302445446E+03 0.  0.
         25    1    4    4    0    0 -0.18037215680E+02  0.34642107365E+01 -0.11368465195E+03  0.17002661584E+03  0.12509000000E+03 0.  0.
         25    1    3    3    0    0 -0.44394149735E+02 -0.16123633980E+02  0.50212045671E+02  0.14282706233E+03  0.12509000000E+03 0.  0.
         25    1    4    4    0    0  0.62431365415E+02  0.12659423244E+02 -0.10566671687E+03  0.17570116545E+03  0.12509000000E+03 0.  0.
<mgrwt>
<rscale>  2 0.45834237E+03</rscale>
<asrwt>0</asrwt>
<pdfrwt beam="1">  1       21 0.23486436E-01 0.45834237E+03</pdfrwt>
<pdfrwt beam="2">  1       21 0.48359865E-01 0.45834237E+03</pdfrwt>
<totfact> 0.64357790E+04</totfact>
</mgrwt>
</event>
<event>
 7    0  0.4714446E-002  0.4349620E+03  0.7546771E-02  0.1032304E+00
         21   -1    0    0  502  501  0.00000000000E+00  0.00000000000E+00  0.83727599104E+02  0.83727599104E+02  0.00000000000E+00 0. -1.
         21   -1    0    0  501  502 -0.00000000000E+00 -0.00000000000E+00 -0.56490327680E+03  0.56490327680E+03  0.00000000000E+00 0. -1.
      99926    2    1    2    0    0  0.00000000000E+00 -0.31086244690E-14 -0.48117567770E+03  0.64863087590E+03  0.43496204475E+03 0.  0.
      99925    2    3    3    0    0  0.89218825748E+02 -0.35960785559E+01 -0.26659583400E+03  0.38468969293E+03  0.26256406931E+03 0.  0.
         25    1    3    3    0    0 -0.89218825748E+02  0.35960785559E+01 -0.21457984370E+03  0.26394118298E+03  0.12509000000E+03 0.  0.
         25    1    4    4    0    0  0.75961337726E+02  0.17094615861E+02 -0.16850140295E+03  0.22383605969E+03  0.12509000000E+03 0.  0.
         25    1    4    4    0    0  0.13257488023E+02 -0.20690694417E+02 -0.98094431047E+02  0.16085363324E+03  0.12509000000E+03 0.  0.
<mgrwt>
<rscale>  2 0.43496204E+03</rscale>
<asrwt>0</asrwt>
<pdfrwt beam="1">  1       21 0.12312882E-01 0.43496204E+03</pdfrwt>
<pdfrwt beam="2">  1       21 0.83074013E-01 0.43496204E+03</pdfrwt>
<totfact> 0.65537949E+04</totfact>
</mgrwt>
</event>
<event>
 7    0  0.4714446E-002  0.4535460E+03  0.7546771E-02  0.1026670E+00
         21   -1    0    0  502  501  0.00000000000E+00  0.00000000000E+00  0.23356693039E+03  0.23356693039E+03  0.00000000000E+00 0.  1.
         21   -1    0    0  501  502 -0.00000000000E+00 -0.00000000000E+00 -0.22017667967E+03  0.22017667967E+03  0.00000000000E+00 0.  1.
      99926    2    1    2    0    0  0.00000000000E+00  0.00000000000E+00  0.13390250723E+02  0.45374361006E+03  0.45354598979E+03 0.  0.
      99925    2    3    3    0    0 -0.20806350369E+02  0.10984291661E+03  0.76291251692E+01  0.28587738591E+03  0.26300058114E+03 0.  0.
         25    1    3    3    0    0  0.20806350369E+02 -0.10984291661E+03  0.57611255535E+01  0.16786622415E+03  0.12509000000E+03 0.  0.
         25    1    4    4    0    0 -0.36805429848E+02  0.64382782896E+02  0.33791766927E+02  0.14929559274E+03  0.12509000000E+03 0.  0.
         25    1    4    4    0    0  0.15999079479E+02  0.45460133709E+02 -0.26162641758E+02  0.13658179317E+03  0.12509000000E+03 0.  0.
<mgrwt>
<rscale>  2 0.45354599E+03</rscale>
<asrwt>0</asrwt>
<pdfrwt beam="1">  1       21 0.34348078E-01 0.45354599E+03</pdfrwt>
<pdfrwt beam="2">  1       21 0.32378923E-01 0.45354599E+03</pdfrwt>
<totfact> 0.69440057E+04</totfact>
</mgrwt>
</event>
<event>
 7    0  0.4714446E-002  0.4520146E+03  0.7546771E-02  0.1027123E+00
         21   -1    0    0  502  501  0.00000000000E+00  0.00000000000E+00  0.44063916075E+03  0.44063916075E+03  0.00000000000E+00 0. -1.
         21   -1    0    0  501  502 -0.00000000000E+00 -0.00000000000E+00 -0.11592092311E+03  0.11592092311E+03  0.00000000000E+00 0. -1.
      99926    2    1    2    0    0  0.00000000000E+00  0.00000000000E+00  0.32471823764E+03  0.55656008386E+03  0.45201459389E+03 0.  0.
      99925    2    3    3    0    0  0.83833687455E+02  0.68561824184E+02  0.17827668210E+03  0.33560432318E+03  0.26290468894E+03 0.  0.
         25    1    4    4    0    0  0.24868662619E+02  0.31132174391E+01  0.54167671267E+02  0.13859937667E+03  0.12509000000E+03 0.  0.
         25    1    4    4    0    0  0.58965024835E+02  0.65448606744E+02  0.12410901083E+03  0.19700494651E+03  0.12509000000E+03 0.  0.
         25    1    3    3    0    0 -0.83833687455E+02 -0.68561824184E+02  0.14644155554E+03  0.22095576068E+03  0.12509000000E+03 0.  0.
<mgrwt>
<rscale>  2 0.45201459E+03</rscale>
<asrwt>0</asrwt>
<pdfrwt beam="1">  1       21 0.64799876E-01 0.45201459E+03</pdfrwt>
<pdfrwt beam="2">  1       21 0.17047195E-01 0.45201459E+03</pdfrwt>
<totfact> 0.62907612E+04</totfact>
</mgrwt>
</event>
<event>
 7    0  0.4714446E-002  0.4427725E+03  0.7546771E-02  0.1029900E+00
         21   -1    0    0  502  501  0.00000000000E+00  0.00000000000E+00  0.32161549285E+03  0.32161549285E+03  0.00000000000E+00 0.  1.
         21   -1    0    0  501  502 -0.00000000000E+00 -0.00000000000E+00 -0.15239275319E+03  0.15239275319E+03  0.00000000000E+00 0.  1.
      99926    2    1    2    0    0 -0.35527136788E-14  0.00000000000E+00  0.16922273966E+03  0.47400824603E+03  0.44277249428E+03 0.  0.
      99925    2    3    3    0    0 -0.29520121422E+02 -0.51374532422E+02  0.19806134152E+02  0.27033298919E+03  0.26301494623E+03 0.  0.
         25    1    3    3    0    0  0.29520121422E+02  0.51374532422E+02  0.14941660551E+03  0.20367525685E+03  0.12509000000E+03 0.  0.
         25    1    4    4    0    0 -0.27154100025E+02 -0.36890629217E+02  0.47404991453E+02  0.14139662297E+03  0.12509000000E+03 0.  0.
         25    1    4    4    0    0 -0.23660213968E+01 -0.14483903205E+02 -0.27598857301E+02  0.12893636622E+03  0.12509000000E+03 0.  0.
<mgrwt>
<rscale>  2 0.44277249E+03</rscale>
<asrwt>0</asrwt>
<pdfrwt beam="1">  1       21 0.47296396E-01 0.44277249E+03</pdfrwt>
<pdfrwt beam="2">  1       21 0.22410699E-01 0.44277249E+03</pdfrwt>
<totfact> 0.74071154E+04</totfact>
</mgrwt>
</event>
<event>
 7    0  0.4714446E-002  0.4533252E+03  0.7546771E-02  0.1026735E+00
         21   -1    0    0  502  501  0.00000000000E+00  0.00000000000E+00  0.41847854785E+03  0.41847854785E+03  0.00000000000E+00 0. -1.
         21   -1    0    0  501  502 -0.00000000000E+00 -0.00000000000E+00 -0.12276839066E+03  0.12276839066E+03  0.00000000000E+00 0. -1.
      99926    2    1    2    0    0  0.00000000000E+00  0.00000000000E+00  0.29571015719E+03  0.54124693852E+03  0.45332521592E+03 0.  0.
      99925    2    3    3    0    0 -0.79128059001E+02  0.61653000764E+02  0.24461779183E+03  0.37296063449E+03  0.26305784264E+03 0.  0.
         25    1    3    3    0    0  0.79128059001E+02 -0.61653000764E+02  0.51092365359E+02  0.16828630403E+03  0.12509000000E+03 0.  0.
         25    1    4    4    0    0 -0.19177199201E+02 -0.47402620067E+01  0.12702841048E+03  0.17937101277E+03  0.12509000000E+03 0.  0.
         25    1    4    4    0    0 -0.59950859801E+02  0.66393262771E+02  0.11758938135E+03  0.19358962172E+03  0.12509000000E+03 0.  0.
<mgrwt>
<rscale>  2 0.45332522E+03</rscale>
<asrwt>0</asrwt>
<pdfrwt beam="1">  1       21 0.61540963E-01 0.45332522E+03</pdfrwt>
<pdfrwt beam="2">  1       21 0.18054175E-01 0.45332522E+03</pdfrwt>
<totfact> 0.63283226E+04</totfact>
</mgrwt>
</event>
<event>
 7    0  0.4714446E-002  0.4588015E+03  0.7546771E-02  0.1025129E+00
         21   -1    0    0  502  501  0.00000000000E+00  0.00000000000E+00  0.10088993637E+03  0.10088993637E+03  0.00000000000E+00 0. -1.
         21   -1    0    0  501  502 -0.00000000000E+00 -0.00000000000E+00 -0.52160509380E+03  0.52160509380E+03  0.00000000000E+00 0. -1.
      99926    2    1    2    0    0  0.00000000000E+00  0.00000000000E+00 -0.42071515742E+03  0.62249503017E+03  0.45880150273E+03 0.  0.
      99925    2    3    3    0    0 -0.55722927565E+01  0.39518365188E+02 -0.11518656433E+03  0.28994731791E+03  0.26307556125E+03 0.  0.
         25    1    3    3    0    0  0.55722927565E+01 -0.39518365188E+02 -0.30552859310E+03  0.33254771227E+03  0.12509000000E+03 0.  0.
         25    1    4    4    0    0 -0.40416083754E+02  0.21802948719E+02 -0.74794472114E+02  0.15280886610E+03  0.12509000000E+03 0.  0.
         25    1    4    4    0    0  0.34843790998E+02  0.17715416469E+02 -0.40392092213E+02  0.13713845181E+03  0.12509000000E+03 0.  0.
<mgrwt>
<rscale>  2 0.45880150E+03</rscale>
<asrwt>0</asrwt>
<pdfrwt beam="1">  1       21 0.14836755E-01 0.45880150E+03</pdfrwt>
<pdfrwt beam="2">  1       21 0.76706632E-01 0.45880150E+03</pdfrwt>
<totfact> 0.55625943E+04</totfact>
</mgrwt>
</event>
<event>
 7    0  0.4714446E-002  0.4458787E+03  0.7546771E-02  0.1028958E+00
         21   -1    0    0  502  501  0.00000000000E+00  0.00000000000E+00  0.37823590707E+03  0.37823590707E+03  0.00000000000E+00 0.  1.
         21   -1    0    0  501  502 -0.00000000000E+00 -0.00000000000E+00 -0.13140465462E+03  0.13140465462E+03  0.00000000000E+00 0.  1.
      99926    2    1    2    0    0 -0.14210854715E-13  0.00000000000E+00  0.24683125245E+03  0.50964056169E+03  0.44587872222E+03 0.  0.
      99925    2    3    3    0    0 -0.80396236769E+02 -0.51734590577E+02  0.20445254756E+03  0.34659613376E+03  0.26303614388E+03 0.  0.
         25    1    3    3    0    0  0.80396236769E+02  0.51734590577E+02  0.42378704887E+02  0.16304442792E+03  0.12509000000E+03 0.  0.
         25    1    4    4    0    0 -0.92321110194E+01 -0.33792105313E+02  0.12916340557E+03  0.18318796820E+03  0.12509000000E+03 0.  0.
         25    1    4    4    0    0 -0.71164125750E+02 -0.17942485264E+02  0.75289141994E+02  0.16340816557E+03  0.12509000000E+03 0.  0.
<mgrwt>
<rscale>  2 0.44587872E+03</rscale>
<asrwt>0</asrwt>
<pdfrwt beam="1">  1       21 0.55622927E-01 0.44587872E+03</pdfrwt>
<pdfrwt beam="2">  1       21 0.19324214E-01 0.44587872E+03</pdfrwt>
<totfact> 0.69493802E+04</totfact>
</mgrwt>
</event>
<event>
 7    0  0.4714446E-002  0.4585522E+03  0.7546771E-02  0.1025202E+00
         21   -1    0    0  502  501  0.00000000000E+00  0.00000000000E+00  0.10935657328E+03  0.10935657328E+03  0.00000000000E+00 0.  1.
         21   -1    0    0  501  502 -0.00000000000E+00 -0.00000000000E+00 -0.48069840523E+03  0.48069840523E+03  0.00000000000E+00 0.  1.
      99926    2    1    2    0    0  0.00000000000E+00  0.00000000000E+00 -0.37134183195E+03  0.59005497851E+03  0.45855220150E+03 0.  0.
      99925    2    3    3    0    0 -0.11361402465E+03 -0.15584168327E+02 -0.25888770709E+03  0.38647587546E+03  0.26303943532E+03 0.  0.
         25    1    4    4    0    0 -0.98464398509E+02 -0.98435551487E+01 -0.16279878726E+03  0.22791025994E+03  0.12509000000E+03 0.  0.
         25    1    4    4    0    0 -0.15149626140E+02 -0.57406131782E+01 -0.96088919828E+02  0.15856561552E+03  0.12509000000E+03 0.  0.
         25    1    3    3    0    0  0.11361402465E+03  0.15584168327E+02 -0.11245412486E+03  0.20357910305E+03  0.12509000000E+03 0.  0.
<mgrwt>
<rscale>  2 0.45855220E+03</rscale>
<asrwt>0</asrwt>
<pdfrwt beam="1">  1       21 0.16081849E-01 0.45855220E+03</pdfrwt>
<pdfrwt beam="2">  1       21 0.70690941E-01 0.45855220E+03</pdfrwt>
<totfact> 0.57658707E+04</totfact>
</mgrwt>
</event>
<event>
 7    0  0.4714446E-002  0.4519806E+03  0.7546771E-02  0.1027133E+00
         21   -1    0    0  502  501  0.00000000000E+00  0.00000000000E+00  0.15969083737E+03  0.15969083737E+03  0.00000000000E+00 0. -1.
         21   -1    0    0  501  502 -0.00000000000E+00 -0.00000000000E+00 -0.31981558555E+03  0.31981558555E+03  0.00000000000E+00 0. -1.
      99926    2    1    2    0    0 -0.71054273576E-14  0.00000000000E+00 -0.16012474818E+03  0.47950642291E+03  0.45198061312E+03 0.  0.
      99925    2    3    3    0    0  0.57041055755E+02  0.26746119479E+02 -0.49972902328E+01  0.27050624765E+03  0.26302018965E+03 0.  0.
         25    1    4    4    0    0  0.68896321869E+02  0.73850130838E+01 -0.92879588724E+01  0.14330043917E+03  0.12509000000E+03 0.  0.
         25    1    3    3    0    0 -0.57041055755E+02 -0.26746119479E+02 -0.15512745795E+03  0.20900017526E+03  0.12509000000E+03 0.  0.
         25    1    4    4    0    0 -0.11855266114E+02  0.19361106395E+02  0.42906686395E+01  0.12720580849E+03  0.12509000000E+03 0.  0.
<mgrwt>
<rscale>  2 0.45198061E+03</rscale>
<asrwt>0</asrwt>
<pdfrwt beam="1">  1       21 0.23483947E-01 0.45198061E+03</pdfrwt>
<pdfrwt beam="2">  1       21 0.47031703E-01 0.45198061E+03</pdfrwt>
<totfact> 0.68359796E+04</totfact>
</mgrwt>
</event>
<event>
 7    0  0.4714446E-002  0.4771911E+03  0.7546771E-02  0.1019910E+00
         21   -1    0    0  502  501  0.00000000000E+00  0.00000000000E+00  0.55006745583E+03  0.55006745583E+03  0.00000000000E+00 0. -1.
         21   -1    0    0  501  502 -0.00000000000E+00 -0.00000000000E+00 -0.10349248428E+03  0.10349248428E+03  0.00000000000E+00 0. -1.
      99926    2    1    2    0    0  0.00000000000E+00  0.00000000000E+00  0.44657497155E+03  0.65355994011E+03  0.47719114630E+03 0.  0.
      99925    2    3    3    0    0 -0.76918856232E+02 -0.30185720542E+02  0.41815436327E+03  0.50097249881E+03  0.26323503732E+03 0.  0.
         25    1    4    4    0    0 -0.49674069763E+02  0.23778535812E+02  0.19586062869E+03  0.23883430646E+03  0.12509000000E+03 0.  0.
         25    1    3    3    0    0  0.76918856232E+02  0.30185720542E+02  0.28420608280E+02  0.15258744130E+03  0.12509000000E+03 0.  0.
         25    1    4    4    0    0 -0.27244786469E+02 -0.53964256354E+02  0.22229373458E+03  0.26213819235E+03  0.12509000000E+03 0.  0.
<mgrwt>
<rscale>  2 0.47719115E+03</rscale>
<asrwt>0</asrwt>
<pdfrwt beam="1">  1       21 0.80892271E-01 0.47719115E+03</pdfrwt>
<pdfrwt beam="2">  1       21 0.15219483E-01 0.47719115E+03</pdfrwt>
<totfact> 0.46757038E+04</totfact>
</mgrwt>
</event>
<event>
 7    0  0.4714446E-002  0.4361836E+03  0.7546771E-02  0.1031924E+00
         21   -1    0    0  502  501  0.00000000000E+00  0.00000000000E+00  0.15648207017E+03  0.15648207017E+03  0.00000000000E+00 0. -1.
         21   -1    0    0  501  502 -0.00000000000E+00 -0.00000000000E+00 -0.30395837693E+03  0.30395837693E+03  0.00000000000E+00 0. -1.
      99926    2    1    2    0    0  0.00000000000E+00 -0.71054273576E-14 -0.14747630676E+03  0.46044044711E+03  0.43618361303E+03 0.  0.
      99925    2    3    3    0    0 -0.51684430620E+02  0.30435672140E+02 -0.17513917128E+02  0.27034746637E+03  0.26302738407E+03 0.  0.
         25    1    3    3    0    0  0.51684430620E+02 -0.30435672140E+02 -0.12996238963E+03  0.19009298074E+03  0.12509000000E+03 0.  0.
         25    1    4    4    0    0 -0.35026691060E+02  0.54462871466E+02 -0.12619639837E+01  0.14086225225E+03  0.12509000000E+03 0.  0.
         25    1    4    4    0    0 -0.16657739560E+02 -0.24027199326E+02 -0.16251953144E+02  0.12948521412E+03  0.12509000000E+03 0.  0.
<mgrwt>
<rscale>  2 0.43618361E+03</rscale>
<asrwt>0</asrwt>
<pdfrwt beam="1">  1       21 0.23012070E-01 0.43618361E+03</pdfrwt>
<pdfrwt beam="2">  1       21 0.44699760E-01 0.43618361E+03</pdfrwt>
<totfact> 0.79355594E+04</totfact>
</mgrwt>
</event>
<event>
 7    0  0.4714446E-002  0.4532078E+03  0.7546771E-02  0.1026770E+00
         21   -1    0    0  502  501  0.00000000000E+00  0.00000000000E+00  0.27364209556E+03  0.27364209556E+03  0.00000000000E+00 0.  1.
         21   -1    0    0  501  502 -0.00000000000E+00 -0.00000000000E+00 -0.18765143259E+03  0.18765143259E+03  0.00000000000E+00 0.  1.
      99926    2    1    2    0    0 -0.17763568394E-14  0.00000000000E+00  0.85990662973E+02  0.46129352815E+03  0.45320781656E+03 0.  0.
      99925    2    3    3    0    0 -0.11127973602E+02  0.65582070697E+02 -0.36964401101E+02  0.27370276165E+03  0.26291062168E+03 0.  0.
         25    1    3    3    0    0  0.11127973602E+02 -0.65582070697E+02  0.12295506407E+03  0.18759076650E+03  0.12509000000E+03 0.  0.
         25    1    4    4    0    0 -0.16607899131E+02  0.47835746762E+02 -0.55448605247E+02  0.14589769328E+03  0.12509000000E+03 0.  0.
         25    1    4    4    0    0  0.54799255294E+01  0.17746323935E+02  0.18484204146E+02  0.12780506837E+03  0.12509000000E+03 0.  0.
<mgrwt>
<rscale>  2 0.45320782E+03</rscale>
<asrwt>0</asrwt>
<pdfrwt beam="1">  1       21 0.40241485E-01 0.45320782E+03</pdfrwt>
<pdfrwt beam="2">  1       21 0.27595799E-01 0.45320782E+03</pdfrwt>
<totfact> 0.69064902E+04</totfact>
</mgrwt>
</event>
<event>
 7    0  0.4714446E-002  0.4585646E+03  0.7546771E-02  0.1025198E+00
         21   -1    0    0  502  501  0.00000000000E+00  0.00000000000E+00  0.12340672810E+03  0.12340672810E+03  0.00000000000E+00 0. -1.
         21   -1    0    0  501  502 -0.00000000000E+00 -0.00000000000E+00 -0.42599270000E+03  0.42599270000E+03  0.00000000000E+00 0. -1.
      99926    2    1    2    0    0  0.00000000000E+00  0.00000000000E+00 -0.30258597190E+03  0.54939942809E+03  0.45856456601E+03 0.  0.
      99925    2    3    3    0    0  0.37683010432E+02  0.40493414538E+02 -0.66944113799E+02  0.27693967091E+03  0.26297212980E+03 0.  0.
         25    1    3    3    0    0 -0.37683010432E+02 -0.40493414538E+02 -0.23564185810E+03  0.27245975719E+03  0.12509000000E+03 0.  0.
         25    1    4    4    0    0  0.17866955785E+02  0.26757864265E+01  0.49342776701E+01  0.12648416161E+03  0.12509000000E+03 0.  0.
         25    1    4    4    0    0  0.19816054648E+02  0.37817628111E+02 -0.71878391469E+02  0.15045550930E+03  0.12509000000E+03 0.  0.
<mgrwt>
<rscale>  2 0.45856457E+03</rscale>
<asrwt>0</asrwt>
<pdfrwt beam="1">  1       21 0.18148048E-01 0.45856457E+03</pdfrwt>
<pdfrwt beam="2">  1       21 0.62645985E-01 0.45856457E+03</pdfrwt>
<totfact> 0.60190602E+04</totfact>
</mgrwt>
</event>
<event>
 7    0  0.4714446E-002  0.4507189E+03  0.7546771E-02  0.1027508E+00
         21   -1    0    0  502  501  0.00000000000E+00  0.00000000000E+00  0.44753072037E+03  0.44753072037E+03  0.00000000000E+00 0. -1.
         21   -1    0    0  501  502 -0.00000000000E+00 -0.00000000000E+00 -0.11348245705E+03  0.11348245705E+03  0.00000000000E+00 0. -1.
      99926    2    1    2    0    0  0.14210854715E-13 -0.71054273576E-14  0.33404826332E+03  0.56101317742E+03  0.45071891796E+03 0.  0.
      99925    2    3    3    0    0 -0.89923780186E+02  0.52451527523E+02  0.25178101884E+03  0.37865951939E+03  0.26296749076E+03 0.  0.
         25    1    4    4    0    0 -0.72508959783E+02  0.56076007080E+02  0.11992372294E+03  0.19603896358E+03  0.12509000000E+03 0.  0.
         25    1    4    4    0    0 -0.17414820404E+02 -0.36244795566E+01  0.13185729589E+03  0.18262055580E+03  0.12509000000E+03 0.  0.
         25    1    3    3    0    0  0.89923780186E+02 -0.52451527523E+02  0.82267244483E+02  0.18235365803E+03  0.12509000000E+03 0.  0.
<mgrwt>
<rscale>  2 0.45071892E+03</rscale>
<asrwt>0</asrwt>
<pdfrwt beam="1">  1       21 0.65813341E-01 0.45071892E+03</pdfrwt>
<pdfrwt beam="2">  1       21 0.16688597E-01 0.45071892E+03</pdfrwt>
<totfact> 0.63259582E+04</totfact>
</mgrwt>
</event>
<event>
 7    0  0.4714446E-002  0.4512150E+03  0.7546771E-02  0.1027360E+00
         21   -1    0    0  502  501  0.00000000000E+00  0.00000000000E+00  0.51042024941E+03  0.51042024941E+03  0.00000000000E+00 0.  1.
         21   -1    0    0  501  502 -0.00000000000E+00 -0.00000000000E+00 -0.99719279418E+02  0.99719279418E+02  0.00000000000E+00 0.  1.
      99926    2    1    2    0    0  0.00000000000E+00 -0.71054273576E-14  0.41070096999E+03  0.61013952883E+03  0.45121497968E+03 0.  0.
      99925    2    3    3    0    0 -0.27566142940E+02  0.48021702980E+02  0.38715456767E+03  0.47133060492E+03  0.26305494421E+03 0.  0.
         25    1    4    4    0    0 -0.48546524213E+02  0.34983717065E+02  0.23450421951E+03  0.27243414349E+03  0.12509000000E+03 0.  0.
         25    1    3    3    0    0  0.27566142940E+02 -0.48021702980E+02  0.23546402320E+02  0.13880892391E+03  0.12509000000E+03 0.  0.
         25    1    4    4    0    0  0.20980381274E+02  0.13037985915E+02  0.15265034817E+03  0.19889646143E+03  0.12509000000E+03 0.  0.
<mgrwt>
<rscale>  2 0.45121498E+03</rscale>
<asrwt>0</asrwt>
<pdfrwt beam="1">  1       21 0.75061800E-01 0.45121498E+03</pdfrwt>
<pdfrwt beam="2">  1       21 0.14664600E-01 0.45121498E+03</pdfrwt>
<totfact> 0.59827136E+04</totfact>
</mgrwt>
</event>
<event>
 7    0  0.4714446E-002  0.3940828E+03  0.7546771E-02  0.1045848E+00
         21   -1    0    0  502  501  0.00000000000E+00  0.00000000000E+00  0.27009556737E+03  0.27009556737E+03  0.00000000000E+00 0.  1.
         21   -1    0    0  501  502 -0.00000000000E+00 -0.00000000000E+00 -0.14374658391E+03  0.14374658391E+03  0.00000000000E+00 0.  1.
      99926    2    1    2    0    0  0.00000000000E+00  0.00000000000E+00  0.12634898346E+03  0.41384215128E+03  0.39408280926E+03 0.  0.
      99925    2    3    3    0    0 -0.25940493332E+02  0.13366486057E+02  0.80931319581E+02  0.27760029121E+03  0.26393270174E+03 0.  0.
         25    1    3    3    0    0  0.25940493332E+02 -0.13366486057E+02  0.45417663876E+02  0.13624186007E+03  0.12509000000E+03 0.  0.
         25    1    4    4    0    0 -0.46403838432E+02  0.24988042660E+02  0.22685713669E+02  0.13762219371E+03  0.12509000000E+03 0.  0.
         25    1    4    4    0    0  0.20463345100E+02 -0.11621556603E+02  0.58245605912E+02  0.13997809750E+03  0.12509000000E+03 0.  0.
<mgrwt>
<rscale>  2 0.39408281E+03</rscale>
<asrwt>0</asrwt>
<pdfrwt beam="1">  1       21 0.39719937E-01 0.39408281E+03</pdfrwt>
<pdfrwt beam="2">  1       21 0.21139203E-01 0.39408281E+03</pdfrwt>
<totfact> 0.12029610E+05</totfact>
</mgrwt>
</event>
<event>
 7    0  0.4714446E-002  0.4570246E+03  0.7546771E-02  0.1025648E+00
         21   -1    0    0  502  501  0.00000000000E+00  0.00000000000E+00  0.54726679380E+02  0.54726679380E+02  0.00000000000E+00 0. -1.
         21   -1    0    0  501  502 -0.00000000000E+00 -0.00000000000E+00 -0.95415742711E+03  0.95415742711E+03  0.00000000000E+00 0. -1.
      99926    2    1    2    0    0  0.00000000000E+00  0.35527136788E-14 -0.89943074773E+03  0.10088841065E+04  0.45702458398E+03 0.  0.
      99925    2    3    3    0    0  0.72313019299E+02 -0.27403734271E+02 -0.75317348435E+03  0.80147428849E+03  0.26288895026E+03 0.  0.
         25    1    3    3    0    0 -0.72313019299E+02  0.27403734271E+02 -0.14625726338E+03  0.20740981800E+03  0.12509000000E+03 0.  0.
         25    1    4    4    0    0  0.40034719416E+02 -0.19590853260E+02 -0.49738798075E+03  0.51480956847E+03  0.12509000000E+03 0.  0.
         25    1    4    4    0    0  0.32278299882E+02 -0.78128810109E+01 -0.25578550360E+03  0.28666472002E+03  0.12509000000E+03 0.  0.
<mgrwt>
<rscale>  2 0.45702458E+03</rscale>
<asrwt>0</asrwt>
<pdfrwt beam="1">  1       21 0.80480414E-02 0.45702458E+03</pdfrwt>
<pdfrwt beam="2">  1       21 0.14031726E+00 0.45702458E+03</pdfrwt>
<totfact> 0.38215244E+04</totfact>
</mgrwt>
</event>
<event>
 7    0  0.4714446E-002  0.4519229E+03  0.7546771E-02  0.1027150E+00
         21   -1    0    0  502  501  0.00000000000E+00  0.00000000000E+00  0.46257071707E+03  0.46257071707E+03  0.00000000000E+00 0.  1.
         21   -1    0    0  501  502 -0.00000000000E+00 -0.00000000000E+00 -0.11038006498E+03  0.11038006498E+03  0.00000000000E+00 0.  1.
      99926    2    1    2    0    0  0.00000000000E+00 -0.88817841970E-15  0.35219065209E+03  0.57295078205E+03  0.45192293948E+03 0.  0.
      99925    2    3    3    0    0 -0.10856211352E+03  0.71121616167E+01  0.24475096200E+03  0.37539797786E+03  0.26302907262E+03 0.  0.
         25    1    3    3    0    0  0.10856211352E+03 -0.71121616167E+01  0.10743969009E+03  0.19755280419E+03  0.12509000000E+03 0.  0.
         25    1    4    4    0    0 -0.75908488867E+02  0.13009490422E+02  0.84686338517E+02  0.16956010602E+03  0.12509000000E+03 0.  0.
         25    1    4    4    0    0 -0.32653624656E+02 -0.58973288049E+01  0.16006462349E+03  0.20583787184E+03  0.12509000000E+03 0.  0.
<mgrwt>
<rscale>  2 0.45192294E+03</rscale>
<asrwt>0</asrwt>
<pdfrwt beam="1">  1       21 0.68025105E-01 0.45192294E+03</pdfrwt>
<pdfrwt beam="2">  1       21 0.16232363E-01 0.45192294E+03</pdfrwt>
<totfact> 0.61866468E+04</totfact>
</mgrwt>
</event>
<event>
 7    0  0.4714446E-002  0.4537151E+03  0.7546771E-02  0.1026620E+00
         21   -1    0    0  502  501  0.00000000000E+00  0.00000000000E+00  0.25813358838E+03  0.25813358838E+03  0.00000000000E+00 0. -1.
         21   -1    0    0  501  502 -0.00000000000E+00 -0.00000000000E+00 -0.19937099222E+03  0.19937099222E+03  0.00000000000E+00 0. -1.
      99926    2    1    2    0    0  0.14210854715E-13  0.71054273576E-14  0.58762596161E+02  0.45750458060E+03  0.45371510727E+03 0.  0.
      99925    2    3    3    0    0  0.10523369420E+03  0.36894604924E+02  0.49793466772E+02  0.28968534556E+03  0.26268396950E+03 0.  0.
         25    1    3    3    0    0 -0.10523369420E+03 -0.36894604924E+02  0.89691293892E+01  0.16781923504E+03  0.12509000000E+03 0.  0.
         25    1    4    4    0    0  0.14283568724E+02  0.28377253364E+02  0.82864315215E+01  0.12932695733E+03  0.12509000000E+03 0.  0.
         25    1    4    4    0    0  0.90950125475E+02  0.85173515597E+01  0.41507035250E+02  0.16035838823E+03  0.12509000000E+03 0.  0.
<mgrwt>
<rscale>  2 0.45371511E+03</rscale>
<asrwt>0</asrwt>
<pdfrwt beam="1">  1       21 0.37960822E-01 0.45371511E+03</pdfrwt>
<pdfrwt beam="2">  1       21 0.29319264E-01 0.45371511E+03</pdfrwt>
<totfact> 0.69067813E+04</totfact>
</mgrwt>
</event>
<event>
 7    0  0.4714446E-002  0.4604644E+03  0.7546771E-02  0.1024647E+00
         21   -1    0    0  502  501  0.00000000000E+00  0.00000000000E+00  0.59162677757E+02  0.59162677757E+02  0.00000000000E+00 0.  1.
         21   -1    0    0  501  502 -0.00000000000E+00 -0.00000000000E+00 -0.89595101649E+03  0.89595101649E+03  0.00000000000E+00 0.  1.
      99926    2    1    2    0    0  0.71054273576E-14  0.00000000000E+00 -0.83678833873E+03  0.95511369425E+03  0.46046437984E+03 0.  0.
      99925    2    3    3    0    0  0.57404399374E+02  0.86947452001E+02 -0.63989268389E+03  0.69963271360E+03  0.26299840791E+03 0.  0.
         25    1    4    4    0    0  0.68837140316E+02  0.38621830464E+02 -0.31674731189E+03  0.34958055633E+03  0.12509000000E+03 0.  0.
         25    1    3    3    0    0 -0.57404399374E+02 -0.86947452001E+02 -0.19689565484E+03  0.25548098064E+03  0.12509000000E+03 0.  0.
         25    1    4    4    0    0 -0.11432740942E+02  0.48325621537E+02 -0.32314537200E+03  0.35005215727E+03  0.12509000000E+03 0.  0.
<mgrwt>
<rscale>  2 0.46046438E+03</rscale>
<asrwt>0</asrwt>
<pdfrwt beam="1">  1       21 0.87003941E-02 0.46046438E+03</pdfrwt>
<pdfrwt beam="2">  1       21 0.13175750E+00 0.46046438E+03</pdfrwt>
<totfact> 0.39231144E+04</totfact>
</mgrwt>
</event>
<event>
 7    0  0.4714446E-002  0.4587139E+03  0.7546771E-02  0.1025155E+00
         21   -1    0    0  502  501  0.00000000000E+00  0.00000000000E+00  0.92143547070E+02  0.92143547070E+02  0.00000000000E+00 0. -1.
         21   -1    0    0  501  502 -0.00000000000E+00 -0.00000000000E+00 -0.57089850742E+03  0.57089850742E+03  0.00000000000E+00 0. -1.
      99926    2    1    2    0    0  0.00000000000E+00  0.00000000000E+00 -0.47875496035E+03  0.66304205449E+03  0.45871391298E+03 0.  0.
      99925    2    3    3    0    0  0.10385066057E+03  0.38276965017E+02 -0.24703922689E+03  0.37740281527E+03  0.26297227914E+03 0.  0.
         25    1    4    4    0    0  0.60748746444E+02  0.36934155204E+02 -0.81081730327E+02  0.16515537263E+03  0.12509000000E+03 0.  0.
         25    1    3    3    0    0 -0.10385066057E+03 -0.38276965017E+02 -0.23171573346E+03  0.28563923922E+03  0.12509000000E+03 0.  0.
         25    1    4    4    0    0  0.43101914130E+02  0.13428098121E+01 -0.16595749657E+03  0.21224744264E+03  0.12509000000E+03 0.  0.
<mgrwt>
<rscale>  2 0.45871391E+03</rscale>
<asrwt>0</asrwt>
<pdfrwt beam="1">  1       21 0.13550521E-01 0.45871391E+03</pdfrwt>
<pdfrwt beam="2">  1       21 0.83955666E-01 0.45871391E+03</pdfrwt>
<totfact> 0.53375258E+04</totfact>
</mgrwt>
</event>
<event>
 7    0  0.4714446E-002  0.4389485E+03  0.7546771E-02  0.1031070E+00
         21   -1    0    0  502  501  0.00000000000E+00  0.00000000000E+00  0.24091335939E+04  0.24091335939E+04  0.00000000000E+00 0. -1.
         21   -1    0    0  501  502 -0.00000000000E+00 -0.00000000000E+00 -0.19994305037E+02  0.19994305037E+02  0.00000000000E+00 0. -1.
      99926    2    1    2    0    0  0.35527136788E-14  0.00000000000E+00  0.23891392889E+04  0.24291278989E+04  0.43894852523E+03 0.  0.
      99925    2    3    3    0    0 -0.27273797269E+02 -0.67298647802E+02  0.18849352959E+04  0.19045879647E+04  0.26306135682E+03 0.  0.
         25    1    3    3    0    0  0.27273797269E+02  0.67298647802E+02  0.50420399298E+03  0.52453993428E+03  0.12509000000E+03 0.  0.
         25    1    4    4    0    0 -0.30816254917E+02  0.38987195159E+01  0.87521257236E+03  0.88465213304E+03  0.12509000000E+03 0.  0.
         25    1    4    4    0    0  0.35424576476E+01 -0.71197367318E+02  0.10097227235E+04  0.10199358316E+04  0.12509000000E+03 0.  0.
<mgrwt>
<rscale>  2 0.43894853E+03</rscale>
<asrwt>0</asrwt>
<pdfrwt beam="1">  1       21 0.35428415E+00 0.43894853E+03</pdfrwt>
<pdfrwt beam="2">  1       21 0.29403406E-02 0.43894853E+03</pdfrwt>
<totfact> 0.89500690E+03</totfact>
</mgrwt>
</event>
<event>
 7    0  0.4714446E-002  0.4542332E+03  0.7546771E-02  0.1026467E+00
         21   -1    0    0  502  501  0.00000000000E+00  0.00000000000E+00  0.31831454429E+03  0.31831454429E+03  0.00000000000E+00 0.  1.
         21   -1    0    0  501  502 -0.00000000000E+00 -0.00000000000E+00 -0.16204708758E+03  0.16204708758E+03  0.00000000000E+00 0.  1.
      99926    2    1    2    0    0  0.00000000000E+00 -0.88817841970E-15  0.15626745671E+03  0.48036163188E+03  0.45423317729E+03 0.  0.
      99925    2    3    3    0    0 -0.70044854170E+02 -0.59748453052E+01  0.46920867572E+01  0.27164033146E+03  0.26234418923E+03 0.  0.
         25    1    4    4    0    0 -0.18007304503E+02 -0.38244069710E+02 -0.39715210768E+01  0.13209902711E+03  0.12509000000E+03 0.  0.
         25    1    3    3    0    0  0.70044854170E+02  0.59748453052E+01  0.15157536995E+03  0.20872130042E+03  0.12509000000E+03 0.  0.
         25    1    4    4    0    0 -0.52037549667E+02  0.32269224405E+02  0.86636078341E+01  0.13954130435E+03  0.12509000000E+03 0.  0.
<mgrwt>
<rscale>  2 0.45423318E+03</rscale>
<asrwt>0</asrwt>
<pdfrwt beam="1">  1       21 0.46810962E-01 0.45423318E+03</pdfrwt>
<pdfrwt beam="2">  1       21 0.23830454E-01 0.45423318E+03</pdfrwt>
<totfact> 0.67081162E+04</totfact>
</mgrwt>
</event>
<event>
 7    0  0.4714446E-002  0.4538239E+03  0.7546771E-02  0.1026588E+00
         21   -1    0    0  502  501  0.00000000000E+00  0.00000000000E+00  0.11084017123E+03  0.11084017123E+03  0.00000000000E+00 0. -1.
         21   -1    0    0  501  502 -0.00000000000E+00 -0.00000000000E+00 -0.46453404298E+03  0.46453404298E+03  0.00000000000E+00 0. -1.
      99926    2    1    2    0    0  0.00000000000E+00  0.71054273576E-14 -0.35369387175E+03  0.57537421421E+03  0.45382389917E+03 0.  0.
      99925    2    3    3    0    0  0.22206857363E+02 -0.61224662947E+02 -0.33839150352E+03  0.43351768654E+03  0.26303454341E+03 0.  0.
         25    1    4    4    0    0  0.41015034222E+02 -0.36470918176E+02 -0.13055160070E+03  0.18895393473E+03  0.12509000000E+03 0.  0.
         25    1    4    4    0    0 -0.18808176859E+02 -0.24753744771E+02 -0.20783990282E+03  0.24456375182E+03  0.12509000000E+03 0.  0.
         25    1    3    3    0    0 -0.22206857363E+02  0.61224662947E+02 -0.15302368235E+02  0.14185652766E+03  0.12509000000E+03 0.  0.
<mgrwt>
<rscale>  2 0.45382390E+03</rscale>
<asrwt>0</asrwt>
<pdfrwt beam="1">  1       21 0.16300025E-01 0.45382390E+03</pdfrwt>
<pdfrwt beam="2">  1       21 0.68313829E-01 0.45382390E+03</pdfrwt>
<totfact> 0.60783503E+04</totfact>
</mgrwt>
</event>
<event>
 7    0  0.4714446E-002  0.4597289E+03  0.7546771E-02  0.1024860E+00
         21   -1    0    0  502  501  0.00000000000E+00  0.00000000000E+00  0.31147340597E+03  0.31147340597E+03  0.00000000000E+00 0. -1.
         21   -1    0    0  501  502 -0.00000000000E+00 -0.00000000000E+00 -0.16963777501E+03  0.16963777501E+03  0.00000000000E+00 0. -1.
      99926    2    1    2    0    0 -0.44408920985E-14  0.17763568394E-14  0.14183563096E+03  0.48111118098E+03  0.45972885732E+03 0.  0.
      99925    2    3    3    0    0 -0.23706383038E+01  0.63502672218E+01 -0.33979680134E+02  0.26523047889E+03  0.26295749171E+03 0.  0.
         25    1    3    3    0    0  0.23706383038E+01 -0.63502672218E+01  0.17581531109E+03  0.21588070209E+03  0.12509000000E+03 0.  0.
         25    1    4    4    0    0 -0.33444151043E+02 -0.18916817887E+02 -0.63580695787E+01  0.13101255813E+03  0.12509000000E+03 0.  0.
         25    1    4    4    0    0  0.31073512739E+02  0.25267085109E+02 -0.27621610555E+02  0.13421792076E+03  0.12509000000E+03 0.  0.
<mgrwt>
<rscale>  2 0.45972886E+03</rscale>
<asrwt>0</asrwt>
<pdfrwt beam="1">  1       21 0.45804913E-01 0.45972886E+03</pdfrwt>
<pdfrwt beam="2">  1       21 0.24946732E-01 0.45972886E+03</pdfrwt>
<totfact> 0.64176535E+04</totfact>
</mgrwt>
</event>
<event>
 7    0  0.4714446E-002  0.4504423E+03  0.7546771E-02  0.1027590E+00
         21   -1    0    0  502  501  0.00000000000E+00  0.00000000000E+00  0.39240428775E+03  0.39240428775E+03  0.00000000000E+00 0. -1.
         21   -1    0    0  501  502 -0.00000000000E+00 -0.00000000000E+00 -0.12926609544E+03  0.12926609544E+03  0.00000000000E+00 0. -1.
      99926    2    1    2    0    0 -0.71054273576E-14  0.00000000000E+00  0.26313819231E+03  0.52167038319E+03  0.45044231644E+03 0.  0.
      99925    2    3    3    0    0  0.36338022755E+02  0.76532316604E+02  0.87198413619E+02  0.28976531380E+03  0.26302609445E+03 0.  0.
         25    1    4    4    0    0  0.34661957218E+02  0.21310097704E+02  0.77501476511E+02  0.15267468193E+03  0.12509000000E+03 0.  0.
         25    1    3    3    0    0 -0.36338022755E+02 -0.76532316604E+02  0.17593977869E+03  0.23190506939E+03  0.12509000000E+03 0.  0.
         25    1    4    4    0    0  0.16760655364E+01  0.55222218900E+02  0.96969371080E+01  0.13709063187E+03  0.12509000000E+03 0.  0.
<mgrwt>
<rscale>  2 0.45044232E+03</rscale>
<asrwt>0</asrwt>
<pdfrwt beam="1">  1       21 0.57706513E-01 0.45044232E+03</pdfrwt>
<pdfrwt beam="2">  1       21 0.19009720E-01 0.45044232E+03</pdfrwt>
<totfact> 0.66131145E+04</totfact>
</mgrwt>
</event>
<event>
 7    0  0.4714446E-002  0.4601254E+03  0.7546771E-02  0.1024745E+00
         21   -1    0    0  502  501  0.00000000000E+00  0.00000000000E+00  0.23570305211E+03  0.23570305211E+03  0.00000000000E+00 0. -1.
         21   -1    0    0  501  502 -0.00000000000E+00 -0.00000000000E+00 -0.22455731074E+03  0.22455731074E+03  0.00000000000E+00 0. -1.
      99926    2    1    2    0    0  0.00000000000E+00 -0.17763568394E-14  0.11145741371E+02  0.46026036284E+03  0.46012538949E+03 0.  0.
      99925    2    3    3    0    0  0.10476747284E+03 -0.57119392647E+01  0.60749840045E+02  0.28962354290E+03  0.26302548151E+03 0.  0.
         25    1    3    3    0    0 -0.10476747284E+03  0.57119392647E+01 -0.49604098674E+02  0.17063681994E+03  0.12509000000E+03 0.  0.
         25    1    4    4    0    0  0.31994662498E+02 -0.27571065127E+02  0.55360039934E+02  0.14316446550E+03  0.12509000000E+03 0.  0.
         25    1    4    4    0    0  0.72772810337E+02  0.21859125863E+02  0.53898001105E+01  0.14645907740E+03  0.12509000000E+03 0.  0.
<mgrwt>
<rscale>  2 0.46012539E+03</rscale>
<asrwt>0</asrwt>
<pdfrwt beam="1">  1       21 0.34662214E-01 0.46012539E+03</pdfrwt>
<pdfrwt beam="2">  1       21 0.33023134E-01 0.46012539E+03</pdfrwt>
<totfact> 0.65444541E+04</totfact>
</mgrwt>
</event>
<event>
 7    0  0.4714446E-002  0.4536592E+03  0.7546771E-02  0.1026636E+00
         21   -1    0    0  502  501  0.00000000000E+00  0.00000000000E+00  0.39613835964E+03  0.39613835964E+03  0.00000000000E+00 0.  1.
         21   -1    0    0  501  502 -0.00000000000E+00 -0.00000000000E+00 -0.12988309802E+03  0.12988309802E+03  0.00000000000E+00 0.  1.
      99926    2    1    2    0    0  0.00000000000E+00  0.00000000000E+00  0.26625526162E+03  0.52602145766E+03  0.45365924391E+03 0.  0.
      99925    2    3    3    0    0 -0.97707731843E+02 -0.45160208205E+02  0.13300535387E+03  0.31391466550E+03  0.26318386689E+03 0.  0.
         25    1    4    4    0    0 -0.52323383912E+02 -0.57642106848E+02  0.93681880275E+02  0.17459711274E+03  0.12509000000E+03 0.  0.
         25    1    3    3    0    0  0.97707731843E+02  0.45160208205E+02  0.13324990774E+03  0.21210679216E+03  0.12509000000E+03 0.  0.
         25    1    4    4    0    0 -0.45384347932E+02  0.12481898643E+02  0.39323473599E+02  0.13931755276E+03  0.12509000000E+03 0.  0.
<mgrwt>
<rscale>  2 0.45365924E+03</rscale>
<asrwt>0</asrwt>
<pdfrwt beam="1">  1       21 0.58255641E-01 0.45365924E+03</pdfrwt>
<pdfrwt beam="2">  1       21 0.19100456E-01 0.45365924E+03</pdfrwt>
<totfact> 0.64155796E+04</totfact>
</mgrwt>
</event>
<event>
 7    0  0.4714446E-002  0.5117940E+03  0.7546771E-02  0.1010746E+00
         21   -1    0    0  502  501  0.00000000000E+00  0.00000000000E+00  0.24470443517E+03  0.24470443517E+03  0.00000000000E+00 0.  1.
         21   -1    0    0  501  502 -0.00000000000E+00 -0.00000000000E+00 -0.26760155357E+03  0.26760155357E+03  0.00000000000E+00 0.  1.
      99926    2    1    2    0    0 -0.44408920985E-15  0.28421709430E-13 -0.22897118402E+02  0.51230598875E+03  0.51179404849E+03 0.  0.
      99925    2    3    3    0    0  0.24667549005E+01  0.15387114809E+03 -0.60071083926E+02  0.31053426896E+03  0.26294596780E+03 0.  0.
         25    1    4    4    0    0 -0.75088966962E+01  0.10826580084E+03 -0.38166168445E+01  0.16565005833E+03  0.12509000000E+03 0.  0.
         25    1    3    3    0    0 -0.24667549005E+01 -0.15387114809E+03  0.37173965524E+02  0.20177171979E+03  0.12509000000E+03 0.  0.
         25    1    4    4    0    0  0.99756515967E+01  0.45605347246E+02 -0.56254467082E+02  0.14488421063E+03  0.12509000000E+03 0.  0.
<mgrwt>
<rscale>  2 0.51179405E+03</rscale>
<asrwt>0</asrwt>
<pdfrwt beam="1">  1       21 0.35985947E-01 0.51179405E+03</pdfrwt>
<pdfrwt beam="2">  1       21 0.39353169E-01 0.51179405E+03</pdfrwt>
<totfact> 0.42018746E+04</totfact>
</mgrwt>
</event>
<event>
 7    0  0.4714446E-002  0.4566194E+03  0.7546771E-02  0.1025766E+00
         21   -1    0    0  502  501  0.00000000000E+00  0.00000000000E+00  0.14699281687E+03  0.14699281687E+03  0.00000000000E+00 0.  1.
         21   -1    0    0  501  502 -0.00000000000E+00 -0.00000000000E+00 -0.35461135146E+03  0.35461135146E+03  0.00000000000E+00 0.  1.
      99926    2    1    2    0    0  0.00000000000E+00  0.00000000000E+00 -0.20761853459E+03  0.50160416832E+03  0.45661941020E+03 0.  0.
      99925    2    3    3    0    0  0.32498320979E+02  0.67939704104E+02 -0.22546899515E+03  0.35450525160E+03  0.26299384284E+03 0.  0.
         25    1    3    3    0    0 -0.32498320979E+02 -0.67939704104E+02  0.17850460564E+02  0.14709891673E+03  0.12509000000E+03 0.  0.
         25    1    4    4    0    0 -0.12123153917E+02  0.62180823420E+01 -0.12137504785E+03  0.17482861822E+03  0.12509000000E+03 0.  0.
         25    1    4    4    0    0  0.44621474896E+02  0.61721621762E+02 -0.10409394731E+03  0.17967663337E+03  0.12509000000E+03 0.  0.
<mgrwt>
<rscale>  2 0.45661941E+03</rscale>
<asrwt>0</asrwt>
<pdfrwt beam="1">  1       21 0.21616591E-01 0.45661941E+03</pdfrwt>
<pdfrwt beam="2">  1       21 0.52148728E-01 0.45661941E+03</pdfrwt>
<totfact> 0.64327211E+04</totfact>
</mgrwt>
</event>
<event>
 7    0  0.4714446E-002  0.4649842E+03  0.7546771E-02  0.1023346E+00
         21   -1    0    0  502  501  0.00000000000E+00  0.00000000000E+00  0.35615420201E+03  0.35615420201E+03  0.00000000000E+00 0.  1.
         21   -1    0    0  501  502 -0.00000000000E+00 -0.00000000000E+00 -0.15176732973E+03  0.15176732973E+03  0.00000000000E+00 0.  1.
      99926    2    1    2    0    0  0.00000000000E+00  0.00000000000E+00  0.20438687229E+03  0.50792153174E+03  0.46498418128E+03 0.  0.
      99925    2    3    3    0    0 -0.24997054632E+02  0.84791434354E+02  0.35216988006E+02  0.27971023069E+03  0.26302687473E+03 0.  0.
         25    1    4    4    0    0 -0.11952350083E+02  0.80251099463E+02  0.37864475018E+02  0.15383212995E+03  0.12509000000E+03 0.  0.
         25    1    3    3    0    0  0.24997054632E+02 -0.84791434354E+02  0.16916988428E+03  0.22821130105E+03  0.12509000000E+03 0.  0.
         25    1    4    4    0    0 -0.13044704549E+02  0.45403348908E+01 -0.26474870112E+01  0.12587810074E+03  0.12509000000E+03 0.  0.
<mgrwt>
<rscale>  2 0.46498418E+03</rscale>
<asrwt>0</asrwt>
<pdfrwt beam="1">  1       21 0.52375618E-01 0.46498418E+03</pdfrwt>
<pdfrwt beam="2">  1       21 0.22318725E-01 0.46498418E+03</pdfrwt>
<totfact> 0.59833308E+04</totfact>
</mgrwt>
</event>
<event>
 7    0  0.4714446E-002  0.4463108E+03  0.7546771E-02  0.1028828E+00
         21   -1    0    0  502  501  0.00000000000E+00  0.00000000000E+00  0.11201237394E+04  0.11201237394E+04  0.00000000000E+00 0. -1.
         21   -1    0    0  501  502 -0.00000000000E+00 -0.00000000000E+00 -0.44457880248E+02  0.44457880248E+02  0.00000000000E+00 0. -1.
      99926    2    1    2    0    0  0.00000000000E+00  0.00000000000E+00  0.10756658591E+04  0.11645816196E+04  0.44631077544E+03 0.  0.
      99925    2    3    3    0    0 -0.28459104406E+02  0.93537333882E+02  0.78097846408E+03  0.82984691519E+03  0.26298172530E+03 0.  0.
         25    1    4    4    0    0  0.66660305007E+01  0.10972695827E+02  0.38402123886E+03  0.40408496138E+03  0.12509000000E+03 0.  0.
         25    1    3    3    0    0  0.28459104406E+02 -0.93537333882E+02  0.29468739506E+03  0.33473470444E+03  0.12509000000E+03 0.  0.
         25    1    4    4    0    0 -0.35125134907E+02  0.82564638055E+02  0.39695722522E+03  0.42576195381E+03  0.12509000000E+03 0.  0.
<mgrwt>
<rscale>  2 0.44631078E+03</rscale>
<asrwt>0</asrwt>
<pdfrwt beam="1">  1       21 0.16472406E+00 0.44631078E+03</pdfrwt>
<pdfrwt beam="2">  1       21 0.65379243E-02 0.44631078E+03</pdfrwt>
<totfact> 0.35652841E+04</totfact>
</mgrwt>
</event>
<event>
 7    0  0.4714446E-002  0.4502376E+03  0.7546771E-02  0.1027651E+00
         21   -1    0    0  502  501  0.00000000000E+00  0.00000000000E+00  0.13345576000E+03  0.13345576000E+03  0.00000000000E+00 0.  1.
         21   -1    0    0  501  502 -0.00000000000E+00 -0.00000000000E+00 -0.37973993195E+03  0.37973993195E+03  0.00000000000E+00 0.  1.
      99926    2    1    2    0    0  0.00000000000E+00  0.00000000000E+00 -0.24628417195E+03  0.51319569196E+03  0.45023763158E+03 0.  0.
      99925    2    3    3    0    0  0.81521431989E+02 -0.48909341762E+02 -0.96150961876E+02  0.29588173370E+03  0.26317888457E+03 0.  0.
         25    1    3    3    0    0 -0.81521431989E+02  0.48909341762E+02 -0.15013321008E+03  0.21731395826E+03  0.12509000000E+03 0.  0.
         25    1    4    4    0    0  0.51134151288E+02 -0.44910497756E+02 -0.13931581220E+02  0.14308476960E+03  0.12509000000E+03 0.  0.
         25    1    4    4    0    0  0.30387280701E+02 -0.39988440060E+01 -0.82219380656E+02  0.15279696410E+03  0.12509000000E+03 0.  0.
<mgrwt>
<rscale>  2 0.45023763E+03</rscale>
<asrwt>0</asrwt>
<pdfrwt beam="1">  1       21 0.19625847E-01 0.45023763E+03</pdfrwt>
<pdfrwt beam="2">  1       21 0.55844108E-01 0.45023763E+03</pdfrwt>
<totfact> 0.66843654E+04</totfact>
</mgrwt>
</event>
<event>
 7    0  0.4714446E-002  0.4490858E+03  0.7546771E-02  0.1027995E+00
         21   -1    0    0  502  501  0.00000000000E+00  0.00000000000E+00  0.13145023802E+03  0.13145023802E+03  0.00000000000E+00 0. -1.
         21   -1    0    0  501  502 -0.00000000000E+00 -0.00000000000E+00 -0.38356357207E+03  0.38356357207E+03  0.00000000000E+00 0. -1.
      99926    2    1    2    0    0  0.14210854715E-13  0.00000000000E+00 -0.25211333404E+03  0.51501381009E+03  0.44908583966E+03 0.  0.
      99925    2    3    3    0    0  0.10496552191E+03 -0.14056702182E+02 -0.18224465312E+03  0.33684396882E+03  0.26274587356E+03 0.  0.
         25    1    4    4    0    0  0.74500901411E+02  0.23861608287E+02 -0.11287043502E+03  0.18576060902E+03  0.12509000000E+03 0.  0.
         25    1    3    3    0    0 -0.10496552191E+03  0.14056702182E+02 -0.69868680926E+02  0.17816984128E+03  0.12509000000E+03 0.  0.
         25    1    4    4    0    0  0.30464620498E+02 -0.37918310469E+02 -0.69374218096E+02  0.15108335980E+03  0.12509000000E+03 0.  0.
<mgrwt>
<rscale>  2 0.44908584E+03</rscale>
<asrwt>0</asrwt>
<pdfrwt beam="1">  1       21 0.19330918E-01 0.44908584E+03</pdfrwt>
<pdfrwt beam="2">  1       21 0.56406406E-01 0.44908584E+03</pdfrwt>
<totfact> 0.67332728E+04</totfact>
</mgrwt>
</event>
<event>
 7    0  0.4714446E-002  0.4549137E+03  0.7546771E-02  0.1026267E+00
         21   -1    0    0  502  501  0.00000000000E+00  0.00000000000E+00  0.12139767663E+03  0.12139767663E+03  0.00000000000E+00 0.  1.
         21   -1    0    0  501  502 -0.00000000000E+00 -0.00000000000E+00 -0.42617461808E+03  0.42617461808E+03  0.00000000000E+00 0.  1.
      99926    2    1    2    0    0  0.00000000000E+00 -0.10477729795E-14 -0.30477694146E+03  0.54757229471E+03  0.45491365542E+03 0.  0.
      99925    2    3    3    0    0  0.10732650432E+03  0.57255215481E-01 -0.14822133194E+03  0.32024840951E+03  0.26281266854E+03 0.  0.
         25    1    4    4    0    0  0.29341229290E+02 -0.33335789843E+02 -0.69055338154E+02  0.14962730516E+03  0.12509000000E+03 0.  0.
         25    1    3    3    0    0 -0.10732650432E+03 -0.57255215481E-01 -0.15655560952E+03  0.22732388520E+03  0.12509000000E+03 0.  0.
         25    1    4    4    0    0  0.77985275033E+02  0.33393045059E+02 -0.79165993781E+02  0.17062110436E+03  0.12509000000E+03 0.  0.
<mgrwt>
<rscale>  2 0.45491366E+03</rscale>
<asrwt>0</asrwt>
<pdfrwt beam="1">  1       21 0.17852599E-01 0.45491366E+03</pdfrwt>
<pdfrwt beam="2">  1       21 0.62672739E-01 0.45491366E+03</pdfrwt>
<totfact> 0.62069617E+04</totfact>
</mgrwt>
</event>
<event>
 7    0  0.4714446E-002  0.4547850E+03  0.7546771E-02  0.1026305E+00
         21   -1    0    0  502  501  0.00000000000E+00  0.00000000000E+00  0.20099619794E+03  0.20099619794E+03  0.00000000000E+00 0.  1.
         21   -1    0    0  501  502 -0.00000000000E+00 -0.00000000000E+00 -0.25725531156E+03  0.25725531156E+03  0.00000000000E+00 0.  1.
      99926    2    1    2    0    0  0.00000000000E+00  0.00000000000E+00 -0.56259113625E+02  0.45825150950E+03  0.45478495807E+03 0.  0.
      99925    2    3    3    0    0  0.45250383489E+02  0.92393374964E+02 -0.80752036946E+02  0.29444813854E+03  0.26380803983E+03 0.  0.
         25    1    4    4    0    0  0.16835959304E+02  0.88956597541E+02 -0.52074858915E+02  0.16296019392E+03  0.12509000000E+03 0.  0.
         25    1    3    3    0    0 -0.45250383489E+02 -0.92393374964E+02  0.24492923321E+02  0.16380337095E+03  0.12509000000E+03 0.  0.
         25    1    4    4    0    0  0.28414424184E+02  0.34367774223E+01 -0.28677178032E+02  0.13148794462E+03  0.12509000000E+03 0.  0.
<mgrwt>
<rscale>  2 0.45478496E+03</rscale>
<asrwt>0</asrwt>
<pdfrwt beam="1">  1       21 0.29558264E-01 0.45478496E+03</pdfrwt>
<pdfrwt beam="2">  1       21 0.37831663E-01 0.45478496E+03</pdfrwt>
<totfact> 0.68425414E+04</totfact>
</mgrwt>
</event>
<event>
 7    0  0.4714446E-002  0.4402053E+03  0.7546771E-02  0.1030684E+00
         21   -1    0    0  502  501  0.00000000000E+00  0.00000000000E+00  0.82050919569E+02  0.82050919569E+02  0.00000000000E+00 0. -1.
         21   -1    0    0  501  502 -0.00000000000E+00 -0.00000000000E+00 -0.59042819814E+03  0.59042819814E+03  0.00000000000E+00 0. -1.
      99926    2    1    2    0    0  0.00000000000E+00 -0.19984014443E-14 -0.50837727858E+03  0.67247911771E+03  0.44020530027E+03 0.  0.
      99925    2    3    3    0    0 -0.97461559136E+02 -0.19249509331E+01 -0.30375555341E+03  0.41359686754E+03  0.26323463235E+03 0.  0.
         25    1    4    4    0    0 -0.65595089439E+02 -0.30310223291E+02 -0.12335936331E+03  0.18996438090E+03  0.12509000000E+03 0.  0.
         25    1    4    4    0    0 -0.31866469697E+02  0.28385272358E+02 -0.18039619011E+03  0.22363248664E+03  0.12509000000E+03 0.  0.
         25    1    3    3    0    0  0.97461559136E+02  0.19249509331E+01 -0.20462172516E+03  0.25888225017E+03  0.12509000000E+03 0.  0.
<mgrwt>
<rscale>  2 0.44020530E+03</rscale>
<asrwt>0</asrwt>
<pdfrwt beam="1">  1       21 0.12066312E-01 0.44020530E+03</pdfrwt>
<pdfrwt beam="2">  1       21 0.86827674E-01 0.44020530E+03</pdfrwt>
<totfact> 0.61254867E+04</totfact>
</mgrwt>
</event>
<event>
 7    0  0.4714446E-002  0.4514886E+03  0.7546771E-02  0.1027279E+00
         21   -1    0    0  502  501  0.00000000000E+00  0.00000000000E+00  0.39910244015E+02  0.39910244015E+02  0.00000000000E+00 0.  1.
         21   -1    0    0  501  502 -0.00000000000E+00 -0.00000000000E+00 -0.12768776541E+04  0.12768776541E+04  0.00000000000E+00 0.  1.
      99926    2    1    2    0    0  0.35527136788E-14  0.00000000000E+00 -0.12369674101E+04  0.13167878981E+04  0.45148864328E+03 0.  0.
      99925    2    3    3    0    0 -0.16923359980E+02 -0.79699671861E+02 -0.56606507232E+03  0.62947727494E+03  0.26300862298E+03 0.  0.
         25    1    3    3    0    0  0.16923359980E+02  0.79699671861E+02 -0.67090233775E+03  0.68731062316E+03  0.12509000000E+03 0.  0.
         25    1    4    4    0    0  0.30892863946E+02 -0.30292247827E+02 -0.25931135439E+03  0.29113892893E+03  0.12509000000E+03 0.  0.
         25    1    4    4    0    0 -0.47816223926E+02 -0.49407424033E+02 -0.30675371793E+03  0.33833834601E+03  0.12509000000E+03 0.  0.
<mgrwt>
<rscale>  2 0.45148864E+03</rscale>
<asrwt>0</asrwt>
<pdfrwt beam="1">  1       21 0.58691530E-02 0.45148864E+03</pdfrwt>
<pdfrwt beam="2">  1       21 0.18777614E+00 0.45148864E+03</pdfrwt>
<totfact> 0.29426329E+04</totfact>
</mgrwt>
</event>
<event>
 7    0  0.4714446E-002  0.4532630E+03  0.7546771E-02  0.1026753E+00
         21   -1    0    0  502  501  0.00000000000E+00  0.00000000000E+00  0.24692324983E+03  0.24692324983E+03  0.00000000000E+00 0. -1.
         21   -1    0    0  501  502 -0.00000000000E+00 -0.00000000000E+00 -0.20800730924E+03  0.20800730924E+03  0.00000000000E+00 0. -1.
      99926    2    1    2    0    0 -0.14210854715E-13 -0.35527136788E-14  0.38915940585E+02  0.45493055907E+03  0.45326301762E+03 0.  0.
      99925    2    3    3    0    0 -0.10939032483E+03  0.19901596615E+02  0.33579548010E+02  0.28748414406E+03  0.26297762324E+03 0.  0.
         25    1    3    3    0    0  0.10939032483E+03 -0.19901596615E+02  0.53363925755E+01  0.16744641501E+03  0.12509000000E+03 0.  0.
         25    1    4    4    0    0 -0.54342891260E+02  0.49514234982E+02  0.26287403502E+02  0.14745624768E+03  0.12509000000E+03 0.  0.
         25    1    4    4    0    0 -0.55047433567E+02 -0.29612638367E+02  0.72921445078E+01  0.14002789638E+03  0.12509000000E+03 0.  0.
<mgrwt>
<rscale>  2 0.45326302E+03</rscale>
<asrwt>0</asrwt>
<pdfrwt beam="1">  1       21 0.36312243E-01 0.45326302E+03</pdfrwt>
<pdfrwt beam="2">  1       21 0.30589310E-01 0.45326302E+03</pdfrwt>
<totfact> 0.69509236E+04</totfact>
</mgrwt>
</event>
<event>
 7    0  0.4714446E-002  0.4295796E+03  0.7546771E-02  0.1033993E+00
         21   -1    0    0  502  501  0.00000000000E+00  0.00000000000E+00  0.13888644807E+04  0.13888644807E+04  0.00000000000E+00 0. -1.
         21   -1    0    0  501  502 -0.00000000000E+00 -0.00000000000E+00 -0.33217537490E+02  0.33217537490E+02  0.00000000000E+00 0. -1.
      99926    2    1    2    0    0  0.00000000000E+00  0.00000000000E+00  0.13556469432E+04  0.14220820182E+04  0.42957959894E+03 0.  0.
      99925    2    3    3    0    0  0.78503451362E+02  0.31123265765E+02  0.80217455540E+03  0.84840036281E+03  0.26299754513E+03 0.  0.
         25    1    4    4    0    0  0.76849122292E+02 -0.13775483627E+01  0.41251746056E+03  0.43786510320E+03  0.12509000000E+03 0.  0.
         25    1    4    4    0    0  0.16543290698E+01  0.32500814127E+02  0.38965709484E+03  0.41053525961E+03  0.12509000000E+03 0.  0.
         25    1    3    3    0    0 -0.78503451362E+02 -0.31123265765E+02  0.55347238783E+03  0.57368165540E+03  0.12509000000E+03 0.  0.
<mgrwt>
<rscale>  2 0.42957960E+03</rscale>
<asrwt>0</asrwt>
<pdfrwt beam="1">  1       21 0.20424474E+00 0.42957960E+03</pdfrwt>
<pdfrwt beam="2">  1       21 0.48849329E-02 0.42957960E+03</pdfrwt>
<totfact> 0.31533596E+04</totfact>
</mgrwt>
</event>
<event>
 7    0  0.4714446E-002  0.4394261E+03  0.7546771E-02  0.1030923E+00
         21   -1    0    0  502  501  0.00000000000E+00  0.00000000000E+00  0.35953740625E+03  0.35953740625E+03  0.00000000000E+00 0. -1.
         21   -1    0    0  501  502 -0.00000000000E+00 -0.00000000000E+00 -0.13426647980E+03  0.13426647980E+03  0.00000000000E+00 0. -1.
      99926    2    1    2    0    0  0.00000000000E+00  0.35527136788E-14  0.22527092646E+03  0.49380388605E+03  0.43942608886E+03 0.  0.
      99925    2    3    3    0    0  0.26091597874E+02 -0.23983525919E+02  0.41417141983E+02  0.26862461711E+03  0.26303578515E+03 0.  0.
         25    1    3    3    0    0 -0.26091597874E+02  0.23983525919E+02  0.18385378447E+03  0.22517926894E+03  0.12509000000E+03 0.  0.
         25    1    4    4    0    0 -0.15489800950E+01  0.23070767346E+02  0.46995439121E+01  0.12729592868E+03  0.12509000000E+03 0.  0.
         25    1    4    4    0    0  0.27640577969E+02 -0.47054293266E+02  0.36717598071E+02  0.14132868843E+03  0.12509000000E+03 0.  0.
<mgrwt>
<rscale>  2 0.43942609E+03</rscale>
<asrwt>0</asrwt>
<pdfrwt beam="1">  1       21 0.52873148E-01 0.43942609E+03</pdfrwt>
<pdfrwt beam="2">  1       21 0.19745071E-01 0.43942609E+03</pdfrwt>
<totfact> 0.74500626E+04</totfact>
</mgrwt>
</event>
<event>
 7    0  0.4714446E-002  0.4551756E+03  0.7546771E-02  0.1026190E+00
         21   -1    0    0  502  501  0.00000000000E+00  0.00000000000E+00  0.31266915101E+03  0.31266915101E+03  0.00000000000E+00 0.  1.
         21   -1    0    0  501  502 -0.00000000000E+00 -0.00000000000E+00 -0.16565821619E+03  0.16565821619E+03  0.00000000000E+00 0.  1.
      99926    2    1    2    0    0  0.88817841970E-15 -0.14210854715E-13  0.14701093482E+03  0.47832736720E+03  0.45517563122E+03 0.  0.
      99925    2    3    3    0    0  0.43076504806E+01 -0.10104549187E+03  0.14611219449E+03  0.31746387503E+03  0.26306993611E+03 0.  0.
         25    1    4    4    0    0 -0.17657413772E+02 -0.16736005326E+02  0.47972002028E+02  0.13616423618E+03  0.12509000000E+03 0.  0.
         25    1    4    4    0    0  0.21965064253E+02 -0.84309486547E+02  0.98140192465E+02  0.18129963885E+03  0.12509000000E+03 0.  0.
         25    1    3    3    0    0 -0.43076504806E+01  0.10104549187E+03  0.89874033147E+00  0.16086349217E+03  0.12509000000E+03 0.  0.
<mgrwt>
<rscale>  2 0.45517563E+03</rscale>
<asrwt>0</asrwt>
<pdfrwt beam="1">  1       21 0.45980757E-01 0.45517563E+03</pdfrwt>
<pdfrwt beam="2">  1       21 0.24361502E-01 0.45517563E+03</pdfrwt>
<totfact> 0.66728985E+04</totfact>
</mgrwt>
</event>
<event>
 7    0  0.4714446E-002  0.4508477E+03  0.7546771E-02  0.1027470E+00
         21   -1    0    0  502  501  0.00000000000E+00  0.00000000000E+00  0.30779858259E+02  0.30779858259E+02  0.00000000000E+00 0.  1.
         21   -1    0    0  501  502 -0.00000000000E+00 -0.00000000000E+00 -0.16509468600E+04  0.16509468600E+04  0.00000000000E+00 0.  1.
      99926    2    1    2    0    0 -0.17763568394E-14  0.00000000000E+00 -0.16201670017E+04  0.16817267182E+04  0.45084769199E+03 0.  0.
      99925    2    3    3    0    0 -0.85067393394E+01  0.10149956428E+03 -0.87546159913E+03  0.91975022850E+03  0.26293144565E+03 0.  0.
         25    1    3    3    0    0  0.85067393394E+01 -0.10149956428E+03 -0.74470540258E+03  0.76197648973E+03  0.12509000000E+03 0.  0.
         25    1    4    4    0    0  0.17389639587E+01  0.81327584220E+02 -0.38012678028E+03  0.40836390283E+03  0.12509000000E+03 0.  0.
         25    1    4    4    0    0 -0.10245703298E+02  0.20171980061E+02 -0.49533481885E+03  0.51138632567E+03  0.12509000000E+03 0.  0.
<mgrwt>
<rscale>  2 0.45084769E+03</rscale>
<asrwt>0</asrwt>
<pdfrwt beam="1">  1       21 0.45264481E-02 0.45084769E+03</pdfrwt>
<pdfrwt beam="2">  1       21 0.24278639E+00 0.45084769E+03</pdfrwt>
<totfact> 0.20290797E+04</totfact>
</mgrwt>
</event>
<event>
 7    0  0.4714446E-002  0.4475299E+03  0.7546771E-02  0.1028461E+00
         21   -1    0    0  502  501  0.00000000000E+00  0.00000000000E+00  0.57496765234E+03  0.57496765234E+03  0.00000000000E+00 0.  1.
         21   -1    0    0  501  502 -0.00000000000E+00 -0.00000000000E+00 -0.87084478276E+02  0.87084478276E+02  0.00000000000E+00 0.  1.
      99926    2    1    2    0    0  0.00000000000E+00  0.00000000000E+00  0.48788317407E+03  0.66205213062E+03  0.44752992315E+03 0.  0.
      99925    2    3    3    0    0  0.96909325289E+02 -0.42864116048E+02  0.30498938647E+03  0.41643780813E+03  0.26300793221E+03 0.  0.
         25    1    4    4    0    0  0.53368797710E+02  0.18980752050E+02  0.15190038190E+03  0.20476750630E+03  0.12509000000E+03 0.  0.
         25    1    4    4    0    0  0.43540527580E+02 -0.61844868098E+02  0.15308900457E+03  0.21167030182E+03  0.12509000000E+03 0.  0.
         25    1    3    3    0    0 -0.96909325289E+02  0.42864116048E+02  0.18289378759E+03  0.24561432249E+03  0.12509000000E+03 0.  0.
<mgrwt>
<rscale>  2 0.44752992E+03</rscale>
<asrwt>0</asrwt>
<pdfrwt beam="1">  1       21 0.84554065E-01 0.44752992E+03</pdfrwt>
<pdfrwt beam="2">  1       21 0.12806541E-01 0.44752992E+03</pdfrwt>
<totfact> 0.58374124E+04</totfact>
</mgrwt>
</event>
<event>
 7    0  0.4714446E-002  0.4281551E+03  0.7546771E-02  0.1034444E+00
         21   -1    0    0  502  501  0.00000000000E+00  0.00000000000E+00  0.13773444943E+03  0.13773444943E+03  0.00000000000E+00 0. -1.
         21   -1    0    0  501  502 -0.00000000000E+00 -0.00000000000E+00 -0.33273595125E+03  0.33273595125E+03  0.00000000000E+00 0. -1.
      99926    2    1    2    0    0  0.00000000000E+00  0.00000000000E+00 -0.19500150181E+03  0.47047040068E+03  0.42815512634E+03 0.  0.
      99925    2    3    3    0    0 -0.80538532355E+02 -0.12145175600E+02 -0.97227881353E+02  0.29202951568E+03  0.26304755583E+03 0.  0.
         25    1    3    3    0    0  0.80538532355E+02  0.12145175600E+02 -0.97773620461E+02  0.17844088501E+03  0.12509000000E+03 0.  0.
         25    1    4    4    0    0 -0.23726117868E+01  0.11249108662E+02 -0.52307663448E+02  0.13607266988E+03  0.12509000000E+03 0.  0.
         25    1    4    4    0    0 -0.78165920569E+02 -0.23394284261E+02 -0.44920217905E+02  0.15595684580E+03  0.12509000000E+03 0.  0.
<mgrwt>
<rscale>  2 0.42815513E+03</rscale>
<asrwt>0</asrwt>
<pdfrwt beam="1">  1       21 0.20255066E-01 0.42815513E+03</pdfrwt>
<pdfrwt beam="2">  1       21 0.48931757E-01 0.42815513E+03</pdfrwt>
<totfact> 0.83904537E+04</totfact>
</mgrwt>
</event>
<event>
 7    0  0.4714446E-002  0.4463861E+03  0.7546771E-02  0.1028805E+00
         21   -1    0    0  502  501  0.00000000000E+00  0.00000000000E+00  0.12240856473E+04  0.12240856473E+04  0.00000000000E+00 0. -1.
         21   -1    0    0  501  502 -0.00000000000E+00 -0.00000000000E+00 -0.40695788470E+02  0.40695788470E+02  0.00000000000E+00 0. -1.
      99926    2    1    2    0    0  0.00000000000E+00  0.00000000000E+00  0.11833898588E+04  0.12647814358E+04  0.44638606865E+03 0.  0.
      99925    2    3    3    0    0  0.62989814513E+02 -0.66013421638E+02  0.89711683243E+03  0.93931985231E+03  0.26301651152E+03 0.  0.
         25    1    4    4    0    0  0.20516409168E+02 -0.79701648198E+01  0.31631285416E+03  0.34086034732E+03  0.12509000000E+03 0.  0.
         25    1    4    4    0    0  0.42473405344E+02 -0.58043256818E+02  0.58080397827E+03  0.59845950498E+03  0.12509000000E+03 0.  0.
         25    1    3    3    0    0 -0.62989814513E+02  0.66013421638E+02  0.28627302640E+03  0.32546158347E+03  0.12509000000E+03 0.  0.
<mgrwt>
<rscale>  2 0.44638607E+03</rscale>
<asrwt>0</asrwt>
<pdfrwt beam="1">  1       21 0.18001257E+00 0.44638607E+03</pdfrwt>
<pdfrwt beam="2">  1       21 0.59846756E-02 0.44638607E+03</pdfrwt>
<totfact> 0.32263692E+04</totfact>
</mgrwt>
</event>
<event>
 7    0  0.4714446E-002  0.4569468E+03  0.7546771E-02  0.1025670E+00
         21   -1    0    0  502  501  0.00000000000E+00  0.00000000000E+00  0.20622803723E+03  0.20622803723E+03  0.00000000000E+00 0. -1.
         21   -1    0    0  501  502 -0.00000000000E+00 -0.00000000000E+00 -0.25311834996E+03  0.25311834996E+03  0.00000000000E+00 0. -1.
      99926    2    1    2    0    0  0.00000000000E+00  0.00000000000E+00 -0.46890312737E+02  0.45934638719E+03  0.45694682623E+03 0.  0.
      99925    2    3    3    0    0 -0.93239821286E+02 -0.50272891812E+02 -0.74475188200E+02  0.29312526525E+03  0.26297307761E+03 0.  0.
         25    1    4    4    0    0 -0.22296913636E+02 -0.48351272935E+02 -0.59924608172E+02  0.14857141285E+03  0.12509000000E+03 0.  0.
         25    1    4    4    0    0 -0.70942907650E+02 -0.19216188763E+01 -0.14550580027E+02  0.14455385240E+03  0.12509000000E+03 0.  0.
         25    1    3    3    0    0  0.93239821286E+02  0.50272891812E+02  0.27584875463E+02  0.16622112194E+03  0.12509000000E+03 0.  0.
<mgrwt>
<rscale>  2 0.45694683E+03</rscale>
<asrwt>0</asrwt>
<pdfrwt beam="1">  1       21 0.30327652E-01 0.45694683E+03</pdfrwt>
<pdfrwt beam="2">  1       21 0.37223287E-01 0.45694683E+03</pdfrwt>
<totfact> 0.67178967E+04</totfact>
</mgrwt>
</event>
<event>
 7    0  0.4714446E-002  0.4530148E+03  0.7546771E-02  0.1026827E+00
         21   -1    0    0  502  501  0.00000000000E+00  0.00000000000E+00  0.38256883083E+02  0.38256883083E+02  0.00000000000E+00 0. -1.
         21   -1    0    0  501  502 -0.00000000000E+00 -0.00000000000E+00 -0.13410814307E+04  0.13410814307E+04  0.00000000000E+00 0. -1.
      99926    2    1    2    0    0 -0.28421709430E-13  0.17763568394E-14 -0.13028245476E+04  0.13793383138E+04  0.45301477017E+03 0.  0.
      99925    2    3    3    0    0 -0.99456234554E+02  0.14883511993E+02 -0.96659933461E+03  0.10067689062E+04  0.26297584538E+03 0.  0.
         25    1    4    4    0    0 -0.71325008405E+02  0.24092521619E+01 -0.63265625369E+03  0.64884089325E+03  0.12509000000E+03 0.  0.
         25    1    3    3    0    0  0.99456234554E+02 -0.14883511993E+02 -0.33622521299E+03  0.37256940759E+03  0.12509000000E+03 0.  0.
         25    1    4    4    0    0 -0.28131226149E+02  0.12474259831E+02 -0.33394308092E+03  0.35792801292E+03  0.12509000000E+03 0.  0.
<mgrwt>
<rscale>  2 0.45301477E+03</rscale>
<asrwt>0</asrwt>
<pdfrwt beam="1">  1       21 0.56260104E-02 0.45301477E+03</pdfrwt>
<pdfrwt beam="2">  1       21 0.19721792E+00 0.45301477E+03</pdfrwt>
<totfact> 0.27306729E+04</totfact>
</mgrwt>
</event>
<event>
 7    0  0.4714446E-002  0.4475614E+03  0.7546771E-02  0.1028452E+00
         21   -1    0    0  502  501  0.00000000000E+00  0.00000000000E+00  0.16593318572E+04  0.16593318572E+04  0.00000000000E+00 0.  1.
         21   -1    0    0  501  502 -0.00000000000E+00 -0.00000000000E+00 -0.30179501937E+02  0.30179501937E+02  0.00000000000E+00 0.  1.
      99926    2    1    2    0    0  0.00000000000E+00 -0.71054273576E-14  0.16291523552E+04  0.16895113591E+04  0.44756143264E+03 0.  0.
      99925    2    3    3    0    0 -0.43776896110E+02 -0.62378369746E+02  0.75482130320E+03  0.80299583510E+03  0.26313425050E+03 0.  0.
         25    1    3    3    0    0  0.43776896110E+02  0.62378369746E+02  0.87433105203E+03  0.88651552400E+03  0.12509000000E+03 0.  0.
         25    1    4    4    0    0 -0.50080651935E+02 -0.35384709159E+02  0.47940056482E+03  0.49923196912E+03  0.12509000000E+03 0.  0.
         25    1    4    4    0    0  0.63037558247E+01 -0.26993660587E+02  0.27542073838E+03  0.30376386598E+03  0.12509000000E+03 0.  0.
<mgrwt>
<rscale>  2 0.44756143E+03</rscale>
<asrwt>0</asrwt>
<pdfrwt beam="1">  1       21 0.24401933E+00 0.44756143E+03</pdfrwt>
<pdfrwt beam="2">  1       21 0.44381632E-02 0.44756143E+03</pdfrwt>
<totfact> 0.20647706E+04</totfact>
</mgrwt>
</event>
<event>
 7    0  0.4714446E-002  0.4531079E+03  0.7546771E-02  0.1026799E+00
         21   -1    0    0  502  501  0.00000000000E+00  0.00000000000E+00  0.76099115306E+02  0.76099115306E+02  0.00000000000E+00 0. -1.
         21   -1    0    0  501  502 -0.00000000000E+00 -0.00000000000E+00 -0.67447168022E+03  0.67447168022E+03  0.00000000000E+00 0. -1.
      99926    2    1    2    0    0  0.00000000000E+00  0.00000000000E+00 -0.59837256491E+03  0.75057079552E+03  0.45310792606E+03 0.  0.
      99925    2    3    3    0    0  0.43729034387E+02  0.72157616644E+02 -0.49757718265E+03  0.56911510596E+03  0.26303992293E+03 0.  0.
         25    1    4    4    0    0 -0.12889384075E+02  0.27468976265E+02 -0.19220090023E+03  0.23132093513E+03  0.12509000000E+03 0.  0.
         25    1    4    4    0    0  0.56618418462E+02  0.44688640379E+02 -0.30537628241E+03  0.33779417083E+03  0.12509000000E+03 0.  0.
         25    1    3    3    0    0 -0.43729034387E+02 -0.72157616644E+02 -0.10079538226E+03  0.18145568956E+03  0.12509000000E+03 0.  0.
<mgrwt>
<rscale>  2 0.45310793E+03</rscale>
<asrwt>0</asrwt>
<pdfrwt beam="1">  1       21 0.11191047E-01 0.45310793E+03</pdfrwt>
<pdfrwt beam="2">  1       21 0.99187007E-01 0.45310793E+03</pdfrwt>
<totfact> 0.50995918E+04</totfact>
</mgrwt>
</event>
<event>
 7    0  0.4714446E-002  0.4456659E+03  0.7546771E-02  0.1029022E+00
         21   -1    0    0  502  501  0.00000000000E+00  0.00000000000E+00  0.16134103327E+04  0.16134103327E+04  0.00000000000E+00 0.  1.
         21   -1    0    0  501  502 -0.00000000000E+00 -0.00000000000E+00 -0.30776132450E+02  0.30776132450E+02  0.00000000000E+00 0.  1.
      99926    2    1    2    0    0 -0.71054273576E-14  0.00000000000E+00  0.15826342003E+04  0.16441864652E+04  0.44566592912E+03 0.  0.
      99925    2    3    3    0    0 -0.50760870929E+02  0.74911333503E+02  0.11949255049E+04  0.12268689428E+04  0.26300583009E+03 0.  0.
         25    1    4    4    0    0 -0.56875560825E+01  0.60159746176E+02  0.48760692538E+03  0.50701041916E+03  0.12509000000E+03 0.  0.
         25    1    4    4    0    0 -0.45073314846E+02  0.14751587327E+02  0.70731857951E+03  0.71985852364E+03  0.12509000000E+03 0.  0.
         25    1    3    3    0    0  0.50760870929E+02 -0.74911333503E+02  0.38770869537E+03  0.41731752236E+03  0.12509000000E+03 0.  0.
<mgrwt>
<rscale>  2 0.44566593E+03</rscale>
<asrwt>0</asrwt>
<pdfrwt beam="1">  1       21 0.23726617E+00 0.44566593E+03</pdfrwt>
<pdfrwt beam="2">  1       21 0.45259029E-02 0.44566593E+03</pdfrwt>
<totfact> 0.22001321E+04</totfact>
</mgrwt>
</event>
<event>
 7    0  0.4714446E-002  0.4513389E+03  0.7546771E-02  0.1027324E+00
         21   -1    0    0  502  501  0.00000000000E+00  0.00000000000E+00  0.74832246952E+03  0.74832246952E+03  0.00000000000E+00 0. -1.
         21   -1    0    0  501  502 -0.00000000000E+00 -0.00000000000E+00 -0.68054470569E+02  0.68054470569E+02  0.00000000000E+00 0. -1.
      99926    2    1    2    0    0  0.53290705182E-14  0.00000000000E+00  0.68026799895E+03  0.81637694009E+03  0.45133885043E+03 0.  0.
      99925    2    3    3    0    0 -0.89511727734E+01 -0.86471896415E+01  0.62666226113E+03  0.67971684859E+03  0.26297244597E+03 0.  0.
         25    1    4    4    0    0 -0.35605887464E+02 -0.30002075928E+02  0.30744856016E+03  0.33517164114E+03  0.12509000000E+03 0.  0.
         25    1    3    3    0    0  0.89511727734E+01  0.86471896415E+01  0.53605737821E+02  0.13666009150E+03  0.12509000000E+03 0.  0.
         25    1    4    4    0    0  0.26654714690E+02  0.21354886286E+02  0.31921370097E+03  0.34454520744E+03  0.12509000000E+03 0.  0.
<mgrwt>
<rscale>  2 0.45133885E+03</rscale>
<asrwt>0</asrwt>
<pdfrwt beam="1">  1       21 0.11004742E+00 0.45133885E+03</pdfrwt>
<pdfrwt beam="2">  1       21 0.10008011E-01 0.45133885E+03</pdfrwt>
<totfact> 0.48357201E+04</totfact>
</mgrwt>
</event>
<event>
 7    0  0.4714446E-002  0.4483868E+03  0.7546771E-02  0.1028204E+00
         21   -1    0    0  502  501  0.00000000000E+00  0.00000000000E+00  0.29982501494E+02  0.29982501494E+02  0.00000000000E+00 0. -1.
         21   -1    0    0  501  502 -0.00000000000E+00 -0.00000000000E+00 -0.16764005540E+04  0.16764005540E+04  0.00000000000E+00 0. -1.
      99926    2    1    2    0    0  0.00000000000E+00  0.00000000000E+00 -0.16464180525E+04  0.17063830554E+04  0.44838680673E+03 0.  0.
      99925    2    3    3    0    0  0.91496702164E+02  0.51408133306E+02 -0.96196070515E+03  0.10027184968E+04  0.26279562961E+03 0.  0.
         25    1    4    4    0    0  0.46564445937E+02  0.66250668544E+02 -0.52677399204E+03  0.54744474195E+03  0.12509000000E+03 0.  0.
         25    1    4    4    0    0  0.44932256227E+02 -0.14842535238E+02 -0.43518671311E+03  0.45527375487E+03  0.12509000000E+03 0.  0.
         25    1    3    3    0    0 -0.91496702164E+02 -0.51408133306E+02 -0.68445734731E+03  0.70366455862E+03  0.12509000000E+03 0.  0.
<mgrwt>
<rscale>  2 0.44838681E+03</rscale>
<asrwt>0</asrwt>
<pdfrwt beam="1">  1       21 0.44091906E-02 0.44838681E+03</pdfrwt>
<pdfrwt beam="2">  1       21 0.24652954E+00 0.44838681E+03</pdfrwt>
<totfact> 0.20143885E+04</totfact>
</mgrwt>
</event>
<event>
 7    0  0.4714446E-002  0.4525072E+03  0.7546771E-02  0.1026977E+00
         21   -1    0    0  502  501  0.00000000000E+00  0.00000000000E+00  0.17319250931E+03  0.17319250931E+03  0.00000000000E+00 0. -1.
         21   -1    0    0  501  502 -0.00000000000E+00 -0.00000000000E+00 -0.29557108168E+03  0.29557108168E+03  0.00000000000E+00 0. -1.
      99926    2    1    2    0    0  0.00000000000E+00  0.00000000000E+00 -0.12237857237E+03  0.46876359098E+03  0.45250722564E+03 0.  0.
      99925    2    3    3    0    0  0.35285532877E+02  0.68576498524E+02  0.52821211419E+01  0.27410346217E+03  0.26297718949E+03 0.  0.
         25    1    4    4    0    0  0.98026704635E+01  0.13078118819E+01  0.26516000913E+02  0.12825135136E+03  0.12509000000E+03 0.  0.
         25    1    4    4    0    0  0.25482862414E+02  0.67268686642E+02 -0.21233879771E+02  0.14585211082E+03  0.12509000000E+03 0.  0.
         25    1    3    3    0    0 -0.35285532877E+02 -0.68576498524E+02 -0.12766069351E+03  0.19466012881E+03  0.12509000000E+03 0.  0.
<mgrwt>
<rscale>  2 0.45250723E+03</rscale>
<asrwt>0</asrwt>
<pdfrwt beam="1">  1       21 0.25469487E-01 0.45250723E+03</pdfrwt>
<pdfrwt beam="2">  1       21 0.43466335E-01 0.45250723E+03</pdfrwt>
<totfact> 0.68879882E+04</totfact>
</mgrwt>
</event>
<event>
 7    0  0.4714446E-002  0.4528334E+03  0.7546771E-02  0.1026880E+00
         21   -1    0    0  502  501  0.00000000000E+00  0.00000000000E+00  0.67913925763E+03  0.67913925763E+03  0.00000000000E+00 0.  1.
         21   -1    0    0  501  502 -0.00000000000E+00 -0.00000000000E+00 -0.75484559028E+02  0.75484559028E+02  0.00000000000E+00 0.  1.
      99926    2    1    2    0    0  0.35527136788E-14  0.00000000000E+00  0.60365469860E+03  0.75462381666E+03  0.45283342359E+03 0.  0.
      99925    2    3    3    0    0 -0.28489481741E+02 -0.62170184860E+02  0.23476501315E+03  0.35914449914E+03  0.26304634079E+03 0.  0.
         25    1    3    3    0    0  0.28489481741E+02  0.62170184860E+02  0.36888968545E+03  0.39547931752E+03  0.12509000000E+03 0.  0.
         25    1    4    4    0    0 -0.48734362032E+02 -0.30297898533E+02  0.14907259299E+03  0.20288702960E+03  0.12509000000E+03 0.  0.
         25    1    4    4    0    0  0.20244880291E+02 -0.31872286327E+02  0.85692420160E+02  0.15625746954E+03  0.12509000000E+03 0.  0.
<mgrwt>
<rscale>  2 0.45283342E+03</rscale>
<asrwt>0</asrwt>
<pdfrwt beam="1">  1       21 0.99873417E-01 0.45283342E+03</pdfrwt>
<pdfrwt beam="2">  1       21 0.11100671E-01 0.45283342E+03</pdfrwt>
<totfact> 0.50896640E+04</totfact>
</mgrwt>
</event>
<event>
 7    0  0.4714446E-002  0.4532414E+03  0.7546771E-02  0.1026760E+00
         21   -1    0    0  502  501  0.00000000000E+00  0.00000000000E+00  0.26369636294E+03  0.26369636294E+03  0.00000000000E+00 0.  1.
         21   -1    0    0  501  502 -0.00000000000E+00 -0.00000000000E+00 -0.19475784016E+03  0.19475784016E+03  0.00000000000E+00 0.  1.
      99926    2    1    2    0    0  0.00000000000E+00  0.00000000000E+00  0.68938522776E+02  0.45845420310E+03  0.45324136662E+03 0.  0.
      99925    2    3    3    0    0 -0.10004581546E+03 -0.47305087970E+02  0.29216761593E+02  0.28677932739E+03  0.26294833508E+03 0.  0.
         25    1    4    4    0    0 -0.28237495458E+02  0.10475652513E+02 -0.69317305224E-01  0.12866471292E+03  0.12509000000E+03 0.  0.
         25    1    4    4    0    0 -0.71808319998E+02 -0.57780740483E+02  0.29286078898E+02  0.15811461447E+03  0.12509000000E+03 0.  0.
         25    1    3    3    0    0  0.10004581546E+03  0.47305087970E+02  0.39721761183E+02  0.17167487571E+03  0.12509000000E+03 0.  0.
<mgrwt>
<rscale>  2 0.45324137E+03</rscale>
<asrwt>0</asrwt>
<pdfrwt beam="1">  1       21 0.38778877E-01 0.45324137E+03</pdfrwt>
<pdfrwt beam="2">  1       21 0.28640859E-01 0.45324137E+03</pdfrwt>
<totfact> 0.69259606E+04</totfact>
</mgrwt>
</event>
<event>
 7    0  0.4714446E-002  0.4581033E+03  0.7546771E-02  0.1025333E+00
         21   -1    0    0  502  501  0.00000000000E+00  0.00000000000E+00  0.70572266912E+03  0.70572266912E+03  0.00000000000E+00 0.  1.
         21   -1    0    0  501  502 -0.00000000000E+00 -0.00000000000E+00 -0.74341751632E+02  0.74341751632E+02  0.00000000000E+00 0.  1.
      99926    2    1    2    0    0  0.00000000000E+00  0.00000000000E+00  0.63138091749E+03  0.78006442075E+03  0.45810330446E+03 0.  0.
      99925    2    3    3    0    0 -0.11249635486E+03  0.27826947700E+02  0.38608732299E+03  0.48132335482E+03  0.26301897658E+03 0.  0.
         25    1    4    4    0    0 -0.53538627478E+02 -0.25992897323E+02  0.17225627955E+03  0.22104693910E+03  0.12509000000E+03 0.  0.
         25    1    4    4    0    0 -0.58957727381E+02  0.53819845023E+02  0.21383104344E+03  0.26027641571E+03  0.12509000000E+03 0.  0.
         25    1    3    3    0    0  0.11249635486E+03 -0.27826947700E+02  0.24529359450E+03  0.29874106594E+03  0.12509000000E+03 0.  0.
<mgrwt>
<rscale>  2 0.45810330E+03</rscale>
<asrwt>0</asrwt>
<pdfrwt beam="1">  1       21 0.10378274E+00 0.45810330E+03</pdfrwt>
<pdfrwt beam="2">  1       21 0.10932611E-01 0.45810330E+03</pdfrwt>
<totfact> 0.47574756E+04</totfact>
</mgrwt>
</event>
<event>
 7    0  0.4714446E-002  0.4224264E+03  0.7546771E-02  0.1036279E+00
         21   -1    0    0  502  501  0.00000000000E+00  0.00000000000E+00  0.83200699449E+02  0.83200699449E+02  0.00000000000E+00 0.  1.
         21   -1    0    0  501  502 -0.00000000000E+00 -0.00000000000E+00 -0.53618566534E+03  0.53618566534E+03  0.00000000000E+00 0.  1.
      99926    2    1    2    0    0  0.00000000000E+00  0.00000000000E+00 -0.45298496589E+03  0.61938636479E+03  0.42242643095E+03 0.  0.
      99925    2    3    3    0    0  0.44019476649E+02 -0.44061742108E+02 -0.36521235488E+03  0.45436912088E+03  0.26304387926E+03 0.  0.
         25    1    4    4    0    0 -0.95400478068E+01 -0.44972392731E+02 -0.19993835738E+03  0.24028396424E+03  0.12509000000E+03 0.  0.
         25    1    4    4    0    0  0.53559524456E+02  0.91065062316E+00 -0.16527399750E+03  0.21408515664E+03  0.12509000000E+03 0.  0.
         25    1    3    3    0    0 -0.44019476649E+02  0.44061742108E+02 -0.87772611009E+02  0.16501724390E+03  0.12509000000E+03 0.  0.
<mgrwt>
<rscale>  2 0.42242643E+03</rscale>
<asrwt>0</asrwt>
<pdfrwt beam="1">  1       21 0.12235397E-01 0.42242643E+03</pdfrwt>
<pdfrwt beam="2">  1       21 0.78850832E-01 0.42242643E+03</pdfrwt>
<totfact> 0.75003286E+04</totfact>
</mgrwt>
</event>
<event>
 6    0  0.4714446E-002  0.4554080E+03  0.7546771E-02  0.1026122E+00
         21   -1    0    0  502  501  0.00000000000E+00  0.00000000000E+00  0.47930083597E+03  0.47930083597E+03  0.00000000000E+00 0. -1.
         21   -1    0    0  501  502 -0.00000000000E+00 -0.00000000000E+00 -0.10817653247E+03  0.10817653247E+03  0.00000000000E+00 0. -1.
      99926    2    1    2    0    0  0.00000000000E+00 -0.14210854715E-13  0.37112430349E+03  0.58747736844E+03  0.45540795973E+03 0.  0.
         25    1    3    3    0    0  0.38498864226E+02  0.95283684545E+02  0.18621588785E+03  0.24674887654E+03  0.12509000000E+03 0.  0.
         25    1    3    3    0    0 -0.31265601955E+02 -0.80293119092E+02  0.14061171859E+03  0.20698716468E+03  0.12509000000E+03 0.  0.
         25    1    3    3    0    0 -0.72332622710E+01 -0.14990565453E+02  0.44296697057E+02  0.13374132722E+03  0.12509000000E+03 0.  0.
<mgrwt>
<rscale>  2 0.45540796E+03</rscale>
<asrwt>0</asrwt>
<pdfrwt beam="1">  1       21 0.70485416E-01 0.45540796E+03</pdfrwt>
<pdfrwt beam="2">  1       21 0.15908314E-01 0.45540796E+03</pdfrwt>
<totfact> 0.59264431E+04</totfact>
</mgrwt>
</event>
<event>
 7    0  0.4714446E-002  0.4651244E+03  0.7546771E-02  0.1023305E+00
         21   -1    0    0  502  501  0.00000000000E+00  0.00000000000E+00  0.10608565351E+04  0.10608565351E+04  0.00000000000E+00 0.  1.
         21   -1    0    0  501  502 -0.00000000000E+00 -0.00000000000E+00 -0.50982545760E+02  0.50982545760E+02  0.00000000000E+00 0.  1.
      99926    2    1    2    0    0  0.00000000000E+00  0.00000000000E+00  0.10098739894E+04  0.11118390809E+04  0.46512435691E+03 0.  0.
      99925    2    3    3    0    0 -0.61638850456E+02  0.10558492066E+03  0.61839401403E+03  0.68305988066E+03  0.26308196561E+03 0.  0.
         25    1    3    3    0    0  0.61638850456E+02 -0.10558492066E+03  0.39147997534E+03  0.42877920023E+03  0.12509000000E+03 0.  0.
         25    1    4    4    0    0 -0.35161507334E+02  0.23231462944E+02  0.35726097441E+03  0.38086604522E+03  0.12509000000E+03 0.  0.
         25    1    4    4    0    0 -0.26477343123E+02  0.82353457712E+02  0.26113303962E+03  0.30219383544E+03  0.12509000000E+03 0.  0.
<mgrwt>
<rscale>  2 0.46512436E+03</rscale>
<asrwt>0</asrwt>
<pdfrwt beam="1">  1       21 0.15600830E+00 0.46512436E+03</pdfrwt>
<pdfrwt beam="2">  1       21 0.74974339E-02 0.46512436E+03</pdfrwt>
<totfact> 0.32444438E+04</totfact>
</mgrwt>
</event>
<event>
 7    0  0.4714446E-002  0.4467029E+03  0.7546771E-02  0.1028710E+00
         21   -1    0    0  502  501  0.00000000000E+00  0.00000000000E+00  0.18200965672E+03  0.18200965672E+03  0.00000000000E+00 0.  1.
         21   -1    0    0  501  502 -0.00000000000E+00 -0.00000000000E+00 -0.27408368461E+03  0.27408368461E+03  0.00000000000E+00 0.  1.
      99926    2    1    2    0    0 -0.71054273576E-14  0.00000000000E+00 -0.92074027893E+02  0.45609334134E+03  0.44670293193E+03 0.  0.
      99925    2    3    3    0    0 -0.41955600530E+02 -0.89137793053E+02 -0.20675988011E+02  0.28159117297E+03  0.26298340945E+03 0.  0.
         25    1    3    3    0    0  0.41955600530E+02  0.89137793053E+02 -0.71398039882E+02  0.17450216837E+03  0.12509000000E+03 0.  0.
         25    1    4    4    0    0 -0.16863662597E+02 -0.19641253551E+02 -0.42616011356E+02  0.13466177810E+03  0.12509000000E+03 0.  0.
         25    1    4    4    0    0 -0.25091937933E+02 -0.69496539502E+02  0.21940023345E+02  0.14692939487E+03  0.12509000000E+03 0.  0.
<mgrwt>
<rscale>  2 0.44670293E+03</rscale>
<asrwt>0</asrwt>
<pdfrwt beam="1">  1       21 0.26766126E-01 0.44670293E+03</pdfrwt>
<pdfrwt beam="2">  1       21 0.40306424E-01 0.44670293E+03</pdfrwt>
<totfact> 0.73183811E+04</totfact>
</mgrwt>
</event>
<event>
 7    0  0.4714446E-002  0.4499220E+03  0.7546771E-02  0.1027745E+00
         21   -1    0    0  502  501  0.00000000000E+00  0.00000000000E+00  0.61703209991E+02  0.61703209991E+02  0.00000000000E+00 0.  1.
         21   -1    0    0  501  502 -0.00000000000E+00 -0.00000000000E+00 -0.82017529744E+03  0.82017529744E+03  0.00000000000E+00 0.  1.
      99926    2    1    2    0    0 -0.17763568394E-14  0.00000000000E+00 -0.75847208745E+03  0.88187850743E+03  0.44992198705E+03 0.  0.
      99925    2    3    3    0    0  0.11985824489E+02  0.78684781511E+02 -0.33555692966E+03  0.43372708925E+03  0.26303189935E+03 0.  0.
         25    1    4    4    0    0  0.28878220954E+02  0.41423595931E+02 -0.22262446801E+03  0.26030564305E+03  0.12509000000E+03 0.  0.
         25    1    4    4    0    0 -0.16892396465E+02  0.37261185580E+02 -0.11293246165E+03  0.17342144621E+03  0.12509000000E+03 0.  0.
         25    1    3    3    0    0 -0.11985824489E+02 -0.78684781511E+02 -0.42291515779E+03  0.44815141818E+03  0.12509000000E+03 0.  0.
<mgrwt>
<rscale>  2 0.44992199E+03</rscale>
<asrwt>0</asrwt>
<pdfrwt beam="1">  1       21 0.90740016E-02 0.44992199E+03</pdfrwt>
<pdfrwt beam="2">  1       21 0.12061401E+00 0.44992199E+03</pdfrwt>
<totfact> 0.45821789E+04</totfact>
</mgrwt>
</event>
<event>
 7    0  0.4714446E-002  0.4494465E+03  0.7546771E-02  0.1027887E+00
         21   -1    0    0  502  501  0.00000000000E+00  0.00000000000E+00  0.32427035517E+03  0.32427035517E+03  0.00000000000E+00 0. -1.
         21   -1    0    0  501  502 -0.00000000000E+00 -0.00000000000E+00 -0.15573592097E+03  0.15573592097E+03  0.00000000000E+00 0. -1.
      99926    2    1    2    0    0  0.00000000000E+00 -0.35527136788E-14  0.16853443420E+03  0.48000627614E+03  0.44944651475E+03 0.  0.
      99925    2    3    3    0    0 -0.40426890823E+02  0.14486154296E+02  0.87380938233E+00  0.26646055414E+03  0.26297581866E+03 0.  0.
         25    1    4    4    0    0 -0.34737321175E+02  0.41635549581E+02  0.16709774922E+02  0.13735692611E+03  0.12509000000E+03 0.  0.
         25    1    3    3    0    0  0.40426890823E+02 -0.14486154296E+02  0.16766062482E+03  0.21354572200E+03  0.12509000000E+03 0.  0.
         25    1    4    4    0    0 -0.56895696476E+01 -0.27149395285E+02 -0.15835965540E+02  0.12910362803E+03  0.12509000000E+03 0.  0.
<mgrwt>
<rscale>  2 0.44944651E+03</rscale>
<asrwt>0</asrwt>
<pdfrwt beam="1">  1       21 0.47686817E-01 0.44944651E+03</pdfrwt>
<pdfrwt beam="2">  1       21 0.22902341E-01 0.44944651E+03</pdfrwt>
<totfact> 0.69722991E+04</totfact>
</mgrwt>
</event>
<event>
 7    0  0.4714446E-002  0.4355650E+03  0.7546771E-02  0.1032116E+00
         21   -1    0    0  502  501  0.00000000000E+00  0.00000000000E+00  0.10969787925E+03  0.10969787925E+03  0.00000000000E+00 0.  1.
         21   -1    0    0  501  502 -0.00000000000E+00 -0.00000000000E+00 -0.43236223861E+03  0.43236223861E+03  0.00000000000E+00 0.  1.
      99926    2    1    2    0    0 -0.71054273576E-14  0.35527136788E-14 -0.32266435936E+03  0.54206011786E+03  0.43556501532E+03 0.  0.
      99925    2    3    3    0    0  0.47099728645E+02 -0.18557229690E+02 -0.30499947099E+03  0.40596341844E+03  0.26309478253E+03 0.  0.
         25    1    4    4    0    0  0.22915818868E+02  0.30893628747E+02 -0.13834496277E+03  0.19043735945E+03  0.12509000000E+03 0.  0.
         25    1    4    4    0    0  0.24183909777E+02 -0.49450858437E+02 -0.16665450822E+03  0.21552605899E+03  0.12509000000E+03 0.  0.
         25    1    3    3    0    0 -0.47099728645E+02  0.18557229690E+02 -0.17664888372E+02  0.13609669942E+03  0.12509000000E+03 0.  0.
<mgrwt>
<rscale>  2 0.43556502E+03</rscale>
<asrwt>0</asrwt>
<pdfrwt beam="1">  1       21 0.16132041E-01 0.43556502E+03</pdfrwt>
<pdfrwt beam="2">  1       21 0.63582681E-01 0.43556502E+03</pdfrwt>
<totfact> 0.72988425E+04</totfact>
</mgrwt>
</event>
<event>
 7    0  0.4714446E-002  0.4541001E+03  0.7546771E-02  0.1026506E+00
         21   -1    0    0  502  501  0.00000000000E+00  0.00000000000E+00  0.35271896547E+03  0.35271896547E+03  0.00000000000E+00 0. -1.
         21   -1    0    0  501  502 -0.00000000000E+00 -0.00000000000E+00 -0.14615523731E+03  0.14615523731E+03  0.00000000000E+00 0. -1.
      99926    2    1    2    0    0  0.00000000000E+00 -0.71054273576E-14  0.20656372816E+03  0.49887420278E+03  0.45410009514E+03 0.  0.
      99925    2    3    3    0    0  0.82552158233E+02  0.61414240040E+02  0.80650375041E+02  0.29371999662E+03  0.26302164495E+03 0.  0.
         25    1    4    4    0    0  0.45020637884E+02  0.15061357655E+02  0.78496387531E+02  0.15512218824E+03  0.12509000000E+03 0.  0.
         25    1    4    4    0    0  0.37531520349E+02  0.46352882385E+02  0.21539875102E+01  0.13859780838E+03  0.12509000000E+03 0.  0.
         25    1    3    3    0    0 -0.82552158233E+02 -0.61414240040E+02  0.12591335312E+03  0.20515420616E+03  0.12509000000E+03 0.  0.
<mgrwt>
<rscale>  2 0.45410010E+03</rscale>
<asrwt>0</asrwt>
<pdfrwt beam="1">  1       21 0.51870436E-01 0.45410010E+03</pdfrwt>
<pdfrwt beam="2">  1       21 0.21493417E-01 0.45410010E+03</pdfrwt>
<totfact> 0.65818748E+04</totfact>
</mgrwt>
</event>
<event>
 7    0  0.4714446E-002  0.4507502E+03  0.7546771E-02  0.1027499E+00
         21   -1    0    0  502  501  0.00000000000E+00  0.00000000000E+00  0.56696066059E+03  0.56696066059E+03  0.00000000000E+00 0.  1.
         21   -1    0    0  501  502 -0.00000000000E+00 -0.00000000000E+00 -0.89589888926E+02  0.89589888926E+02  0.00000000000E+00 0.  1.
      99926    2    1    2    0    0 -0.53290705182E-14  0.35527136788E-14  0.47737077167E+03  0.65655054952E+03  0.45075023065E+03 0.  0.
      99925    2    3    3    0    0 -0.12724190414E+02  0.28881452565E+02  0.15253584561E+03  0.30703476931E+03  0.26458859017E+03 0.  0.
         25    1    4    4    0    0  0.28145508243E+02  0.40203349101E+02  0.78128840003E+02  0.15543520404E+03  0.12509000000E+03 0.  0.
         25    1    3    3    0    0  0.12724190414E+02 -0.28881452565E+02  0.32483492606E+03  0.34951578021E+03  0.12509000000E+03 0.  0.
         25    1    4    4    0    0 -0.40869698657E+02 -0.11321896536E+02  0.74407005602E+02  0.15159956528E+03  0.12509000000E+03 0.  0.
<mgrwt>
<rscale>  2 0.45075023E+03</rscale>
<asrwt>0</asrwt>
<pdfrwt beam="1">  1       21 0.83376566E-01 0.45075023E+03</pdfrwt>
<pdfrwt beam="2">  1       21 0.13174984E-01 0.45075023E+03</pdfrwt>
<totfact> 0.57219333E+04</totfact>
</mgrwt>
</event>
<event>
 7    0  0.4714446E-002  0.4477349E+03  0.7546771E-02  0.1028400E+00
         21   -1    0    0  502  501  0.00000000000E+00  0.00000000000E+00  0.22234259329E+03  0.22234259329E+03  0.00000000000E+00 0.  1.
         21   -1    0    0  501  502 -0.00000000000E+00 -0.00000000000E+00 -0.22540279066E+03  0.22540279066E+03  0.00000000000E+00 0.  1.
      99926    2    1    2    0    0 -0.35527136788E-14  0.00000000000E+00 -0.30601973706E+01  0.44774538395E+03  0.44773492609E+03 0.  0.
      99925    2    3    3    0    0  0.16931825347E+02 -0.10321807707E+03 -0.20575069135E+02  0.28374862491E+03  0.26296252684E+03 0.  0.
         25    1    4    4    0    0  0.17714309976E+02 -0.23595165624E+02 -0.39037597944E+02  0.13432040341E+03  0.12509000000E+03 0.  0.
         25    1    4    4    0    0 -0.78248462890E+00 -0.79622911448E+02  0.18462528809E+02  0.14942822150E+03  0.12509000000E+03 0.  0.
         25    1    3    3    0    0 -0.16931825347E+02  0.10321807707E+03  0.17514871764E+02  0.16399675904E+03  0.12509000000E+03 0.  0.
<mgrwt>
<rscale>  2 0.44773493E+03</rscale>
<asrwt>0</asrwt>
<pdfrwt beam="1">  1       21 0.32697440E-01 0.44773493E+03</pdfrwt>
<pdfrwt beam="2">  1       21 0.33147469E-01 0.44773493E+03</pdfrwt>
<totfact> 0.73234622E+04</totfact>
</mgrwt>
</event>
<event>
 7    0  0.4714446E-002  0.4472631E+03  0.7546771E-02  0.1028541E+00
         21   -1    0    0  502  501  0.00000000000E+00  0.00000000000E+00  0.13561192698E+03  0.13561192698E+03  0.00000000000E+00 0.  1.
         21   -1    0    0  501  502 -0.00000000000E+00 -0.00000000000E+00 -0.36878068440E+03  0.36878068440E+03  0.00000000000E+00 0.  1.
      99926    2    1    2    0    0  0.00000000000E+00  0.00000000000E+00 -0.23316875742E+03  0.50439261138E+03  0.44726305121E+03 0.  0.
      99925    2    3    3    0    0  0.17782980670E+02 -0.97449764318E+02 -0.18940602719E+03  0.33893755517E+03  0.26304245324E+03 0.  0.
         25    1    4    4    0    0  0.33400141546E+02 -0.53482265827E+02 -0.13569571916E+03  0.19503014770E+03  0.12509000000E+03 0.  0.
         25    1    4    4    0    0 -0.15617160876E+02 -0.43967498491E+02 -0.53710308029E+02  0.14390740747E+03  0.12509000000E+03 0.  0.
         25    1    3    3    0    0 -0.17782980670E+02  0.97449764318E+02 -0.43762730230E+02  0.16545505621E+03  0.12509000000E+03 0.  0.
<mgrwt>
<rscale>  2 0.44726305E+03</rscale>
<asrwt>0</asrwt>
<pdfrwt beam="1">  1       21 0.19942931E-01 0.44726305E+03</pdfrwt>
<pdfrwt beam="2">  1       21 0.54232453E-01 0.44726305E+03</pdfrwt>
<totfact> 0.69110333E+04</totfact>
</mgrwt>
</event>
<event>
 7    0  0.4714446E-002  0.4443368E+03  0.7546771E-02  0.1029424E+00
         21   -1    0    0  502  501  0.00000000000E+00  0.00000000000E+00  0.50949550215E+02  0.50949550215E+02  0.00000000000E+00 0. -1.
         21   -1    0    0  501  502 -0.00000000000E+00 -0.00000000000E+00 -0.96877793004E+03  0.96877793004E+03  0.00000000000E+00 0. -1.
      99926    2    1    2    0    0  0.00000000000E+00  0.35527136788E-14 -0.91782837983E+03  0.10197274803E+04  0.44433680826E+03 0.  0.
      99925    2    3    3    0    0  0.66797151469E+02 -0.95467986932E+01 -0.40761546212E+03  0.49008823482E+03  0.26359649494E+03 0.  0.
         25    1    4    4    0    0  0.23910046286E+02 -0.44384226093E+02 -0.18786730168E+03  0.23126452599E+03  0.12509000000E+03 0.  0.
         25    1    4    4    0    0  0.42887105183E+02  0.34837427400E+02 -0.21974816044E+03  0.25882370883E+03  0.12509000000E+03 0.  0.
         25    1    3    3    0    0 -0.66797151469E+02  0.95467986932E+01 -0.51021291771E+03  0.52963924544E+03  0.12509000000E+03 0.  0.
<mgrwt>
<rscale>  2 0.44433681E+03</rscale>
<asrwt>0</asrwt>
<pdfrwt beam="1">  1       21 0.74925811E-02 0.44433681E+03</pdfrwt>
<pdfrwt beam="2">  1       21 0.14246734E+00 0.44433681E+03</pdfrwt>
<totfact> 0.41779650E+04</totfact>
</mgrwt>
</event>
<event>
 7    0  0.4714446E-002  0.4581052E+03  0.7546771E-02  0.1025332E+00
         21   -1    0    0  502  501  0.00000000000E+00  0.00000000000E+00  0.65519063170E+03  0.65519063170E+03  0.00000000000E+00 0. -1.
         21   -1    0    0  501  502 -0.00000000000E+00 -0.00000000000E+00 -0.80076072991E+02  0.80076072991E+02  0.00000000000E+00 0. -1.
      99926    2    1    2    0    0  0.00000000000E+00  0.00000000000E+00  0.57511455871E+03  0.73526670469E+03  0.45810519686E+03 0.  0.
      99925    2    3    3    0    0 -0.70019181159E+02  0.62625224854E+02  0.47019170359E+03  0.54690291267E+03  0.26305503843E+03 0.  0.
         25    1    4    4    0    0 -0.69066331140E+02  0.18751988139E+02  0.20721321372E+03  0.25240170204E+03  0.12509000000E+03 0.  0.
         25    1    3    3    0    0  0.70019181159E+02 -0.62625224854E+02  0.10492285512E+03  0.18836379202E+03  0.12509000000E+03 0.  0.
         25    1    4    4    0    0 -0.95285001913E+00  0.43873236715E+02  0.26297848987E+03  0.29450121062E+03  0.12509000000E+03 0.  0.
<mgrwt>
<rscale>  2 0.45810520E+03</rscale>
<asrwt>0</asrwt>
<pdfrwt beam="1">  1       21 0.96351561E-01 0.45810520E+03</pdfrwt>
<pdfrwt beam="2">  1       21 0.11775893E-01 0.45810520E+03</pdfrwt>
<totfact> 0.49802605E+04</totfact>
</mgrwt>
</event>
<event>
 7    0  0.4714446E-002  0.4531549E+03  0.7546771E-02  0.1026785E+00
         21   -1    0    0  502  501  0.00000000000E+00  0.00000000000E+00  0.14878005748E+03  0.14878005748E+03  0.00000000000E+00 0.  1.
         21   -1    0    0  501  502 -0.00000000000E+00 -0.00000000000E+00 -0.34505529274E+03  0.34505529274E+03  0.00000000000E+00 0.  1.
      99926    2    1    2    0    0  0.00000000000E+00  0.00000000000E+00 -0.19627523527E+03  0.49383535022E+03  0.45315492400E+03 0.  0.
      99925    2    3    3    0    0  0.95593684030E+02  0.34959045659E+02 -0.17424590584E+03  0.33106837951E+03  0.26245828032E+03 0.  0.
         25    1    4    4    0    0  0.15310414015E+02  0.88855379481E+01 -0.51049299985E+02  0.13626041498E+03  0.12509000000E+03 0.  0.
         25    1    4    4    0    0  0.80283270015E+02  0.26073507711E+02 -0.12319660585E+03  0.19480796453E+03  0.12509000000E+03 0.  0.
         25    1    3    3    0    0 -0.95593684030E+02 -0.34959045659E+02 -0.22029329425E+02  0.16276697071E+03  0.12509000000E+03 0.  0.
<mgrwt>
<rscale>  2 0.45315492E+03</rscale>
<asrwt>0</asrwt>
<pdfrwt beam="1">  1       21 0.21879420E-01 0.45315492E+03</pdfrwt>
<pdfrwt beam="2">  1       21 0.50743425E-01 0.45315492E+03</pdfrwt>
<totfact> 0.66677245E+04</totfact>
</mgrwt>
</event>
<event>
 7    0  0.4714446E-002  0.4630320E+03  0.7546771E-02  0.1023906E+00
         21   -1    0    0  502  501  0.00000000000E+00  0.00000000000E+00  0.12360391416E+04  0.12360391416E+04  0.00000000000E+00 0.  1.
         21   -1    0    0  501  502 -0.00000000000E+00 -0.00000000000E+00 -0.43364043548E+02  0.43364043548E+02  0.00000000000E+00 0.  1.
      99926    2    1    2    0    0 -0.14210854715E-13 -0.35527136788E-14  0.11926750980E+04  0.12794031851E+04  0.46303198664E+03 0.  0.
      99925    2    3    3    0    0 -0.85331490843E+02 -0.21798490203E+02  0.51827241878E+03  0.58786640419E+03  0.26310448800E+03 0.  0.
         25    1    3    3    0    0  0.85331490843E+02  0.21798490203E+02  0.67440267925E+03  0.69153678093E+03  0.12509000000E+03 0.  0.
         25    1    4    4    0    0 -0.60049141156E+02  0.21905124594E+02  0.22836130189E+03  0.26810842236E+03  0.12509000000E+03 0.  0.
         25    1    4    4    0    0 -0.25282349687E+02 -0.43703614797E+02  0.28991111689E+03  0.31975798183E+03  0.12509000000E+03 0.  0.
<mgrwt>
<rscale>  2 0.46303199E+03</rscale>
<asrwt>0</asrwt>
<pdfrwt beam="1">  1       21 0.18177044E+00 0.46303199E+03</pdfrwt>
<pdfrwt beam="2">  1       21 0.63770660E-02 0.46303199E+03</pdfrwt>
<totfact> 0.27931639E+04</totfact>
</mgrwt>
</event>
<event>
 7    0  0.4714446E-002  0.4391909E+03  0.7546771E-02  0.1030995E+00
         21   -1    0    0  502  501  0.00000000000E+00  0.00000000000E+00  0.33889162329E+03  0.33889162329E+03  0.00000000000E+00 0.  1.
         21   -1    0    0  501  502 -0.00000000000E+00 -0.00000000000E+00 -0.14229373013E+03  0.14229373013E+03  0.00000000000E+00 0.  1.
      99926    2    1    2    0    0 -0.35527136788E-14  0.00000000000E+00  0.19659789316E+03  0.48118535342E+03  0.43919086141E+03 0.  0.
      99925    2    3    3    0    0  0.26350842783E+02  0.42900441586E+02  0.34068571043E+02  0.27000272285E+03  0.26307031001E+03 0.  0.
         25    1    4    4    0    0  0.48346554811E+02  0.26307211601E+02  0.38018563205E+02  0.14185336793E+03  0.12509000000E+03 0.  0.
         25    1    3    3    0    0 -0.26350842783E+02 -0.42900441586E+02  0.16252932212E+03  0.21118263056E+03  0.12509000000E+03 0.  0.
         25    1    4    4    0    0 -0.21995712028E+02  0.16593229985E+02 -0.39499921621E+01  0.12814935492E+03  0.12509000000E+03 0.  0.
<mgrwt>
<rscale>  2 0.43919086E+03</rscale>
<asrwt>0</asrwt>
<pdfrwt beam="1">  1       21 0.49837004E-01 0.43919086E+03</pdfrwt>
<pdfrwt beam="2">  1       21 0.20925549E-01 0.43919086E+03</pdfrwt>
<totfact> 0.75674505E+04</totfact>
</mgrwt>
</event>
<event>
 7    0  0.4714446E-002  0.4484230E+03  0.7546771E-02  0.1028193E+00
         21   -1    0    0  502  501  0.00000000000E+00  0.00000000000E+00  0.51201696147E+02  0.51201696147E+02  0.00000000000E+00 0.  1.
         21   -1    0    0  501  502 -0.00000000000E+00 -0.00000000000E+00 -0.98181877191E+03  0.98181877191E+03  0.00000000000E+00 0.  1.
      99926    2    1    2    0    0  0.00000000000E+00 -0.17763568394E-14 -0.93061707576E+03  0.10330204681E+04  0.44842295405E+03 0.  0.
      99925    2    3    3    0    0  0.31948574492E+02  0.13240136899E+02 -0.82226363281E+03  0.86395246595E+03  0.26286949031E+03 0.  0.
         25    1    3    3    0    0 -0.31948574492E+02 -0.13240136899E+02 -0.10835344295E+03  0.16906800211E+03  0.12509000000E+03 0.  0.
         25    1    4    4    0    0  0.90163000270E+01 -0.33149058882E+02 -0.41005898496E+03  0.43008840140E+03  0.12509000000E+03 0.  0.
         25    1    4    4    0    0  0.22932274465E+02  0.46389195781E+02 -0.41220464786E+03  0.43386406455E+03  0.12509000000E+03 0.  0.
<mgrwt>
<rscale>  2 0.44842295E+03</rscale>
<asrwt>0</asrwt>
<pdfrwt beam="1">  1       21 0.75296618E-02 0.44842295E+03</pdfrwt>
<pdfrwt beam="2">  1       21 0.14438510E+00 0.44842295E+03</pdfrwt>
<totfact> 0.39917141E+04</totfact>
</mgrwt>
</event>
<event>
 7    0  0.4714446E-002  0.4608133E+03  0.7546771E-02  0.1024546E+00
         21   -1    0    0  502  501  0.00000000000E+00  0.00000000000E+00  0.54674700372E+03  0.54674700372E+03  0.00000000000E+00 0. -1.
         21   -1    0    0  501  502 -0.00000000000E+00 -0.00000000000E+00 -0.97096513389E+02  0.97096513389E+02  0.00000000000E+00 0. -1.
      99926    2    1    2    0    0  0.14210854715E-13  0.00000000000E+00  0.44965049033E+03  0.64384351710E+03  0.46081331477E+03 0.  0.
      99925    2    3    3    0    0 -0.64483256898E+02 -0.99480938209E+02  0.27847411715E+03  0.40093734937E+03  0.26296078931E+03 0.  0.
         25    1    3    3    0    0  0.64483256898E+02  0.99480938209E+02  0.17117637318E+03  0.24290616773E+03  0.12509000000E+03 0.  0.
         25    1    4    4    0    0  0.62862117335E+01 -0.62483781617E+02  0.13064133580E+03  0.19146385074E+03  0.12509000000E+03 0.  0.
         25    1    4    4    0    0 -0.70769468632E+02 -0.36997156592E+02  0.14783278135E+03  0.20947349863E+03  0.12509000000E+03 0.  0.
<mgrwt>
<rscale>  2 0.46081331E+03</rscale>
<asrwt>0</asrwt>
<pdfrwt beam="1">  1       21 0.80403970E-01 0.46081331E+03</pdfrwt>
<pdfrwt beam="2">  1       21 0.14278899E-01 0.46081331E+03</pdfrwt>
<totfact> 0.53558112E+04</totfact>
</mgrwt>
</event>
<event>
 7    0  0.4714446E-002  0.4602626E+03  0.7546771E-02  0.1024705E+00
         21   -1    0    0  502  501  0.00000000000E+00  0.00000000000E+00  0.28898461766E+03  0.28898461766E+03  0.00000000000E+00 0. -1.
         21   -1    0    0  501  502 -0.00000000000E+00 -0.00000000000E+00 -0.18326380959E+03  0.18326380959E+03  0.00000000000E+00 0. -1.
      99926    2    1    2    0    0  0.00000000000E+00  0.00000000000E+00  0.10572080807E+03  0.47224842725E+03  0.46026262914E+03 0.  0.
      99925    2    3    3    0    0 -0.38834583572E+02  0.35349879090E+02  0.17453273476E+03  0.32012897357E+03  0.26317892276E+03 0.  0.
         25    1    4    4    0    0 -0.47409291558E+01  0.62468403279E+00  0.43425905841E+02  0.13249975108E+03  0.12509000000E+03 0.  0.
         25    1    3    3    0    0  0.38834583572E+02 -0.35349879090E+02 -0.68811926684E+02  0.15211945368E+03  0.12509000000E+03 0.  0.
         25    1    4    4    0    0 -0.34093654416E+02  0.34725195057E+02  0.13110682892E+03  0.18762922249E+03  0.12509000000E+03 0.  0.
<mgrwt>
<rscale>  2 0.46026263E+03</rscale>
<asrwt>0</asrwt>
<pdfrwt beam="1">  1       21 0.42497738E-01 0.46026263E+03</pdfrwt>
<pdfrwt beam="2">  1       21 0.26950560E-01 0.46026263E+03</pdfrwt>
<totfact> 0.64532663E+04</totfact>
</mgrwt>
</event>
<event>
 6    0  0.1471500E-001  0.5167696E+03  0.7546771E-02  0.1009492E+00
         21   -1    0    0  502  501  0.00000000000E+00  0.00000000000E+00  0.10247324392E+04  0.10247324392E+04  0.00000000000E+00 0.  1.
         21   -1    0    0  501  502 -0.00000000000E+00 -0.00000000000E+00 -0.65151361506E+02  0.65151361506E+02  0.00000000000E+00 0.  1.
      99926    2    1    2    0    0 -0.14210854715E-13  0.14210854715E-13  0.95958107769E+03  0.10898838007E+04  0.51676963376E+03 0.  0.
         25    1    3    3    0    0 -0.69543930969E+02 -0.12427020117E+03  0.24376551301E+03  0.30878564517E+03  0.12509000000E+03 0.  0.
         25    1    3    3    0    0  0.88634665640E+02  0.42522701897E+02  0.31478847801E+03  0.35270891414E+03  0.12509000000E+03 0.  0.
         25    1    3    3    0    0 -0.19090734672E+02  0.81747499274E+02  0.40102708668E+03  0.42838924139E+03  0.12509000000E+03 0.  0.
<mgrwt>
<rscale>  2 0.51676963E+03</rscale>
<asrwt>0</asrwt>
<pdfrwt beam="1">  1       21 0.15069594E+00 0.51676963E+03</pdfrwt>
<pdfrwt beam="2">  1       21 0.95810832E-02 0.51676963E+03</pdfrwt>
<totfact> 0.22744213E+04</totfact>
</mgrwt>
</event>
<event>
 7    0  0.4714446E-002  0.4275646E+03  0.7546771E-02  0.1034632E+00
         21   -1    0    0  502  501  0.00000000000E+00  0.00000000000E+00  0.25385021149E+03  0.25385021149E+03  0.00000000000E+00 0. -1.
         21   -1    0    0  501  502 -0.00000000000E+00 -0.00000000000E+00 -0.18003877807E+03  0.18003877807E+03  0.00000000000E+00 0. -1.
      99926    2    1    2    0    0  0.71054273576E-14 -0.71054273576E-14  0.73811433428E+02  0.43388898956E+03  0.42756464723E+03 0.  0.
      99925    2    3    3    0    0 -0.55439766101E+02 -0.61059416038E+02  0.68370489789E+02  0.28395923294E+03  0.26297623875E+03 0.  0.
         25    1    3    3    0    0  0.55439766101E+02  0.61059416038E+02  0.54409436384E+01  0.14992975662E+03  0.12509000000E+03 0.  0.
         25    1    4    4    0    0 -0.33671948460E+02 -0.44631633910E+02 -0.36497489622E+01  0.13706426094E+03  0.12509000000E+03 0.  0.
         25    1    4    4    0    0 -0.21767817641E+02 -0.16427782128E+02  0.72020238751E+02  0.14689497200E+03  0.12509000000E+03 0.  0.
<mgrwt>
<rscale>  2 0.42756465E+03</rscale>
<asrwt>0</asrwt>
<pdfrwt beam="1">  1       21 0.37330913E-01 0.42756465E+03</pdfrwt>
<pdfrwt beam="2">  1       21 0.26476291E-01 0.42756465E+03</pdfrwt>
<totfact> 0.87820840E+04</totfact>
</mgrwt>
</event>
<event>
 7    0  0.4714446E-002  0.4318403E+03  0.7546771E-02  0.1033280E+00
         21   -1    0    0  502  501  0.00000000000E+00  0.00000000000E+00  0.46984755849E+03  0.46984755849E+03  0.00000000000E+00 0. -1.
         21   -1    0    0  501  502 -0.00000000000E+00 -0.00000000000E+00 -0.99226897660E+02  0.99226897660E+02  0.00000000000E+00 0. -1.
      99926    2    1    2    0    0  0.00000000000E+00  0.00000000000E+00  0.37062066083E+03  0.56907445615E+03  0.43184032050E+03 0.  0.
      99925    2    3    3    0    0  0.82977585321E+02  0.10159479247E+02  0.28164145428E+03  0.39427942767E+03  0.26295601083E+03 0.  0.
         25    1    4    4    0    0  0.80160461709E+02  0.53324482025E+01  0.17656270770E+03  0.23081601434E+03  0.12509000000E+03 0.  0.
         25    1    4    4    0    0  0.28171236122E+01  0.48270310446E+01  0.10507874658E+03  0.16346341333E+03  0.12509000000E+03 0.  0.
         25    1    3    3    0    0 -0.82977585321E+02 -0.10159479247E+02  0.88979206552E+02  0.17479502848E+03  0.12509000000E+03 0.  0.
<mgrwt>
<rscale>  2 0.43184032E+03</rscale>
<asrwt>0</asrwt>
<pdfrwt beam="1">  1       21 0.69095228E-01 0.43184032E+03</pdfrwt>
<pdfrwt beam="2">  1       21 0.14592191E-01 0.43184032E+03</pdfrwt>
<totfact> 0.73122702E+04</totfact>
</mgrwt>
</event>
<event>
 7    0  0.4714446E-002  0.4628064E+03  0.7546771E-02  0.1023970E+00
         21   -1    0    0  502  501  0.00000000000E+00  0.00000000000E+00  0.84268110007E+02  0.84268110007E+02  0.00000000000E+00 0.  1.
         21   -1    0    0  501  502 -0.00000000000E+00 -0.00000000000E+00 -0.63544129468E+03  0.63544129468E+03  0.00000000000E+00 0.  1.
      99926    2    1    2    0    0  0.00000000000E+00  0.00000000000E+00 -0.55117318467E+03  0.71970940468E+03  0.46280638251E+03 0.  0.
      99925    2    3    3    0    0  0.10578361970E+03  0.51208562584E+02 -0.30415638699E+03  0.41891496073E+03  0.26299457313E+03 0.  0.
         25    1    3    3    0    0 -0.10578361970E+03 -0.51208562584E+02 -0.24701679768E+03  0.30079444396E+03  0.12509000000E+03 0.  0.
         25    1    4    4    0    0  0.41821668178E+02  0.52051541041E+02 -0.11104469776E+03  0.18010232607E+03  0.12509000000E+03 0.  0.
         25    1    4    4    0    0  0.63961951526E+02 -0.84297845667E+00 -0.19311168923E+03  0.23881263466E+03  0.12509000000E+03 0.  0.
<mgrwt>
<rscale>  2 0.46280638E+03</rscale>
<asrwt>0</asrwt>
<pdfrwt beam="1">  1       21 0.12392368E-01 0.46280638E+03</pdfrwt>
<pdfrwt beam="2">  1       21 0.93447254E-01 0.46280638E+03</pdfrwt>
<totfact> 0.48780896E+04</totfact>
</mgrwt>
</event>
<event>
 7    0  0.4714446E-002  0.4509801E+03  0.7546771E-02  0.1027430E+00
         21   -1    0    0  502  501  0.00000000000E+00  0.00000000000E+00  0.77137535061E+03  0.77137535061E+03  0.00000000000E+00 0. -1.
         21   -1    0    0  501  502 -0.00000000000E+00 -0.00000000000E+00 -0.65915721005E+02  0.65915721005E+02  0.00000000000E+00 0. -1.
      99926    2    1    2    0    0  0.00000000000E+00  0.35527136788E-14  0.70545962960E+03  0.83729107161E+03  0.45098009890E+03 0.  0.
      99925    2    3    3    0    0 -0.10163263548E+03 -0.11539282009E+02  0.51696092773E+03  0.58901377436E+03  0.26310887093E+03 0.  0.
         25    1    4    4    0    0 -0.62651459719E+02 -0.40651674358E+02  0.23072903227E+03  0.27287571982E+03  0.12509000000E+03 0.  0.
         25    1    4    4    0    0 -0.38981175760E+02  0.29112392348E+02  0.28623189545E+03  0.31613805454E+03  0.12509000000E+03 0.  0.
         25    1    3    3    0    0  0.10163263548E+03  0.11539282009E+02  0.18849870188E+03  0.24827729726E+03  0.12509000000E+03 0.  0.
<mgrwt>
<rscale>  2 0.45098010E+03</rscale>
<asrwt>0</asrwt>
<pdfrwt beam="1">  1       21 0.11343755E+00 0.45098010E+03</pdfrwt>
<pdfrwt beam="2">  1       21 0.96934889E-02 0.45098010E+03</pdfrwt>
<totfact> 0.47493595E+04</totfact>
</mgrwt>
</event>
<event>
 6    0  0.4714446E-002  0.4527607E+03  0.7546771E-02  0.1026902E+00
         21   -1    0    0  502  501  0.00000000000E+00  0.00000000000E+00  0.61515791481E+03  0.61515791481E+03  0.00000000000E+00 0. -1.
         21   -1    0    0  501  502 -0.00000000000E+00 -0.00000000000E+00 -0.83308778277E+02  0.83308778277E+02  0.00000000000E+00 0. -1.
      99926    2    1    2    0    0  0.14210854715E-13  0.00000000000E+00  0.53184913653E+03  0.69846669309E+03  0.45276066229E+03 0.  0.
         25    1    3    3    0    0 -0.91870963416E+00  0.30475545516E+02  0.17437864477E+03  0.21676028869E+03  0.12509000000E+03 0.  0.
         25    1    3    3    0    0 -0.92322692977E+02  0.18088585816E+02  0.20752781160E+03  0.25993456342E+03  0.12509000000E+03 0.  0.
         25    1    3    3    0    0  0.93241402611E+02 -0.48564131332E+02  0.14994268017E+03  0.22177184097E+03  0.12509000000E+03 0.  0.
<mgrwt>
<rscale>  2 0.45276066E+03</rscale>
<asrwt>0</asrwt>
<pdfrwt beam="1">  1       21 0.90464397E-01 0.45276066E+03</pdfrwt>
<pdfrwt beam="2">  1       21 0.12251291E-01 0.45276066E+03</pdfrwt>
<totfact> 0.53930482E+04</totfact>
</mgrwt>
</event>
<event>
 6    0  0.4714446E-002  0.3943820E+03  0.7546771E-02  0.1045743E+00
         21   -1    0    0  502  501  0.00000000000E+00  0.00000000000E+00  0.91517874537E+02  0.91517874537E+02  0.00000000000E+00 0.  1.
         21   -1    0    0  501  502 -0.00000000000E+00 -0.00000000000E+00 -0.42488193327E+03  0.42488193327E+03  0.00000000000E+00 0.  1.
      99926    2    1    2    0    0  0.35527136788E-14  0.00000000000E+00 -0.33336405873E+03  0.51639980781E+03  0.39438200498E+03 0.  0.
         25    1    3    3    0    0  0.20632209776E+02 -0.15638310836E+02 -0.83144407374E+02  0.15241635550E+03  0.12509000000E+03 0.  0.
         25    1    3    3    0    0  0.16994840045E+02 -0.19191788033E+02 -0.10250537650E+03  0.16374373157E+03  0.12509000000E+03 0.  0.
         25    1    3    3    0    0 -0.37627049821E+02  0.34830098869E+02 -0.14771427486E+03  0.20023972074E+03  0.12509000000E+03 0.  0.
<mgrwt>
<rscale>  2 0.39438200E+03</rscale>
<asrwt>0</asrwt>
<pdfrwt beam="1">  1       21 0.13458511E-01 0.39438200E+03</pdfrwt>
<pdfrwt beam="2">  1       21 0.62482638E-01 0.39438200E+03</pdfrwt>
<totfact> 0.10696746E+05</totfact>
</mgrwt>
</event>
<event>
 7    0  0.4714446E-002  0.4527161E+03  0.7546771E-02  0.1026915E+00
         21   -1    0    0  502  501  0.00000000000E+00  0.00000000000E+00  0.52689025998E+03  0.52689025998E+03  0.00000000000E+00 0. -1.
         21   -1    0    0  501  502 -0.00000000000E+00 -0.00000000000E+00 -0.97246004233E+02  0.97246004233E+02  0.00000000000E+00 0. -1.
      99926    2    1    2    0    0  0.00000000000E+00  0.00000000000E+00  0.42964425574E+03  0.62413626421E+03  0.45271612497E+03 0.  0.
      99925    2    3    3    0    0  0.65401479925E+02 -0.77722832648E+02  0.33254944260E+03  0.43600571610E+03  0.26304687873E+03 0.  0.
         25    1    4    4    0    0  0.31605173390E+02 -0.30235494954E+02  0.10166603040E+03  0.16702263912E+03  0.12509000000E+03 0.  0.
         25    1    4    4    0    0  0.33796306535E+02 -0.47487337694E+02  0.23088341219E+03  0.26898307698E+03  0.12509000000E+03 0.  0.
         25    1    3    3    0    0 -0.65401479925E+02  0.77722832648E+02  0.97094813145E+02  0.18813054811E+03  0.12509000000E+03 0.  0.
<mgrwt>
<rscale>  2 0.45271612E+03</rscale>
<asrwt>0</asrwt>
<pdfrwt beam="1">  1       21 0.77483861E-01 0.45271612E+03</pdfrwt>
<pdfrwt beam="2">  1       21 0.14300883E-01 0.45271612E+03</pdfrwt>
<totfact> 0.58260146E+04</totfact>
</mgrwt>
</event>
<event>
 7    0  0.4714446E-002  0.4571106E+03  0.7546771E-02  0.1025623E+00
         21   -1    0    0  502  501  0.00000000000E+00  0.00000000000E+00  0.55240202587E+02  0.55240202587E+02  0.00000000000E+00 0. -1.
         21   -1    0    0  501  502 -0.00000000000E+00 -0.00000000000E+00 -0.94564306998E+03  0.94564306998E+03  0.00000000000E+00 0. -1.
      99926    2    1    2    0    0 -0.44408920985E-15  0.14210854715E-13 -0.89040286740E+03  0.10008832726E+04  0.45711055451E+03 0.  0.
      99925    2    3    3    0    0  0.30051743186E+01 -0.11507307564E+03 -0.55074718650E+03  0.62106182311E+03  0.26295338155E+03 0.  0.
         25    1    4    4    0    0  0.16295396931E+00 -0.89001080739E+02 -0.23813953372E+03  0.28333578056E+03  0.12509000000E+03 0.  0.
         25    1    4    4    0    0  0.28422203492E+01 -0.26071994899E+02 -0.31260765278E+03  0.33772604254E+03  0.12509000000E+03 0.  0.
         25    1    3    3    0    0 -0.30051743186E+01  0.11507307564E+03 -0.33965568089E+03  0.37982144946E+03  0.12509000000E+03 0.  0.
<mgrwt>
<rscale>  2 0.45711055E+03</rscale>
<asrwt>0</asrwt>
<pdfrwt beam="1">  1       21 0.81235600E-02 0.45711055E+03</pdfrwt>
<pdfrwt beam="2">  1       21 0.13906514E+00 0.45711055E+03</pdfrwt>
<totfact> 0.38494048E+04</totfact>
</mgrwt>
</event>
<event>
 7    0  0.4714446E-002  0.4577936E+03  0.7546771E-02  0.1025423E+00
         21   -1    0    0  502  501  0.00000000000E+00  0.00000000000E+00  0.33289612193E+03  0.33289612193E+03  0.00000000000E+00 0.  1.
         21   -1    0    0  501  502 -0.00000000000E+00 -0.00000000000E+00 -0.15738768920E+03  0.15738768920E+03  0.00000000000E+00 0.  1.
      99926    2    1    2    0    0  0.00000000000E+00 -0.35527136788E-14  0.17550843272E+03  0.49028381113E+03  0.45779362763E+03 0.  0.
      99925    2    3    3    0    0  0.11246828191E+03  0.17716908801E+02  0.13015468125E+03  0.31516249842E+03  0.26348464104E+03 0.  0.
         25    1    4    4    0    0  0.83929115558E+02 -0.14824435664E+02  0.45561137488E+02  0.15807335538E+03  0.12509000000E+03 0.  0.
         25    1    3    3    0    0 -0.11246828191E+03 -0.17716908801E+02  0.45353751476E+02  0.17512131271E+03  0.12509000000E+03 0.  0.
         25    1    4    4    0    0  0.28539166352E+02  0.32541344465E+02  0.84593543757E+02  0.15708914304E+03  0.12509000000E+03 0.  0.
<mgrwt>
<rscale>  2 0.45779363E+03</rscale>
<asrwt>0</asrwt>
<pdfrwt beam="1">  1       21 0.48955312E-01 0.45779363E+03</pdfrwt>
<pdfrwt beam="2">  1       21 0.23145248E-01 0.45779363E+03</pdfrwt>
<totfact> 0.64516064E+04</totfact>
</mgrwt>
</event>
<event>
 7    0  0.4714446E-002  0.4877528E+03  0.7546771E-02  0.1017026E+00
         21   -1    0    0  502  501  0.00000000000E+00  0.00000000000E+00  0.11470658348E+03  0.11470658348E+03  0.00000000000E+00 0.  1.
         21   -1    0    0  501  502 -0.00000000000E+00 -0.00000000000E+00 -0.51850284440E+03  0.51850284440E+03  0.00000000000E+00 0.  1.
      99926    2    1    2    0    0  0.00000000000E+00  0.00000000000E+00 -0.40379626092E+03  0.63320942788E+03  0.48775276444E+03 0.  0.
      99925    2    3    3    0    0  0.32256975462E+02 -0.13065910650E+03 -0.18991827724E+03  0.35124557456E+03  0.26304407813E+03 0.  0.
         25    1    4    4    0    0 -0.24329613417E+02 -0.67333258816E+02 -0.87097189542E+02  0.16840168158E+03  0.12509000000E+03 0.  0.
         25    1    4    4    0    0  0.56586588879E+02 -0.63325847680E+02 -0.10282108770E+03  0.18284389298E+03  0.12509000000E+03 0.  0.
         25    1    3    3    0    0 -0.32256975462E+02  0.13065910650E+03 -0.21387798367E+03  0.28196385331E+03  0.12509000000E+03 0.  0.
<mgrwt>
<rscale>  2 0.48775276E+03</rscale>
<asrwt>0</asrwt>
<pdfrwt beam="1">  1       21 0.16868615E-01 0.48775276E+03</pdfrwt>
<pdfrwt beam="2">  1       21 0.76250418E-01 0.48775276E+03</pdfrwt>
<totfact> 0.44115863E+04</totfact>
</mgrwt>
</event>
<event>
 7    0  0.4714446E-002  0.4647658E+03  0.7546771E-02  0.1023408E+00
         21   -1    0    0  502  501  0.00000000000E+00  0.00000000000E+00  0.45008318982E+03  0.45008318982E+03  0.00000000000E+00 0.  1.
         21   -1    0    0  501  502 -0.00000000000E+00 -0.00000000000E+00 -0.11998183180E+03  0.11998183180E+03  0.00000000000E+00 0.  1.
      99926    2    1    2    0    0  0.00000000000E+00 -0.71054273576E-14  0.33010135802E+03  0.57006502163E+03  0.46476577145E+03 0.  0.
      99925    2    3    3    0    0  0.86507887637E+02 -0.41548849566E+02  0.29847016961E+03  0.40926091190E+03  0.26305917650E+03 0.  0.
         25    1    4    4    0    0  0.42758406837E+02 -0.93905174992E+00  0.19798790125E+03  0.23806696603E+03  0.12509000000E+03 0.  0.
         25    1    4    4    0    0  0.43749480800E+02 -0.40609797816E+02  0.10048226836E+03  0.17119394587E+03  0.12509000000E+03 0.  0.
         25    1    3    3    0    0 -0.86507887637E+02  0.41548849566E+02  0.31631188418E+02  0.16080410972E+03  0.12509000000E+03 0.  0.
<mgrwt>
<rscale>  2 0.46476577E+03</rscale>
<asrwt>0</asrwt>
<pdfrwt beam="1">  1       21 0.66188704E-01 0.46476577E+03</pdfrwt>
<pdfrwt beam="2">  1       21 0.17644387E-01 0.46476577E+03</pdfrwt>
<totfact> 0.56100075E+04</totfact>
</mgrwt>
</event>
<event>
 7    0  0.4714446E-002  0.4242190E+03  0.7546771E-02  0.1035702E+00
         21   -1    0    0  502  501  0.00000000000E+00  0.00000000000E+00  0.54826317685E+03  0.54826317685E+03  0.00000000000E+00 0.  1.
         21   -1    0    0  501  502 -0.00000000000E+00 -0.00000000000E+00 -0.82059919379E+02  0.82059919379E+02  0.00000000000E+00 0.  1.
      99926    2    1    2    0    0  0.00000000000E+00  0.88817841970E-15  0.46620325747E+03  0.63032309623E+03  0.42421896276E+03 0.  0.
      99925    2    3    3    0    0 -0.76222166286E+02  0.74725813249E+01  0.26289621099E+03  0.37963021369E+03  0.26294300388E+03 0.  0.
         25    1    3    3    0    0  0.76222166286E+02 -0.74725813249E+01  0.20330704648E+03  0.25069288254E+03  0.12509000000E+03 0.  0.
         25    1    4    4    0    0 -0.54029483824E+02  0.19394759142E+02  0.18336828725E+03  0.22927446145E+03  0.12509000000E+03 0.  0.
         25    1    4    4    0    0 -0.22192682461E+02 -0.11922177817E+02  0.79527923743E+02  0.15035575225E+03  0.12509000000E+03 0.  0.
<mgrwt>
<rscale>  2 0.42421896E+03</rscale>
<asrwt>0</asrwt>
<pdfrwt beam="1">  1       21 0.80626936E-01 0.42421896E+03</pdfrwt>
<pdfrwt beam="2">  1       21 0.12067635E-01 0.42421896E+03</pdfrwt>
<totfact> 0.73035403E+04</totfact>
</mgrwt>
</event>
<event>
 7    0  0.4714446E-002  0.4504556E+03  0.7546771E-02  0.1027586E+00
         21   -1    0    0  502  501  0.00000000000E+00  0.00000000000E+00  0.71128933217E+03  0.71128933217E+03  0.00000000000E+00 0. -1.
         21   -1    0    0  501  502 -0.00000000000E+00 -0.00000000000E+00 -0.71317757359E+02  0.71317757359E+02  0.00000000000E+00 0. -1.
      99926    2    1    2    0    0  0.00000000000E+00  0.00000000000E+00  0.63997157481E+03  0.78260708952E+03  0.45045559161E+03 0.  0.
      99925    2    3    3    0    0  0.17372814531E+02 -0.54486201104E+02  0.24336744656E+03  0.36282988262E+03  0.26295864481E+03 0.  0.
         25    1    4    4    0    0  0.84732636671E+01 -0.61779847924E+02  0.15799791134E+03  0.21094879448E+03  0.12509000000E+03 0.  0.
         25    1    3    3    0    0 -0.17372814531E+02  0.54486201104E+02  0.39660412824E+03  0.41977720690E+03  0.12509000000E+03 0.  0.
         25    1    4    4    0    0  0.88995508637E+01  0.72936468198E+01  0.85369535223E+02  0.15188108814E+03  0.12509000000E+03 0.  0.
<mgrwt>
<rscale>  2 0.45045559E+03</rscale>
<asrwt>0</asrwt>
<pdfrwt beam="1">  1       21 0.10460137E+00 0.45045559E+03</pdfrwt>
<pdfrwt beam="2">  1       21 0.10487906E-01 0.45045559E+03</pdfrwt>
<totfact> 0.50391145E+04</totfact>
</mgrwt>
</event>
<event>
 7    0  0.4714446E-002  0.4525149E+03  0.7546771E-02  0.1026975E+00
         21   -1    0    0  502  501  0.00000000000E+00  0.00000000000E+00  0.34317102516E+03  0.34317102516E+03  0.00000000000E+00 0.  1.
         21   -1    0    0  501  502 -0.00000000000E+00 -0.00000000000E+00 -0.14917469534E+03  0.14917469534E+03  0.00000000000E+00 0.  1.
      99926    2    1    2    0    0  0.00000000000E+00  0.00000000000E+00  0.19399632982E+03  0.49234572049E+03  0.45251489755E+03 0.  0.
      99925    2    3    3    0    0  0.10143729457E+03 -0.44112938036E+02  0.11026463596E+03  0.30554641458E+03  0.26261158674E+03 0.  0.
         25    1    4    4    0    0  0.69063459755E+02  0.38886197919E+01  0.82157616172E+02  0.16487044863E+03  0.12509000000E+03 0.  0.
         25    1    3    3    0    0 -0.10143729457E+03  0.44112938036E+02  0.83731693864E+02  0.18679930591E+03  0.12509000000E+03 0.  0.
         25    1    4    4    0    0  0.32373834815E+02 -0.48001557827E+02  0.28107019785E+02  0.14067596595E+03  0.12509000000E+03 0.  0.
<mgrwt>
<rscale>  2 0.45251490E+03</rscale>
<asrwt>0</asrwt>
<pdfrwt beam="1">  1       21 0.50466327E-01 0.45251490E+03</pdfrwt>
<pdfrwt beam="2">  1       21 0.21937455E-01 0.45251490E+03</pdfrwt>
<totfact> 0.67126351E+04</totfact>
</mgrwt>
</event>
<event>
 7    0  0.4714446E-002  0.4590144E+03  0.7546771E-02  0.1025067E+00
         21   -1    0    0  502  501  0.00000000000E+00  0.00000000000E+00  0.48513994680E+02  0.48513994680E+02  0.00000000000E+00 0.  1.
         21   -1    0    0  501  502 -0.00000000000E+00 -0.00000000000E+00 -0.10857394646E+04  0.10857394646E+04  0.00000000000E+00 0.  1.
      99926    2    1    2    0    0  0.14210854715E-13  0.00000000000E+00 -0.10372254699E+04  0.11342534593E+04  0.45901441638E+03 0.  0.
      99925    2    3    3    0    0  0.77947565285E+02 -0.72444585179E+02 -0.76994853259E+03  0.82055215202E+03  0.26298488641E+03 0.  0.
         25    1    4    4    0    0  0.66042694320E+02 -0.68595465913E+02 -0.45773898487E+03  0.48398291477E+03  0.12509000000E+03 0.  0.
         25    1    4    4    0    0  0.11904870965E+02 -0.38491192666E+01 -0.31220954772E+03  0.33656923725E+03  0.12509000000E+03 0.  0.
         25    1    3    3    0    0 -0.77947565285E+02  0.72444585179E+02 -0.26727693736E+03  0.31370130729E+03  0.12509000000E+03 0.  0.
<mgrwt>
<rscale>  2 0.45901442E+03</rscale>
<asrwt>0</asrwt>
<pdfrwt beam="1">  1       21 0.71344110E-02 0.45901442E+03</pdfrwt>
<pdfrwt beam="2">  1       21 0.15966757E+00 0.45901442E+03</pdfrwt>
<totfact> 0.33259469E+04</totfact>
</mgrwt>
</event>
<event>
 7    0  0.4714446E-002  0.4546732E+03  0.7546771E-02  0.1026338E+00
         21   -1    0    0  502  501  0.00000000000E+00  0.00000000000E+00  0.11310239341E+03  0.11310239341E+03  0.00000000000E+00 0.  1.
         21   -1    0    0  501  502 -0.00000000000E+00 -0.00000000000E+00 -0.45694809809E+03  0.45694809809E+03  0.00000000000E+00 0.  1.
      99926    2    1    2    0    0  0.00000000000E+00  0.00000000000E+00 -0.34384570468E+03  0.57005049150E+03  0.45467317298E+03 0.  0.
      99925    2    3    3    0    0 -0.98421330080E+02 -0.47967965023E+02 -0.18172419338E+03  0.33784675249E+03  0.26292406095E+03 0.  0.
         25    1    3    3    0    0  0.98421330080E+02  0.47967965023E+02 -0.16212151130E+03  0.23220373901E+03  0.12509000000E+03 0.  0.
         25    1    4    4    0    0 -0.67417130682E+01 -0.26777714535E+02 -0.87745246667E+02  0.15527148194E+03  0.12509000000E+03 0.  0.
         25    1    4    4    0    0 -0.91679617012E+02 -0.21190250488E+02 -0.93978946712E+02  0.18257527055E+03  0.12509000000E+03 0.  0.
<mgrwt>
<rscale>  2 0.45467317E+03</rscale>
<asrwt>0</asrwt>
<pdfrwt beam="1">  1       21 0.16632705E-01 0.45467317E+03</pdfrwt>
<pdfrwt beam="2">  1       21 0.67198250E-01 0.45467317E+03</pdfrwt>
<totfact> 0.60717451E+04</totfact>
</mgrwt>
</event>
<event>
 7    0  0.4714446E-002  0.5408077E+03  0.7546771E-02  0.1003644E+00
         21   -1    0    0  502  501  0.00000000000E+00  0.00000000000E+00  0.83299837513E+03  0.83299837513E+03  0.00000000000E+00 0.  1.
         21   -1    0    0  501  502 -0.00000000000E+00 -0.00000000000E+00 -0.87777171657E+02  0.87777171657E+02  0.00000000000E+00 0.  1.
      99926    2    1    2    0    0  0.00000000000E+00 -0.14210854715E-13  0.74522120348E+03  0.92077554679E+03  0.54080769730E+03 0.  0.
      99925    2    3    3    0    0  0.94320610125E+02 -0.97986081186E+02  0.64695134261E+03  0.71148597883E+03  0.26299925622E+03 0.  0.
         25    1    4    4    0    0  0.87642779138E+01 -0.25967218577E+02  0.29416991021E+03  0.32083415214E+03  0.12509000000E+03 0.  0.
         25    1    4    4    0    0  0.85556332211E+02 -0.72018862609E+02  0.35278143240E+03  0.39065182670E+03  0.12509000000E+03 0.  0.
         25    1    3    3    0    0 -0.94320610125E+02  0.97986081186E+02  0.98269860870E+02  0.20928956796E+03  0.12509000000E+03 0.  0.
<mgrwt>
<rscale>  2 0.54080770E+03</rscale>
<asrwt>0</asrwt>
<pdfrwt beam="1">  1       21 0.12249976E+00 0.54080770E+03</pdfrwt>
<pdfrwt beam="2">  1       21 0.12908408E-01 0.54080770E+03</pdfrwt>
<totfact> 0.22761205E+04</totfact>
</mgrwt>
</event>
<event>
 7    0  0.4714446E-002  0.4547990E+03  0.7546771E-02  0.1026301E+00
         21   -1    0    0  502  501  0.00000000000E+00  0.00000000000E+00  0.18208205051E+02  0.18208205051E+02  0.00000000000E+00 0. -1.
         21   -1    0    0  501  502 -0.00000000000E+00 -0.00000000000E+00 -0.28399571391E+04  0.28399571391E+04  0.00000000000E+00 0. -1.
      99926    2    1    2    0    0  0.00000000000E+00 -0.35527136788E-14 -0.28217489341E+04  0.28581653442E+04  0.45479895306E+03 0.  0.
      99925    2    3    3    0    0 -0.31167496432E+02 -0.17239302310E+02 -0.11012019485E+04  0.11327094496E+04  0.26289990397E+03 0.  0.
         25    1    4    4    0    0  0.19668423670E+02 -0.17608255521E+02 -0.45937341803E+03  0.47683156653E+03  0.12509000000E+03 0.  0.
         25    1    4    4    0    0 -0.50835920102E+02  0.36895321141E+00 -0.64182853044E+03  0.65587788306E+03  0.12509000000E+03 0.  0.
         25    1    3    3    0    0  0.31167496432E+02  0.17239302310E+02 -0.17205469856E+04  0.17254558946E+04  0.12509000000E+03 0.  0.
<mgrwt>
<rscale>  2 0.45479895E+03</rscale>
<asrwt>0</asrwt>
<pdfrwt beam="1">  1       21 0.26776801E-02 0.45479895E+03</pdfrwt>
<pdfrwt beam="2">  1       21 0.41764030E+00 0.45479895E+03</pdfrwt>
<totfact> 0.41240096E+03</totfact>
</mgrwt>
</event>
<event>
 7    0  0.4714446E-002  0.4491892E+03  0.7546771E-02  0.1027964E+00
         21   -1    0    0  502  501  0.00000000000E+00  0.00000000000E+00  0.89778247751E+03  0.89778247751E+03  0.00000000000E+00 0. -1.
         21   -1    0    0  501  502 -0.00000000000E+00 -0.00000000000E+00 -0.56185916181E+02  0.56185916181E+02  0.00000000000E+00 0. -1.
      99926    2    1    2    0    0  0.35527136788E-14 -0.14210854715E-13  0.84159656133E+03  0.95396839369E+03  0.44918918522E+03 0.  0.
      99925    2    3    3    0    0  0.20922829366E+02 -0.10346258940E+03  0.57687779607E+03  0.64273567534E+03  0.26301879126E+03 0.  0.
         25    1    3    3    0    0 -0.20922829366E+02  0.10346258940E+03  0.26471876526E+03  0.31123271835E+03  0.12509000000E+03 0.  0.
         25    1    4    4    0    0  0.22720681786E+02 -0.11113304409E+02  0.27461202986E+03  0.30281844389E+03  0.12509000000E+03 0.  0.
         25    1    4    4    0    0 -0.17978524203E+01 -0.92349284992E+02  0.30226576621E+03  0.33991723144E+03  0.12509000000E+03 0.  0.
<mgrwt>
<rscale>  2 0.44918919E+03</rscale>
<asrwt>0</asrwt>
<pdfrwt beam="1">  1       21 0.13202683E+00 0.44918919E+03</pdfrwt>
<pdfrwt beam="2">  1       21 0.82626353E-02 0.44918919E+03</pdfrwt>
<totfact> 0.42896719E+04</totfact>
</mgrwt>
</event>
<event>
 7    0  0.4714446E-002  0.4510865E+03  0.7546771E-02  0.1027399E+00
         21   -1    0    0  502  501  0.00000000000E+00  0.00000000000E+00  0.75243767737E+03  0.75243767737E+03  0.00000000000E+00 0.  1.
         21   -1    0    0  501  502 -0.00000000000E+00 -0.00000000000E+00 -0.67606609188E+02  0.67606609188E+02  0.00000000000E+00 0.  1.
      99926    2    1    2    0    0  0.00000000000E+00  0.00000000000E+00  0.68483106818E+03  0.82004428656E+03  0.45108651052E+03 0.  0.
      99925    2    3    3    0    0 -0.79119932930E+02 -0.67949877160E+02  0.49308089181E+03  0.56846370736E+03  0.26295450390E+03 0.  0.
         25    1    4    4    0    0 -0.58530942911E+02 -0.37987865827E+01  0.28191512020E+03  0.31394895311E+03  0.12509000000E+03 0.  0.
         25    1    4    4    0    0 -0.20588990018E+02 -0.64151090578E+02  0.21116577161E+03  0.25451475425E+03  0.12509000000E+03 0.  0.
         25    1    3    3    0    0  0.79119932930E+02  0.67949877160E+02  0.19175017637E+03  0.25158057920E+03  0.12509000000E+03 0.  0.
<mgrwt>
<rscale>  2 0.45108651E+03</rscale>
<asrwt>0</asrwt>
<pdfrwt beam="1">  1       21 0.11065260E+00 0.45108651E+03</pdfrwt>
<pdfrwt beam="2">  1       21 0.99421488E-02 0.45108651E+03</pdfrwt>
<totfact> 0.48275999E+04</totfact>
</mgrwt>
</event>
<event>
 7    0  0.4714446E-002  0.4542242E+03  0.7546771E-02  0.1026470E+00
         21   -1    0    0  502  501  0.00000000000E+00  0.00000000000E+00  0.25389639904E+02  0.25389639904E+02  0.00000000000E+00 0.  1.
         21   -1    0    0  501  502 -0.00000000000E+00 -0.00000000000E+00 -0.20315333388E+04  0.20315333388E+04  0.00000000000E+00 0.  1.
      99926    2    1    2    0    0  0.00000000000E+00  0.00000000000E+00 -0.20061436989E+04  0.20569229787E+04  0.45422417340E+03 0.  0.
      99925    2    3    3    0    0  0.85613528426E+02 -0.68472285767E+02 -0.13759679583E+04  0.14051660437E+04  0.26303166725E+03 0.  0.
         25    1    4    4    0    0  0.75330275629E+02 -0.49819097140E+02 -0.63962009701E+03  0.65796502146E+03  0.12509000000E+03 0.  0.
         25    1    4    4    0    0  0.10283252798E+02 -0.18653188627E+02 -0.73634786131E+03  0.74720102228E+03  0.12509000000E+03 0.  0.
         25    1    3    3    0    0 -0.85613528426E+02  0.68472285767E+02 -0.63017574056E+03  0.65175693496E+03  0.12509000000E+03 0.  0.
<mgrwt>
<rscale>  2 0.45422417E+03</rscale>
<asrwt>0</asrwt>
<pdfrwt beam="1">  1       21 0.37337708E-02 0.45422417E+03</pdfrwt>
<pdfrwt beam="2">  1       21 0.29875489E+00 0.45422417E+03</pdfrwt>
<totfact> 0.12879992E+04</totfact>
</mgrwt>
</event>
<event>
 7    0  0.4714446E-002  0.4303832E+03  0.7546771E-02  0.1033739E+00
         21   -1    0    0  502  501  0.00000000000E+00  0.00000000000E+00  0.68909739977E+02  0.68909739977E+02  0.00000000000E+00 0. -1.
         21   -1    0    0  501  502 -0.00000000000E+00 -0.00000000000E+00 -0.67200108896E+03  0.67200108896E+03  0.00000000000E+00 0. -1.
      99926    2    1    2    0    0  0.00000000000E+00  0.00000000000E+00 -0.60309134898E+03  0.74091082894E+03  0.43038317953E+03 0.  0.
      99925    2    3    3    0    0 -0.86898611233E+02 -0.12550883265E+02 -0.40156197075E+03  0.48798694376E+03  0.26300256200E+03 0.  0.
         25    1    4    4    0    0 -0.38090729944E+02 -0.42583877410E+02 -0.23111391901E+03  0.26893389891E+03  0.12509000000E+03 0.  0.
         25    1    4    4    0    0 -0.48807881289E+02  0.30032994146E+02 -0.17044805174E+03  0.21905304484E+03  0.12509000000E+03 0.  0.
         25    1    3    3    0    0  0.86898611233E+02  0.12550883265E+02 -0.20152937823E+03  0.25292388518E+03  0.12509000000E+03 0.  0.
<mgrwt>
<rscale>  2 0.43038318E+03</rscale>
<asrwt>0</asrwt>
<pdfrwt beam="1">  1       21 0.10133786E-01 0.43038318E+03</pdfrwt>
<pdfrwt beam="2">  1       21 0.98823685E-01 0.43038318E+03</pdfrwt>
<totfact> 0.61868784E+04</totfact>
</mgrwt>
</event>
<event>
 7    0  0.4714446E-002  0.4523140E+03  0.7546771E-02  0.1027034E+00
         21   -1    0    0  502  501  0.00000000000E+00  0.00000000000E+00  0.20528497865E+04  0.20528497865E+04  0.00000000000E+00 0. -1.
         21   -1    0    0  501  502 -0.00000000000E+00 -0.00000000000E+00 -0.24915114036E+02  0.24915114036E+02  0.00000000000E+00 0. -1.
      99926    2    1    2    0    0  0.00000000000E+00  0.14210854715E-13  0.20279346725E+04  0.20777649006E+04  0.45231399063E+03 0.  0.
      99925    2    3    3    0    0  0.27664491560E+02  0.84075544927E+02  0.15856393260E+04  0.16096765510E+04  0.26262617045E+03 0.  0.
         25    1    3    3    0    0 -0.27664491560E+02 -0.84075544927E+02  0.44229534652E+03  0.46808834957E+03  0.12509000000E+03 0.  0.
         25    1    4    4    0    0 -0.20216401427E+02  0.50298243750E+02  0.67615982254E+03  0.68976679387E+03  0.12509000000E+03 0.  0.
         25    1    4    4    0    0  0.47880892987E+02  0.33777301177E+02  0.90947950345E+03  0.91990975714E+03  0.12509000000E+03 0.  0.
<mgrwt>
<rscale>  2 0.45231399E+03</rscale>
<asrwt>0</asrwt>
<pdfrwt beam="1">  1       21 0.30188956E+00 0.45231399E+03</pdfrwt>
<pdfrwt beam="2">  1       21 0.36639888E-02 0.45231399E+03</pdfrwt>
<totfact> 0.12745278E+04</totfact>
</mgrwt>
</event>
<event>
 7    0  0.4714446E-002  0.4549486E+03  0.7546771E-02  0.1026257E+00
         21   -1    0    0  502  501  0.00000000000E+00  0.00000000000E+00  0.29372221508E+03  0.29372221508E+03  0.00000000000E+00 0.  1.
         21   -1    0    0  501  502 -0.00000000000E+00 -0.00000000000E+00 -0.17616831673E+03  0.17616831673E+03  0.00000000000E+00 0.  1.
      99926    2    1    2    0    0 -0.14210854715E-13  0.00000000000E+00  0.11755389835E+03  0.46989053181E+03  0.45494856068E+03 0.  0.
      99925    2    3    3    0    0 -0.71907582196E+02 -0.57878777516E+02  0.14089175126E+03  0.31268742515E+03  0.26344313809E+03 0.  0.
         25    1    4    4    0    0 -0.22546398640E+02 -0.63400253248E+02  0.51371410780E+02  0.15104457007E+03  0.12509000000E+03 0.  0.
         25    1    4    4    0    0 -0.49361183557E+02  0.55214757314E+01  0.89520340484E+02  0.16164285507E+03  0.12509000000E+03 0.  0.
         25    1    3    3    0    0  0.71907582196E+02  0.57878777516E+02 -0.23337852913E+02  0.15720310666E+03  0.12509000000E+03 0.  0.
<mgrwt>
<rscale>  2 0.45494856E+03</rscale>
<asrwt>0</asrwt>
<pdfrwt beam="1">  1       21 0.43194444E-01 0.45494856E+03</pdfrwt>
<pdfrwt beam="2">  1       21 0.25907105E-01 0.45494856E+03</pdfrwt>
<totfact> 0.67471387E+04</totfact>
</mgrwt>
</event>
<event>
 7    0  0.4714446E-002  0.4319270E+03  0.7546771E-02  0.1033253E+00
         21   -1    0    0  502  501  0.00000000000E+00  0.00000000000E+00  0.10767968825E+03  0.10767968825E+03  0.00000000000E+00 0. -1.
         21   -1    0    0  501  502 -0.00000000000E+00 -0.00000000000E+00 -0.43313866455E+03  0.43313866455E+03  0.00000000000E+00 0. -1.
      99926    2    1    2    0    0  0.00000000000E+00  0.71054273576E-14 -0.32545897630E+03  0.54081835281E+03  0.43192701407E+03 0.  0.
      99925    2    3    3    0    0  0.81364559144E+02  0.32061725603E+02 -0.23493710311E+03  0.36336451836E+03  0.26304027268E+03 0.  0.
         25    1    3    3    0    0 -0.81364559144E+02 -0.32061725603E+02 -0.90521873186E+02  0.17745383444E+03  0.12509000000E+03 0.  0.
         25    1    4    4    0    0  0.48727698448E+01 -0.53751461376E+01 -0.94872558434E+02  0.15716534773E+03  0.12509000000E+03 0.  0.
         25    1    4    4    0    0  0.76491789299E+02  0.37436871740E+02 -0.14006454468E+03  0.20619917064E+03  0.12509000000E+03 0.  0.
<mgrwt>
<rscale>  2 0.43192701E+03</rscale>
<asrwt>0</asrwt>
<pdfrwt beam="1">  1       21 0.15835248E-01 0.43192701E+03</pdfrwt>
<pdfrwt beam="2">  1       21 0.63696863E-01 0.43192701E+03</pdfrwt>
<totfact> 0.75315779E+04</totfact>
</mgrwt>
</event>
<event>
 7    0  0.4714446E-002  0.4545727E+03  0.7546771E-02  0.1026367E+00
         21   -1    0    0  502  501  0.00000000000E+00  0.00000000000E+00  0.14595516396E+04  0.14595516396E+04  0.00000000000E+00 0.  1.
         21   -1    0    0  501  502 -0.00000000000E+00 -0.00000000000E+00 -0.35393807613E+02  0.35393807613E+02  0.00000000000E+00 0.  1.
      99926    2    1    2    0    0  0.00000000000E+00  0.00000000000E+00  0.14241578320E+04  0.14949454472E+04  0.45457272217E+03 0.  0.
      99925    2    3    3    0    0  0.90098206781E+02 -0.64776868760E+02  0.96242578544E+03  0.10038673266E+04  0.26300663003E+03 0.  0.
         25    1    4    4    0    0  0.31691006878E+02 -0.52247601253E+02  0.36700341374E+03  0.39252152240E+03  0.12509000000E+03 0.  0.
         25    1    3    3    0    0 -0.90098206781E+02  0.64776868760E+02  0.46173204656E+03  0.49107812058E+03  0.12509000000E+03 0.  0.
         25    1    4    4    0    0  0.58407199903E+02 -0.12529267506E+02  0.59542237170E+03  0.61134580425E+03  0.12509000000E+03 0.  0.
<mgrwt>
<rscale>  2 0.45457272E+03</rscale>
<asrwt>0</asrwt>
<pdfrwt beam="1">  1       21 0.21463991E+00 0.45457272E+03</pdfrwt>
<pdfrwt beam="2">  1       21 0.52049727E-02 0.45457272E+03</pdfrwt>
<totfact> 0.23982776E+04</totfact>
</mgrwt>
</event>
<event>
 7    0  0.4714446E-002  0.4396927E+03  0.7546771E-02  0.1030841E+00
         21   -1    0    0  502  501  0.00000000000E+00  0.00000000000E+00  0.98895617623E+03  0.98895617623E+03  0.00000000000E+00 0.  1.
         21   -1    0    0  501  502 -0.00000000000E+00 -0.00000000000E+00 -0.48872156300E+02  0.48872156300E+02  0.00000000000E+00 0.  1.
      99926    2    1    2    0    0  0.35527136788E-14  0.00000000000E+00  0.94008401993E+03  0.10378283325E+04  0.43969271460E+03 0.  0.
      99925    2    3    3    0    0  0.18817424588E+02 -0.35115395382E+02  0.81172518648E+03  0.85422363574E+03  0.26308374146E+03 0.  0.
         25    1    4    4    0    0 -0.25319585907E+02  0.13308309872E+01  0.42555259489E+03  0.44428073519E+03  0.12509000000E+03 0.  0.
         25    1    4    4    0    0  0.44137010495E+02 -0.36446226370E+02  0.38617259159E+03  0.40994290054E+03  0.12509000000E+03 0.  0.
         25    1    3    3    0    0 -0.18817424588E+02  0.35115395382E+02  0.12835883345E+03  0.18360469679E+03  0.12509000000E+03 0.  0.
<mgrwt>
<rscale>  2 0.43969271E+03</rscale>
<asrwt>0</asrwt>
<pdfrwt beam="1">  1       21 0.14543472E+00 0.43969271E+03</pdfrwt>
<pdfrwt beam="2">  1       21 0.71870824E-02 0.43969271E+03</pdfrwt>
<totfact> 0.42593688E+04</totfact>
</mgrwt>
</event>
<event>
 7    0  0.4714446E-002  0.4550971E+03  0.7546771E-02  0.1026213E+00
         21   -1    0    0  502  501  0.00000000000E+00  0.00000000000E+00  0.91390547966E+02  0.91390547966E+02  0.00000000000E+00 0. -1.
         21   -1    0    0  501  502 -0.00000000000E+00 -0.00000000000E+00 -0.56656119651E+03  0.56656119651E+03  0.00000000000E+00 0. -1.
      99926    2    1    2    0    0  0.00000000000E+00 -0.71054273576E-14 -0.47517064854E+03  0.65795174447E+03  0.45509708065E+03 0.  0.
      99925    2    3    3    0    0 -0.72579019416E+02 -0.57031959413E+02 -0.20407467687E+03  0.34544431671E+03  0.26299228839E+03 0.  0.
         25    1    3    3    0    0  0.72579019416E+02  0.57031959413E+02 -0.27109597166E+03  0.31250742776E+03  0.12509000000E+03 0.  0.
         25    1    4    4    0    0 -0.59864214535E+02 -0.95102892538E+01 -0.70156743984E+02  0.15570371418E+03  0.12509000000E+03 0.  0.
         25    1    4    4    0    0 -0.12714804881E+02 -0.47521670159E+02 -0.13391793289E+03  0.18974060253E+03  0.12509000000E+03 0.  0.
<mgrwt>
<rscale>  2 0.45509708E+03</rscale>
<asrwt>0</asrwt>
<pdfrwt beam="1">  1       21 0.13439786E-01 0.45509708E+03</pdfrwt>
<pdfrwt beam="2">  1       21 0.83317824E-01 0.45509708E+03</pdfrwt>
<totfact> 0.55203233E+04</totfact>
</mgrwt>
</event>
<event>
 7    0  0.4714446E-002  0.4557632E+03  0.7546771E-02  0.1026017E+00
         21   -1    0    0  502  501  0.00000000000E+00  0.00000000000E+00  0.10434971584E+04  0.10434971584E+04  0.00000000000E+00 0. -1.
         21   -1    0    0  501  502 -0.00000000000E+00 -0.00000000000E+00 -0.49765371086E+02  0.49765371086E+02  0.00000000000E+00 0. -1.
      99926    2    1    2    0    0 -0.71054273576E-14  0.00000000000E+00  0.99373178727E+03  0.10932625294E+04  0.45576319866E+03 0.  0.
      99925    2    3    3    0    0 -0.59026618893E+02  0.94285847379E+02  0.56581792582E+03  0.63377178560E+03  0.26295016313E+03 0.  0.
         25    1    3    3    0    0  0.59026618893E+02 -0.94285847379E+02  0.42791386144E+03  0.45949074384E+03  0.12509000000E+03 0.  0.
         25    1    4    4    0    0 -0.18865883318E+02  0.65948304316E+02  0.36733954638E+03  0.39406972838E+03  0.12509000000E+03 0.  0.
         25    1    4    4    0    0 -0.40160735575E+02  0.28337543063E+02  0.19847837945E+03  0.23970205722E+03  0.12509000000E+03 0.  0.
<mgrwt>
<rscale>  2 0.45576320E+03</rscale>
<asrwt>0</asrwt>
<pdfrwt beam="1">  1       21 0.15345545E+00 0.45576320E+03</pdfrwt>
<pdfrwt beam="2">  1       21 0.73184376E-02 0.45576320E+03</pdfrwt>
<totfact> 0.35516822E+04</totfact>
</mgrwt>
</event>
<event>
 7    0  0.4714446E-002  0.4546863E+03  0.7546771E-02  0.1026334E+00
         21   -1    0    0  502  501  0.00000000000E+00  0.00000000000E+00  0.14328482213E+03  0.14328482213E+03  0.00000000000E+00 0. -1.
         21   -1    0    0  501  502 -0.00000000000E+00 -0.00000000000E+00 -0.36071443293E+03  0.36071443293E+03  0.00000000000E+00 0. -1.
      99926    2    1    2    0    0  0.00000000000E+00  0.00000000000E+00 -0.21742961081E+03  0.50399925506E+03  0.45468628025E+03 0.  0.
      99925    2    3    3    0    0  0.42040555003E+02  0.48474087673E+02 -0.23980440786E+03  0.36164306417E+03  0.26298746433E+03 0.  0.
         25    1    4    4    0    0 -0.22250090167E+01  0.53659935556E+02 -0.10068402156E+03  0.16931957845E+03  0.12509000000E+03 0.  0.
         25    1    4    4    0    0  0.44265564019E+02 -0.51858478829E+01 -0.13912038630E+03  0.19232348573E+03  0.12509000000E+03 0.  0.
         25    1    3    3    0    0 -0.42040555003E+02 -0.48474087673E+02  0.22374797054E+02  0.14235619089E+03  0.12509000000E+03 0.  0.
<mgrwt>
<rscale>  2 0.45468628E+03</rscale>
<asrwt>0</asrwt>
<pdfrwt beam="1">  1       21 0.21071297E-01 0.45468628E+03</pdfrwt>
<pdfrwt beam="2">  1       21 0.53046240E-01 0.45468628E+03</pdfrwt>
<totfact> 0.65152694E+04</totfact>
</mgrwt>
</event>
<event>
 7    0  0.4714446E-002  0.4522319E+03  0.7546771E-02  0.1027059E+00
         21   -1    0    0  502  501  0.00000000000E+00  0.00000000000E+00  0.19512053984E+02  0.19512053984E+02  0.00000000000E+00 0. -1.
         21   -1    0    0  501  502 -0.00000000000E+00 -0.00000000000E+00 -0.26203510475E+04  0.26203510475E+04  0.00000000000E+00 0. -1.
      99926    2    1    2    0    0  0.71054273576E-14  0.00000000000E+00 -0.26008389935E+04  0.26398631015E+04  0.45223193650E+03 0.  0.
      99925    2    3    3    0    0 -0.59726237971E+02  0.24249080927E+02 -0.21655902388E+04  0.21824308901E+04  0.26280842122E+03 0.  0.
         25    1    3    3    0    0  0.59726237971E+02 -0.24249080927E+02 -0.43524875472E+03  0.45743221139E+03  0.12509000000E+03 0.  0.
         25    1    4    4    0    0 -0.23567553219E+02  0.11370602502E+02 -0.13918693315E+04  0.13977240300E+04  0.12509000000E+03 0.  0.
         25    1    4    4    0    0 -0.36158684753E+02  0.12878478425E+02 -0.77372090734E+03  0.78470686008E+03  0.12509000000E+03 0.  0.
<mgrwt>
<rscale>  2 0.45223194E+03</rscale>
<asrwt>0</asrwt>
<pdfrwt beam="1">  1       21 0.28694209E-02 0.45223194E+03</pdfrwt>
<pdfrwt beam="2">  1       21 0.38534558E+00 0.45223194E+03</pdfrwt>
<totfact> 0.59306889E+03</totfact>
</mgrwt>
</event>
<event>
 7    0  0.4714446E-002  0.4500232E+03  0.7546771E-02  0.1027715E+00
         21   -1    0    0  502  501  0.00000000000E+00  0.00000000000E+00  0.23679995466E+03  0.23679995466E+03  0.00000000000E+00 0. -1.
         21   -1    0    0  501  502 -0.00000000000E+00 -0.00000000000E+00 -0.21381011637E+03  0.21381011637E+03  0.00000000000E+00 0. -1.
      99926    2    1    2    0    0  0.17763568394E-14  0.00000000000E+00  0.22989838292E+02  0.45061007103E+03  0.45002322545E+03 0.  0.
      99925    2    3    3    0    0  0.99301603318E+01  0.54294140571E+02  0.10818829094E+03  0.28951151046E+03  0.26280362746E+03 0.  0.
         25    1    3    3    0    0 -0.99301603318E+01 -0.54294140571E+02 -0.85198452648E+02  0.16109856057E+03  0.12509000000E+03 0.  0.
         25    1    4    4    0    0 -0.18023352336E+02  0.39196732883E+02  0.87923829220E+02  0.15886891748E+03  0.12509000000E+03 0.  0.
         25    1    4    4    0    0  0.27953512668E+02  0.15097407688E+02  0.20264461720E+02  0.13064259297E+03  0.12509000000E+03 0.  0.
<mgrwt>
<rscale>  2 0.45002323E+03</rscale>
<asrwt>0</asrwt>
<pdfrwt beam="1">  1       21 0.34823523E-01 0.45002323E+03</pdfrwt>
<pdfrwt beam="2">  1       21 0.31442664E-01 0.45002323E+03</pdfrwt>
<totfact> 0.71672671E+04</totfact>
</mgrwt>
</event>
<event>
 7    0  0.4714446E-002  0.4524288E+03  0.7546771E-02  0.1027000E+00
         21   -1    0    0  502  501  0.00000000000E+00  0.00000000000E+00  0.23982137203E+02  0.23982137203E+02  0.00000000000E+00 0.  1.
         21   -1    0    0  501  502 -0.00000000000E+00 -0.00000000000E+00 -0.21337941850E+04  0.21337941850E+04  0.00000000000E+00 0.  1.
      99926    2    1    2    0    0  0.71054273576E-14  0.00000000000E+00 -0.21098120478E+04  0.21577763222E+04  0.45242875642E+03 0.  0.
      99925    2    3    3    0    0 -0.40888992332E+02 -0.93616586850E+01 -0.84228952993E+03  0.88340573569E+03  0.26304845806E+03 0.  0.
         25    1    4    4    0    0  0.67371280368E+01  0.13983641132E+02 -0.48624318339E+03  0.50231551102E+03  0.12509000000E+03 0.  0.
         25    1    4    4    0    0 -0.47626120369E+02 -0.23345299817E+02 -0.35604634653E+03  0.38109022468E+03  0.12509000000E+03 0.  0.
         25    1    3    3    0    0  0.40888992332E+02  0.93616586850E+01 -0.12675225179E+04  0.12743705865E+04  0.12509000000E+03 0.  0.
<mgrwt>
<rscale>  2 0.45242876E+03</rscale>
<asrwt>0</asrwt>
<pdfrwt beam="1">  1       21 0.35267849E-02 0.45242876E+03</pdfrwt>
<pdfrwt beam="2">  1       21 0.31379326E+00 0.45242876E+03</pdfrwt>
<totfact> 0.11529147E+04</totfact>
</mgrwt>
</event>
<event>
 7    0  0.4714446E-002  0.4562669E+03  0.7546771E-02  0.1025870E+00
         21   -1    0    0  502  501  0.00000000000E+00  0.00000000000E+00  0.19786729309E+03  0.19786729309E+03  0.00000000000E+00 0. -1.
         21   -1    0    0  501  502 -0.00000000000E+00 -0.00000000000E+00 -0.26302914249E+03  0.26302914249E+03  0.00000000000E+00 0. -1.
      99926    2    1    2    0    0  0.00000000000E+00  0.00000000000E+00 -0.65161849400E+02  0.46089643558E+03  0.45626687116E+03 0.  0.
      99925    2    3    3    0    0 -0.85132772177E+02 -0.76233913375E+02 -0.38725921041E+02  0.28941592691E+03  0.26306402898E+03 0.  0.
         25    1    4    4    0    0 -0.34331849775E+02 -0.50352143385E+02  0.18770514857E+02  0.14040603470E+03  0.12509000000E+03 0.  0.
         25    1    4    4    0    0 -0.50800922402E+02 -0.25881769990E+02 -0.57496435898E+02  0.14900989221E+03  0.12509000000E+03 0.  0.
         25    1    3    3    0    0  0.85132772177E+02  0.76233913375E+02 -0.26435928359E+02  0.17148050867E+03  0.12509000000E+03 0.  0.
<mgrwt>
<rscale>  2 0.45626687E+03</rscale>
<asrwt>0</asrwt>
<pdfrwt beam="1">  1       21 0.29098132E-01 0.45626687E+03</pdfrwt>
<pdfrwt beam="2">  1       21 0.38680756E-01 0.45626687E+03</pdfrwt>
<totfact> 0.67431459E+04</totfact>
</mgrwt>
</event>
<event>
 7    0  0.4714446E-002  0.4326025E+03  0.7546771E-02  0.1033041E+00
         21   -1    0    0  502  501  0.00000000000E+00  0.00000000000E+00  0.34907927973E+03  0.34907927973E+03  0.00000000000E+00 0.  1.
         21   -1    0    0  501  502 -0.00000000000E+00 -0.00000000000E+00 -0.13402751082E+03  0.13402751082E+03  0.00000000000E+00 0.  1.
      99926    2    1    2    0    0 -0.14210854715E-13  0.00000000000E+00  0.21505176891E+03  0.48310679054E+03  0.43260248238E+03 0.  0.
      99925    2    3    3    0    0  0.68468295866E+02  0.58850856063E+02  0.12866413242E+03  0.30629711141E+03  0.26289186120E+03 0.  0.
         25    1    4    4    0    0  0.64336236197E+02  0.21376719850E+02  0.95967416681E+02  0.17161983744E+03  0.12509000000E+03 0.  0.
         25    1    3    3    0    0 -0.68468295866E+02 -0.58850856063E+02  0.86387636494E+02  0.17680967914E+03  0.12509000000E+03 0.  0.
         25    1    4    4    0    0  0.41320596688E+01  0.37474136213E+02  0.32696715736E+02  0.13467727396E+03  0.12509000000E+03 0.  0.
<mgrwt>
<rscale>  2 0.43260248E+03</rscale>
<asrwt>0</asrwt>
<pdfrwt beam="1">  1       21 0.51335188E-01 0.43260248E+03</pdfrwt>
<pdfrwt beam="2">  1       21 0.19709928E-01 0.43260248E+03</pdfrwt>
<totfact> 0.79736042E+04</totfact>
</mgrwt>
</event>
<event>
 7    0  0.4714446E-002  0.4460491E+03  0.7546771E-02  0.1028907E+00
         21   -1    0    0  502  501  0.00000000000E+00  0.00000000000E+00  0.92144408832E+03  0.92144408832E+03  0.00000000000E+00 0.  1.
         21   -1    0    0  501  502 -0.00000000000E+00 -0.00000000000E+00 -0.53980427893E+02  0.53980427893E+02  0.00000000000E+00 0.  1.
      99926    2    1    2    0    0  0.00000000000E+00  0.00000000000E+00  0.86746366043E+03  0.97542451621E+03  0.44604908325E+03 0.  0.
      99925    2    3    3    0    0 -0.93245678973E+01  0.93013342895E+02  0.44927336941E+03  0.52902888774E+03  0.26322342995E+03 0.  0.
         25    1    4    4    0    0 -0.18124955577E+02  0.54403861218E+02  0.15771954328E+03  0.20931138661E+03  0.12509000000E+03 0.  0.
         25    1    3    3    0    0  0.93245678973E+01 -0.93013342895E+02  0.41819029102E+03  0.44639562848E+03  0.12509000000E+03 0.  0.
         25    1    4    4    0    0  0.88003876794E+01  0.38609481677E+02  0.29155382613E+03  0.31971750113E+03  0.12509000000E+03 0.  0.
<mgrwt>
<rscale>  2 0.44604908E+03</rscale>
<asrwt>0</asrwt>
<pdfrwt beam="1">  1       21 0.13550647E+00 0.44604908E+03</pdfrwt>
<pdfrwt beam="2">  1       21 0.79382988E-02 0.44604908E+03</pdfrwt>
<totfact> 0.43063219E+04</totfact>
</mgrwt>
</event>
<event>
 7    0  0.4714446E-002  0.4532378E+03  0.7546771E-02  0.1026761E+00
         21   -1    0    0  502  501  0.00000000000E+00  0.00000000000E+00  0.14896253521E+04  0.14896253521E+04  0.00000000000E+00 0.  1.
         21   -1    0    0  501  502 -0.00000000000E+00 -0.00000000000E+00 -0.34475871877E+02  0.34475871877E+02  0.00000000000E+00 0.  1.
      99926    2    1    2    0    0  0.14210854715E-13  0.00000000000E+00  0.14551494802E+04  0.15241012240E+04  0.45323783065E+03 0.  0.
      99925    2    3    3    0    0 -0.94515921191E+02 -0.51330124471E+02  0.81787640392E+03  0.86582125093E+03  0.26297639710E+03 0.  0.
         25    1    4    4    0    0 -0.66215404182E+02  0.99477020690E+01  0.39716858904E+03  0.42175091315E+03  0.12509000000E+03 0.  0.
         25    1    4    4    0    0 -0.28300517009E+02 -0.61277826540E+02  0.42070781489E+03  0.44407033778E+03  0.12509000000E+03 0.  0.
         25    1    3    3    0    0  0.94515921191E+02  0.51330124471E+02  0.63727307631E+03  0.65827997306E+03  0.12509000000E+03 0.  0.
<mgrwt>
<rscale>  2 0.45323783E+03</rscale>
<asrwt>0</asrwt>
<pdfrwt beam="1">  1       21 0.21906251E+00 0.45323783E+03</pdfrwt>
<pdfrwt beam="2">  1       21 0.50699821E-02 0.45323783E+03</pdfrwt>
<totfact> 0.23514770E+04</totfact>
</mgrwt>
</event>
<event>
 7    0  0.4714446E-002  0.4574970E+03  0.7546771E-02  0.1025510E+00
         21   -1    0    0  502  501  0.00000000000E+00  0.00000000000E+00  0.18454716362E+03  0.18454716362E+03  0.00000000000E+00 0. -1.
         21   -1    0    0  501  502 -0.00000000000E+00 -0.00000000000E+00 -0.28353662268E+03  0.28353662268E+03  0.00000000000E+00 0. -1.
      99926    2    1    2    0    0  0.00000000000E+00  0.00000000000E+00 -0.98989459064E+02  0.46808378629E+03  0.45749701418E+03 0.  0.
      99925    2    3    3    0    0  0.88695313739E+02 -0.72883660886E+02 -0.76511249664E+02  0.29681889000E+03  0.26280904747E+03 0.  0.
         25    1    4    4    0    0  0.20579988336E+02 -0.56150857021E+02 -0.10805657077E+02  0.13907093510E+03  0.12509000000E+03 0.  0.
         25    1    3    3    0    0 -0.88695313739E+02  0.72883660886E+02 -0.22478209400E+02  0.17126489629E+03  0.12509000000E+03 0.  0.
         25    1    4    4    0    0  0.68115325403E+02 -0.16732803866E+02 -0.65705592587E+02  0.15774795491E+03  0.12509000000E+03 0.  0.
<mgrwt>
<rscale>  2 0.45749701E+03</rscale>
<asrwt>0</asrwt>
<pdfrwt beam="1">  1       21 0.27139289E-01 0.45749701E+03</pdfrwt>
<pdfrwt beam="2">  1       21 0.41696562E-01 0.45749701E+03</pdfrwt>
<totfact> 0.66256925E+04</totfact>
</mgrwt>
</event>
<event>
 7    0  0.4714446E-002  0.4540454E+03  0.7546771E-02  0.1026523E+00
         21   -1    0    0  502  501  0.00000000000E+00  0.00000000000E+00  0.33268654903E+03  0.33268654903E+03  0.00000000000E+00 0.  1.
         21   -1    0    0  501  502 -0.00000000000E+00 -0.00000000000E+00 -0.15491848211E+03  0.15491848211E+03  0.00000000000E+00 0.  1.
      99926    2    1    2    0    0  0.00000000000E+00  0.00000000000E+00  0.17776806691E+03  0.48760503114E+03  0.45404535102E+03 0.  0.
      99925    2    3    3    0    0 -0.10506147342E+03  0.20123066333E+02  0.75392848248E+02  0.29377251454E+03  0.26301208667E+03 0.  0.
         25    1    3    3    0    0  0.10506147342E+03 -0.20123066333E+02  0.10237521867E+03  0.19383251660E+03  0.12509000000E+03 0.  0.
         25    1    4    4    0    0 -0.34459423392E+02  0.44403260950E+02  0.23541547440E+02  0.13914314212E+03  0.12509000000E+03 0.  0.
         25    1    4    4    0    0 -0.70602050027E+02 -0.24280194617E+02  0.51851300808E+02  0.15462937242E+03  0.12509000000E+03 0.  0.
<mgrwt>
<rscale>  2 0.45404535E+03</rscale>
<asrwt>0</asrwt>
<pdfrwt beam="1">  1       21 0.48924492E-01 0.45404535E+03</pdfrwt>
<pdfrwt beam="2">  1       21 0.22782130E-01 0.45404535E+03</pdfrwt>
<totfact> 0.66654255E+04</totfact>
</mgrwt>
</event>
<event>
 7    0  0.4714446E-002  0.4656659E+03  0.7546771E-02  0.1023151E+00
         21   -1    0    0  502  501  0.00000000000E+00  0.00000000000E+00  0.84647971668E+03  0.84647971668E+03  0.00000000000E+00 0. -1.
         21   -1    0    0  501  502 -0.00000000000E+00 -0.00000000000E+00 -0.64043086002E+02  0.64043086002E+02  0.00000000000E+00 0. -1.
      99926    2    1    2    0    0  0.00000000000E+00  0.35527136788E-14  0.78243663068E+03  0.91052280268E+03  0.46566586001E+03 0.  0.
      99925    2    3    3    0    0 -0.66436907840E+02  0.12344451471E+02  0.68851874058E+03  0.74012818309E+03  0.26299319966E+03 0.  0.
         25    1    4    4    0    0 -0.22274199625E+02 -0.26771652837E+02  0.39189039127E+03  0.41284191676E+03  0.12509000000E+03 0.  0.
         25    1    4    4    0    0 -0.44162708215E+02  0.39116104308E+02  0.29662834931E+03  0.32728626633E+03  0.12509000000E+03 0.  0.
         25    1    3    3    0    0  0.66436907840E+02 -0.12344451471E+02  0.93917890095E+02  0.17039461959E+03  0.12509000000E+03 0.  0.
<mgrwt>
<rscale>  2 0.46566586E+03</rscale>
<asrwt>0</asrwt>
<pdfrwt beam="1">  1       21 0.12448230E+00 0.46566586E+03</pdfrwt>
<pdfrwt beam="2">  1       21 0.94181014E-02 0.46566586E+03</pdfrwt>
<totfact> 0.39388611E+04</totfact>
</mgrwt>
</event>
<event>
 7    0  0.4714446E-002  0.4581347E+03  0.7546771E-02  0.1025324E+00
         21   -1    0    0  502  501  0.00000000000E+00  0.00000000000E+00  0.27540544961E+03  0.27540544961E+03  0.00000000000E+00 0. -1.
         21   -1    0    0  501  502 -0.00000000000E+00 -0.00000000000E+00 -0.19052585069E+03  0.19052585069E+03  0.00000000000E+00 0. -1.
      99926    2    1    2    0    0  0.00000000000E+00  0.14210854715E-13  0.84879598919E+02  0.46593130030E+03  0.45813472940E+03 0.  0.
      99925    2    3    3    0    0  0.18239795365E+02 -0.90265053520E+02 -0.18660130803E+02  0.27925389472E+03  0.26297160914E+03 0.  0.
         25    1    4    4    0    0  0.77129638380E+00 -0.80689091224E+02 -0.30785686789E+02  0.15200852263E+03  0.12509000000E+03 0.  0.
         25    1    4    4    0    0  0.17468498982E+02 -0.95759622965E+01  0.12125555986E+02  0.12724537209E+03  0.12509000000E+03 0.  0.
         25    1    3    3    0    0 -0.18239795365E+02  0.90265053520E+02  0.10353972972E+03  0.18667740558E+03  0.12509000000E+03 0.  0.
<mgrwt>
<rscale>  2 0.45813473E+03</rscale>
<asrwt>0</asrwt>
<pdfrwt beam="1">  1       21 0.40500802E-01 0.45813473E+03</pdfrwt>
<pdfrwt beam="2">  1       21 0.28018507E-01 0.45813473E+03</pdfrwt>
<totfact> 0.66079046E+04</totfact>
</mgrwt>
</event>
<event>
 7    0  0.4714446E-002  0.4140217E+03  0.7546771E-02  0.1039030E+00
         21   -1    0    0  502  501  0.00000000000E+00  0.00000000000E+00  0.12322273120E+03  0.12322273120E+03  0.00000000000E+00 0. -1.
         21   -1    0    0  501  502 -0.00000000000E+00 -0.00000000000E+00 -0.34777262378E+03  0.34777262378E+03  0.00000000000E+00 0. -1.
      99926    2    1    2    0    0  0.35527136788E-14  0.71054273576E-14 -0.22454989258E+03  0.47099535499E+03  0.41402170252E+03 0.  0.
      99925    2    3    3    0    0 -0.26407394117E+02 -0.49557299548E+02 -0.10363685523E+03  0.28818193342E+03  0.26297329253E+03 0.  0.
         25    1    4    4    0    0 -0.18692840529E+02 -0.63105799980E+02 -0.39595131879E+02  0.14678912373E+03  0.12509000000E+03 0.  0.
         25    1    3    3    0    0  0.26407394117E+02  0.49557299548E+02 -0.12091303736E+03  0.18281342157E+03  0.12509000000E+03 0.  0.
         25    1    4    4    0    0 -0.77145535877E+01  0.13548500432E+02 -0.64041723347E+02  0.14139280968E+03  0.12509000000E+03 0.  0.
<mgrwt>
<rscale>  2 0.41402170E+03</rscale>
<asrwt>0</asrwt>
<pdfrwt beam="1">  1       21 0.18120990E-01 0.41402170E+03</pdfrwt>
<pdfrwt beam="2">  1       21 0.51143033E-01 0.41402170E+03</pdfrwt>
<totfact> 0.94576285E+04</totfact>
</mgrwt>
</event>
<event>
 7    0  0.4714446E-002  0.4583851E+03  0.7546771E-02  0.1025251E+00
         21   -1    0    0  502  501  0.00000000000E+00  0.00000000000E+00  0.62054578966E+03  0.62054578966E+03  0.00000000000E+00 0.  1.
         21   -1    0    0  501  502 -0.00000000000E+00 -0.00000000000E+00 -0.84650021229E+02  0.84650021229E+02  0.00000000000E+00 0.  1.
      99926    2    1    2    0    0 -0.71054273576E-14  0.00000000000E+00  0.53589576843E+03  0.70519581089E+03  0.45838505328E+03 0.  0.
      99925    2    3    3    0    0 -0.36739299205E+02 -0.10663287597E+03  0.29119297505E+03  0.40813132036E+03  0.26278789850E+03 0.  0.
         25    1    4    4    0    0 -0.46661651087E+02 -0.78991536898E+02  0.18503855841E+03  0.24146169216E+03  0.12509000000E+03 0.  0.
         25    1    4    4    0    0  0.99223518827E+01 -0.27641339069E+02  0.10615441664E+03  0.16666962820E+03  0.12509000000E+03 0.  0.
         25    1    3    3    0    0  0.36739299205E+02  0.10663287597E+03  0.24470279339E+03  0.29706449053E+03  0.12509000000E+03 0.  0.
<mgrwt>
<rscale>  2 0.45838505E+03</rscale>
<asrwt>0</asrwt>
<pdfrwt beam="1">  1       21 0.91256731E-01 0.45838505E+03</pdfrwt>
<pdfrwt beam="2">  1       21 0.12448533E-01 0.45838505E+03</pdfrwt>
<totfact> 0.51243141E+04</totfact>
</mgrwt>
</event>
<event>
 7    0  0.4714446E-002  0.4538544E+03  0.7546771E-02  0.1026579E+00
         21   -1    0    0  502  501  0.00000000000E+00  0.00000000000E+00  0.86542055699E+03  0.86542055699E+03  0.00000000000E+00 0.  1.
         21   -1    0    0  501  502 -0.00000000000E+00 -0.00000000000E+00 -0.59503967326E+02  0.59503967326E+02  0.00000000000E+00 0.  1.
      99926    2    1    2    0    0  0.00000000000E+00  0.00000000000E+00  0.80591658967E+03  0.92492452432E+03  0.45385441078E+03 0.  0.
      99925    2    3    3    0    0  0.72568276309E+02 -0.84178209798E+02  0.47835036216E+03  0.55709403723E+03  0.26302580026E+03 0.  0.
         25    1    4    4    0    0  0.38128220510E+01 -0.27625826312E+02  0.26359592813E+03  0.29310074261E+03  0.12509000000E+03 0.  0.
         25    1    4    4    0    0  0.68755454258E+02 -0.56552383486E+02  0.21475443404E+03  0.26399329462E+03  0.12509000000E+03 0.  0.
         25    1    3    3    0    0 -0.72568276309E+02  0.84178209798E+02  0.32756622750E+03  0.36783048709E+03  0.12509000000E+03 0.  0.
<mgrwt>
<rscale>  2 0.45385441E+03</rscale>
<asrwt>0</asrwt>
<pdfrwt beam="1">  1       21 0.12726772E+00 0.45385441E+03</pdfrwt>
<pdfrwt beam="2">  1       21 0.87505839E-02 0.45385441E+03</pdfrwt>
<totfact> 0.42553306E+04</totfact>
</mgrwt>
</event>
<event>
 7    0  0.4714446E-002  0.4531767E+03  0.7546771E-02  0.1026779E+00
         21   -1    0    0  502  501  0.00000000000E+00  0.00000000000E+00  0.11375853504E+03  0.11375853504E+03  0.00000000000E+00 0. -1.
         21   -1    0    0  501  502 -0.00000000000E+00 -0.00000000000E+00 -0.45132677367E+03  0.45132677367E+03  0.00000000000E+00 0. -1.
      99926    2    1    2    0    0  0.14210854715E-13  0.00000000000E+00 -0.33756823864E+03  0.56508530871E+03  0.45317666575E+03 0.  0.
      99925    2    3    3    0    0 -0.79081891378E+02 -0.48600968963E+02 -0.13554369059E+03  0.30998253365E+03  0.26287084163E+03 0.  0.
         25    1    4    4    0    0 -0.57368831214E+02 -0.48326059495E+02 -0.40461538240E+02  0.15136457643E+03  0.12509000000E+03 0.  0.
         25    1    4    4    0    0 -0.21713060163E+02 -0.27490946859E+00 -0.95082152345E+02  0.15861795722E+03  0.12509000000E+03 0.  0.
         25    1    3    3    0    0  0.79081891378E+02  0.48600968963E+02 -0.20202454805E+03  0.25510277506E+03  0.12509000000E+03 0.  0.
<mgrwt>
<rscale>  2 0.45317667E+03</rscale>
<asrwt>0</asrwt>
<pdfrwt beam="1">  1       21 0.16729196E-01 0.45317667E+03</pdfrwt>
<pdfrwt beam="2">  1       21 0.66371584E-01 0.45317667E+03</pdfrwt>
<totfact> 0.61766422E+04</totfact>
</mgrwt>
</event>
<event>
 7    0  0.4714446E-002  0.4277148E+03  0.7546771E-02  0.1034584E+00
         21   -1    0    0  502  501  0.00000000000E+00  0.00000000000E+00  0.33012977993E+03  0.33012977993E+03  0.00000000000E+00 0.  1.
         21   -1    0    0  501  502 -0.00000000000E+00 -0.00000000000E+00 -0.13853642022E+03  0.13853642022E+03  0.00000000000E+00 0.  1.
      99926    2    1    2    0    0  0.00000000000E+00  0.00000000000E+00  0.19159335971E+03  0.46866620015E+03  0.42771484856E+03 0.  0.
      99925    2    3    3    0    0  0.71485346860E+02 -0.46678888959E+02  0.12313554963E+03  0.30246435494E+03  0.26274179138E+03 0.  0.
         25    1    4    4    0    0  0.49421619688E+01 -0.32071632997E+02  0.86110872973E+02  0.15529199964E+03  0.12509000000E+03 0.  0.
         25    1    4    4    0    0  0.66543184891E+02 -0.14607255961E+02  0.37024676654E+02  0.14717235530E+03  0.12509000000E+03 0.  0.
         25    1    3    3    0    0 -0.71485346860E+02  0.46678888959E+02  0.68457810087E+02  0.16620184521E+03  0.12509000000E+03 0.  0.
<mgrwt>
<rscale>  2 0.42771485E+03</rscale>
<asrwt>0</asrwt>
<pdfrwt beam="1">  1       21 0.48548497E-01 0.42771485E+03</pdfrwt>
<pdfrwt beam="2">  1       21 0.20373003E-01 0.42771485E+03</pdfrwt>
<totfact> 0.84382327E+04</totfact>
</mgrwt>
</event>
<event>
 7    0  0.4714446E-002  0.4544946E+03  0.7546771E-02  0.1026390E+00
         21   -1    0    0  502  501  0.00000000000E+00  0.00000000000E+00  0.15254992615E+04  0.15254992615E+04  0.00000000000E+00 0.  1.
         21   -1    0    0  501  502 -0.00000000000E+00 -0.00000000000E+00 -0.33852081928E+02  0.33852081928E+02  0.00000000000E+00 0.  1.
      99926    2    1    2    0    0  0.00000000000E+00  0.00000000000E+00  0.14916471796E+04  0.15593513434E+04  0.45449455874E+03 0.  0.
      99925    2    3    3    0    0 -0.39681031095E+02 -0.10406993681E+03  0.99738338366E+03  0.10374803402E+04  0.26303366000E+03 0.  0.
         25    1    3    3    0    0  0.39681031095E+02  0.10406993681E+03  0.49426379593E+03  0.52187100326E+03  0.12509000000E+03 0.  0.
         25    1    4    4    0    0 -0.55617001099E+02 -0.70220094394E+02  0.49141156431E+03  0.51493392402E+03  0.12509000000E+03 0.  0.
         25    1    4    4    0    0  0.15935970005E+02 -0.33849842417E+02  0.50597181935E+03  0.52254641617E+03  0.12509000000E+03 0.  0.
<mgrwt>
<rscale>  2 0.45449456E+03</rscale>
<asrwt>0</asrwt>
<pdfrwt beam="1">  1       21 0.22433808E+00 0.45449456E+03</pdfrwt>
<pdfrwt beam="2">  1       21 0.49782484E-02 0.45449456E+03</pdfrwt>
<totfact> 0.22449311E+04</totfact>
</mgrwt>
</event>
<event>
 7    0  0.4714446E-002  0.4574080E+03  0.7546771E-02  0.1025536E+00
         21   -1    0    0  502  501  0.00000000000E+00  0.00000000000E+00  0.60410792096E+02  0.60410792096E+02  0.00000000000E+00 0. -1.
         21   -1    0    0  501  502 -0.00000000000E+00 -0.00000000000E+00 -0.86583078206E+03  0.86583078206E+03  0.00000000000E+00 0. -1.
      99926    2    1    2    0    0  0.00000000000E+00  0.00000000000E+00 -0.80541998997E+03  0.92624157416E+03  0.45740801639E+03 0.  0.
      99925    2    3    3    0    0  0.82695682679E+02 -0.80925620553E+02 -0.51110197101E+03  0.58615609023E+03  0.26261417583E+03 0.  0.
         25    1    3    3    0    0 -0.82695682679E+02  0.80925620553E+02 -0.29431801895E+03  0.34008548392E+03  0.12509000000E+03 0.  0.
         25    1    4    4    0    0  0.16561269246E+02 -0.26335786886E+02 -0.29714351313E+03  0.32389755295E+03  0.12509000000E+03 0.  0.
         25    1    4    4    0    0  0.66134413432E+02 -0.54589833667E+02 -0.21395845788E+03  0.26225853729E+03  0.12509000000E+03 0.  0.
<mgrwt>
<rscale>  2 0.45740802E+03</rscale>
<asrwt>0</asrwt>
<pdfrwt beam="1">  1       21 0.88839403E-02 0.45740802E+03</pdfrwt>
<pdfrwt beam="2">  1       21 0.12732805E+00 0.45740802E+03</pdfrwt>
<totfact> 0.41334130E+04</totfact>
</mgrwt>
</event>
<event>
 7    0  0.4714446E-002  0.4555583E+03  0.7546771E-02  0.1026077E+00
         21   -1    0    0  502  501  0.00000000000E+00  0.00000000000E+00  0.44084312415E+03  0.44084312415E+03  0.00000000000E+00 0.  1.
         21   -1    0    0  501  502 -0.00000000000E+00 -0.00000000000E+00 -0.11769116700E+03  0.11769116700E+03  0.00000000000E+00 0.  1.
      99926    2    1    2    0    0  0.00000000000E+00  0.00000000000E+00  0.32315195715E+03  0.55853429115E+03  0.45555830250E+03 0.  0.
      99925    2    3    3    0    0 -0.92616189582E+02  0.12200217040E+02  0.12376279025E+03  0.30529497381E+03  0.26298514961E+03 0.  0.
         25    1    4    4    0    0 -0.38384928232E+02  0.42448657084E+02  0.79054792567E+02  0.15865831063E+03  0.12509000000E+03 0.  0.
         25    1    3    3    0    0  0.92616189582E+02 -0.12200217040E+02  0.19938916690E+03  0.25323931734E+03  0.12509000000E+03 0.  0.
         25    1    4    4    0    0 -0.54231261350E+02 -0.30248440044E+02  0.44707997684E+02  0.14663666318E+03  0.12509000000E+03 0.  0.
<mgrwt>
<rscale>  2 0.45555830E+03</rscale>
<asrwt>0</asrwt>
<pdfrwt beam="1">  1       21 0.64829870E-01 0.45555830E+03</pdfrwt>
<pdfrwt beam="2">  1       21 0.17307525E-01 0.45555830E+03</pdfrwt>
<totfact> 0.61036059E+04</totfact>
</mgrwt>
</event>
<event>
 7    0  0.4714446E-002  0.4445162E+03  0.7546771E-02  0.1029370E+00
         21   -1    0    0  502  501  0.00000000000E+00  0.00000000000E+00  0.26247903958E+04  0.26247903958E+04  0.00000000000E+00 0. -1.
         21   -1    0    0  501  502 -0.00000000000E+00 -0.00000000000E+00 -0.18820042311E+02  0.18820042311E+02  0.00000000000E+00 0. -1.
      99926    2    1    2    0    0  0.00000000000E+00  0.00000000000E+00  0.26059703534E+04  0.26436104381E+04  0.44451621481E+03 0.  0.
      99925    2    3    3    0    0  0.94437882458E+02 -0.29527965576E+02  0.14843905901E+04  0.15107472124E+04  0.26296635040E+03 0.  0.
         25    1    3    3    0    0 -0.94437882458E+02  0.29527965576E+02  0.11215797633E+04  0.11328632256E+04  0.12509000000E+03 0.  0.
         25    1    4    4    0    0  0.44650562365E+02  0.42252994706E+01  0.91956146169E+03  0.92911372598E+03  0.12509000000E+03 0.  0.
         25    1    4    4    0    0  0.49787320093E+02 -0.33753265046E+02  0.56482912843E+03  0.58163348646E+03  0.12509000000E+03 0.  0.
<mgrwt>
<rscale>  2 0.44451621E+03</rscale>
<asrwt>0</asrwt>
<pdfrwt beam="1">  1       21 0.38599834E+00 0.44451621E+03</pdfrwt>
<pdfrwt beam="2">  1       21 0.27676551E-02 0.44451621E+03</pdfrwt>
<totfact> 0.62666927E+03</totfact>
</mgrwt>
</event>
<event>
 7    0  0.4714446E-002  0.4521003E+03  0.7546771E-02  0.1027098E+00
         21   -1    0    0  502  501  0.00000000000E+00  0.00000000000E+00  0.28286052420E+02  0.28286052420E+02  0.00000000000E+00 0.  1.
         21   -1    0    0  501  502 -0.00000000000E+00 -0.00000000000E+00 -0.18064974378E+04  0.18064974378E+04  0.00000000000E+00 0.  1.
      99926    2    1    2    0    0 -0.14210854715E-13  0.71054273576E-14 -0.17782113854E+04  0.18347834902E+04  0.45210034825E+03 0.  0.
      99925    2    3    3    0    0  0.88940330144E+02  0.48932681604E+02 -0.12989430745E+04  0.13291646501E+04  0.26290828515E+03 0.  0.
         25    1    4    4    0    0  0.70151768847E+02  0.77631263075E+01 -0.80011867298E+03  0.81290770433E+03  0.12509000000E+03 0.  0.
         25    1    3    3    0    0 -0.88940330144E+02 -0.48932681604E+02 -0.47926831082E+03  0.50561884014E+03  0.12509000000E+03 0.  0.
         25    1    4    4    0    0  0.18788561297E+02  0.41169555297E+02 -0.49882440157E+03  0.51625694573E+03  0.12509000000E+03 0.  0.
<mgrwt>
<rscale>  2 0.45210035E+03</rscale>
<asrwt>0</asrwt>
<pdfrwt beam="1">  1       21 0.41597121E-02 0.45210035E+03</pdfrwt>
<pdfrwt beam="2">  1       21 0.26566148E+00 0.45210035E+03</pdfrwt>
<totfact> 0.16979341E+04</totfact>
</mgrwt>
</event>
<event>
 6    0  0.4714446E-002  0.4522717E+03  0.7546771E-02  0.1027047E+00
         21   -1    0    0  502  501  0.00000000000E+00  0.00000000000E+00  0.62132330672E+02  0.62132330672E+02  0.00000000000E+00 0.  1.
         21   -1    0    0  501  502 -0.00000000000E+00 -0.00000000000E+00 -0.82304043114E+03  0.82304043114E+03  0.00000000000E+00 0.  1.
      99926    2    1    2    0    0  0.00000000000E+00  0.00000000000E+00 -0.76090810047E+03  0.88517276181E+03  0.45227168925E+03 0.  0.
         25    1    3    3    0    0 -0.73568366145E+02 -0.42069187350E+02 -0.18014049565E+03  0.23511747552E+03  0.12509000000E+03 0.  0.
         25    1    3    3    0    0  0.73353530541E+02 -0.20320795208E+02 -0.23233445545E+03  0.27462789816E+03  0.12509000000E+03 0.  0.
         25    1    3    3    0    0  0.21483560355E+00  0.62389982558E+02 -0.34843314938E+03  0.37542738814E+03  0.12509000000E+03 0.  0.
<mgrwt>
<rscale>  2 0.45227169E+03</rscale>
<asrwt>0</asrwt>
<pdfrwt beam="1">  1       21 0.91371078E-02 0.45227169E+03</pdfrwt>
<pdfrwt beam="2">  1       21 0.12103535E+00 0.45227169E+03</pdfrwt>
<totfact> 0.44831207E+04</totfact>
</mgrwt>
</event>
<event>
 7    0  0.4714446E-002  0.4389426E+03  0.7546771E-02  0.1031072E+00
         21   -1    0    0  502  501  0.00000000000E+00  0.00000000000E+00  0.54549885207E+02  0.54549885207E+02  0.00000000000E+00 0.  1.
         21   -1    0    0  501  502 -0.00000000000E+00 -0.00000000000E+00 -0.88300204172E+03  0.88300204172E+03  0.00000000000E+00 0.  1.
      99926    2    1    2    0    0  0.14210854715E-13 -0.71054273576E-14 -0.82845215651E+03  0.93755192693E+03  0.43894263868E+03 0.  0.
      99925    2    3    3    0    0 -0.83677115454E+02  0.41317294962E+02 -0.58857908023E+03  0.65137789012E+03  0.26298069044E+03 0.  0.
         25    1    3    3    0    0  0.83677115454E+02 -0.41317294962E+02 -0.23987307629E+03  0.28617403680E+03  0.12509000000E+03 0.  0.
         25    1    4    4    0    0 -0.17006819578E+02 -0.13299334795E+02 -0.25561589238E+03  0.28539988920E+03  0.12509000000E+03 0.  0.
         25    1    4    4    0    0 -0.66670295876E+02  0.54616629758E+02 -0.33296318784E+03  0.36597800092E+03  0.12509000000E+03 0.  0.
<mgrwt>
<rscale>  2 0.43894264E+03</rscale>
<asrwt>0</asrwt>
<pdfrwt beam="1">  1       21 0.80220425E-02 0.43894264E+03</pdfrwt>
<pdfrwt beam="2">  1       21 0.12985323E+00 0.43894264E+03</pdfrwt>
<totfact> 0.47317521E+04</totfact>
</mgrwt>
</event>
<event>
 7    0  0.4714446E-002  0.4054386E+03  0.7546771E-02  0.1041913E+00
         21   -1    0    0  502  501  0.00000000000E+00  0.00000000000E+00  0.28118067394E+03  0.28118067394E+03  0.00000000000E+00 0.  1.
         21   -1    0    0  501  502 -0.00000000000E+00 -0.00000000000E+00 -0.14615198362E+03  0.14615198362E+03  0.00000000000E+00 0.  1.
      99926    2    1    2    0    0  0.35527136788E-14  0.71054273576E-14  0.13502869033E+03  0.42733265756E+03  0.40543859339E+03 0.  0.
      99925    2    3    3    0    0 -0.29161299404E+02 -0.35963374605E+02  0.58028248219E+02  0.27331862612E+03  0.26304381403E+03 0.  0.
         25    1    4    4    0    0 -0.27665674310E+02 -0.29212098932E+02  0.67416721816E+02  0.14768635258E+03  0.12509000000E+03 0.  0.
         25    1    3    3    0    0  0.29161299404E+02  0.35963374605E+02  0.77000442107E+02  0.15401403144E+03  0.12509000000E+03 0.  0.
         25    1    4    4    0    0 -0.14956250935E+01 -0.67512756736E+01 -0.93884735973E+01  0.12563227354E+03  0.12509000000E+03 0.  0.
<mgrwt>
<rscale>  2 0.40543859E+03</rscale>
<asrwt>0</asrwt>
<pdfrwt beam="1">  1       21 0.41350099E-01 0.40543859E+03</pdfrwt>
<pdfrwt beam="2">  1       21 0.21492939E-01 0.40543859E+03</pdfrwt>
<totfact> 0.10703456E+05</totfact>
</mgrwt>
</event>
<event>
 7    0  0.4714446E-002  0.4571427E+03  0.7546771E-02  0.1025613E+00
         21   -1    0    0  502  501  0.00000000000E+00  0.00000000000E+00  0.14957429367E+03  0.14957429367E+03  0.00000000000E+00 0. -1.
         21   -1    0    0  501  502 -0.00000000000E+00 -0.00000000000E+00 -0.34929037096E+03  0.34929037096E+03  0.00000000000E+00 0. -1.
      99926    2    1    2    0    0  0.14210854715E-13  0.00000000000E+00 -0.19971607729E+03  0.49886466463E+03  0.45714269336E+03 0.  0.
      99925    2    3    3    0    0 -0.81631386144E+02 -0.40328402830E+02 -0.20234156643E+03  0.34412467441E+03  0.26303919623E+03 0.  0.
         25    1    3    3    0    0  0.81631386144E+02  0.40328402830E+02  0.26254891444E+01  0.15473999022E+03  0.12509000000E+03 0.  0.
         25    1    4    4    0    0 -0.53899603027E+02 -0.57309063330E+02 -0.91104402206E+02  0.17360016171E+03  0.12509000000E+03 0.  0.
         25    1    4    4    0    0 -0.27731783117E+02  0.16980660499E+02 -0.11123716423E+03  0.17052451270E+03  0.12509000000E+03 0.  0.
<mgrwt>
<rscale>  2 0.45714269E+03</rscale>
<asrwt>0</asrwt>
<pdfrwt beam="1">  1       21 0.21996220E-01 0.45714269E+03</pdfrwt>
<pdfrwt beam="2">  1       21 0.51366231E-01 0.45714269E+03</pdfrwt>
<totfact> 0.64250656E+04</totfact>
</mgrwt>
</event>
<event>
 7    0  0.4714446E-002  0.4511863E+03  0.7546771E-02  0.1027369E+00
         21   -1    0    0  502  501  0.00000000000E+00  0.00000000000E+00  0.73573873447E+02  0.73573873447E+02  0.00000000000E+00 0.  1.
         21   -1    0    0  501  502 -0.00000000000E+00 -0.00000000000E+00 -0.69171646728E+03  0.69171646728E+03  0.00000000000E+00 0.  1.
      99926    2    1    2    0    0  0.35527136788E-14  0.00000000000E+00 -0.61814259383E+03  0.76529034073E+03  0.45118625788E+03 0.  0.
      99925    2    3    3    0    0  0.14988545084E+02  0.64900717210E+02 -0.24274293633E+03  0.36403086042E+03  0.26297827786E+03 0.  0.
         25    1    4    4    0    0 -0.19003633158E+02  0.29434480500E+02 -0.78374560250E+02  0.15171554472E+03  0.12509000000E+03 0.  0.
         25    1    3    3    0    0 -0.14988545084E+02 -0.64900717210E+02 -0.37539965751E+03  0.40125948030E+03  0.12509000000E+03 0.  0.
         25    1    4    4    0    0  0.33992178241E+02  0.35466236710E+02 -0.16436837608E+03  0.21231531570E+03  0.12509000000E+03 0.  0.
<mgrwt>
<rscale>  2 0.45118626E+03</rscale>
<asrwt>0</asrwt>
<pdfrwt beam="1">  1       21 0.10819688E-01 0.45118626E+03</pdfrwt>
<pdfrwt beam="2">  1       21 0.10172301E+00 0.45118626E+03</pdfrwt>
<totfact> 0.50999195E+04</totfact>
</mgrwt>
</event>
<event>
 7    0  0.4714446E-002  0.4531690E+03  0.7546771E-02  0.1026781E+00
         21   -1    0    0  502  501  0.00000000000E+00  0.00000000000E+00  0.69483150996E+02  0.69483150996E+02  0.00000000000E+00 0. -1.
         21   -1    0    0  501  502 -0.00000000000E+00 -0.00000000000E+00 -0.73889179756E+03  0.73889179756E+03  0.00000000000E+00 0. -1.
      99926    2    1    2    0    0  0.00000000000E+00  0.00000000000E+00 -0.66940864656E+03  0.80837494856E+03  0.45316897661E+03 0.  0.
      99925    2    3    3    0    0  0.11674272571E+02  0.11062393638E+03 -0.43178246032E+03  0.51770734385E+03  0.26307956380E+03 0.  0.
         25    1    4    4    0    0 -0.29078399798E+02  0.37012139397E+02 -0.17913023847E+03  0.22349631369E+03  0.12509000000E+03 0.  0.
         25    1    4    4    0    0  0.40752672369E+02  0.73611796982E+02 -0.25265222185E+03  0.29421103016E+03  0.12509000000E+03 0.  0.
         25    1    3    3    0    0 -0.11674272571E+02 -0.11062393638E+03 -0.23762618624E+03  0.29066760471E+03  0.12509000000E+03 0.  0.
<mgrwt>
<rscale>  2 0.45316898E+03</rscale>
<asrwt>0</asrwt>
<pdfrwt beam="1">  1       21 0.10218111E-01 0.45316898E+03</pdfrwt>
<pdfrwt beam="2">  1       21 0.10866056E+00 0.45316898E+03</pdfrwt>
<totfact> 0.48049077E+04</totfact>
</mgrwt>
</event>
<event>
 7    0  0.4714446E-002  0.4555293E+03  0.7546771E-02  0.1026086E+00
         21   -1    0    0  502  501  0.00000000000E+00  0.00000000000E+00  0.70434004369E+02  0.70434004369E+02  0.00000000000E+00 0.  1.
         21   -1    0    0  501  502 -0.00000000000E+00 -0.00000000000E+00 -0.73652978140E+03  0.73652978140E+03  0.00000000000E+00 0.  1.
      99926    2    1    2    0    0 -0.14210854715E-13  0.00000000000E+00 -0.66609577703E+03  0.80696378577E+03  0.45552932657E+03 0.  0.
      99925    2    3    3    0    0 -0.92086081890E+02 -0.59650447220E+02 -0.36625103583E+03  0.46404630407E+03  0.26298503520E+03 0.  0.
         25    1    4    4    0    0 -0.14482899243E+02 -0.42806020045E+02 -0.21114850818E+03  0.24954620880E+03  0.12509000000E+03 0.  0.
         25    1    4    4    0    0 -0.77603182647E+02 -0.16844427175E+02 -0.15510252766E+03  0.21450009527E+03  0.12509000000E+03 0.  0.
         25    1    3    3    0    0  0.92086081890E+02  0.59650447220E+02 -0.29984474120E+03  0.34291748170E+03  0.12509000000E+03 0.  0.
<mgrwt>
<rscale>  2 0.45552933E+03</rscale>
<asrwt>0</asrwt>
<pdfrwt beam="1">  1       21 0.10357942E-01 0.45552933E+03</pdfrwt>
<pdfrwt beam="2">  1       21 0.10831320E+00 0.45552933E+03</pdfrwt>
<totfact> 0.47233316E+04</totfact>
</mgrwt>
</event>
<event>
 7    0  0.4714446E-002  0.4473694E+03  0.7546771E-02  0.1028509E+00
         21   -1    0    0  502  501  0.00000000000E+00  0.00000000000E+00  0.48203752165E+02  0.48203752165E+02  0.00000000000E+00 0.  1.
         21   -1    0    0  501  502 -0.00000000000E+00 -0.00000000000E+00 -0.10379865480E+04  0.10379865480E+04  0.00000000000E+00 0.  1.
      99926    2    1    2    0    0  0.00000000000E+00 -0.71054273576E-14 -0.98978279586E+03  0.10861903002E+04  0.44736940580E+03 0.  0.
      99925    2    3    3    0    0  0.58806606471E+02  0.48357166282E+02 -0.80531027869E+03  0.85066057768E+03  0.26325299800E+03 0.  0.
         25    1    3    3    0    0 -0.58806606471E+02 -0.48357166282E+02 -0.18447251717E+03  0.23552972251E+03  0.12509000000E+03 0.  0.
         25    1    4    4    0    0  0.61230073226E+02  0.41959159889E+02 -0.49766800842E+03  0.51848881152E+03  0.12509000000E+03 0.  0.
         25    1    4    4    0    0 -0.24234667551E+01  0.63980063934E+01 -0.30764227027E+03  0.33217176616E+03  0.12509000000E+03 0.  0.
<mgrwt>
<rscale>  2 0.44736941E+03</rscale>
<asrwt>0</asrwt>
<pdfrwt beam="1">  1       21 0.70887879E-02 0.44736941E+03</pdfrwt>
<pdfrwt beam="2">  1       21 0.15264506E+00 0.44736941E+03</pdfrwt>
<totfact> 0.38200917E+04</totfact>
</mgrwt>
</event>
<event>
 7    0  0.4714446E-002  0.4470860E+03  0.7546771E-02  0.1028595E+00
         21   -1    0    0  502  501  0.00000000000E+00  0.00000000000E+00  0.16495911388E+03  0.16495911388E+03  0.00000000000E+00 0.  1.
         21   -1    0    0  501  502 -0.00000000000E+00 -0.00000000000E+00 -0.30293252868E+03  0.30293252868E+03  0.00000000000E+00 0.  1.
      99926    2    1    2    0    0  0.00000000000E+00  0.00000000000E+00 -0.13797341480E+03  0.46789164256E+03  0.44708603868E+03 0.  0.
      99925    2    3    3    0    0 -0.66727062095E+02 -0.38555325260E+02 -0.16311595417E+03  0.31883236137E+03  0.26288447317E+03 0.  0.
         25    1    3    3    0    0  0.66727062095E+02  0.38555325260E+02  0.25142539372E+02  0.14905928119E+03  0.12509000000E+03 0.  0.
         25    1    4    4    0    0 -0.53200524809E+02 -0.84174420638E+01 -0.12263101090E+03  0.18326762427E+03  0.12509000000E+03 0.  0.
         25    1    4    4    0    0 -0.13526537286E+02 -0.30137883196E+02 -0.40484943273E+02  0.13556473710E+03  0.12509000000E+03 0.  0.
<mgrwt>
<rscale>  2 0.44708604E+03</rscale>
<asrwt>0</asrwt>
<pdfrwt beam="1">  1       21 0.24258693E-01 0.44708604E+03</pdfrwt>
<pdfrwt beam="2">  1       21 0.44548901E-01 0.44708604E+03</pdfrwt>
<totfact> 0.72009395E+04</totfact>
</mgrwt>
</event>
<event>
 7    0  0.4714446E-002  0.4293482E+03  0.7546771E-02  0.1034066E+00
         21   -1    0    0  502  501  0.00000000000E+00  0.00000000000E+00  0.23972103814E+03  0.23972103814E+03  0.00000000000E+00 0. -1.
         21   -1    0    0  501  502 -0.00000000000E+00 -0.00000000000E+00 -0.19224411785E+03  0.19224411785E+03  0.00000000000E+00 0. -1.
      99926    2    1    2    0    0  0.00000000000E+00  0.00000000000E+00  0.47476920290E+02  0.43196515599E+03  0.42934815480E+03 0.  0.
      99925    2    3    3    0    0 -0.34388680778E+02 -0.52032701083E+02 -0.30122250283E+02  0.27209294852E+03  0.26312970058E+03 0.  0.
         25    1    4    4    0    0  0.18851417997E+02 -0.23133332990E+02 -0.34118322565E+02  0.13304922056E+03  0.12509000000E+03 0.  0.
         25    1    4    4    0    0 -0.53240098775E+02 -0.28899368093E+02  0.39960722821E+01  0.13904372797E+03  0.12509000000E+03 0.  0.
         25    1    3    3    0    0  0.34388680778E+02  0.52032701083E+02  0.77599170574E+02  0.15987220747E+03  0.12509000000E+03 0.  0.
<mgrwt>
<rscale>  2 0.42934815E+03</rscale>
<asrwt>0</asrwt>
<pdfrwt beam="1">  1       21 0.35253094E-01 0.42934815E+03</pdfrwt>
<pdfrwt beam="2">  1       21 0.28271194E-01 0.42934815E+03</pdfrwt>
<totfact> 0.86698204E+04</totfact>
</mgrwt>
</event>
<event>
 7    0  0.4714446E-002  0.4500160E+03  0.7546771E-02  0.1027717E+00
         21   -1    0    0  502  501  0.00000000000E+00  0.00000000000E+00  0.96440373850E+03  0.96440373850E+03  0.00000000000E+00 0.  1.
         21   -1    0    0  501  502 -0.00000000000E+00 -0.00000000000E+00 -0.52497307589E+02  0.52497307589E+02  0.00000000000E+00 0.  1.
      99926    2    1    2    0    0  0.00000000000E+00 -0.14210854715E-13  0.91190643091E+03  0.10169010461E+04  0.45001599838E+03 0.  0.
      99925    2    3    3    0    0 -0.22629478000E+02  0.63436141762E+02  0.38435384864E+03  0.47055365430E+03  0.26297646901E+03 0.  0.
         25    1    4    4    0    0 -0.25827181706E+02 -0.46557259842E+01  0.20385828508E+03  0.24061260897E+03  0.12509000000E+03 0.  0.
         25    1    4    4    0    0  0.31977037065E+01  0.68091867746E+02  0.18049556356E+03  0.22994104533E+03  0.12509000000E+03 0.  0.
         25    1    3    3    0    0  0.22629478000E+02 -0.63436141762E+02  0.52755258226E+03  0.54634739178E+03  0.12509000000E+03 0.  0.
<mgrwt>
<rscale>  2 0.45001600E+03</rscale>
<asrwt>0</asrwt>
<pdfrwt beam="1">  1       21 0.14182407E+00 0.45001600E+03</pdfrwt>
<pdfrwt beam="2">  1       21 0.77201929E-02 0.45001600E+03</pdfrwt>
<totfact> 0.40051854E+04</totfact>
</mgrwt>
</event>
<event>
 7    0  0.4714446E-002  0.4549014E+03  0.7546771E-02  0.1026270E+00
         21   -1    0    0  502  501  0.00000000000E+00  0.00000000000E+00  0.76776658584E+03  0.76776658584E+03  0.00000000000E+00 0.  1.
         21   -1    0    0  501  502 -0.00000000000E+00 -0.00000000000E+00 -0.67382236483E+02  0.67382236483E+02  0.00000000000E+00 0.  1.
      99926    2    1    2    0    0  0.00000000000E+00  0.00000000000E+00  0.70038434936E+03  0.83514882232E+03  0.45490143834E+03 0.  0.
      99925    2    3    3    0    0 -0.41896694992E+02  0.10155677773E+03  0.49025655486E+03  0.56706243648E+03  0.26294334966E+03 0.  0.
         25    1    4    4    0    0 -0.39154445807E+02  0.73396034488E+02  0.20358699979E+03  0.25301229830E+03  0.12509000000E+03 0.  0.
         25    1    3    3    0    0  0.41896694992E+02 -0.10155677773E+03  0.21012779450E+03  0.26808638584E+03  0.12509000000E+03 0.  0.
         25    1    4    4    0    0 -0.27422491855E+01  0.28160743241E+02  0.28666955507E+03  0.31405013818E+03  0.12509000000E+03 0.  0.
<mgrwt>
<rscale>  2 0.45490144E+03</rscale>
<asrwt>0</asrwt>
<pdfrwt beam="1">  1       21 0.11290685E+00 0.45490144E+03</pdfrwt>
<pdfrwt beam="2">  1       21 0.99091529E-02 0.45490144E+03</pdfrwt>
<totfact> 0.46146882E+04</totfact>
</mgrwt>
</event>
<event>
 7    0  0.4714446E-002  0.4617516E+03  0.7546771E-02  0.1024274E+00
         21   -1    0    0  502  501  0.00000000000E+00  0.00000000000E+00  0.26986679771E+02  0.26986679771E+02  0.00000000000E+00 0. -1.
         21   -1    0    0  501  502 -0.00000000000E+00 -0.00000000000E+00 -0.19751829150E+04  0.19751829150E+04  0.00000000000E+00 0. -1.
      99926    2    1    2    0    0  0.00000000000E+00  0.00000000000E+00 -0.19481962353E+04  0.20021695948E+04  0.46175157311E+03 0.  0.
      99925    2    3    3    0    0  0.80296481164E+02 -0.32771358404E+02 -0.86356821247E+03  0.90691303001E+03  0.26309636938E+03 0.  0.
         25    1    4    4    0    0 -0.11599912926E+01 -0.15817492610E+02 -0.42627600607E+03  0.44453377836E+03  0.12509000000E+03 0.  0.
         25    1    3    3    0    0 -0.80296481164E+02  0.32771358404E+02 -0.10846280228E+04  0.10952565648E+04  0.12509000000E+03 0.  0.
         25    1    4    4    0    0  0.81456472457E+02 -0.16953865793E+02 -0.43729220641E+03  0.46237925165E+03  0.12509000000E+03 0.  0.
<mgrwt>
<rscale>  2 0.46175157E+03</rscale>
<asrwt>0</asrwt>
<pdfrwt beam="1">  1       21 0.39686299E-02 0.46175157E+03</pdfrwt>
<pdfrwt beam="2">  1       21 0.29046804E+00 0.46175157E+03</pdfrwt>
<totfact> 0.12980585E+04</totfact>
</mgrwt>
</event>
<event>
 7    0  0.4714446E-002  0.4441806E+03  0.7546771E-02  0.1029472E+00
         21   -1    0    0  502  501  0.00000000000E+00  0.00000000000E+00  0.34208342501E+03  0.34208342501E+03  0.00000000000E+00 0. -1.
         21   -1    0    0  501  502 -0.00000000000E+00 -0.00000000000E+00 -0.14418737707E+03  0.14418737707E+03  0.00000000000E+00 0. -1.
      99926    2    1    2    0    0  0.00000000000E+00 -0.35527136788E-14  0.19789604794E+03  0.48627080209E+03  0.44418064700E+03 0.  0.
      99925    2    3    3    0    0 -0.66038984605E+02  0.21231947272E+02  0.42476185541E+02  0.27504868014E+03  0.26274627882E+03 0.  0.
         25    1    4    4    0    0 -0.23854153602E+02 -0.24138664127E+02  0.39236202753E+02  0.13542039527E+03  0.12509000000E+03 0.  0.
         25    1    3    3    0    0  0.66038984605E+02 -0.21231947272E+02  0.15541986240E+03  0.21122212195E+03  0.12509000000E+03 0.  0.
         25    1    4    4    0    0 -0.42184831003E+02  0.45370611399E+02  0.32399827885E+01  0.13962828486E+03  0.12509000000E+03 0.  0.
<mgrwt>
<rscale>  2 0.44418065E+03</rscale>
<asrwt>0</asrwt>
<pdfrwt beam="1">  1       21 0.50306386E-01 0.44418065E+03</pdfrwt>
<pdfrwt beam="2">  1       21 0.21204026E-01 0.44418065E+03</pdfrwt>
<totfact> 0.72255906E+04</totfact>
</mgrwt>
</event>
<event>
 7    0  0.4714446E-002  0.4594410E+03  0.7546771E-02  0.1024943E+00
         21   -1    0    0  502  501  0.00000000000E+00  0.00000000000E+00  0.72763097017E+03  0.72763097017E+03  0.00000000000E+00 0. -1.
         21   -1    0    0  501  502 -0.00000000000E+00 -0.00000000000E+00 -0.72525106668E+02  0.72525106668E+02  0.00000000000E+00 0. -1.
      99926    2    1    2    0    0 -0.35527136788E-14  0.00000000000E+00  0.65510586351E+03  0.80015607684E+03  0.45944102441E+03 0.  0.
      99925    2    3    3    0    0  0.88800010951E+01  0.90512276441E+02  0.28137831976E+03  0.39569209617E+03  0.26292042434E+03 0.  0.
         25    1    3    3    0    0 -0.88800010951E+01 -0.90512276441E+02  0.37372754374E+03  0.40446398067E+03  0.12509000000E+03 0.  0.
         25    1    4    4    0    0 -0.35943552634E+02  0.46063316051E+02  0.14244176850E+03  0.19837069737E+03  0.12509000000E+03 0.  0.
         25    1    4    4    0    0  0.44823553729E+02  0.44448960390E+02  0.13893655126E+03  0.19732139880E+03  0.12509000000E+03 0.  0.
<mgrwt>
<rscale>  2 0.45944102E+03</rscale>
<asrwt>0</asrwt>
<pdfrwt beam="1">  1       21 0.10700455E+00 0.45944102E+03</pdfrwt>
<pdfrwt beam="2">  1       21 0.10665457E-01 0.45944102E+03</pdfrwt>
<totfact> 0.46128451E+04</totfact>
</mgrwt>
</event>
<event>
 7    0  0.4714446E-002  0.4565097E+03  0.7546771E-02  0.1025798E+00
         21   -1    0    0  502  501  0.00000000000E+00  0.00000000000E+00  0.13456320928E+04  0.13456320928E+04  0.00000000000E+00 0. -1.
         21   -1    0    0  501  502 -0.00000000000E+00 -0.00000000000E+00 -0.38718076981E+02  0.38718076981E+02  0.00000000000E+00 0. -1.
      99926    2    1    2    0    0  0.00000000000E+00  0.00000000000E+00  0.13069140158E+04  0.13843501698E+04  0.45650974560E+03 0.  0.
      99925    2    3    3    0    0  0.72886800168E+02 -0.89114857603E+02  0.81492069250E+03  0.86381306085E+03  0.26234200111E+03 0.  0.
         25    1    4    4    0    0  0.19630828601E+02 -0.74009642726E+01  0.39882578849E+03  0.41850885459E+03  0.12509000000E+03 0.  0.
         25    1    4    4    0    0  0.53255971567E+02 -0.81713893330E+02  0.41609490402E+03  0.44530420627E+03  0.12509000000E+03 0.  0.
         25    1    3    3    0    0 -0.72886800168E+02  0.89114857603E+02  0.49199332331E+03  0.52053710893E+03  0.12509000000E+03 0.  0.
<mgrwt>
<rscale>  2 0.45650975E+03</rscale>
<asrwt>0</asrwt>
<pdfrwt beam="1">  1       21 0.19788704E+00 0.45650975E+03</pdfrwt>
<pdfrwt beam="2">  1       21 0.56938358E-02 0.45650975E+03</pdfrwt>
<totfact> 0.26440450E+04</totfact>
</mgrwt>
</event>
<event>
 7    0  0.4714446E-002  0.4508466E+03  0.7546771E-02  0.1027470E+00
         21   -1    0    0  502  501  0.00000000000E+00  0.00000000000E+00  0.41873274615E+03  0.41873274615E+03  0.00000000000E+00 0. -1.
         21   -1    0    0  501  502 -0.00000000000E+00 -0.00000000000E+00 -0.12135586055E+03  0.12135586055E+03  0.00000000000E+00 0. -1.
      99926    2    1    2    0    0  0.00000000000E+00  0.71054273576E-14  0.29737688560E+03  0.54008860670E+03  0.45084663800E+03 0.  0.
      99925    2    3    3    0    0  0.82052134241E+02  0.55101028870E+02  0.24348936706E+03  0.37180298976E+03  0.26302417228E+03 0.  0.
         25    1    4    4    0    0  0.32149282740E+02  0.51311467869E+02  0.16556446611E+03  0.21616092074E+03  0.12509000000E+03 0.  0.
         25    1    4    4    0    0  0.49902851501E+02  0.37895610005E+01  0.77924900950E+02  0.15564206902E+03  0.12509000000E+03 0.  0.
         25    1    3    3    0    0 -0.82052134241E+02 -0.55101028870E+02  0.53887518540E+02  0.16828561694E+03  0.12509000000E+03 0.  0.
<mgrwt>
<rscale>  2 0.45084664E+03</rscale>
<asrwt>0</asrwt>
<pdfrwt beam="1">  1       21 0.61578345E-01 0.45084664E+03</pdfrwt>
<pdfrwt beam="2">  1       21 0.17846450E-01 0.45084664E+03</pdfrwt>
<totfact> 0.64624344E+04</totfact>
</mgrwt>
</event>
<event>
 6    0  0.4714446E-002  0.4537669E+03  0.7546771E-02  0.1026605E+00
         21   -1    0    0  502  501  0.00000000000E+00  0.00000000000E+00  0.16404287050E+03  0.16404287050E+03  0.00000000000E+00 0.  1.
         21   -1    0    0  501  502 -0.00000000000E+00 -0.00000000000E+00 -0.31379657275E+03  0.31379657275E+03  0.00000000000E+00 0.  1.
      99926    2    1    2    0    0  0.00000000000E+00  0.00000000000E+00 -0.14975370226E+03  0.47783944325E+03  0.45376685884E+03 0.  0.
         25    1    3    3    0    0  0.10515088966E+03  0.24827264434E+02 -0.93024328413E+02  0.18966849088E+03  0.12509000000E+03 0.  0.
         25    1    3    3    0    0 -0.90801547394E+02 -0.11244337573E+02 -0.19698579379E+02  0.15622707277E+03  0.12509000000E+03 0.  0.
         25    1    3    3    0    0 -0.14349342263E+02 -0.13582926861E+02 -0.37030794464E+02  0.13194387960E+03  0.12509000000E+03 0.  0.
<mgrwt>
<rscale>  2 0.45376686E+03</rscale>
<asrwt>0</asrwt>
<pdfrwt beam="1">  1       21 0.24123952E-01 0.45376686E+03</pdfrwt>
<pdfrwt beam="2">  1       21 0.46146555E-01 0.45376686E+03</pdfrwt>
<totfact> 0.67516104E+04</totfact>
</mgrwt>
</event>
<event>
 7    0  0.4714446E-002  0.4572316E+03  0.7546771E-02  0.1025587E+00
         21   -1    0    0  502  501  0.00000000000E+00  0.00000000000E+00  0.46681999509E+02  0.46681999509E+02  0.00000000000E+00 0.  1.
         21   -1    0    0  501  502 -0.00000000000E+00 -0.00000000000E+00 -0.11196006147E+04  0.11196006147E+04  0.00000000000E+00 0.  1.
      99926    2    1    2    0    0  0.00000000000E+00 -0.35527136788E-14 -0.10729186152E+04  0.11662826142E+04  0.45723164958E+03 0.  0.
      99925    2    3    3    0    0 -0.57164521248E+02 -0.25128769975E+02 -0.42665926124E+03  0.50507319334E+03  0.26298587008E+03 0.  0.
         25    1    4    4    0    0  0.98228327753E+01  0.21962174433E+01 -0.18649514881E+03  0.22478714386E+03  0.12509000000E+03 0.  0.
         25    1    4    4    0    0 -0.66987354024E+02 -0.27324987419E+02 -0.24016411243E+03  0.28028604948E+03  0.12509000000E+03 0.  0.
         25    1    3    3    0    0  0.57164521248E+02  0.25128769975E+02 -0.64625935392E+03  0.66120942084E+03  0.12509000000E+03 0.  0.
<mgrwt>
<rscale>  2 0.45723165E+03</rscale>
<asrwt>0</asrwt>
<pdfrwt beam="1">  1       21 0.68649997E-02 0.45723165E+03</pdfrwt>
<pdfrwt beam="2">  1       21 0.16464715E+00 0.45723165E+03</pdfrwt>
<totfact> 0.32671486E+04</totfact>
</mgrwt>
</event>
<event>
 7    0  0.4714446E-002  0.4812230E+03  0.7546771E-02  0.1018800E+00
         21   -1    0    0  502  501  0.00000000000E+00  0.00000000000E+00  0.11764896292E+03  0.11764896292E+03  0.00000000000E+00 0. -1.
         21   -1    0    0  501  502 -0.00000000000E+00 -0.00000000000E+00 -0.49209015205E+03  0.49209015205E+03  0.00000000000E+00 0. -1.
      99926    2    1    2    0    0 -0.71054273576E-14  0.00000000000E+00 -0.37444118913E+03  0.60973911496E+03  0.48122300880E+03 0.  0.
      99925    2    3    3    0    0  0.42007552192E+02  0.10321768763E+03 -0.32992530337E+03  0.43639639759E+03  0.26300681464E+03 0.  0.
         25    1    3    3    0    0 -0.42007552192E+02 -0.10321768763E+03 -0.44515885761E+02  0.17334271737E+03  0.12509000000E+03 0.  0.
         25    1    4    4    0    0  0.19520060763E+02  0.22293288567E+02 -0.19833181527E+03  0.23634940350E+03  0.12509000000E+03 0.  0.
         25    1    4    4    0    0  0.22487491429E+02  0.80924399061E+02 -0.13159348810E+03  0.20004699409E+03  0.12509000000E+03 0.  0.
<mgrwt>
<rscale>  2 0.48122301E+03</rscale>
<asrwt>0</asrwt>
<pdfrwt beam="1">  1       21 0.17301318E-01 0.48122301E+03</pdfrwt>
<pdfrwt beam="2">  1       21 0.72366199E-01 0.48122301E+03</pdfrwt>
<totfact> 0.47459606E+04</totfact>
</mgrwt>
</event>
<event>
 7    0  0.4714446E-002  0.4644071E+03  0.7546771E-02  0.1023511E+00
         21   -1    0    0  502  501  0.00000000000E+00  0.00000000000E+00  0.32265474433E+02  0.32265474433E+02  0.00000000000E+00 0. -1.
         21   -1    0    0  501  502 -0.00000000000E+00 -0.00000000000E+00 -0.16710894674E+04  0.16710894674E+04  0.00000000000E+00 0. -1.
      99926    2    1    2    0    0  0.00000000000E+00 -0.88817841970E-15 -0.16388239929E+04  0.17033549418E+04  0.46440712520E+03 0.  0.
      99925    2    3    3    0    0  0.11914652009E+03 -0.42645245968E+01 -0.93284267790E+03  0.97653226418E+03  0.26306980416E+03 0.  0.
         25    1    3    3    0    0 -0.11914652009E+03  0.42645245968E+01 -0.70598131503E+03  0.72682267761E+03  0.12509000000E+03 0.  0.
         25    1    4    4    0    0  0.91655817459E+02  0.24894906950E+02 -0.48192535740E+03  0.50687286717E+03  0.12509000000E+03 0.  0.
         25    1    4    4    0    0  0.27490702628E+02 -0.29159431547E+02 -0.45091732050E+03  0.46965939702E+03  0.12509000000E+03 0.  0.
<mgrwt>
<rscale>  2 0.46440713E+03</rscale>
<asrwt>0</asrwt>
<pdfrwt beam="1">  1       21 0.47449213E-02 0.46440713E+03</pdfrwt>
<pdfrwt beam="2">  1       21 0.24574852E+00 0.46440713E+03</pdfrwt>
<totfact> 0.17852084E+04</totfact>
</mgrwt>
</event>
<event>
 7    0  0.4714446E-002  0.4578159E+03  0.7546771E-02  0.1025417E+00
         21   -1    0    0  502  501  0.00000000000E+00  0.00000000000E+00  0.17521824457E+03  0.17521824457E+03  0.00000000000E+00 0.  1.
         21   -1    0    0  501  502 -0.00000000000E+00 -0.00000000000E+00 -0.29904898748E+03  0.29904898748E+03  0.00000000000E+00 0.  1.
      99926    2    1    2    0    0  0.00000000000E+00  0.14210854715E-13 -0.12383074291E+03  0.47426723205E+03  0.45781585218E+03 0.  0.
      99925    2    3    3    0    0  0.30098343228E+02 -0.10453744125E+03 -0.36204096074E+02  0.28675743438E+03  0.26284045105E+03 0.  0.
         25    1    3    3    0    0 -0.30098343228E+02  0.10453744125E+03 -0.87626646840E+02  0.18750979767E+03  0.12509000000E+03 0.  0.
         25    1    4    4    0    0  0.34144999960E+02 -0.56988382472E+02 -0.54233890899E+02  0.15166535458E+03  0.12509000000E+03 0.  0.
         25    1    4    4    0    0 -0.40466567318E+01 -0.47549058774E+02  0.18029794825E+02  0.13509207979E+03  0.12509000000E+03 0.  0.
<mgrwt>
<rscale>  2 0.45781585E+03</rscale>
<asrwt>0</asrwt>
<pdfrwt beam="1">  1       21 0.25767389E-01 0.45781585E+03</pdfrwt>
<pdfrwt beam="2">  1       21 0.43977792E-01 0.45781585E+03</pdfrwt>
<totfact> 0.65640955E+04</totfact>
</mgrwt>
</event>
<event>
 7    0  0.4714446E-002  0.3899661E+03  0.7546771E-02  0.1047311E+00
         21   -1    0    0  502  501  0.00000000000E+00  0.00000000000E+00  0.35714447955E+03  0.35714447955E+03  0.00000000000E+00 0.  1.
         21   -1    0    0  501  502 -0.00000000000E+00 -0.00000000000E+00 -0.10645102668E+03  0.10645102668E+03  0.00000000000E+00 0.  1.
      99926    2    1    2    0    0  0.00000000000E+00  0.00000000000E+00  0.25069345286E+03  0.46359550623E+03  0.38996613454E+03 0.  0.
      99925    2    3    3    0    0  0.14922844758E+02  0.11792574640E+02  0.17542312416E+03  0.31637157272E+03  0.26259463709E+03 0.  0.
         25    1    3    3    0    0 -0.14922844758E+02 -0.11792574640E+02  0.75270328706E+02  0.14722393350E+03  0.12509000000E+03 0.  0.
         25    1    4    4    0    0  0.13554104028E-01 -0.28236301414E+02  0.10967452563E+03  0.16874032883E+03  0.12509000000E+03 0.  0.
         25    1    4    4    0    0  0.14909290654E+02  0.40028876054E+02  0.65748598531E+02  0.14763124390E+03  0.12509000000E+03 0.  0.
<mgrwt>
<rscale>  2 0.38996613E+03</rscale>
<asrwt>0</asrwt>
<pdfrwt beam="1">  1       21 0.52521247E-01 0.38996613E+03</pdfrwt>
<pdfrwt beam="2">  1       21 0.15654563E-01 0.38996613E+03</pdfrwt>
<totfact> 0.11803855E+05</totfact>
</mgrwt>
</event>
<event>
 7    0  0.4714446E-002  0.4526686E+03  0.7546771E-02  0.1026929E+00
         21   -1    0    0  502  501  0.00000000000E+00  0.00000000000E+00  0.22122793701E+03  0.22122793701E+03  0.00000000000E+00 0. -1.
         21   -1    0    0  501  502 -0.00000000000E+00 -0.00000000000E+00 -0.23155850112E+03  0.23155850112E+03  0.00000000000E+00 0. -1.
      99926    2    1    2    0    0  0.00000000000E+00  0.00000000000E+00 -0.10330564110E+02  0.45278643813E+03  0.45266857412E+03 0.  0.
      99925    2    3    3    0    0 -0.52969147738E+02 -0.86239962659E+02  0.39522574891E+02  0.28433494559E+03  0.26275704669E+03 0.  0.
         25    1    3    3    0    0  0.52969147738E+02  0.86239962659E+02 -0.49853139001E+02  0.16845149254E+03  0.12509000000E+03 0.  0.
         25    1    4    4    0    0 -0.48301513552E+02 -0.64643082283E+02 -0.70837744047E+01  0.14902836058E+03  0.12509000000E+03 0.  0.
         25    1    4    4    0    0 -0.46676341856E+01 -0.21596880376E+02  0.46606349295E+02  0.13530658500E+03  0.12509000000E+03 0.  0.
<mgrwt>
<rscale>  2 0.45266857E+03</rscale>
<asrwt>0</asrwt>
<pdfrwt beam="1">  1       21 0.32533521E-01 0.45266857E+03</pdfrwt>
<pdfrwt beam="2">  1       21 0.34052720E-01 0.45266857E+03</pdfrwt>
<totfact> 0.70001419E+04</totfact>
</mgrwt>
</event>
<event>
 7    0  0.4714446E-002  0.4544136E+03  0.7546771E-02  0.1026414E+00
         21   -1    0    0  502  501  0.00000000000E+00  0.00000000000E+00  0.90764738562E+02  0.90764738562E+02  0.00000000000E+00 0.  1.
         21   -1    0    0  501  502 -0.00000000000E+00 -0.00000000000E+00 -0.56875530125E+03  0.56875530125E+03  0.00000000000E+00 0.  1.
      99926    2    1    2    0    0 -0.71054273576E-14  0.00000000000E+00 -0.47799056269E+03  0.65952003982E+03  0.45441358353E+03 0.  0.
      99925    2    3    3    0    0 -0.61129423240E+02  0.91478192928E+02 -0.33546141903E+03  0.44027786536E+03  0.26306875318E+03 0.  0.
         25    1    4    4    0    0  0.62884549768E+01  0.32696369643E+02 -0.17895767170E+03  0.22086637049E+03  0.12509000000E+03 0.  0.
         25    1    4    4    0    0 -0.67417878217E+02  0.58781823285E+02 -0.15650374733E+03  0.21941149487E+03  0.12509000000E+03 0.  0.
         25    1    3    3    0    0  0.61129423240E+02 -0.91478192928E+02 -0.14252914366E+03  0.21924217445E+03  0.12509000000E+03 0.  0.
<mgrwt>
<rscale>  2 0.45441358E+03</rscale>
<asrwt>0</asrwt>
<pdfrwt beam="1">  1       21 0.13347755E-01 0.45441358E+03</pdfrwt>
<pdfrwt beam="2">  1       21 0.83640488E-01 0.45441358E+03</pdfrwt>
<totfact> 0.55411772E+04</totfact>
</mgrwt>
</event>
<event>
 7    0  0.4714446E-002  0.4486520E+03  0.7546771E-02  0.1028125E+00
         21   -1    0    0  502  501  0.00000000000E+00  0.00000000000E+00  0.44839088157E+02  0.44839088157E+02  0.00000000000E+00 0.  1.
         21   -1    0    0  501  502 -0.00000000000E+00 -0.00000000000E+00 -0.11222829336E+04  0.11222829336E+04  0.00000000000E+00 0.  1.
      99926    2    1    2    0    0  0.00000000000E+00  0.00000000000E+00 -0.10774438454E+04  0.11671220217E+04  0.44865195149E+03 0.  0.
      99925    2    3    3    0    0  0.57416306196E+02 -0.89731095583E+02 -0.64955498237E+03  0.70877205832E+03  0.26284568441E+03 0.  0.
         25    1    3    3    0    0 -0.57416306196E+02  0.89731095583E+02 -0.42788886303E+03  0.45834996339E+03  0.12509000000E+03 0.  0.
         25    1    4    4    0    0  0.35969851068E+02 -0.64170496162E+02 -0.25354887504E+03  0.29214075871E+03  0.12509000000E+03 0.  0.
         25    1    4    4    0    0  0.21446455128E+02 -0.25560599421E+02 -0.39600610733E+03  0.41663129962E+03  0.12509000000E+03 0.  0.
<mgrwt>
<rscale>  2 0.44865195E+03</rscale>
<asrwt>0</asrwt>
<pdfrwt beam="1">  1       21 0.65939829E-02 0.44865195E+03</pdfrwt>
<pdfrwt beam="2">  1       21 0.16504162E+00 0.44865195E+03</pdfrwt>
<totfact> 0.34911020E+04</totfact>
</mgrwt>
</event>
<event>
 7    0  0.4714446E-002  0.4484015E+03  0.7546771E-02  0.1028200E+00
         21   -1    0    0  502  501  0.00000000000E+00  0.00000000000E+00  0.15488779870E+04  0.15488779870E+04  0.00000000000E+00 0. -1.
         21   -1    0    0  501  502 -0.00000000000E+00 -0.00000000000E+00 -0.32453147919E+02  0.32453147919E+02  0.00000000000E+00 0. -1.
      99926    2    1    2    0    0  0.00000000000E+00  0.00000000000E+00  0.15164248391E+04  0.15813311349E+04  0.44840145593E+03 0.  0.
      99925    2    3    3    0    0 -0.36137558367E+02 -0.81914078912E+02  0.75481705386E+03  0.80434351208E+03  0.26306626763E+03 0.  0.
         25    1    4    4    0    0 -0.15202373872E+02 -0.61576784108E+01  0.41624535679E+03  0.43494451867E+03  0.12509000000E+03 0.  0.
         25    1    3    3    0    0  0.36137558367E+02  0.81914078912E+02  0.76160778523E+03  0.77698762286E+03  0.12509000000E+03 0.  0.
         25    1    4    4    0    0 -0.20935184495E+02 -0.75756400502E+02  0.33857169707E+03  0.36939899340E+03  0.12509000000E+03 0.  0.
<mgrwt>
<rscale>  2 0.44840146E+03</rscale>
<asrwt>0</asrwt>
<pdfrwt beam="1">  1       21 0.22777613E+00 0.44840146E+03</pdfrwt>
<pdfrwt beam="2">  1       21 0.47725228E-02 0.44840146E+03</pdfrwt>
<totfact> 0.23011112E+04</totfact>
</mgrwt>
</event>
<event>
 7    0  0.4714446E-002  0.4525676E+03  0.7546771E-02  0.1026959E+00
         21   -1    0    0  502  501  0.00000000000E+00  0.00000000000E+00  0.45974307281E+03  0.45974307281E+03  0.00000000000E+00 0. -1.
         21   -1    0    0  501  502 -0.00000000000E+00 -0.00000000000E+00 -0.11137602402E+03  0.11137602402E+03  0.00000000000E+00 0. -1.
      99926    2    1    2    0    0  0.14210854715E-13  0.35527136788E-14  0.34836704880E+03  0.57111909683E+03  0.45256758841E+03 0.  0.
      99925    2    3    3    0    0  0.10758493709E+03  0.22891324460E+02  0.23774487432E+03  0.37116083866E+03  0.26294336171E+03 0.  0.
         25    1    4    4    0    0  0.90082317164E+02 -0.95784459050E+01  0.13507454351E+03  0.20518092235E+03  0.12509000000E+03 0.  0.
         25    1    4    4    0    0  0.17502619923E+02  0.32469770365E+02  0.10267033081E+03  0.16597991631E+03  0.12509000000E+03 0.  0.
         25    1    3    3    0    0 -0.10758493709E+03 -0.22891324460E+02  0.11062217448E+03  0.19995825817E+03  0.12509000000E+03 0.  0.
<mgrwt>
<rscale>  2 0.45256759E+03</rscale>
<asrwt>0</asrwt>
<pdfrwt beam="1">  1       21 0.67609275E-01 0.45256759E+03</pdfrwt>
<pdfrwt beam="2">  1       21 0.16378827E-01 0.45256759E+03</pdfrwt>
<totfact> 0.61669787E+04</totfact>
</mgrwt>
</event>
<event>
 7    0  0.4714446E-002  0.4527088E+03  0.7546771E-02  0.1026917E+00
         21   -1    0    0  502  501  0.00000000000E+00  0.00000000000E+00  0.96344999663E+03  0.96344999663E+03  0.00000000000E+00 0.  1.
         21   -1    0    0  501  502 -0.00000000000E+00 -0.00000000000E+00 -0.53180035427E+02  0.53180035427E+02  0.00000000000E+00 0.  1.
      99926    2    1    2    0    0  0.71054273576E-14 -0.14210854715E-13  0.91026996121E+03  0.10166300321E+04  0.45270875827E+03 0.  0.
      99925    2    3    3    0    0  0.34668815254E+02 -0.87329810268E+02  0.44096126818E+03  0.52193155828E+03  0.26293970598E+03 0.  0.
         25    1    4    4    0    0  0.51055657066E+02 -0.21423308953E+02  0.20945296805E+03  0.25016732842E+03  0.12509000000E+03 0.  0.
         25    1    3    3    0    0 -0.34668815254E+02  0.87329810268E+02  0.46930869303E+03  0.49469847378E+03  0.12509000000E+03 0.  0.
         25    1    4    4    0    0 -0.16386841812E+02 -0.65906501314E+02  0.23150830013E+03  0.27176422986E+03  0.12509000000E+03 0.  0.
<mgrwt>
<rscale>  2 0.45270876E+03</rscale>
<asrwt>0</asrwt>
<pdfrwt beam="1">  1       21 0.14168381E+00 0.45270876E+03</pdfrwt>
<pdfrwt beam="2">  1       21 0.78205941E-02 0.45270876E+03</pdfrwt>
<totfact> 0.39223141E+04</totfact>
</mgrwt>
</event>
<event>
 7    0  0.4714446E-002  0.4575010E+03  0.7546771E-02  0.1025508E+00
         21   -1    0    0  502  501  0.00000000000E+00  0.00000000000E+00  0.24066171361E+03  0.24066171361E+03  0.00000000000E+00 0. -1.
         21   -1    0    0  501  502 -0.00000000000E+00 -0.00000000000E+00 -0.21742884243E+03  0.21742884243E+03  0.00000000000E+00 0. -1.
      99926    2    1    2    0    0  0.00000000000E+00  0.00000000000E+00  0.23232871179E+02  0.45809055604E+03  0.45750102866E+03 0.  0.
      99925    2    3    3    0    0 -0.47312950165E+02  0.83159946867E+02 -0.50188457164E+02  0.28433126399E+03  0.26300436201E+03 0.  0.
         25    1    3    3    0    0  0.47312950165E+02 -0.83159946867E+02  0.73421328344E+02  0.17375929205E+03  0.12509000000E+03 0.  0.
         25    1    4    4    0    0 -0.11844578804E+01  0.75650506738E+02 -0.21739229520E+02  0.14779886437E+03  0.12509000000E+03 0.  0.
         25    1    4    4    0    0 -0.46128492285E+02  0.75094401298E+01 -0.28449227644E+02  0.13653239962E+03  0.12509000000E+03 0.  0.
<mgrwt>
<rscale>  2 0.45750103E+03</rscale>
<asrwt>0</asrwt>
<pdfrwt beam="1">  1       21 0.35391429E-01 0.45750103E+03</pdfrwt>
<pdfrwt beam="2">  1       21 0.31974830E-01 0.45750103E+03</pdfrwt>
<totfact> 0.66973508E+04</totfact>
</mgrwt>
</event>
<event>
 6    0  0.4714446E-002  0.4526183E+03  0.7546771E-02  0.1026944E+00
         21   -1    0    0  502  501  0.00000000000E+00  0.00000000000E+00  0.11036058924E+03  0.11036058924E+03  0.00000000000E+00 0. -1.
         21   -1    0    0  501  502 -0.00000000000E+00 -0.00000000000E+00 -0.46407721625E+03  0.46407721625E+03  0.00000000000E+00 0. -1.
      99926    2    1    2    0    0 -0.71054273576E-14  0.14210854715E-13 -0.35371662700E+03  0.57443780549E+03  0.45261831620E+03 0.  0.
         25    1    3    3    0    0 -0.64207043351E+01 -0.52253443405E+01 -0.13862824971E+03  0.18690593726E+03  0.12509000000E+03 0.  0.
         25    1    3    3    0    0  0.40474174536E+02 -0.91855352244E+02 -0.10505455626E+03  0.19172775603E+03  0.12509000000E+03 0.  0.
         25    1    3    3    0    0 -0.34053470201E+02  0.97080696585E+02 -0.11003382104E+03  0.19580411220E+03  0.12509000000E+03 0.  0.
<mgrwt>
<rscale>  2 0.45261832E+03</rscale>
<asrwt>0</asrwt>
<pdfrwt beam="1">  1       21 0.16229499E-01 0.45261832E+03</pdfrwt>
<pdfrwt beam="2">  1       21 0.68246648E-01 0.45261832E+03</pdfrwt>
<totfact> 0.61428588E+04</totfact>
</mgrwt>
</event>
<event>
 7    0  0.4714446E-002  0.4515609E+03  0.7546771E-02  0.1027258E+00
         21   -1    0    0  502  501  0.00000000000E+00  0.00000000000E+00  0.73386890224E+03  0.73386890224E+03  0.00000000000E+00 0. -1.
         21   -1    0    0  501  502 -0.00000000000E+00 -0.00000000000E+00 -0.69463112545E+02  0.69463112545E+02  0.00000000000E+00 0. -1.
      99926    2    1    2    0    0  0.00000000000E+00 -0.17763568394E-14  0.66440578970E+03  0.80333201479E+03  0.45156092900E+03 0.  0.
      99925    2    3    3    0    0 -0.10875420460E+03  0.13925564019E+02  0.40106628541E+03  0.49185713463E+03  0.26276962770E+03 0.  0.
         25    1    3    3    0    0  0.10875420460E+03 -0.13925564019E+02  0.26333950429E+03  0.31147488016E+03  0.12509000000E+03 0.  0.
         25    1    4    4    0    0 -0.23265359662E+02 -0.18496650278E+02  0.15947043303E+03  0.20484562515E+03  0.12509000000E+03 0.  0.
         25    1    4    4    0    0 -0.85488844934E+02  0.32422214297E+02  0.24159585237E+03  0.28701150948E+03  0.12509000000E+03 0.  0.
<mgrwt>
<rscale>  2 0.45156093E+03</rscale>
<asrwt>0</asrwt>
<pdfrwt beam="1">  1       21 0.10792189E+00 0.45156093E+03</pdfrwt>
<pdfrwt beam="2">  1       21 0.10215164E-01 0.45156093E+03</pdfrwt>
<totfact> 0.48910795E+04</totfact>
</mgrwt>
</event>
<event>
 7    0  0.4714446E-002  0.4495370E+03  0.7546771E-02  0.1027860E+00
         21   -1    0    0  502  501  0.00000000000E+00  0.00000000000E+00  0.43685060167E+03  0.43685060167E+03  0.00000000000E+00 0. -1.
         21   -1    0    0  501  502 -0.00000000000E+00 -0.00000000000E+00 -0.11564795271E+03  0.11564795271E+03  0.00000000000E+00 0. -1.
      99926    2    1    2    0    0  0.00000000000E+00  0.00000000000E+00  0.32120264896E+03  0.55249855438E+03  0.44953699614E+03 0.  0.
      99925    2    3    3    0    0 -0.10260912992E+02 -0.10734372210E+03  0.20775613831E+03  0.35213493521E+03  0.26307496760E+03 0.  0.
         25    1    4    4    0    0 -0.30526042883E+02 -0.31928131788E+02  0.12863436054E+03  0.18478515012E+03  0.12509000000E+03 0.  0.
         25    1    3    3    0    0  0.10260912992E+02  0.10734372210E+03  0.11344651065E+03  0.20036361917E+03  0.12509000000E+03 0.  0.
         25    1    4    4    0    0  0.20265129890E+02 -0.75415590312E+02  0.79121777769E+02  0.16734978509E+03  0.12509000000E+03 0.  0.
<mgrwt>
<rscale>  2 0.44953700E+03</rscale>
<asrwt>0</asrwt>
<pdfrwt beam="1">  1       21 0.64242735E-01 0.44953700E+03</pdfrwt>
<pdfrwt beam="2">  1       21 0.17007052E-01 0.44953700E+03</pdfrwt>
<totfact> 0.64442030E+04</totfact>
</mgrwt>
</event>
<event>
 7    0  0.4714446E-002  0.4556555E+03  0.7546771E-02  0.1026049E+00
         21   -1    0    0  502  501  0.00000000000E+00  0.00000000000E+00  0.46373734386E+03  0.46373734386E+03  0.00000000000E+00 0.  1.
         21   -1    0    0  501  502 -0.00000000000E+00 -0.00000000000E+00 -0.11192860312E+03  0.11192860312E+03  0.00000000000E+00 0.  1.
      99926    2    1    2    0    0  0.71054273576E-14  0.00000000000E+00  0.35180874074E+03  0.57566594698E+03  0.45565545366E+03 0.  0.
      99925    2    3    3    0    0  0.45190974091E+02  0.66429481618E+01  0.89586289273E+02  0.28156651643E+03  0.26299742783E+03 0.  0.
         25    1    3    3    0    0 -0.45190974091E+02 -0.66429481618E+01  0.26222245146E+03  0.29409943055E+03  0.12509000000E+03 0.  0.
         25    1    4    4    0    0  0.30131429386E+02  0.41354292365E+02  0.58286820939E+02  0.14718336227E+03  0.12509000000E+03 0.  0.
         25    1    4    4    0    0  0.15059544705E+02 -0.34711344204E+02  0.31299468333E+02  0.13438315416E+03  0.12509000000E+03 0.  0.
<mgrwt>
<rscale>  2 0.45565545E+03</rscale>
<asrwt>0</asrwt>
<pdfrwt beam="1">  1       21 0.68196668E-01 0.45565545E+03</pdfrwt>
<pdfrwt beam="2">  1       21 0.16460089E-01 0.45565545E+03</pdfrwt>
<totfact> 0.59890679E+04</totfact>
</mgrwt>
</event>
<event>
 7    0  0.4714446E-002  0.4428883E+03  0.7546771E-02  0.1029864E+00
         21   -1    0    0  502  501  0.00000000000E+00  0.00000000000E+00  0.82442971072E+03  0.82442971072E+03  0.00000000000E+00 0.  1.
         21   -1    0    0  501  502 -0.00000000000E+00 -0.00000000000E+00 -0.59480521387E+02  0.59480521387E+02  0.00000000000E+00 0.  1.
      99926    2    1    2    0    0  0.35527136788E-14  0.00000000000E+00  0.76494918934E+03  0.88391023211E+03  0.44288828858E+03 0.  0.
      99925    2    3    3    0    0 -0.30328348296E+02  0.84617026710E+02  0.39352204565E+03  0.48180890024E+03  0.26305962447E+03 0.  0.
         25    1    4    4    0    0 -0.36096918542E+02  0.35655339846E+02  0.13783838691E+03  0.19292801713E+03  0.12509000000E+03 0.  0.
         25    1    3    3    0    0  0.30328348296E+02 -0.84617026710E+02  0.37142714369E+03  0.40210133187E+03  0.12509000000E+03 0.  0.
         25    1    4    4    0    0  0.57685702456E+01  0.48961686864E+02  0.25568365874E+03  0.28888088312E+03  0.12509000000E+03 0.  0.
<mgrwt>
<rscale>  2 0.44288829E+03</rscale>
<asrwt>0</asrwt>
<pdfrwt beam="1">  1       21 0.12123966E+00 0.44288829E+03</pdfrwt>
<pdfrwt beam="2">  1       21 0.87471360E-02 0.44288829E+03</pdfrwt>
<totfact> 0.48362498E+04</totfact>
</mgrwt>
</event>
<event>
 7    0  0.4714446E-002  0.4621978E+03  0.7546771E-02  0.1024146E+00
         21   -1    0    0  502  501  0.00000000000E+00  0.00000000000E+00  0.25623520940E+03  0.25623520940E+03  0.00000000000E+00 0.  1.
         21   -1    0    0  501  502 -0.00000000000E+00 -0.00000000000E+00 -0.20842838285E+03  0.20842838285E+03  0.00000000000E+00 0.  1.
      99926    2    1    2    0    0  0.14210854715E-13  0.00000000000E+00  0.47806826546E+02  0.46466359225E+03  0.46219775129E+03 0.  0.
      99925    2    3    3    0    0  0.73796701759E+02 -0.71828348522E+02 -0.31200404199E+02  0.28440013103E+03  0.26325786686E+03 0.  0.
         25    1    3    3    0    0 -0.73796701759E+02  0.71828348522E+02  0.79007230746E+02  0.18026346122E+03  0.12509000000E+03 0.  0.
         25    1    4    4    0    0  0.33252136111E+02  0.64439632398E+01 -0.17222897586E+02  0.13073394938E+03  0.12509000000E+03 0.  0.
         25    1    4    4    0    0  0.40544565648E+02 -0.78272311762E+02 -0.13977506614E+02  0.15366618165E+03  0.12509000000E+03 0.  0.
<mgrwt>
<rscale>  2 0.46219775E+03</rscale>
<asrwt>0</asrwt>
<pdfrwt beam="1">  1       21 0.37681649E-01 0.46219775E+03</pdfrwt>
<pdfrwt beam="2">  1       21 0.30651233E-01 0.46219775E+03</pdfrwt>
<totfact> 0.64083547E+04</totfact>
</mgrwt>
</event>
<event>
 7    0  0.4714446E-002  0.4347866E+03  0.7546771E-02  0.1032359E+00
         21   -1    0    0  502  501  0.00000000000E+00  0.00000000000E+00  0.76435004033E+03  0.76435004033E+03  0.00000000000E+00 0. -1.
         21   -1    0    0  501  502 -0.00000000000E+00 -0.00000000000E+00 -0.61830107728E+02  0.61830107728E+02  0.00000000000E+00 0. -1.
      99926    2    1    2    0    0  0.17763568394E-14  0.17763568394E-14  0.70251993261E+03  0.82618014806E+03  0.43478659287E+03 0.  0.
      99925    2    3    3    0    0 -0.13045557840E+02 -0.13400909388E+02  0.62379408863E+03  0.67720015759E+03  0.26292816029E+03 0.  0.
         25    1    4    4    0    0 -0.74359884060E+01  0.70192345278E+01  0.21263706212E+03  0.24691413865E+03  0.12509000000E+03 0.  0.
         25    1    4    4    0    0 -0.56095694344E+01 -0.20420143915E+02  0.41115702651E+03  0.43028601894E+03  0.12509000000E+03 0.  0.
         25    1    3    3    0    0  0.13045557840E+02  0.13400909388E+02  0.78725843976E+02  0.14897999047E+03  0.12509000000E+03 0.  0.
<mgrwt>
<rscale>  2 0.43478659E+03</rscale>
<asrwt>0</asrwt>
<pdfrwt beam="1">  1       21 0.11240441E+00 0.43478659E+03</pdfrwt>
<pdfrwt beam="2">  1       21 0.90926633E-02 0.43478659E+03</pdfrwt>
<totfact> 0.54696901E+04</totfact>
</mgrwt>
</event>
<event>
 7    0  0.4714446E-002  0.4552853E+03  0.7546771E-02  0.1026158E+00
         21   -1    0    0  502  501  0.00000000000E+00  0.00000000000E+00  0.21846683012E+03  0.21846683012E+03  0.00000000000E+00 0. -1.
         21   -1    0    0  501  502 -0.00000000000E+00 -0.00000000000E+00 -0.23720389650E+03  0.23720389650E+03  0.00000000000E+00 0. -1.
      99926    2    1    2    0    0  0.00000000000E+00  0.00000000000E+00 -0.18737066386E+02  0.45567072662E+03  0.45528533190E+03 0.  0.
      99925    2    3    3    0    0 -0.69699566980E+02  0.64466771222E+02 -0.73875714895E+02  0.28923223080E+03  0.26302788418E+03 0.  0.
         25    1    3    3    0    0  0.69699566980E+02 -0.64466771222E+02  0.55138648509E+02  0.16643849581E+03  0.12509000000E+03 0.  0.
         25    1    4    4    0    0 -0.56089095334E+02  0.64545407864E+02 -0.58679438685E+02  0.16248963326E+03  0.12509000000E+03 0.  0.
         25    1    4    4    0    0 -0.13610471646E+02 -0.78636642038E-01 -0.15196276210E+02  0.12674259755E+03  0.12509000000E+03 0.  0.
<mgrwt>
<rscale>  2 0.45528533E+03</rscale>
<asrwt>0</asrwt>
<pdfrwt beam="1">  1       21 0.32127475E-01 0.45528533E+03</pdfrwt>
<pdfrwt beam="2">  1       21 0.34882926E-01 0.45528533E+03</pdfrwt>
<totfact> 0.68340983E+04</totfact>
</mgrwt>
</event>
<event>
 7    0  0.4714446E-002  0.4570482E+03  0.7546771E-02  0.1025641E+00
         21   -1    0    0  502  501  0.00000000000E+00  0.00000000000E+00  0.16214991361E+03  0.16214991361E+03  0.00000000000E+00 0. -1.
         21   -1    0    0  501  502 -0.00000000000E+00 -0.00000000000E+00 -0.32206779846E+03  0.32206779846E+03  0.00000000000E+00 0. -1.
      99926    2    1    2    0    0 -0.26645352591E-14  0.00000000000E+00 -0.15991788485E+03  0.48421771207E+03  0.45704820620E+03 0.  0.
      99925    2    3    3    0    0  0.59096374503E+01 -0.10882119339E+03 -0.61515688715E+02  0.29132531655E+03  0.26307657471E+03 0.  0.
         25    1    3    3    0    0 -0.59096374503E+01  0.10882119339E+03 -0.98402196133E+02  0.19289239552E+03  0.12509000000E+03 0.  0.
         25    1    4    4    0    0  0.35884936837E+02 -0.68327705520E+02 -0.52839521259E+02  0.15619195607E+03  0.12509000000E+03 0.  0.
         25    1    4    4    0    0 -0.29975299387E+02 -0.40493487870E+02 -0.86761674562E+01  0.13513336048E+03  0.12509000000E+03 0.  0.
<mgrwt>
<rscale>  2 0.45704821E+03</rscale>
<asrwt>0</asrwt>
<pdfrwt beam="1">  1       21 0.23845576E-01 0.45704821E+03</pdfrwt>
<pdfrwt beam="2">  1       21 0.47362911E-01 0.45704821E+03</pdfrwt>
<totfact> 0.65325746E+04</totfact>
</mgrwt>
</event>
<event>
 7    0  0.4714446E-002  0.4554320E+03  0.7546771E-02  0.1026114E+00
         21   -1    0    0  502  501  0.00000000000E+00  0.00000000000E+00  0.53226348145E+02  0.53226348145E+02  0.00000000000E+00 0. -1.
         21   -1    0    0  501  502 -0.00000000000E+00 -0.00000000000E+00 -0.97422773899E+03  0.97422773899E+03  0.00000000000E+00 0. -1.
      99926    2    1    2    0    0  0.00000000000E+00  0.00000000000E+00 -0.92100139085E+03  0.10274540871E+04  0.45543203580E+03 0.  0.
      99925    2    3    3    0    0 -0.11001744773E+03  0.22651454779E+02 -0.61792255446E+03  0.68086900902E+03  0.26293991124E+03 0.  0.
         25    1    4    4    0    0 -0.44947943237E+02  0.45088628704E+02 -0.35382929134E+03  0.38065204262E+03  0.12509000000E+03 0.  0.
         25    1    4    4    0    0 -0.65069504496E+02 -0.22437173926E+02 -0.26409326313E+03  0.30021696641E+03  0.12509000000E+03 0.  0.
         25    1    3    3    0    0  0.11001744773E+03 -0.22651454779E+02 -0.30307883638E+03  0.34658507812E+03  0.12509000000E+03 0.  0.
<mgrwt>
<rscale>  2 0.45543204E+03</rscale>
<asrwt>0</asrwt>
<pdfrwt beam="1">  1       21 0.78274039E-02 0.45543204E+03</pdfrwt>
<pdfrwt beam="2">  1       21 0.14326879E+00 0.45543204E+03</pdfrwt>
<totfact> 0.37987408E+04</totfact>
</mgrwt>
</event>
<event>
 7    0  0.4714446E-002  0.4294758E+03  0.7546771E-02  0.1034026E+00
         21   -1    0    0  502  501  0.00000000000E+00  0.00000000000E+00  0.89080070211E+02  0.89080070211E+02  0.00000000000E+00 0. -1.
         21   -1    0    0  501  502 -0.00000000000E+00 -0.00000000000E+00 -0.51765081040E+03  0.51765081040E+03  0.00000000000E+00 0. -1.
      99926    2    1    2    0    0  0.00000000000E+00  0.00000000000E+00 -0.42857074019E+03  0.60673088061E+03  0.42947582253E+03 0.  0.
      99925    2    3    3    0    0 -0.66311761434E+02  0.44091200095E+02 -0.32346469088E+03  0.42497259791E+03  0.26387690140E+03 0.  0.
         25    1    3    3    0    0  0.66311761434E+02 -0.44091200095E+02 -0.10510604931E+03  0.18175828270E+03  0.12509000000E+03 0.  0.
         25    1    4    4    0    0 -0.25296487189E+02 -0.12054208338E+02 -0.19055110471E+03  0.22965723984E+03  0.12509000000E+03 0.  0.
         25    1    4    4    0    0 -0.41015274244E+02  0.56145408433E+02 -0.13291358617E+03  0.19531535807E+03  0.12509000000E+03 0.  0.
<mgrwt>
<rscale>  2 0.42947582E+03</rscale>
<asrwt>0</asrwt>
<pdfrwt beam="1">  1       21 0.13100010E-01 0.42947582E+03</pdfrwt>
<pdfrwt beam="2">  1       21 0.76125121E-01 0.42947582E+03</pdfrwt>
<totfact> 0.71655786E+04</totfact>
</mgrwt>
</event>
<event>
 7    0  0.4714446E-002  0.4574639E+03  0.7546771E-02  0.1025519E+00
         21   -1    0    0  502  501  0.00000000000E+00  0.00000000000E+00  0.36562760680E+03  0.36562760680E+03  0.00000000000E+00 0. -1.
         21   -1    0    0  501  502 -0.00000000000E+00 -0.00000000000E+00 -0.14309180725E+03  0.14309180725E+03  0.00000000000E+00 0. -1.
      99926    2    1    2    0    0  0.00000000000E+00  0.00000000000E+00  0.22253579955E+03  0.50871941405E+03  0.45746394410E+03 0.  0.
      99925    2    3    3    0    0  0.93101070973E+02 -0.57865489146E+02  0.99098506175E+02  0.30159506071E+03  0.26291223340E+03 0.  0.
         25    1    3    3    0    0 -0.93101070973E+02  0.57865489146E+02  0.12343729338E+03  0.20712435334E+03  0.12509000000E+03 0.  0.
         25    1    4    4    0    0  0.40572969919E+02 -0.41219621773E+02  0.94649877698E+01  0.13813876067E+03  0.12509000000E+03 0.  0.
         25    1    4    4    0    0  0.52528101054E+02 -0.16645867373E+02  0.89633518405E+02  0.16345630004E+03  0.12509000000E+03 0.  0.
<mgrwt>
<rscale>  2 0.45746394E+03</rscale>
<asrwt>0</asrwt>
<pdfrwt beam="1">  1       21 0.53768765E-01 0.45746394E+03</pdfrwt>
<pdfrwt beam="2">  1       21 0.21042913E-01 0.45746394E+03</pdfrwt>
<totfact> 0.63413127E+04</totfact>
</mgrwt>
</event>
<event>
 7    0  0.4714446E-002  0.4556355E+03  0.7546771E-02  0.1026055E+00
         21   -1    0    0  502  501  0.00000000000E+00  0.00000000000E+00  0.25709931244E+03  0.25709931244E+03  0.00000000000E+00 0.  1.
         21   -1    0    0  501  502 -0.00000000000E+00 -0.00000000000E+00 -0.20187112138E+03  0.20187112138E+03  0.00000000000E+00 0.  1.
      99926    2    1    2    0    0  0.00000000000E+00  0.00000000000E+00  0.55228191062E+02  0.45897043383E+03  0.45563549690E+03 0.  0.
      99925    2    3    3    0    0  0.10190243474E+03  0.82109484281E+01  0.84932341178E+02  0.29471036407E+03  0.26303834366E+03 0.  0.
         25    1    4    4    0    0  0.35451807816E+02 -0.14133516128E+02  0.57598252824E+01  0.13090939860E+03  0.12509000000E+03 0.  0.
         25    1    3    3    0    0 -0.10190243474E+03 -0.82109484281E+01 -0.29704150116E+02  0.16426006975E+03  0.12509000000E+03 0.  0.
         25    1    4    4    0    0  0.66450626928E+02  0.22344464556E+02  0.79172515895E+02  0.16380096547E+03  0.12509000000E+03 0.  0.
<mgrwt>
<rscale>  2 0.45563550E+03</rscale>
<asrwt>0</asrwt>
<pdfrwt beam="1">  1       21 0.37808723E-01 0.45563550E+03</pdfrwt>
<pdfrwt beam="2">  1       21 0.29686929E-01 0.45563550E+03</pdfrwt>
<totfact> 0.67910789E+04</totfact>
</mgrwt>
</event>
<event>
 7    0  0.4714446E-002  0.4417786E+03  0.7546771E-02  0.1030202E+00
         21   -1    0    0  502  501  0.00000000000E+00  0.00000000000E+00  0.33179323720E+03  0.33179323720E+03  0.00000000000E+00 0.  1.
         21   -1    0    0  501  502 -0.00000000000E+00 -0.00000000000E+00 -0.14705571023E+03  0.14705571023E+03  0.00000000000E+00 0.  1.
      99926    2    1    2    0    0  0.00000000000E+00 -0.14210854715E-13  0.18473752697E+03  0.47884894742E+03  0.44177863300E+03 0.  0.
      99925    2    3    3    0    0 -0.54190541874E+02  0.66160776675E+02  0.17452611651E+03  0.32697517022E+03  0.26294397387E+03 0.  0.
         25    1    4    4    0    0 -0.23560316845E+02  0.69468347477E+02  0.11491450698E+03  0.18502376022E+03  0.12509000000E+03 0.  0.
         25    1    4    4    0    0 -0.30630225029E+02 -0.33075708018E+01  0.59611609534E+02  0.14195141000E+03  0.12509000000E+03 0.  0.
         25    1    3    3    0    0  0.54190541874E+02 -0.66160776675E+02  0.10211410457E+02  0.15187377720E+03  0.12509000000E+03 0.  0.
<mgrwt>
<rscale>  2 0.44177863E+03</rscale>
<asrwt>0</asrwt>
<pdfrwt beam="1">  1       21 0.48793123E-01 0.44177863E+03</pdfrwt>
<pdfrwt beam="2">  1       21 0.21625840E-01 0.44177863E+03</pdfrwt>
<totfact> 0.74279251E+04</totfact>
</mgrwt>
</event>
<event>
 7    0  0.4714446E-002  0.4528558E+03  0.7546771E-02  0.1026874E+00
         21   -1    0    0  502  501  0.00000000000E+00  0.00000000000E+00  0.38801260036E+03  0.38801260036E+03  0.00000000000E+00 0.  1.
         21   -1    0    0  501  502 -0.00000000000E+00 -0.00000000000E+00 -0.13213382646E+03  0.13213382646E+03  0.00000000000E+00 0.  1.
      99926    2    1    2    0    0  0.00000000000E+00  0.14210854715E-13  0.25587877390E+03  0.52014642682E+03  0.45285578101E+03 0.  0.
      99925    2    3    3    0    0  0.72410652870E+02  0.83310119271E+02  0.15051073410E+03  0.32282990309E+03  0.26340422667E+03 0.  0.
         25    1    3    3    0    0 -0.72410652870E+02 -0.83310119271E+02  0.10536803981E+03  0.19731652372E+03  0.12509000000E+03 0.  0.
         25    1    4    4    0    0  0.15309461039E+02  0.76875381483E+02  0.70245380496E+02  0.16348126944E+03  0.12509000000E+03 0.  0.
         25    1    4    4    0    0  0.57101191831E+02  0.64347377872E+01  0.80265353601E+02  0.15934863365E+03  0.12509000000E+03 0.  0.
<mgrwt>
<rscale>  2 0.45285578E+03</rscale>
<asrwt>0</asrwt>
<pdfrwt beam="1">  1       21 0.57060676E-01 0.45285578E+03</pdfrwt>
<pdfrwt beam="2">  1       21 0.19431445E-01 0.45285578E+03</pdfrwt>
<totfact> 0.64975560E+04</totfact>
</mgrwt>
</event>
<event>
 7    0  0.4714446E-002  0.4555319E+03  0.7546771E-02  0.1026085E+00
         21   -1    0    0  502  501  0.00000000000E+00  0.00000000000E+00  0.14447696757E+03  0.14447696757E+03  0.00000000000E+00 0.  1.
         21   -1    0    0  501  502 -0.00000000000E+00 -0.00000000000E+00 -0.35906982552E+03  0.35906982552E+03  0.00000000000E+00 0.  1.
      99926    2    1    2    0    0  0.00000000000E+00  0.00000000000E+00 -0.21459285796E+03  0.50354679309E+03  0.45553186293E+03 0.  0.
      99925    2    3    3    0    0  0.47629118971E+02  0.49418284317E+02 -0.23509861390E+03  0.35939862652E+03  0.26303101469E+03 0.  0.
         25    1    3    3    0    0 -0.47629118971E+02 -0.49418284317E+02  0.20505755944E+02  0.14414816657E+03  0.12509000000E+03 0.  0.
         25    1    4    4    0    0  0.64997343682E+02  0.26188794718E+02 -0.12061817940E+03  0.18736798274E+03  0.12509000000E+03 0.  0.
         25    1    4    4    0    0 -0.17368224711E+02  0.23229489599E+02 -0.11448043450E+03  0.17203064378E+03  0.12509000000E+03 0.  0.
<mgrwt>
<rscale>  2 0.45553186E+03</rscale>
<asrwt>0</asrwt>
<pdfrwt beam="1">  1       21 0.21246613E-01 0.45553186E+03</pdfrwt>
<pdfrwt beam="2">  1       21 0.52804385E-01 0.45553186E+03</pdfrwt>
<totfact> 0.64748421E+04</totfact>
</mgrwt>
</event>
<event>
 7    0  0.4714446E-002  0.5035716E+03  0.7546771E-02  0.1012851E+00
         21   -1    0    0  502  501  0.00000000000E+00  0.00000000000E+00  0.11032852624E+03  0.11032852624E+03  0.00000000000E+00 0.  1.
         21   -1    0    0  501  502 -0.00000000000E+00 -0.00000000000E+00 -0.57461202090E+03  0.57461202090E+03  0.00000000000E+00 0.  1.
      99926    2    1    2    0    0  0.00000000000E+00  0.00000000000E+00 -0.46428349466E+03  0.68494054714E+03  0.50357163313E+03 0.  0.
      99925    2    3    3    0    0 -0.12868286840E+03 -0.74617597182E+02 -0.22488099592E+03  0.37657691287E+03  0.26289093282E+03 0.  0.
         25    1    4    4    0    0 -0.44213997264E+02 -0.71841101265E+02 -0.11954884773E+03  0.19249793890E+03  0.12509000000E+03 0.  0.
         25    1    4    4    0    0 -0.84468871134E+02 -0.27764959170E+01 -0.10533214818E+03  0.18407897398E+03  0.12509000000E+03 0.  0.
         25    1    3    3    0    0  0.12868286840E+03  0.74617597182E+02 -0.23940249875E+03  0.30836363426E+03  0.12509000000E+03 0.  0.
<mgrwt>
<rscale>  2 0.50357163E+03</rscale>
<asrwt>0</asrwt>
<pdfrwt beam="1">  1       21 0.16224783E-01 0.50357163E+03</pdfrwt>
<pdfrwt beam="2">  1       21 0.84501767E-01 0.50357163E+03</pdfrwt>
<totfact> 0.37274370E+04</totfact>
</mgrwt>
</event>
<event>
 7    0  0.4714446E-002  0.4545805E+03  0.7546771E-02  0.1026365E+00
         21   -1    0    0  502  501  0.00000000000E+00  0.00000000000E+00  0.11541663110E+03  0.11541663110E+03  0.00000000000E+00 0.  1.
         21   -1    0    0  501  502 -0.00000000000E+00 -0.00000000000E+00 -0.44760327823E+03  0.44760327823E+03  0.00000000000E+00 0.  1.
      99926    2    1    2    0    0 -0.14210854715E-13 -0.35527136788E-14 -0.33218664713E+03  0.56301990933E+03  0.45458052068E+03 0.  0.
      99925    2    3    3    0    0  0.84231061295E+02  0.20726949160E+02 -0.29853413031E+03  0.40712097381E+03  0.26286951564E+03 0.  0.
         25    1    4    4    0    0  0.74231429737E+02  0.15012903513E+02 -0.19844877231E+03  0.24650581284E+03  0.12509000000E+03 0.  0.
         25    1    3    3    0    0 -0.84231061295E+02 -0.20726949160E+02 -0.33652516821E+02  0.15589893552E+03  0.12509000000E+03 0.  0.
         25    1    4    4    0    0  0.99996315576E+01  0.57140456470E+01 -0.10008535799E+03  0.16061516097E+03  0.12509000000E+03 0.  0.
<mgrwt>
<rscale>  2 0.45458052E+03</rscale>
<asrwt>0</asrwt>
<pdfrwt beam="1">  1       21 0.16973034E-01 0.45458052E+03</pdfrwt>
<pdfrwt beam="2">  1       21 0.65824012E-01 0.45458052E+03</pdfrwt>
<totfact> 0.61217109E+04</totfact>
</mgrwt>
</event>
<event>
 7    0  0.4714446E-002  0.4370035E+03  0.7546771E-02  0.1031670E+00
         21   -1    0    0  502  501  0.00000000000E+00  0.00000000000E+00  0.10392985180E+03  0.10392985180E+03  0.00000000000E+00 0. -1.
         21   -1    0    0  501  502 -0.00000000000E+00 -0.00000000000E+00 -0.45937735690E+03  0.45937735690E+03  0.00000000000E+00 0. -1.
      99926    2    1    2    0    0  0.00000000000E+00  0.00000000000E+00 -0.35544750510E+03  0.56330720869E+03  0.43700352686E+03 0.  0.
      99925    2    3    3    0    0 -0.41174366839E+02 -0.27018691198E+02 -0.33268286581E+03  0.42695811607E+03  0.26303993140E+03 0.  0.
         25    1    3    3    0    0  0.41174366839E+02  0.27018691198E+02 -0.22764639291E+02  0.13634909263E+03  0.12509000000E+03 0.  0.
         25    1    4    4    0    0 -0.33590697960E+02 -0.14812285378E+02 -0.10753639959E+03  0.16899504172E+03  0.12509000000E+03 0.  0.
         25    1    4    4    0    0 -0.75836688791E+01 -0.12206405820E+02 -0.22514646622E+03  0.25796307435E+03  0.12509000000E+03 0.  0.
<mgrwt>
<rscale>  2 0.43700353E+03</rscale>
<asrwt>0</asrwt>
<pdfrwt beam="1">  1       21 0.15283802E-01 0.43700353E+03</pdfrwt>
<pdfrwt beam="2">  1       21 0.67555494E-01 0.43700353E+03</pdfrwt>
<totfact> 0.70508030E+04</totfact>
</mgrwt>
</event>
<event>
 7    0  0.4714446E-002  0.4507378E+03  0.7546771E-02  0.1027502E+00
         21   -1    0    0  502  501  0.00000000000E+00  0.00000000000E+00  0.78617450284E+03  0.78617450284E+03  0.00000000000E+00 0. -1.
         21   -1    0    0  501  502 -0.00000000000E+00 -0.00000000000E+00 -0.64605440034E+02  0.64605440034E+02  0.00000000000E+00 0. -1.
      99926    2    1    2    0    0 -0.35527136788E-14  0.00000000000E+00  0.72156906281E+03  0.85077994288E+03  0.45073783822E+03 0.  0.
      99925    2    3    3    0    0  0.23952914540E+02 -0.93067116587E+02  0.55347269541E+03  0.62026068742E+03  0.26297540852E+03 0.  0.
         25    1    4    4    0    0  0.22826222555E+02 -0.55399533468E+01  0.24690554032E+03  0.27777973551E+03  0.12509000000E+03 0.  0.
         25    1    3    3    0    0 -0.23952914540E+02  0.93067116587E+02  0.16809636740E+03  0.23051925546E+03  0.12509000000E+03 0.  0.
         25    1    4    4    0    0  0.11266919848E+01 -0.87527163240E+02  0.30656715510E+03  0.34248095191E+03  0.12509000000E+03 0.  0.
<mgrwt>
<rscale>  2 0.45073784E+03</rscale>
<asrwt>0</asrwt>
<pdfrwt beam="1">  1       21 0.11561389E+00 0.45073784E+03</pdfrwt>
<pdfrwt beam="2">  1       21 0.95008005E-02 0.45073784E+03</pdfrwt>
<totfact> 0.46954821E+04</totfact>
</mgrwt>
</event>
<event>
 7    0  0.4714446E-002  0.4540565E+03  0.7546771E-02  0.1026519E+00
         21   -1    0    0  502  501  0.00000000000E+00  0.00000000000E+00  0.20043777054E+02  0.20043777054E+02  0.00000000000E+00 0.  1.
         21   -1    0    0  501  502 -0.00000000000E+00 -0.00000000000E+00 -0.25714628182E+04  0.25714628182E+04  0.00000000000E+00 0.  1.
      99926    2    1    2    0    0  0.00000000000E+00  0.00000000000E+00 -0.25514190412E+04  0.25915065953E+04  0.45405650499E+03 0.  0.
      99925    2    3    3    0    0  0.28768875600E+02  0.72947141863E+02 -0.11476610925E+04  0.11800063933E+04  0.26294518671E+03 0.  0.
         25    1    4    4    0    0  0.84353416097E+01  0.60754139471E+02 -0.45909451713E+03  0.47976817757E+03  0.12509000000E+03 0.  0.
         25    1    3    3    0    0 -0.28768875600E+02 -0.72947141863E+02 -0.14037579487E+04  0.14115002020E+04  0.12509000000E+03 0.  0.
         25    1    4    4    0    0  0.20333533990E+02  0.12193002393E+02 -0.68856657539E+03  0.70023821572E+03  0.12509000000E+03 0.  0.
<mgrwt>
<rscale>  2 0.45405650E+03</rscale>
<asrwt>0</asrwt>
<pdfrwt beam="1">  1       21 0.29476154E-02 0.45405650E+03</pdfrwt>
<pdfrwt beam="2">  1       21 0.37815615E+00 0.45405650E+03</pdfrwt>
<totfact> 0.62862120E+03</totfact>
</mgrwt>
</event>
<event>
 7    0  0.4714446E-002  0.4587177E+03  0.7546771E-02  0.1025154E+00
         21   -1    0    0  502  501  0.00000000000E+00  0.00000000000E+00  0.90497049526E+03  0.90497049526E+03  0.00000000000E+00 0.  1.
         21   -1    0    0  501  502 -0.00000000000E+00 -0.00000000000E+00 -0.58129493226E+02  0.58129493226E+02  0.00000000000E+00 0.  1.
      99926    2    1    2    0    0  0.00000000000E+00  0.00000000000E+00  0.84684100203E+03  0.96309998849E+03  0.45871767472E+03 0.  0.
      99925    2    3    3    0    0  0.82923548101E+02  0.42727605159E+02  0.38406804410E+03  0.47472689159E+03  0.26297413567E+03 0.  0.
         25    1    3    3    0    0 -0.82923548101E+02 -0.42727605159E+02  0.46277295794E+03  0.48837309689E+03  0.12509000000E+03 0.  0.
         25    1    4    4    0    0  0.47140904899E+02  0.37230738176E+02  0.13463013699E+03  0.19334211819E+03  0.12509000000E+03 0.  0.
         25    1    4    4    0    0  0.35782643202E+02  0.54968669830E+01  0.24943790711E+03  0.28138477340E+03  0.12509000000E+03 0.  0.
<mgrwt>
<rscale>  2 0.45871767E+03</rscale>
<asrwt>0</asrwt>
<pdfrwt beam="1">  1       21 0.13308389E+00 0.45871767E+03</pdfrwt>
<pdfrwt beam="2">  1       21 0.85484554E-02 0.45871767E+03</pdfrwt>
<totfact> 0.39455477E+04</totfact>
</mgrwt>
</event>
<event>
 7    0  0.4714446E-002  0.4531859E+03  0.7546771E-02  0.1026776E+00
         21   -1    0    0  502  501  0.00000000000E+00  0.00000000000E+00  0.29228502598E+03  0.29228502598E+03  0.00000000000E+00 0. -1.
         21   -1    0    0  501  502 -0.00000000000E+00 -0.00000000000E+00 -0.17566541554E+03  0.17566541554E+03  0.00000000000E+00 0. -1.
      99926    2    1    2    0    0  0.00000000000E+00  0.00000000000E+00  0.11661961043E+03  0.46795044152E+03  0.45318592452E+03 0.  0.
      99925    2    3    3    0    0 -0.96805575873E+02  0.25469627005E+02  0.22884452330E+02  0.28233306791E+03  0.26299855828E+03 0.  0.
         25    1    4    4    0    0 -0.48664129581E+02  0.52832207787E+02  0.18875493382E+02  0.14547588129E+03  0.12509000000E+03 0.  0.
         25    1    4    4    0    0 -0.48141446293E+02 -0.27362580782E+02  0.40089589474E+01  0.13685718662E+03  0.12509000000E+03 0.  0.
         25    1    3    3    0    0  0.96805575873E+02 -0.25469627005E+02  0.93735158103E+02  0.18561737361E+03  0.12509000000E+03 0.  0.
<mgrwt>
<rscale>  2 0.45318592E+03</rscale>
<asrwt>0</asrwt>
<pdfrwt beam="1">  1       21 0.42983092E-01 0.45318592E+03</pdfrwt>
<pdfrwt beam="2">  1       21 0.25833149E-01 0.45318592E+03</pdfrwt>
<totfact> 0.68569942E+04</totfact>
</mgrwt>
</event>
<event>
 7    0  0.4714446E-002  0.4486495E+03  0.7546771E-02  0.1028126E+00
         21   -1    0    0  502  501  0.00000000000E+00  0.00000000000E+00  0.63677823722E+03  0.63677823722E+03  0.00000000000E+00 0. -1.
         21   -1    0    0  501  502 -0.00000000000E+00 -0.00000000000E+00 -0.79025287520E+02  0.79025287520E+02  0.00000000000E+00 0. -1.
      99926    2    1    2    0    0  0.00000000000E+00  0.00000000000E+00  0.55775294970E+03  0.71580352474E+03  0.44864945462E+03 0.  0.
      99925    2    3    3    0    0  0.66272870596E+02 -0.66406486255E+02  0.43554305561E+03  0.51734778382E+03  0.26296209106E+03 0.  0.
         25    1    4    4    0    0  0.58190899094E+02 -0.43503457135E+02  0.28877315172E+03  0.32298014300E+03  0.12509000000E+03 0.  0.
         25    1    3    3    0    0 -0.66272870596E+02  0.66406486255E+02  0.12220989409E+03  0.19845574093E+03  0.12509000000E+03 0.  0.
         25    1    4    4    0    0  0.80819715018E+01 -0.22903029120E+02  0.14676990389E+03  0.19436764081E+03  0.12509000000E+03 0.  0.
<mgrwt>
<rscale>  2 0.44864945E+03</rscale>
<asrwt>0</asrwt>
<pdfrwt beam="1">  1       21 0.93643856E-01 0.44864945E+03</pdfrwt>
<pdfrwt beam="2">  1       21 0.11621366E-01 0.44864945E+03</pdfrwt>
<totfact> 0.54736944E+04</totfact>
</mgrwt>
</event>
<event>
 7    0  0.4714446E-002  0.4865990E+03  0.7546771E-02  0.1017337E+00
         21   -1    0    0  502  501  0.00000000000E+00  0.00000000000E+00  0.15226785231E+03  0.15226785231E+03  0.00000000000E+00 0.  1.
         21   -1    0    0  501  502 -0.00000000000E+00 -0.00000000000E+00 -0.38875340033E+03  0.38875340033E+03  0.00000000000E+00 0.  1.
      99926    2    1    2    0    0  0.00000000000E+00  0.00000000000E+00 -0.23648554802E+03  0.54102125264E+03  0.48659899443E+03 0.  0.
      99925    2    3    3    0    0 -0.44023764823E+02 -0.98727094618E+02 -0.24520855558E+03  0.37546543111E+03  0.26298654556E+03 0.  0.
         25    1    4    4    0    0 -0.40818769541E+02 -0.87779128477E+02 -0.14825063570E+03  0.21678816026E+03  0.12509000000E+03 0.  0.
         25    1    3    3    0    0  0.44023764823E+02  0.98727094618E+02  0.87230075616E+01  0.16555582153E+03  0.12509000000E+03 0.  0.
         25    1    4    4    0    0 -0.32049952819E+01 -0.10947966141E+02 -0.96957919885E+02  0.15867727085E+03  0.12509000000E+03 0.  0.
<mgrwt>
<rscale>  2 0.48659899E+03</rscale>
<asrwt>0</asrwt>
<pdfrwt beam="1">  1       21 0.22392332E-01 0.48659899E+03</pdfrwt>
<pdfrwt beam="2">  1       21 0.57169617E-01 0.48659899E+03</pdfrwt>
<totfact> 0.48993924E+04</totfact>
</mgrwt>
</event>
<event>
 7    0  0.4714446E-002  0.4184368E+03  0.7546771E-02  0.1037576E+00
         21   -1    0    0  502  501  0.00000000000E+00  0.00000000000E+00  0.20416929653E+03  0.20416929653E+03  0.00000000000E+00 0.  1.
         21   -1    0    0  501  502 -0.00000000000E+00 -0.00000000000E+00 -0.21439234871E+03  0.21439234871E+03  0.00000000000E+00 0.  1.
      99926    2    1    2    0    0  0.35527136788E-14 -0.71054273576E-14 -0.10223052186E+02  0.41856164524E+03  0.41843678145E+03 0.  0.
      99925    2    3    3    0    0 -0.21295670247E+02  0.56010364315E+02  0.36508433333E+02  0.27219906013E+03  0.26299961245E+03 0.  0.
         25    1    4    4    0    0  0.11907431125E+02  0.10245121295E+02 -0.11914060979E+02  0.12663412800E+03  0.12509000000E+03 0.  0.
         25    1    3    3    0    0  0.21295670247E+02 -0.56010364315E+02 -0.46731485519E+02  0.14636258511E+03  0.12509000000E+03 0.  0.
         25    1    4    4    0    0 -0.33203101372E+02  0.45765243020E+02  0.48422494312E+02  0.14556493213E+03  0.12509000000E+03 0.  0.
<mgrwt>
<rscale>  2 0.41843678E+03</rscale>
<asrwt>0</asrwt>
<pdfrwt beam="1">  1       21 0.30024897E-01 0.41843678E+03</pdfrwt>
<pdfrwt beam="2">  1       21 0.31528286E-01 0.41843678E+03</pdfrwt>
<totfact> 0.96538827E+04</totfact>
</mgrwt>
</event>
<event>
 7    0  0.4714446E-002  0.4643711E+03  0.7546771E-02  0.1023521E+00
         21   -1    0    0  502  501  0.00000000000E+00  0.00000000000E+00  0.83555008006E+02  0.83555008006E+02  0.00000000000E+00 0. -1.
         21   -1    0    0  501  502 -0.00000000000E+00 -0.00000000000E+00 -0.64520537413E+03  0.64520537413E+03  0.00000000000E+00 0. -1.
      99926    2    1    2    0    0  0.00000000000E+00  0.00000000000E+00 -0.56165036612E+03  0.72876038213E+03  0.46437114553E+03 0.  0.
      99925    2    3    3    0    0  0.19499557067E+02 -0.22063970629E+02 -0.16526451732E+03  0.31206348899E+03  0.26306692865E+03 0.  0.
         25    1    3    3    0    0 -0.19499557067E+02  0.22063970629E+02 -0.39638584880E+03  0.41669689314E+03  0.12509000000E+03 0.  0.
         25    1    4    4    0    0 -0.24607193085E+02 -0.20533859903E+02 -0.58388720952E+02  0.14171769187E+03  0.12509000000E+03 0.  0.
         25    1    4    4    0    0  0.44106750151E+02 -0.15301107259E+01 -0.10687579637E+03  0.17034579712E+03  0.12509000000E+03 0.  0.
<mgrwt>
<rscale>  2 0.46437115E+03</rscale>
<asrwt>0</asrwt>
<pdfrwt beam="1">  1       21 0.12287501E-01 0.46437115E+03</pdfrwt>
<pdfrwt beam="2">  1       21 0.94883148E-01 0.46437115E+03</pdfrwt>
<totfact> 0.47751624E+04</totfact>
</mgrwt>
</event>
<event>
 7    0  0.4714446E-002  0.4501661E+03  0.7546771E-02  0.1027673E+00
         21   -1    0    0  502  501  0.00000000000E+00  0.00000000000E+00  0.13784962075E+03  0.13784962075E+03  0.00000000000E+00 0. -1.
         21   -1    0    0  501  502 -0.00000000000E+00 -0.00000000000E+00 -0.36751919508E+03  0.36751919508E+03  0.00000000000E+00 0. -1.
      99926    2    1    2    0    0  0.00000000000E+00  0.00000000000E+00 -0.22966957433E+03  0.50536881583E+03  0.45016611005E+03 0.  0.
      99925    2    3    3    0    0  0.98306974614E+02  0.37888727177E+02 -0.17429814179E+03  0.33270347320E+03  0.26308162601E+03 0.  0.
         25    1    4    4    0    0  0.50932887161E+02 -0.63390387086E+01 -0.12295698652E+03  0.18275741036E+03  0.12509000000E+03 0.  0.
         25    1    4    4    0    0  0.47374087452E+02  0.44227765886E+02 -0.51341155263E+02  0.14994606284E+03  0.12509000000E+03 0.  0.
         25    1    3    3    0    0 -0.98306974614E+02 -0.37888727177E+02 -0.55371432548E+02  0.17266534264E+03  0.12509000000E+03 0.  0.
<mgrwt>
<rscale>  2 0.45016611E+03</rscale>
<asrwt>0</asrwt>
<pdfrwt beam="1">  1       21 0.20272003E-01 0.45016611E+03</pdfrwt>
<pdfrwt beam="2">  1       21 0.54046939E-01 0.45016611E+03</pdfrwt>
<totfact> 0.67445761E+04</totfact>
</mgrwt>
</event>
<event>
 7    0  0.4714446E-002  0.4600832E+03  0.7546771E-02  0.1024757E+00
         21   -1    0    0  502  501  0.00000000000E+00  0.00000000000E+00  0.59519556336E+03  0.59519556336E+03  0.00000000000E+00 0.  1.
         21   -1    0    0  501  502 -0.00000000000E+00 -0.00000000000E+00 -0.88910501916E+02  0.88910501916E+02  0.00000000000E+00 0.  1.
      99926    2    1    2    0    0  0.00000000000E+00  0.00000000000E+00  0.50628506144E+03  0.68410606528E+03  0.46008319368E+03 0.  0.
      99925    2    3    3    0    0  0.99271217634E+01  0.25014771404E+02  0.14849334509E+03  0.30412355657E+03  0.26403896983E+03 0.  0.
         25    1    4    4    0    0  0.18703536741E+02  0.46133728743E+01  0.11894772765E+03  0.17368700444E+03  0.12509000000E+03 0.  0.
         25    1    3    3    0    0 -0.99271217634E+01 -0.25014771404E+02  0.35779171635E+03  0.37998250871E+03  0.12509000000E+03 0.  0.
         25    1    4    4    0    0 -0.87764149772E+01  0.20401398530E+02  0.29545617437E+02  0.13043655213E+03  0.12509000000E+03 0.  0.
<mgrwt>
<rscale>  2 0.46008319E+03</rscale>
<asrwt>0</asrwt>
<pdfrwt beam="1">  1       21 0.87528757E-01 0.46008319E+03</pdfrwt>
<pdfrwt beam="2">  1       21 0.13075074E-01 0.46008319E+03</pdfrwt>
<totfact> 0.51674464E+04</totfact>
</mgrwt>
</event>
<event>
 7    0  0.4714446E-002  0.4445046E+03  0.7546771E-02  0.1029374E+00
         21   -1    0    0  502  501  0.00000000000E+00  0.00000000000E+00  0.50116785439E+03  0.50116785439E+03  0.00000000000E+00 0. -1.
         21   -1    0    0  501  502 -0.00000000000E+00 -0.00000000000E+00 -0.98561973705E+02  0.98561973705E+02  0.00000000000E+00 0. -1.
      99926    2    1    2    0    0  0.00000000000E+00  0.00000000000E+00  0.40260588068E+03  0.59972982809E+03  0.44450463613E+03 0.  0.
      99925    2    3    3    0    0 -0.93186974669E+02 -0.15231791106E+02  0.31128648373E+03  0.41833919970E+03  0.26304484664E+03 0.  0.
         25    1    4    4    0    0 -0.66524573072E+02  0.26317132336E+01  0.21396001938E+03  0.25662977756E+03  0.12509000000E+03 0.  0.
         25    1    3    3    0    0  0.93186974669E+02  0.15231791106E+02  0.91319396952E+02  0.18139062839E+03  0.12509000000E+03 0.  0.
         25    1    4    4    0    0 -0.26662401597E+02 -0.17863504339E+02  0.97326464347E+02  0.16170942214E+03  0.12509000000E+03 0.  0.
<mgrwt>
<rscale>  2 0.44450464E+03</rscale>
<asrwt>0</asrwt>
<pdfrwt beam="1">  1       21 0.73701154E-01 0.44450464E+03</pdfrwt>
<pdfrwt beam="2">  1       21 0.14494408E-01 0.44450464E+03</pdfrwt>
<totfact> 0.63825091E+04</totfact>
</mgrwt>
</event>
<event>
 7    0  0.4714446E-002  0.4567539E+03  0.7546771E-02  0.1025727E+00
         21   -1    0    0  502  501  0.00000000000E+00  0.00000000000E+00  0.68693819863E+02  0.68693819863E+02  0.00000000000E+00 0. -1.
         21   -1    0    0  501  502 -0.00000000000E+00 -0.00000000000E+00 -0.75925366307E+03  0.75925366307E+03  0.00000000000E+00 0. -1.
      99926    2    1    2    0    0  0.00000000000E+00  0.00000000000E+00 -0.69055984321E+03  0.82794748294E+03  0.45675391344E+03 0.  0.
      99925    2    3    3    0    0  0.21080161054E+02  0.12774844943E+02 -0.63711789505E+03  0.68970450924E+03  0.26299339919E+03 0.  0.
         25    1    4    4    0    0 -0.28618042073E+02  0.36313421889E+01 -0.33852177366E+03  0.36204513299E+03  0.12509000000E+03 0.  0.
         25    1    3    3    0    0 -0.21080161054E+02 -0.12774844943E+02 -0.53441948160E+02  0.13824297370E+03  0.12509000000E+03 0.  0.
         25    1    4    4    0    0  0.49698203127E+02  0.91435027536E+01 -0.29859612139E+03  0.32765937625E+03  0.12509000000E+03 0.  0.
<mgrwt>
<rscale>  2 0.45675391E+03</rscale>
<asrwt>0</asrwt>
<pdfrwt beam="1">  1       21 0.10102032E-01 0.45675391E+03</pdfrwt>
<pdfrwt beam="2">  1       21 0.11165496E+00 0.45675391E+03</pdfrwt>
<totfact> 0.45808883E+04</totfact>
</mgrwt>
</event>
<event>
 7    0  0.4714446E-002  0.4555514E+03  0.7546771E-02  0.1026079E+00
         21   -1    0    0  502  501  0.00000000000E+00  0.00000000000E+00  0.12879206214E+03  0.12879206214E+03  0.00000000000E+00 0.  1.
         21   -1    0    0  501  502 -0.00000000000E+00 -0.00000000000E+00 -0.40283356132E+03  0.40283356132E+03  0.00000000000E+00 0.  1.
      99926    2    1    2    0    0  0.00000000000E+00  0.88817841970E-15 -0.27404149918E+03  0.53162562346E+03  0.45555138047E+03 0.  0.
      99925    2    3    3    0    0 -0.64785228700E+02 -0.35292422839E+01 -0.28120613127E+03  0.39052841774E+03  0.26310829594E+03 0.  0.
         25    1    3    3    0    0  0.64785228700E+02  0.35292422839E+01  0.71646320983E+01  0.14109720572E+03  0.12509000000E+03 0.  0.
         25    1    4    4    0    0 -0.47737690853E+02 -0.38982300857E+02 -0.15565940291E+03  0.20898771428E+03  0.12509000000E+03 0.  0.
         25    1    4    4    0    0 -0.17047537847E+02  0.35453058574E+02 -0.12554672837E+03  0.18154070346E+03  0.12509000000E+03 0.  0.
<mgrwt>
<rscale>  2 0.45555138E+03</rscale>
<asrwt>0</asrwt>
<pdfrwt beam="1">  1       21 0.18940009E-01 0.45555138E+03</pdfrwt>
<pdfrwt beam="2">  1       21 0.59240231E-01 0.45555138E+03</pdfrwt>
<totfact> 0.62821617E+04</totfact>
</mgrwt>
</event>
<event>
 7    0  0.4714446E-002  0.4455286E+03  0.7546771E-02  0.1029064E+00
         21   -1    0    0  502  501  0.00000000000E+00  0.00000000000E+00  0.32922791616E+03  0.32922791616E+03  0.00000000000E+00 0.  1.
         21   -1    0    0  501  502 -0.00000000000E+00 -0.00000000000E+00 -0.15072817287E+03  0.15072817287E+03  0.00000000000E+00 0.  1.
      99926    2    1    2    0    0  0.00000000000E+00 -0.71054273576E-14  0.17849974329E+03  0.47995608903E+03  0.44552855019E+03 0.  0.
      99925    2    3    3    0    0 -0.14010010193E+02 -0.62150735269E+02  0.24859999897E+02  0.27184152171E+03  0.26309845885E+03 0.  0.
         25    1    3    3    0    0  0.14010010193E+02  0.62150735269E+02  0.15363974339E+03  0.20811456732E+03  0.12509000000E+03 0.  0.
         25    1    4    4    0    0 -0.10341751260E+01  0.81683379407E+01  0.24621792407E+02  0.12775575143E+03  0.12509000000E+03 0.  0.
         25    1    4    4    0    0 -0.12975835067E+02 -0.70319073210E+02  0.23820748948E+00  0.14408577027E+03  0.12509000000E+03 0.  0.
<mgrwt>
<rscale>  2 0.44552855E+03</rscale>
<asrwt>0</asrwt>
<pdfrwt beam="1">  1       21 0.48415870E-01 0.44552855E+03</pdfrwt>
<pdfrwt beam="2">  1       21 0.22165908E-01 0.44552855E+03</pdfrwt>
<totfact> 0.71963776E+04</totfact>
</mgrwt>
</event>
<event>
 7    0  0.4714446E-002  0.4539266E+03  0.7546771E-02  0.1026558E+00
         21   -1    0    0  502  501  0.00000000000E+00  0.00000000000E+00  0.19250160027E+03  0.19250160027E+03  0.00000000000E+00 0. -1.
         21   -1    0    0  501  502 -0.00000000000E+00 -0.00000000000E+00 -0.26759433639E+03  0.26759433639E+03  0.00000000000E+00 0. -1.
      99926    2    1    2    0    0  0.14210854715E-13  0.00000000000E+00 -0.75092736126E+02  0.46009593666E+03  0.45392659309E+03 0.  0.
      99925    2    3    3    0    0 -0.10097462638E+03 -0.46301833565E+02 -0.39800862906E+02  0.28912003374E+03  0.26394421808E+03 0.  0.
         25    1    4    4    0    0 -0.60122611393E+02 -0.32532853231E+02 -0.61124402095E+02  0.15510259692E+03  0.12509000000E+03 0.  0.
         25    1    3    3    0    0  0.10097462638E+03  0.46301833565E+02 -0.35291873219E+02  0.17097590292E+03  0.12509000000E+03 0.  0.
         25    1    4    4    0    0 -0.40852014986E+02 -0.13768980334E+02  0.21323539189E+02  0.13401743682E+03  0.12509000000E+03 0.  0.
<mgrwt>
<rscale>  2 0.45392659E+03</rscale>
<asrwt>0</asrwt>
<pdfrwt beam="1">  1       21 0.28309059E-01 0.45392659E+03</pdfrwt>
<pdfrwt beam="2">  1       21 0.39352108E-01 0.45392659E+03</pdfrwt>
<totfact> 0.68760200E+04</totfact>
</mgrwt>
</event>
<event>
 7    0  0.4714446E-002  0.4530611E+03  0.7546771E-02  0.1026813E+00
         21   -1    0    0  502  501  0.00000000000E+00  0.00000000000E+00  0.10962084525E+04  0.10962084525E+04  0.00000000000E+00 0.  1.
         21   -1    0    0  501  502 -0.00000000000E+00 -0.00000000000E+00 -0.46812340986E+02  0.46812340986E+02  0.00000000000E+00 0.  1.
      99926    2    1    2    0    0  0.00000000000E+00  0.00000000000E+00  0.10493961115E+04  0.11430207935E+04  0.45306107257E+03 0.  0.
      99925    2    3    3    0    0 -0.32682520974E+02 -0.70266433627E+02  0.86328418051E+03  0.90576422807E+03  0.26295197595E+03 0.  0.
         25    1    4    4    0    0 -0.51361123923E+02 -0.56282455035E+02  0.43695304330E+03  0.46084829385E+03  0.12509000000E+03 0.  0.
         25    1    3    3    0    0  0.32682520974E+02  0.70266433627E+02  0.18611193100E+03  0.23725656542E+03  0.12509000000E+03 0.  0.
         25    1    4    4    0    0  0.18678602949E+02 -0.13983978591E+02  0.42633113721E+03  0.44491593422E+03  0.12509000000E+03 0.  0.
<mgrwt>
<rscale>  2 0.45306107E+03</rscale>
<asrwt>0</asrwt>
<pdfrwt beam="1">  1       21 0.16120711E+00 0.45306107E+03</pdfrwt>
<pdfrwt beam="2">  1       21 0.68841685E-02 0.45306107E+03</pdfrwt>
<totfact> 0.34535214E+04</totfact>
</mgrwt>
</event>
<event>
 7    0  0.4714446E-002  0.4548078E+03  0.7546771E-02  0.1026298E+00
         21   -1    0    0  502  501  0.00000000000E+00  0.00000000000E+00  0.43885487473E+02  0.43885487473E+02  0.00000000000E+00 0. -1.
         21   -1    0    0  501  502 -0.00000000000E+00 -0.00000000000E+00 -0.11783516017E+04  0.11783516017E+04  0.00000000000E+00 0. -1.
      99926    2    1    2    0    0  0.00000000000E+00  0.00000000000E+00 -0.11344661143E+04  0.12222370892E+04  0.45480780318E+03 0.  0.
      99925    2    3    3    0    0  0.12699825518E+02 -0.10046153813E+03 -0.57965329806E+03  0.64455328700E+03  0.26305358318E+03 0.  0.
         25    1    4    4    0    0  0.36453661270E+02 -0.52221992409E+02 -0.35652597958E+03  0.38316352661E+03  0.12509000000E+03 0.  0.
         25    1    4    4    0    0 -0.23753835752E+02 -0.48239545717E+02 -0.22312731848E+03  0.26138976039E+03  0.12509000000E+03 0.  0.
         25    1    3    3    0    0 -0.12699825518E+02  0.10046153813E+03 -0.55481281621E+03  0.57768380222E+03  0.12509000000E+03 0.  0.
<mgrwt>
<rscale>  2 0.45480780E+03</rscale>
<asrwt>0</asrwt>
<pdfrwt beam="1">  1       21 0.64537489E-02 0.45480780E+03</pdfrwt>
<pdfrwt beam="2">  1       21 0.17328698E+00 0.45480780E+03</pdfrwt>
<totfact> 0.31506100E+04</totfact>
</mgrwt>
</event>
<event>
 7    0  0.4714446E-002  0.4415395E+03  0.7546771E-02  0.1030275E+00
         21   -1    0    0  502  501  0.00000000000E+00  0.00000000000E+00  0.28856302815E+03  0.28856302815E+03  0.00000000000E+00 0. -1.
         21   -1    0    0  501  502 -0.00000000000E+00 -0.00000000000E+00 -0.16890344405E+03  0.16890344405E+03  0.00000000000E+00 0. -1.
      99926    2    1    2    0    0  0.35527136788E-14 -0.14210854715E-13  0.11965958410E+03  0.45746647220E+03  0.44153953065E+03 0.  0.
      99925    2    3    3    0    0 -0.82851331147E+01 -0.77662863239E+02  0.11521690807E+02  0.27459636578E+03  0.26300237829E+03 0.  0.
         25    1    4    4    0    0 -0.35808687328E+02 -0.12892498238E+02  0.22852779820E+01  0.13077159169E+03  0.12509000000E+03 0.  0.
         25    1    4    4    0    0  0.27523554214E+02 -0.64770365001E+02  0.92364128247E+01  0.14382477409E+03  0.12509000000E+03 0.  0.
         25    1    3    3    0    0  0.82851331147E+01  0.77662863239E+02  0.10813789329E+03  0.18287010642E+03  0.12509000000E+03 0.  0.
<mgrwt>
<rscale>  2 0.44153953E+03</rscale>
<asrwt>0</asrwt>
<pdfrwt beam="1">  1       21 0.42435739E-01 0.44153953E+03</pdfrwt>
<pdfrwt beam="2">  1       21 0.24838742E-01 0.44153953E+03</pdfrwt>
<totfact> 0.76195953E+04</totfact>
</mgrwt>
</event>
<event>
 7    0  0.4714446E-002  0.4565654E+03  0.7546771E-02  0.1025782E+00
         21   -1    0    0  502  501  0.00000000000E+00  0.00000000000E+00  0.62461234345E+02  0.62461234345E+02  0.00000000000E+00 0. -1.
         21   -1    0    0  501  502 -0.00000000000E+00 -0.00000000000E+00 -0.83432528934E+03  0.83432528934E+03  0.00000000000E+00 0. -1.
      99926    2    1    2    0    0  0.00000000000E+00  0.00000000000E+00 -0.77186405500E+03  0.89678652369E+03  0.45656538379E+03 0.  0.
      99925    2    3    3    0    0  0.65172076820E+02 -0.92810095952E+02 -0.51738827391E+03  0.59139080537E+03  0.26304247792E+03 0.  0.
         25    1    4    4    0    0  0.39634075773E+02 -0.52297226199E+02 -0.18301869544E+03  0.23119085365E+03  0.12509000000E+03 0.  0.
         25    1    4    4    0    0  0.25538001048E+02 -0.40512869752E+02 -0.33436957847E+03  0.36019995172E+03  0.12509000000E+03 0.  0.
         25    1    3    3    0    0 -0.65172076820E+02  0.92810095952E+02 -0.25447578109E+03  0.30539571832E+03  0.12509000000E+03 0.  0.
<mgrwt>
<rscale>  2 0.45656538E+03</rscale>
<asrwt>0</asrwt>
<pdfrwt beam="1">  1       21 0.91854756E-02 0.45656538E+03</pdfrwt>
<pdfrwt beam="2">  1       21 0.12269490E+00 0.45656538E+03</pdfrwt>
<totfact> 0.42845351E+04</totfact>
</mgrwt>
</event>
<event>
 7    0  0.4714446E-002  0.4505485E+03  0.7546771E-02  0.1027559E+00
         21   -1    0    0  502  501  0.00000000000E+00  0.00000000000E+00  0.40336322360E+03  0.40336322360E+03  0.00000000000E+00 0. -1.
         21   -1    0    0  501  502 -0.00000000000E+00 -0.00000000000E+00 -0.12581335717E+03  0.12581335717E+03  0.00000000000E+00 0. -1.
      99926    2    1    2    0    0  0.00000000000E+00 -0.71054273576E-14  0.27754986643E+03  0.52917658077E+03  0.45054847162E+03 0.  0.
      99925    2    3    3    0    0  0.77237699665E+02 -0.60451073541E+02  0.11976847425E+03  0.30520678290E+03  0.26303364492E+03 0.  0.
         25    1    4    4    0    0  0.28779089625E+02 -0.22303227004E+02  0.15767019329E+02  0.13123176800E+03  0.12509000000E+03 0.  0.
         25    1    3    3    0    0 -0.77237699665E+02  0.60451073541E+02  0.15778139218E+03  0.22396979787E+03  0.12509000000E+03 0.  0.
         25    1    4    4    0    0  0.48458610040E+02 -0.38147846537E+02  0.10400145492E+03  0.17397501490E+03  0.12509000000E+03 0.  0.
<mgrwt>
<rscale>  2 0.45054847E+03</rscale>
<asrwt>0</asrwt>
<pdfrwt beam="1">  1       21 0.59318121E-01 0.45054847E+03</pdfrwt>
<pdfrwt beam="2">  1       21 0.18501964E-01 0.45054847E+03</pdfrwt>
<totfact> 0.65543152E+04</totfact>
</mgrwt>
</event>
<event>
 6    0  0.4714446E-002  0.4607073E+03  0.7546771E-02  0.1024576E+00
         21   -1    0    0  502  501  0.00000000000E+00  0.00000000000E+00  0.22923518528E+02  0.22923518528E+02  0.00000000000E+00 0. -1.
         21   -1    0    0  501  502 -0.00000000000E+00 -0.00000000000E+00 -0.23147761296E+04  0.23147761296E+04  0.00000000000E+00 0. -1.
      99926    2    1    2    0    0 -0.14210854715E-13  0.71054273576E-14 -0.22918526111E+04  0.23376996481E+04  0.46070734093E+03 0.  0.
         25    1    3    3    0    0 -0.37548073120E+02  0.46463323495E+02 -0.60170782578E+03  0.61746944372E+03  0.12509000000E+03 0.  0.
         25    1    3    3    0    0 -0.57486640131E+02  0.16830967367E+01 -0.49303428337E+03  0.51189633647E+03  0.12509000000E+03 0.  0.
         25    1    3    3    0    0  0.95034713251E+02 -0.48146420232E+02 -0.11971105019E+04  0.12083338679E+04  0.12509000000E+03 0.  0.
<mgrwt>
<rscale>  2 0.46070734E+03</rscale>
<asrwt>0</asrwt>
<pdfrwt beam="1">  1       21 0.33711055E-02 0.46070734E+03</pdfrwt>
<pdfrwt beam="2">  1       21 0.34040827E+00 0.46070734E+03</pdfrwt>
<totfact> 0.85527612E+03</totfact>
</mgrwt>
</event>
<event>
 7    0  0.4714446E-002  0.4651425E+03  0.7546771E-02  0.1023300E+00
         21   -1    0    0  502  501  0.00000000000E+00  0.00000000000E+00  0.72938711088E+02  0.72938711088E+02  0.00000000000E+00 0. -1.
         21   -1    0    0  501  502 -0.00000000000E+00 -0.00000000000E+00 -0.74157309105E+03  0.74157309105E+03  0.00000000000E+00 0. -1.
      99926    2    1    2    0    0  0.00000000000E+00  0.00000000000E+00 -0.66863437996E+03  0.81451180213E+03  0.46514249618E+03 0.  0.
      99925    2    3    3    0    0  0.67257712676E+02  0.43437451178E+02 -0.57919612725E+03  0.64114190502E+03  0.26302923120E+03 0.  0.
         25    1    3    3    0    0 -0.67257712676E+02 -0.43437451178E+02 -0.89438252707E+02  0.17336989712E+03  0.12509000000E+03 0.  0.
         25    1    4    4    0    0  0.90083014249E+01  0.16017217539E+02 -0.19916956126E+03  0.23591041304E+03  0.12509000000E+03 0.  0.
         25    1    4    4    0    0  0.58249411251E+02  0.27420233639E+02 -0.38002656600E+03  0.40523149197E+03  0.12509000000E+03 0.  0.
<mgrwt>
<rscale>  2 0.46514250E+03</rscale>
<asrwt>0</asrwt>
<pdfrwt beam="1">  1       21 0.10726282E-01 0.46514250E+03</pdfrwt>
<pdfrwt beam="2">  1       21 0.10905486E+00 0.46514250E+03</pdfrwt>
<totfact> 0.43503783E+04</totfact>
</mgrwt>
</event>
<event>
 7    0  0.4714446E-002  0.4545107E+03  0.7546771E-02  0.1026385E+00
         21   -1    0    0  502  501  0.00000000000E+00  0.00000000000E+00  0.10916735711E+03  0.10916735711E+03  0.00000000000E+00 0. -1.
         21   -1    0    0  501  502 -0.00000000000E+00 -0.00000000000E+00 -0.47308085529E+03  0.47308085529E+03  0.00000000000E+00 0. -1.
      99926    2    1    2    0    0 -0.71054273576E-14  0.00000000000E+00 -0.36391349818E+03  0.58224821240E+03  0.45451066729E+03 0.  0.
      99925    2    3    3    0    0  0.53456609492E+02 -0.35670043815E+02 -0.11037916477E+03  0.29232214002E+03  0.26294241272E+03 0.  0.
         25    1    3    3    0    0 -0.53456609492E+02  0.35670043815E+02 -0.25353433341E+03  0.28992607237E+03  0.12509000000E+03 0.  0.
         25    1    4    4    0    0  0.53983286925E+02 -0.34152312790E+02 -0.30000008916E+02  0.14362480416E+03  0.12509000000E+03 0.  0.
         25    1    4    4    0    0 -0.52667743311E+00 -0.15177310250E+01 -0.80379155851E+02  0.14869733586E+03  0.12509000000E+03 0.  0.
<mgrwt>
<rscale>  2 0.45451067E+03</rscale>
<asrwt>0</asrwt>
<pdfrwt beam="1">  1       21 0.16054023E-01 0.45451067E+03</pdfrwt>
<pdfrwt beam="2">  1       21 0.69570713E-01 0.45451067E+03</pdfrwt>
<totfact> 0.60016282E+04</totfact>
</mgrwt>
</event>
<event>
 7    0  0.4714446E-002  0.4578337E+03  0.7546771E-02  0.1025411E+00
         21   -1    0    0  502  501  0.00000000000E+00  0.00000000000E+00  0.89428627516E+03  0.89428627516E+03  0.00000000000E+00 0. -1.
         21   -1    0    0  501  502 -0.00000000000E+00 -0.00000000000E+00 -0.58597477862E+02  0.58597477862E+02  0.00000000000E+00 0. -1.
      99926    2    1    2    0    0  0.00000000000E+00  0.00000000000E+00  0.83568879729E+03  0.95288375302E+03  0.45783368251E+03 0.  0.
      99925    2    3    3    0    0 -0.23242191520E+02 -0.26114588638E+02  0.75433985410E+03  0.79962798685E+03  0.26297172976E+03 0.  0.
         25    1    4    4    0    0  0.21432776159E+02 -0.29001258206E+02  0.42525823916E+03  0.44473870413E+03  0.12509000000E+03 0.  0.
         25    1    3    3    0    0  0.23242191520E+02  0.26114588638E+02  0.81348943189E+02  0.15325576617E+03  0.12509000000E+03 0.  0.
         25    1    4    4    0    0 -0.44674967679E+02  0.28866695676E+01  0.32908161494E+03  0.35488928272E+03  0.12509000000E+03 0.  0.
<mgrwt>
<rscale>  2 0.45783368E+03</rscale>
<asrwt>0</asrwt>
<pdfrwt beam="1">  1       21 0.13151268E+00 0.45783368E+03</pdfrwt>
<pdfrwt beam="2">  1       21 0.86172767E-02 0.45783368E+03</pdfrwt>
<totfact> 0.40127701E+04</totfact>
</mgrwt>
</event>
<event>
 7    0  0.4714446E-002  0.4211104E+03  0.7546771E-02  0.1036706E+00
         21   -1    0    0  502  501  0.00000000000E+00  0.00000000000E+00  0.21348985343E+02  0.21348985343E+02  0.00000000000E+00 0.  1.
         21   -1    0    0  501  502 -0.00000000000E+00 -0.00000000000E+00 -0.20766089449E+04  0.20766089449E+04  0.00000000000E+00 0.  1.
      99926    2    1    2    0    0 -0.71054273576E-14  0.00000000000E+00 -0.20552599595E+04  0.20979579302E+04  0.42111040798E+03 0.  0.
      99925    2    3    3    0    0 -0.38278189787E+02  0.64414633184E+02 -0.14421162006E+04  0.14677141345E+04  0.26243319130E+03 0.  0.
         25    1    3    3    0    0  0.38278189787E+02 -0.64414633184E+02 -0.61314375895E+03  0.63024379570E+03  0.12509000000E+03 0.  0.
         25    1    4    4    0    0 -0.10972692860E+01  0.63678981050E+02 -0.65722233980E+03  0.67204533230E+03  0.12509000000E+03 0.  0.
         25    1    4    4    0    0 -0.37180920501E+02  0.73565213394E+00 -0.78489386078E+03  0.79566880222E+03  0.12509000000E+03 0.  0.
<mgrwt>
<rscale>  2 0.42111041E+03</rscale>
<asrwt>0</asrwt>
<pdfrwt beam="1">  1       21 0.31395570E-02 0.42111041E+03</pdfrwt>
<pdfrwt beam="2">  1       21 0.30538363E+00 0.42111041E+03</pdfrwt>
<totfact> 0.15986872E+04</totfact>
</mgrwt>
</event>
<event>
 7    0  0.4714446E-002  0.4373709E+03  0.7546771E-02  0.1031557E+00
         21   -1    0    0  502  501  0.00000000000E+00  0.00000000000E+00  0.17440806742E+03  0.17440806742E+03  0.00000000000E+00 0. -1.
         21   -1    0    0  501  502 -0.00000000000E+00 -0.00000000000E+00 -0.27420366673E+03  0.27420366673E+03  0.00000000000E+00 0. -1.
      99926    2    1    2    0    0  0.00000000000E+00  0.00000000000E+00 -0.99795599318E+02  0.44861173415E+03  0.43737092539E+03 0.  0.
      99925    2    3    3    0    0  0.67141522570E+02 -0.68103854646E+02 -0.61379975631E+02  0.28653339718E+03  0.26303567671E+03 0.  0.
         25    1    3    3    0    0 -0.67141522570E+02  0.68103854646E+02 -0.38415623687E+02  0.16207833697E+03  0.12509000000E+03 0.  0.
         25    1    4    4    0    0  0.45684246759E+02 -0.22183629480E+02  0.70862067893E+01  0.13519203470E+03  0.12509000000E+03 0.  0.
         25    1    4    4    0    0  0.21457275811E+02 -0.45920225166E+02 -0.68466182420E+02  0.15134136249E+03  0.12509000000E+03 0.  0.
<mgrwt>
<rscale>  2 0.43737093E+03</rscale>
<asrwt>0</asrwt>
<pdfrwt beam="1">  1       21 0.25648245E-01 0.43737093E+03</pdfrwt>
<pdfrwt beam="2">  1       21 0.40324068E-01 0.43737093E+03</pdfrwt>
<totfact> 0.79624967E+04</totfact>
</mgrwt>
</event>
<event>
 7    0  0.4714446E-002  0.4272606E+03  0.7546771E-02  0.1034729E+00
         21   -1    0    0  502  501  0.00000000000E+00  0.00000000000E+00  0.22886608919E+04  0.22886608919E+04  0.00000000000E+00 0. -1.
         21   -1    0    0  501  502 -0.00000000000E+00 -0.00000000000E+00 -0.19940875684E+02  0.19940875684E+02  0.00000000000E+00 0. -1.
      99926    2    1    2    0    0  0.00000000000E+00  0.00000000000E+00  0.22687200162E+04  0.23086017676E+04  0.42726058713E+03 0.  0.
      99925    2    3    3    0    0  0.70957139798E+02  0.36452122663E+02  0.16186451047E+04  0.16418120169E+04  0.26300389909E+03 0.  0.
         25    1    3    3    0    0 -0.70957139798E+02 -0.36452122663E+02  0.65007491152E+03  0.66678975069E+03  0.12509000000E+03 0.  0.
         25    1    4    4    0    0  0.37537223228E+02  0.58172243072E+02  0.89685463819E+03  0.90817883874E+03  0.12509000000E+03 0.  0.
         25    1    4    4    0    0  0.33419916569E+02 -0.21720120409E+02  0.72179046652E+03  0.73363317817E+03  0.12509000000E+03 0.  0.
<mgrwt>
<rscale>  2 0.42726059E+03</rscale>
<asrwt>0</asrwt>
<pdfrwt beam="1">  1       21 0.33656760E+00 0.42726059E+03</pdfrwt>
<pdfrwt beam="2">  1       21 0.29324833E-02 0.42726059E+03</pdfrwt>
<totfact> 0.11600094E+04</totfact>
</mgrwt>
</event>
<event>
 7    0  0.4714446E-002  0.4623179E+03  0.7546771E-02  0.1024111E+00
         21   -1    0    0  502  501  0.00000000000E+00  0.00000000000E+00  0.26735575937E+03  0.26735575937E+03  0.00000000000E+00 0.  1.
         21   -1    0    0  501  502 -0.00000000000E+00 -0.00000000000E+00 -0.19986272652E+03  0.19986272652E+03  0.00000000000E+00 0.  1.
      99926    2    1    2    0    0  0.00000000000E+00  0.00000000000E+00  0.67493032843E+02  0.46721848589E+03  0.46231786043E+03 0.  0.
      99925    2    3    3    0    0 -0.68441220833E+02 -0.76251082526E+02 -0.21070997589E+02  0.28285600629E+03  0.26280240688E+03 0.  0.
         25    1    3    3    0    0  0.68441220833E+02  0.76251082526E+02  0.88564030432E+02  0.18436247959E+03  0.12509000000E+03 0.  0.
         25    1    4    4    0    0 -0.74582532059E+02 -0.50059288133E+02 -0.74010897623E+01  0.15417772422E+03  0.12509000000E+03 0.  0.
         25    1    4    4    0    0  0.61413112256E+01 -0.26191794393E+02 -0.13669907827E+02  0.12867828207E+03  0.12509000000E+03 0.  0.
<mgrwt>
<rscale>  2 0.46231786E+03</rscale>
<asrwt>0</asrwt>
<pdfrwt beam="1">  1       21 0.39317023E-01 0.46231786E+03</pdfrwt>
<pdfrwt beam="2">  1       21 0.29391578E-01 0.46231786E+03</pdfrwt>
<totfact> 0.63849413E+04</totfact>
</mgrwt>
</event>
<event>
 7    0  0.4714446E-002  0.4458620E+03  0.7546771E-02  0.1028963E+00
         21   -1    0    0  502  501  0.00000000000E+00  0.00000000000E+00  0.26956154689E+03  0.26956154689E+03  0.00000000000E+00 0.  1.
         21   -1    0    0  501  502 -0.00000000000E+00 -0.00000000000E+00 -0.18436688142E+03  0.18436688142E+03  0.00000000000E+00 0.  1.
      99926    2    1    2    0    0 -0.14210854715E-13  0.88817841970E-15  0.85194665475E+02  0.45392842830E+03  0.44586195958E+03 0.  0.
      99925    2    3    3    0    0  0.87056455512E+02  0.78032284894E+01  0.11235277730E+03  0.29892911231E+03  0.26286070608E+03 0.  0.
         25    1    3    3    0    0 -0.87056455512E+02 -0.78032284894E+01 -0.27158111824E+02  0.15499931600E+03  0.12509000000E+03 0.  0.
         25    1    4    4    0    0  0.25126057824E+02 -0.65195837353E+01  0.16079675642E+02  0.12876291323E+03  0.12509000000E+03 0.  0.
         25    1    4    4    0    0  0.61930397688E+02  0.14322812225E+02  0.96273101656E+02  0.17016619908E+03  0.12509000000E+03 0.  0.
<mgrwt>
<rscale>  2 0.44586196E+03</rscale>
<asrwt>0</asrwt>
<pdfrwt beam="1">  1       21 0.39641404E-01 0.44586196E+03</pdfrwt>
<pdfrwt beam="2">  1       21 0.27112777E-01 0.44586196E+03</pdfrwt>
<totfact> 0.73861023E+04</totfact>
</mgrwt>
</event>
<event>
 7    0  0.4714446E-002  0.4585238E+03  0.7546771E-02  0.1025210E+00
         21   -1    0    0  502  501  0.00000000000E+00  0.00000000000E+00  0.87755860026E+03  0.87755860026E+03  0.00000000000E+00 0.  1.
         21   -1    0    0  501  502 -0.00000000000E+00 -0.00000000000E+00 -0.59894605789E+02  0.59894605789E+02  0.00000000000E+00 0.  1.
      99926    2    1    2    0    0  0.14210854715E-13  0.71054273576E-14  0.81766399447E+03  0.93745320605E+03  0.45852383327E+03 0.  0.
      99925    2    3    3    0    0  0.77057987069E+02  0.62428217311E+02  0.38932869702E+03  0.48033850400E+03  0.26327367588E+03 0.  0.
         25    1    3    3    0    0 -0.77057987069E+02 -0.62428217311E+02  0.42833529746E+03  0.45711470206E+03  0.12509000000E+03 0.  0.
         25    1    4    4    0    0  0.31974056748E+02  0.16698013774E+02  0.12265750209E+03  0.17886736675E+03  0.12509000000E+03 0.  0.
         25    1    4    4    0    0  0.45083930322E+02  0.45730203537E+02  0.26667119493E+03  0.30147113725E+03  0.12509000000E+03 0.  0.
<mgrwt>
<rscale>  2 0.45852383E+03</rscale>
<asrwt>0</asrwt>
<pdfrwt beam="1">  1       21 0.12905273E+00 0.45852383E+03</pdfrwt>
<pdfrwt beam="2">  1       21 0.88080308E-02 0.45852383E+03</pdfrwt>
<totfact> 0.40524656E+04</totfact>
</mgrwt>
</event>
<event>
 7    0  0.4714446E-002  0.4549112E+03  0.7546771E-02  0.1026268E+00
         21   -1    0    0  502  501  0.00000000000E+00  0.00000000000E+00  0.14997876266E+03  0.14997876266E+03  0.00000000000E+00 0. -1.
         21   -1    0    0  501  502 -0.00000000000E+00 -0.00000000000E+00 -0.34495590391E+03  0.34495590391E+03  0.00000000000E+00 0. -1.
      99926    2    1    2    0    0  0.00000000000E+00  0.71054273576E-14 -0.19497714125E+03  0.49493466658E+03  0.45491124252E+03 0.  0.
      99925    2    3    3    0    0 -0.91625448739E+01 -0.54058197186E+02 -0.15121994977E+02  0.26909927818E+03  0.26301997238E+03 0.  0.
         25    1    4    4    0    0 -0.21680004149E+02 -0.47293685391E+02  0.23307519914E+02  0.13746804662E+03  0.12509000000E+03 0.  0.
         25    1    4    4    0    0  0.12517459275E+02 -0.67645117955E+01 -0.38429514891E+02  0.13163123156E+03  0.12509000000E+03 0.  0.
         25    1    3    3    0    0  0.91625448739E+01  0.54058197186E+02 -0.17985514627E+03  0.22583538840E+03  0.12509000000E+03 0.  0.
<mgrwt>
<rscale>  2 0.45491124E+03</rscale>
<asrwt>0</asrwt>
<pdfrwt beam="1">  1       21 0.22055701E-01 0.45491124E+03</pdfrwt>
<pdfrwt beam="2">  1       21 0.50728808E-01 0.45491124E+03</pdfrwt>
<totfact> 0.65674258E+04</totfact>
</mgrwt>
</event>
<event>
 6    0  0.4714446E-002  0.4430491E+03  0.7546771E-02  0.1029815E+00
         21   -1    0    0  502  501  0.00000000000E+00  0.00000000000E+00  0.27141082531E+03  0.27141082531E+03  0.00000000000E+00 0.  1.
         21   -1    0    0  501  502 -0.00000000000E+00 -0.00000000000E+00 -0.18080751931E+03  0.18080751931E+03  0.00000000000E+00 0.  1.
      99926    2    1    2    0    0  0.88817841970E-15  0.00000000000E+00  0.90603306008E+02  0.45221834462E+03  0.44304906292E+03 0.  0.
         25    1    3    3    0    0 -0.77443792197E+01 -0.96459370974E+02  0.53735812953E+02  0.16703122867E+03  0.12509000000E+03 0.  0.
         25    1    3    3    0    0 -0.71418117199E+01  0.24637532529E+02 -0.20338235558E+02  0.12930261177E+03  0.12509000000E+03 0.  0.
         25    1    3    3    0    0  0.14886190940E+02  0.71821838445E+02  0.57205728613E+02  0.15588450418E+03  0.12509000000E+03 0.  0.
<mgrwt>
<rscale>  2 0.44304906E+03</rscale>
<asrwt>0</asrwt>
<pdfrwt beam="1">  1       21 0.39913357E-01 0.44304906E+03</pdfrwt>
<pdfrwt beam="2">  1       21 0.26589341E-01 0.44304906E+03</pdfrwt>
<totfact> 0.75707881E+04</totfact>
</mgrwt>
</event>
<event>
 7    0  0.4714446E-002  0.4529653E+03  0.7546771E-02  0.1026841E+00
         21   -1    0    0  502  501  0.00000000000E+00  0.00000000000E+00  0.60659618449E+03  0.60659618449E+03  0.00000000000E+00 0.  1.
         21   -1    0    0  501  502 -0.00000000000E+00 -0.00000000000E+00 -0.84561015597E+02  0.84561015597E+02  0.00000000000E+00 0.  1.
      99926    2    1    2    0    0  0.17763568394E-14  0.00000000000E+00  0.52203516889E+03  0.69115720009E+03  0.45296529411E+03 0.  0.
      99925    2    3    3    0    0 -0.14620193613E+02  0.11016798472E+03  0.32046936896E+03  0.42918961674E+03  0.26296839308E+03 0.  0.
         25    1    3    3    0    0  0.14620193613E+02 -0.11016798472E+03  0.20156579994E+03  0.26196758335E+03  0.12509000000E+03 0.  0.
         25    1    4    4    0    0 -0.16807949572E+02  0.34314751318E+02  0.20333150827E+03  0.24176687053E+03  0.12509000000E+03 0.  0.
         25    1    4    4    0    0  0.21877559594E+01  0.75853233406E+02  0.11713786068E+03  0.18742274622E+03  0.12509000000E+03 0.  0.
<mgrwt>
<rscale>  2 0.45296529E+03</rscale>
<asrwt>0</asrwt>
<pdfrwt beam="1">  1       21 0.89205319E-01 0.45296529E+03</pdfrwt>
<pdfrwt beam="2">  1       21 0.12435444E-01 0.45296529E+03</pdfrwt>
<totfact> 0.54249462E+04</totfact>
</mgrwt>
</event>
<event>
 7    0  0.4714446E-002  0.4323213E+03  0.7546771E-02  0.1033129E+00
         21   -1    0    0  502  501  0.00000000000E+00  0.00000000000E+00  0.73476479501E+02  0.73476479501E+02  0.00000000000E+00 0. -1.
         21   -1    0    0  501  502 -0.00000000000E+00 -0.00000000000E+00 -0.63592353958E+03  0.63592353958E+03  0.00000000000E+00 0. -1.
      99926    2    1    2    0    0  0.35527136788E-14  0.00000000000E+00 -0.56244706008E+03  0.70940001909E+03  0.43232128294E+03 0.  0.
      99925    2    3    3    0    0 -0.21638209970E+02 -0.81570550463E+02 -0.30629605288E+03  0.41210754790E+03  0.26247550779E+03 0.  0.
         25    1    3    3    0    0  0.21638209970E+02  0.81570550463E+02 -0.25615100721E+03  0.29729247119E+03  0.12509000000E+03 0.  0.
         25    1    4    4    0    0 -0.35883734736E+02 -0.67341616761E+02 -0.13654622789E+03  0.20028708450E+03  0.12509000000E+03 0.  0.
         25    1    4    4    0    0  0.14245524766E+02 -0.14228933702E+02 -0.16974982499E+03  0.21182046340E+03  0.12509000000E+03 0.  0.
<mgrwt>
<rscale>  2 0.43232128E+03</rscale>
<asrwt>0</asrwt>
<pdfrwt beam="1">  1       21 0.10805365E-01 0.43232128E+03</pdfrwt>
<pdfrwt beam="2">  1       21 0.93518166E-01 0.43232128E+03</pdfrwt>
<totfact> 0.62887546E+04</totfact>
</mgrwt>
</event>
<event>
 7    0  0.4714446E-002  0.4526175E+03  0.7546771E-02  0.1026944E+00
         21   -1    0    0  502  501  0.00000000000E+00  0.00000000000E+00  0.48935915074E+03  0.48935915074E+03  0.00000000000E+00 0.  1.
         21   -1    0    0  501  502 -0.00000000000E+00 -0.00000000000E+00 -0.10465860229E+03  0.10465860229E+03  0.00000000000E+00 0.  1.
      99926    2    1    2    0    0  0.00000000000E+00  0.00000000000E+00  0.38470054845E+03  0.59401775303E+03  0.45261747529E+03 0.  0.
      99925    2    3    3    0    0 -0.92750867060E+02 -0.52870276875E+02  0.28357345092E+03  0.40095769121E+03  0.26259318071E+03 0.  0.
         25    1    4    4    0    0 -0.22358380168E+02 -0.54749123089E+02  0.11825533408E+03  0.18201427357E+03  0.12509000000E+03 0.  0.
         25    1    3    3    0    0  0.92750867060E+02  0.52870276875E+02  0.10112709753E+03  0.19306006182E+03  0.12509000000E+03 0.  0.
         25    1    4    4    0    0 -0.70392486892E+02  0.18788462140E+01  0.16531811683E+03  0.21894341764E+03  0.12509000000E+03 0.  0.
<mgrwt>
<rscale>  2 0.45261748E+03</rscale>
<asrwt>0</asrwt>
<pdfrwt beam="1">  1       21 0.71964580E-01 0.45261748E+03</pdfrwt>
<pdfrwt beam="2">  1       21 0.15390971E-01 0.45261748E+03</pdfrwt>
<totfact> 0.60172966E+04</totfact>
</mgrwt>
</event>
<event>
 7    0  0.4714446E-002  0.4542940E+03  0.7546771E-02  0.1026449E+00
         21   -1    0    0  502  501  0.00000000000E+00  0.00000000000E+00  0.46149928744E+03  0.46149928744E+03  0.00000000000E+00 0. -1.
         21   -1    0    0  501  502 -0.00000000000E+00 -0.00000000000E+00 -0.11180032176E+03  0.11180032176E+03  0.00000000000E+00 0. -1.
      99926    2    1    2    0    0  0.00000000000E+00  0.00000000000E+00  0.34969896568E+03  0.57329960920E+03  0.45429404059E+03 0.  0.
      99925    2    3    3    0    0 -0.10642105463E+03 -0.35316039140E+02  0.21010807175E+03  0.35488305933E+03  0.26310439088E+03 0.  0.
         25    1    4    4    0    0 -0.13415111917E+02 -0.59747867380E+01  0.75463422580E+02  0.14682608607E+03  0.12509000000E+03 0.  0.
         25    1    4    4    0    0 -0.93005942710E+02 -0.29341252402E+02  0.13464464917E+03  0.20805697326E+03  0.12509000000E+03 0.  0.
         25    1    3    3    0    0  0.10642105463E+03  0.35316039140E+02  0.13959089393E+03  0.21841654987E+03  0.12509000000E+03 0.  0.
<mgrwt>
<rscale>  2 0.45429404E+03</rscale>
<asrwt>0</asrwt>
<pdfrwt beam="1">  1       21 0.67867542E-01 0.45429404E+03</pdfrwt>
<pdfrwt beam="2">  1       21 0.16441224E-01 0.45429404E+03</pdfrwt>
<totfact> 0.60690675E+04</totfact>
</mgrwt>
</event>
<event>
 7    0  0.4714446E-002  0.4568177E+03  0.7546771E-02  0.1025708E+00
         21   -1    0    0  502  501  0.00000000000E+00  0.00000000000E+00  0.15394785764E+03  0.15394785764E+03  0.00000000000E+00 0.  1.
         21   -1    0    0  501  502 -0.00000000000E+00 -0.00000000000E+00 -0.33888492381E+03  0.33888492381E+03  0.00000000000E+00 0.  1.
      99926    2    1    2    0    0  0.00000000000E+00  0.00000000000E+00 -0.18493706617E+03  0.49283278144E+03  0.45681772297E+03 0.  0.
      99925    2    3    3    0    0  0.53336176484E+02 -0.93142624640E+02 -0.72211218460E+02  0.29314572355E+03  0.26305828046E+03 0.  0.
         25    1    4    4    0    0  0.38559528081E+02 -0.54676260229E+02 -0.76897389671E+02  0.16135999280E+03  0.12509000000E+03 0.  0.
         25    1    4    4    0    0  0.14776648404E+02 -0.38466364410E+02  0.46861712114E+01  0.13178573075E+03  0.12509000000E+03 0.  0.
         25    1    3    3    0    0 -0.53336176484E+02  0.93142624640E+02 -0.11272584771E+03  0.19968705789E+03  0.12509000000E+03 0.  0.
<mgrwt>
<rscale>  2 0.45681772E+03</rscale>
<asrwt>0</asrwt>
<pdfrwt beam="1">  1       21 0.22639391E-01 0.45681772E+03</pdfrwt>
<pdfrwt beam="2">  1       21 0.49836018E-01 0.45681772E+03</pdfrwt>
<totfact> 0.64836493E+04</totfact>
</mgrwt>
</event>
<event>
 7    0  0.4714446E-002  0.4432861E+03  0.7546771E-02  0.1029743E+00
         21   -1    0    0  502  501  0.00000000000E+00  0.00000000000E+00  0.32587249672E+02  0.32587249672E+02  0.00000000000E+00 0. -1.
         21   -1    0    0  501  502 -0.00000000000E+00 -0.00000000000E+00 -0.15075112117E+04  0.15075112117E+04  0.00000000000E+00 0. -1.
      99926    2    1    2    0    0  0.00000000000E+00  0.00000000000E+00 -0.14749239620E+04  0.15400984614E+04  0.44328611184E+03 0.  0.
      99925    2    3    3    0    0 -0.50104818296E+02 -0.76156838658E+02 -0.78389530209E+03  0.83194701298E+03  0.26331280047E+03 0.  0.
         25    1    4    4    0    0 -0.23819196199E+02 -0.74422395878E+02 -0.35538544955E+03  0.38477574373E+03  0.12509000000E+03 0.  0.
         25    1    3    3    0    0  0.50104818296E+02  0.76156838658E+02 -0.69102865995E+03  0.70815144840E+03  0.12509000000E+03 0.  0.
         25    1    4    4    0    0 -0.26285622098E+02 -0.17344427796E+01 -0.42850985254E+03  0.44717126925E+03  0.12509000000E+03 0.  0.
<mgrwt>
<rscale>  2 0.44328611E+03</rscale>
<asrwt>0</asrwt>
<pdfrwt beam="1">  1       21 0.47922425E-02 0.44328611E+03</pdfrwt>
<pdfrwt beam="2">  1       21 0.22169283E+00 0.44328611E+03</pdfrwt>
<totfact> 0.25012679E+04</totfact>
</mgrwt>
</event>
<event>
 7    0  0.4714446E-002  0.4513625E+03  0.7546771E-02  0.1027317E+00
         21   -1    0    0  502  501  0.00000000000E+00  0.00000000000E+00  0.14427957868E+04  0.14427957868E+04  0.00000000000E+00 0. -1.
         21   -1    0    0  501  502 -0.00000000000E+00 -0.00000000000E+00 -0.35300928190E+02  0.35300928190E+02  0.00000000000E+00 0. -1.
      99926    2    1    2    0    0  0.00000000000E+00  0.00000000000E+00  0.14074948586E+04  0.14780967150E+04  0.45136251711E+03 0.  0.
      99925    2    3    3    0    0  0.44579736078E+02  0.34164417452E+02  0.11975781965E+04  0.12273636429E+04  0.26281821666E+03 0.  0.
         25    1    4    4    0    0  0.49004822317E+02  0.46179588201E+02  0.58363286263E+03  0.60067366632E+03  0.12509000000E+03 0.  0.
         25    1    4    4    0    0 -0.44250862385E+01 -0.12015170749E+02  0.61394533384E+03  0.62668997659E+03  0.12509000000E+03 0.  0.
         25    1    3    3    0    0 -0.44579736078E+02 -0.34164417452E+02  0.20991666217E+03  0.25073307210E+03  0.12509000000E+03 0.  0.
<mgrwt>
<rscale>  2 0.45136252E+03</rscale>
<asrwt>0</asrwt>
<pdfrwt beam="1">  1       21 0.21217581E+00 0.45136252E+03</pdfrwt>
<pdfrwt beam="2">  1       21 0.51913139E-02 0.45136252E+03</pdfrwt>
<totfact> 0.25020627E+04</totfact>
</mgrwt>
</event>
<event>
 7    0  0.4714446E-002  0.4647098E+03  0.7546771E-02  0.1023424E+00
         21   -1    0    0  502  501  0.00000000000E+00  0.00000000000E+00  0.79763003810E+02  0.79763003810E+02  0.00000000000E+00 0. -1.
         21   -1    0    0  501  502 -0.00000000000E+00 -0.00000000000E+00 -0.67686515087E+03  0.67686515087E+03  0.00000000000E+00 0. -1.
      99926    2    1    2    0    0  0.00000000000E+00  0.00000000000E+00 -0.59710214706E+03  0.75662815468E+03  0.46470979162E+03 0.  0.
      99925    2    3    3    0    0 -0.99426212206E+02 -0.68557984834E+02 -0.34313722959E+03  0.44884339813E+03  0.26292863814E+03 0.  0.
         25    1    4    4    0    0 -0.39534775173E+02 -0.22308401458E+02 -0.10542414727E+03  0.16977167653E+03  0.12509000000E+03 0.  0.
         25    1    3    3    0    0  0.99426212206E+02  0.68557984834E+02 -0.25396491747E+03  0.30778475655E+03  0.12509000000E+03 0.  0.
         25    1    4    4    0    0 -0.59891437034E+02 -0.46249583375E+02 -0.23771308232E+03  0.27907172160E+03  0.12509000000E+03 0.  0.
<mgrwt>
<rscale>  2 0.46470979E+03</rscale>
<asrwt>0</asrwt>
<pdfrwt beam="1">  1       21 0.11729854E-01 0.46470979E+03</pdfrwt>
<pdfrwt beam="2">  1       21 0.99538992E-01 0.46470979E+03</pdfrwt>
<totfact> 0.46298835E+04</totfact>
</mgrwt>
</event>
<event>
 7    0  0.4714446E-002  0.4551250E+03  0.7546771E-02  0.1026205E+00
         21   -1    0    0  502  501  0.00000000000E+00  0.00000000000E+00  0.11456408938E+03  0.11456408938E+03  0.00000000000E+00 0.  1.
         21   -1    0    0  501  502 -0.00000000000E+00 -0.00000000000E+00 -0.45201507138E+03  0.45201507138E+03  0.00000000000E+00 0.  1.
      99926    2    1    2    0    0  0.00000000000E+00  0.00000000000E+00 -0.33745098200E+03  0.56657916075E+03  0.45512501596E+03 0.  0.
      99925    2    3    3    0    0 -0.17067536388E+02 -0.44985225385E+02 -0.84780687613E+02  0.28056385161E+03  0.26308428029E+03 0.  0.
         25    1    4    4    0    0  0.18473871169E+02 -0.50467439480E+02 -0.30371775948E+02  0.13949264940E+03  0.12509000000E+03 0.  0.
         25    1    3    3    0    0  0.17067536388E+02  0.44985225385E+02 -0.25267029439E+03  0.28601530915E+03  0.12509000000E+03 0.  0.
         25    1    4    4    0    0 -0.35541407557E+02  0.54822140946E+01 -0.54408911665E+02  0.14107120220E+03  0.12509000000E+03 0.  0.
<mgrwt>
<rscale>  2 0.45512502E+03</rscale>
<asrwt>0</asrwt>
<pdfrwt beam="1">  1       21 0.16847660E-01 0.45512502E+03</pdfrwt>
<pdfrwt beam="2">  1       21 0.66472806E-01 0.45512502E+03</pdfrwt>
<totfact> 0.60724000E+04</totfact>
</mgrwt>
</event>
<event>
 7    0  0.4714446E-002  0.4528574E+03  0.7546771E-02  0.1026873E+00
         21   -1    0    0  502  501  0.00000000000E+00  0.00000000000E+00  0.35633505766E+03  0.35633505766E+03  0.00000000000E+00 0.  1.
         21   -1    0    0  501  502 -0.00000000000E+00 -0.00000000000E+00 -0.14388134136E+03  0.14388134136E+03  0.00000000000E+00 0.  1.
      99926    2    1    2    0    0 -0.71054273576E-14  0.00000000000E+00  0.21245371630E+03  0.50021639902E+03  0.45285744366E+03 0.  0.
      99925    2    3    3    0    0  0.52623963255E+02  0.82867564482E+02  0.19156393086E+03  0.33984119524E+03  0.26298095677E+03 0.  0.
         25    1    4    4    0    0  0.63974748721E+02  0.59936794232E+02  0.11181252202E+03  0.18930064965E+03  0.12509000000E+03 0.  0.
         25    1    3    3    0    0 -0.52623963255E+02 -0.82867564482E+02  0.20889785439E+02  0.16037520378E+03  0.12509000000E+03 0.  0.
         25    1    4    4    0    0 -0.11350785466E+02  0.22930770251E+02  0.79751408837E+02  0.15054054559E+03  0.12509000000E+03 0.  0.
<mgrwt>
<rscale>  2 0.45285744E+03</rscale>
<asrwt>0</asrwt>
<pdfrwt beam="1">  1       21 0.52402214E-01 0.45285744E+03</pdfrwt>
<pdfrwt beam="2">  1       21 0.21159021E-01 0.45285744E+03</pdfrwt>
<totfact> 0.66377196E+04</totfact>
</mgrwt>
</event>
<event>
 7    0  0.4714446E-002  0.4707887E+03  0.7546771E-02  0.1021698E+00
         21   -1    0    0  502  501  0.00000000000E+00  0.00000000000E+00  0.20573796660E+03  0.20573796660E+03  0.00000000000E+00 0.  1.
         21   -1    0    0  501  502 -0.00000000000E+00 -0.00000000000E+00 -0.26932557672E+03  0.26932557672E+03  0.00000000000E+00 0.  1.
      99926    2    1    2    0    0  0.00000000000E+00  0.00000000000E+00 -0.63587610121E+02  0.47506354331E+03  0.47078868511E+03 0.  0.
      99925    2    3    3    0    0 -0.55853951325E+02  0.80609080693E+02 -0.12114663003E+03  0.30601314656E+03  0.26334398062E+03 0.  0.
         25    1    3    3    0    0  0.55853951325E+02 -0.80609080693E+02  0.57559019913E+02  0.16905039675E+03  0.12509000000E+03 0.  0.
         25    1    4    4    0    0 -0.44732917156E+02  0.82775535649E+01 -0.35841479996E+02  0.13784655077E+03  0.12509000000E+03 0.  0.
         25    1    4    4    0    0 -0.11121034169E+02  0.72331527129E+02 -0.85305150037E+02  0.16816659579E+03  0.12509000000E+03 0.  0.
<mgrwt>
<rscale>  2 0.47078869E+03</rscale>
<asrwt>0</asrwt>
<pdfrwt beam="1">  1       21 0.30255583E-01 0.47078869E+03</pdfrwt>
<pdfrwt beam="2">  1       21 0.39606702E-01 0.47078869E+03</pdfrwt>
<totfact> 0.59273547E+04</totfact>
</mgrwt>
</event>
<event>
 7    0  0.4714446E-002  0.4571502E+03  0.7546771E-02  0.1025611E+00
         21   -1    0    0  502  501  0.00000000000E+00  0.00000000000E+00  0.24639783647E+03  0.24639783647E+03  0.00000000000E+00 0.  1.
         21   -1    0    0  501  502 -0.00000000000E+00 -0.00000000000E+00 -0.21204151550E+03  0.21204151550E+03  0.00000000000E+00 0.  1.
      99926    2    1    2    0    0  0.14210854715E-13  0.71054273576E-14  0.34356320972E+02  0.45843935197E+03  0.45715017516E+03 0.  0.
      99925    2    3    3    0    0  0.72845126134E+02  0.36434045149E+02 -0.60082744052E+02  0.28180385964E+03  0.26300119226E+03 0.  0.
         25    1    3    3    0    0 -0.72845126134E+02 -0.36434045149E+02  0.94439065025E+02  0.17663549233E+03  0.12509000000E+03 0.  0.
         25    1    4    4    0    0  0.76972520624E+02  0.11139288781E+02 -0.39149566307E+02  0.15241079138E+03  0.12509000000E+03 0.  0.
         25    1    4    4    0    0 -0.41273944897E+01  0.25294756368E+02 -0.20933177745E+02  0.12939306827E+03  0.12509000000E+03 0.  0.
<mgrwt>
<rscale>  2 0.45715018E+03</rscale>
<asrwt>0</asrwt>
<pdfrwt beam="1">  1       21 0.36234976E-01 0.45715018E+03</pdfrwt>
<pdfrwt beam="2">  1       21 0.31182576E-01 0.45715018E+03</pdfrwt>
<totfact> 0.67135428E+04</totfact>
</mgrwt>
</event>
<event>
 7    0  0.4714446E-002  0.4502536E+03  0.7546771E-02  0.1027646E+00
         21   -1    0    0  502  501  0.00000000000E+00  0.00000000000E+00  0.14151170585E+03  0.14151170585E+03  0.00000000000E+00 0. -1.
         21   -1    0    0  501  502 -0.00000000000E+00 -0.00000000000E+00 -0.35814751934E+03  0.35814751934E+03  0.00000000000E+00 0. -1.
      99926    2    1    2    0    0 -0.35527136788E-14  0.00000000000E+00 -0.21663581349E+03  0.49965922518E+03  0.45025355704E+03 0.  0.
      99925    2    3    3    0    0 -0.26141834349E+02  0.10482030036E+03 -0.12571527596E+03  0.31102003754E+03  0.26316998740E+03 0.  0.
         25    1    3    3    0    0  0.26141834349E+02 -0.10482030036E+03 -0.90920537530E+02  0.18863918764E+03  0.12509000000E+03 0.  0.
         25    1    4    4    0    0 -0.21514133065E+02  0.12967716661E+02 -0.73335998482E+02  0.14716214313E+03  0.12509000000E+03 0.  0.
         25    1    4    4    0    0 -0.46277012836E+01  0.91852583698E+02 -0.52379277479E+02  0.16385789441E+03  0.12509000000E+03 0.  0.
<mgrwt>
<rscale>  2 0.45025356E+03</rscale>
<asrwt>0</asrwt>
<pdfrwt beam="1">  1       21 0.20810545E-01 0.45025356E+03</pdfrwt>
<pdfrwt beam="2">  1       21 0.52668752E-01 0.45025356E+03</pdfrwt>
<totfact> 0.67813764E+04</totfact>
</mgrwt>
</event>
<event>
 7    0  0.4714446E-002  0.4419857E+03  0.7546771E-02  0.1030139E+00
         21   -1    0    0  502  501  0.00000000000E+00  0.00000000000E+00  0.10511022611E+04  0.10511022611E+04  0.00000000000E+00 0. -1.
         21   -1    0    0  501  502 -0.00000000000E+00 -0.00000000000E+00 -0.46463449575E+02  0.46463449575E+02  0.00000000000E+00 0. -1.
      99926    2    1    2    0    0  0.17763568394E-14  0.00000000000E+00  0.10046388116E+04  0.10975657107E+04  0.44198568714E+03 0.  0.
      99925    2    3    3    0    0 -0.11742814789E+02 -0.16309715586E+02  0.39550221358E+03  0.47539306295E+03  0.26300696347E+03 0.  0.
         25    1    3    3    0    0  0.11742814789E+02  0.16309715586E+02  0.60913659798E+03  0.62217264776E+03  0.12509000000E+03 0.  0.
         25    1    4    4    0    0  0.10451448510E+02 -0.37901808557E+02  0.15929786036E+03  0.20632279633E+03  0.12509000000E+03 0.  0.
         25    1    4    4    0    0 -0.22194263299E+02  0.21592092971E+02  0.23620435322E+03  0.26907026662E+03  0.12509000000E+03 0.  0.
<mgrwt>
<rscale>  2 0.44198569E+03</rscale>
<asrwt>0</asrwt>
<pdfrwt beam="1">  1       21 0.15457385E+00 0.44198569E+03</pdfrwt>
<pdfrwt beam="2">  1       21 0.68328609E-02 0.44198569E+03</pdfrwt>
<totfact> 0.39432657E+04</totfact>
</mgrwt>
</event>
<event>
 7    0  0.4714446E-002  0.4613805E+03  0.7546771E-02  0.1024382E+00
         21   -1    0    0  502  501  0.00000000000E+00  0.00000000000E+00  0.23485599322E+03  0.23485599322E+03  0.00000000000E+00 0. -1.
         21   -1    0    0  501  502 -0.00000000000E+00 -0.00000000000E+00 -0.22659834920E+03  0.22659834920E+03  0.00000000000E+00 0. -1.
      99926    2    1    2    0    0  0.00000000000E+00 -0.71054273576E-14  0.82576440177E+01  0.46145434242E+03  0.46138045197E+03 0.  0.
      99925    2    3    3    0    0 -0.87393914901E+02 -0.59473371006E+02 -0.49915723311E+02  0.28765437986E+03  0.26282824163E+03 0.  0.
         25    1    3    3    0    0  0.87393914901E+02  0.59473371006E+02  0.58173367329E+02  0.17379996256E+03  0.12509000000E+03 0.  0.
         25    1    4    4    0    0 -0.32617362746E+02 -0.53204996310E+02  0.60883068945E+01  0.13992583595E+03  0.12509000000E+03 0.  0.
         25    1    4    4    0    0 -0.54776552155E+02 -0.62683746956E+01 -0.56004030206E+02  0.14772854391E+03  0.12509000000E+03 0.  0.
<mgrwt>
<rscale>  2 0.46138045E+03</rscale>
<asrwt>0</asrwt>
<pdfrwt beam="1">  1       21 0.34537646E-01 0.46138045E+03</pdfrwt>
<pdfrwt beam="2">  1       21 0.33323286E-01 0.46138045E+03</pdfrwt>
<totfact> 0.64717508E+04</totfact>
</mgrwt>
</event>
<event>
 7    0  0.4714446E-002  0.4558183E+03  0.7546771E-02  0.1026001E+00
         21   -1    0    0  502  501  0.00000000000E+00  0.00000000000E+00  0.38205836109E+03  0.38205836109E+03  0.00000000000E+00 0. -1.
         21   -1    0    0  501  502 -0.00000000000E+00 -0.00000000000E+00 -0.13595458049E+03  0.13595458049E+03  0.00000000000E+00 0. -1.
      99926    2    1    2    0    0  0.00000000000E+00  0.14210854715E-13  0.24610378061E+03  0.51801294158E+03  0.45581831558E+03 0.  0.
      99925    2    3    3    0    0  0.64298395707E+02  0.73548541005E+02  0.87448026623E+02  0.29359630239E+03  0.26269366159E+03 0.  0.
         25    1    4    4    0    0  0.57509037081E+02  0.21837148460E+02  0.15784417781E+02  0.14028829724E+03  0.12509000000E+03 0.  0.
         25    1    3    3    0    0 -0.64298395707E+02 -0.73548541005E+02  0.15865575398E+03  0.22441663919E+03  0.12509000000E+03 0.  0.
         25    1    4    4    0    0  0.67893586261E+01  0.51711392545E+02  0.71663608841E+02  0.15330800515E+03  0.12509000000E+03 0.  0.
<mgrwt>
<rscale>  2 0.45581832E+03</rscale>
<asrwt>0</asrwt>
<pdfrwt beam="1">  1       21 0.56185053E-01 0.45581832E+03</pdfrwt>
<pdfrwt beam="2">  1       21 0.19993321E-01 0.45581832E+03</pdfrwt>
<totfact> 0.63608848E+04</totfact>
</mgrwt>
</event>
<event>
 7    0  0.4714446E-002  0.4047793E+03  0.7546771E-02  0.1042137E+00
         21   -1    0    0  502  501  0.00000000000E+00  0.00000000000E+00  0.32745052134E+02  0.32745052134E+02  0.00000000000E+00 0.  1.
         21   -1    0    0  501  502 -0.00000000000E+00 -0.00000000000E+00 -0.12509241928E+04  0.12509241928E+04  0.00000000000E+00 0.  1.
      99926    2    1    2    0    0 -0.71054273576E-14  0.00000000000E+00 -0.12181791407E+04  0.12836692449E+04  0.40477933697E+03 0.  0.
      99925    2    3    3    0    0  0.49298718305E+02  0.21424390518E+02 -0.82880539628E+03  0.87117828861E+03  0.26295219622E+03 0.  0.
         25    1    3    3    0    0 -0.49298718305E+02 -0.21424390518E+02 -0.38937374440E+03  0.41249095634E+03  0.12509000000E+03 0.  0.
         25    1    4    4    0    0 -0.99656454123E+01  0.12200490242E+02 -0.32424468897E+03  0.34789408227E+03  0.12509000000E+03 0.  0.
         25    1    4    4    0    0  0.59264363718E+02  0.92239002760E+01 -0.50456070731E+03  0.52328420634E+03  0.12509000000E+03 0.  0.
<mgrwt>
<rscale>  2 0.40477934E+03</rscale>
<asrwt>0</asrwt>
<pdfrwt beam="1">  1       21 0.48154494E-02 0.40477934E+03</pdfrwt>
<pdfrwt beam="2">  1       21 0.18395942E+00 0.40477934E+03</pdfrwt>
<totfact> 0.44652314E+04</totfact>
</mgrwt>
</event>
<event>
 7    0  0.4714446E-002  0.4564609E+03  0.7546771E-02  0.1025813E+00
         21   -1    0    0  502  501  0.00000000000E+00  0.00000000000E+00  0.66431700742E+03  0.66431700742E+03  0.00000000000E+00 0. -1.
         21   -1    0    0  501  502 -0.00000000000E+00 -0.00000000000E+00 -0.78410069808E+02  0.78410069808E+02  0.00000000000E+00 0. -1.
      99926    2    1    2    0    0  0.00000000000E+00  0.00000000000E+00  0.58590693761E+03  0.74272707723E+03  0.45646092024E+03 0.  0.
      99925    2    3    3    0    0 -0.10398696277E+03  0.30759248788E+02  0.42812136476E+03  0.51402811590E+03  0.26301631349E+03 0.  0.
         25    1    4    4    0    0 -0.67362245553E+02  0.40951754050E+02  0.27863507140E+03  0.31543577698E+03  0.12509000000E+03 0.  0.
         25    1    3    3    0    0  0.10398696277E+03 -0.30759248788E+02  0.15778557285E+03  0.22869896132E+03  0.12509000000E+03 0.  0.
         25    1    4    4    0    0 -0.36624717217E+02 -0.10192505262E+02  0.14948629336E+03  0.19859233892E+03  0.12509000000E+03 0.  0.
<mgrwt>
<rscale>  2 0.45646092E+03</rscale>
<asrwt>0</asrwt>
<pdfrwt beam="1">  1       21 0.97693675E-01 0.45646092E+03</pdfrwt>
<pdfrwt beam="2">  1       21 0.11530893E-01 0.45646092E+03</pdfrwt>
<totfact> 0.50066328E+04</totfact>
</mgrwt>
</event>
<event>
 7    0  0.4714446E-002  0.4593609E+03  0.7546771E-02  0.1024967E+00
         21   -1    0    0  502  501  0.00000000000E+00  0.00000000000E+00  0.11383284771E+03  0.11383284771E+03  0.00000000000E+00 0.  1.
         21   -1    0    0  501  502 -0.00000000000E+00 -0.00000000000E+00 -0.46342601217E+03  0.46342601217E+03  0.00000000000E+00 0.  1.
      99926    2    1    2    0    0 -0.14210854715E-13  0.00000000000E+00 -0.34959316446E+03  0.57725885988E+03  0.45936087195E+03 0.  0.
      99925    2    3    3    0    0  0.11439362001E+03  0.14753711933E+02 -0.24565529322E+03  0.37787440338E+03  0.26294290128E+03 0.  0.
         25    1    4    4    0    0  0.91051182668E+02  0.78749280405E+01 -0.16854255312E+03  0.22892451304E+03  0.12509000000E+03 0.  0.
         25    1    4    4    0    0  0.23342437347E+02  0.68787838922E+01 -0.77112740097E+02  0.14894989035E+03  0.12509000000E+03 0.  0.
         25    1    3    3    0    0 -0.11439362001E+03 -0.14753711933E+02 -0.10393787124E+03  0.19938445650E+03  0.12509000000E+03 0.  0.
<mgrwt>
<rscale>  2 0.45936087E+03</rscale>
<asrwt>0</asrwt>
<pdfrwt beam="1">  1       21 0.16740125E-01 0.45936087E+03</pdfrwt>
<pdfrwt beam="2">  1       21 0.68150884E-01 0.45936087E+03</pdfrwt>
<totfact> 0.58072037E+04</totfact>
</mgrwt>
</event>
<event>
 7    0  0.4714446E-002  0.4520960E+03  0.7546771E-02  0.1027099E+00
         21   -1    0    0  502  501  0.00000000000E+00  0.00000000000E+00  0.46157399175E+02  0.46157399175E+02  0.00000000000E+00 0.  1.
         21   -1    0    0  501  502 -0.00000000000E+00 -0.00000000000E+00 -0.11070314134E+04  0.11070314134E+04  0.00000000000E+00 0.  1.
      99926    2    1    2    0    0  0.00000000000E+00  0.00000000000E+00 -0.10608740142E+04  0.11531888126E+04  0.45209596701E+03 0.  0.
      99925    2    3    3    0    0  0.85026621240E+02 -0.70796992852E+02 -0.65983606430E+03  0.71876887070E+03  0.26268482488E+03 0.  0.
         25    1    3    3    0    0 -0.85026621240E+02  0.70796992852E+02 -0.40103794990E+03  0.43441994185E+03  0.12509000000E+03 0.  0.
         25    1    4    4    0    0  0.12628693273E+02 -0.35242906516E+02 -0.23829845391E+03  0.27172634688E+03  0.12509000000E+03 0.  0.
         25    1    4    4    0    0  0.72397927966E+02 -0.35554086336E+02 -0.42153761040E+03  0.44704252383E+03  0.12509000000E+03 0.  0.
<mgrwt>
<rscale>  2 0.45209597E+03</rscale>
<asrwt>0</asrwt>
<pdfrwt beam="1">  1       21 0.67878546E-02 0.45209597E+03</pdfrwt>
<pdfrwt beam="2">  1       21 0.16279869E+00 0.45209597E+03</pdfrwt>
<totfact> 0.34449170E+04</totfact>
</mgrwt>
</event>
<event>
 7    0  0.4714446E-002  0.4022755E+03  0.7546771E-02  0.1042995E+00
         21   -1    0    0  502  501  0.00000000000E+00  0.00000000000E+00  0.13241377976E+03  0.13241377976E+03  0.00000000000E+00 0. -1.
         21   -1    0    0  501  502 -0.00000000000E+00 -0.00000000000E+00 -0.30553007925E+03  0.30553007925E+03  0.00000000000E+00 0. -1.
      99926    2    1    2    0    0  0.00000000000E+00  0.00000000000E+00 -0.17311629950E+03  0.43794385901E+03  0.40227549080E+03 0.  0.
      99925    2    3    3    0    0  0.11169732033E+02 -0.14947019167E+02 -0.16639152904E+03  0.31129115698E+03  0.26242687968E+03 0.  0.
         25    1    4    4    0    0  0.39638325771E+02  0.53493041648E+01 -0.10220401548E+03  0.16641208131E+03  0.12509000000E+03 0.  0.
         25    1    3    3    0    0 -0.11169732033E+02  0.14947019167E+02 -0.67247704581E+01  0.12665270204E+03  0.12509000000E+03 0.  0.
         25    1    4    4    0    0 -0.28468593739E+02 -0.20296323332E+02 -0.64187513561E+02  0.14487907567E+03  0.12509000000E+03 0.  0.
<mgrwt>
<rscale>  2 0.40227549E+03</rscale>
<asrwt>0</asrwt>
<pdfrwt beam="1">  1       21 0.19472615E-01 0.40227549E+03</pdfrwt>
<pdfrwt beam="2">  1       21 0.44930893E-01 0.40227549E+03</pdfrwt>
<totfact> 0.10876221E+05</totfact>
</mgrwt>
</event>
<event>
 7    0  0.4714446E-002  0.4611983E+03  0.7546771E-02  0.1024434E+00
         21   -1    0    0  502  501  0.00000000000E+00  0.00000000000E+00  0.34985572601E+02  0.34985572601E+02  0.00000000000E+00 0.  1.
         21   -1    0    0  501  502 -0.00000000000E+00 -0.00000000000E+00 -0.15199400025E+04  0.15199400025E+04  0.00000000000E+00 0.  1.
      99926    2    1    2    0    0  0.00000000000E+00 -0.17763568394E-14 -0.14849544299E+04  0.15549255751E+04  0.46119831443E+03 0.  0.
      99925    2    3    3    0    0  0.10675882819E+03  0.12501548674E+02 -0.75735560104E+03  0.80886840573E+03  0.26291986468E+03 0.  0.
         25    1    4    4    0    0  0.89704566486E+02  0.20970797358E+02 -0.46633917290E+03  0.49153475550E+03  0.12509000000E+03 0.  0.
         25    1    3    3    0    0 -0.10675882819E+03 -0.12501548674E+02 -0.72759882888E+03  0.74605716940E+03  0.12509000000E+03 0.  0.
         25    1    4    4    0    0  0.17054261706E+02 -0.84692486839E+01 -0.29101642815E+03  0.31733365023E+03  0.12509000000E+03 0.  0.
<mgrwt>
<rscale>  2 0.46119831E+03</rscale>
<asrwt>0</asrwt>
<pdfrwt beam="1">  1       21 0.51449367E-02 0.46119831E+03</pdfrwt>
<pdfrwt beam="2">  1       21 0.22352061E+00 0.46119831E+03</pdfrwt>
<totfact> 0.21414989E+04</totfact>
</mgrwt>
</event>
<event>
 7    0  0.4714446E-002  0.4399860E+03  0.7546771E-02  0.1030751E+00
         21   -1    0    0  502  501  0.00000000000E+00  0.00000000000E+00  0.29451506566E+03  0.29451506566E+03  0.00000000000E+00 0. -1.
         21   -1    0    0  501  502 -0.00000000000E+00 -0.00000000000E+00 -0.16432747845E+03  0.16432747845E+03  0.00000000000E+00 0. -1.
      99926    2    1    2    0    0  0.00000000000E+00  0.00000000000E+00  0.13018758721E+03  0.45884254411E+03  0.43998599116E+03 0.  0.
      99925    2    3    3    0    0 -0.49372528358E+02 -0.83846513719E+02  0.98724226315E+02  0.29727108748E+03  0.26297479379E+03 0.  0.
         25    1    4    4    0    0 -0.17174658296E+02 -0.12813804746E+02  0.15138224644E+02  0.12781172257E+03  0.12509000000E+03 0.  0.
         25    1    4    4    0    0 -0.32197870061E+02 -0.71032708973E+02  0.83586001670E+02  0.16945936491E+03  0.12509000000E+03 0.  0.
         25    1    3    3    0    0  0.49372528358E+02  0.83846513719E+02  0.31463360894E+02  0.16157145663E+03  0.12509000000E+03 0.  0.
<mgrwt>
<rscale>  2 0.43998599E+03</rscale>
<asrwt>0</asrwt>
<pdfrwt beam="1">  1       21 0.43311039E-01 0.43998599E+03</pdfrwt>
<pdfrwt beam="2">  1       21 0.24165806E-01 0.43998599E+03</pdfrwt>
<totfact> 0.77051193E+04</totfact>
</mgrwt>
</event>
<event>
 7    0  0.4714446E-002  0.4607962E+03  0.7546771E-02  0.1024551E+00
         21   -1    0    0  502  501  0.00000000000E+00  0.00000000000E+00  0.49573678647E+02  0.49573678647E+02  0.00000000000E+00 0. -1.
         21   -1    0    0  501  502 -0.00000000000E+00 -0.00000000000E+00 -0.10707956543E+04  0.10707956543E+04  0.00000000000E+00 0. -1.
      99926    2    1    2    0    0  0.00000000000E+00  0.00000000000E+00 -0.10212219756E+04  0.11203693329E+04  0.46079617907E+03 0.  0.
      99925    2    3    3    0    0 -0.92783349695E+02 -0.56128361311E+02 -0.52268748067E+03  0.59506628354E+03  0.26294968423E+03 0.  0.
         25    1    4    4    0    0 -0.42689152980E+02 -0.35034313171E+02 -0.17860068119E+03  0.22493438667E+03  0.12509000000E+03 0.  0.
         25    1    4    4    0    0 -0.50094196715E+02 -0.21094048140E+02 -0.34408679947E+03  0.37013189687E+03  0.12509000000E+03 0.  0.
         25    1    3    3    0    0  0.92783349695E+02  0.56128361311E+02 -0.49853449494E+03  0.52530304937E+03  0.12509000000E+03 0.  0.
<mgrwt>
<rscale>  2 0.46079618E+03</rscale>
<asrwt>0</asrwt>
<pdfrwt beam="1">  1       21 0.72902468E-02 0.46079618E+03</pdfrwt>
<pdfrwt beam="2">  1       21 0.15746995E+00 0.46079618E+03</pdfrwt>
<totfact> 0.33258693E+04</totfact>
</mgrwt>
</event>
<event>
 7    0  0.4714446E-002  0.4594325E+03  0.7546771E-02  0.1024946E+00
         21   -1    0    0  502  501  0.00000000000E+00  0.00000000000E+00  0.30753175542E+03  0.30753175542E+03  0.00000000000E+00 0. -1.
         21   -1    0    0  501  502 -0.00000000000E+00 -0.00000000000E+00 -0.17159057086E+03  0.17159057086E+03  0.00000000000E+00 0. -1.
      99926    2    1    2    0    0 -0.14210854715E-13  0.00000000000E+00  0.13594118456E+03  0.47912232628E+03  0.45943247369E+03 0.  0.
      99925    2    3    3    0    0 -0.61062526281E+02  0.57245080159E+01  0.18946997146E+03  0.32987675270E+03  0.26297984671E+03 0.  0.
         25    1    3    3    0    0  0.61062526281E+02 -0.57245080159E+01 -0.53528786899E+02  0.14924557359E+03  0.12509000000E+03 0.  0.
         25    1    4    4    0    0  0.10819708207E+02 -0.11759269119E+01  0.90824711135E+02  0.15496801329E+03  0.12509000000E+03 0.  0.
         25    1    4    4    0    0 -0.71882234488E+02  0.69004349278E+01  0.98645260328E+02  0.17490873941E+03  0.12509000000E+03 0.  0.
<mgrwt>
<rscale>  2 0.45943247E+03</rscale>
<asrwt>0</asrwt>
<pdfrwt beam="1">  1       21 0.45225258E-01 0.45943247E+03</pdfrwt>
<pdfrwt beam="2">  1       21 0.25233908E-01 0.45943247E+03</pdfrwt>
<totfact> 0.64466238E+04</totfact>
</mgrwt>
</event>
<event>
 7    0  0.4714446E-002  0.4484265E+03  0.7546771E-02  0.1028192E+00
         21   -1    0    0  502  501  0.00000000000E+00  0.00000000000E+00  0.49872135523E+03  0.49872135523E+03  0.00000000000E+00 0.  1.
         21   -1    0    0  501  502 -0.00000000000E+00 -0.00000000000E+00 -0.10080093548E+03  0.10080093548E+03  0.00000000000E+00 0.  1.
      99926    2    1    2    0    0  0.00000000000E+00  0.00000000000E+00  0.39792041975E+03  0.59952229071E+03  0.44842648964E+03 0.  0.
      99925    2    3    3    0    0 -0.20340454231E+02  0.87093140427E+02  0.17373900110E+03  0.32766982015E+03  0.26302722548E+03 0.  0.
         25    1    3    3    0    0  0.20340454231E+02 -0.87093140427E+02  0.22418141864E+03  0.27185247056E+03  0.12509000000E+03 0.  0.
         25    1    4    4    0    0 -0.29117177453E+02  0.60045860071E+02  0.12937410834E+03  0.19193353887E+03  0.12509000000E+03 0.  0.
         25    1    4    4    0    0  0.87767232219E+01  0.27047280356E+02  0.44364892761E+02  0.13573628128E+03  0.12509000000E+03 0.  0.
<mgrwt>
<rscale>  2 0.44842649E+03</rscale>
<asrwt>0</asrwt>
<pdfrwt beam="1">  1       21 0.73341375E-01 0.44842649E+03</pdfrwt>
<pdfrwt beam="2">  1       21 0.14823667E-01 0.44842649E+03</pdfrwt>
<totfact> 0.61858428E+04</totfact>
</mgrwt>
</event>
<event>
 7    0  0.4714446E-002  0.4543668E+03  0.7546771E-02  0.1026428E+00
         21   -1    0    0  502  501  0.00000000000E+00  0.00000000000E+00  0.16414784757E+03  0.16414784757E+03  0.00000000000E+00 0.  1.
         21   -1    0    0  501  502 -0.00000000000E+00 -0.00000000000E+00 -0.31442567337E+03  0.31442567337E+03  0.00000000000E+00 0.  1.
      99926    2    1    2    0    0  0.00000000000E+00 -0.14210854715E-13 -0.15027782580E+03  0.47857352094E+03  0.45436680118E+03 0.  0.
      99925    2    3    3    0    0  0.36363188239E+02 -0.97261434171E+02 -0.49074751829E+02  0.28707511803E+03  0.26310021681E+03 0.  0.
         25    1    4    4    0    0  0.11064666075E+02 -0.90937811435E+02 -0.28728933879E+02  0.15768630925E+03  0.12509000000E+03 0.  0.
         25    1    3    3    0    0 -0.36363188239E+02  0.97261434171E+02 -0.10120307397E+03  0.19149840291E+03  0.12509000000E+03 0.  0.
         25    1    4    4    0    0  0.25298522164E+02 -0.63236227358E+01 -0.20345817950E+02  0.12938880878E+03  0.12509000000E+03 0.  0.
<mgrwt>
<rscale>  2 0.45436680E+03</rscale>
<asrwt>0</asrwt>
<pdfrwt beam="1">  1       21 0.24139389E-01 0.45436680E+03</pdfrwt>
<pdfrwt beam="2">  1       21 0.46239069E-01 0.45436680E+03</pdfrwt>
<totfact> 0.67140882E+04</totfact>
</mgrwt>
</event>
<event>
 7    0  0.4714446E-002  0.4589344E+03  0.7546771E-02  0.1025091E+00
         21   -1    0    0  502  501  0.00000000000E+00  0.00000000000E+00  0.27670960552E+03  0.27670960552E+03  0.00000000000E+00 0.  1.
         21   -1    0    0  501  502 -0.00000000000E+00 -0.00000000000E+00 -0.19029048277E+03  0.19029048277E+03  0.00000000000E+00 0.  1.
      99926    2    1    2    0    0  0.17763568394E-14 -0.35527136788E-14  0.86419122750E+02  0.46700008829E+03  0.45893443724E+03 0.  0.
      99925    2    3    3    0    0  0.15186409693E+02  0.50206645420E+01 -0.63553088591E+02  0.27105365075E+03  0.26301188643E+03 0.  0.
         25    1    3    3    0    0 -0.15186409693E+02 -0.50206645420E+01  0.14997221134E+03  0.19594643754E+03  0.12509000000E+03 0.  0.
         25    1    4    4    0    0  0.88699656576E+01 -0.29083354599E+02 -0.57810497727E+02  0.14111725463E+03  0.12509000000E+03 0.  0.
         25    1    4    4    0    0  0.63164440351E+01  0.34104019140E+02 -0.57425908633E+01  0.12993639612E+03  0.12509000000E+03 0.  0.
<mgrwt>
<rscale>  2 0.45893444E+03</rscale>
<asrwt>0</asrwt>
<pdfrwt beam="1">  1       21 0.40692589E-01 0.45893444E+03</pdfrwt>
<pdfrwt beam="2">  1       21 0.27983894E-01 0.45893444E+03</pdfrwt>
<totfact> 0.65586551E+04</totfact>
</mgrwt>
</event>
<event>
 7    0  0.4714446E-002  0.4632301E+03  0.7546771E-02  0.1023849E+00
         21   -1    0    0  502  501  0.00000000000E+00  0.00000000000E+00  0.15900591137E+03  0.15900591137E+03  0.00000000000E+00 0.  1.
         21   -1    0    0  501  502 -0.00000000000E+00 -0.00000000000E+00 -0.33738069357E+03  0.33738069357E+03  0.00000000000E+00 0.  1.
      99926    2    1    2    0    0  0.00000000000E+00  0.00000000000E+00 -0.17837478219E+03  0.49638660494E+03  0.46323007096E+03 0.  0.
      99925    2    3    3    0    0  0.18672228700E+02  0.67849349315E+02 -0.64195100398E+01  0.27240377066E+03  0.26307872935E+03 0.  0.
         25    1    3    3    0    0 -0.18672228700E+02 -0.67849349315E+02 -0.17195527215E+03  0.22398283427E+03  0.12509000000E+03 0.  0.
         25    1    4    4    0    0  0.44170080168E+02  0.44337132992E+02 -0.22255952437E+02  0.14163196272E+03  0.12509000000E+03 0.  0.
         25    1    4    4    0    0 -0.25497851468E+02  0.23512216323E+02  0.15836442397E+02  0.13077180795E+03  0.12509000000E+03 0.  0.
<mgrwt>
<rscale>  2 0.46323007E+03</rscale>
<asrwt>0</asrwt>
<pdfrwt beam="1">  1       21 0.23383223E-01 0.46323007E+03</pdfrwt>
<pdfrwt beam="2">  1       21 0.49614807E-01 0.46323007E+03</pdfrwt>
<totfact> 0.61413627E+04</totfact>
</mgrwt>
</event>
<event>
 7    0  0.4714446E-002  0.4563062E+03  0.7546771E-02  0.1025858E+00
         21   -1    0    0  502  501  0.00000000000E+00  0.00000000000E+00  0.15716857710E+03  0.15716857710E+03  0.00000000000E+00 0. -1.
         21   -1    0    0  501  502 -0.00000000000E+00 -0.00000000000E+00 -0.33119751453E+03  0.33119751453E+03  0.00000000000E+00 0. -1.
      99926    2    1    2    0    0  0.00000000000E+00 -0.14210854715E-13 -0.17402893743E+03  0.48836609164E+03  0.45630622218E+03 0.  0.
      99925    2    3    3    0    0  0.87087950844E+01 -0.11323422218E+03 -0.94952663032E+02  0.30182280589E+03  0.26302692971E+03 0.  0.
         25    1    3    3    0    0 -0.87087950844E+01  0.11323422218E+03 -0.79076274395E+02  0.18654328575E+03  0.12509000000E+03 0.  0.
         25    1    4    4    0    0 -0.22484955181E+02 -0.25083989259E+02 -0.54120616838E+02  0.14039704054E+03  0.12509000000E+03 0.  0.
         25    1    4    4    0    0  0.31193750265E+02 -0.88150232925E+02 -0.40832046194E+02  0.16142576534E+03  0.12509000000E+03 0.  0.
<mgrwt>
<rscale>  2 0.45630622E+03</rscale>
<asrwt>0</asrwt>
<pdfrwt beam="1">  1       21 0.23113026E-01 0.45630622E+03</pdfrwt>
<pdfrwt beam="2">  1       21 0.48705516E-01 0.45630622E+03</pdfrwt>
<totfact> 0.65415008E+04</totfact>
</mgrwt>
</event>
<event>
 7    0  0.4714446E-002  0.4547093E+03  0.7546771E-02  0.1026327E+00
         21   -1    0    0  502  501  0.00000000000E+00  0.00000000000E+00  0.94172402256E+03  0.94172402256E+03  0.00000000000E+00 0.  1.
         21   -1    0    0  501  502 -0.00000000000E+00 -0.00000000000E+00 -0.54888828386E+02  0.54888828386E+02  0.00000000000E+00 0.  1.
      99926    2    1    2    0    0  0.14210854715E-13 -0.71054273576E-14  0.88683519417E+03  0.99661285094E+03  0.45470926211E+03 0.  0.
      99925    2    3    3    0    0 -0.71166011053E+02  0.61376073099E+02  0.69526843618E+03  0.74927309606E+03  0.26302157831E+03 0.  0.
         25    1    4    4    0    0 -0.61075594619E+02  0.33632481834E+02  0.45192776784E+03  0.47407550827E+03  0.12509000000E+03 0.  0.
         25    1    4    4    0    0 -0.10090416433E+02  0.27743591264E+02  0.24334066834E+03  0.27519758779E+03  0.12509000000E+03 0.  0.
         25    1    3    3    0    0  0.71166011053E+02 -0.61376073099E+02  0.19156675799E+03  0.24733975488E+03  0.12509000000E+03 0.  0.
<mgrwt>
<rscale>  2 0.45470926E+03</rscale>
<asrwt>0</asrwt>
<pdfrwt beam="1">  1       21 0.13848882E+00 0.45470926E+03</pdfrwt>
<pdfrwt beam="2">  1       21 0.80718871E-02 0.45470926E+03</pdfrwt>
<totfact> 0.39388160E+04</totfact>
</mgrwt>
</event>
<event>
 7    0  0.4714446E-002  0.4588595E+03  0.7546771E-02  0.1025113E+00
         21   -1    0    0  502  501  0.00000000000E+00  0.00000000000E+00  0.20035325188E+03  0.20035325188E+03  0.00000000000E+00 0. -1.
         21   -1    0    0  501  502 -0.00000000000E+00 -0.00000000000E+00 -0.26272604393E+03  0.26272604393E+03  0.00000000000E+00 0. -1.
      99926    2    1    2    0    0  0.00000000000E+00 -0.35527136788E-14 -0.62372792054E+02  0.46307929581E+03  0.45885953081E+03 0.  0.
      99925    2    3    3    0    0  0.11334085636E+03  0.27579270259E+02 -0.34638868387E+02  0.28980654985E+03  0.26302322951E+03 0.  0.
         25    1    4    4    0    0  0.27590407340E+02 -0.18017355263E+02 -0.16488260803E+02  0.13040408932E+03  0.12509000000E+03 0.  0.
         25    1    3    3    0    0 -0.11334085636E+03 -0.27579270259E+02 -0.27733923667E+02  0.17327274596E+03  0.12509000000E+03 0.  0.
         25    1    4    4    0    0  0.85750449025E+02  0.45596625522E+02 -0.18150607583E+02  0.15940246053E+03  0.12509000000E+03 0.  0.
<mgrwt>
<rscale>  2 0.45885953E+03</rscale>
<asrwt>0</asrwt>
<pdfrwt beam="1">  1       21 0.29463714E-01 0.45885953E+03</pdfrwt>
<pdfrwt beam="2">  1       21 0.38636182E-01 0.45885953E+03</pdfrwt>
<totfact> 0.65904777E+04</totfact>
</mgrwt>
</event>
<event>
 7    0  0.4714446E-002  0.4180020E+03  0.7546771E-02  0.1037719E+00
         21   -1    0    0  502  501  0.00000000000E+00  0.00000000000E+00  0.27167827698E+03  0.27167827698E+03  0.00000000000E+00 0.  1.
         21   -1    0    0  501  502 -0.00000000000E+00 -0.00000000000E+00 -0.16078361867E+03  0.16078361867E+03  0.00000000000E+00 0.  1.
      99926    2    1    2    0    0  0.71054273576E-14  0.00000000000E+00  0.11089465831E+03  0.43246189565E+03  0.41800199276E+03 0.  0.
      99925    2    3    3    0    0  0.57730080529E+02  0.45170058769E+02  0.58791946772E+02  0.27839925561E+03  0.26206212262E+03 0.  0.
         25    1    3    3    0    0 -0.57730080529E+02 -0.45170058769E+02  0.52102711535E+02  0.15406264004E+03  0.12509000000E+03 0.  0.
         25    1    4    4    0    0  0.45328001417E+02  0.30166867269E+02 -0.52487734628E+01  0.13652737936E+03  0.12509000000E+03 0.  0.
         25    1    4    4    0    0  0.12402079112E+02  0.15003191500E+02  0.64040720234E+02  0.14187187625E+03  0.12509000000E+03 0.  0.
<mgrwt>
<rscale>  2 0.41800199E+03</rscale>
<asrwt>0</asrwt>
<pdfrwt beam="1">  1       21 0.39952688E-01 0.41800199E+03</pdfrwt>
<pdfrwt beam="2">  1       21 0.23644650E-01 0.41800199E+03</pdfrwt>
<totfact> 0.95403302E+04</totfact>
</mgrwt>
</event>
<event>
 7    0  0.4714446E-002  0.4582746E+03  0.7546771E-02  0.1025283E+00
         21   -1    0    0  502  501  0.00000000000E+00  0.00000000000E+00  0.18174018129E+03  0.18174018129E+03  0.00000000000E+00 0. -1.
         21   -1    0    0  501  502 -0.00000000000E+00 -0.00000000000E+00 -0.28889537659E+03  0.28889537659E+03  0.00000000000E+00 0. -1.
      99926    2    1    2    0    0  0.00000000000E+00  0.00000000000E+00 -0.10715519530E+03  0.47063555789E+03  0.45827458196E+03 0.  0.
      99925    2    3    3    0    0 -0.81086761562E+02  0.67168762952E+02 -0.17060470901E+02  0.28395060112E+03  0.26315428667E+03 0.  0.
         25    1    4    4    0    0 -0.44882630935E+02  0.61568667947E+01  0.22198902939E+02  0.13488015777E+03  0.12509000000E+03 0.  0.
         25    1    3    3    0    0  0.81086761562E+02 -0.67168762952E+02 -0.90094724400E+02  0.18668495676E+03  0.12509000000E+03 0.  0.
         25    1    4    4    0    0 -0.36204130628E+02  0.61011896157E+02 -0.39259373840E+02  0.14907044335E+03  0.12509000000E+03 0.  0.
<mgrwt>
<rscale>  2 0.45827458E+03</rscale>
<asrwt>0</asrwt>
<pdfrwt beam="1">  1       21 0.26726498E-01 0.45827458E+03</pdfrwt>
<pdfrwt beam="2">  1       21 0.42484614E-01 0.45827458E+03</pdfrwt>
<totfact> 0.65666251E+04</totfact>
</mgrwt>
</event>
<event>
 7    0  0.4714446E-002  0.4579619E+03  0.7546771E-02  0.1025374E+00
         21   -1    0    0  502  501  0.00000000000E+00  0.00000000000E+00  0.29916446090E+04  0.29916446090E+04  0.00000000000E+00 0.  1.
         21   -1    0    0  501  502 -0.00000000000E+00 -0.00000000000E+00 -0.17526238796E+02  0.17526238796E+02  0.00000000000E+00 0.  1.
      99926    2    1    2    0    0  0.00000000000E+00 -0.71054273576E-14  0.29741183702E+04  0.30091708478E+04  0.45796191025E+03 0.  0.
      99925    2    3    3    0    0 -0.75184179374E+02  0.32087412963E+02  0.13258691876E+04  0.13541617424E+04  0.26294991738E+03 0.  0.
         25    1    4    4    0    0 -0.58728915579E+02 -0.47419806906E+01  0.81557129999E+03  0.82720954139E+03  0.12509000000E+03 0.  0.
         25    1    3    3    0    0  0.75184179374E+02 -0.32087412963E+02  0.16482491826E+04  0.16550091054E+04  0.12509000000E+03 0.  0.
         25    1    4    4    0    0 -0.16455263795E+02  0.36829393653E+02  0.51029788762E+03  0.52695220101E+03  0.12509000000E+03 0.  0.
<mgrwt>
<rscale>  2 0.45796191E+03</rscale>
<asrwt>0</asrwt>
<pdfrwt beam="1">  1       21 0.43994738E+00 0.45796191E+03</pdfrwt>
<pdfrwt beam="2">  1       21 0.25773901E-02 0.45796191E+03</pdfrwt>
<totfact> 0.31240407E+03</totfact>
</mgrwt>
</event>
<event>
 7    0  0.4714446E-002  0.4453170E+03  0.7546771E-02  0.1029128E+00
         21   -1    0    0  502  501  0.00000000000E+00  0.00000000000E+00  0.17890155843E+03  0.17890155843E+03  0.00000000000E+00 0. -1.
         21   -1    0    0  501  502 -0.00000000000E+00 -0.00000000000E+00 -0.27711781777E+03  0.27711781777E+03  0.00000000000E+00 0. -1.
      99926    2    1    2    0    0  0.71054273576E-14  0.00000000000E+00 -0.98216259334E+02  0.45601937620E+03  0.44531700829E+03 0.  0.
      99925    2    3    3    0    0  0.61863838528E+02  0.12999558306E+02  0.22481384537E+02  0.27105572472E+03  0.26262077264E+03 0.  0.
         25    1    3    3    0    0 -0.61863838528E+02 -0.12999558306E+02 -0.12069764387E+03  0.18496365148E+03  0.12509000000E+03 0.  0.
         25    1    4    4    0    0  0.51133414720E+02 -0.19547654829E+02  0.34397559154E+02  0.14080993248E+03  0.12509000000E+03 0.  0.
         25    1    4    4    0    0  0.10730423808E+02  0.32547213135E+02 -0.11916174618E+02  0.13024579224E+03  0.12509000000E+03 0.  0.
<mgrwt>
<rscale>  2 0.44531701E+03</rscale>
<asrwt>0</asrwt>
<pdfrwt beam="1">  1       21 0.26309053E-01 0.44531701E+03</pdfrwt>
<pdfrwt beam="2">  1       21 0.40752620E-01 0.44531701E+03</pdfrwt>
<totfact> 0.74013431E+04</totfact>
</mgrwt>
</event>
<event>
 7    0  0.4714446E-002  0.4514423E+03  0.7546771E-02  0.1027293E+00
         21   -1    0    0  502  501  0.00000000000E+00  0.00000000000E+00  0.90246692709E+02  0.90246692709E+02  0.00000000000E+00 0.  1.
         21   -1    0    0  501  502 -0.00000000000E+00 -0.00000000000E+00 -0.56456413139E+03  0.56456413139E+03  0.00000000000E+00 0.  1.
      99926    2    1    2    0    0 -0.14210854715E-13  0.14210854715E-13 -0.47431743868E+03  0.65481082409E+03  0.45144233598E+03 0.  0.
      99925    2    3    3    0    0 -0.64370133514E+02  0.70693151099E+02 -0.37773192682E+03  0.47010212126E+03  0.26300866939E+03 0.  0.
         25    1    3    3    0    0  0.64370133514E+02 -0.70693151099E+02 -0.96585511854E+02  0.18470870283E+03  0.12509000000E+03 0.  0.
         25    1    4    4    0    0  0.51702538184E+01  0.44892246930E+02 -0.15691232247E+03  0.20569645209E+03  0.12509000000E+03 0.  0.
         25    1    4    4    0    0 -0.69540387332E+02  0.25800904169E+02 -0.22081960435E+03  0.26440566918E+03  0.12509000000E+03 0.  0.
<mgrwt>
<rscale>  2 0.45144234E+03</rscale>
<asrwt>0</asrwt>
<pdfrwt beam="1">  1       21 0.13271572E-01 0.45144234E+03</pdfrwt>
<pdfrwt beam="2">  1       21 0.83024140E-01 0.45144234E+03</pdfrwt>
<totfact> 0.57008125E+04</totfact>
</mgrwt>
</event>
<event>
 7    0  0.4714446E-002  0.4538013E+03  0.7546771E-02  0.1026594E+00
         21   -1    0    0  502  501  0.00000000000E+00  0.00000000000E+00  0.48549462656E+03  0.48549462656E+03  0.00000000000E+00 0.  1.
         21   -1    0    0  501  502 -0.00000000000E+00 -0.00000000000E+00 -0.10604422808E+03  0.10604422808E+03  0.00000000000E+00 0.  1.
      99926    2    1    2    0    0  0.35527136788E-14 -0.14210854715E-13  0.37945039847E+03  0.59153885464E+03  0.45380129093E+03 0.  0.
      99925    2    3    3    0    0  0.21343900071E+02 -0.88268011819E+02  0.32456904212E+03  0.42750753033E+03  0.26300346272E+03 0.  0.
         25    1    3    3    0    0 -0.21343900071E+02  0.88268011819E+02  0.54881356351E+02  0.16403132431E+03  0.12509000000E+03 0.  0.
         25    1    4    4    0    0  0.36842279290E+02 -0.77589558116E+02  0.17613315776E+03  0.23248202175E+03  0.12509000000E+03 0.  0.
         25    1    4    4    0    0 -0.15498379219E+02 -0.10678453702E+02  0.14843588436E+03  0.19502550858E+03  0.12509000000E+03 0.  0.
<mgrwt>
<rscale>  2 0.45380129E+03</rscale>
<asrwt>0</asrwt>
<pdfrwt beam="1">  1       21 0.71396268E-01 0.45380129E+03</pdfrwt>
<pdfrwt beam="2">  1       21 0.15594740E-01 0.45380129E+03</pdfrwt>
<totfact> 0.59766308E+04</totfact>
</mgrwt>
</event>
<event>
 7    0  0.4714446E-002  0.4479149E+03  0.7546771E-02  0.1028346E+00
         21   -1    0    0  502  501  0.00000000000E+00  0.00000000000E+00  0.10156601454E+03  0.10156601454E+03  0.00000000000E+00 0. -1.
         21   -1    0    0  501  502 -0.00000000000E+00 -0.00000000000E+00 -0.49383579464E+03  0.49383579464E+03  0.00000000000E+00 0. -1.
      99926    2    1    2    0    0  0.00000000000E+00  0.00000000000E+00 -0.39226978010E+03  0.59540180918E+03  0.44791487360E+03 0.  0.
      99925    2    3    3    0    0 -0.85014411584E+02 -0.58200430198E+02 -0.21307295892E+03  0.35379520936E+03  0.26297571009E+03 0.  0.
         25    1    4    4    0    0 -0.31696595912E+02 -0.16514049784E+02 -0.55247447495E+02  0.14134064025E+03  0.12509000000E+03 0.  0.
         25    1    4    4    0    0 -0.53317815672E+02 -0.41686380414E+02 -0.15782551142E+03  0.21245456911E+03  0.12509000000E+03 0.  0.
         25    1    3    3    0    0  0.85014411584E+02  0.58200430198E+02 -0.17919682118E+03  0.24160659981E+03  0.12509000000E+03 0.  0.
<mgrwt>
<rscale>  2 0.44791487E+03</rscale>
<asrwt>0</asrwt>
<pdfrwt beam="1">  1       21 0.14936179E-01 0.44791487E+03</pdfrwt>
<pdfrwt beam="2">  1       21 0.72622910E-01 0.44791487E+03</pdfrwt>
<totfact> 0.62382109E+04</totfact>
</mgrwt>
</event>
<event>
 7    0  0.4714446E-002  0.4393429E+03  0.7546771E-02  0.1030949E+00
         21   -1    0    0  502  501  0.00000000000E+00  0.00000000000E+00  0.45874779065E+03  0.45874779065E+03  0.00000000000E+00 0.  1.
         21   -1    0    0  501  502 -0.00000000000E+00 -0.00000000000E+00 -0.10518970934E+03  0.10518970934E+03  0.00000000000E+00 0.  1.
      99926    2    1    2    0    0 -0.14210854715E-13 -0.22204460493E-15  0.35355808131E+03  0.56393749998E+03  0.43934290370E+03 0.  0.
      99925    2    3    3    0    0  0.94234839936E+02 -0.43245877403E+00  0.19222681117E+03  0.33909159964E+03  0.26296686851E+03 0.  0.
         25    1    4    4    0    0  0.89955288908E+01 -0.80463142774E+01  0.66569176508E+02  0.14221331187E+03  0.12509000000E+03 0.  0.
         25    1    4    4    0    0  0.85239311046E+02  0.76138555034E+01  0.12565763466E+03  0.19687828776E+03  0.12509000000E+03 0.  0.
         25    1    3    3    0    0 -0.94234839936E+02  0.43245877403E+00  0.16133127014E+03  0.22484590035E+03  0.12509000000E+03 0.  0.
<mgrwt>
<rscale>  2 0.43934290E+03</rscale>
<asrwt>0</asrwt>
<pdfrwt beam="1">  1       21 0.67462910E-01 0.43934290E+03</pdfrwt>
<pdfrwt beam="2">  1       21 0.15469075E-01 0.43934290E+03</pdfrwt>
<totfact> 0.69125040E+04</totfact>
</mgrwt>
</event>
<event>
 7    0  0.4714446E-002  0.4503071E+03  0.7546771E-02  0.1027630E+00
         21   -1    0    0  502  501  0.00000000000E+00  0.00000000000E+00  0.13933389944E+03  0.13933389944E+03  0.00000000000E+00 0. -1.
         21   -1    0    0  501  502 -0.00000000000E+00 -0.00000000000E+00 -0.36383198782E+03  0.36383198782E+03  0.00000000000E+00 0. -1.
      99926    2    1    2    0    0  0.00000000000E+00  0.00000000000E+00 -0.22449808838E+03  0.50316588726E+03  0.45030713787E+03 0.  0.
      99925    2    3    3    0    0  0.42635692209E+02 -0.16298322969E+02 -0.25245699192E+03  0.36710470261E+03  0.26257930674E+03 0.  0.
         25    1    3    3    0    0 -0.42635692209E+02  0.16298322969E+02  0.27958903540E+02  0.13606118465E+03  0.12509000000E+03 0.  0.
         25    1    4    4    0    0  0.11800683237E+02  0.30611153280E+02 -0.11783349120E+03  0.17495296104E+03  0.12509000000E+03 0.  0.
         25    1    4    4    0    0  0.30835008972E+02 -0.46909476249E+02 -0.13462350072E+03  0.19215174157E+03  0.12509000000E+03 0.  0.
<mgrwt>
<rscale>  2 0.45030714E+03</rscale>
<asrwt>0</asrwt>
<pdfrwt beam="1">  1       21 0.20490279E-01 0.45030714E+03</pdfrwt>
<pdfrwt beam="2">  1       21 0.53504705E-01 0.45030714E+03</pdfrwt>
<totfact> 0.67529300E+04</totfact>
</mgrwt>
</event>
<event>
 7    0  0.4714446E-002  0.4446935E+03  0.7546771E-02  0.1029316E+00
         21   -1    0    0  502  501  0.00000000000E+00  0.00000000000E+00  0.24758245253E+03  0.24758245253E+03  0.00000000000E+00 0. -1.
         21   -1    0    0  501  502 -0.00000000000E+00 -0.00000000000E+00 -0.19968324834E+03  0.19968324834E+03  0.00000000000E+00 0. -1.
      99926    2    1    2    0    0 -0.14210854715E-13  0.00000000000E+00  0.47899204188E+02  0.44726570087E+03  0.44469346005E+03 0.  0.
      99925    2    3    3    0    0 -0.84163116778E+02  0.53305370360E+02  0.28771878839E+01  0.28113508121E+03  0.26287594592E+03 0.  0.
         25    1    4    4    0    0 -0.35674275134E+02  0.57560816358E+02  0.26928458872E+02  0.14477068586E+03  0.12509000000E+03 0.  0.
         25    1    3    3    0    0  0.84163116778E+02 -0.53305370360E+02  0.45022016304E+02  0.16613061966E+03  0.12509000000E+03 0.  0.
         25    1    4    4    0    0 -0.48488841644E+02 -0.42554459986E+01 -0.24051270988E+02  0.13636439536E+03  0.12509000000E+03 0.  0.
<mgrwt>
<rscale>  2 0.44469346E+03</rscale>
<asrwt>0</asrwt>
<pdfrwt beam="1">  1       21 0.36409184E-01 0.44469346E+03</pdfrwt>
<pdfrwt beam="2">  1       21 0.29365184E-01 0.44469346E+03</pdfrwt>
<totfact> 0.75104593E+04</totfact>
</mgrwt>
</event>
<event>
 7    0  0.4714446E-002  0.4580577E+03  0.7546771E-02  0.1025346E+00
         21   -1    0    0  502  501  0.00000000000E+00  0.00000000000E+00  0.34788834504E+03  0.34788834504E+03  0.00000000000E+00 0.  1.
         21   -1    0    0  501  502 -0.00000000000E+00 -0.00000000000E+00 -0.15077886860E+03  0.15077886860E+03  0.00000000000E+00 0.  1.
      99926    2    1    2    0    0  0.00000000000E+00 -0.14210854715E-13  0.19710947644E+03  0.49866721364E+03  0.45805768661E+03 0.  0.
      99925    2    3    3    0    0 -0.79980454917E+02 -0.51792210298E+02  0.19561321556E+03  0.34141247408E+03  0.26309435787E+03 0.  0.
         25    1    4    4    0    0 -0.49482626727E+02 -0.65487712729E+02  0.11705062138E+03  0.18996190916E+03  0.12509000000E+03 0.  0.
         25    1    3    3    0    0  0.79980454917E+02  0.51792210298E+02  0.14962608750E+01  0.15725473956E+03  0.12509000000E+03 0.  0.
         25    1    4    4    0    0 -0.30497828190E+02  0.13695502431E+02  0.78562594185E+02  0.15145056493E+03  0.12509000000E+03 0.  0.
<mgrwt>
<rscale>  2 0.45805769E+03</rscale>
<asrwt>0</asrwt>
<pdfrwt beam="1">  1       21 0.51160051E-01 0.45805769E+03</pdfrwt>
<pdfrwt beam="2">  1       21 0.22173363E-01 0.45805769E+03</pdfrwt>
<totfact> 0.63801611E+04</totfact>
</mgrwt>
</event>
<event>
 7    0  0.4714446E-002  0.4713824E+03  0.7546771E-02  0.1021531E+00
         21   -1    0    0  502  501  0.00000000000E+00  0.00000000000E+00  0.58781500811E+02  0.58781500811E+02  0.00000000000E+00 0. -1.
         21   -1    0    0  501  502 -0.00000000000E+00 -0.00000000000E+00 -0.94503115947E+03  0.94503115947E+03  0.00000000000E+00 0. -1.
      99926    2    1    2    0    0  0.00000000000E+00  0.00000000000E+00 -0.88624965866E+03  0.10038126603E+04  0.47138243441E+03 0.  0.
      99925    2    3    3    0    0 -0.18271277303E+02 -0.66712674073E+02 -0.77901086818E+03  0.82511714624E+03  0.26301321604E+03 0.  0.
         25    1    4    4    0    0 -0.23581996914E+02 -0.22278623807E+02 -0.49465383069E+03  0.51125567769E+03  0.12509000000E+03 0.  0.
         25    1    4    4    0    0  0.53107196114E+01 -0.44434050266E+02 -0.28435703749E+03  0.31386146854E+03  0.12509000000E+03 0.  0.
         25    1    3    3    0    0  0.18271277303E+02  0.66712674073E+02 -0.10723879048E+03  0.17869551404E+03  0.12509000000E+03 0.  0.
<mgrwt>
<rscale>  2 0.47138243E+03</rscale>
<asrwt>0</asrwt>
<pdfrwt beam="1">  1       21 0.86443394E-02 0.47138243E+03</pdfrwt>
<pdfrwt beam="2">  1       21 0.13897515E+00 0.47138243E+03</pdfrwt>
<totfact> 0.34402060E+04</totfact>
</mgrwt>
</event>
<event>
 7    0  0.4714446E-002  0.4485668E+03  0.7546771E-02  0.1028150E+00
         21   -1    0    0  502  501  0.00000000000E+00  0.00000000000E+00  0.31537266350E+03  0.31537266350E+03  0.00000000000E+00 0. -1.
         21   -1    0    0  501  502 -0.00000000000E+00 -0.00000000000E+00 -0.15950351048E+03  0.15950351048E+03  0.00000000000E+00 0. -1.
      99926    2    1    2    0    0 -0.17763568394E-14  0.71054273576E-14  0.15586915302E+03  0.47487617398E+03  0.44856681526E+03 0.  0.
      99925    2    3    3    0    0 -0.97313377340E+01  0.50554981847E+02  0.19744798190E+03  0.33336005393E+03  0.26361470915E+03 0.  0.
         25    1    4    4    0    0  0.17983469042E+02 -0.68475602985E+01  0.75310809282E+02  0.14727362403E+03  0.12509000000E+03 0.  0.
         25    1    4    4    0    0 -0.27714806776E+02  0.57402542145E+02  0.12213717261E+03  0.18608642990E+03  0.12509000000E+03 0.  0.
         25    1    3    3    0    0  0.97313377340E+01 -0.50554981847E+02 -0.41578828873E+02  0.14151612005E+03  0.12509000000E+03 0.  0.
<mgrwt>
<rscale>  2 0.44856682E+03</rscale>
<asrwt>0</asrwt>
<pdfrwt beam="1">  1       21 0.46378333E-01 0.44856682E+03</pdfrwt>
<pdfrwt beam="2">  1       21 0.23456399E-01 0.44856682E+03</pdfrwt>
<totfact> 0.70612200E+04</totfact>
</mgrwt>
</event>
<event>
 7    0  0.4714446E-002  0.4523214E+03  0.7546771E-02  0.1027032E+00
         21   -1    0    0  502  501  0.00000000000E+00  0.00000000000E+00  0.98442553874E+02  0.98442553874E+02  0.00000000000E+00 0.  1.
         21   -1    0    0  501  502 -0.00000000000E+00 -0.00000000000E+00 -0.51957882320E+03  0.51957882320E+03  0.00000000000E+00 0.  1.
      99926    2    1    2    0    0  0.00000000000E+00 -0.17763568394E-14 -0.42113626932E+03  0.61802137707E+03  0.45232141799E+03 0.  0.
      99925    2    3    3    0    0 -0.60407967906E+02  0.41216635184E+01 -0.39215154374E+03  0.47605753268E+03  0.26302439139E+03 0.  0.
         25    1    3    3    0    0  0.60407967906E+02 -0.41216635184E+01 -0.28984725578E+02  0.14196384439E+03  0.12509000000E+03 0.  0.
         25    1    4    4    0    0 -0.32368504985E+02 -0.10607823325E+02 -0.12857818821E+03  0.18259272881E+03  0.12509000000E+03 0.  0.
         25    1    4    4    0    0 -0.28039462922E+02  0.14729486844E+02 -0.26357335554E+03  0.29346480387E+03  0.12509000000E+03 0.  0.
<mgrwt>
<rscale>  2 0.45232142E+03</rscale>
<asrwt>0</asrwt>
<pdfrwt beam="1">  1       21 0.14476846E-01 0.45232142E+03</pdfrwt>
<pdfrwt beam="2">  1       21 0.76408651E-01 0.45232142E+03</pdfrwt>
<totfact> 0.58816774E+04</totfact>
</mgrwt>
</event>
<event>
 7    0  0.4714446E-002  0.3959967E+03  0.7546771E-02  0.1045175E+00
         21   -1    0    0  502  501  0.00000000000E+00  0.00000000000E+00  0.59434358045E+02  0.59434358045E+02  0.00000000000E+00 0.  1.
         21   -1    0    0  501  502 -0.00000000000E+00 -0.00000000000E+00 -0.65960734976E+03  0.65960734976E+03  0.00000000000E+00 0.  1.
      99926    2    1    2    0    0  0.00000000000E+00 -0.17763568394E-14 -0.60017299171E+03  0.71904170780E+03  0.39599666359E+03 0.  0.
      99925    2    3    3    0    0 -0.27185757885E+02 -0.15919339152E+02 -0.36785492767E+03  0.45331312114E+03  0.26302670433E+03 0.  0.
         25    1    4    4    0    0  0.99764989084E+01  0.18503454545E+02 -0.21294706893E+03  0.24786260433E+03  0.12509000000E+03 0.  0.
         25    1    3    3    0    0  0.27185757885E+02  0.15919339152E+02 -0.23231806404E+03  0.26572858666E+03  0.12509000000E+03 0.  0.
         25    1    4    4    0    0 -0.37162256793E+02 -0.34422793697E+02 -0.15490785875E+03  0.20545051681E+03  0.12509000000E+03 0.  0.
<mgrwt>
<rscale>  2 0.39599666E+03</rscale>
<asrwt>0</asrwt>
<pdfrwt beam="1">  1       21 0.87403471E-02 0.39599666E+03</pdfrwt>
<pdfrwt beam="2">  1       21 0.97001077E-01 0.39599666E+03</pdfrwt>
<totfact> 0.84973245E+04</totfact>
</mgrwt>
</event>
<event>
 7    0  0.4714446E-002  0.4557246E+03  0.7546771E-02  0.1026029E+00
         21   -1    0    0  502  501  0.00000000000E+00  0.00000000000E+00  0.12500882388E+03  0.12500882388E+03  0.00000000000E+00 0. -1.
         21   -1    0    0  501  502 -0.00000000000E+00 -0.00000000000E+00 -0.41534051010E+03  0.41534051010E+03  0.00000000000E+00 0. -1.
      99926    2    1    2    0    0  0.00000000000E+00  0.00000000000E+00 -0.29033168622E+03  0.54034933398E+03  0.45572460402E+03 0.  0.
      99925    2    3    3    0    0  0.73758081973E+02  0.78546231435E+02 -0.22598728035E+03  0.36315600511E+03  0.26306323962E+03 0.  0.
         25    1    3    3    0    0 -0.73758081973E+02 -0.78546231435E+02 -0.64344405866E+02  0.17719332887E+03  0.12509000000E+03 0.  0.
         25    1    4    4    0    0  0.21821720264E+02  0.74681915177E+02 -0.99281707163E+02  0.17764554992E+03  0.12509000000E+03 0.  0.
         25    1    4    4    0    0  0.51936361709E+02  0.38643162580E+01 -0.12670557319E+03  0.18551045519E+03  0.12509000000E+03 0.  0.
<mgrwt>
<rscale>  2 0.45572460E+03</rscale>
<asrwt>0</asrwt>
<pdfrwt beam="1">  1       21 0.18383651E-01 0.45572460E+03</pdfrwt>
<pdfrwt beam="2">  1       21 0.61079487E-01 0.45572460E+03</pdfrwt>
<totfact> 0.62151605E+04</totfact>
</mgrwt>
</event>
<event>
 7    0  0.4714446E-002  0.4572343E+03  0.7546771E-02  0.1025586E+00
         21   -1    0    0  502  501  0.00000000000E+00  0.00000000000E+00  0.12987791984E+04  0.12987791984E+04  0.00000000000E+00 0.  1.
         21   -1    0    0  501  502 -0.00000000000E+00 -0.00000000000E+00 -0.40242246174E+02  0.40242246174E+02  0.00000000000E+00 0.  1.
      99926    2    1    2    0    0  0.00000000000E+00  0.00000000000E+00  0.12585369523E+04  0.13390214446E+04  0.45723426044E+03 0.  0.
      99925    2    3    3    0    0  0.10036454000E+03  0.55530491242E+02  0.75682414073E+03  0.80938012287E+03  0.26297666616E+03 0.  0.
         25    1    4    4    0    0  0.36809828089E+02 -0.98459796751E+01  0.38588088105E+03  0.40743523316E+03  0.12509000000E+03 0.  0.
         25    1    3    3    0    0 -0.10036454000E+03 -0.55530491242E+02  0.50171281153E+03  0.52964132175E+03  0.12509000000E+03 0.  0.
         25    1    4    4    0    0  0.63554711914E+02  0.65376470917E+02  0.37094325968E+03  0.40194488970E+03  0.12509000000E+03 0.  0.
<mgrwt>
<rscale>  2 0.45723426E+03</rscale>
<asrwt>0</asrwt>
<pdfrwt beam="1">  1       21 0.19099691E+00 0.45723426E+03</pdfrwt>
<pdfrwt beam="2">  1       21 0.59179782E-02 0.45723426E+03</pdfrwt>
<totfact> 0.27521020E+04</totfact>
</mgrwt>
</event>
<event>
 7    0  0.4714446E-002  0.4519283E+03  0.7546771E-02  0.1027149E+00
         21   -1    0    0  502  501  0.00000000000E+00  0.00000000000E+00  0.78523906320E+02  0.78523906320E+02  0.00000000000E+00 0.  1.
         21   -1    0    0  501  502 -0.00000000000E+00 -0.00000000000E+00 -0.65024527495E+03  0.65024527495E+03  0.00000000000E+00 0.  1.
      99926    2    1    2    0    0 -0.17763568394E-14  0.00000000000E+00 -0.57172136864E+03  0.72876918127E+03  0.45192830872E+03 0.  0.
      99925    2    3    3    0    0  0.21421899850E+01 -0.10925065686E+03 -0.33439716268E+03  0.43909594842E+03  0.26276128806E+03 0.  0.
         25    1    4    4    0    0 -0.15648149477E+02 -0.17364170405E+02 -0.16936967223E+03  0.21184893903E+03  0.12509000000E+03 0.  0.
         25    1    4    4    0    0  0.17790339462E+02 -0.91886486456E+02 -0.16502749045E+03  0.22724700939E+03  0.12509000000E+03 0.  0.
         25    1    3    3    0    0 -0.21421899850E+01  0.10925065686E+03 -0.23732420595E+03  0.28967323286E+03  0.12509000000E+03 0.  0.
<mgrwt>
<rscale>  2 0.45192831E+03</rscale>
<asrwt>0</asrwt>
<pdfrwt beam="1">  1       21 0.11547634E-01 0.45192831E+03</pdfrwt>
<pdfrwt beam="2">  1       21 0.95624301E-01 0.45192831E+03</pdfrwt>
<totfact> 0.52628460E+04</totfact>
</mgrwt>
</event>
<event>
 7    0  0.4714446E-002  0.4611075E+03  0.7546771E-02  0.1024460E+00
         21   -1    0    0  502  501  0.00000000000E+00  0.00000000000E+00  0.22051399138E+03  0.22051399138E+03  0.00000000000E+00 0.  1.
         21   -1    0    0  501  502 -0.00000000000E+00 -0.00000000000E+00 -0.24105064262E+03  0.24105064262E+03  0.00000000000E+00 0.  1.
      99926    2    1    2    0    0 -0.88817841970E-15  0.71054273576E-14 -0.20536651244E+02  0.46156463400E+03  0.46110753335E+03 0.  0.
      99925    2    3    3    0    0 -0.27858605874E+01 -0.55306076621E+02 -0.11859784585E+03  0.29324936696E+03  0.26241802348E+03 0.  0.
         25    1    4    4    0    0 -0.38900465271E+02 -0.22762129390E+02 -0.71867240369E+02  0.15114155309E+03  0.12509000000E+03 0.  0.
         25    1    4    4    0    0  0.36114604684E+02 -0.32543947231E+02 -0.46730605484E+02  0.14210781387E+03  0.12509000000E+03 0.  0.
         25    1    3    3    0    0  0.27858605874E+01  0.55306076621E+02  0.98061194608E+02  0.16831526704E+03  0.12509000000E+03 0.  0.
<mgrwt>
<rscale>  2 0.46110753E+03</rscale>
<asrwt>0</asrwt>
<pdfrwt beam="1">  1       21 0.32428528E-01 0.46110753E+03</pdfrwt>
<pdfrwt beam="2">  1       21 0.35448624E-01 0.46110753E+03</pdfrwt>
<totfact> 0.64849273E+04</totfact>
</mgrwt>
</event>
<event>
 7    0  0.4714446E-002  0.4419465E+03  0.7546771E-02  0.1030151E+00
         21   -1    0    0  502  501  0.00000000000E+00  0.00000000000E+00  0.37948318456E+03  0.37948318456E+03  0.00000000000E+00 0. -1.
         21   -1    0    0  501  502 -0.00000000000E+00 -0.00000000000E+00 -0.12867283819E+03  0.12867283819E+03  0.00000000000E+00 0. -1.
      99926    2    1    2    0    0  0.00000000000E+00  0.00000000000E+00  0.25081034637E+03  0.50815602275E+03  0.44194650537E+03 0.  0.
      99925    2    3    3    0    0  0.43516699091E+02  0.31908125928E+02  0.25727194204E+03  0.37177020267E+03  0.26289237310E+03 0.  0.
         25    1    4    4    0    0  0.37711778584E+02  0.17655771889E+02  0.18278832532E+03  0.22537298973E+03  0.12509000000E+03 0.  0.
         25    1    4    4    0    0  0.58049205065E+01  0.14252354039E+02  0.74483616717E+02  0.14639721294E+03  0.12509000000E+03 0.  0.
         25    1    3    3    0    0 -0.43516699091E+02 -0.31908125928E+02 -0.64615956712E+01  0.13638582008E+03  0.12509000000E+03 0.  0.
<mgrwt>
<rscale>  2 0.44194651E+03</rscale>
<asrwt>0</asrwt>
<pdfrwt beam="1">  1       21 0.55806351E-01 0.44194651E+03</pdfrwt>
<pdfrwt beam="2">  1       21 0.18922476E-01 0.44194651E+03</pdfrwt>
<totfact> 0.71861064E+04</totfact>
</mgrwt>
</event>
<event>
 7    0  0.4714446E-002  0.4571408E+03  0.7546771E-02  0.1025614E+00
         21   -1    0    0  502  501  0.00000000000E+00  0.00000000000E+00  0.86778103457E+03  0.86778103457E+03  0.00000000000E+00 0.  1.
         21   -1    0    0  501  502 -0.00000000000E+00 -0.00000000000E+00 -0.60204625296E+02  0.60204625296E+02  0.00000000000E+00 0.  1.
      99926    2    1    2    0    0  0.00000000000E+00  0.00000000000E+00  0.80757640928E+03  0.92798565987E+03  0.45714081868E+03 0.  0.
      99925    2    3    3    0    0 -0.12317242810E+02  0.11027403323E+03  0.56666680741E+03  0.63473317267E+03  0.26355806381E+03 0.  0.
         25    1    4    4    0    0  0.16141041670E+02  0.51941436388E+02  0.35637430963E+03  0.38158695300E+03  0.12509000000E+03 0.  0.
         25    1    3    3    0    0  0.12317242810E+02 -0.11027403323E+03  0.24090960186E+03  0.29325248719E+03  0.12509000000E+03 0.  0.
         25    1    4    4    0    0 -0.28458284480E+02  0.58332596837E+02  0.21029249779E+03  0.25314621967E+03  0.12509000000E+03 0.  0.
<mgrwt>
<rscale>  2 0.45714082E+03</rscale>
<asrwt>0</asrwt>
<pdfrwt beam="1">  1       21 0.12761485E+00 0.45714082E+03</pdfrwt>
<pdfrwt beam="2">  1       21 0.88536219E-02 0.45714082E+03</pdfrwt>
<totfact> 0.41348632E+04</totfact>
</mgrwt>
</event>
<event>
 7    0  0.4714446E-002  0.4494857E+03  0.7546771E-02  0.1027876E+00
         21   -1    0    0  502  501  0.00000000000E+00  0.00000000000E+00  0.24683160156E+03  0.24683160156E+03  0.00000000000E+00 0.  1.
         21   -1    0    0  501  502 -0.00000000000E+00 -0.00000000000E+00 -0.20463077875E+03  0.20463077875E+03  0.00000000000E+00 0.  1.
      99926    2    1    2    0    0 -0.35527136788E-14  0.00000000000E+00  0.42200822812E+02  0.45146238031E+03  0.44948567429E+03 0.  0.
      99925    2    3    3    0    0  0.30204277193E+02  0.96245050354E+02 -0.14513173861E+02  0.28105289232E+03  0.26192496633E+03 0.  0.
         25    1    4    4    0    0  0.95921205722E+01  0.63439029570E+02 -0.43047261115E+02  0.14702752817E+03  0.12509000000E+03 0.  0.
         25    1    4    4    0    0  0.20612156621E+02  0.32806020785E+02  0.28534087254E+02  0.13402536415E+03  0.12509000000E+03 0.  0.
         25    1    3    3    0    0 -0.30204277193E+02 -0.96245050354E+02  0.56713996673E+02  0.17040948799E+03  0.12509000000E+03 0.  0.
<mgrwt>
<rscale>  2 0.44948567E+03</rscale>
<asrwt>0</asrwt>
<pdfrwt beam="1">  1       21 0.36298765E-01 0.44948567E+03</pdfrwt>
<pdfrwt beam="2">  1       21 0.30092762E-01 0.44948567E+03</pdfrwt>
<totfact> 0.71918199E+04</totfact>
</mgrwt>
</event>
<event>
 7    0  0.4714446E-002  0.4550805E+03  0.7546771E-02  0.1026218E+00
         21   -1    0    0  502  501  0.00000000000E+00  0.00000000000E+00  0.18293911066E+03  0.18293911066E+03  0.00000000000E+00 0. -1.
         21   -1    0    0  501  502 -0.00000000000E+00 -0.00000000000E+00 -0.28301528178E+03  0.28301528178E+03  0.00000000000E+00 0. -1.
      99926    2    1    2    0    0 -0.14210854715E-13 -0.71054273576E-14 -0.10007617113E+03  0.46595439244E+03  0.45508049376E+03 0.  0.
      99925    2    3    3    0    0  0.75323556187E+02  0.41240729193E+02 -0.13845366204E+03  0.30944632309E+03  0.26308396850E+03 0.  0.
         25    1    4    4    0    0  0.56364228820E+02 -0.93173826282E-01 -0.37040853690E+02  0.14211427766E+03  0.12509000000E+03 0.  0.
         25    1    4    4    0    0  0.18959327367E+02  0.41333903019E+02 -0.10141280835E+03  0.16733204544E+03  0.12509000000E+03 0.  0.
         25    1    3    3    0    0 -0.75323556187E+02 -0.41240729193E+02  0.38377490914E+02  0.15650806934E+03  0.12509000000E+03 0.  0.
<mgrwt>
<rscale>  2 0.45508049E+03</rscale>
<asrwt>0</asrwt>
<pdfrwt beam="1">  1       21 0.26902811E-01 0.45508049E+03</pdfrwt>
<pdfrwt beam="2">  1       21 0.41619894E-01 0.45508049E+03</pdfrwt>
<totfact> 0.67695032E+04</totfact>
</mgrwt>
</event>
<event>
 7    0  0.4714446E-002  0.4566335E+03  0.7546771E-02  0.1025762E+00
         21   -1    0    0  502  501  0.00000000000E+00  0.00000000000E+00  0.46366875228E+03  0.46366875228E+03  0.00000000000E+00 0. -1.
         21   -1    0    0  501  502 -0.00000000000E+00 -0.00000000000E+00 -0.11242626720E+03  0.11242626720E+03  0.00000000000E+00 0. -1.
      99926    2    1    2    0    0  0.00000000000E+00  0.00000000000E+00  0.35124248508E+03  0.57609501947E+03  0.45663353812E+03 0.  0.
      99925    2    3    3    0    0 -0.29858477459E+02 -0.61211408806E+02  0.33712301240E+03  0.43296838725E+03  0.26300443650E+03 0.  0.
         25    1    4    4    0    0 -0.35511831776E+02 -0.21763982104E+02  0.11500350763E+03  0.17495163898E+03  0.12509000000E+03 0.  0.
         25    1    3    3    0    0  0.29858477459E+02  0.61211408806E+02  0.14119472680E+02  0.14312663223E+03  0.12509000000E+03 0.  0.
         25    1    4    4    0    0  0.56533543169E+01 -0.39447426702E+02  0.22211950477E+03  0.25801674827E+03  0.12509000000E+03 0.  0.
<mgrwt>
<rscale>  2 0.45663354E+03</rscale>
<asrwt>0</asrwt>
<pdfrwt beam="1">  1       21 0.68186581E-01 0.45663354E+03</pdfrwt>
<pdfrwt beam="2">  1       21 0.16533275E-01 0.45663354E+03</pdfrwt>
<totfact> 0.59403386E+04</totfact>
</mgrwt>
</event>
<event>
 7    0  0.4714446E-002  0.4573180E+03  0.7546771E-02  0.1025562E+00
         21   -1    0    0  502  501  0.00000000000E+00  0.00000000000E+00  0.60526685992E+03  0.60526685992E+03  0.00000000000E+00 0.  1.
         21   -1    0    0  501  502 -0.00000000000E+00 -0.00000000000E+00 -0.86383266842E+02  0.86383266842E+02  0.00000000000E+00 0.  1.
      99926    2    1    2    0    0 -0.71054273576E-14  0.00000000000E+00  0.51888359308E+03  0.69165012676E+03  0.45731795797E+03 0.  0.
      99925    2    3    3    0    0  0.40935594660E+02  0.10731292479E+03  0.34474433461E+03  0.44841407644E+03  0.26274463071E+03 0.  0.
         25    1    4    4    0    0  0.52079547134E+02  0.31075697258E+02  0.15068790274E+03  0.20501787805E+03  0.12509000000E+03 0.  0.
         25    1    3    3    0    0 -0.40935594660E+02 -0.10731292479E+03  0.17413925847E+03  0.24323605032E+03  0.12509000000E+03 0.  0.
         25    1    4    4    0    0 -0.11143952475E+02  0.76237227530E+02  0.19405643187E+03  0.24339619839E+03  0.12509000000E+03 0.  0.
<mgrwt>
<rscale>  2 0.45731796E+03</rscale>
<asrwt>0</asrwt>
<pdfrwt beam="1">  1       21 0.89009830E-01 0.45731796E+03</pdfrwt>
<pdfrwt beam="2">  1       21 0.12703422E-01 0.45731796E+03</pdfrwt>
<totfact> 0.52396130E+04</totfact>
</mgrwt>
</event>
<event>
 7    0  0.4714446E-002  0.4502052E+03  0.7546771E-02  0.1027661E+00
         21   -1    0    0  502  501  0.00000000000E+00  0.00000000000E+00  0.30893555243E+03  0.30893555243E+03  0.00000000000E+00 0.  1.
         21   -1    0    0  501  502 -0.00000000000E+00 -0.00000000000E+00 -0.16401863662E+03  0.16401863662E+03  0.00000000000E+00 0.  1.
      99926    2    1    2    0    0  0.00000000000E+00  0.00000000000E+00  0.14491691582E+03  0.47295418905E+03  0.45020523370E+03 0.  0.
      99925    2    3    3    0    0 -0.85025825677E+02  0.69185394960E+02  0.96285319566E+02  0.29966671067E+03  0.26175038646E+03 0.  0.
         25    1    3    3    0    0  0.85025825677E+02 -0.69185394960E+02  0.48631596252E+02  0.17328747838E+03  0.12509000000E+03 0.  0.
         25    1    4    4    0    0 -0.42476525032E+02  0.72961256776E+02  0.61657327272E+02  0.16302372304E+03  0.12509000000E+03 0.  0.
         25    1    4    4    0    0 -0.42549300646E+02 -0.37758618162E+01  0.34627992294E+02  0.13664298763E+03  0.12509000000E+03 0.  0.
<mgrwt>
<rscale>  2 0.45020523E+03</rscale>
<asrwt>0</asrwt>
<pdfrwt beam="1">  1       21 0.45431699E-01 0.45020523E+03</pdfrwt>
<pdfrwt beam="2">  1       21 0.24120388E-01 0.45020523E+03</pdfrwt>
<totfact> 0.69836481E+04</totfact>
</mgrwt>
</event>
<event>
 7    0  0.4714446E-002  0.4521588E+03  0.7546771E-02  0.1027080E+00
         21   -1    0    0  502  501  0.00000000000E+00  0.00000000000E+00  0.15644835992E+03  0.15644835992E+03  0.00000000000E+00 0.  1.
         21   -1    0    0  501  502 -0.00000000000E+00 -0.00000000000E+00 -0.32670132631E+03  0.32670132631E+03  0.00000000000E+00 0.  1.
      99926    2    1    2    0    0  0.00000000000E+00  0.00000000000E+00 -0.17025296639E+03  0.48314968623E+03  0.45215876276E+03 0.  0.
      99925    2    3    3    0    0  0.68709829728E+01  0.11000237047E+03 -0.11540236534E+03  0.30763949151E+03  0.26301448419E+03 0.  0.
         25    1    3    3    0    0 -0.68709829728E+01 -0.11000237047E+03 -0.54850601056E+02  0.17551019473E+03  0.12509000000E+03 0.  0.
         25    1    4    4    0    0 -0.21040635830E+02  0.24272432895E+02 -0.35333531991E+02  0.13389483163E+03  0.12509000000E+03 0.  0.
         25    1    4    4    0    0  0.27911618803E+02  0.85729937577E+02 -0.80068833346E+02  0.17374465987E+03  0.12509000000E+03 0.  0.
<mgrwt>
<rscale>  2 0.45215876E+03</rscale>
<asrwt>0</asrwt>
<pdfrwt beam="1">  1       21 0.23007112E-01 0.45215876E+03</pdfrwt>
<pdfrwt beam="2">  1       21 0.48044312E-01 0.45215876E+03</pdfrwt>
<totfact> 0.67992185E+04</totfact>
</mgrwt>
</event>
<event>
 7    0  0.4714446E-002  0.4614471E+03  0.7546771E-02  0.1024362E+00
         21   -1    0    0  502  501  0.00000000000E+00  0.00000000000E+00  0.29446111645E+03  0.29446111645E+03  0.00000000000E+00 0.  1.
         21   -1    0    0  501  502 -0.00000000000E+00 -0.00000000000E+00 -0.18078227061E+03  0.18078227061E+03  0.00000000000E+00 0.  1.
      99926    2    1    2    0    0  0.00000000000E+00  0.00000000000E+00  0.11367884584E+03  0.47524338706E+03  0.46144706842E+03 0.  0.
      99925    2    3    3    0    0  0.54379842771E+02 -0.10278530011E+03  0.97471356758E+02  0.30368530354E+03  0.26306294490E+03 0.  0.
         25    1    4    4    0    0  0.71597025922E+00 -0.66304230670E+02  0.20319412093E+02  0.14302849445E+03  0.12509000000E+03 0.  0.
         25    1    3    3    0    0 -0.54379842771E+02  0.10278530011E+03  0.16207489080E+02  0.17155808352E+03  0.12509000000E+03 0.  0.
         25    1    4    4    0    0  0.53663872511E+02 -0.36481069445E+02  0.77151944665E+02  0.16065680909E+03  0.12509000000E+03 0.  0.
<mgrwt>
<rscale>  2 0.46144707E+03</rscale>
<asrwt>0</asrwt>
<pdfrwt beam="1">  1       21 0.43303106E-01 0.46144707E+03</pdfrwt>
<pdfrwt beam="2">  1       21 0.26585628E-01 0.46144707E+03</pdfrwt>
<totfact> 0.63725534E+04</totfact>
</mgrwt>
</event>
<event>
 7    0  0.4714446E-002  0.4640794E+03  0.7546771E-02  0.1023605E+00
         21   -1    0    0  502  501  0.00000000000E+00  0.00000000000E+00  0.15925491831E+03  0.15925491831E+03  0.00000000000E+00 0.  1.
         21   -1    0    0  501  502 -0.00000000000E+00 -0.00000000000E+00 -0.33808961153E+03  0.33808961153E+03  0.00000000000E+00 0.  1.
      99926    2    1    2    0    0 -0.71054273576E-14  0.00000000000E+00 -0.17883469322E+03  0.49734452985E+03  0.46407944780E+03 0.  0.
      99925    2    3    3    0    0 -0.62588050598E+02  0.63183714170E+02 -0.22972556849E+02  0.27859819395E+03  0.26302047352E+03 0.  0.
         25    1    3    3    0    0  0.62588050598E+02 -0.63183714170E+02 -0.15586213637E+03  0.21874633590E+03  0.12509000000E+03 0.  0.
         25    1    4    4    0    0 -0.39369539948E+02  0.60009285189E+02 -0.41311658036E+02  0.15001745290E+03  0.12509000000E+03 0.  0.
         25    1    4    4    0    0 -0.23218510650E+02  0.31744289806E+01  0.18339101188E+02  0.12858074105E+03  0.12509000000E+03 0.  0.
<mgrwt>
<rscale>  2 0.46407945E+03</rscale>
<asrwt>0</asrwt>
<pdfrwt beam="1">  1       21 0.23419841E-01 0.46407945E+03</pdfrwt>
<pdfrwt beam="2">  1       21 0.49719059E-01 0.46407945E+03</pdfrwt>
<totfact> 0.60944936E+04</totfact>
</mgrwt>
</event>
<event>
 7    0  0.4714446E-002  0.4606996E+03  0.7546771E-02  0.1024579E+00
         21   -1    0    0  502  501  0.00000000000E+00  0.00000000000E+00  0.57923450904E+03  0.57923450904E+03  0.00000000000E+00 0. -1.
         21   -1    0    0  501  502 -0.00000000000E+00 -0.00000000000E+00 -0.91605434180E+02  0.91605434180E+02  0.00000000000E+00 0. -1.
      99926    2    1    2    0    0 -0.14210854715E-13 -0.71054273576E-14  0.48762907486E+03  0.67083994322E+03  0.46069959276E+03 0.  0.
      99925    2    3    3    0    0  0.11247465711E+03  0.35921947387E+02  0.29347528412E+03  0.41144808260E+03  0.26309855091E+03 0.  0.
         25    1    3    3    0    0 -0.11247465711E+03 -0.35921947387E+02  0.19415379074E+03  0.25939186062E+03  0.12509000000E+03 0.  0.
         25    1    4    4    0    0  0.96081832312E+02  0.87759420150E+01  0.18120992265E+03  0.24040232908E+03  0.12509000000E+03 0.  0.
         25    1    4    4    0    0  0.16392824802E+02  0.27146005372E+02  0.11226536147E+03  0.17104575352E+03  0.12509000000E+03 0.  0.
<mgrwt>
<rscale>  2 0.46069959E+03</rscale>
<asrwt>0</asrwt>
<pdfrwt beam="1">  1       21 0.85181543E-01 0.46069959E+03</pdfrwt>
<pdfrwt beam="2">  1       21 0.13471388E-01 0.46069959E+03</pdfrwt>
<totfact> 0.52132888E+04</totfact>
</mgrwt>
</event>
<event>
 7    0  0.4714446E-002  0.4555453E+03  0.7546771E-02  0.1026081E+00
         21   -1    0    0  502  501  0.00000000000E+00  0.00000000000E+00  0.31860741761E+04  0.31860741761E+04  0.00000000000E+00 0.  1.
         21   -1    0    0  501  502 -0.00000000000E+00 -0.00000000000E+00 -0.16283482748E+02  0.16283482748E+02  0.00000000000E+00 0.  1.
      99926    2    1    2    0    0  0.00000000000E+00 -0.14210854715E-13  0.31697906934E+04  0.32023576589E+04  0.45554531666E+03 0.  0.
      99925    2    3    3    0    0  0.17352448433E+02 -0.10963723967E+03  0.21728344186E+04  0.21914715358E+04  0.26271020162E+03 0.  0.
         25    1    3    3    0    0 -0.17352448433E+02  0.10963723967E+03  0.99695627479E+03  0.10108861230E+04  0.12509000000E+03 0.  0.
         25    1    4    4    0    0  0.28128521345E+02 -0.91674996252E+02  0.12823252305E+04  0.12919756281E+04  0.12509000000E+03 0.  0.
         25    1    4    4    0    0 -0.10776072912E+02 -0.17962243416E+02  0.89050918806E+03  0.89949590775E+03  0.12509000000E+03 0.  0.
<mgrwt>
<rscale>  2 0.45554532E+03</rscale>
<asrwt>0</asrwt>
<pdfrwt beam="1">  1       21 0.46853989E+00 0.45554532E+03</pdfrwt>
<pdfrwt beam="2">  1       21 0.23946320E-02 0.45554532E+03</pdfrwt>
<totfact> 0.22602670E+03</totfact>
</mgrwt>
</event>
<event>
 7    0  0.4714446E-002  0.4584611E+03  0.7546771E-02  0.1025228E+00
         21   -1    0    0  502  501  0.00000000000E+00  0.00000000000E+00  0.10820907627E+03  0.10820907627E+03  0.00000000000E+00 0.  1.
         21   -1    0    0  501  502 -0.00000000000E+00 -0.00000000000E+00 -0.48560297238E+03  0.48560297238E+03  0.00000000000E+00 0.  1.
      99926    2    1    2    0    0  0.00000000000E+00 -0.14210854715E-13 -0.37739389611E+03  0.59381204865E+03  0.45846111755E+03 0.  0.
      99925    2    3    3    0    0  0.63017770550E+02 -0.97379437672E+02 -0.24943040552E+03  0.38056065402E+03  0.26297697600E+03 0.  0.
         25    1    3    3    0    0 -0.63017770550E+02  0.97379437672E+02 -0.12796349060E+03  0.21325139463E+03  0.12509000000E+03 0.  0.
         25    1    4    4    0    0  0.62963456059E+02 -0.27406987588E+02 -0.10574251509E+03  0.17760779083E+03  0.12509000000E+03 0.  0.
         25    1    4    4    0    0  0.54314491211E-01 -0.69972450084E+02 -0.14368789043E+03  0.20295286319E+03  0.12509000000E+03 0.  0.
<mgrwt>
<rscale>  2 0.45846112E+03</rscale>
<asrwt>0</asrwt>
<pdfrwt beam="1">  1       21 0.15913099E-01 0.45846112E+03</pdfrwt>
<pdfrwt beam="2">  1       21 0.71412203E-01 0.45846112E+03</pdfrwt>
<totfact> 0.57472553E+04</totfact>
</mgrwt>
</event>
<event>
 7    0  0.4714446E-002  0.4573822E+03  0.7546771E-02  0.1025543E+00
         21   -1    0    0  502  501  0.00000000000E+00  0.00000000000E+00  0.26259095172E+03  0.26259095172E+03  0.00000000000E+00 0.  1.
         21   -1    0    0  501  502 -0.00000000000E+00 -0.00000000000E+00 -0.19916762743E+03  0.19916762743E+03  0.00000000000E+00 0.  1.
      99926    2    1    2    0    0  0.71054273576E-14  0.00000000000E+00  0.63423324294E+02  0.46175857915E+03  0.45738218959E+03 0.  0.
      99925    2    3    3    0    0  0.58904265727E+02  0.81404782794E+02  0.97204483450E+02  0.29779173495E+03  0.26293488666E+03 0.  0.
         25    1    4    4    0    0  0.76679829006E+00  0.83980567132E+01  0.40880775253E+02  0.13187062304E+03  0.12509000000E+03 0.  0.
         25    1    4    4    0    0  0.58137467437E+02  0.73006726080E+02  0.56323708197E+02  0.16592111191E+03  0.12509000000E+03 0.  0.
         25    1    3    3    0    0 -0.58904265727E+02 -0.81404782794E+02 -0.33781159157E+02  0.16396684420E+03  0.12509000000E+03 0.  0.
<mgrwt>
<rscale>  2 0.45738219E+03</rscale>
<asrwt>0</asrwt>
<pdfrwt beam="1">  1       21 0.38616316E-01 0.45738219E+03</pdfrwt>
<pdfrwt beam="2">  1       21 0.29289357E-01 0.45738219E+03</pdfrwt>
<totfact> 0.66775005E+04</totfact>
</mgrwt>
</event>
<event>
 7    0  0.4714446E-002  0.4429748E+03  0.7546771E-02  0.1029838E+00
         21   -1    0    0  502  501  0.00000000000E+00  0.00000000000E+00  0.25738538601E+03  0.25738538601E+03  0.00000000000E+00 0.  1.
         21   -1    0    0  501  502 -0.00000000000E+00 -0.00000000000E+00 -0.19059620584E+03  0.19059620584E+03  0.00000000000E+00 0.  1.
      99926    2    1    2    0    0 -0.35527136788E-14  0.00000000000E+00  0.66789180177E+02  0.44798159185E+03  0.44297484359E+03 0.  0.
      99925    2    3    3    0    0  0.13963162017E+02 -0.86797402676E+02  0.93714088810E+02  0.29273592264E+03  0.26302705366E+03 0.  0.
         25    1    4    4    0    0 -0.31565347355E+02 -0.29136913746E+02  0.44931878715E+02  0.13968433241E+03  0.12509000000E+03 0.  0.
         25    1    4    4    0    0  0.45528509372E+02 -0.57660488930E+02  0.48782210095E+02  0.15305159023E+03  0.12509000000E+03 0.  0.
         25    1    3    3    0    0 -0.13963162017E+02  0.86797402676E+02 -0.26924908633E+02  0.15524566921E+03  0.12509000000E+03 0.  0.
<mgrwt>
<rscale>  2 0.44297484E+03</rscale>
<asrwt>0</asrwt>
<pdfrwt beam="1">  1       21 0.37850792E-01 0.44297484E+03</pdfrwt>
<pdfrwt beam="2">  1       21 0.28028854E-01 0.44297484E+03</pdfrwt>
<totfact> 0.76106030E+04</totfact>
</mgrwt>
</event>
<event>
 7    0  0.4714446E-002  0.4554190E+03  0.7546771E-02  0.1026118E+00
         21   -1    0    0  502  501  0.00000000000E+00  0.00000000000E+00  0.31968076319E+02  0.31968076319E+02  0.00000000000E+00 0.  1.
         21   -1    0    0  501  502 -0.00000000000E+00 -0.00000000000E+00 -0.16219811863E+04  0.16219811863E+04  0.00000000000E+00 0.  1.
      99926    2    1    2    0    0  0.35527136788E-14  0.00000000000E+00 -0.15900131099E+04  0.16539492626E+04  0.45541900861E+03 0.  0.
      99925    2    3    3    0    0  0.18969022293E+02  0.65370760045E+02 -0.67022704776E+03  0.72320382565E+03  0.26303292154E+03 0.  0.
         25    1    4    4    0    0  0.21335681421E+02  0.65473162400E+02 -0.29652913739E+03  0.32911849495E+03  0.12509000000E+03 0.  0.
         25    1    4    4    0    0 -0.23666591280E+01 -0.10240235525E+00 -0.37369791037E+03  0.39408533071E+03  0.12509000000E+03 0.  0.
         25    1    3    3    0    0 -0.18969022293E+02 -0.65370760045E+02 -0.91978606217E+03  0.93074543692E+03  0.12509000000E+03 0.  0.
<mgrwt>
<rscale>  2 0.45541901E+03</rscale>
<asrwt>0</asrwt>
<pdfrwt beam="1">  1       21 0.47011868E-02 0.45541901E+03</pdfrwt>
<pdfrwt beam="2">  1       21 0.23852669E+00 0.45541901E+03</pdfrwt>
<totfact> 0.20171953E+04</totfact>
</mgrwt>
</event>
<event>
 7    0  0.4714446E-002  0.4511735E+03  0.7546771E-02  0.1027373E+00
         21   -1    0    0  502  501  0.00000000000E+00  0.00000000000E+00  0.18855245778E+03  0.18855245778E+03  0.00000000000E+00 0.  1.
         21   -1    0    0  501  502 -0.00000000000E+00 -0.00000000000E+00 -0.26989506938E+03  0.26989506938E+03  0.00000000000E+00 0.  1.
      99926    2    1    2    0    0  0.00000000000E+00  0.71054273576E-14 -0.81342611602E+02  0.45844752715E+03  0.45117348625E+03 0.  0.
      99925    2    3    3    0    0  0.59334751057E+02 -0.37672616398E+02 -0.13679962626E+03  0.30462026272E+03  0.26294396362E+03 0.  0.
         25    1    4    4    0    0  0.68972113688E+02 -0.13004963074E+02 -0.60104750104E+02  0.15551967919E+03  0.12509000000E+03 0.  0.
         25    1    3    3    0    0 -0.59334751057E+02  0.37672616398E+02  0.55457014657E+02  0.15382726444E+03  0.12509000000E+03 0.  0.
         25    1    4    4    0    0 -0.96373626312E+01 -0.24667653324E+02 -0.76694876155E+02  0.14910058352E+03  0.12509000000E+03 0.  0.
<mgrwt>
<rscale>  2 0.45117349E+03</rscale>
<asrwt>0</asrwt>
<pdfrwt beam="1">  1       21 0.27728303E-01 0.45117349E+03</pdfrwt>
<pdfrwt beam="2">  1       21 0.39690451E-01 0.45117349E+03</pdfrwt>
<totfact> 0.70417018E+04</totfact>
</mgrwt>
</event>
<event>
 7    0  0.4714446E-002  0.4676791E+03  0.7546771E-02  0.1022577E+00
         21   -1    0    0  502  501  0.00000000000E+00  0.00000000000E+00  0.70175047250E+03  0.70175047250E+03  0.00000000000E+00 0. -1.
         21   -1    0    0  501  502 -0.00000000000E+00 -0.00000000000E+00 -0.77920779196E+02  0.77920779196E+02  0.00000000000E+00 0. -1.
      99926    2    1    2    0    0  0.71054273576E-14  0.00000000000E+00  0.62382969331E+03  0.77967125170E+03  0.46767913624E+03 0.  0.
      99925    2    3    3    0    0 -0.44429499561E+02  0.89455301114E+02  0.51257334205E+03  0.58473096566E+03  0.26306394638E+03 0.  0.
         25    1    4    4    0    0  0.16825571575E+02  0.34516785580E+02  0.26126370403E+03  0.29219982801E+03  0.12509000000E+03 0.  0.
         25    1    3    3    0    0  0.44429499561E+02 -0.89455301114E+02  0.11125635125E+03  0.19494028604E+03  0.12509000000E+03 0.  0.
         25    1    4    4    0    0 -0.61255071136E+02  0.54938515534E+02  0.25130963802E+03  0.29253113765E+03  0.12509000000E+03 0.  0.
<mgrwt>
<rscale>  2 0.46767914E+03</rscale>
<asrwt>0</asrwt>
<pdfrwt beam="1">  1       21 0.10319860E+00 0.46767914E+03</pdfrwt>
<pdfrwt beam="2">  1       21 0.11458938E-01 0.46767914E+03</pdfrwt>
<totfact> 0.44198316E+04</totfact>
</mgrwt>
</event>
<event>
 7    0  0.4714446E-002  0.4514283E+03  0.7546771E-02  0.1027297E+00
         21   -1    0    0  502  501  0.00000000000E+00  0.00000000000E+00  0.20684171788E+04  0.20684171788E+04  0.00000000000E+00 0. -1.
         21   -1    0    0  501  502 -0.00000000000E+00 -0.00000000000E+00 -0.24630848337E+02  0.24630848337E+02  0.00000000000E+00 0. -1.
      99926    2    1    2    0    0  0.00000000000E+00  0.00000000000E+00  0.20437863305E+04  0.20930480271E+04  0.45142826596E+03 0.  0.
      99925    2    3    3    0    0  0.92366237165E+02 -0.58137939486E+02  0.13478017538E+04  0.13775387115E+04  0.26292925328E+03 0.  0.
         25    1    4    4    0    0  0.74797965711E+02 -0.86289461475E+01  0.59834356525E+03  0.61589911882E+03  0.12509000000E+03 0.  0.
         25    1    3    3    0    0 -0.92366237165E+02  0.58137939486E+02  0.69598457662E+03  0.71550931564E+03  0.12509000000E+03 0.  0.
         25    1    4    4    0    0  0.17568271453E+02 -0.49508993338E+02  0.74945818858E+03  0.76163959267E+03  0.12509000000E+03 0.  0.
<mgrwt>
<rscale>  2 0.45142827E+03</rscale>
<asrwt>0</asrwt>
<pdfrwt beam="1">  1       21 0.30417888E+00 0.45142827E+03</pdfrwt>
<pdfrwt beam="2">  1       21 0.36221850E-02 0.45142827E+03</pdfrwt>
<totfact> 0.12595173E+04</totfact>
</mgrwt>
</event>
<event>
 7    0  0.4714446E-002  0.4511951E+03  0.7546771E-02  0.1027366E+00
         21   -1    0    0  502  501  0.00000000000E+00  0.00000000000E+00  0.57370146710E+02  0.57370146710E+02  0.00000000000E+00 0.  1.
         21   -1    0    0  501  502 -0.00000000000E+00 -0.00000000000E+00 -0.88712071507E+03  0.88712071507E+03  0.00000000000E+00 0.  1.
      99926    2    1    2    0    0 -0.44408920985E-14  0.00000000000E+00 -0.82975056836E+03  0.94449086178E+03  0.45119506014E+03 0.  0.
      99925    2    3    3    0    0 -0.23423017328E+01  0.72662206259E+02 -0.35234757286E+03  0.44564578482E+03  0.26299443118E+03 0.  0.
         25    1    4    4    0    0  0.35710047168E+02  0.26524822974E+02 -0.14951573378E+03  0.19995308562E+03  0.12509000000E+03 0.  0.
         25    1    4    4    0    0 -0.38052348901E+02  0.46137383285E+02 -0.20283183908E+03  0.24569269919E+03  0.12509000000E+03 0.  0.
         25    1    3    3    0    0  0.23423017328E+01 -0.72662206259E+02 -0.47740299550E+03  0.49884507696E+03  0.12509000000E+03 0.  0.
<mgrwt>
<rscale>  2 0.45119506E+03</rscale>
<asrwt>0</asrwt>
<pdfrwt beam="1">  1       21 0.84367873E-02 0.45119506E+03</pdfrwt>
<pdfrwt beam="2">  1       21 0.13045891E+00 0.45119506E+03</pdfrwt>
<totfact> 0.42618769E+04</totfact>
</mgrwt>
</event>
<event>
 7    0  0.4714446E-002  0.4340791E+03  0.7546771E-02  0.1032579E+00
         21   -1    0    0  502  501  0.00000000000E+00  0.00000000000E+00  0.12281143831E+03  0.12281143831E+03  0.00000000000E+00 0.  1.
         21   -1    0    0  501  502 -0.00000000000E+00 -0.00000000000E+00 -0.38356490516E+03  0.38356490516E+03  0.00000000000E+00 0.  1.
      99926    2    1    2    0    0  0.00000000000E+00  0.00000000000E+00 -0.26075346685E+03  0.50637634347E+03  0.43407906048E+03 0.  0.
      99925    2    3    3    0    0  0.53926184023E+02 -0.74378647994E+02 -0.17750314254E+03  0.33025609705E+03  0.26290969443E+03 0.  0.
         25    1    4    4    0    0  0.12700216388E+02 -0.14486172210E+02 -0.12047408983E+03  0.17473596968E+03  0.12509000000E+03 0.  0.
         25    1    4    4    0    0  0.41225967635E+02 -0.59892475784E+02 -0.57029052714E+02  0.15552012737E+03  0.12509000000E+03 0.  0.
         25    1    3    3    0    0 -0.53926184023E+02  0.74378647994E+02 -0.83250324305E+02  0.17612024642E+03  0.12509000000E+03 0.  0.
<mgrwt>
<rscale>  2 0.43407906E+03</rscale>
<asrwt>0</asrwt>
<pdfrwt beam="1">  1       21 0.18060506E-01 0.43407906E+03</pdfrwt>
<pdfrwt beam="2">  1       21 0.56406602E-01 0.43407906E+03</pdfrwt>
<totfact> 0.76799209E+04</totfact>
</mgrwt>
</event>
<event>
 7    0  0.4714446E-002  0.4501351E+03  0.7546771E-02  0.1027682E+00
         21   -1    0    0  502  501  0.00000000000E+00  0.00000000000E+00  0.21228999451E+03  0.21228999451E+03  0.00000000000E+00 0. -1.
         21   -1    0    0  501  502 -0.00000000000E+00 -0.00000000000E+00 -0.23861415308E+03  0.23861415308E+03  0.00000000000E+00 0. -1.
      99926    2    1    2    0    0  0.00000000000E+00  0.00000000000E+00 -0.26324158561E+02  0.45090414759E+03  0.45013507860E+03 0.  0.
      99925    2    3    3    0    0  0.52131838933E+02 -0.41760075981E+02 -0.10225259331E+03  0.29004934387E+03  0.26308058930E+03 0.  0.
         25    1    4    4    0    0  0.17718184984E+02  0.13019888450E+02 -0.25073665526E+02  0.12945906062E+03  0.12509000000E+03 0.  0.
         25    1    4    4    0    0  0.34413653949E+02 -0.54779964430E+02 -0.77178927779E+02  0.16059028325E+03  0.12509000000E+03 0.  0.
         25    1    3    3    0    0 -0.52131838933E+02  0.41760075981E+02  0.75928434744E+02  0.16085480372E+03  0.12509000000E+03 0.  0.
<mgrwt>
<rscale>  2 0.45013508E+03</rscale>
<asrwt>0</asrwt>
<pdfrwt beam="1">  1       21 0.31219117E-01 0.45013508E+03</pdfrwt>
<pdfrwt beam="2">  1       21 0.35090317E-01 0.45013508E+03</pdfrwt>
<totfact> 0.71585527E+04</totfact>
</mgrwt>
</event>
<event>
 7    0  0.4714446E-002  0.4475316E+03  0.7546771E-02  0.1028461E+00
         21   -1    0    0  502  501  0.00000000000E+00  0.00000000000E+00  0.51793227592E+03  0.51793227592E+03  0.00000000000E+00 0. -1.
         21   -1    0    0  501  502 -0.00000000000E+00 -0.00000000000E+00 -0.96675046339E+02  0.96675046339E+02  0.00000000000E+00 0. -1.
      99926    2    1    2    0    0 -0.35527136788E-14  0.00000000000E+00  0.42125722959E+03  0.61460732226E+03  0.44753157107E+03 0.  0.
      99925    2    3    3    0    0  0.26546889781E+02  0.84558032432E+02  0.18710626293E+03  0.33473416976E+03  0.26302739890E+03 0.  0.
         25    1    4    4    0    0 -0.19020993410E+02  0.27281672662E+02  0.63118553943E+02  0.14400537422E+03  0.12509000000E+03 0.  0.
         25    1    3    3    0    0 -0.26546889781E+02 -0.84558032432E+02  0.23415096666E+03  0.27987315251E+03  0.12509000000E+03 0.  0.
         25    1    4    4    0    0  0.45567883190E+02  0.57276359769E+02  0.12398770898E+03  0.19072879553E+03  0.12509000000E+03 0.  0.
<mgrwt>
<rscale>  2 0.44753157E+03</rscale>
<asrwt>0</asrwt>
<pdfrwt beam="1">  1       21 0.76166510E-01 0.44753157E+03</pdfrwt>
<pdfrwt beam="2">  1       21 0.14216919E-01 0.44753157E+03</pdfrwt>
<totfact> 0.61325894E+04</totfact>
</mgrwt>
</event>
<event>
 7    0  0.4714446E-002  0.4553722E+03  0.7546771E-02  0.1026132E+00
         21   -1    0    0  502  501  0.00000000000E+00  0.00000000000E+00  0.89836598856E+02  0.89836598856E+02  0.00000000000E+00 0. -1.
         21   -1    0    0  501  502 -0.00000000000E+00 -0.00000000000E+00 -0.57705825234E+03  0.57705825234E+03  0.00000000000E+00 0. -1.
      99926    2    1    2    0    0  0.00000000000E+00  0.00000000000E+00 -0.48722165348E+03  0.66689485119E+03  0.45537215871E+03 0.  0.
      99925    2    3    3    0    0 -0.10848120101E+03 -0.29827481805E+02 -0.32862706607E+03  0.43568585288E+03  0.26299917149E+03 0.  0.
         25    1    4    4    0    0 -0.62241058314E+02 -0.71209603913E+00 -0.22270603410E+03  0.26290671758E+03  0.12509000000E+03 0.  0.
         25    1    4    4    0    0 -0.46240142695E+02 -0.29115385766E+02 -0.10592103197E+03  0.17277913531E+03  0.12509000000E+03 0.  0.
         25    1    3    3    0    0  0.10848120101E+03  0.29827481805E+02 -0.15859458741E+03  0.23120899831E+03  0.12509000000E+03 0.  0.
<mgrwt>
<rscale>  2 0.45537216E+03</rscale>
<asrwt>0</asrwt>
<pdfrwt beam="1">  1       21 0.13211265E-01 0.45537216E+03</pdfrwt>
<pdfrwt beam="2">  1       21 0.84861506E-01 0.45537216E+03</pdfrwt>
<totfact> 0.54577069E+04</totfact>
</mgrwt>
</event>
<event>
 7    0  0.4714446E-002  0.4563269E+03  0.7546771E-02  0.1025852E+00
         21   -1    0    0  502  501  0.00000000000E+00  0.00000000000E+00  0.48383579986E+03  0.48383579986E+03  0.00000000000E+00 0. -1.
         21   -1    0    0  501  502 -0.00000000000E+00 -0.00000000000E+00 -0.10759552794E+03  0.10759552794E+03  0.00000000000E+00 0. -1.
      99926    2    1    2    0    0  0.00000000000E+00  0.00000000000E+00  0.37624027192E+03  0.59143132780E+03  0.45632693685E+03 0.  0.
      99925    2    3    3    0    0 -0.51635936425E+02  0.19353018038E+02  0.10651283475E+03  0.28903885485E+03  0.26297845237E+03 0.  0.
         25    1    3    3    0    0  0.51635936425E+02 -0.19353018038E+02  0.26972743716E+03  0.30239247295E+03  0.12509000000E+03 0.  0.
         25    1    4    4    0    0 -0.36433360000E+02  0.32534370066E+02  0.89078413565E+02  0.16114697273E+03  0.12509000000E+03 0.  0.
         25    1    4    4    0    0 -0.15202576425E+02 -0.13181352028E+02  0.17434421190E+02  0.12789188212E+03  0.12509000000E+03 0.  0.
<mgrwt>
<rscale>  2 0.45632694E+03</rscale>
<asrwt>0</asrwt>
<pdfrwt beam="1">  1       21 0.71152322E-01 0.45632694E+03</pdfrwt>
<pdfrwt beam="2">  1       21 0.15822872E-01 0.45632694E+03</pdfrwt>
<totfact> 0.58591932E+04</totfact>
</mgrwt>
</event>
<event>
 7    0  0.4714446E-002  0.4542627E+03  0.7546771E-02  0.1026458E+00
         21   -1    0    0  502  501  0.00000000000E+00  0.00000000000E+00  0.45238034391E+03  0.45238034391E+03  0.00000000000E+00 0.  1.
         21   -1    0    0  501  502 -0.00000000000E+00 -0.00000000000E+00 -0.11403821405E+03  0.11403821405E+03  0.00000000000E+00 0.  1.
      99926    2    1    2    0    0 -0.14210854715E-13 -0.88817841970E-15  0.33834212986E+03  0.56641855796E+03  0.45426268388E+03 0.  0.
      99925    2    3    3    0    0 -0.11177486928E+03  0.60319937702E+01  0.19877660403E+03  0.34811590005E+03  0.26294968189E+03 0.  0.
         25    1    3    3    0    0  0.11177486928E+03 -0.60319937702E+01  0.13956552582E+03  0.21830265791E+03  0.12509000000E+03 0.  0.
         25    1    4    4    0    0 -0.40755346613E+02 -0.91085598284E+01  0.13901771810E+03  0.19161784412E+03  0.12509000000E+03 0.  0.
         25    1    4    4    0    0 -0.71019522663E+02  0.15140553599E+02  0.59758885933E+02  0.15649805593E+03  0.12509000000E+03 0.  0.
<mgrwt>
<rscale>  2 0.45426268E+03</rscale>
<asrwt>0</asrwt>
<pdfrwt beam="1">  1       21 0.66526521E-01 0.45426268E+03</pdfrwt>
<pdfrwt beam="2">  1       21 0.16770326E-01 0.45426268E+03</pdfrwt>
<totfact> 0.61150216E+04</totfact>
</mgrwt>
</event>
<event>
 7    0  0.4714446E-002  0.4063873E+03  0.7546771E-02  0.1041590E+00
         21   -1    0    0  502  501  0.00000000000E+00  0.00000000000E+00  0.11910735419E+03  0.11910735419E+03  0.00000000000E+00 0. -1.
         21   -1    0    0  501  502 -0.00000000000E+00 -0.00000000000E+00 -0.34664238568E+03  0.34664238568E+03  0.00000000000E+00 0. -1.
      99926    2    1    2    0    0  0.71054273576E-14 -0.71054273576E-14 -0.22753503150E+03  0.46574973987E+03  0.40638729020E+03 0.  0.
      99925    2    3    3    0    0 -0.33864011548E+02 -0.41294636561E+02 -0.12865394216E+03  0.29759208701E+03  0.26297755633E+03 0.  0.
         25    1    3    3    0    0  0.33864011548E+02  0.41294636561E+02 -0.98881089339E+02  0.16815765286E+03  0.12509000000E+03 0.  0.
         25    1    4    4    0    0  0.49994524192E+01 -0.48094835638E+02 -0.87468252120E+02  0.16011343157E+03  0.12509000000E+03 0.  0.
         25    1    4    4    0    0 -0.38863463967E+02  0.68001990763E+01 -0.41185690037E+02  0.13747865544E+03  0.12509000000E+03 0.  0.
<mgrwt>
<rscale>  2 0.40638729E+03</rscale>
<asrwt>0</asrwt>
<pdfrwt beam="1">  1       21 0.17515787E-01 0.40638729E+03</pdfrwt>
<pdfrwt beam="2">  1       21 0.50976821E-01 0.40638729E+03</pdfrwt>
<totfact> 0.10166750E+05</totfact>
</mgrwt>
</event>
<event>
 7    0  0.4714446E-002  0.4536074E+03  0.7546771E-02  0.1026652E+00
         21   -1    0    0  502  501  0.00000000000E+00  0.00000000000E+00  0.12649548918E+03  0.12649548918E+03  0.00000000000E+00 0. -1.
         21   -1    0    0  501  502 -0.00000000000E+00 -0.00000000000E+00 -0.40665423080E+03  0.40665423080E+03  0.00000000000E+00 0. -1.
      99926    2    1    2    0    0  0.00000000000E+00  0.14210854715E-13 -0.28015874162E+03  0.53314971998E+03  0.45360743315E+03 0.  0.
      99925    2    3    3    0    0  0.61841235674E+02 -0.63390661015E+02 -0.95994268305E+02  0.29355260885E+03  0.26289830787E+03 0.  0.
         25    1    4    4    0    0  0.20418943798E+02  0.65352154244E+01 -0.29880274647E+02  0.13038397608E+03  0.12509000000E+03 0.  0.
         25    1    4    4    0    0  0.41422291876E+02 -0.69925876439E+02 -0.66113993658E+02  0.16316863276E+03  0.12509000000E+03 0.  0.
         25    1    3    3    0    0 -0.61841235674E+02  0.63390661015E+02 -0.18416447331E+03  0.23959711113E+03  0.12509000000E+03 0.  0.
<mgrwt>
<rscale>  2 0.45360743E+03</rscale>
<asrwt>0</asrwt>
<pdfrwt beam="1">  1       21 0.18602278E-01 0.45360743E+03</pdfrwt>
<pdfrwt beam="2">  1       21 0.59802093E-01 0.45360743E+03</pdfrwt>
<totfact> 0.63693075E+04</totfact>
</mgrwt>
</event>
<event>
 7    0  0.4714446E-002  0.4551832E+03  0.7546771E-02  0.1026188E+00
         21   -1    0    0  502  501  0.00000000000E+00  0.00000000000E+00  0.74267406893E+03  0.74267406893E+03  0.00000000000E+00 0. -1.
         21   -1    0    0  501  502 -0.00000000000E+00 -0.00000000000E+00 -0.69745167820E+02  0.69745167820E+02  0.00000000000E+00 0. -1.
      99926    2    1    2    0    0 -0.14210854715E-13  0.00000000000E+00  0.67292890111E+03  0.81241923675E+03  0.45518316126E+03 0.  0.
      99925    2    3    3    0    0  0.81440838172E+02 -0.57871867626E+02  0.51906531257E+03  0.59037582847E+03  0.26293165830E+03 0.  0.
         25    1    3    3    0    0 -0.81440838172E+02  0.57871867626E+02  0.15386358854E+03  0.22204340829E+03  0.12509000000E+03 0.  0.
         25    1    4    4    0    0  0.71122573554E+01 -0.11880029543E+02  0.27658407863E+03  0.30387165047E+03  0.12509000000E+03 0.  0.
         25    1    4    4    0    0  0.74328580816E+02 -0.45991838083E+02  0.24248123394E+03  0.28650417800E+03  0.12509000000E+03 0.  0.
<mgrwt>
<rscale>  2 0.45518316E+03</rscale>
<asrwt>0</asrwt>
<pdfrwt beam="1">  1       21 0.10921677E+00 0.45518316E+03</pdfrwt>
<pdfrwt beam="2">  1       21 0.10256643E-01 0.45518316E+03</pdfrwt>
<totfact> 0.47102233E+04</totfact>
</mgrwt>
</event>
<event>
 7    0  0.4714446E-002  0.4630661E+03  0.7546771E-02  0.1023896E+00
         21   -1    0    0  502  501  0.00000000000E+00  0.00000000000E+00  0.97592592577E+02  0.97592592577E+02  0.00000000000E+00 0. -1.
         21   -1    0    0  501  502 -0.00000000000E+00 -0.00000000000E+00 -0.54929934847E+03  0.54929934847E+03  0.00000000000E+00 0. -1.
      99926    2    1    2    0    0  0.00000000000E+00  0.00000000000E+00 -0.45170675590E+03  0.64689194105E+03  0.46306607528E+03 0.  0.
      99925    2    3    3    0    0  0.85572498758E+02 -0.52465513053E+02 -0.18904423407E+03  0.33913490852E+03  0.26305794254E+03 0.  0.
         25    1    4    4    0    0  0.37871399402E+02 -0.63290654754E+02 -0.11846141800E+03  0.18740481724E+03  0.12509000000E+03 0.  0.
         25    1    4    4    0    0  0.47701099356E+02  0.10825141700E+02 -0.70582816072E+02  0.15173009127E+03  0.12509000000E+03 0.  0.
         25    1    3    3    0    0 -0.85572498758E+02  0.52465513053E+02 -0.26266252183E+03  0.30775703254E+03  0.12509000000E+03 0.  0.
<mgrwt>
<rscale>  2 0.46306608E+03</rscale>
<asrwt>0</asrwt>
<pdfrwt beam="1">  1       21 0.14351852E-01 0.46306608E+03</pdfrwt>
<pdfrwt beam="2">  1       21 0.80779317E-01 0.46306608E+03</pdfrwt>
<totfact> 0.52461475E+04</totfact>
</mgrwt>
</event>
<event>
 7    0  0.4714446E-002  0.4534322E+03  0.7546771E-02  0.1026703E+00
         21   -1    0    0  502  501  0.00000000000E+00  0.00000000000E+00  0.55318850851E+02  0.55318850851E+02  0.00000000000E+00 0.  1.
         21   -1    0    0  501  502 -0.00000000000E+00 -0.00000000000E+00 -0.92916241491E+03  0.92916241491E+03  0.00000000000E+00 0.  1.
      99926    2    1    2    0    0  0.88817841970E-15  0.71054273576E-14 -0.87384356406E+03  0.98448126576E+03  0.45343223109E+03 0.  0.
      99925    2    3    3    0    0  0.48804214612E+01  0.35101110695E+02 -0.78064671891E+03  0.82451543650E+03  0.26298383752E+03 0.  0.
         25    1    3    3    0    0 -0.48804214612E+01 -0.35101110695E+02 -0.93196845151E+02  0.15996582926E+03  0.12509000000E+03 0.  0.
         25    1    4    4    0    0  0.27082802512E+02 -0.14342668523E+02 -0.36157038776E+03  0.38382267226E+03  0.12509000000E+03 0.  0.
         25    1    4    4    0    0 -0.22202381050E+02  0.49443779218E+02 -0.41907633114E+03  0.44069276424E+03  0.12509000000E+03 0.  0.
<mgrwt>
<rscale>  2 0.45343223E+03</rscale>
<asrwt>0</asrwt>
<pdfrwt beam="1">  1       21 0.81351250E-02 0.45343223E+03</pdfrwt>
<pdfrwt beam="2">  1       21 0.13664153E+00 0.45343223E+03</pdfrwt>
<totfact> 0.40266103E+04</totfact>
</mgrwt>
</event>
<event>
 7    0  0.4714446E-002  0.4541359E+03  0.7546771E-02  0.1026496E+00
         21   -1    0    0  502  501  0.00000000000E+00  0.00000000000E+00  0.20311414200E+03  0.20311414200E+03  0.00000000000E+00 0. -1.
         21   -1    0    0  501  502 -0.00000000000E+00 -0.00000000000E+00 -0.25384673202E+03  0.25384673202E+03  0.00000000000E+00 0. -1.
      99926    2    1    2    0    0  0.00000000000E+00 -0.14210854715E-13 -0.50732590019E+02  0.45696087402E+03  0.45413593196E+03 0.  0.
      99925    2    3    3    0    0 -0.40858744600E+02 -0.99504123512E+02 -0.68865308156E+02  0.29098855352E+03  0.26146013081E+03 0.  0.
         25    1    3    3    0    0  0.40858744600E+02  0.99504123512E+02  0.18132718136E+02  0.16597232050E+03  0.12509000000E+03 0.  0.
         25    1    4    4    0    0  0.96578706369E+01 -0.46407519669E+02 -0.87971706310E+01  0.13405905661E+03  0.12509000000E+03 0.  0.
         25    1    4    4    0    0 -0.50516615236E+02 -0.53096603843E+02 -0.60068137525E+02  0.15692949691E+03  0.12509000000E+03 0.  0.
<mgrwt>
<rscale>  2 0.45413593E+03</rscale>
<asrwt>0</asrwt>
<pdfrwt beam="1">  1       21 0.29869727E-01 0.45413593E+03</pdfrwt>
<pdfrwt beam="2">  1       21 0.37330402E-01 0.45413593E+03</pdfrwt>
<totfact> 0.68875918E+04</totfact>
</mgrwt>
</event>
<event>
 7    0  0.4714446E-002  0.4202964E+03  0.7546771E-02  0.1036970E+00
         21   -1    0    0  502  501  0.00000000000E+00  0.00000000000E+00  0.83108214386E+02  0.83108214386E+02  0.00000000000E+00 0.  1.
         21   -1    0    0  501  502 -0.00000000000E+00 -0.00000000000E+00 -0.53138257812E+03  0.53138257812E+03  0.00000000000E+00 0.  1.
      99926    2    1    2    0    0  0.00000000000E+00  0.00000000000E+00 -0.44827436373E+03  0.61449079250E+03  0.42029635841E+03 0.  0.
      99925    2    3    3    0    0  0.53497097677E+01 -0.24941782441E+02 -0.39702025826E+03  0.47692188855E+03  0.26301842219E+03 0.  0.
         25    1    3    3    0    0 -0.53497097677E+01  0.24941782441E+02 -0.51254105475E+02  0.13756890395E+03  0.12509000000E+03 0.  0.
         25    1    4    4    0    0 -0.25471916187E+02  0.12990743172E+02 -0.22053562671E+03  0.25514907146E+03  0.12509000000E+03 0.  0.
         25    1    4    4    0    0  0.30821625955E+02 -0.37932525613E+02 -0.17648463155E+03  0.22177281709E+03  0.12509000000E+03 0.  0.
<mgrwt>
<rscale>  2 0.42029636E+03</rscale>
<asrwt>0</asrwt>
<pdfrwt beam="1">  1       21 0.12221796E-01 0.42029636E+03</pdfrwt>
<pdfrwt beam="2">  1       21 0.78144499E-01 0.42029636E+03</pdfrwt>
<totfact> 0.76760886E+04</totfact>
</mgrwt>
</event>
<event>
 7    0  0.4714446E-002  0.4590797E+03  0.7546771E-02  0.1025048E+00
         21   -1    0    0  502  501  0.00000000000E+00  0.00000000000E+00  0.13325397614E+03  0.13325397614E+03  0.00000000000E+00 0. -1.
         21   -1    0    0  501  502 -0.00000000000E+00 -0.00000000000E+00 -0.39539938588E+03  0.39539938588E+03  0.00000000000E+00 0. -1.
      99926    2    1    2    0    0  0.00000000000E+00  0.00000000000E+00 -0.26214540974E+03  0.52865336202E+03  0.45907968952E+03 0.  0.
      99925    2    3    3    0    0  0.64343966487E+02  0.95028022343E+02 -0.13835316519E+03  0.31855219838E+03  0.26298941751E+03 0.  0.
         25    1    4    4    0    0  0.53389226486E+02  0.13615869337E+02 -0.55766108088E+02  0.14762509378E+03  0.12509000000E+03 0.  0.
         25    1    4    4    0    0  0.10954740001E+02  0.81412153006E+02 -0.82587057106E+02  0.17092710460E+03  0.12509000000E+03 0.  0.
         25    1    3    3    0    0 -0.64343966487E+02 -0.95028022343E+02 -0.12379224454E+03  0.21010116364E+03  0.12509000000E+03 0.  0.
<mgrwt>
<rscale>  2 0.45907969E+03</rscale>
<asrwt>0</asrwt>
<pdfrwt beam="1">  1       21 0.19596173E-01 0.45907969E+03</pdfrwt>
<pdfrwt beam="2">  1       21 0.58146969E-01 0.45907969E+03</pdfrwt>
<totfact> 0.61291539E+04</totfact>
</mgrwt>
</event>
<event>
 7    0  0.4714446E-002  0.4227001E+03  0.7546771E-02  0.1036191E+00
         21   -1    0    0  502  501  0.00000000000E+00  0.00000000000E+00  0.12593652879E+04  0.12593652879E+04  0.00000000000E+00 0.  1.
         21   -1    0    0  501  502 -0.00000000000E+00 -0.00000000000E+00 -0.35469332321E+02  0.35469332321E+02  0.00000000000E+00 0.  1.
      99926    2    1    2    0    0 -0.35527136788E-14  0.00000000000E+00  0.12238959556E+04  0.12948346202E+04  0.42270011077E+03 0.  0.
      99925    2    3    3    0    0 -0.84163368689E+01  0.72198458544E+02  0.69987363654E+03  0.75120758714E+03  0.26307086444E+03 0.  0.
         25    1    4    4    0    0 -0.43794199384E+02  0.27128329574E+02  0.35469777597E+03  0.37962072986E+03  0.12509000000E+03 0.  0.
         25    1    4    4    0    0  0.35377862515E+02  0.45070128970E+02  0.34517586057E+03  0.37158685728E+03  0.12509000000E+03 0.  0.
         25    1    3    3    0    0  0.84163368689E+01 -0.72198458544E+02  0.52402231905E+03  0.54362703309E+03  0.12509000000E+03 0.  0.
<mgrwt>
<rscale>  2 0.42270011E+03</rscale>
<asrwt>0</asrwt>
<pdfrwt beam="1">  1       21 0.18520075E+00 0.42270011E+03</pdfrwt>
<pdfrwt beam="2">  1       21 0.52160791E-02 0.42270011E+03</pdfrwt>
<totfact> 0.37937414E+04</totfact>
</mgrwt>
</event>
<event>
 7    0  0.4714446E-002  0.4528688E+03  0.7546771E-02  0.1026870E+00
         21   -1    0    0  502  501  0.00000000000E+00  0.00000000000E+00  0.41709231814E+02  0.41709231814E+02  0.00000000000E+00 0. -1.
         21   -1    0    0  501  502 -0.00000000000E+00 -0.00000000000E+00 -0.12292848960E+04  0.12292848960E+04  0.00000000000E+00 0. -1.
      99926    2    1    2    0    0  0.71054273576E-14  0.14210854715E-13 -0.11875756642E+04  0.12709941278E+04  0.45286876109E+03 0.  0.
      99925    2    3    3    0    0 -0.37264718937E+02 -0.84075404013E+02 -0.92427284156E+03  0.96532565162E+03  0.26289921109E+03 0.  0.
         25    1    4    4    0    0  0.74794704408E+01 -0.42634852805E+02 -0.34373757041E+03  0.36834318042E+03  0.12509000000E+03 0.  0.
         25    1    4    4    0    0 -0.44744189378E+02 -0.41440551208E+02 -0.58053527115E+03  0.59698247119E+03  0.12509000000E+03 0.  0.
         25    1    3    3    0    0  0.37264718937E+02  0.84075404013E+02 -0.26330282263E+03  0.30566847620E+03  0.12509000000E+03 0.  0.
<mgrwt>
<rscale>  2 0.45286876E+03</rscale>
<asrwt>0</asrwt>
<pdfrwt beam="1">  1       21 0.61337112E-02 0.45286876E+03</pdfrwt>
<pdfrwt beam="2">  1       21 0.18077717E+00 0.45286876E+03</pdfrwt>
<totfact> 0.30471180E+04</totfact>
</mgrwt>
</event>
<event>
 7    0  0.4714446E-002  0.4550682E+03  0.7546771E-02  0.1026221E+00
         21   -1    0    0  502  501  0.00000000000E+00  0.00000000000E+00  0.14005315763E+03  0.14005315763E+03  0.00000000000E+00 0. -1.
         21   -1    0    0  501  502 -0.00000000000E+00 -0.00000000000E+00 -0.36965805608E+03  0.36965805608E+03  0.00000000000E+00 0. -1.
      99926    2    1    2    0    0  0.00000000000E+00  0.00000000000E+00 -0.22960489845E+03  0.50971121371E+03  0.45506824982E+03 0.  0.
      99925    2    3    3    0    0 -0.85245221972E+01  0.10600929647E+02 -0.27037665058E+03  0.37744295955E+03  0.26301066013E+03 0.  0.
         25    1    4    4    0    0 -0.11177138835E+02  0.18112702921E+02 -0.81662333288E+02  0.15089480845E+03  0.12509000000E+03 0.  0.
         25    1    4    4    0    0  0.26526166381E+01 -0.75117732737E+01 -0.18871431730E+03  0.22654815110E+03  0.12509000000E+03 0.  0.
         25    1    3    3    0    0  0.85245221972E+01 -0.10600929647E+02  0.40771752135E+02  0.13226825417E+03  0.12509000000E+03 0.  0.
<mgrwt>
<rscale>  2 0.45506825E+03</rscale>
<asrwt>0</asrwt>
<pdfrwt beam="1">  1       21 0.20596053E-01 0.45506825E+03</pdfrwt>
<pdfrwt beam="2">  1       21 0.54361479E-01 0.45506825E+03</pdfrwt>
<totfact> 0.64558687E+04</totfact>
</mgrwt>
</event>
<event>
 7    0  0.4714446E-002  0.4558682E+03  0.7546771E-02  0.1025986E+00
         21   -1    0    0  502  501  0.00000000000E+00  0.00000000000E+00  0.17285106459E+03  0.17285106459E+03  0.00000000000E+00 0.  1.
         21   -1    0    0  501  502 -0.00000000000E+00 -0.00000000000E+00 -0.30057061710E+03  0.30057061710E+03  0.00000000000E+00 0.  1.
      99926    2    1    2    0    0  0.71054273576E-14  0.00000000000E+00 -0.12771955251E+03  0.47342168169E+03  0.45586818774E+03 0.  0.
      99925    2    3    3    0    0 -0.25871999588E+02  0.93722956420E+02 -0.18559140432E+02  0.28102402945E+03  0.26301465836E+03 0.  0.
         25    1    4    4    0    0 -0.26510515981E+02  0.34376967555E+02 -0.45429484316E+02  0.13998546175E+03  0.12509000000E+03 0.  0.
         25    1    4    4    0    0  0.63851639340E+00  0.59345988865E+02  0.26870343885E+02  0.14103856770E+03  0.12509000000E+03 0.  0.
         25    1    3    3    0    0  0.25871999588E+02 -0.93722956420E+02 -0.10916041208E+03  0.19239765224E+03  0.12509000000E+03 0.  0.
<mgrwt>
<rscale>  2 0.45586819E+03</rscale>
<asrwt>0</asrwt>
<pdfrwt beam="1">  1       21 0.25419275E-01 0.45586819E+03</pdfrwt>
<pdfrwt beam="2">  1       21 0.44201560E-01 0.45586819E+03</pdfrwt>
<totfact> 0.66721373E+04</totfact>
</mgrwt>
</event>
<event>
 7    0  0.4714446E-002  0.4666641E+03  0.7546771E-02  0.1022866E+00
         21   -1    0    0  502  501  0.00000000000E+00  0.00000000000E+00  0.71909292687E+03  0.71909292687E+03  0.00000000000E+00 0. -1.
         21   -1    0    0  501  502 -0.00000000000E+00 -0.00000000000E+00 -0.75711839731E+02  0.75711839731E+02  0.00000000000E+00 0. -1.
      99926    2    1    2    0    0  0.71054273576E-14 -0.17763568394E-14  0.64338108714E+03  0.79480476660E+03  0.46666411232E+03 0.  0.
      99925    2    3    3    0    0  0.39220174282E+02 -0.95160841131E+01  0.59980491187E+03  0.65633033185E+03  0.26339095331E+03 0.  0.
         25    1    3    3    0    0 -0.39220174282E+02  0.95160841131E+01  0.43576175272E+02  0.13847443475E+03  0.12509000000E+03 0.  0.
         25    1    4    4    0    0  0.51658846634E+02 -0.21059512040E+02  0.36299086280E+03  0.38797166657E+03  0.12509000000E+03 0.  0.
         25    1    4    4    0    0 -0.12438672352E+02  0.11543427927E+02  0.23681404906E+03  0.26835866528E+03  0.12509000000E+03 0.  0.
<mgrwt>
<rscale>  2 0.46666411E+03</rscale>
<asrwt>0</asrwt>
<pdfrwt beam="1">  1       21 0.10574896E+00 0.46666411E+03</pdfrwt>
<pdfrwt beam="2">  1       21 0.11134094E-01 0.46666411E+03</pdfrwt>
<totfact> 0.43862020E+04</totfact>
</mgrwt>
</event>
<event>
 7    0  0.4714446E-002  0.4622353E+03  0.7546771E-02  0.1024135E+00
         21   -1    0    0  502  501  0.00000000000E+00  0.00000000000E+00  0.78826984055E+03  0.78826984055E+03  0.00000000000E+00 0.  1.
         21   -1    0    0  501  502 -0.00000000000E+00 -0.00000000000E+00 -0.67762800102E+02  0.67762800102E+02  0.00000000000E+00 0.  1.
      99926    2    1    2    0    0  0.00000000000E+00  0.14210854715E-13  0.72050704045E+03  0.85603264066E+03  0.46223531510E+03 0.  0.
      99925    2    3    3    0    0 -0.73904847378E+02 -0.86684025362E+02  0.52002242413E+03  0.59370148315E+03  0.26283470618E+03 0.  0.
         25    1    4    4    0    0 -0.14198952486E+02 -0.72776190517E+02  0.23287574623E+03  0.27454800207E+03  0.12509000000E+03 0.  0.
         25    1    4    4    0    0 -0.59705894891E+02 -0.13907834844E+02  0.28714667790E+03  0.31915348108E+03  0.12509000000E+03 0.  0.
         25    1    3    3    0    0  0.73904847378E+02  0.86684025362E+02  0.20048461632E+03  0.26233115751E+03  0.12509000000E+03 0.  0.
<mgrwt>
<rscale>  2 0.46223532E+03</rscale>
<asrwt>0</asrwt>
<pdfrwt beam="1">  1       21 0.11592203E+00 0.46223532E+03</pdfrwt>
<pdfrwt beam="2">  1       21 0.99651181E-02 0.46223532E+03</pdfrwt>
<totfact> 0.42695453E+04</totfact>
</mgrwt>
</event>
<event>
 7    0  0.4714446E-002  0.4619888E+03  0.7546771E-02  0.1024206E+00
         21   -1    0    0  502  501  0.00000000000E+00  0.00000000000E+00  0.58648003769E+02  0.58648003769E+02  0.00000000000E+00 0. -1.
         21   -1    0    0  501  502 -0.00000000000E+00 -0.00000000000E+00 -0.90980791425E+03  0.90980791425E+03  0.00000000000E+00 0. -1.
      99926    2    1    2    0    0  0.00000000000E+00 -0.14210854715E-13 -0.85115991048E+03  0.96845591802E+03  0.46198882230E+03 0.  0.
      99925    2    3    3    0    0 -0.86636356872E+02  0.80864382097E+02 -0.49798391576E+03  0.57548556548E+03  0.26296530018E+03 0.  0.
         25    1    4    4    0    0 -0.63350838828E+02  0.74315402364E+01 -0.21814676369E+03  0.25943028964E+03  0.12509000000E+03 0.  0.
         25    1    4    4    0    0 -0.23285518044E+02  0.73432841861E+02 -0.27983715206E+03  0.31605527584E+03  0.12509000000E+03 0.  0.
         25    1    3    3    0    0  0.86636356872E+02 -0.80864382097E+02 -0.35317599472E+03  0.39297035254E+03  0.12509000000E+03 0.  0.
<mgrwt>
<rscale>  2 0.46198882E+03</rscale>
<asrwt>0</asrwt>
<pdfrwt beam="1">  1       21 0.86247066E-02 0.46198882E+03</pdfrwt>
<pdfrwt beam="2">  1       21 0.13379528E+00 0.46198882E+03</pdfrwt>
<totfact> 0.38268225E+04</totfact>
</mgrwt>
</event>
<event>
 7    0  0.4714446E-002  0.4557254E+03  0.7546771E-02  0.1026028E+00
         21   -1    0    0  502  501  0.00000000000E+00  0.00000000000E+00  0.51667061254E+03  0.51667061254E+03  0.00000000000E+00 0.  1.
         21   -1    0    0  501  502 -0.00000000000E+00 -0.00000000000E+00 -0.10049230345E+03  0.10049230345E+03  0.00000000000E+00 0.  1.
      99926    2    1    2    0    0 -0.14210854715E-13  0.71054273576E-14  0.41617830909E+03  0.61716291599E+03  0.45572544357E+03 0.  0.
      99925    2    3    3    0    0 -0.96396467845E+02  0.35966366714E+02  0.19570596721E+03  0.34359131626E+03  0.26299868528E+03 0.  0.
         25    1    4    4    0    0 -0.26543970558E+02 -0.13019778130E+02  0.11252955179E+03  0.17083473043E+03  0.12509000000E+03 0.  0.
         25    1    4    4    0    0 -0.69852497286E+02  0.48986144844E+02  0.83176415416E+02  0.17275658582E+03  0.12509000000E+03 0.  0.
         25    1    3    3    0    0  0.96396467845E+02 -0.35966366714E+02  0.22047234188E+03  0.27357159973E+03  0.12509000000E+03 0.  0.
<mgrwt>
<rscale>  2 0.45572544E+03</rscale>
<asrwt>0</asrwt>
<pdfrwt beam="1">  1       21 0.75980971E-01 0.45572544E+03</pdfrwt>
<pdfrwt beam="2">  1       21 0.14778280E-01 0.45572544E+03</pdfrwt>
<totfact> 0.57305084E+04</totfact>
</mgrwt>
</event>
<event>
 7    0  0.4714446E-002  0.4522980E+03  0.7546771E-02  0.1027039E+00
         21   -1    0    0  502  501  0.00000000000E+00  0.00000000000E+00  0.17544828449E+03  0.17544828449E+03  0.00000000000E+00 0. -1.
         21   -1    0    0  501  502 -0.00000000000E+00 -0.00000000000E+00 -0.29150107639E+03  0.29150107639E+03  0.00000000000E+00 0. -1.
      99926    2    1    2    0    0 -0.71054273576E-14 -0.14210854715E-13 -0.11605279191E+03  0.46694936088E+03  0.45229797160E+03 0.  0.
      99925    2    3    3    0    0  0.54612880030E+02  0.75450696043E+02 -0.13474832439E+03  0.30987483960E+03  0.26303978995E+03 0.  0.
         25    1    3    3    0    0 -0.54612880030E+02 -0.75450696043E+02  0.18695532486E+02  0.15707452127E+03  0.12509000000E+03 0.  0.
         25    1    4    4    0    0  0.61656642541E+02  0.49772107688E+02 -0.49313197131E+02  0.15607082938E+03  0.12509000000E+03 0.  0.
         25    1    4    4    0    0 -0.70437625107E+01  0.25678588355E+02 -0.85435127260E+02  0.15380401022E+03  0.12509000000E+03 0.  0.
<mgrwt>
<rscale>  2 0.45229797E+03</rscale>
<asrwt>0</asrwt>
<pdfrwt beam="1">  1       21 0.25801219E-01 0.45229797E+03</pdfrwt>
<pdfrwt beam="2">  1       21 0.42867805E-01 0.45229797E+03</pdfrwt>
<totfact> 0.69133300E+04</totfact>
</mgrwt>
</event>
<event>
 7    0  0.4714446E-002  0.4413688E+03  0.7546771E-02  0.1030328E+00
         21   -1    0    0  502  501  0.00000000000E+00  0.00000000000E+00  0.16640409663E+02  0.16640409663E+02  0.00000000000E+00 0.  1.
         21   -1    0    0  501  502 -0.00000000000E+00 -0.00000000000E+00 -0.29267075516E+04  0.29267075516E+04  0.00000000000E+00 0.  1.
      99926    2    1    2    0    0  0.00000000000E+00 -0.35527136788E-14 -0.29100671419E+04  0.29433479612E+04  0.44136883724E+03 0.  0.
      99925    2    3    3    0    0  0.33673331998E+02  0.23486588677E+02 -0.24605699418E+04  0.24749669688E+04  0.26338478442E+03 0.  0.
         25    1    3    3    0    0 -0.33673331998E+02 -0.23486588677E+02 -0.44949720007E+03  0.46838099247E+03  0.12509000000E+03 0.  0.
         25    1    4    4    0    0  0.47007291486E+00 -0.16283121128E+02 -0.14274063553E+04  0.14329695643E+04  0.12509000000E+03 0.  0.
         25    1    4    4    0    0  0.33203259083E+02  0.39769709805E+02 -0.10331635866E+04  0.10419974045E+04  0.12509000000E+03 0.  0.
<mgrwt>
<rscale>  2 0.44136884E+03</rscale>
<asrwt>0</asrwt>
<pdfrwt beam="1">  1       21 0.24471198E-02 0.44136884E+03</pdfrwt>
<pdfrwt beam="2">  1       21 0.43039804E+00 0.44136884E+03</pdfrwt>
<totfact> 0.39808986E+03</totfact>
</mgrwt>
</event>
<event>
 7    0  0.4714446E-002  0.4645210E+03  0.7546771E-02  0.1023478E+00
         21   -1    0    0  502  501  0.00000000000E+00  0.00000000000E+00  0.92786732582E+03  0.92786732582E+03  0.00000000000E+00 0. -1.
         21   -1    0    0  501  502 -0.00000000000E+00 -0.00000000000E+00 -0.58138628047E+02  0.58138628047E+02  0.00000000000E+00 0. -1.
      99926    2    1    2    0    0  0.00000000000E+00  0.00000000000E+00  0.86972869777E+03  0.98600595386E+03  0.46452097189E+03 0.  0.
      99925    2    3    3    0    0  0.10710814020E+03 -0.16481346616E+02  0.66112926806E+03  0.71972599093E+03  0.26300152937E+03 0.  0.
         25    1    4    4    0    0  0.10273602788E+02 -0.11598322954E+01  0.29390093759E+03  0.31958122808E+03  0.12509000000E+03 0.  0.
         25    1    4    4    0    0  0.96834537413E+02 -0.15321514321E+02  0.36722833047E+03  0.40014476285E+03  0.12509000000E+03 0.  0.
         25    1    3    3    0    0 -0.10710814020E+03  0.16481346616E+02  0.20859942971E+03  0.26627996293E+03  0.12509000000E+03 0.  0.
<mgrwt>
<rscale>  2 0.46452097E+03</rscale>
<asrwt>0</asrwt>
<pdfrwt beam="1">  1       21 0.13645107E+00 0.46452097E+03</pdfrwt>
<pdfrwt beam="2">  1       21 0.85497988E-02 0.46452097E+03</pdfrwt>
<totfact> 0.36892799E+04</totfact>
</mgrwt>
</event>
<event>
 7    0  0.4714446E-002  0.4559185E+03  0.7546771E-02  0.1025972E+00
         21   -1    0    0  502  501  0.00000000000E+00  0.00000000000E+00  0.76559062313E+02  0.76559062313E+02  0.00000000000E+00 0.  1.
         21   -1    0    0  501  502 -0.00000000000E+00 -0.00000000000E+00 -0.67876255318E+03  0.67876255318E+03  0.00000000000E+00 0.  1.
      99926    2    1    2    0    0 -0.35527136788E-14  0.00000000000E+00 -0.60220349087E+03  0.75532161550E+03  0.45591852169E+03 0.  0.
      99925    2    3    3    0    0  0.19808063100E+02  0.33185648589E+02 -0.55636792716E+03  0.61660588590E+03  0.26299030690E+03 0.  0.
         25    1    4    4    0    0 -0.51484666974E+01  0.34768181449E+02 -0.35709508520E+03  0.37999965937E+03  0.12509000000E+03 0.  0.
         25    1    3    3    0    0 -0.19808063100E+02 -0.33185648589E+02 -0.45835563714E+02  0.13871572960E+03  0.12509000000E+03 0.  0.
         25    1    4    4    0    0  0.24956529798E+02 -0.15825328597E+01 -0.19927284196E+03  0.23660622653E+03  0.12509000000E+03 0.  0.
<mgrwt>
<rscale>  2 0.45591852E+03</rscale>
<asrwt>0</asrwt>
<pdfrwt beam="1">  1       21 0.11258685E-01 0.45591852E+03</pdfrwt>
<pdfrwt beam="2">  1       21 0.99818025E-01 0.45591852E+03</pdfrwt>
<totfact> 0.49640899E+04</totfact>
</mgrwt>
</event>
<event>
 7    0  0.4714446E-002  0.4357416E+03  0.7546771E-02  0.1032061E+00
         21   -1    0    0  502  501  0.00000000000E+00  0.00000000000E+00  0.82209783735E+02  0.82209783735E+02  0.00000000000E+00 0.  1.
         21   -1    0    0  501  502 -0.00000000000E+00 -0.00000000000E+00 -0.57739711076E+03  0.57739711076E+03  0.00000000000E+00 0.  1.
      99926    2    1    2    0    0  0.00000000000E+00  0.00000000000E+00 -0.49518732702E+03  0.65960689449E+03  0.43574162805E+03 0.  0.
      99925    2    3    3    0    0  0.14301613777E+02  0.59024162095E+02 -0.42589898499E+03  0.50424676348E+03  0.26303320170E+03 0.  0.
         25    1    4    4    0    0  0.15007850998E+02  0.25820194251E+02 -0.13822852464E+03  0.18880294264E+03  0.12509000000E+03 0.  0.
         25    1    4    4    0    0 -0.70623722134E+00  0.33203967844E+02 -0.28767046034E+03  0.31544382084E+03  0.12509000000E+03 0.  0.
         25    1    3    3    0    0 -0.14301613777E+02 -0.59024162095E+02 -0.69288342036E+02  0.15536013102E+03  0.12509000000E+03 0.  0.
<mgrwt>
<rscale>  2 0.43574163E+03</rscale>
<asrwt>0</asrwt>
<pdfrwt beam="1">  1       21 0.12089674E-01 0.43574163E+03</pdfrwt>
<pdfrwt beam="2">  1       21 0.84911340E-01 0.43574163E+03</pdfrwt>
<totfact> 0.64379408E+04</totfact>
</mgrwt>
</event>
<event>
 7    0  0.4714446E-002  0.4371966E+03  0.7546771E-02  0.1031610E+00
         21   -1    0    0  502  501  0.00000000000E+00  0.00000000000E+00  0.35423996250E+03  0.35423996250E+03  0.00000000000E+00 0. -1.
         21   -1    0    0  501  502 -0.00000000000E+00 -0.00000000000E+00 -0.13489507221E+03  0.13489507221E+03  0.00000000000E+00 0. -1.
      99926    2    1    2    0    0 -0.88817841970E-15  0.00000000000E+00  0.21934489028E+03  0.48913503471E+03  0.43719663916E+03 0.  0.
      99925    2    3    3    0    0  0.64018033944E+01 -0.93457202875E+02  0.16137135440E+03  0.32245068986E+03  0.26298004014E+03 0.  0.
         25    1    4    4    0    0 -0.15496755813E+02 -0.78839428218E+02  0.64496040992E+02  0.16205879268E+03  0.12509000000E+03 0.  0.
         25    1    4    4    0    0  0.21898559207E+02 -0.14617774657E+02  0.96875313413E+02  0.16039189718E+03  0.12509000000E+03 0.  0.
         25    1    3    3    0    0 -0.64018033944E+01  0.93457202875E+02  0.57973535878E+02  0.16668434485E+03  0.12509000000E+03 0.  0.
<mgrwt>
<rscale>  2 0.43719664E+03</rscale>
<asrwt>0</asrwt>
<pdfrwt beam="1">  1       21 0.52094112E-01 0.43719664E+03</pdfrwt>
<pdfrwt beam="2">  1       21 0.19837511E-01 0.43719664E+03</pdfrwt>
<totfact> 0.76261933E+04</totfact>
</mgrwt>
</event>
<event>
 7    0  0.4714446E-002  0.4464448E+03  0.7546771E-02  0.1028788E+00
         21   -1    0    0  502  501  0.00000000000E+00  0.00000000000E+00  0.40932034711E+02  0.40932034711E+02  0.00000000000E+00 0. -1.
         21   -1    0    0  501  502 -0.00000000000E+00 -0.00000000000E+00 -0.12173407953E+04  0.12173407953E+04  0.00000000000E+00 0. -1.
      99926    2    1    2    0    0  0.00000000000E+00  0.00000000000E+00 -0.11764087605E+04  0.12582728300E+04  0.44644478129E+03 0.  0.
      99925    2    3    3    0    0  0.55140555354E+02  0.73745423840E+02 -0.60437346777E+03  0.66552435661E+03  0.26301428159E+03 0.  0.
         25    1    4    4    0    0  0.36576595592E+02  0.11868944868E+02 -0.21756187315E+03  0.25388855025E+03  0.12509000000E+03 0.  0.
         25    1    4    4    0    0  0.18563959762E+02  0.61876478972E+02 -0.38681159462E+03  0.41163580637E+03  0.12509000000E+03 0.  0.
         25    1    3    3    0    0 -0.55140555354E+02 -0.73745423840E+02 -0.57203529278E+03  0.59274847335E+03  0.12509000000E+03 0.  0.
<mgrwt>
<rscale>  2 0.44644478E+03</rscale>
<asrwt>0</asrwt>
<pdfrwt beam="1">  1       21 0.60194175E-02 0.44644478E+03</pdfrwt>
<pdfrwt beam="2">  1       21 0.17902069E+00 0.44644478E+03</pdfrwt>
<totfact> 0.32458703E+04</totfact>
</mgrwt>
</event>
<event>
 7    0  0.4714446E-002  0.4347754E+03  0.7546771E-02  0.1032362E+00
         21   -1    0    0  502  501  0.00000000000E+00  0.00000000000E+00  0.27027278763E+03  0.27027278763E+03  0.00000000000E+00 0. -1.
         21   -1    0    0  501  502 -0.00000000000E+00 -0.00000000000E+00 -0.17485080749E+03  0.17485080749E+03  0.00000000000E+00 0. -1.
      99926    2    1    2    0    0  0.00000000000E+00  0.71054273576E-14  0.95421980147E+02  0.44512359512E+03  0.43477541402E+03 0.  0.
      99925    2    3    3    0    0  0.18162936151E+02  0.33872772154E+02  0.14783400564E+03  0.30415627458E+03  0.26301880009E+03 0.  0.
         25    1    3    3    0    0 -0.18162936151E+02 -0.33872772154E+02 -0.52412025488E+02  0.14096732053E+03  0.12509000000E+03 0.  0.
         25    1    4    4    0    0 -0.15128889650E+02 -0.13564117947E+02  0.85376546467E+02  0.15280553453E+03  0.12509000000E+03 0.  0.
         25    1    4    4    0    0  0.33291825801E+02  0.47436890101E+02  0.62457459169E+02  0.15135074005E+03  0.12509000000E+03 0.  0.
<mgrwt>
<rscale>  2 0.43477541E+03</rscale>
<asrwt>0</asrwt>
<pdfrwt beam="1">  1       21 0.39745998E-01 0.43477541E+03</pdfrwt>
<pdfrwt beam="2">  1       21 0.25713354E-01 0.43477541E+03</pdfrwt>
<totfact> 0.81666427E+04</totfact>
</mgrwt>
</event>
<event>
 7    0  0.4714446E-002  0.4560098E+03  0.7546771E-02  0.1025945E+00
         21   -1    0    0  502  501  0.00000000000E+00  0.00000000000E+00  0.36167299706E+03  0.36167299706E+03  0.00000000000E+00 0. -1.
         21   -1    0    0  501  502 -0.00000000000E+00 -0.00000000000E+00 -0.14373825564E+03  0.14373825564E+03  0.00000000000E+00 0. -1.
      99926    2    1    2    0    0  0.00000000000E+00  0.00000000000E+00  0.21793474142E+03  0.50541125270E+03  0.45600984949E+03 0.  0.
      99925    2    3    3    0    0  0.24706025347E+02 -0.11070884337E+03  0.12090344918E+03  0.31065649547E+03  0.26272224585E+03 0.  0.
         25    1    3    3    0    0 -0.24706025347E+02  0.11070884337E+03  0.97031292244E+02  0.19475475723E+03  0.12509000000E+03 0.  0.
         25    1    4    4    0    0  0.18473726600E+02 -0.88869907889E+02  0.93392391973E+02  0.18057903001E+03  0.12509000000E+03 0.  0.
         25    1    4    4    0    0  0.62322987468E+01 -0.21838935478E+02  0.27511057203E+02  0.13007746545E+03  0.12509000000E+03 0.  0.
<mgrwt>
<rscale>  2 0.45600985E+03</rscale>
<asrwt>0</asrwt>
<pdfrwt beam="1">  1       21 0.53187205E-01 0.45600985E+03</pdfrwt>
<pdfrwt beam="2">  1       21 0.21137979E-01 0.45600985E+03</pdfrwt>
<totfact> 0.64374609E+04</totfact>
</mgrwt>
</event>
<event>
 7    0  0.4714446E-002  0.4557195E+03  0.7546771E-02  0.1026030E+00
         21   -1    0    0  502  501  0.00000000000E+00  0.00000000000E+00  0.62075506478E+02  0.62075506478E+02  0.00000000000E+00 0.  1.
         21   -1    0    0  501  502 -0.00000000000E+00 -0.00000000000E+00 -0.83640182967E+03  0.83640182967E+03  0.00000000000E+00 0.  1.
      99926    2    1    2    0    0  0.00000000000E+00  0.35527136788E-14 -0.77432632319E+03  0.89847733615E+03  0.45571950670E+03 0.  0.
      99925    2    3    3    0    0 -0.51109127069E+02 -0.21420157718E+02 -0.68286683558E+03  0.73390725381E+03  0.26313832110E+03 0.  0.
         25    1    4    4    0    0 -0.26543238549E+02  0.20854478006E+02 -0.40622446578E+03  0.42638630075E+03  0.12509000000E+03 0.  0.
         25    1    3    3    0    0  0.51109127069E+02  0.21420157718E+02 -0.91459487611E+02  0.16457008234E+03  0.12509000000E+03 0.  0.
         25    1    4    4    0    0 -0.24565888520E+02 -0.42274635724E+02 -0.27664236980E+03  0.30752095306E+03  0.12509000000E+03 0.  0.
<mgrwt>
<rscale>  2 0.45571951E+03</rscale>
<asrwt>0</asrwt>
<pdfrwt beam="1">  1       21 0.91287516E-02 0.45571951E+03</pdfrwt>
<pdfrwt beam="2">  1       21 0.12300026E+00 0.45571951E+03</pdfrwt>
<totfact> 0.43056515E+04</totfact>
</mgrwt>
</event>
<event>
 7    0  0.4714446E-002  0.4506892E+03  0.7546771E-02  0.1027517E+00
         21   -1    0    0  502  501  0.00000000000E+00  0.00000000000E+00  0.72799034798E+02  0.72799034798E+02  0.00000000000E+00 0.  1.
         21   -1    0    0  501  502 -0.00000000000E+00 -0.00000000000E+00 -0.69753921446E+03  0.69753921446E+03  0.00000000000E+00 0.  1.
      99926    2    1    2    0    0  0.00000000000E+00  0.44408920985E-15 -0.62474017967E+03  0.77033824926E+03  0.45068916804E+03 0.  0.
      99925    2    3    3    0    0  0.42418816822E+02 -0.39690526858E+01 -0.22324022845E+03  0.34765062426E+03  0.26307726537E+03 0.  0.
         25    1    4    4    0    0  0.12975598176E+02  0.17125876524E+02 -0.15593044453E+03  0.20105589627E+03  0.12509000000E+03 0.  0.
         25    1    3    3    0    0 -0.42418816822E+02  0.39690526858E+01 -0.40149995122E+03  0.42268762500E+03  0.12509000000E+03 0.  0.
         25    1    4    4    0    0  0.29443218647E+02 -0.21094929210E+02 -0.67309783914E+02  0.14659472799E+03  0.12509000000E+03 0.  0.
<mgrwt>
<rscale>  2 0.45068917E+03</rscale>
<asrwt>0</asrwt>
<pdfrwt beam="1">  1       21 0.10705740E-01 0.45068917E+03</pdfrwt>
<pdfrwt beam="2">  1       21 0.10257930E+00 0.45068917E+03</pdfrwt>
<totfact> 0.50934848E+04</totfact>
</mgrwt>
</event>
<event>
 7    0  0.4714446E-002  0.4579679E+03  0.7546771E-02  0.1025372E+00
         21   -1    0    0  502  501  0.00000000000E+00  0.00000000000E+00  0.50812671373E+03  0.50812671373E+03  0.00000000000E+00 0.  1.
         21   -1    0    0  501  502 -0.00000000000E+00 -0.00000000000E+00 -0.10319008395E+03  0.10319008395E+03  0.00000000000E+00 0.  1.
      99926    2    1    2    0    0  0.00000000000E+00  0.00000000000E+00  0.40493662978E+03  0.61131679768E+03  0.45796785147E+03 0.  0.
      99925    2    3    3    0    0  0.62076928874E+02 -0.81267404591E+01  0.12390639396E+03  0.29739787414E+03  0.26300781751E+03 0.  0.
         25    1    4    4    0    0 -0.19538161383E+01 -0.10631398997E+02  0.32342040517E+02  0.12965477132E+03  0.12509000000E+03 0.  0.
         25    1    3    3    0    0 -0.62076928874E+02  0.81267404591E+01  0.28103023582E+03  0.31391892354E+03  0.12509000000E+03 0.  0.
         25    1    4    4    0    0  0.64030745012E+02  0.25046585380E+01  0.91564353446E+02  0.16774310282E+03  0.12509000000E+03 0.  0.
<mgrwt>
<rscale>  2 0.45796785E+03</rscale>
<asrwt>0</asrwt>
<pdfrwt beam="1">  1       21 0.74724516E-01 0.45796785E+03</pdfrwt>
<pdfrwt beam="2">  1       21 0.15175013E-01 0.45796785E+03</pdfrwt>
<totfact> 0.56647373E+04</totfact>
</mgrwt>
</event>
<event>
 7    0  0.4714446E-002  0.4515012E+03  0.7546771E-02  0.1027275E+00
         21   -1    0    0  502  501  0.00000000000E+00  0.00000000000E+00  0.45539705521E+02  0.45539705521E+02  0.00000000000E+00 0. -1.
         21   -1    0    0  501  502 -0.00000000000E+00 -0.00000000000E+00 -0.11190966029E+04  0.11190966029E+04  0.00000000000E+00 0. -1.
      99926    2    1    2    0    0  0.00000000000E+00  0.00000000000E+00 -0.10735568973E+04  0.11646363084E+04  0.45150118380E+03 0.  0.
      99925    2    3    3    0    0 -0.88687313584E+02 -0.47224283741E+02 -0.56318492761E+03  0.62963852507E+03  0.26300539347E+03 0.  0.
         25    1    3    3    0    0  0.88687313584E+02  0.47224283741E+02 -0.51037196974E+03  0.53499778332E+03  0.12509000000E+03 0.  0.
         25    1    4    4    0    0 -0.13413095926E+02 -0.99738813969E+01 -0.31443308759E+03  0.33881420295E+03  0.12509000000E+03 0.  0.
         25    1    4    4    0    0 -0.75274217658E+02 -0.37250402344E+02 -0.24875184002E+03  0.29082432212E+03  0.12509000000E+03 0.  0.
<mgrwt>
<rscale>  2 0.45150118E+03</rscale>
<asrwt>0</asrwt>
<pdfrwt beam="1">  1       21 0.66970151E-02 0.45150118E+03</pdfrwt>
<pdfrwt beam="2">  1       21 0.16457304E+00 0.45150118E+03</pdfrwt>
<totfact> 0.34220977E+04</totfact>
</mgrwt>
</event>
<event>
 7    0  0.4714446E-002  0.4535173E+03  0.7546771E-02  0.1026678E+00
         21   -1    0    0  502  501  0.00000000000E+00  0.00000000000E+00  0.56291656246E+02  0.56291656246E+02  0.00000000000E+00 0.  1.
         21   -1    0    0  501  502 -0.00000000000E+00 -0.00000000000E+00 -0.91344771297E+03  0.91344771297E+03  0.00000000000E+00 0.  1.
      99926    2    1    2    0    0  0.00000000000E+00 -0.35527136788E-14 -0.85715605673E+03  0.96973936922E+03  0.45351729694E+03 0.  0.
      99925    2    3    3    0    0  0.58422596498E+02 -0.30655551362E+02 -0.73310327671E+03  0.78161823021E+03  0.26293284479E+03 0.  0.
         25    1    3    3    0    0 -0.58422596498E+02  0.30655551362E+02 -0.12405278002E+03  0.18812113901E+03  0.12509000000E+03 0.  0.
         25    1    4    4    0    0  0.97397778177E+01  0.18196105979E+02 -0.38539128937E+03  0.40570915144E+03  0.12509000000E+03 0.  0.
         25    1    4    4    0    0  0.48682818681E+02 -0.48851657340E+02 -0.34771198734E+03  0.37590907877E+03  0.12509000000E+03 0.  0.
<mgrwt>
<rscale>  2 0.45351730E+03</rscale>
<asrwt>0</asrwt>
<pdfrwt beam="1">  1       21 0.82781852E-02 0.45351730E+03</pdfrwt>
<pdfrwt beam="2">  1       21 0.13433054E+00 0.45351730E+03</pdfrwt>
<totfact> 0.40822843E+04</totfact>
</mgrwt>
</event>
<event>
 7    0  0.4714446E-002  0.4520857E+03  0.7546771E-02  0.1027102E+00
         21   -1    0    0  502  501  0.00000000000E+00  0.00000000000E+00  0.11488521775E+03  0.11488521775E+03  0.00000000000E+00 0. -1.
         21   -1    0    0  501  502 -0.00000000000E+00 -0.00000000000E+00 -0.44475145473E+03  0.44475145473E+03  0.00000000000E+00 0. -1.
      99926    2    1    2    0    0  0.00000000000E+00  0.00000000000E+00 -0.32986623698E+03  0.55963667248E+03  0.45208568976E+03 0.  0.
      99925    2    3    3    0    0  0.10607821795E+03  0.86275069521E+01 -0.17451730280E+03  0.33356628156E+03  0.26359657247E+03 0.  0.
         25    1    4    4    0    0  0.96927795786E+01 -0.64722243274E+01 -0.77839103180E+02  0.14779131824E+03  0.12509000000E+03 0.  0.
         25    1    4    4    0    0  0.96385438371E+02  0.15099731279E+02 -0.96678199617E+02  0.18577496332E+03  0.12509000000E+03 0.  0.
         25    1    3    3    0    0 -0.10607821795E+03 -0.86275069521E+01 -0.15534893418E+03  0.22607039092E+03  0.12509000000E+03 0.  0.
<mgrwt>
<rscale>  2 0.45208569E+03</rscale>
<asrwt>0</asrwt>
<pdfrwt beam="1">  1       21 0.16894885E-01 0.45208569E+03</pdfrwt>
<pdfrwt beam="2">  1       21 0.65404626E-01 0.45208569E+03</pdfrwt>
<totfact> 0.62666303E+04</totfact>
</mgrwt>
</event>
<event>
 7    0  0.4714446E-002  0.4490297E+03  0.7546771E-02  0.1028012E+00
         21   -1    0    0  502  501  0.00000000000E+00  0.00000000000E+00  0.17578318830E+04  0.17578318830E+04  0.00000000000E+00 0. -1.
         21   -1    0    0  501  502 -0.00000000000E+00 -0.00000000000E+00 -0.28675614609E+02  0.28675614609E+02  0.00000000000E+00 0. -1.
      99926    2    1    2    0    0  0.00000000000E+00  0.00000000000E+00  0.17291562684E+04  0.17865074976E+04  0.44902966327E+03 0.  0.
      99925    2    3    3    0    0 -0.41929545558E+02 -0.98166027414E+02  0.11411080142E+04  0.11758988561E+04  0.26308926998E+03 0.  0.
         25    1    4    4    0    0  0.92950442707E+01 -0.34790090468E+02  0.63628117579E+03  0.64945976858E+03  0.12509000000E+03 0.  0.
         25    1    3    3    0    0  0.41929545558E+02  0.98166027414E+02  0.58804825424E+03  0.61060864155E+03  0.12509000000E+03 0.  0.
         25    1    4    4    0    0 -0.51224589829E+02 -0.63375936946E+02  0.50482683837E+03  0.52643908748E+03  0.12509000000E+03 0.  0.
<mgrwt>
<rscale>  2 0.44902966E+03</rscale>
<asrwt>0</asrwt>
<pdfrwt beam="1">  1       21 0.25850462E+00 0.44902966E+03</pdfrwt>
<pdfrwt beam="2">  1       21 0.42170033E-02 0.44902966E+03</pdfrwt>
<totfact> 0.18356319E+04</totfact>
</mgrwt>
</event>
<event>
 7    0  0.4714446E-002  0.4522127E+03  0.7546771E-02  0.1027064E+00
         21   -1    0    0  502  501  0.00000000000E+00  0.00000000000E+00  0.93268513984E+03  0.93268513984E+03  0.00000000000E+00 0.  1.
         21   -1    0    0  501  502 -0.00000000000E+00 -0.00000000000E+00 -0.54813876397E+02  0.54813876397E+02  0.00000000000E+00 0.  1.
      99926    2    1    2    0    0  0.00000000000E+00 -0.14210854715E-13  0.87787126344E+03  0.98749901624E+03  0.45221272858E+03 0.  0.
      99925    2    3    3    0    0 -0.31810240080E+02  0.10515473717E+03  0.57888845821E+03  0.64528908645E+03  0.26309075984E+03 0.  0.
         25    1    4    4    0    0 -0.20024066710E+01  0.14268832002E+02  0.29279530587E+03  0.31872277678E+03  0.12509000000E+03 0.  0.
         25    1    4    4    0    0 -0.29807833409E+02  0.90885905173E+02  0.28609315234E+03  0.32656630967E+03  0.12509000000E+03 0.  0.
         25    1    3    3    0    0  0.31810240080E+02 -0.10515473717E+03  0.29898280523E+03  0.34220992979E+03  0.12509000000E+03 0.  0.
<mgrwt>
<rscale>  2 0.45221273E+03</rscale>
<asrwt>0</asrwt>
<pdfrwt beam="1">  1       21 0.13715957E+00 0.45221273E+03</pdfrwt>
<pdfrwt beam="2">  1       21 0.80608647E-02 0.45221273E+03</pdfrwt>
<totfact> 0.40531758E+04</totfact>
</mgrwt>
</event>
<event>
 7    0  0.4714446E-002  0.4580907E+03  0.7546771E-02  0.1025336E+00
         21   -1    0    0  502  501  0.00000000000E+00  0.00000000000E+00  0.13533894678E+03  0.13533894678E+03  0.00000000000E+00 0.  1.
         21   -1    0    0  501  502 -0.00000000000E+00 -0.00000000000E+00 -0.38763250524E+03  0.38763250524E+03  0.00000000000E+00 0.  1.
      99926    2    1    2    0    0  0.00000000000E+00  0.00000000000E+00 -0.25229355846E+03  0.52297145203E+03  0.45809071153E+03 0.  0.
      99925    2    3    3    0    0 -0.60624864882E+02  0.39874504155E+02 -0.55040002378E+02  0.27838644878E+03  0.26306703078E+03 0.  0.
         25    1    4    4    0    0 -0.79507945759E+01  0.44849566001E+02 -0.50840432130E+02  0.14250247838E+03  0.12509000000E+03 0.  0.
         25    1    4    4    0    0 -0.52674070306E+02 -0.49750618463E+01 -0.41995702488E+01  0.13588397041E+03  0.12509000000E+03 0.  0.
         25    1    3    3    0    0  0.60624864882E+02 -0.39874504155E+02 -0.19725355608E+03  0.24458500324E+03  0.12509000000E+03 0.  0.
<mgrwt>
<rscale>  2 0.45809071E+03</rscale>
<asrwt>0</asrwt>
<pdfrwt beam="1">  1       21 0.19902787E-01 0.45809071E+03</pdfrwt>
<pdfrwt beam="2">  1       21 0.57004779E-01 0.45809071E+03</pdfrwt>
<totfact> 0.62147350E+04</totfact>
</mgrwt>
</event>
<event>
 7    0  0.4714446E-002  0.4591100E+03  0.7546771E-02  0.1025040E+00
         21   -1    0    0  502  501  0.00000000000E+00  0.00000000000E+00  0.54068388051E+02  0.54068388051E+02  0.00000000000E+00 0. -1.
         21   -1    0    0  501  502 -0.00000000000E+00 -0.00000000000E+00 -0.97460820621E+03  0.97460820621E+03  0.00000000000E+00 0. -1.
      99926    2    1    2    0    0  0.88817841970E-15  0.14210854715E-13 -0.92053981816E+03  0.10286765943E+04  0.45910998548E+03 0.  0.
      99925    2    3    3    0    0  0.54866177603E+01  0.11020252163E+03 -0.49039786258E+03  0.56732606722E+03  0.26304772225E+03 0.  0.
         25    1    3    3    0    0 -0.54866177603E+01 -0.11020252163E+03 -0.43014195558E+03  0.46135052704E+03  0.12509000000E+03 0.  0.
         25    1    4    4    0    0 -0.70623008309E+01  0.22989418919E+02 -0.27549824386E+03  0.30352130065E+03  0.12509000000E+03 0.  0.
         25    1    4    4    0    0  0.12548918591E+02  0.87213102715E+02 -0.21489961871E+03  0.26380476657E+03  0.12509000000E+03 0.  0.
<mgrwt>
<rscale>  2 0.45910999E+03</rscale>
<asrwt>0</asrwt>
<pdfrwt beam="1">  1       21 0.79512345E-02 0.45910999E+03</pdfrwt>
<pdfrwt beam="2">  1       21 0.14332472E+00 0.45910999E+03</pdfrwt>
<totfact> 0.36872273E+04</totfact>
</mgrwt>
</event>
<event>
 7    0  0.4714446E-002  0.4607213E+03  0.7546771E-02  0.1024572E+00
         21   -1    0    0  502  501  0.00000000000E+00  0.00000000000E+00  0.42234881028E+02  0.42234881028E+02  0.00000000000E+00 0.  1.
         21   -1    0    0  501  502 -0.00000000000E+00 -0.00000000000E+00 -0.12564502901E+04  0.12564502901E+04  0.00000000000E+00 0.  1.
      99926    2    1    2    0    0  0.00000000000E+00  0.00000000000E+00 -0.12142154091E+04  0.12986851711E+04  0.46072129762E+03 0.  0.
      99925    2    3    3    0    0  0.68529825646E+02  0.92309583297E+02 -0.84033088389E+03  0.88800945667E+03  0.26303498732E+03 0.  0.
         25    1    3    3    0    0 -0.68529825646E+02 -0.92309583297E+02 -0.37388452519E+03  0.41067571446E+03  0.12509000000E+03 0.  0.
         25    1    4    4    0    0  0.25349140030E+01  0.30339174466E+02 -0.45582934180E+03  0.47366104785E+03  0.12509000000E+03 0.  0.
         25    1    4    4    0    0  0.65994911643E+02  0.61970408831E+02 -0.38450154209E+03  0.41434840883E+03  0.12509000000E+03 0.  0.
<mgrwt>
<rscale>  2 0.46072130E+03</rscale>
<asrwt>0</asrwt>
<pdfrwt beam="1">  1       21 0.62110123E-02 0.46072130E+03</pdfrwt>
<pdfrwt beam="2">  1       21 0.18477209E+00 0.46072130E+03</pdfrwt>
<totfact> 0.27890758E+04</totfact>
</mgrwt>
</event>
<event>
 7    0  0.4714446E-002  0.4556789E+03  0.7546771E-02  0.1026042E+00
         21   -1    0    0  502  501  0.00000000000E+00  0.00000000000E+00  0.94210849695E+03  0.94210849695E+03  0.00000000000E+00 0.  1.
         21   -1    0    0  501  502 -0.00000000000E+00 -0.00000000000E+00 -0.55100683145E+02  0.55100683145E+02  0.00000000000E+00 0.  1.
      99926    2    1    2    0    0  0.00000000000E+00  0.00000000000E+00  0.88700781380E+03  0.99720918009E+03  0.45567892985E+03 0.  0.
      99925    2    3    3    0    0  0.73270190477E+02  0.50527644410E+02  0.71320231835E+03  0.76530958542E+03  0.26290616380E+03 0.  0.
         25    1    4    4    0    0  0.31773302046E+02  0.65832738150E+02  0.37339069622E+03  0.40051418484E+03  0.12509000000E+03 0.  0.
         25    1    4    4    0    0  0.41496888431E+02 -0.15305093740E+02  0.33981162213E+03  0.36479540058E+03  0.12509000000E+03 0.  0.
         25    1    3    3    0    0 -0.73270190477E+02 -0.50527644410E+02  0.17380549545E+03  0.23189959467E+03  0.12509000000E+03 0.  0.
<mgrwt>
<rscale>  2 0.45567893E+03</rscale>
<asrwt>0</asrwt>
<pdfrwt beam="1">  1       21 0.13854536E+00 0.45567893E+03</pdfrwt>
<pdfrwt beam="2">  1       21 0.81030422E-02 0.45567893E+03</pdfrwt>
<totfact> 0.39067952E+04</totfact>
</mgrwt>
</event>
<event>
 7    0  0.4714446E-002  0.4440080E+03  0.7546771E-02  0.1029524E+00
         21   -1    0    0  502  501  0.00000000000E+00  0.00000000000E+00  0.13435352503E+04  0.13435352503E+04  0.00000000000E+00 0.  1.
         21   -1    0    0  501  502 -0.00000000000E+00 -0.00000000000E+00 -0.36683650480E+02  0.36683650480E+02  0.00000000000E+00 0.  1.
      99926    2    1    2    0    0 -0.71054273576E-14  0.00000000000E+00  0.13068515998E+04  0.13802189008E+04  0.44400800682E+03 0.  0.
      99925    2    3    3    0    0 -0.62181708953E+02 -0.39707609562E+02  0.10521537188E+04  0.10870265102E+04  0.26297514477E+03 0.  0.
         25    1    3    3    0    0  0.62181708953E+02  0.39707609562E+02  0.25469788109E+03  0.29319239062E+03  0.12509000000E+03 0.  0.
         25    1    4    4    0    0 -0.85615971789E+01 -0.19715589010E+02  0.37066667122E+03  0.39179496507E+03  0.12509000000E+03 0.  0.
         25    1    4    4    0    0 -0.53620111774E+02 -0.19992020552E+02  0.68148704753E+03  0.69523154511E+03  0.12509000000E+03 0.  0.
<mgrwt>
<rscale>  2 0.44400801E+03</rscale>
<asrwt>0</asrwt>
<pdfrwt beam="1">  1       21 0.19757868E+00 0.44400801E+03</pdfrwt>
<pdfrwt beam="2">  1       21 0.53946554E-02 0.44400801E+03</pdfrwt>
<totfact> 0.29287194E+04</totfact>
</mgrwt>
</event>
<event>
 7    0  0.4714446E-002  0.4569876E+03  0.7546771E-02  0.1025659E+00
         21   -1    0    0  502  501  0.00000000000E+00  0.00000000000E+00  0.52636290364E+02  0.52636290364E+02  0.00000000000E+00 0.  1.
         21   -1    0    0  501  502 -0.00000000000E+00 -0.00000000000E+00 -0.99189030154E+03  0.99189030154E+03  0.00000000000E+00 0.  1.
      99926    2    1    2    0    0 -0.14210854715E-13 -0.14210854715E-13 -0.93925401117E+03  0.10445265919E+04  0.45698764062E+03 0.  0.
      99925    2    3    3    0    0  0.65145357355E+02  0.90457526562E+02 -0.65536262959E+03  0.71487782983E+03  0.26291377603E+03 0.  0.
         25    1    4    4    0    0  0.37783712814E+02  0.35145646803E+01 -0.30830057500E+03  0.33486820357E+03  0.12509000000E+03 0.  0.
         25    1    3    3    0    0 -0.65145357355E+02 -0.90457526562E+02 -0.28389138158E+03  0.32964876207E+03  0.12509000000E+03 0.  0.
         25    1    4    4    0    0  0.27361644541E+02  0.86942961882E+02 -0.34706205459E+03  0.38000962626E+03  0.12509000000E+03 0.  0.
<mgrwt>
<rscale>  2 0.45698764E+03</rscale>
<asrwt>0</asrwt>
<pdfrwt beam="1">  1       21 0.77406309E-02 0.45698764E+03</pdfrwt>
<pdfrwt beam="2">  1       21 0.14586622E+00 0.45698764E+03</pdfrwt>
<totfact> 0.36902986E+04</totfact>
</mgrwt>
</event>
<event>
 7    0  0.4714446E-002  0.4556202E+03  0.7546771E-02  0.1026059E+00
         21   -1    0    0  502  501  0.00000000000E+00  0.00000000000E+00  0.11850603322E+03  0.11850603322E+03  0.00000000000E+00 0.  1.
         21   -1    0    0  501  502 -0.00000000000E+00 -0.00000000000E+00 -0.43793086787E+03  0.43793086787E+03  0.00000000000E+00 0.  1.
      99926    2    1    2    0    0 -0.14210854715E-13  0.71054273576E-14 -0.31942483465E+03  0.55643690110E+03  0.45562023651E+03 0.  0.
      99925    2    3    3    0    0  0.91783958730E+02 -0.62419187660E+02 -0.23141469060E+03  0.36745609884E+03  0.26296535034E+03 0.  0.
         25    1    4    4    0    0  0.72056085747E+02 -0.64960255473E+02 -0.13896884761E+03  0.21064606094E+03  0.12509000000E+03 0.  0.
         25    1    4    4    0    0  0.19727872983E+02  0.25410678137E+01 -0.92445842995E+02  0.15681003790E+03  0.12509000000E+03 0.  0.
         25    1    3    3    0    0 -0.91783958730E+02  0.62419187660E+02 -0.88010144048E+02  0.18898080226E+03  0.12509000000E+03 0.  0.
<mgrwt>
<rscale>  2 0.45562024E+03</rscale>
<asrwt>0</asrwt>
<pdfrwt beam="1">  1       21 0.17427358E-01 0.45562024E+03</pdfrwt>
<pdfrwt beam="2">  1       21 0.64401599E-01 0.45562024E+03</pdfrwt>
<totfact> 0.61142604E+04</totfact>
</mgrwt>
</event>
<event>
 7    0  0.4714446E-002  0.4354109E+03  0.7546771E-02  0.1032164E+00
         21   -1    0    0  502  501  0.00000000000E+00  0.00000000000E+00  0.39083251146E+03  0.39083251146E+03  0.00000000000E+00 0.  1.
         21   -1    0    0  501  502 -0.00000000000E+00 -0.00000000000E+00 -0.12126848028E+03  0.12126848028E+03  0.00000000000E+00 0.  1.
      99926    2    1    2    0    0  0.00000000000E+00  0.00000000000E+00  0.26956403118E+03  0.51210099175E+03  0.43541090804E+03 0.  0.
      99925    2    3    3    0    0  0.87811929995E+02  0.29385592113E+02  0.19146724374E+03  0.33797154455E+03  0.26266063927E+03 0.  0.
         25    1    4    4    0    0  0.50596152188E+02  0.20972405654E+02  0.14500759846E+03  0.19918464832E+03  0.12509000000E+03 0.  0.
         25    1    4    4    0    0  0.37215777807E+02  0.84131864598E+01  0.46459645281E+02  0.13878689623E+03  0.12509000000E+03 0.  0.
         25    1    3    3    0    0 -0.87811929995E+02 -0.29385592113E+02  0.78096787443E+02  0.17412944720E+03  0.12509000000E+03 0.  0.
<mgrwt>
<rscale>  2 0.43541091E+03</rscale>
<asrwt>0</asrwt>
<pdfrwt beam="1">  1       21 0.57475369E-01 0.43541091E+03</pdfrwt>
<pdfrwt beam="2">  1       21 0.17833600E-01 0.43541091E+03</pdfrwt>
<totfact> 0.75489452E+04</totfact>
</mgrwt>
</event>
<event>
 7    0  0.4714446E-002  0.4504223E+03  0.7546771E-02  0.1027596E+00
         21   -1    0    0  502  501  0.00000000000E+00  0.00000000000E+00  0.53000580611E+03  0.53000580611E+03  0.00000000000E+00 0.  1.
         21   -1    0    0  501  502 -0.00000000000E+00 -0.00000000000E+00 -0.95697163631E+02  0.95697163631E+02  0.00000000000E+00 0.  1.
      99926    2    1    2    0    0  0.00000000000E+00  0.00000000000E+00  0.43430864248E+03  0.62570296974E+03  0.45042225679E+03 0.  0.
      99925    2    3    3    0    0  0.22213564795E+02 -0.87287554587E+02  0.35926464766E+03  0.45426298344E+03  0.26300420418E+03 0.  0.
         25    1    4    4    0    0  0.38476522503E+02 -0.22459677044E+02  0.20918822608E+03  0.24777429630E+03  0.12509000000E+03 0.  0.
         25    1    4    4    0    0 -0.16262957708E+02 -0.64827877544E+02  0.15007642158E+03  0.20648868713E+03  0.12509000000E+03 0.  0.
         25    1    3    3    0    0 -0.22213564795E+02  0.87287554587E+02  0.75043994821E+02  0.17143998631E+03  0.12509000000E+03 0.  0.
<mgrwt>
<rscale>  2 0.45042226E+03</rscale>
<asrwt>0</asrwt>
<pdfrwt beam="1">  1       21 0.77942029E-01 0.45042226E+03</pdfrwt>
<pdfrwt beam="2">  1       21 0.14073113E-01 0.45042226E+03</pdfrwt>
<totfact> 0.59235388E+04</totfact>
</mgrwt>
</event>
<event>
 7    0  0.4714446E-002  0.4508159E+03  0.7546771E-02  0.1027479E+00
         21   -1    0    0  502  501  0.00000000000E+00  0.00000000000E+00  0.28921008583E+03  0.28921008583E+03  0.00000000000E+00 0. -1.
         21   -1    0    0  501  502 -0.00000000000E+00 -0.00000000000E+00 -0.17568111054E+03  0.17568111054E+03  0.00000000000E+00 0. -1.
      99926    2    1    2    0    0  0.00000000000E+00  0.00000000000E+00  0.11352897529E+03  0.46489119636E+03  0.45081592277E+03 0.  0.
      99925    2    3    3    0    0 -0.92132693780E+01 -0.10307492075E+03  0.35874316975E+02  0.28492709528E+03  0.26303452129E+03 0.  0.
         25    1    4    4    0    0  0.43802878303E+01 -0.13133279530E+02  0.33525254849E+02  0.13024254591E+03  0.12509000000E+03 0.  0.
         25    1    3    3    0    0  0.92132693780E+01  0.10307492075E+03  0.77654658314E+02  0.17996410108E+03  0.12509000000E+03 0.  0.
         25    1    4    4    0    0 -0.13593557208E+02 -0.89941641216E+02  0.23490621269E+01  0.15468454937E+03  0.12509000000E+03 0.  0.
<mgrwt>
<rscale>  2 0.45081592E+03</rscale>
<asrwt>0</asrwt>
<pdfrwt beam="1">  1       21 0.42530895E-01 0.45081592E+03</pdfrwt>
<pdfrwt beam="2">  1       21 0.25835457E-01 0.45081592E+03</pdfrwt>
<totfact> 0.70116070E+04</totfact>
</mgrwt>
</event>
<event>
 7    0  0.4714446E-002  0.5114456E+03  0.7546771E-02  0.1010834E+00
         21   -1    0    0  502  501  0.00000000000E+00  0.00000000000E+00  0.10531153666E+03  0.10531153666E+03  0.00000000000E+00 0. -1.
         21   -1    0    0  501  502 -0.00000000000E+00 -0.00000000000E+00 -0.62095905385E+03  0.62095905385E+03  0.00000000000E+00 0. -1.
      99926    2    1    2    0    0  0.35527136788E-14  0.00000000000E+00 -0.51564751719E+03  0.72627059051E+03  0.51144560675E+03 0.  0.
      99925    2    3    3    0    0 -0.22228842507E+02 -0.14419245319E+03 -0.40516259368E+03  0.50459512633E+03  0.26300937095E+03 0.  0.
         25    1    4    4    0    0 -0.98541088341E+01 -0.83907114491E+02 -0.27583398742E+03  0.31443505536E+03  0.12509000000E+03 0.  0.
         25    1    4    4    0    0 -0.12374733673E+02 -0.60285338700E+02 -0.12932860625E+03  0.19016007097E+03  0.12509000000E+03 0.  0.
         25    1    3    3    0    0  0.22228842507E+02  0.14419245319E+03 -0.11048492351E+03  0.22167546418E+03  0.12509000000E+03 0.  0.
<mgrwt>
<rscale>  2 0.51144561E+03</rscale>
<asrwt>0</asrwt>
<pdfrwt beam="1">  1       21 0.15486991E-01 0.51144561E+03</pdfrwt>
<pdfrwt beam="2">  1       21 0.91317508E-01 0.51144561E+03</pdfrwt>
<totfact> 0.33793053E+04</totfact>
</mgrwt>
</event>
<event>
 7    0  0.4714446E-002  0.4597896E+03  0.7546771E-02  0.1024842E+00
         21   -1    0    0  502  501  0.00000000000E+00  0.00000000000E+00  0.59687951511E+02  0.59687951511E+02  0.00000000000E+00 0. -1.
         21   -1    0    0  501  502 -0.00000000000E+00 -0.00000000000E+00 -0.88546547824E+03  0.88546547824E+03  0.00000000000E+00 0. -1.
      99926    2    1    2    0    0  0.00000000000E+00  0.00000000000E+00 -0.82577752673E+03  0.94515342975E+03  0.45978960636E+03 0.  0.
      99925    2    3    3    0    0 -0.83308602673E+02  0.81415341144E+02 -0.55056279571E+03  0.62117899045E+03  0.26301172046E+03 0.  0.
         25    1    4    4    0    0 -0.65185783975E+02  0.61257481359E+02 -0.23725087282E+03  0.28273158686E+03  0.12509000000E+03 0.  0.
         25    1    3    3    0    0  0.83308602673E+02 -0.81415341144E+02 -0.27521473102E+03  0.32397443930E+03  0.12509000000E+03 0.  0.
         25    1    4    4    0    0 -0.18122818699E+02  0.20157859786E+02 -0.31331192289E+03  0.33844740359E+03  0.12509000000E+03 0.  0.
<mgrwt>
<rscale>  2 0.45978961E+03</rscale>
<asrwt>0</asrwt>
<pdfrwt beam="1">  1       21 0.87776405E-02 0.45978961E+03</pdfrwt>
<pdfrwt beam="2">  1       21 0.13021550E+00 0.45978961E+03</pdfrwt>
<totfact> 0.39824933E+04</totfact>
</mgrwt>
</event>
<event>
 7    0  0.4714446E-002  0.4689152E+03  0.7546771E-02  0.1022227E+00
         21   -1    0    0  502  501  0.00000000000E+00  0.00000000000E+00  0.28957029050E+03  0.28957029050E+03  0.00000000000E+00 0.  1.
         21   -1    0    0  501  502 -0.00000000000E+00 -0.00000000000E+00 -0.18983427847E+03  0.18983427847E+03  0.00000000000E+00 0.  1.
      99926    2    1    2    0    0  0.00000000000E+00  0.00000000000E+00  0.99736012035E+02  0.47940456897E+03  0.46891520412E+03 0.  0.
      99925    2    3    3    0    0  0.93752581420E+02 -0.78077023330E+02  0.30577714587E+02  0.29147919468E+03  0.26294401725E+03 0.  0.
         25    1    3    3    0    0 -0.93752581420E+02  0.78077023330E+02  0.69158297449E+02  0.18792537429E+03  0.12509000000E+03 0.  0.
         25    1    4    4    0    0  0.29490871035E+02 -0.30377477348E+02  0.51030158809E+02  0.14157714439E+03  0.12509000000E+03 0.  0.
         25    1    4    4    0    0  0.64261710385E+02 -0.47699545982E+02 -0.20452444222E+02  0.14990205030E+03  0.12509000000E+03 0.  0.
<mgrwt>
<rscale>  2 0.46891520E+03</rscale>
<asrwt>0</asrwt>
<pdfrwt beam="1">  1       21 0.42583866E-01 0.46891520E+03</pdfrwt>
<pdfrwt beam="2">  1       21 0.27916806E-01 0.46891520E+03</pdfrwt>
<totfact> 0.59854495E+04</totfact>
</mgrwt>
</event>
<event>
 7    0  0.4714446E-002  0.4685777E+03  0.7546771E-02  0.1022322E+00
         21   -1    0    0  502  501  0.00000000000E+00  0.00000000000E+00  0.79076839849E+03  0.79076839849E+03  0.00000000000E+00 0. -1.
         21   -1    0    0  501  502 -0.00000000000E+00 -0.00000000000E+00 -0.69415094730E+02  0.69415094730E+02  0.00000000000E+00 0. -1.
      99926    2    1    2    0    0  0.00000000000E+00  0.00000000000E+00  0.72135330376E+03  0.86018349322E+03  0.46857769171E+03 0.  0.
      99925    2    3    3    0    0 -0.90685871050E+02  0.43329328937E+02  0.31089551950E+03  0.41947445234E+03  0.26306165469E+03 0.  0.
         25    1    4    4    0    0 -0.63377208595E+02  0.45752195315E+02  0.20906933969E+03  0.25586604082E+03  0.12509000000E+03 0.  0.
         25    1    4    4    0    0 -0.27308662455E+02 -0.24228663779E+01  0.10182617982E+03  0.16360841153E+03  0.12509000000E+03 0.  0.
         25    1    3    3    0    0  0.90685871050E+02 -0.43329328937E+02  0.41045778426E+03  0.44070904088E+03  0.12509000000E+03 0.  0.
<mgrwt>
<rscale>  2 0.46857769E+03</rscale>
<asrwt>0</asrwt>
<pdfrwt beam="1">  1       21 0.11628947E+00 0.46857769E+03</pdfrwt>
<pdfrwt beam="2">  1       21 0.10208103E-01 0.46857769E+03</pdfrwt>
<totfact> 0.40498604E+04</totfact>
</mgrwt>
</event>
<event>
 7    0  0.4714446E-002  0.4476150E+03  0.7546771E-02  0.1028436E+00
         21   -1    0    0  502  501  0.00000000000E+00  0.00000000000E+00  0.67703347836E+03  0.67703347836E+03  0.00000000000E+00 0. -1.
         21   -1    0    0  501  502 -0.00000000000E+00 -0.00000000000E+00 -0.73984230604E+02  0.73984230604E+02  0.00000000000E+00 0. -1.
      99926    2    1    2    0    0  0.00000000000E+00  0.00000000000E+00  0.60304924776E+03  0.75101770897E+03  0.44761501758E+03 0.  0.
      99925    2    3    3    0    0 -0.31680063702E+02 -0.82159749841E+02  0.48143567390E+03  0.55559196763E+03  0.26296059678E+03 0.  0.
         25    1    3    3    0    0  0.31680063702E+02  0.82159749841E+02  0.12161357386E+03  0.19542574134E+03  0.12509000000E+03 0.  0.
         25    1    4    4    0    0 -0.40844858028E+02 -0.50377206613E+02  0.31251432226E+03  0.34281026107E+03  0.12509000000E+03 0.  0.
         25    1    4    4    0    0  0.91647943255E+01 -0.31782543228E+02  0.16892135164E+03  0.21278170657E+03  0.12509000000E+03 0.  0.
<mgrwt>
<rscale>  2 0.44761502E+03</rscale>
<asrwt>0</asrwt>
<pdfrwt beam="1">  1       21 0.99563743E-01 0.44761502E+03</pdfrwt>
<pdfrwt beam="2">  1       21 0.10880034E-01 0.44761502E+03</pdfrwt>
<totfact> 0.53242584E+04</totfact>
</mgrwt>
</event>
<event>
 7    0  0.4714446E-002  0.4572337E+03  0.7546771E-02  0.1025587E+00
         21   -1    0    0  502  501  0.00000000000E+00  0.00000000000E+00  0.11548171221E+04  0.11548171221E+04  0.00000000000E+00 0.  1.
         21   -1    0    0  501  502 -0.00000000000E+00 -0.00000000000E+00 -0.45258813566E+02  0.45258813566E+02  0.00000000000E+00 0.  1.
      99926    2    1    2    0    0  0.71054273576E-14 -0.71054273576E-14  0.11095583085E+04  0.12000759356E+04  0.45723365069E+03 0.  0.
      99925    2    3    3    0    0  0.47687352315E+02 -0.52391622631E+02  0.93530478353E+03  0.97417603577E+03  0.26306832739E+03 0.  0.
         25    1    3    3    0    0 -0.47687352315E+02  0.52391622631E+02  0.17425352496E+03  0.22589989985E+03  0.12509000000E+03 0.  0.
         25    1    4    4    0    0  0.51902742671E+02 -0.23980130450E+00  0.51701573897E+03  0.53445929185E+03  0.12509000000E+03 0.  0.
         25    1    4    4    0    0 -0.42153903556E+01 -0.52151821327E+02  0.41828904456E+03  0.43971674392E+03  0.12509000000E+03 0.  0.
<mgrwt>
<rscale>  2 0.45723365E+03</rscale>
<asrwt>0</asrwt>
<pdfrwt beam="1">  1       21 0.16982603E+00 0.45723365E+03</pdfrwt>
<pdfrwt beam="2">  1       21 0.66557086E-02 0.45723365E+03</pdfrwt>
<totfact> 0.31600109E+04</totfact>
</mgrwt>
</event>
<event>
 7    0  0.4714446E-002  0.4535956E+03  0.7546771E-02  0.1026655E+00
         21   -1    0    0  502  501  0.00000000000E+00  0.00000000000E+00  0.10826917147E+04  0.10826917147E+04  0.00000000000E+00 0. -1.
         21   -1    0    0  501  502 -0.00000000000E+00 -0.00000000000E+00 -0.47508673511E+02  0.47508673511E+02  0.00000000000E+00 0. -1.
      99926    2    1    2    0    0 -0.71054273576E-14  0.00000000000E+00  0.10351830412E+04  0.11302003882E+04  0.45359562249E+03 0.  0.
      99925    2    3    3    0    0  0.58094911503E+02  0.88909829851E+02  0.73965267036E+03  0.79216831167E+03  0.26299160567E+03 0.  0.
         25    1    4    4    0    0  0.39208229698E+02  0.64145664889E+01  0.30563511739E+03  0.33262405959E+03  0.12509000000E+03 0.  0.
         25    1    4    4    0    0  0.18886681805E+02  0.82495263362E+02  0.43401755297E+03  0.45954425207E+03  0.12509000000E+03 0.  0.
         25    1    3    3    0    0 -0.58094911503E+02 -0.88909829851E+02  0.29553037079E+03  0.33803207651E+03  0.12509000000E+03 0.  0.
<mgrwt>
<rscale>  2 0.45359562E+03</rscale>
<asrwt>0</asrwt>
<pdfrwt beam="1">  1       21 0.15921935E+00 0.45359562E+03</pdfrwt>
<pdfrwt beam="2">  1       21 0.69865704E-02 0.45359562E+03</pdfrwt>
<totfact> 0.34830101E+04</totfact>
</mgrwt>
</event>
<event>
 7    0  0.4714446E-002  0.4551121E+03  0.7546771E-02  0.1026208E+00
         21   -1    0    0  502  501  0.00000000000E+00  0.00000000000E+00  0.83198498296E+02  0.83198498296E+02  0.00000000000E+00 0.  1.
         21   -1    0    0  501  502 -0.00000000000E+00 -0.00000000000E+00 -0.62238806898E+03  0.62238806898E+03  0.00000000000E+00 0.  1.
      99926    2    1    2    0    0  0.71054273576E-14  0.00000000000E+00 -0.53918957069E+03  0.70558656728E+03  0.45511208596E+03 0.  0.
      99925    2    3    3    0    0 -0.47761538040E+02 -0.15274102558E+02 -0.49673951184E+03  0.56429262430E+03  0.26298585608E+03 0.  0.
         25    1    3    3    0    0  0.47761538040E+02  0.15274102558E+02 -0.42450058851E+02  0.14129394297E+03  0.12509000000E+03 0.  0.
         25    1    4    4    0    0  0.13873742945E+02 -0.19370156265E+02 -0.21435429031E+03  0.24932499589E+03  0.12509000000E+03 0.  0.
         25    1    4    4    0    0 -0.61635280985E+02  0.40960537075E+01 -0.28238522152E+03  0.31496762842E+03  0.12509000000E+03 0.  0.
<mgrwt>
<rscale>  2 0.45511209E+03</rscale>
<asrwt>0</asrwt>
<pdfrwt beam="1">  1       21 0.12235073E-01 0.45511209E+03</pdfrwt>
<pdfrwt beam="2">  1       21 0.91527658E-01 0.45511209E+03</pdfrwt>
<totfact> 0.52554324E+04</totfact>
</mgrwt>
</event>
<event>
 7    0  0.4714446E-002  0.4515524E+03  0.7546771E-02  0.1027260E+00
         21   -1    0    0  502  501  0.00000000000E+00  0.00000000000E+00  0.24317135327E+03  0.24317135327E+03  0.00000000000E+00 0.  1.
         21   -1    0    0  501  502 -0.00000000000E+00 -0.00000000000E+00 -0.20962537235E+03  0.20962537235E+03  0.00000000000E+00 0.  1.
      99926    2    1    2    0    0  0.00000000000E+00  0.00000000000E+00  0.33545980923E+02  0.45279672561E+03  0.45155236893E+03 0.  0.
      99925    2    3    3    0    0 -0.10069080015E+03  0.43813975482E+02  0.26104765062E+02  0.28617985529E+03  0.26298127145E+03 0.  0.
         25    1    4    4    0    0 -0.13632342694E+02  0.34626257462E+02  0.28047452018E+02  0.13348777524E+03  0.12509000000E+03 0.  0.
         25    1    4    4    0    0 -0.87058457461E+02  0.91877180201E+01 -0.19426869562E+01  0.15269208005E+03  0.12509000000E+03 0.  0.
         25    1    3    3    0    0  0.10069080015E+03 -0.43813975482E+02  0.74412158612E+01  0.16661687032E+03  0.12509000000E+03 0.  0.
<mgrwt>
<rscale>  2 0.45155237E+03</rscale>
<asrwt>0</asrwt>
<pdfrwt beam="1">  1       21 0.35760493E-01 0.45155237E+03</pdfrwt>
<pdfrwt beam="2">  1       21 0.30827261E-01 0.45155237E+03</pdfrwt>
<totfact> 0.70630522E+04</totfact>
</mgrwt>
</event>
<event>
 7    0  0.4714446E-002  0.4561868E+03  0.7546771E-02  0.1025893E+00
         21   -1    0    0  502  501  0.00000000000E+00  0.00000000000E+00  0.50742288342E+03  0.50742288342E+03  0.00000000000E+00 0. -1.
         21   -1    0    0  501  502 -0.00000000000E+00 -0.00000000000E+00 -0.10253103717E+03  0.10253103717E+03  0.00000000000E+00 0. -1.
      99926    2    1    2    0    0  0.00000000000E+00 -0.71054273576E-14  0.40489184626E+03  0.60995392059E+03  0.45618677982E+03 0.  0.
      99925    2    3    3    0    0 -0.60382668642E+02  0.23653111924E+02  0.38040023120E+03  0.46694034192E+03  0.26291331393E+03 0.  0.
         25    1    4    4    0    0 -0.30698987182E-01  0.33354116179E+02  0.15434933247E+03  0.20145402092E+03  0.12509000000E+03 0.  0.
         25    1    4    4    0    0 -0.60351969655E+02 -0.97010042548E+01  0.22605089873E+03  0.26548632100E+03  0.12509000000E+03 0.  0.
         25    1    3    3    0    0  0.60382668642E+02 -0.23653111924E+02  0.24491615055E+02  0.14301357867E+03  0.12509000000E+03 0.  0.
<mgrwt>
<rscale>  2 0.45618678E+03</rscale>
<asrwt>0</asrwt>
<pdfrwt beam="1">  1       21 0.74621011E-01 0.45618678E+03</pdfrwt>
<pdfrwt beam="2">  1       21 0.15078094E-01 0.45618678E+03</pdfrwt>
<totfact> 0.57528533E+04</totfact>
</mgrwt>
</event>
<event>
 7    0  0.4714446E-002  0.4689391E+03  0.7546771E-02  0.1022220E+00
         21   -1    0    0  502  501  0.00000000000E+00  0.00000000000E+00  0.11027329945E+03  0.11027329945E+03  0.00000000000E+00 0.  1.
         21   -1    0    0  501  502 -0.00000000000E+00 -0.00000000000E+00 -0.49854294851E+03  0.49854294851E+03  0.00000000000E+00 0.  1.
      99926    2    1    2    0    0 -0.14210854715E-13  0.00000000000E+00 -0.38826964906E+03  0.60881624795E+03  0.46893912547E+03 0.  0.
      99925    2    3    3    0    0 -0.79160264103E+02 -0.97713935362E+02 -0.24507759050E+03  0.38085608847E+03  0.26300945645E+03 0.  0.
         25    1    4    4    0    0 -0.47763254237E+02 -0.20169091379E+02 -0.79126153279E+02  0.15683295870E+03  0.12509000000E+03 0.  0.
         25    1    4    4    0    0 -0.31397009865E+02 -0.77544843983E+02 -0.16595143722E+03  0.22402312977E+03  0.12509000000E+03 0.  0.
         25    1    3    3    0    0  0.79160264103E+02  0.97713935362E+02 -0.14319205856E+03  0.22796015948E+03  0.12509000000E+03 0.  0.
<mgrwt>
<rscale>  2 0.46893913E+03</rscale>
<asrwt>0</asrwt>
<pdfrwt beam="1">  1       21 0.16216662E-01 0.46893913E+03</pdfrwt>
<pdfrwt beam="2">  1       21 0.73315139E-01 0.46893913E+03</pdfrwt>
<totfact> 0.52154147E+04</totfact>
</mgrwt>
</event>
<event>
 7    0  0.4714446E-002  0.3910989E+03  0.7546771E-02  0.1046906E+00
         21   -1    0    0  502  501  0.00000000000E+00  0.00000000000E+00  0.50573876309E+03  0.50573876309E+03  0.00000000000E+00 0. -1.
         21   -1    0    0  501  502 -0.00000000000E+00 -0.00000000000E+00 -0.75611359513E+02  0.75611359513E+02  0.00000000000E+00 0. -1.
      99926    2    1    2    0    0  0.00000000000E+00 -0.88817841970E-15  0.43012740358E+03  0.58135012260E+03  0.39109894112E+03 0.  0.
      99925    2    3    3    0    0  0.18301165318E+02  0.36486639505E+01  0.27124635581E+03  0.37827639008E+03  0.26300227442E+03 0.  0.
         25    1    4    4    0    0 -0.95502150220E+01  0.16488019831E+02  0.18167806976E+03  0.22139893979E+03  0.12509000000E+03 0.  0.
         25    1    4    4    0    0  0.27851380340E+02 -0.12839355880E+02  0.89568286045E+02  0.15687745030E+03  0.12509000000E+03 0.  0.
         25    1    3    3    0    0 -0.18301165318E+02 -0.36486639505E+01  0.15888104777E+03  0.20307373252E+03  0.12509000000E+03 0.  0.
<mgrwt>
<rscale>  2 0.39109894E+03</rscale>
<asrwt>0</asrwt>
<pdfrwt beam="1">  1       21 0.74373346E-01 0.39109894E+03</pdfrwt>
<pdfrwt beam="2">  1       21 0.11119318E-01 0.39109894E+03</pdfrwt>
<totfact> 0.10266669E+05</totfact>
</mgrwt>
</event>
<event>
 7    0  0.4714446E-002  0.4615551E+03  0.7546771E-02  0.1024331E+00
         21   -1    0    0  502  501  0.00000000000E+00  0.00000000000E+00  0.14785681860E+03  0.14785681860E+03  0.00000000000E+00 0.  1.
         21   -1    0    0  501  502 -0.00000000000E+00 -0.00000000000E+00 -0.36020172608E+03  0.36020172608E+03  0.00000000000E+00 0.  1.
      99926    2    1    2    0    0 -0.17763568394E-14  0.00000000000E+00 -0.21234490748E+03  0.50805854468E+03  0.46155511599E+03 0.  0.
      99925    2    3    3    0    0 -0.13626128911E+02  0.11706548033E+03 -0.11254021675E+03  0.30931629336E+03  0.26290924456E+03 0.  0.
         25    1    4    4    0    0 -0.44561126370E+02  0.67301917288E+02 -0.44796377463E+02  0.15546531957E+03  0.12509000000E+03 0.  0.
         25    1    4    4    0    0  0.30934997459E+02  0.49763563038E+02 -0.67743839291E+02  0.15385097379E+03  0.12509000000E+03 0.  0.
         25    1    3    3    0    0  0.13626128911E+02 -0.11706548033E+03 -0.99804690724E+02  0.19874225133E+03  0.12509000000E+03 0.  0.
<mgrwt>
<rscale>  2 0.46155512E+03</rscale>
<asrwt>0</asrwt>
<pdfrwt beam="1">  1       21 0.21743650E-01 0.46155512E+03</pdfrwt>
<pdfrwt beam="2">  1       21 0.52970841E-01 0.46155512E+03</pdfrwt>
<totfact> 0.61448189E+04</totfact>
</mgrwt>
</event>
<event>
 7    0  0.4714446E-002  0.4578131E+03  0.7546771E-02  0.1025417E+00
         21   -1    0    0  502  501  0.00000000000E+00  0.00000000000E+00  0.32646148713E+03  0.32646148713E+03  0.00000000000E+00 0.  1.
         21   -1    0    0  501  502 -0.00000000000E+00 -0.00000000000E+00 -0.16050346472E+03  0.16050346472E+03  0.00000000000E+00 0.  1.
      99926    2    1    2    0    0 -0.14210854715E-13 -0.35527136788E-14  0.16595802241E+03  0.48696495185E+03  0.45781306133E+03 0.  0.
      99925    2    3    3    0    0 -0.73459120959E+02 -0.31360975198E+02  0.19339262850E+03  0.33603477286E+03  0.26294278198E+03 0.  0.
         25    1    3    3    0    0  0.73459120959E+02  0.31360975198E+02 -0.27434606091E+02  0.15093017899E+03  0.12509000000E+03 0.  0.
         25    1    4    4    0    0 -0.47919170894E+02 -0.26528474348E+02  0.14562486654E+03  0.19963495872E+03  0.12509000000E+03 0.  0.
         25    1    4    4    0    0 -0.25539950065E+02 -0.48325008494E+01  0.47767761959E+02  0.13639981414E+03  0.12509000000E+03 0.  0.
<mgrwt>
<rscale>  2 0.45781306E+03</rscale>
<asrwt>0</asrwt>
<pdfrwt beam="1">  1       21 0.48009042E-01 0.45781306E+03</pdfrwt>
<pdfrwt beam="2">  1       21 0.23603451E-01 0.45781306E+03</pdfrwt>
<totfact> 0.64738680E+04</totfact>
</mgrwt>
</event>
<event>
 7    0  0.4714446E-002  0.4460031E+03  0.7546771E-02  0.1028921E+00
         21   -1    0    0  502  501  0.00000000000E+00  0.00000000000E+00  0.54498103825E+03  0.54498103825E+03  0.00000000000E+00 0. -1.
         21   -1    0    0  501  502 -0.00000000000E+00 -0.00000000000E+00 -0.91250327237E+02  0.91250327237E+02  0.00000000000E+00 0. -1.
      99926    2    1    2    0    0 -0.14210854715E-13  0.71054273576E-14  0.45373071102E+03  0.63623136549E+03  0.44600313039E+03 0.  0.
      99925    2    3    3    0    0 -0.89276151462E+02  0.53941413672E+02  0.27861162559E+03  0.39707846564E+03  0.26299612664E+03 0.  0.
         25    1    4    4    0    0 -0.20204605707E+02  0.12284658814E+01  0.94152555510E+02  0.15786686489E+03  0.12509000000E+03 0.  0.
         25    1    3    3    0    0  0.89276151462E+02 -0.53941413672E+02  0.17511908543E+03  0.23915289985E+03  0.12509000000E+03 0.  0.
         25    1    4    4    0    0 -0.69071545754E+02  0.52712947791E+02  0.18445907008E+03  0.23921160075E+03  0.12509000000E+03 0.  0.
<mgrwt>
<rscale>  2 0.44600313E+03</rscale>
<asrwt>0</asrwt>
<pdfrwt beam="1">  1       21 0.80144268E-01 0.44600313E+03</pdfrwt>
<pdfrwt beam="2">  1       21 0.13419166E-01 0.44600313E+03</pdfrwt>
<totfact> 0.60698037E+04</totfact>
</mgrwt>
</event>
<event>
 7    0  0.4714446E-002  0.4474235E+03  0.7546771E-02  0.1028493E+00
         21   -1    0    0  502  501  0.00000000000E+00  0.00000000000E+00  0.19125521756E+04  0.19125521756E+04  0.00000000000E+00 0. -1.
         21   -1    0    0  501  502 -0.00000000000E+00 -0.00000000000E+00 -0.26167625831E+02  0.26167625831E+02  0.00000000000E+00 0. -1.
      99926    2    1    2    0    0  0.88817841970E-15  0.88817841970E-15  0.18863845497E+04  0.19387198014E+04  0.44742351173E+03 0.  0.
      99925    2    3    3    0    0  0.37931144606E+01 -0.23720741541E+01  0.73662027193E+03  0.78216222952E+03  0.26296066971E+03 0.  0.
         25    1    4    4    0    0 -0.31832082741E+02 -0.15537568377E+02  0.31613378008E+03  0.34182272091E+03  0.12509000000E+03 0.  0.
         25    1    3    3    0    0 -0.37931144606E+01  0.23720741541E+01  0.11497642778E+04  0.11565575719E+04  0.12509000000E+03 0.  0.
         25    1    4    4    0    0  0.35625197202E+02  0.13165494222E+02  0.42048649185E+03  0.44033950861E+03  0.12509000000E+03 0.  0.
<mgrwt>
<rscale>  2 0.44742351E+03</rscale>
<asrwt>0</asrwt>
<pdfrwt beam="1">  1       21 0.28125758E+00 0.44742351E+03</pdfrwt>
<pdfrwt beam="2">  1       21 0.38481816E-02 0.44742351E+03</pdfrwt>
<totfact> 0.15635728E+04</totfact>
</mgrwt>
</event>
<event>
 7    0  0.4714446E-002  0.4762991E+03  0.7546771E-02  0.1020157E+00
         21   -1    0    0  502  501  0.00000000000E+00  0.00000000000E+00  0.18883541874E+04  0.18883541874E+04  0.00000000000E+00 0.  1.
         21   -1    0    0  501  502 -0.00000000000E+00 -0.00000000000E+00 -0.30034201721E+02  0.30034201721E+02  0.00000000000E+00 0.  1.
      99926    2    1    2    0    0 -0.71054273576E-14  0.00000000000E+00  0.18583199856E+04  0.19183883891E+04  0.47629911016E+03 0.  0.
      99925    2    3    3    0    0  0.50722793964E+02  0.10174904322E+03  0.87709191476E+03  0.92270686128E+03  0.26300580848E+03 0.  0.
         25    1    4    4    0    0  0.58963939416E+02  0.68585002999E+02  0.41554778751E+03  0.44329236469E+03  0.12509000000E+03 0.  0.
         25    1    4    4    0    0 -0.82411454525E+01  0.33164040218E+02  0.46154412725E+03  0.47941449659E+03  0.12509000000E+03 0.  0.
         25    1    3    3    0    0 -0.50722793964E+02 -0.10174904322E+03  0.98122807087E+03  0.99568152779E+03  0.12509000000E+03 0.  0.
<mgrwt>
<rscale>  2 0.47629911E+03</rscale>
<asrwt>0</asrwt>
<pdfrwt beam="1">  1       21 0.27769906E+00 0.47629911E+03</pdfrwt>
<pdfrwt beam="2">  1       21 0.44167957E-02 0.47629911E+03</pdfrwt>
<totfact> 0.12832076E+04</totfact>
</mgrwt>
</event>
<event>
 7    0  0.4714446E-002  0.4506273E+03  0.7546771E-02  0.1027535E+00
         21   -1    0    0  502  501  0.00000000000E+00  0.00000000000E+00  0.37273690443E+02  0.37273690443E+02  0.00000000000E+00 0.  1.
         21   -1    0    0  501  502 -0.00000000000E+00 -0.00000000000E+00 -0.13619860857E+04  0.13619860857E+04  0.00000000000E+00 0.  1.
      99926    2    1    2    0    0  0.00000000000E+00  0.00000000000E+00 -0.13247123953E+04  0.13992597762E+04  0.45062733050E+03 0.  0.
      99925    2    3    3    0    0  0.67644936526E+02  0.84514922058E+02 -0.87620142649E+03  0.92121353707E+03  0.26303389822E+03 0.  0.
         25    1    4    4    0    0  0.22834985307E+02  0.76714855590E+00 -0.40989211795E+03  0.42916323413E+03  0.12509000000E+03 0.  0.
         25    1    4    4    0    0  0.44809951219E+02  0.83747773502E+02 -0.46630930853E+03  0.49205030294E+03  0.12509000000E+03 0.  0.
         25    1    3    3    0    0 -0.67644936526E+02 -0.84514922058E+02 -0.44851096881E+03  0.47804623911E+03  0.12509000000E+03 0.  0.
<mgrwt>
<rscale>  2 0.45062733E+03</rscale>
<asrwt>0</asrwt>
<pdfrwt beam="1">  1       21 0.54814265E-02 0.45062733E+03</pdfrwt>
<pdfrwt beam="2">  1       21 0.20029202E+00 0.45062733E+03</pdfrwt>
<totfact> 0.27266586E+04</totfact>
</mgrwt>
</event>
<event>
 7    0  0.4714446E-002  0.4569650E+03  0.7546771E-02  0.1025665E+00
         21   -1    0    0  502  501  0.00000000000E+00  0.00000000000E+00  0.56851235713E+02  0.56851235713E+02  0.00000000000E+00 0. -1.
         21   -1    0    0  501  502 -0.00000000000E+00 -0.00000000000E+00 -0.91826077798E+03  0.91826077798E+03  0.00000000000E+00 0. -1.
      99926    2    1    2    0    0  0.35527136788E-14  0.00000000000E+00 -0.86140954226E+03  0.97511201369E+03  0.45696503120E+03 0.  0.
      99925    2    3    3    0    0 -0.29102075628E+02 -0.47160963803E+02 -0.32759123420E+03  0.42403980296E+03  0.26348178392E+03 0.  0.
         25    1    4    4    0    0 -0.31968191196E+02 -0.61291129398E+02 -0.18577605243E+03  0.23439031027E+03  0.12509000000E+03 0.  0.
         25    1    3    3    0    0  0.29102075628E+02  0.47160963803E+02 -0.53381830807E+03  0.55107221073E+03  0.12509000000E+03 0.  0.
         25    1    4    4    0    0  0.28661155677E+01  0.14130165596E+02 -0.14181518177E+03  0.18964949269E+03  0.12509000000E+03 0.  0.
<mgrwt>
<rscale>  2 0.45696503E+03</rscale>
<asrwt>0</asrwt>
<pdfrwt beam="1">  1       21 0.83604766E-02 0.45696503E+03</pdfrwt>
<pdfrwt beam="2">  1       21 0.13503834E+00 0.45696503E+03</pdfrwt>
<totfact> 0.39529557E+04</totfact>
</mgrwt>
</event>
<event>
 7    0  0.4714446E-002  0.4572017E+03  0.7546771E-02  0.1025596E+00
         21   -1    0    0  502  501  0.00000000000E+00  0.00000000000E+00  0.10809518224E+03  0.10809518224E+03  0.00000000000E+00 0.  1.
         21   -1    0    0  501  502 -0.00000000000E+00 -0.00000000000E+00 -0.48344759174E+03  0.48344759174E+03  0.00000000000E+00 0.  1.
      99926    2    1    2    0    0  0.00000000000E+00  0.00000000000E+00 -0.37535240950E+03  0.59154277399E+03  0.45720173024E+03 0.  0.
      99925    2    3    3    0    0 -0.10597830684E+03  0.43939375534E+02 -0.25250384040E+03  0.38201628575E+03  0.26270931259E+03 0.  0.
         25    1    4    4    0    0 -0.89116172020E+02  0.20323581821E+01 -0.13953145025E+03  0.20751471346E+03  0.12509000000E+03 0.  0.
         25    1    3    3    0    0  0.10597830684E+03 -0.43939375534E+02 -0.12284856911E+03  0.20952648824E+03  0.12509000000E+03 0.  0.
         25    1    4    4    0    0 -0.16862134816E+02  0.41907017352E+02 -0.11297239015E+03  0.17450157228E+03  0.12509000000E+03 0.  0.
<mgrwt>
<rscale>  2 0.45720173E+03</rscale>
<asrwt>0</asrwt>
<pdfrwt beam="1">  1       21 0.15896351E-01 0.45720173E+03</pdfrwt>
<pdfrwt beam="2">  1       21 0.71095232E-01 0.45720173E+03</pdfrwt>
<totfact> 0.58182816E+04</totfact>
</mgrwt>
</event>
<event>
 7    0  0.4714446E-002  0.4566907E+03  0.7546771E-02  0.1025745E+00
         21   -1    0    0  502  501  0.00000000000E+00  0.00000000000E+00  0.78143062887E+02  0.78143062887E+02  0.00000000000E+00 0. -1.
         21   -1    0    0  501  502 -0.00000000000E+00 -0.00000000000E+00 -0.66725830714E+03  0.66725830714E+03  0.00000000000E+00 0. -1.
      99926    2    1    2    0    0  0.71054273576E-14  0.35527136788E-14 -0.58911524426E+03  0.74540137003E+03  0.45669073937E+03 0.  0.
      99925    2    3    3    0    0 -0.49885416832E+02 -0.19628331491E+02 -0.20401112353E+03  0.33695734925E+03  0.26276584725E+03 0.  0.
         25    1    3    3    0    0  0.49885416832E+02  0.19628331491E+02 -0.38510412073E+03  0.40844402078E+03  0.12509000000E+03 0.  0.
         25    1    4    4    0    0 -0.18816684739E+02 -0.27187735598E+02 -0.57248001856E+02  0.14148527276E+03  0.12509000000E+03 0.  0.
         25    1    4    4    0    0 -0.31068732093E+02  0.75594041070E+01 -0.14676312167E+03  0.19547207649E+03  0.12509000000E+03 0.  0.
<mgrwt>
<rscale>  2 0.45669074E+03</rscale>
<asrwt>0</asrwt>
<pdfrwt beam="1">  1       21 0.11491627E-01 0.45669074E+03</pdfrwt>
<pdfrwt beam="2">  1       21 0.98126221E-01 0.45669074E+03</pdfrwt>
<totfact> 0.49840611E+04</totfact>
</mgrwt>
</event>
<event>
 7    0  0.4714446E-002  0.4470607E+03  0.7546771E-02  0.1028602E+00
         21   -1    0    0  502  501  0.00000000000E+00  0.00000000000E+00  0.20244273142E+03  0.20244273142E+03  0.00000000000E+00 0.  1.
         21   -1    0    0  501  502 -0.00000000000E+00 -0.00000000000E+00 -0.24681461301E+03  0.24681461301E+03  0.00000000000E+00 0.  1.
      99926    2    1    2    0    0 -0.71054273576E-14 -0.14210854715E-13 -0.44371881591E+02  0.44925734443E+03  0.44706073150E+03 0.  0.
      99925    2    3    3    0    0 -0.45381465933E+02 -0.76916884362E+02 -0.84604559305E+02  0.29038047070E+03  0.26303460183E+03 0.  0.
         25    1    4    4    0    0 -0.23968466873E+02 -0.34462905027E+02  0.20779957179E+00  0.13194593782E+03  0.12509000000E+03 0.  0.
         25    1    4    4    0    0 -0.21412999060E+02 -0.42453979336E+02 -0.84812358876E+02  0.15843453288E+03  0.12509000000E+03 0.  0.
         25    1    3    3    0    0  0.45381465933E+02  0.76916884362E+02  0.40232677713E+02  0.15887687373E+03  0.12509000000E+03 0.  0.
<mgrwt>
<rscale>  2 0.44706073E+03</rscale>
<asrwt>0</asrwt>
<pdfrwt beam="1">  1       21 0.29770990E-01 0.44706073E+03</pdfrwt>
<pdfrwt beam="2">  1       21 0.36296266E-01 0.44706073E+03</pdfrwt>
<totfact> 0.73516150E+04</totfact>
</mgrwt>
</event>
<event>
 7    0  0.4714446E-002  0.4457306E+03  0.7546771E-02  0.1029003E+00
         21   -1    0    0  502  501  0.00000000000E+00  0.00000000000E+00  0.23234610589E+03  0.23234610589E+03  0.00000000000E+00 0.  1.
         21   -1    0    0  501  502 -0.00000000000E+00 -0.00000000000E+00 -0.21377133112E+03  0.21377133112E+03  0.00000000000E+00 0.  1.
      99926    2    1    2    0    0  0.00000000000E+00  0.00000000000E+00  0.18574774775E+02  0.44611743701E+03  0.44573057484E+03 0.  0.
      99925    2    3    3    0    0  0.84444344851E+02  0.53693449677E+02 -0.16448268102E+02  0.28214196462E+03  0.26328636265E+03 0.  0.
         25    1    4    4    0    0  0.66588937143E+02 -0.42319283229E+01  0.28813405009E+01  0.14180199572E+03  0.12509000000E+03 0.  0.
         25    1    4    4    0    0  0.17855407708E+02  0.57925378000E+02 -0.19329608602E+02  0.14033996890E+03  0.12509000000E+03 0.  0.
         25    1    3    3    0    0 -0.84444344851E+02 -0.53693449677E+02  0.35023042877E+02  0.16397547240E+03  0.12509000000E+03 0.  0.
<mgrwt>
<rscale>  2 0.44573057E+03</rscale>
<asrwt>0</asrwt>
<pdfrwt beam="1">  1       21 0.34168545E-01 0.44573057E+03</pdfrwt>
<pdfrwt beam="2">  1       21 0.31436960E-01 0.44573057E+03</pdfrwt>
<totfact> 0.74565629E+04</totfact>
</mgrwt>
</event>
<event>
 7    0  0.4714446E-002  0.4542005E+03  0.7546771E-02  0.1026477E+00
         21   -1    0    0  502  501  0.00000000000E+00  0.00000000000E+00  0.15242815941E+03  0.15242815941E+03  0.00000000000E+00 0. -1.
         21   -1    0    0  501  502 -0.00000000000E+00 -0.00000000000E+00 -0.33835299272E+03  0.33835299272E+03  0.00000000000E+00 0. -1.
      99926    2    1    2    0    0  0.00000000000E+00  0.00000000000E+00 -0.18592483332E+03  0.49078115213E+03  0.45420050159E+03 0.  0.
      99925    2    3    3    0    0  0.32041651799E+02  0.51779764700E+02 -0.14949667841E+02  0.27035468640E+03  0.26298355920E+03 0.  0.
         25    1    4    4    0    0  0.26246436417E+02 -0.13155944717E+02  0.15215535594E+00  0.12848924296E+03  0.12509000000E+03 0.  0.
         25    1    3    3    0    0 -0.32041651799E+02 -0.51779764700E+02 -0.17097516548E+03  0.22042646572E+03  0.12509000000E+03 0.  0.
         25    1    4    4    0    0  0.57952153823E+01  0.64935709418E+02 -0.15101823197E+02  0.14186544344E+03  0.12509000000E+03 0.  0.
<mgrwt>
<rscale>  2 0.45420050E+03</rscale>
<asrwt>0</asrwt>
<pdfrwt beam="1">  1       21 0.22415906E-01 0.45420050E+03</pdfrwt>
<pdfrwt beam="2">  1       21 0.49757793E-01 0.45420050E+03</pdfrwt>
<totfact> 0.66343368E+04</totfact>
</mgrwt>
</event>
<event>
 7    0  0.4714446E-002  0.4532987E+03  0.7546771E-02  0.1026743E+00
         21   -1    0    0  502  501  0.00000000000E+00  0.00000000000E+00  0.87749290035E+02  0.87749290035E+02  0.00000000000E+00 0. -1.
         21   -1    0    0  501  502 -0.00000000000E+00 -0.00000000000E+00 -0.58541704587E+03  0.58541704587E+03  0.00000000000E+00 0. -1.
      99926    2    1    2    0    0  0.00000000000E+00  0.35527136788E-14 -0.49766775583E+03  0.67316633590E+03  0.45329871012E+03 0.  0.
      99925    2    3    3    0    0 -0.70423626211E+02  0.15313923631E+02 -0.44016418092E+03  0.51776951286E+03  0.26295771312E+03 0.  0.
         25    1    3    3    0    0  0.70423626211E+02 -0.15313923631E+02 -0.57503574913E+02  0.15539682305E+03  0.12509000000E+03 0.  0.
         25    1    4    4    0    0 -0.10194787063E+02  0.39762454291E+02 -0.21648485476E+03  0.25337361129E+03  0.12509000000E+03 0.  0.
         25    1    4    4    0    0 -0.60228839148E+02 -0.24448530660E+02 -0.22367932616E+03  0.26439590157E+03  0.12509000000E+03 0.  0.
<mgrwt>
<rscale>  2 0.45329871E+03</rscale>
<asrwt>0</asrwt>
<pdfrwt beam="1">  1       21 0.12904307E-01 0.45329871E+03</pdfrwt>
<pdfrwt beam="2">  1       21 0.86090744E-01 0.45329871E+03</pdfrwt>
<totfact> 0.55119853E+04</totfact>
</mgrwt>
</event>
<event>
 7    0  0.4714446E-002  0.4565582E+03  0.7546771E-02  0.1025784E+00
         21   -1    0    0  502  501  0.00000000000E+00  0.00000000000E+00  0.46015190545E+02  0.46015190545E+02  0.00000000000E+00 0.  1.
         21   -1    0    0  501  502 -0.00000000000E+00 -0.00000000000E+00 -0.11324814697E+04  0.11324814697E+04  0.00000000000E+00 0.  1.
      99926    2    1    2    0    0  0.35527136788E-14 -0.14210854715E-13 -0.10864662792E+04  0.11784966603E+04  0.45655821367E+03 0.  0.
      99925    2    3    3    0    0  0.23293279852E+02 -0.11004199614E+03 -0.74023051151E+03  0.79355701212E+03  0.26294429737E+03 0.  0.
         25    1    4    4    0    0 -0.13573592446E+02 -0.88461333037E+02 -0.39772414630E+03  0.42642895599E+03  0.12509000000E+03 0.  0.
         25    1    3    3    0    0 -0.23293279852E+02  0.11004199614E+03 -0.34623576766E+03  0.38493964814E+03  0.12509000000E+03 0.  0.
         25    1    4    4    0    0  0.36866872298E+02 -0.21580663100E+02 -0.34250636521E+03  0.36712805613E+03  0.12509000000E+03 0.  0.
<mgrwt>
<rscale>  2 0.45655821E+03</rscale>
<asrwt>0</asrwt>
<pdfrwt beam="1">  1       21 0.67669390E-02 0.45655821E+03</pdfrwt>
<pdfrwt beam="2">  1       21 0.16654141E+00 0.45655821E+03</pdfrwt>
<totfact> 0.32449274E+04</totfact>
</mgrwt>
</event>
<event>
 7    0  0.4714446E-002  0.4471027E+03  0.7546771E-02  0.1028590E+00
         21   -1    0    0  502  501  0.00000000000E+00  0.00000000000E+00  0.67631787469E+02  0.67631787469E+02  0.00000000000E+00 0.  1.
         21   -1    0    0  501  502 -0.00000000000E+00 -0.00000000000E+00 -0.73893073665E+03  0.73893073665E+03  0.00000000000E+00 0.  1.
      99926    2    1    2    0    0  0.00000000000E+00  0.00000000000E+00 -0.67129894918E+03  0.80656252412E+03  0.44710270201E+03 0.  0.
      99925    2    3    3    0    0  0.25616378952E+02 -0.93062245230E+02 -0.34851269842E+03  0.44718076034E+03  0.26304515031E+03 0.  0.
         25    1    4    4    0    0  0.34069074308E+01 -0.22989981160E+02 -0.21599375748E+03  0.25068098776E+03  0.12509000000E+03 0.  0.
         25    1    4    4    0    0  0.22209471521E+02 -0.70072264070E+02 -0.13251894094E+03  0.19649977258E+03  0.12509000000E+03 0.  0.
         25    1    3    3    0    0 -0.25616378952E+02  0.93062245230E+02 -0.32278625076E+03  0.35938176378E+03  0.12509000000E+03 0.  0.
<mgrwt>
<rscale>  2 0.44710270E+03</rscale>
<asrwt>0</asrwt>
<pdfrwt beam="1">  1       21 0.99458505E-02 0.44710270E+03</pdfrwt>
<pdfrwt beam="2">  1       21 0.10866629E+00 0.44710270E+03</pdfrwt>
<totfact> 0.50507144E+04</totfact>
</mgrwt>
</event>
<event>
 7    0  0.4714446E-002  0.4582474E+03  0.7546771E-02  0.1025291E+00
         21   -1    0    0  502  501  0.00000000000E+00  0.00000000000E+00  0.30052304046E+03  0.30052304046E+03  0.00000000000E+00 0. -1.
         21   -1    0    0  501  502 -0.00000000000E+00 -0.00000000000E+00 -0.17468766289E+03  0.17468766289E+03  0.00000000000E+00 0. -1.
      99926    2    1    2    0    0  0.14210854715E-13  0.00000000000E+00  0.12583537758E+03  0.47521070335E+03  0.45824738988E+03 0.  0.
      99925    2    3    3    0    0  0.10629072885E+03  0.43518779069E+02  0.61629374662E+02  0.29365761998E+03  0.26314447511E+03 0.  0.
         25    1    4    4    0    0  0.30453952130E+02 -0.14685020798E+02  0.31725240936E+02  0.13340574219E+03  0.12509000000E+03 0.  0.
         25    1    3    3    0    0 -0.10629072885E+03 -0.43518779069E+02  0.64206002915E+02  0.18155308337E+03  0.12509000000E+03 0.  0.
         25    1    4    4    0    0  0.75836776719E+02  0.58203799867E+02  0.29904133726E+02  0.16025187779E+03  0.12509000000E+03 0.  0.
<mgrwt>
<rscale>  2 0.45824739E+03</rscale>
<asrwt>0</asrwt>
<pdfrwt beam="1">  1       21 0.44194565E-01 0.45824739E+03</pdfrwt>
<pdfrwt beam="2">  1       21 0.25689362E-01 0.45824739E+03</pdfrwt>
<totfact> 0.65350180E+04</totfact>
</mgrwt>
</event>
<event>
 7    0  0.4714446E-002  0.4538567E+03  0.7546771E-02  0.1026578E+00
         21   -1    0    0  502  501  0.00000000000E+00  0.00000000000E+00  0.12921610729E+03  0.12921610729E+03  0.00000000000E+00 0. -1.
         21   -1    0    0  501  502 -0.00000000000E+00 -0.00000000000E+00 -0.39852984463E+03  0.39852984463E+03  0.00000000000E+00 0. -1.
      99926    2    1    2    0    0  0.00000000000E+00  0.00000000000E+00 -0.26931373734E+03  0.52774595192E+03  0.45385669616E+03 0.  0.
      99925    2    3    3    0    0 -0.89010310058E+02  0.27053607449E+01 -0.90510724295E+02  0.29205933828E+03  0.26301390000E+03 0.  0.
         25    1    4    4    0    0 -0.87283093896E+01  0.21425906828E+02 -0.31562761436E+02  0.13106856556E+03  0.12509000000E+03 0.  0.
         25    1    4    4    0    0 -0.80282000668E+02 -0.18720546084E+02 -0.58947962859E+02  0.16099077272E+03  0.12509000000E+03 0.  0.
         25    1    3    3    0    0  0.89010310058E+02 -0.27053607449E+01 -0.17880301304E+03  0.23568661363E+03  0.12509000000E+03 0.  0.
<mgrwt>
<rscale>  2 0.45385670E+03</rscale>
<asrwt>0</asrwt>
<pdfrwt beam="1">  1       21 0.19002368E-01 0.45385670E+03</pdfrwt>
<pdfrwt beam="2">  1       21 0.58607331E-01 0.45385670E+03</pdfrwt>
<totfact> 0.63936833E+04</totfact>
</mgrwt>
</event>
<event>
 7    0  0.4714446E-002  0.4578697E+03  0.7546771E-02  0.1025401E+00
         21   -1    0    0  502  501  0.00000000000E+00  0.00000000000E+00  0.43699796603E+03  0.43699796603E+03  0.00000000000E+00 0.  1.
         21   -1    0    0  501  502 -0.00000000000E+00 -0.00000000000E+00 -0.11993459628E+03  0.11993459628E+03  0.00000000000E+00 0.  1.
      99926    2    1    2    0    0  0.00000000000E+00  0.17763568394E-14  0.31706336975E+03  0.55693256231E+03  0.45786973969E+03 0.  0.
      99925    2    3    3    0    0  0.10365171549E+03  0.15122857007E+02  0.13861502455E+03  0.31513988473E+03  0.26291946103E+03 0.  0.
         25    1    4    4    0    0  0.63686632097E+02 -0.24834280609E+02  0.46944829387E+02  0.15008015761E+03  0.12509000000E+03 0.  0.
         25    1    4    4    0    0  0.39965083390E+02  0.39957137617E+02  0.91670195163E+02  0.16505972712E+03  0.12509000000E+03 0.  0.
         25    1    3    3    0    0 -0.10365171549E+03 -0.15122857007E+02  0.17844834520E+03  0.24179267758E+03  0.12509000000E+03 0.  0.
<mgrwt>
<rscale>  2 0.45786974E+03</rscale>
<asrwt>0</asrwt>
<pdfrwt beam="1">  1       21 0.64264406E-01 0.45786974E+03</pdfrwt>
<pdfrwt beam="2">  1       21 0.17637441E-01 0.45786974E+03</pdfrwt>
<totfact> 0.60036167E+04</totfact>
</mgrwt>
</event>
<event>
 7    0  0.4714446E-002  0.4524783E+03  0.7546771E-02  0.1026986E+00
         21   -1    0    0  502  501  0.00000000000E+00  0.00000000000E+00  0.30065928368E+03  0.30065928368E+03  0.00000000000E+00 0. -1.
         21   -1    0    0  501  502 -0.00000000000E+00 -0.00000000000E+00 -0.17023974736E+03  0.17023974736E+03  0.00000000000E+00 0. -1.
      99926    2    1    2    0    0 -0.71054273576E-14  0.00000000000E+00  0.13041953632E+03  0.47089903104E+03  0.45247833317E+03 0.  0.
      99925    2    3    3    0    0 -0.58719732672E+02  0.78733523432E+02  0.28895714785E+02  0.28221525019E+03  0.26298956327E+03 0.  0.
         25    1    3    3    0    0  0.58719732672E+02 -0.78733523432E+02  0.10152382154E+03  0.18868378085E+03  0.12509000000E+03 0.  0.
         25    1    4    4    0    0 -0.30101149670E+02  0.59395227007E+02 -0.20853788934E+02  0.14323498461E+03  0.12509000000E+03 0.  0.
         25    1    4    4    0    0 -0.28618583002E+02  0.19338296425E+02  0.49749503719E+02  0.13898026558E+03  0.12509000000E+03 0.  0.
<mgrwt>
<rscale>  2 0.45247833E+03</rscale>
<asrwt>0</asrwt>
<pdfrwt beam="1">  1       21 0.44214600E-01 0.45247833E+03</pdfrwt>
<pdfrwt beam="2">  1       21 0.25035257E-01 0.45247833E+03</pdfrwt>
<totfact> 0.68733852E+04</totfact>
</mgrwt>
</event>
<event>
 7    0  0.4714446E-002  0.4559003E+03  0.7546771E-02  0.1025977E+00
         21   -1    0    0  502  501  0.00000000000E+00  0.00000000000E+00  0.35790561780E+03  0.35790561780E+03  0.00000000000E+00 0. -1.
         21   -1    0    0  501  502 -0.00000000000E+00 -0.00000000000E+00 -0.14518149154E+03  0.14518149154E+03  0.00000000000E+00 0. -1.
      99926    2    1    2    0    0  0.00000000000E+00  0.00000000000E+00  0.21272412626E+03  0.50308710934E+03  0.45590030236E+03 0.  0.
      99925    2    3    3    0    0 -0.30472251251E+02  0.21075029456E+02  0.25295047796E+03  0.36656464806E+03  0.26270322029E+03 0.  0.
         25    1    3    3    0    0  0.30472251251E+02 -0.21075029456E+02 -0.40226351695E+02  0.13652246128E+03  0.12509000000E+03 0.  0.
         25    1    4    4    0    0  0.43473682201E+01 -0.14402679222E+02  0.15679279368E+03  0.20114130612E+03  0.12509000000E+03 0.  0.
         25    1    4    4    0    0 -0.34819619472E+02  0.35477708678E+02  0.96157684280E+02  0.16542334194E+03  0.12509000000E+03 0.  0.
<mgrwt>
<rscale>  2 0.45590030E+03</rscale>
<asrwt>0</asrwt>
<pdfrwt beam="1">  1       21 0.52633179E-01 0.45590030E+03</pdfrwt>
<pdfrwt beam="2">  1       21 0.21350219E-01 0.45590030E+03</pdfrwt>
<totfact> 0.64591496E+04</totfact>
</mgrwt>
</event>
<event>
 7    0  0.4714446E-002  0.4448868E+03  0.7546771E-02  0.1029258E+00
         21   -1    0    0  502  501  0.00000000000E+00  0.00000000000E+00  0.12791222284E+03  0.12791222284E+03  0.00000000000E+00 0. -1.
         21   -1    0    0  501  502 -0.00000000000E+00 -0.00000000000E+00 -0.38683609058E+03  0.38683609058E+03  0.00000000000E+00 0. -1.
      99926    2    1    2    0    0  0.00000000000E+00  0.00000000000E+00 -0.25892386774E+03  0.51474831341E+03  0.44488679108E+03 0.  0.
      99925    2    3    3    0    0 -0.20478755822E+02  0.95822403515E+02 -0.12630347118E+03  0.30777732478E+03  0.26300760894E+03 0.  0.
         25    1    3    3    0    0  0.20478755822E+02 -0.95822403515E+02 -0.13262039655E+03  0.20697098864E+03  0.12509000000E+03 0.  0.
         25    1    4    4    0    0  0.22940038228E+02  0.41609384474E+02 -0.35942643448E+02  0.13855312320E+03  0.12509000000E+03 0.  0.
         25    1    4    4    0    0 -0.43418794050E+02  0.54213019042E+02 -0.90360827736E+02  0.16922420158E+03  0.12509000000E+03 0.  0.
<mgrwt>
<rscale>  2 0.44488679E+03</rscale>
<asrwt>0</asrwt>
<pdfrwt beam="1">  1       21 0.18810621E-01 0.44488679E+03</pdfrwt>
<pdfrwt beam="2">  1       21 0.56887661E-01 0.44488679E+03</pdfrwt>
<totfact> 0.69670817E+04</totfact>
</mgrwt>
</event>
<event>
 6    0  0.4714446E-002  0.4480178E+03  0.7546771E-02  0.1028315E+00
         21   -1    0    0  502  501  0.00000000000E+00  0.00000000000E+00  0.65086541265E+02  0.65086541265E+02  0.00000000000E+00 0. -1.
         21   -1    0    0  501  502 -0.00000000000E+00 -0.00000000000E+00 -0.77097319377E+03  0.77097319377E+03  0.00000000000E+00 0. -1.
      99926    2    1    2    0    0  0.44408920985E-15  0.00000000000E+00 -0.70588665250E+03  0.83605973503E+03  0.44801776121E+03 0.  0.
         25    1    3    3    0    0 -0.26874086848E+01  0.82852177462E+02 -0.26105915068E+03  0.30111641225E+03  0.12509000000E+03 0.  0.
         25    1    3    3    0    0  0.34014202132E+02 -0.10342892691E+03 -0.26720710845E+03  0.31448633639E+03  0.12509000000E+03 0.  0.
         25    1    3    3    0    0 -0.31326793447E+02  0.20576749452E+02 -0.17762039338E+03  0.22045698640E+03  0.12509000000E+03 0.  0.
<mgrwt>
<rscale>  2 0.44801776E+03</rscale>
<asrwt>0</asrwt>
<pdfrwt beam="1">  1       21 0.95715512E-02 0.44801776E+03</pdfrwt>
<pdfrwt beam="2">  1       21 0.11337840E+00 0.44801776E+03</pdfrwt>
<totfact> 0.48682063E+04</totfact>
</mgrwt>
</event>
<event>
 7    0  0.4714446E-002  0.4523901E+03  0.7546771E-02  0.1027012E+00
         21   -1    0    0  502  501  0.00000000000E+00  0.00000000000E+00  0.10119563661E+03  0.10119563661E+03  0.00000000000E+00 0. -1.
         21   -1    0    0  501  502 -0.00000000000E+00 -0.00000000000E+00 -0.50559698070E+03  0.50559698070E+03  0.00000000000E+00 0. -1.
      99926    2    1    2    0    0  0.14210854715E-13  0.00000000000E+00 -0.40440134409E+03  0.60679261731E+03  0.45239013397E+03 0.  0.
      99925    2    3    3    0    0  0.10021967424E+03 -0.25576307330E+02 -0.20197992807E+03  0.34733150584E+03  0.26295465960E+03 0.  0.
         25    1    3    3    0    0 -0.10021967424E+03  0.25576307330E+02 -0.20242141602E+03  0.25946111147E+03  0.12509000000E+03 0.  0.
         25    1    4    4    0    0  0.57657202650E+02 -0.32903358650E+02 -0.14674013675E+03  0.20392930114E+03  0.12509000000E+03 0.  0.
         25    1    4    4    0    0  0.42562471588E+02  0.73270513209E+01 -0.55239791320E+02  0.14340220470E+03  0.12509000000E+03 0.  0.
<mgrwt>
<rscale>  2 0.45239013E+03</rscale>
<asrwt>0</asrwt>
<pdfrwt beam="1">  1       21 0.14881711E-01 0.45239013E+03</pdfrwt>
<pdfrwt beam="2">  1       21 0.74352497E-01 0.45239013E+03</pdfrwt>
<totfact> 0.59478916E+04</totfact>
</mgrwt>
</event>
<event>
 7    0  0.4714446E-002  0.4573602E+03  0.7546771E-02  0.1025550E+00
         21   -1    0    0  502  501  0.00000000000E+00  0.00000000000E+00  0.14909895112E+04  0.14909895112E+04  0.00000000000E+00 0.  1.
         21   -1    0    0  501  502 -0.00000000000E+00 -0.00000000000E+00 -0.35073740408E+02  0.35073740408E+02  0.00000000000E+00 0.  1.
      99926    2    1    2    0    0 -0.35527136788E-14  0.22204460493E-14  0.14559157708E+04  0.15260632516E+04  0.45736016034E+03 0.  0.
      99925    2    3    3    0    0 -0.20461899991E+02  0.37760615124E+01  0.53606059166E+03  0.59750845696E+03  0.26310159675E+03 0.  0.
         25    1    4    4    0    0 -0.83679604276E-01 -0.25009055830E+02  0.20030701440E+03  0.23747814214E+03  0.12509000000E+03 0.  0.
         25    1    4    4    0    0 -0.20378220386E+02  0.28785117343E+02  0.33575357726E+03  0.36003031482E+03  0.12509000000E+03 0.  0.
         25    1    3    3    0    0  0.20461899991E+02 -0.37760615124E+01  0.91985517910E+03  0.92855479462E+03  0.12509000000E+03 0.  0.
<mgrwt>
<rscale>  2 0.45736016E+03</rscale>
<asrwt>0</asrwt>
<pdfrwt beam="1">  1       21 0.21926312E+00 0.45736016E+03</pdfrwt>
<pdfrwt beam="2">  1       21 0.51579040E-02 0.45736016E+03</pdfrwt>
<totfact> 0.22728042E+04</totfact>
</mgrwt>
</event>
<event>
 7    0  0.4714446E-002  0.4508214E+03  0.7546771E-02  0.1027477E+00
         21   -1    0    0  502  501  0.00000000000E+00  0.00000000000E+00  0.46382610215E+03  0.46382610215E+03  0.00000000000E+00 0.  1.
         21   -1    0    0  501  502 -0.00000000000E+00 -0.00000000000E+00 -0.10954533168E+03  0.10954533168E+03  0.00000000000E+00 0.  1.
      99926    2    1    2    0    0 -0.14210854715E-13  0.00000000000E+00  0.35428077047E+03  0.57337143384E+03  0.45082140235E+03 0.  0.
      99925    2    3    3    0    0  0.95477952921E+02  0.42220409256E+02  0.18260486694E+03  0.33668867907E+03  0.26289946126E+03 0.  0.
         25    1    3    3    0    0 -0.95477952921E+02 -0.42220409256E+02  0.17167590353E+03  0.23668275477E+03  0.12509000000E+03 0.  0.
         25    1    4    4    0    0  0.81238574766E+02  0.16529443115E+02  0.12734442337E+03  0.19681727257E+03  0.12509000000E+03 0.  0.
         25    1    4    4    0    0  0.14239378155E+02  0.25690966141E+02  0.55260443572E+02  0.13987140650E+03  0.12509000000E+03 0.  0.
<mgrwt>
<rscale>  2 0.45082140E+03</rscale>
<asrwt>0</asrwt>
<pdfrwt beam="1">  1       21 0.68209720E-01 0.45082140E+03</pdfrwt>
<pdfrwt beam="2">  1       21 0.16109608E-01 0.45082140E+03</pdfrwt>
<totfact> 0.62383781E+04</totfact>
</mgrwt>
</event>
<event>
 7    0  0.4714446E-002  0.4574310E+03  0.7546771E-02  0.1025529E+00
         21   -1    0    0  502  501  0.00000000000E+00  0.00000000000E+00  0.61163109163E+03  0.61163109163E+03  0.00000000000E+00 0. -1.
         21   -1    0    0  501  502 -0.00000000000E+00 -0.00000000000E+00 -0.85526682223E+02  0.85526682223E+02  0.00000000000E+00 0. -1.
      99926    2    1    2    0    0  0.00000000000E+00  0.00000000000E+00  0.52610440940E+03  0.69715777385E+03  0.45743099157E+03 0.  0.
      99925    2    3    3    0    0  0.69205736524E+02 -0.75000445298E+02  0.41520212557E+03  0.50129729947E+03  0.26170914509E+03 0.  0.
         25    1    3    3    0    0 -0.69205736524E+02  0.75000445298E+02  0.11090228384E+03  0.19586047438E+03  0.12509000000E+03 0.  0.
         25    1    4    4    0    0  0.12210239595E+02 -0.10683427739E+02  0.22524215279E+03  0.25815646626E+03  0.12509000000E+03 0.  0.
         25    1    4    4    0    0  0.56995496930E+02 -0.64317017559E+02  0.18995997278E+03  0.24314083322E+03  0.12509000000E+03 0.  0.
<mgrwt>
<rscale>  2 0.45743099E+03</rscale>
<asrwt>0</asrwt>
<pdfrwt beam="1">  1       21 0.89945746E-01 0.45743099E+03</pdfrwt>
<pdfrwt beam="2">  1       21 0.12577454E-01 0.45743099E+03</pdfrwt>
<totfact> 0.52054425E+04</totfact>
</mgrwt>
</event>
<event>
 7    0  0.4714446E-002  0.4586450E+03  0.7546771E-02  0.1025175E+00
         21   -1    0    0  502  501  0.00000000000E+00  0.00000000000E+00  0.75504047714E+03  0.75504047714E+03  0.00000000000E+00 0.  1.
         21   -1    0    0  501  502 -0.00000000000E+00 -0.00000000000E+00 -0.69650330527E+02  0.69650330527E+02  0.00000000000E+00 0.  1.
      99926    2    1    2    0    0  0.35527136788E-14  0.00000000000E+00  0.68539014661E+03  0.82469080767E+03  0.45864504268E+03 0.  0.
      99925    2    3    3    0    0 -0.23825802935E+02 -0.11149572708E+03  0.38602771816E+03  0.48079498374E+03  0.26295902944E+03 0.  0.
         25    1    3    3    0    0  0.23825802935E+02  0.11149572708E+03  0.29936242845E+03  0.34389582392E+03  0.12509000000E+03 0.  0.
         25    1    4    4    0    0 -0.33955228330E+02 -0.72968885435E+02  0.25565410069E+03  0.29577684675E+03  0.12509000000E+03 0.  0.
         25    1    4    4    0    0  0.10129425395E+02 -0.38526841640E+02  0.13037361747E+03  0.18501813700E+03  0.12509000000E+03 0.  0.
<mgrwt>
<rscale>  2 0.45864504E+03</rscale>
<asrwt>0</asrwt>
<pdfrwt beam="1">  1       21 0.11103536E+00 0.45864504E+03</pdfrwt>
<pdfrwt beam="2">  1       21 0.10242696E-01 0.45864504E+03</pdfrwt>
<totfact> 0.45284509E+04</totfact>
</mgrwt>
</event>
<event>
 7    0  0.4714446E-002  0.4600791E+03  0.7546771E-02  0.1024758E+00
         21   -1    0    0  502  501  0.00000000000E+00  0.00000000000E+00  0.26134399635E+03  0.26134399635E+03  0.00000000000E+00 0.  1.
         21   -1    0    0  501  502 -0.00000000000E+00 -0.00000000000E+00 -0.20248484601E+03  0.20248484601E+03  0.00000000000E+00 0.  1.
      99926    2    1    2    0    0 -0.71054273576E-14 -0.35527136788E-14  0.58859150344E+02  0.46382884236E+03  0.46007911865E+03 0.  0.
      99925    2    3    3    0    0  0.33626505160E+02 -0.23990772780E+02 -0.74264653000E+02  0.27654362098E+03  0.26316313684E+03 0.  0.
         25    1    4    4    0    0 -0.10947081223E+01  0.17579565868E+02 -0.58858322837E+02  0.13936301442E+03  0.12509000000E+03 0.  0.
         25    1    4    4    0    0  0.34721213283E+02 -0.41570338648E+02 -0.15406330162E+02  0.13718060656E+03  0.12509000000E+03 0.  0.
         25    1    3    3    0    0 -0.33626505160E+02  0.23990772780E+02  0.13312380334E+03  0.18728522137E+03  0.12509000000E+03 0.  0.
<mgrwt>
<rscale>  2 0.46007912E+03</rscale>
<asrwt>0</asrwt>
<pdfrwt beam="1">  1       21 0.38432941E-01 0.46007912E+03</pdfrwt>
<pdfrwt beam="2">  1       21 0.29777183E-01 0.46007912E+03</pdfrwt>
<totfact> 0.65220330E+04</totfact>
</mgrwt>
</event>
<event>
 7    0  0.4714446E-002  0.4740476E+03  0.7546771E-02  0.1020784E+00
         21   -1    0    0  502  501  0.00000000000E+00  0.00000000000E+00  0.78773822568E+03  0.78773822568E+03  0.00000000000E+00 0.  1.
         21   -1    0    0  501  502 -0.00000000000E+00 -0.00000000000E+00 -0.71318475186E+02  0.71318475186E+02  0.00000000000E+00 0.  1.
      99926    2    1    2    0    0  0.00000000000E+00 -0.14210854715E-13  0.71641975049E+03  0.85905670086E+03  0.47404763095E+03 0.  0.
      99925    2    3    3    0    0 -0.20542300660E+02  0.64036868986E+02  0.64561352241E+03  0.70036285492E+03  0.26299924244E+03 0.  0.
         25    1    3    3    0    0  0.20542300660E+02 -0.64036868986E+02  0.70806228082E+02  0.15869384595E+03  0.12509000000E+03 0.  0.
         25    1    4    4    0    0  0.15715838201E+01  0.29426893027E+02  0.41914162790E+03  0.43840121378E+03  0.12509000000E+03 0.  0.
         25    1    4    4    0    0 -0.22113884480E+02  0.34609975959E+02  0.22647189451E+03  0.26196164113E+03  0.12509000000E+03 0.  0.
<mgrwt>
<rscale>  2 0.47404763E+03</rscale>
<asrwt>0</asrwt>
<pdfrwt beam="1">  1       21 0.11584385E+00 0.47404763E+03</pdfrwt>
<pdfrwt beam="2">  1       21 0.10488011E-01 0.47404763E+03</pdfrwt>
<totfact> 0.38892026E+04</totfact>
</mgrwt>
</event>
<event>
 7    0  0.4714446E-002  0.4554981E+03  0.7546771E-02  0.1026095E+00
         21   -1    0    0  502  501  0.00000000000E+00  0.00000000000E+00  0.20366879823E+03  0.20366879823E+03  0.00000000000E+00 0. -1.
         21   -1    0    0  501  502 -0.00000000000E+00 -0.00000000000E+00 -0.25467641129E+03  0.25467641129E+03  0.00000000000E+00 0. -1.
      99926    2    1    2    0    0  0.35527136788E-14  0.00000000000E+00 -0.51007613059E+02  0.45834520953E+03  0.45549813886E+03 0.  0.
      99925    2    3    3    0    0 -0.29846687720E+02  0.79254691591E+02 -0.10860626459E+03  0.29667504015E+03  0.26277105593E+03 0.  0.
         25    1    4    4    0    0  0.24169939524E+02  0.41487094573E+02 -0.63408950775E+02  0.14823484115E+03  0.12509000000E+03 0.  0.
         25    1    4    4    0    0 -0.54016627243E+02  0.37767597017E+02 -0.45197313819E+02  0.14844019900E+03  0.12509000000E+03 0.  0.
         25    1    3    3    0    0  0.29846687720E+02 -0.79254691591E+02  0.57598651535E+02  0.16167016937E+03  0.12509000000E+03 0.  0.
<mgrwt>
<rscale>  2 0.45549814E+03</rscale>
<asrwt>0</asrwt>
<pdfrwt beam="1">  1       21 0.29951294E-01 0.45549814E+03</pdfrwt>
<pdfrwt beam="2">  1       21 0.37452413E-01 0.45549814E+03</pdfrwt>
<totfact> 0.68030570E+04</totfact>
</mgrwt>
</event>
<event>
 7    0  0.4714446E-002  0.4524290E+03  0.7546771E-02  0.1027000E+00
         21   -1    0    0  502  501  0.00000000000E+00  0.00000000000E+00  0.22917457069E+03  0.22917457069E+03  0.00000000000E+00 0.  1.
         21   -1    0    0  501  502 -0.00000000000E+00 -0.00000000000E+00 -0.22329269676E+03  0.22329269676E+03  0.00000000000E+00 0.  1.
      99926    2    1    2    0    0  0.00000000000E+00  0.00000000000E+00  0.58818739289E+01  0.45246726745E+03  0.45242903496E+03 0.  0.
      99925    2    3    3    0    0 -0.89885448611E+02 -0.62448072729E+02 -0.12748230999E+02  0.28521373365E+03  0.26306881383E+03 0.  0.
         25    1    4    4    0    0 -0.76723601486E+02 -0.17150369779E+02 -0.28930346435E+02  0.15054939141E+03  0.12509000000E+03 0.  0.
         25    1    4    4    0    0 -0.13161847125E+02 -0.45297702950E+02  0.16182115436E+02  0.13466434224E+03  0.12509000000E+03 0.  0.
         25    1    3    3    0    0  0.89885448611E+02  0.62448072729E+02  0.18630104928E+02  0.16725353380E+03  0.12509000000E+03 0.  0.
<mgrwt>
<rscale>  2 0.45242903E+03</rscale>
<asrwt>0</asrwt>
<pdfrwt beam="1">  1       21 0.33702143E-01 0.45242903E+03</pdfrwt>
<pdfrwt beam="2">  1       21 0.32837161E-01 0.45242903E+03</pdfrwt>
<totfact> 0.70159964E+04</totfact>
</mgrwt>
</event>
<event>
 7    0  0.4714446E-002  0.4619277E+03  0.7546771E-02  0.1024224E+00
         21   -1    0    0  502  501  0.00000000000E+00  0.00000000000E+00  0.44440294737E+03  0.44440294737E+03  0.00000000000E+00 0.  1.
         21   -1    0    0  501  502 -0.00000000000E+00 -0.00000000000E+00 -0.12003587968E+03  0.12003587968E+03  0.00000000000E+00 0.  1.
      99926    2    1    2    0    0  0.00000000000E+00  0.00000000000E+00  0.32436706769E+03  0.56443882705E+03  0.46192769444E+03 0.  0.
      99925    2    3    3    0    0  0.22910410797E+02 -0.74341074899E+02  0.92003593269E+02  0.28931744533E+03  0.26303695683E+03 0.  0.
         25    1    4    4    0    0 -0.28188090869E+02 -0.41770687153E+02  0.37063962528E+02  0.13985922991E+03  0.12509000000E+03 0.  0.
         25    1    3    3    0    0 -0.22910410797E+02  0.74341074899E+02  0.23236347442E+03  0.27512138173E+03  0.12509000000E+03 0.  0.
         25    1    4    4    0    0  0.51098501665E+02 -0.32570387746E+02  0.54939630741E+02  0.14945821542E+03  0.12509000000E+03 0.  0.
<mgrwt>
<rscale>  2 0.46192769E+03</rscale>
<asrwt>0</asrwt>
<pdfrwt beam="1">  1       21 0.65353374E-01 0.46192769E+03</pdfrwt>
<pdfrwt beam="2">  1       21 0.17652335E-01 0.46192769E+03</pdfrwt>
<totfact> 0.57695510E+04</totfact>
</mgrwt>
</event>
<event>
 7    0  0.4714446E-002  0.4541871E+03  0.7546771E-02  0.1026481E+00
         21   -1    0    0  502  501  0.00000000000E+00  0.00000000000E+00  0.10823855566E+03  0.10823855566E+03  0.00000000000E+00 0.  1.
         21   -1    0    0  501  502 -0.00000000000E+00 -0.00000000000E+00 -0.47646137670E+03  0.47646137670E+03  0.00000000000E+00 0.  1.
      99926    2    1    2    0    0  0.00000000000E+00  0.00000000000E+00 -0.36822282104E+03  0.58469993236E+03  0.45418714751E+03 0.  0.
      99925    2    3    3    0    0  0.16493997185E+02 -0.89016589294E+02 -0.31768704893E+03  0.42222723473E+03  0.26297294837E+03 0.  0.
         25    1    4    4    0    0  0.37408740970E+02 -0.71629295805E+02 -0.15131664965E+03  0.21230733968E+03  0.12509000000E+03 0.  0.
         25    1    4    4    0    0 -0.20914743786E+02 -0.17387293488E+02 -0.16637039928E+03  0.20991989505E+03  0.12509000000E+03 0.  0.
         25    1    3    3    0    0 -0.16493997185E+02  0.89016589294E+02 -0.50535772109E+02  0.16247269763E+03  0.12509000000E+03 0.  0.
<mgrwt>
<rscale>  2 0.45418715E+03</rscale>
<asrwt>0</asrwt>
<pdfrwt beam="1">  1       21 0.15917435E-01 0.45418715E+03</pdfrwt>
<pdfrwt beam="2">  1       21 0.70067849E-01 0.45418715E+03</pdfrwt>
<totfact> 0.60014734E+04</totfact>
</mgrwt>
</event>
<event>
 7    0  0.4714446E-002  0.4491048E+03  0.7546771E-02  0.1027989E+00
         21   -1    0    0  502  501  0.00000000000E+00  0.00000000000E+00  0.17164764535E+03  0.17164764535E+03  0.00000000000E+00 0. -1.
         21   -1    0    0  501  502 -0.00000000000E+00 -0.00000000000E+00 -0.29376333528E+03  0.29376333528E+03  0.00000000000E+00 0. -1.
      99926    2    1    2    0    0  0.00000000000E+00  0.00000000000E+00 -0.12211568993E+03  0.46541098063E+03  0.44910481980E+03 0.  0.
      99925    2    3    3    0    0 -0.38291968471E+02 -0.51141780420E+02 -0.16692996908E+03  0.31797426787E+03  0.26298339092E+03 0.  0.
         25    1    4    4    0    0 -0.51291500291E+02 -0.51295248745E+02 -0.96320285154E+02  0.17374442719E+03  0.12509000000E+03 0.  0.
         25    1    4    4    0    0  0.12999531820E+02  0.15346832510E+00 -0.70609683928E+02  0.14422984069E+03  0.12509000000E+03 0.  0.
         25    1    3    3    0    0  0.38291968471E+02  0.51141780420E+02  0.44814279151E+02  0.14743671276E+03  0.12509000000E+03 0.  0.
<mgrwt>
<rscale>  2 0.44910482E+03</rscale>
<asrwt>0</asrwt>
<pdfrwt beam="1">  1       21 0.25242301E-01 0.44910482E+03</pdfrwt>
<pdfrwt beam="2">  1       21 0.43200491E-01 0.44910482E+03</pdfrwt>
<totfact> 0.71043308E+04</totfact>
</mgrwt>
</event>
<event>
 7    0  0.4714446E-002  0.4517112E+03  0.7546771E-02  0.1027213E+00
         21   -1    0    0  502  501  0.00000000000E+00  0.00000000000E+00  0.20461278645E+03  0.20461278645E+03  0.00000000000E+00 0. -1.
         21   -1    0    0  501  502 -0.00000000000E+00 -0.00000000000E+00 -0.24930382060E+03  0.24930382060E+03  0.00000000000E+00 0. -1.
      99926    2    1    2    0    0  0.71054273576E-14  0.00000000000E+00 -0.44691034156E+02  0.45391660705E+03  0.45171118829E+03 0.  0.
      99925    2    3    3    0    0  0.33036927412E+02  0.99451397150E+02 -0.62076326632E+02  0.28980757177E+03  0.26296946469E+03 0.  0.
         25    1    4    4    0    0 -0.18387778152E+02  0.40158604168E+02 -0.49522250248E+02  0.14160079535E+03  0.12509000000E+03 0.  0.
         25    1    3    3    0    0 -0.33036927412E+02 -0.99451397150E+02  0.17385292476E+02  0.16410903529E+03  0.12509000000E+03 0.  0.
         25    1    4    4    0    0  0.51424705564E+02  0.59292792982E+02 -0.12554076384E+02  0.14820677642E+03  0.12509000000E+03 0.  0.
<mgrwt>
<rscale>  2 0.45171119E+03</rscale>
<asrwt>0</asrwt>
<pdfrwt beam="1">  1       21 0.30090116E-01 0.45171119E+03</pdfrwt>
<pdfrwt beam="2">  1       21 0.36662326E-01 0.45171119E+03</pdfrwt>
<totfact> 0.70455921E+04</totfact>
</mgrwt>
</event>
<event>
 7    0  0.4714446E-002  0.4551748E+03  0.7546771E-02  0.1026190E+00
         21   -1    0    0  502  501  0.00000000000E+00  0.00000000000E+00  0.25148378222E+03  0.25148378222E+03  0.00000000000E+00 0.  1.
         21   -1    0    0  501  502 -0.00000000000E+00 -0.00000000000E+00 -0.20596172793E+03  0.20596172793E+03  0.00000000000E+00 0.  1.
      99926    2    1    2    0    0  0.00000000000E+00  0.00000000000E+00  0.45522054292E+02  0.45744551016E+03  0.45517484260E+03 0.  0.
      99925    2    3    3    0    0  0.94750677690E+01  0.11276497275E+03  0.22073208292E+02  0.28714262566E+03  0.26297898197E+03 0.  0.
         25    1    3    3    0    0 -0.94750677690E+01 -0.11276497275E+03  0.23448846000E+02  0.17030288450E+03  0.12509000000E+03 0.  0.
         25    1    4    4    0    0  0.64070293301E+01  0.63807958133E+02  0.51296384915E+02  0.14963733742E+03  0.12509000000E+03 0.  0.
         25    1    4    4    0    0  0.30680384390E+01  0.48957014621E+02 -0.29223176622E+02  0.13750528823E+03  0.12509000000E+03 0.  0.
<mgrwt>
<rscale>  2 0.45517484E+03</rscale>
<asrwt>0</asrwt>
<pdfrwt beam="1">  1       21 0.36982909E-01 0.45517484E+03</pdfrwt>
<pdfrwt beam="2">  1       21 0.30288489E-01 0.45517484E+03</pdfrwt>
<totfact> 0.68271709E+04</totfact>
</mgrwt>
</event>
<event>
 7    0  0.4714446E-002  0.4565281E+03  0.7546771E-02  0.1025793E+00
         21   -1    0    0  502  501  0.00000000000E+00  0.00000000000E+00  0.33060879145E+02  0.33060879145E+02  0.00000000000E+00 0. -1.
         21   -1    0    0  501  502 -0.00000000000E+00 -0.00000000000E+00 -0.15760160895E+04  0.15760160895E+04  0.00000000000E+00 0. -1.
      99926    2    1    2    0    0 -0.14210854715E-13  0.00000000000E+00 -0.15429552104E+04  0.16090769687E+04  0.45652810413E+03 0.  0.
      99925    2    3    3    0    0  0.80689226995E+02  0.50193049300E+02 -0.11950952390E+04  0.12273910227E+04  0.26307033053E+03 0.  0.
         25    1    4    4    0    0  0.81473322875E+02  0.18412749792E+02 -0.66774406460E+03  0.68447540176E+03  0.12509000000E+03 0.  0.
         25    1    4    4    0    0 -0.78409588032E+00  0.31780299507E+02 -0.52735117439E+03  0.54291562096E+03  0.12509000000E+03 0.  0.
         25    1    3    3    0    0 -0.80689226995E+02 -0.50193049300E+02 -0.34785997136E+03  0.38168594594E+03  0.12509000000E+03 0.  0.
<mgrwt>
<rscale>  2 0.45652810E+03</rscale>
<asrwt>0</asrwt>
<pdfrwt beam="1">  1       21 0.48618944E-02 0.45652810E+03</pdfrwt>
<pdfrwt beam="2">  1       21 0.23176705E+00 0.45652810E+03</pdfrwt>
<totfact> 0.20975460E+04</totfact>
</mgrwt>
</event>
<event>
 7    0  0.4714446E-002  0.4606493E+03  0.7546771E-02  0.1024593E+00
         21   -1    0    0  502  501  0.00000000000E+00  0.00000000000E+00  0.28932520890E+03  0.28932520890E+03  0.00000000000E+00 0.  1.
         21   -1    0    0  501  502 -0.00000000000E+00 -0.00000000000E+00 -0.18335575351E+03  0.18335575351E+03  0.00000000000E+00 0.  1.
      99926    2    1    2    0    0  0.00000000000E+00  0.71054273576E-14  0.10596945540E+03  0.47268096241E+03  0.46064928823E+03 0.  0.
      99925    2    3    3    0    0 -0.84663619498E+02 -0.41364950548E+02 -0.72010700230E+01  0.27946071626E+03  0.26299705116E+03 0.  0.
         25    1    4    4    0    0 -0.67464568790E+02 -0.19819210912E+02 -0.36485227020E+02  0.14806400323E+03  0.12509000000E+03 0.  0.
         25    1    4    4    0    0 -0.17199050708E+02 -0.21545739636E+02  0.29284156997E+02  0.13139671302E+03  0.12509000000E+03 0.  0.
         25    1    3    3    0    0  0.84663619498E+02  0.41364950548E+02  0.11317052542E+03  0.19322024615E+03  0.12509000000E+03 0.  0.
<mgrwt>
<rscale>  2 0.46064929E+03</rscale>
<asrwt>0</asrwt>
<pdfrwt beam="1">  1       21 0.42547825E-01 0.46064929E+03</pdfrwt>
<pdfrwt beam="2">  1       21 0.26964081E-01 0.46064929E+03</pdfrwt>
<totfact> 0.64306510E+04</totfact>
</mgrwt>
</event>
<event>
 7    0  0.4714446E-002  0.4546905E+03  0.7546771E-02  0.1026332E+00
         21   -1    0    0  502  501  0.00000000000E+00  0.00000000000E+00  0.25212988312E+03  0.25212988312E+03  0.00000000000E+00 0.  1.
         21   -1    0    0  501  502 -0.00000000000E+00 -0.00000000000E+00 -0.20499699868E+03  0.20499699868E+03  0.00000000000E+00 0.  1.
      99926    2    1    2    0    0  0.00000000000E+00  0.00000000000E+00  0.47132884444E+02  0.45712688179E+03  0.45469052911E+03 0.  0.
      99925    2    3    3    0    0  0.93004795788E+02  0.60325976703E+02  0.83863171453E+01  0.28555205823E+03  0.26302192330E+03 0.  0.
         25    1    3    3    0    0 -0.93004795788E+02 -0.60325976703E+02  0.38746567298E+02  0.17157482357E+03  0.12509000000E+03 0.  0.
         25    1    4    4    0    0  0.68209678261E+02  0.12145111681E+02  0.33669015159E+02  0.14690532539E+03  0.12509000000E+03 0.  0.
         25    1    4    4    0    0  0.24795117527E+02  0.48180865022E+02 -0.25282698014E+02  0.13864673284E+03  0.12509000000E+03 0.  0.
<mgrwt>
<rscale>  2 0.45469053E+03</rscale>
<asrwt>0</asrwt>
<pdfrwt beam="1">  1       21 0.37077924E-01 0.45469053E+03</pdfrwt>
<pdfrwt beam="2">  1       21 0.30146617E-01 0.45469053E+03</pdfrwt>
<totfact> 0.68559361E+04</totfact>
</mgrwt>
</event>
<event>
 7    0  0.4714446E-002  0.4584361E+03  0.7546771E-02  0.1025236E+00
         21   -1    0    0  502  501  0.00000000000E+00  0.00000000000E+00  0.31610671397E+03  0.31610671397E+03  0.00000000000E+00 0.  1.
         21   -1    0    0  501  502 -0.00000000000E+00 -0.00000000000E+00 -0.16621256382E+03  0.16621256382E+03  0.00000000000E+00 0.  1.
      99926    2    1    2    0    0 -0.14210854715E-13  0.00000000000E+00  0.14989415015E+03  0.48231927780E+03  0.45843606914E+03 0.  0.
      99925    2    3    3    0    0 -0.81232769384E+02  0.28358627621E+02  0.11733029583E+02  0.27704147111E+03  0.26308047847E+03 0.  0.
         25    1    4    4    0    0 -0.59146372265E+02  0.43756269637E+02  0.28804203951E+02  0.14795301535E+03  0.12509000000E+03 0.  0.
         25    1    4    4    0    0 -0.22086397119E+02 -0.15397642016E+02 -0.17071174368E+02  0.12908845576E+03  0.12509000000E+03 0.  0.
         25    1    3    3    0    0  0.81232769384E+02 -0.28358627621E+02  0.13816112056E+03  0.20527780669E+03  0.12509000000E+03 0.  0.
<mgrwt>
<rscale>  2 0.45843607E+03</rscale>
<asrwt>0</asrwt>
<pdfrwt beam="1">  1       21 0.46486281E-01 0.45843607E+03</pdfrwt>
<pdfrwt beam="2">  1       21 0.24443024E-01 0.45843607E+03</pdfrwt>
<totfact> 0.64747637E+04</totfact>
</mgrwt>
</event>
<event>
 7    0  0.4714446E-002  0.4555723E+03  0.7546771E-02  0.1026073E+00
         21   -1    0    0  502  501  0.00000000000E+00  0.00000000000E+00  0.54073008846E+03  0.54073008846E+03  0.00000000000E+00 0. -1.
         21   -1    0    0  501  502 -0.00000000000E+00 -0.00000000000E+00 -0.95956418562E+02  0.95956418562E+02  0.00000000000E+00 0. -1.
      99926    2    1    2    0    0 -0.53290705182E-14  0.00000000000E+00  0.44477366990E+03  0.63668650702E+03  0.45557226736E+03 0.  0.
      99925    2    3    3    0    0  0.81575405397E+01 -0.80362437622E+02  0.16768914666E+03  0.32212648419E+03  0.26290902430E+03 0.  0.
         25    1    4    4    0    0 -0.35354938971E+02 -0.37133297184E+02  0.92575940861E+02  0.16384952364E+03  0.12509000000E+03 0.  0.
         25    1    3    3    0    0 -0.81575405397E+01  0.80362437622E+02  0.27708452324E+03  0.31456002284E+03  0.12509000000E+03 0.  0.
         25    1    4    4    0    0  0.43512479511E+02 -0.43229140438E+02  0.75113205799E+02  0.15827696055E+03  0.12509000000E+03 0.  0.
<mgrwt>
<rscale>  2 0.45557227E+03</rscale>
<asrwt>0</asrwt>
<pdfrwt beam="1">  1       21 0.79519129E-01 0.45557227E+03</pdfrwt>
<pdfrwt beam="2">  1       21 0.14111238E-01 0.45557227E+03</pdfrwt>
<totfact> 0.56220716E+04</totfact>
</mgrwt>
</event>
<event>
 7    0  0.4714446E-002  0.4526655E+03  0.7546771E-02  0.1026930E+00
         21   -1    0    0  502  501  0.00000000000E+00  0.00000000000E+00  0.33438046340E+02  0.33438046340E+02  0.00000000000E+00 0. -1.
         21   -1    0    0  501  502 -0.00000000000E+00 -0.00000000000E+00 -0.15319829365E+04  0.15319829365E+04  0.00000000000E+00 0. -1.
      99926    2    1    2    0    0  0.71054273576E-14  0.00000000000E+00 -0.14985448902E+04  0.15654209828E+04  0.45266551193E+03 0.  0.
      99925    2    3    3    0    0  0.45580671803E+02 -0.81797900125E+02 -0.73919308128E+03  0.79015898077E+03  0.26301389577E+03 0.  0.
         25    1    3    3    0    0 -0.45580671803E+02  0.81797900125E+02 -0.75935180888E+03  0.77526200207E+03  0.12509000000E+03 0.  0.
         25    1    4    4    0    0 -0.14416163864E+02 -0.39753222262E+02 -0.40181053794E+03  0.42295077841E+03  0.12509000000E+03 0.  0.
         25    1    4    4    0    0  0.59996835667E+02 -0.42044677862E+02 -0.33738254334E+03  0.36720820235E+03  0.12509000000E+03 0.  0.
<mgrwt>
<rscale>  2 0.45266551E+03</rscale>
<asrwt>0</asrwt>
<pdfrwt beam="1">  1       21 0.49173602E-02 0.45266551E+03</pdfrwt>
<pdfrwt beam="2">  1       21 0.22529159E+00 0.45266551E+03</pdfrwt>
<totfact> 0.22627836E+04</totfact>
</mgrwt>
</event>
<event>
 7    0  0.4714446E-002  0.4384530E+03  0.7546771E-02  0.1031223E+00
         21   -1    0    0  502  501  0.00000000000E+00  0.00000000000E+00  0.30872855230E+03  0.30872855230E+03  0.00000000000E+00 0. -1.
         21   -1    0    0  501  502 -0.00000000000E+00 -0.00000000000E+00 -0.15567158952E+03  0.15567158952E+03  0.00000000000E+00 0. -1.
      99926    2    1    2    0    0  0.00000000000E+00  0.00000000000E+00  0.15305696277E+03  0.46440014182E+03  0.43845302812E+03 0.  0.
      99925    2    3    3    0    0  0.88096268259E+02  0.42527366219E+01  0.14011047600E+03  0.31079624255E+03  0.26302912510E+03 0.  0.
         25    1    3    3    0    0 -0.88096268259E+02 -0.42527366219E+01  0.12946486767E+02  0.15360389927E+03  0.12509000000E+03 0.  0.
         25    1    4    4    0    0  0.70312203264E+02  0.98505440872E+01  0.10923050983E+03  0.18060911252E+03  0.12509000000E+03 0.  0.
         25    1    4    4    0    0  0.17784064995E+02 -0.55978074652E+01  0.30879966172E+02  0.13018713004E+03  0.12509000000E+03 0.  0.
<mgrwt>
<rscale>  2 0.43845303E+03</rscale>
<asrwt>0</asrwt>
<pdfrwt beam="1">  1       21 0.45401257E-01 0.43845303E+03</pdfrwt>
<pdfrwt beam="2">  1       21 0.22892881E-01 0.43845303E+03</pdfrwt>
<totfact> 0.77547431E+04</totfact>
</mgrwt>
</event>
<event>
 7    0  0.4714446E-002  0.4535140E+03  0.7546771E-02  0.1026679E+00
         21   -1    0    0  502  501  0.00000000000E+00  0.00000000000E+00  0.16012024205E+03  0.16012024205E+03  0.00000000000E+00 0.  1.
         21   -1    0    0  501  502 -0.00000000000E+00 -0.00000000000E+00 -0.32112578001E+03  0.32112578001E+03  0.00000000000E+00 0.  1.
      99926    2    1    2    0    0  0.35527136788E-14  0.00000000000E+00 -0.16100553796E+03  0.48124602206E+03  0.45351400253E+03 0.  0.
      99925    2    3    3    0    0  0.30544107547E+02  0.88614903284E+02 -0.36748112013E+02  0.28156387565E+03  0.26294913718E+03 0.  0.
         25    1    3    3    0    0 -0.30544107547E+02 -0.88614903284E+02 -0.12425742595E+03  0.19968214641E+03  0.12509000000E+03 0.  0.
         25    1    4    4    0    0  0.42404803376E+02  0.20842294528E+02  0.16517300456E+01  0.13372660507E+03  0.12509000000E+03 0.  0.
         25    1    4    4    0    0 -0.11860695830E+02  0.67772608756E+02 -0.38399842058E+02  0.14783727058E+03  0.12509000000E+03 0.  0.
<mgrwt>
<rscale>  2 0.45351400E+03</rscale>
<asrwt>0</asrwt>
<pdfrwt beam="1">  1       21 0.23547094E-01 0.45351400E+03</pdfrwt>
<pdfrwt beam="2">  1       21 0.47224379E-01 0.45351400E+03</pdfrwt>
<totfact> 0.67401053E+04</totfact>
</mgrwt>
</event>
<event>
 7    0  0.4714446E-002  0.4297108E+03  0.7546771E-02  0.1033951E+00
         21   -1    0    0  502  501  0.00000000000E+00  0.00000000000E+00  0.40873362098E+02  0.40873362098E+02  0.00000000000E+00 0. -1.
         21   -1    0    0  501  502 -0.00000000000E+00 -0.00000000000E+00 -0.11294114567E+04  0.11294114567E+04  0.00000000000E+00 0. -1.
      99926    2    1    2    0    0 -0.71054273576E-14 -0.71054273576E-14 -0.10885380946E+04  0.11702848188E+04  0.42971080241E+03 0.  0.
      99925    2    3    3    0    0 -0.52163439470E+02 -0.45130522416E+02 -0.84794835788E+03  0.89048360724E+03  0.26303393063E+03 0.  0.
         25    1    4    4    0    0 -0.36180388420E+02  0.12781118185E+02 -0.35375974151E+03  0.37718144215E+03  0.12509000000E+03 0.  0.
         25    1    4    4    0    0 -0.15983051050E+02 -0.57911640601E+02 -0.49418861637E+03  0.51330216509E+03  0.12509000000E+03 0.  0.
         25    1    3    3    0    0  0.52163439470E+02  0.45130522416E+02 -0.24058973669E+03  0.27980121153E+03  0.12509000000E+03 0.  0.
<mgrwt>
<rscale>  2 0.42971080E+03</rscale>
<asrwt>0</asrwt>
<pdfrwt beam="1">  1       21 0.60107883E-02 0.42971080E+03</pdfrwt>
<pdfrwt beam="2">  1       21 0.16608993E+00 0.42971080E+03</pdfrwt>
<totfact> 0.40528163E+04</totfact>
</mgrwt>
</event>
<event>
 7    0  0.4714446E-002  0.4568622E+03  0.7546771E-02  0.1025695E+00
         21   -1    0    0  502  501  0.00000000000E+00  0.00000000000E+00  0.67118719182E+02  0.67118719182E+02  0.00000000000E+00 0.  1.
         21   -1    0    0  501  502 -0.00000000000E+00 -0.00000000000E+00 -0.77743969253E+03  0.77743969253E+03  0.00000000000E+00 0.  1.
      99926    2    1    2    0    0  0.00000000000E+00  0.00000000000E+00 -0.71032097335E+03  0.84455841171E+03  0.45686215165E+03 0.  0.
      99925    2    3    3    0    0  0.51139610301E+02 -0.97683881405E+02 -0.38623990470E+03  0.48009517957E+03  0.26296904197E+03 0.  0.
         25    1    4    4    0    0  0.59896904439E+02 -0.36851684336E+02 -0.16564757549E+03  0.21916275497E+03  0.12509000000E+03 0.  0.
         25    1    4    4    0    0 -0.87572941375E+01 -0.60832197069E+02 -0.22059232921E+03  0.26093242460E+03  0.12509000000E+03 0.  0.
         25    1    3    3    0    0 -0.51139610301E+02  0.97683881405E+02 -0.32408106865E+03  0.36446323214E+03  0.12509000000E+03 0.  0.
<mgrwt>
<rscale>  2 0.45686215E+03</rscale>
<asrwt>0</asrwt>
<pdfrwt beam="1">  1       21 0.98703997E-02 0.45686215E+03</pdfrwt>
<pdfrwt beam="2">  1       21 0.11432937E+00 0.45686215E+03</pdfrwt>
<totfact> 0.45022457E+04</totfact>
</mgrwt>
</event>
<event>
 7    0  0.4714446E-002  0.4541156E+03  0.7546771E-02  0.1026502E+00
         21   -1    0    0  502  501  0.00000000000E+00  0.00000000000E+00  0.42029629228E+03  0.42029629228E+03  0.00000000000E+00 0. -1.
         21   -1    0    0  501  502 -0.00000000000E+00 -0.00000000000E+00 -0.12266406233E+03  0.12266406233E+03  0.00000000000E+00 0. -1.
      99926    2    1    2    0    0  0.00000000000E+00  0.35527136788E-14  0.29763222995E+03  0.54296035461E+03  0.45411562665E+03 0.  0.
      99925    2    3    3    0    0  0.24454433838E+02 -0.26025934100E+02  0.60144839724E+02  0.27217790097E+03  0.26303619418E+03 0.  0.
         25    1    4    4    0    0  0.47212008232E+02 -0.20849553509E+02  0.10986834541E+02  0.13576411984E+03  0.12509000000E+03 0.  0.
         25    1    3    3    0    0 -0.24454433838E+02  0.26025934100E+02  0.23748739023E+03  0.27078245364E+03  0.12509000000E+03 0.  0.
         25    1    4    4    0    0 -0.22757574394E+02 -0.51763805907E+01  0.49158005182E+02  0.13641378113E+03  0.12509000000E+03 0.  0.
<mgrwt>
<rscale>  2 0.45411563E+03</rscale>
<asrwt>0</asrwt>
<pdfrwt beam="1">  1       21 0.61808278E-01 0.45411563E+03</pdfrwt>
<pdfrwt beam="2">  1       21 0.18038833E-01 0.45411563E+03</pdfrwt>
<totfact> 0.62772257E+04</totfact>
</mgrwt>
</event>
<event>
 7    0  0.4714446E-002  0.4509802E+03  0.7546771E-02  0.1027430E+00
         21   -1    0    0  502  501  0.00000000000E+00  0.00000000000E+00  0.16654234002E+02  0.16654234002E+02  0.00000000000E+00 0. -1.
         21   -1    0    0  501  502 -0.00000000000E+00 -0.00000000000E+00 -0.30530252021E+04  0.30530252021E+04  0.00000000000E+00 0. -1.
      99926    2    1    2    0    0 -0.14210854715E-13  0.35527136788E-14 -0.30363709681E+04  0.30696794362E+04  0.45098024848E+03 0.  0.
      99925    2    3    3    0    0 -0.76313713117E+02  0.29352777672E+02 -0.24081601952E+04  0.24239382715E+04  0.26373443076E+03 0.  0.
         25    1    3    3    0    0  0.76313713117E+02 -0.29352777672E+02 -0.62821077292E+03  0.64574116462E+03  0.12509000000E+03 0.  0.
         25    1    4    4    0    0 -0.53221650567E+02  0.47913975098E+02 -0.14613249023E+04  0.14684162460E+04  0.12509000000E+03 0.  0.
         25    1    4    4    0    0 -0.23092062551E+02 -0.18561197426E+02 -0.94683529289E+03  0.95552202558E+03  0.12509000000E+03 0.  0.
<mgrwt>
<rscale>  2 0.45098025E+03</rscale>
<asrwt>0</asrwt>
<pdfrwt beam="1">  1       21 0.24491555E-02 0.45098025E+03</pdfrwt>
<pdfrwt beam="2">  1       21 0.44897367E+00 0.45098025E+03</pdfrwt>
<totfact> 0.29697390E+03</totfact>
</mgrwt>
</event>
<event>
 7    0  0.4714446E-002  0.4303070E+03  0.7546771E-02  0.1033763E+00
         21   -1    0    0  502  501  0.00000000000E+00  0.00000000000E+00  0.16384562586E+03  0.16384562586E+03  0.00000000000E+00 0. -1.
         21   -1    0    0  501  502 -0.00000000000E+00 -0.00000000000E+00 -0.28252836237E+03  0.28252836237E+03  0.00000000000E+00 0. -1.
      99926    2    1    2    0    0 -0.17763568394E-14  0.00000000000E+00 -0.11868273651E+03  0.44637398822E+03  0.43030703622E+03 0.  0.
      99925    2    3    3    0    0 -0.15263509556E+02  0.71184531116E+02 -0.12779119308E+03  0.30135438860E+03  0.26302788123E+03 0.  0.
         25    1    4    4    0    0 -0.32635839060E+02  0.66142614597E+01 -0.77442073432E+02  0.15084306177E+03  0.12509000000E+03 0.  0.
         25    1    4    4    0    0  0.17372329504E+02  0.64570269656E+02 -0.50349119648E+02  0.15051132683E+03  0.12509000000E+03 0.  0.
         25    1    3    3    0    0  0.15263509556E+02 -0.71184531116E+02  0.91084565684E+01  0.14501959962E+03  0.12509000000E+03 0.  0.
<mgrwt>
<rscale>  2 0.43030704E+03</rscale>
<asrwt>0</asrwt>
<pdfrwt beam="1">  1       21 0.24094945E-01 0.43030704E+03</pdfrwt>
<pdfrwt beam="2">  1       21 0.41548289E-01 0.43030704E+03</pdfrwt>
<totfact> 0.84635944E+04</totfact>
</mgrwt>
</event>
<event>
 7    0  0.4714446E-002  0.4539451E+03  0.7546771E-02  0.1026552E+00
         21   -1    0    0  502  501  0.00000000000E+00  0.00000000000E+00  0.29419337521E+03  0.29419337521E+03  0.00000000000E+00 0.  1.
         21   -1    0    0  501  502 -0.00000000000E+00 -0.00000000000E+00 -0.17511111207E+03  0.17511111207E+03  0.00000000000E+00 0.  1.
      99926    2    1    2    0    0  0.00000000000E+00  0.00000000000E+00  0.11908226313E+03  0.46930448728E+03  0.45394505877E+03 0.  0.
      99925    2    3    3    0    0 -0.41114390211E+02 -0.87607281928E+02  0.13365030048E+03  0.31048016691E+03  0.26300209561E+03 0.  0.
         25    1    4    4    0    0 -0.58196614923E+02 -0.32175217110E+02  0.56834211367E+02  0.15264247858E+03  0.12509000000E+03 0.  0.
         25    1    4    4    0    0  0.17082224712E+02 -0.55432064818E+02  0.76816089109E+02  0.15783768833E+03  0.12509000000E+03 0.  0.
         25    1    3    3    0    0  0.41114390211E+02  0.87607281928E+02 -0.14568037343E+02  0.15882432037E+03  0.12509000000E+03 0.  0.
<mgrwt>
<rscale>  2 0.45394506E+03</rscale>
<asrwt>0</asrwt>
<pdfrwt beam="1">  1       21 0.43263731E-01 0.45394506E+03</pdfrwt>
<pdfrwt beam="2">  1       21 0.25751634E-01 0.45394506E+03</pdfrwt>
<totfact> 0.68055242E+04</totfact>
</mgrwt>
</event>
<event>
 7    0  0.4714446E-002  0.4514343E+03  0.7546771E-02  0.1027295E+00
         21   -1    0    0  502  501  0.00000000000E+00  0.00000000000E+00  0.52271187461E+02  0.52271187461E+02  0.00000000000E+00 0.  1.
         21   -1    0    0  501  502 -0.00000000000E+00 -0.00000000000E+00 -0.97469073182E+03  0.97469073182E+03  0.00000000000E+00 0.  1.
      99926    2    1    2    0    0  0.00000000000E+00 -0.35527136788E-14 -0.92241954435E+03  0.10269619193E+04  0.45143434499E+03 0.  0.
      99925    2    3    3    0    0 -0.73309822083E+02 -0.25788537557E+02 -0.75969213543E+03  0.80749188397E+03  0.26243403620E+03 0.  0.
         25    1    4    4    0    0 -0.99184090568E+01 -0.42221059568E+02 -0.35627323657E+03  0.38007778139E+03  0.12509000000E+03 0.  0.
         25    1    4    4    0    0 -0.63391413026E+02  0.16432522011E+02 -0.40341889886E+03  0.42741410258E+03  0.12509000000E+03 0.  0.
         25    1    3    3    0    0  0.73309822083E+02  0.25788537557E+02 -0.16272740892E+03  0.21947003531E+03  0.12509000000E+03 0.  0.
<mgrwt>
<rscale>  2 0.45143434E+03</rscale>
<asrwt>0</asrwt>
<pdfrwt beam="1">  1       21 0.76869397E-02 0.45143434E+03</pdfrwt>
<pdfrwt beam="2">  1       21 0.14333687E+00 0.45143434E+03</pdfrwt>
<totfact> 0.39214572E+04</totfact>
</mgrwt>
</event>
<event>
 7    0  0.4714446E-002  0.4607584E+03  0.7546771E-02  0.1024561E+00
         21   -1    0    0  502  501  0.00000000000E+00  0.00000000000E+00  0.90522795982E+02  0.90522795982E+02  0.00000000000E+00 0. -1.
         21   -1    0    0  501  502 -0.00000000000E+00 -0.00000000000E+00 -0.58631181101E+03  0.58631181101E+03  0.00000000000E+00 0. -1.
      99926    2    1    2    0    0  0.00000000000E+00  0.14210854715E-13 -0.49578901503E+03  0.67683460699E+03  0.46075843758E+03 0.  0.
      99925    2    3    3    0    0 -0.44841846402E+02 -0.10461462382E+03 -0.36014969680E+03  0.46003851972E+03  0.26262639779E+03 0.  0.
         25    1    4    4    0    0 -0.20033620300E+02 -0.88636082152E+02 -0.22989728352E+03  0.27705228761E+03  0.12509000000E+03 0.  0.
         25    1    3    3    0    0  0.44841846402E+02  0.10461462382E+03 -0.13563931823E+03  0.21679608727E+03  0.12509000000E+03 0.  0.
         25    1    4    4    0    0 -0.24808226102E+02 -0.15978541672E+02 -0.13025241329E+03  0.18298623211E+03  0.12509000000E+03 0.  0.
<mgrwt>
<rscale>  2 0.46075844E+03</rscale>
<asrwt>0</asrwt>
<pdfrwt beam="1">  1       21 0.13312176E-01 0.46075844E+03</pdfrwt>
<pdfrwt beam="2">  1       21 0.86222325E-01 0.46075844E+03</pdfrwt>
<totfact> 0.51788547E+04</totfact>
</mgrwt>
</event>
<event>
 7    0  0.4714446E-002  0.4610307E+03  0.7546771E-02  0.1024483E+00
         21   -1    0    0  502  501  0.00000000000E+00  0.00000000000E+00  0.13175320326E+03  0.13175320326E+03  0.00000000000E+00 0.  1.
         21   -1    0    0  501  502 -0.00000000000E+00 -0.00000000000E+00 -0.40330948216E+03  0.40330948216E+03  0.00000000000E+00 0.  1.
      99926    2    1    2    0    0 -0.14210854715E-13  0.00000000000E+00 -0.27155627891E+03  0.53506268542E+03  0.46103065485E+03 0.  0.
      99925    2    3    3    0    0 -0.67276522908E+02 -0.47503802109E+02 -0.26921046068E+03  0.38527699614E+03  0.26302347778E+03 0.  0.
         25    1    4    4    0    0 -0.73926665897E+02 -0.35615783560E+02 -0.13921417337E+03  0.20435686956E+03  0.12509000000E+03 0.  0.
         25    1    4    4    0    0  0.66501429890E+01 -0.11888018549E+02 -0.12999628732E+03  0.18092012658E+03  0.12509000000E+03 0.  0.
         25    1    3    3    0    0  0.67276522908E+02  0.47503802109E+02 -0.23458182234E+01  0.14978568928E+03  0.12509000000E+03 0.  0.
<mgrwt>
<rscale>  2 0.46103065E+03</rscale>
<asrwt>0</asrwt>
<pdfrwt beam="1">  1       21 0.19375471E-01 0.46103065E+03</pdfrwt>
<pdfrwt beam="2">  1       21 0.59310218E-01 0.46103065E+03</pdfrwt>
<totfact> 0.59948098E+04</totfact>
</mgrwt>
</event>
<event>
 6    0  0.4714446E-002  0.4541785E+03  0.7546771E-02  0.1026483E+00
         21   -1    0    0  502  501  0.00000000000E+00  0.00000000000E+00  0.95524077630E+03  0.95524077630E+03  0.00000000000E+00 0. -1.
         21   -1    0    0  501  502 -0.00000000000E+00 -0.00000000000E+00 -0.53985894693E+02  0.53985894693E+02  0.00000000000E+00 0. -1.
      99926    2    1    2    0    0 -0.71054273576E-14  0.00000000000E+00  0.90125488161E+03  0.10092266710E+04  0.45417850216E+03 0.  0.
         25    1    3    3    0    0  0.12361318234E+02 -0.26270545025E+02  0.23272167828E+03  0.26580035998E+03  0.12509000000E+03 0.  0.
         25    1    3    3    0    0  0.61406756223E+02  0.82972500689E+02  0.41785459342E+03  0.44822449166E+03  0.12509000000E+03 0.  0.
         25    1    3    3    0    0 -0.73768074457E+02 -0.56701955664E+02  0.25067860991E+03  0.29520181936E+03  0.12509000000E+03 0.  0.
<mgrwt>
<rscale>  2 0.45417850E+03</rscale>
<asrwt>0</asrwt>
<pdfrwt beam="1">  1       21 0.14047657E+00 0.45417850E+03</pdfrwt>
<pdfrwt beam="2">  1       21 0.79391027E-02 0.45417850E+03</pdfrwt>
<totfact> 0.39059782E+04</totfact>
</mgrwt>
</event>
<event>
 7    0  0.4714446E-002  0.4484547E+03  0.7546771E-02  0.1028184E+00
         21   -1    0    0  502  501  0.00000000000E+00  0.00000000000E+00  0.28613772747E+03  0.28613772747E+03  0.00000000000E+00 0.  1.
         21   -1    0    0  501  502 -0.00000000000E+00 -0.00000000000E+00 -0.17571228634E+03  0.17571228634E+03  0.00000000000E+00 0.  1.
      99926    2    1    2    0    0 -0.71054273576E-14  0.14210854715E-13  0.11042544112E+03  0.46185001381E+03  0.44845474377E+03 0.  0.
      99925    2    3    3    0    0  0.59629404782E+02 -0.78566013951E+02  0.27579736762E+02  0.28229722688E+03  0.26306424684E+03 0.  0.
         25    1    3    3    0    0 -0.59629404782E+02  0.78566013951E+02  0.82845704361E+02  0.17955278693E+03  0.12509000000E+03 0.  0.
         25    1    4    4    0    0  0.47794043115E+02 -0.77028127858E+02  0.25823894775E+02  0.15662689641E+03  0.12509000000E+03 0.  0.
         25    1    4    4    0    0  0.11835361667E+02 -0.15378860928E+01  0.17558419875E+01  0.12567033047E+03  0.12509000000E+03 0.  0.
<mgrwt>
<rscale>  2 0.44845474E+03</rscale>
<asrwt>0</asrwt>
<pdfrwt beam="1">  1       21 0.42079077E-01 0.44845474E+03</pdfrwt>
<pdfrwt beam="2">  1       21 0.25840042E-01 0.44845474E+03</pdfrwt>
<totfact> 0.71697580E+04</totfact>
</mgrwt>
</event>
<event>
 7    0  0.4714446E-002  0.4945834E+03  0.7546771E-02  0.1015202E+00
         21   -1    0    0  502  501  0.00000000000E+00  0.00000000000E+00  0.35173765689E+03  0.35173765689E+03  0.00000000000E+00 0.  1.
         21   -1    0    0  501  502 -0.00000000000E+00 -0.00000000000E+00 -0.17386022389E+03  0.17386022389E+03  0.00000000000E+00 0.  1.
      99926    2    1    2    0    0  0.00000000000E+00 -0.17763568394E-14  0.17787743300E+03  0.52559788079E+03  0.49458341169E+03 0.  0.
      99925    2    3    3    0    0 -0.10835728948E+03  0.10861654156E+02  0.21370002820E+03  0.35592158857E+03  0.26296995540E+03 0.  0.
         25    1    4    4    0    0 -0.77355274754E+02  0.37561133101E+02  0.13080804256E+03  0.20038195865E+03  0.12509000000E+03 0.  0.
         25    1    4    4    0    0 -0.31002014728E+02 -0.26699478944E+02  0.82891985633E+02  0.15553962992E+03  0.12509000000E+03 0.  0.
         25    1    3    3    0    0  0.10835728948E+03 -0.10861654156E+02 -0.35822595193E+02  0.16967629222E+03  0.12509000000E+03 0.  0.
<mgrwt>
<rscale>  2 0.49458341E+03</rscale>
<asrwt>0</asrwt>
<pdfrwt beam="1">  1       21 0.51726126E-01 0.49458341E+03</pdfrwt>
<pdfrwt beam="2">  1       21 0.25567680E-01 0.49458341E+03</pdfrwt>
<totfact> 0.46935379E+04</totfact>
</mgrwt>
</event>
<event>
 7    0  0.4714446E-002  0.4483854E+03  0.7546771E-02  0.1028205E+00
         21   -1    0    0  502  501  0.00000000000E+00  0.00000000000E+00  0.25163987993E+03  0.25163987993E+03  0.00000000000E+00 0. -1.
         21   -1    0    0  501  502 -0.00000000000E+00 -0.00000000000E+00 -0.19973930480E+03  0.19973930480E+03  0.00000000000E+00 0. -1.
      99926    2    1    2    0    0  0.71054273576E-14 -0.71054273576E-14  0.51900575125E+02  0.45137918473E+03  0.44838543543E+03 0.  0.
      99925    2    3    3    0    0 -0.54358439710E+02  0.61543007915E+02 -0.35970681854E+02  0.27785325671E+03  0.26299460170E+03 0.  0.
         25    1    3    3    0    0  0.54358439710E+02 -0.61543007915E+02  0.87871256979E+02  0.17352592802E+03  0.12509000000E+03 0.  0.
         25    1    4    4    0    0 -0.13730322160E+02  0.64840769365E+02 -0.39549223571E+00  0.14156451403E+03  0.12509000000E+03 0.  0.
         25    1    4    4    0    0 -0.40628117550E+02 -0.32977614500E+01 -0.35575189618E+02  0.13628874268E+03  0.12509000000E+03 0.  0.
<mgrwt>
<rscale>  2 0.44838544E+03</rscale>
<asrwt>0</asrwt>
<pdfrwt beam="1">  1       21 0.37005865E-01 0.44838544E+03</pdfrwt>
<pdfrwt beam="2">  1       21 0.29373427E-01 0.44838544E+03</pdfrwt>
<totfact> 0.72566432E+04</totfact>
</mgrwt>
</event>
<event>
 7    0  0.4714446E-002  0.4545318E+03  0.7546771E-02  0.1026379E+00
         21   -1    0    0  502  501  0.00000000000E+00  0.00000000000E+00  0.63078928125E+02  0.63078928125E+02  0.00000000000E+00 0. -1.
         21   -1    0    0  501  502 -0.00000000000E+00 -0.00000000000E+00 -0.81881195024E+03  0.81881195024E+03  0.00000000000E+00 0. -1.
      99926    2    1    2    0    0  0.71054273576E-14  0.14210854715E-13 -0.75573302212E+03  0.88189087837E+03  0.45453175976E+03 0.  0.
      99925    2    3    3    0    0 -0.37925106830E+02 -0.10234139002E+03 -0.53048810989E+03  0.60207870490E+03  0.26300011086E+03 0.  0.
         25    1    4    4    0    0  0.12005729722E+02 -0.77449786355E+02 -0.26491950222E+03  0.30326961224E+03  0.12509000000E+03 0.  0.
         25    1    4    4    0    0 -0.49930836552E+02 -0.24891603664E+02 -0.26556860768E+03  0.29880909266E+03  0.12509000000E+03 0.  0.
         25    1    3    3    0    0  0.37925106830E+02  0.10234139002E+03 -0.22524491222E+03  0.27981217347E+03  0.12509000000E+03 0.  0.
<mgrwt>
<rscale>  2 0.45453176E+03</rscale>
<asrwt>0</asrwt>
<pdfrwt beam="1">  1       21 0.92763137E-02 0.45453176E+03</pdfrwt>
<pdfrwt beam="2">  1       21 0.12041351E+00 0.45453176E+03</pdfrwt>
<totfact> 0.44187772E+04</totfact>
</mgrwt>
</event>
<event>
 7    0  0.4714446E-002  0.4493298E+03  0.7546771E-02  0.1027922E+00
         21   -1    0    0  502  501  0.00000000000E+00  0.00000000000E+00  0.43136554281E+03  0.43136554281E+03  0.00000000000E+00 0. -1.
         21   -1    0    0  501  502 -0.00000000000E+00 -0.00000000000E+00 -0.11701054016E+03  0.11701054016E+03  0.00000000000E+00 0. -1.
      99926    2    1    2    0    0  0.35527136788E-14  0.00000000000E+00  0.31435500265E+03  0.54837608298E+03  0.44932979057E+03 0.  0.
      99925    2    3    3    0    0  0.13869128612E+02  0.10488998170E+03  0.22376232476E+03  0.36116282924E+03  0.26301093181E+03 0.  0.
         25    1    4    4    0    0  0.42069052451E+02  0.38678710163E+02  0.89745324971E+02  0.16421808441E+03  0.12509000000E+03 0.  0.
         25    1    3    3    0    0 -0.13869128612E+02 -0.10488998170E+03  0.90592677887E+02  0.18721325374E+03  0.12509000000E+03 0.  0.
         25    1    4    4    0    0 -0.28199923840E+02  0.66211271532E+02  0.13401699979E+03  0.19694474483E+03  0.12509000000E+03 0.  0.
<mgrwt>
<rscale>  2 0.44932979E+03</rscale>
<asrwt>0</asrwt>
<pdfrwt beam="1">  1       21 0.63436109E-01 0.44932979E+03</pdfrwt>
<pdfrwt beam="2">  1       21 0.17207432E-01 0.44932979E+03</pdfrwt>
<totfact> 0.64834044E+04</totfact>
</mgrwt>
</event>
<event>
 7    0  0.4714446E-002  0.4529901E+03  0.7546771E-02  0.1026834E+00
         21   -1    0    0  502  501  0.00000000000E+00  0.00000000000E+00  0.36915019124E+02  0.36915019124E+02  0.00000000000E+00 0.  1.
         21   -1    0    0  501  502 -0.00000000000E+00 -0.00000000000E+00 -0.13896785626E+04  0.13896785626E+04  0.00000000000E+00 0.  1.
      99926    2    1    2    0    0  0.00000000000E+00  0.00000000000E+00 -0.13527635435E+04  0.14265935818E+04  0.45299011343E+03 0.  0.
      99925    2    3    3    0    0 -0.75725228386E+02  0.28493458534E+02 -0.10934940362E+04  0.11275712199E+04  0.26294763977E+03 0.  0.
         25    1    4    4    0    0 -0.32453647515E+02  0.46702237295E+02 -0.45730888591E+03  0.47750734386E+03  0.12509000000E+03 0.  0.
         25    1    3    3    0    0  0.75725228386E+02 -0.28493458534E+02 -0.25926950730E+03  0.29902236188E+03  0.12509000000E+03 0.  0.
         25    1    4    4    0    0 -0.43271580871E+02 -0.18208778761E+02 -0.63618515030E+03  0.65006387601E+03  0.12509000000E+03 0.  0.
<mgrwt>
<rscale>  2 0.45299011E+03</rscale>
<asrwt>0</asrwt>
<pdfrwt beam="1">  1       21 0.54286788E-02 0.45299011E+03</pdfrwt>
<pdfrwt beam="2">  1       21 0.20436451E+00 0.45299011E+03</pdfrwt>
<totfact> 0.26036135E+04</totfact>
</mgrwt>
</event>
<event>
 7    0  0.4714446E-002  0.4650715E+03  0.7546771E-02  0.1023321E+00
         21   -1    0    0  502  501  0.00000000000E+00  0.00000000000E+00  0.66407203654E+03  0.66407203654E+03  0.00000000000E+00 0.  1.
         21   -1    0    0  501  502 -0.00000000000E+00 -0.00000000000E+00 -0.81426217704E+02  0.81426217704E+02  0.00000000000E+00 0.  1.
      99926    2    1    2    0    0 -0.71054273576E-14  0.00000000000E+00  0.58264581883E+03  0.74549825424E+03  0.46507149652E+03 0.  0.
      99925    2    3    3    0    0 -0.41405754766E+02 -0.11425889657E+03  0.34080405688E+03  0.44732971482E+03  0.26303409780E+03 0.  0.
         25    1    3    3    0    0  0.41405754766E+02  0.11425889657E+03  0.24184176195E+03  0.29816853942E+03  0.12509000000E+03 0.  0.
         25    1    4    4    0    0 -0.53950760429E+02 -0.80349704782E+02  0.20848630469E+03  0.26168837756E+03  0.12509000000E+03 0.  0.
         25    1    4    4    0    0  0.12545005664E+02 -0.33909191788E+02  0.13231775219E+03  0.18564133726E+03  0.12509000000E+03 0.  0.
<mgrwt>
<rscale>  2 0.46507150E+03</rscale>
<asrwt>0</asrwt>
<pdfrwt beam="1">  1       21 0.97657650E-01 0.46507150E+03</pdfrwt>
<pdfrwt beam="2">  1       21 0.11974444E-01 0.46507150E+03</pdfrwt>
<totfact> 0.46693461E+04</totfact>
</mgrwt>
</event>
<event>
 7    0  0.4714446E-002  0.4592053E+03  0.7546771E-02  0.1025012E+00
         21   -1    0    0  502  501  0.00000000000E+00  0.00000000000E+00  0.64275090261E+03  0.64275090261E+03  0.00000000000E+00 0.  1.
         21   -1    0    0  501  502 -0.00000000000E+00 -0.00000000000E+00 -0.82018364781E+02  0.82018364781E+02  0.00000000000E+00 0.  1.
      99926    2    1    2    0    0 -0.71054273576E-14  0.00000000000E+00  0.56073253783E+03  0.72476926739E+03  0.45920530482E+03 0.  0.
      99925    2    3    3    0    0 -0.63348557681E+02 -0.51286363219E+02  0.48419311808E+03  0.55699226751E+03  0.26297163281E+03 0.  0.
         25    1    4    4    0    0  0.54404071303E+01 -0.41159822720E+02  0.21720316451E+03  0.25406387348E+03  0.12509000000E+03 0.  0.
         25    1    3    3    0    0  0.63348557681E+02  0.51286363219E+02  0.76539419750E+02  0.16777699988E+03  0.12509000000E+03 0.  0.
         25    1    4    4    0    0 -0.68788964811E+02 -0.10126540499E+02  0.26698995357E+03  0.30292839403E+03  0.12509000000E+03 0.  0.
<mgrwt>
<rscale>  2 0.45920530E+03</rscale>
<asrwt>0</asrwt>
<pdfrwt beam="1">  1       21 0.94522189E-01 0.45920530E+03</pdfrwt>
<pdfrwt beam="2">  1       21 0.12061525E-01 0.45920530E+03</pdfrwt>
<totfact> 0.49907534E+04</totfact>
</mgrwt>
</event>
<event>
 7    0  0.4714446E-002  0.4494633E+03  0.7546771E-02  0.1027882E+00
         21   -1    0    0  502  501  0.00000000000E+00  0.00000000000E+00  0.79938647077E+03  0.79938647077E+03  0.00000000000E+00 0.  1.
         21   -1    0    0  501  502 -0.00000000000E+00 -0.00000000000E+00 -0.63178852159E+02  0.63178852159E+02  0.00000000000E+00 0.  1.
      99926    2    1    2    0    0  0.00000000000E+00  0.00000000000E+00  0.73620761861E+03  0.86256532293E+03  0.44946332289E+03 0.  0.
      99925    2    3    3    0    0  0.13391332261E+02 -0.67871455723E+02  0.30677434416E+03  0.40996582272E+03  0.26301257629E+03 0.  0.
         25    1    4    4    0    0  0.83994790095E+00 -0.13274244707E+02  0.19978746424E+03  0.23609203725E+03  0.12509000000E+03 0.  0.
         25    1    3    3    0    0 -0.13391332261E+02  0.67871455723E+02  0.42943327445E+03  0.45259950021E+03  0.12509000000E+03 0.  0.
         25    1    4    4    0    0  0.12551384361E+02 -0.54597211016E+02  0.10698687992E+03  0.17387378547E+03  0.12509000000E+03 0.  0.
<mgrwt>
<rscale>  2 0.44946332E+03</rscale>
<asrwt>0</asrwt>
<pdfrwt beam="1">  1       21 0.11755683E+00 0.44946332E+03</pdfrwt>
<pdfrwt beam="2">  1       21 0.92910081E-02 0.44946332E+03</pdfrwt>
<totfact> 0.46885425E+04</totfact>
</mgrwt>
</event>
<event>
 7    0  0.4714446E-002  0.4555904E+03  0.7546771E-02  0.1026068E+00
         21   -1    0    0  502  501  0.00000000000E+00  0.00000000000E+00  0.50964670268E+02  0.50964670268E+02  0.00000000000E+00 0. -1.
         21   -1    0    0  501  502 -0.00000000000E+00 -0.00000000000E+00 -0.10181690998E+04  0.10181690998E+04  0.00000000000E+00 0. -1.
      99926    2    1    2    0    0  0.00000000000E+00  0.00000000000E+00 -0.96720442954E+03  0.10691337701E+04  0.45559039695E+03 0.  0.
      99925    2    3    3    0    0  0.12411445882E+02 -0.11276877488E+03 -0.58981225889E+03  0.65568099267E+03  0.26299852250E+03 0.  0.
         25    1    4    4    0    0 -0.13471579338E+02 -0.21354976143E+02 -0.30056327113E+03  0.32653224421E+03  0.12509000000E+03 0.  0.
         25    1    3    3    0    0 -0.12411445882E+02  0.11276877488E+03 -0.37739217065E+03  0.41345277740E+03  0.12509000000E+03 0.  0.
         25    1    4    4    0    0  0.25883025220E+02 -0.91413798733E+02 -0.28924898776E+03  0.32914874846E+03  0.12509000000E+03 0.  0.
<mgrwt>
<rscale>  2 0.45559040E+03</rscale>
<asrwt>0</asrwt>
<pdfrwt beam="1">  1       21 0.74948051E-02 0.45559040E+03</pdfrwt>
<pdfrwt beam="2">  1       21 0.14973074E+00 0.45559040E+03</pdfrwt>
<totfact> 0.36414999E+04</totfact>
</mgrwt>
</event>
<event>
 7    0  0.4714446E-002  0.4533502E+03  0.7546771E-02  0.1026728E+00
         21   -1    0    0  502  501  0.00000000000E+00  0.00000000000E+00  0.62931553985E+03  0.62931553985E+03  0.00000000000E+00 0. -1.
         21   -1    0    0  501  502 -0.00000000000E+00 -0.00000000000E+00 -0.81646816864E+02  0.81646816864E+02  0.00000000000E+00 0. -1.
      99926    2    1    2    0    0  0.88817841970E-15  0.00000000000E+00  0.54766872298E+03  0.71096235671E+03  0.45335024267E+03 0.  0.
      99925    2    3    3    0    0  0.63722726039E+01 -0.36722963588E+02  0.18006482797E+03  0.32087350319E+03  0.26295870563E+03 0.  0.
         25    1    4    4    0    0  0.23261673828E+02 -0.42730639941E+02  0.12361739930E+03  0.18247131985E+03  0.12509000000E+03 0.  0.
         25    1    4    4    0    0 -0.16889401224E+02  0.60076763527E+01  0.56447428668E+02  0.13840218334E+03  0.12509000000E+03 0.  0.
         25    1    3    3    0    0 -0.63722726039E+01  0.36722963588E+02  0.36760389501E+03  0.39008885352E+03  0.12509000000E+03 0.  0.
<mgrwt>
<rscale>  2 0.45335024E+03</rscale>
<asrwt>0</asrwt>
<pdfrwt beam="1">  1       21 0.92546400E-01 0.45335024E+03</pdfrwt>
<pdfrwt beam="2">  1       21 0.12006885E-01 0.45335024E+03</pdfrwt>
<totfact> 0.52996341E+04</totfact>
</mgrwt>
</event>
<event>
 7    0  0.4714446E-002  0.4687366E+03  0.7546771E-02  0.1022277E+00
         21   -1    0    0  502  501  0.00000000000E+00  0.00000000000E+00  0.16132508163E+04  0.16132508163E+04  0.00000000000E+00 0.  1.
         21   -1    0    0  501  502 -0.00000000000E+00 -0.00000000000E+00 -0.34048333954E+02  0.34048333954E+02  0.00000000000E+00 0.  1.
      99926    2    1    2    0    0 -0.35527136788E-14 -0.71054273576E-14  0.15792024823E+04  0.16472991502E+04  0.46873661067E+03 0.  0.
      99925    2    3    3    0    0  0.50608392172E+01  0.42641326838E+02  0.13968340108E+04  0.14220222931E+04  0.26297956865E+03 0.  0.
         25    1    4    4    0    0  0.30008535579E+02  0.20041727198E+02  0.54127701707E+03  0.55671402025E+03  0.12509000000E+03 0.  0.
         25    1    4    4    0    0 -0.24947696362E+02  0.22599599641E+02  0.85555699375E+03  0.86530827287E+03  0.12509000000E+03 0.  0.
         25    1    3    3    0    0 -0.50608392172E+01 -0.42641326838E+02  0.18236847151E+03  0.22527685711E+03  0.12509000000E+03 0.  0.
<mgrwt>
<rscale>  2 0.46873661E+03</rscale>
<asrwt>0</asrwt>
<pdfrwt beam="1">  1       21 0.23724272E+00 0.46873661E+03</pdfrwt>
<pdfrwt beam="2">  1       21 0.50071090E-02 0.46873661E+03</pdfrwt>
<totfact> 0.18345693E+04</totfact>
</mgrwt>
</event>
<event>
 7    0  0.4714446E-002  0.4589313E+03  0.7546771E-02  0.1025092E+00
         21   -1    0    0  502  501  0.00000000000E+00  0.00000000000E+00  0.16644312847E+03  0.16644312847E+03  0.00000000000E+00 0. -1.
         21   -1    0    0  501  502 -0.00000000000E+00 -0.00000000000E+00 -0.31635118089E+03  0.31635118089E+03  0.00000000000E+00 0. -1.
      99926    2    1    2    0    0  0.00000000000E+00  0.00000000000E+00 -0.14990805243E+03  0.48279430936E+03  0.45893128131E+03 0.  0.
      99925    2    3    3    0    0  0.63633002079E+02 -0.85800556943E+02 -0.14347862394E+03  0.31817432219E+03  0.26313093556E+03 0.  0.
         25    1    3    3    0    0 -0.63633002079E+02  0.85800556943E+02 -0.64294284868E+01  0.16461998717E+03  0.12509000000E+03 0.  0.
         25    1    4    4    0    0  0.18887073586E+02 -0.27688303035E+02 -0.10865195151E+03  0.16904472290E+03  0.12509000000E+03 0.  0.
         25    1    4    4    0    0  0.44745928493E+02 -0.58112253908E+02 -0.34826672429E+02  0.14912959929E+03  0.12509000000E+03 0.  0.
<mgrwt>
<rscale>  2 0.45893128E+03</rscale>
<asrwt>0</asrwt>
<pdfrwt beam="1">  1       21 0.24476931E-01 0.45893128E+03</pdfrwt>
<pdfrwt beam="2">  1       21 0.46522232E-01 0.45893128E+03</pdfrwt>
<totfact> 0.64462118E+04</totfact>
</mgrwt>
</event>
<event>
 7    0  0.4714446E-002  0.4510669E+03  0.7546771E-02  0.1027404E+00
         21   -1    0    0  502  501  0.00000000000E+00  0.00000000000E+00  0.20824420706E+04  0.20824420706E+04  0.00000000000E+00 0.  1.
         21   -1    0    0  501  502 -0.00000000000E+00 -0.00000000000E+00 -0.24425810869E+02  0.24425810869E+02  0.00000000000E+00 0.  1.
      99926    2    1    2    0    0  0.00000000000E+00  0.00000000000E+00  0.20580162597E+04  0.21068678814E+04  0.45106689598E+03 0.  0.
      99925    2    3    3    0    0  0.70155317260E+02  0.20505541955E+02  0.16802954459E+04  0.17023153298E+04  0.26294952106E+03 0.  0.
         25    1    4    4    0    0  0.54462495321E+01  0.20416854643E+02  0.96342168622E+03  0.97173832032E+03  0.12509000000E+03 0.  0.
         25    1    4    4    0    0  0.64709067728E+02  0.88687311588E-01  0.71687375971E+03  0.73057700948E+03  0.12509000000E+03 0.  0.
         25    1    3    3    0    0 -0.70155317260E+02 -0.20505541955E+02  0.37772081375E+03  0.40455255163E+03  0.12509000000E+03 0.  0.
<mgrwt>
<rscale>  2 0.45106690E+03</rscale>
<asrwt>0</asrwt>
<pdfrwt beam="1">  1       21 0.30624136E+00 0.45106690E+03</pdfrwt>
<pdfrwt beam="2">  1       21 0.35920324E-02 0.45106690E+03</pdfrwt>
<totfact> 0.12417191E+04</totfact>
</mgrwt>
</event>
<event>
 7    0  0.4714446E-002  0.4484289E+03  0.7546771E-02  0.1028192E+00
         21   -1    0    0  502  501  0.00000000000E+00  0.00000000000E+00  0.12395302666E+03  0.12395302666E+03  0.00000000000E+00 0. -1.
         21   -1    0    0  501  502 -0.00000000000E+00 -0.00000000000E+00 -0.40557403340E+03  0.40557403340E+03  0.00000000000E+00 0. -1.
      99926    2    1    2    0    0  0.17763568394E-14  0.00000000000E+00 -0.28162100674E+03  0.52952706006E+03  0.44842894186E+03 0.  0.
      99925    2    3    3    0    0  0.50642815596E+01  0.70007146630E+02 -0.27348034452E+03  0.38585929747E+03  0.26300047733E+03 0.  0.
         25    1    3    3    0    0 -0.50642815596E+01 -0.70007146630E+02 -0.81406622249E+01  0.14366776259E+03  0.12509000000E+03 0.  0.
         25    1    4    4    0    0 -0.18589490544E+02  0.21485910274E+02 -0.17836664535E+03  0.21970293983E+03  0.12509000000E+03 0.  0.
         25    1    4    4    0    0  0.23653772103E+02  0.48521236356E+02 -0.95113699173E+02  0.16615635764E+03  0.12509000000E+03 0.  0.
<mgrwt>
<rscale>  2 0.44842894E+03</rscale>
<asrwt>0</asrwt>
<pdfrwt beam="1">  1       21 0.18228386E-01 0.44842894E+03</pdfrwt>
<pdfrwt beam="2">  1       21 0.59643240E-01 0.44842894E+03</pdfrwt>
<totfact> 0.66639247E+04</totfact>
</mgrwt>
</event>
<event>
 7    0  0.4714446E-002  0.4517154E+03  0.7546771E-02  0.1027212E+00
         21   -1    0    0  502  501  0.00000000000E+00  0.00000000000E+00  0.50120151706E+02  0.50120151706E+02  0.00000000000E+00 0. -1.
         21   -1    0    0  501  502 -0.00000000000E+00 -0.00000000000E+00 -0.10177880319E+04  0.10177880319E+04  0.00000000000E+00 0. -1.
      99926    2    1    2    0    0  0.49960036108E-14  0.00000000000E+00 -0.96766788022E+03  0.10679081836E+04  0.45171535535E+03 0.  0.
      99925    2    3    3    0    0 -0.64477290327E+00  0.11005020658E+03 -0.61287075794E+03  0.67593883562E+03  0.26300433431E+03 0.  0.
         25    1    4    4    0    0  0.34534863476E+02  0.37804481839E+02 -0.26025882667E+03  0.29326438687E+03  0.12509000000E+03 0.  0.
         25    1    3    3    0    0  0.64477290327E+00 -0.11005020658E+03 -0.35479712228E+03  0.39196934801E+03  0.12509000000E+03 0.  0.
         25    1    4    4    0    0 -0.35179636379E+02  0.72245724744E+02 -0.35261193127E+03  0.38267444876E+03  0.12509000000E+03 0.  0.
<mgrwt>
<rscale>  2 0.45171536E+03</rscale>
<asrwt>0</asrwt>
<pdfrwt beam="1">  1       21 0.73706111E-02 0.45171536E+03</pdfrwt>
<pdfrwt beam="2">  1       21 0.14967470E+00 0.45171536E+03</pdfrwt>
<totfact> 0.37581175E+04</totfact>
</mgrwt>
</event>
<event>
 7    0  0.4714446E-002  0.4580664E+03  0.7546771E-02  0.1025344E+00
         21   -1    0    0  502  501  0.00000000000E+00  0.00000000000E+00  0.25431724850E+04  0.25431724850E+04  0.00000000000E+00 0.  1.
         21   -1    0    0  501  502 -0.00000000000E+00 -0.00000000000E+00 -0.20626283819E+02  0.20626283819E+02  0.00000000000E+00 0.  1.
      99926    2    1    2    0    0 -0.14210854715E-13  0.00000000000E+00  0.25225462012E+04  0.25637987688E+04  0.45806635971E+03 0.  0.
      99925    2    3    3    0    0 -0.83749281635E+02 -0.79102510481E+02  0.15052957055E+04  0.15324320889E+04  0.26298630538E+03 0.  0.
         25    1    3    3    0    0  0.83749281635E+02  0.79102510481E+02  0.10172504957E+04  0.10313666799E+04  0.12509000000E+03 0.  0.
         25    1    4    4    0    0 -0.80055449843E+02 -0.36643342859E+02  0.71696308294E+03  0.73309970675E+03  0.12509000000E+03 0.  0.
         25    1    4    4    0    0 -0.36938317923E+01 -0.42459167622E+02  0.78833262254E+03  0.79933238216E+03  0.12509000000E+03 0.  0.
<mgrwt>
<rscale>  2 0.45806636E+03</rscale>
<asrwt>0</asrwt>
<pdfrwt beam="1">  1       21 0.37399574E+00 0.45806636E+03</pdfrwt>
<pdfrwt beam="2">  1       21 0.30332788E-02 0.45806636E+03</pdfrwt>
<totfact> 0.63482034E+03</totfact>
</mgrwt>
</event>
<event>
 7    0  0.4714446E-002  0.4526572E+03  0.7546771E-02  0.1026933E+00
         21   -1    0    0  502  501  0.00000000000E+00  0.00000000000E+00  0.61029991785E+03  0.61029991785E+03  0.00000000000E+00 0. -1.
         21   -1    0    0  501  502 -0.00000000000E+00 -0.00000000000E+00 -0.83933531079E+02  0.83933531079E+02  0.00000000000E+00 0. -1.
      99926    2    1    2    0    0  0.14210854715E-13  0.17763568394E-14  0.52636638677E+03  0.69423344893E+03  0.45265716441E+03 0.  0.
      99925    2    3    3    0    0  0.76374048858E+02 -0.15622363724E+02  0.45304018249E+03  0.52960874263E+03  0.26298851636E+03 0.  0.
         25    1    4    4    0    0  0.10928408527E+02 -0.37474890858E+02  0.20244606939E+03  0.24115496401E+03  0.12509000000E+03 0.  0.
         25    1    4    4    0    0  0.65445640331E+02  0.21852527134E+02  0.25059411310E+03  0.28845377862E+03  0.12509000000E+03 0.  0.
         25    1    3    3    0    0 -0.76374048858E+02  0.15622363724E+02  0.73326204281E+02  0.16462470629E+03  0.12509000000E+03 0.  0.
<mgrwt>
<rscale>  2 0.45265716E+03</rscale>
<asrwt>0</asrwt>
<pdfrwt beam="1">  1       21 0.89749986E-01 0.45265716E+03</pdfrwt>
<pdfrwt beam="2">  1       21 0.12343167E-01 0.45265716E+03</pdfrwt>
<totfact> 0.54209962E+04</totfact>
</mgrwt>
</event>
<event>
 7    0  0.4714446E-002  0.4487907E+03  0.7546771E-02  0.1028083E+00
         21   -1    0    0  502  501  0.00000000000E+00  0.00000000000E+00  0.84455211067E+02  0.84455211067E+02  0.00000000000E+00 0.  1.
         21   -1    0    0  501  502 -0.00000000000E+00 -0.00000000000E+00 -0.59621262309E+03  0.59621262309E+03  0.00000000000E+00 0.  1.
      99926    2    1    2    0    0  0.00000000000E+00  0.00000000000E+00 -0.51175741202E+03  0.68066783416E+03  0.44879065464E+03 0.  0.
      99925    2    3    3    0    0 -0.58368237333E+02 -0.23237412007E+02 -0.45564722509E+03  0.52986103848E+03  0.26304276822E+03 0.  0.
         25    1    3    3    0    0  0.58368237333E+02  0.23237412007E+02 -0.56110186929E+02  0.15080679568E+03  0.12509000000E+03 0.  0.
         25    1    4    4    0    0 -0.24333201433E+02 -0.50418943128E+02 -0.25372207222E+03  0.28836881341E+03  0.12509000000E+03 0.  0.
         25    1    4    4    0    0 -0.34035035899E+02  0.27181531121E+02 -0.20192515287E+03  0.24149222506E+03  0.12509000000E+03 0.  0.
<mgrwt>
<rscale>  2 0.44879065E+03</rscale>
<asrwt>0</asrwt>
<pdfrwt beam="1">  1       21 0.12419883E-01 0.44879065E+03</pdfrwt>
<pdfrwt beam="2">  1       21 0.87678331E-01 0.44879065E+03</pdfrwt>
<totfact> 0.56686656E+04</totfact>
</mgrwt>
</event>
<event>
 7    0  0.4714446E-002  0.4592470E+03  0.7546771E-02  0.1025000E+00
         21   -1    0    0  502  501  0.00000000000E+00  0.00000000000E+00  0.41585577762E+03  0.41585577762E+03  0.00000000000E+00 0. -1.
         21   -1    0    0  501  502 -0.00000000000E+00 -0.00000000000E+00 -0.12679146396E+03  0.12679146396E+03  0.00000000000E+00 0. -1.
      99926    2    1    2    0    0 -0.26645352591E-14 -0.14210854715E-13  0.28906431366E+03  0.54264724158E+03  0.45924704830E+03 0.  0.
      99925    2    3    3    0    0  0.51832908354E+01  0.10884129634E+03  0.23192285379E+03  0.36718799039E+03  0.26299337613E+03 0.  0.
         25    1    4    4    0    0  0.16020044461E+02  0.16374920387E+02  0.12346810096E+03  0.17724745385E+03  0.12509000000E+03 0.  0.
         25    1    3    3    0    0 -0.51832908354E+01 -0.10884129634E+03  0.57141459872E+02  0.17545925119E+03  0.12509000000E+03 0.  0.
         25    1    4    4    0    0 -0.10836753625E+02  0.92466375952E+02  0.10845475282E+03  0.18994053654E+03  0.12509000000E+03 0.  0.
<mgrwt>
<rscale>  2 0.45924705E+03</rscale>
<asrwt>0</asrwt>
<pdfrwt beam="1">  1       21 0.61155261E-01 0.45924705E+03</pdfrwt>
<pdfrwt beam="2">  1       21 0.18645804E-01 0.45924705E+03</pdfrwt>
<totfact> 0.60302613E+04</totfact>
</mgrwt>
</event>
<event>
 7    0  0.4714446E-002  0.4593218E+03  0.7546771E-02  0.1024978E+00
         21   -1    0    0  502  501  0.00000000000E+00  0.00000000000E+00  0.31662645840E+03  0.31662645840E+03  0.00000000000E+00 0. -1.
         21   -1    0    0  501  502 -0.00000000000E+00 -0.00000000000E+00 -0.16658154865E+03  0.16658154865E+03  0.00000000000E+00 0. -1.
      99926    2    1    2    0    0  0.00000000000E+00  0.00000000000E+00  0.15004490975E+03  0.48320800705E+03  0.45932178604E+03 0.  0.
      99925    2    3    3    0    0  0.26815780222E+02 -0.74325458472E+02  0.29989920086E+01  0.27460942155E+03  0.26297904974E+03 0.  0.
         25    1    3    3    0    0 -0.26815780222E+02  0.74325458472E+02  0.14704591774E+03  0.20859858550E+03  0.12509000000E+03 0.  0.
         25    1    4    4    0    0 -0.68027868627E+01 -0.37779808751E+01 -0.14119961979E+02  0.12612467037E+03  0.12509000000E+03 0.  0.
         25    1    4    4    0    0  0.33618567085E+02 -0.70547477597E+02  0.17118953988E+02  0.14848475118E+03  0.12509000000E+03 0.  0.
<mgrwt>
<rscale>  2 0.45932179E+03</rscale>
<asrwt>0</asrwt>
<pdfrwt beam="1">  1       21 0.46562715E-01 0.45932179E+03</pdfrwt>
<pdfrwt beam="2">  1       21 0.24497286E-01 0.45932179E+03</pdfrwt>
<totfact> 0.64235301E+04</totfact>
</mgrwt>
</event>
<event>
 7    0  0.4714446E-002  0.4549302E+03  0.7546771E-02  0.1026262E+00
         21   -1    0    0  502  501  0.00000000000E+00  0.00000000000E+00  0.11820581836E+03  0.11820581836E+03  0.00000000000E+00 0. -1.
         21   -1    0    0  501  502 -0.00000000000E+00 -0.00000000000E+00 -0.43771423958E+03  0.43771423958E+03  0.00000000000E+00 0. -1.
      99926    2    1    2    0    0  0.00000000000E+00  0.00000000000E+00 -0.31950842122E+03  0.55592005794E+03  0.45493019199E+03 0.  0.
      99925    2    3    3    0    0 -0.10183706237E+02  0.87085606533E+02 -0.11409035216E+03  0.29992845273E+03  0.26315937674E+03 0.  0.
         25    1    4    4    0    0 -0.22299216732E+02  0.43819439789E+02 -0.97363676504E+02  0.16596563491E+03  0.12509000000E+03 0.  0.
         25    1    4    4    0    0  0.12115510495E+02  0.43266166745E+02 -0.16726675652E+02  0.13396281782E+03  0.12509000000E+03 0.  0.
         25    1    3    3    0    0  0.10183706237E+02 -0.87085606533E+02 -0.20541806907E+03  0.25599160521E+03  0.12509000000E+03 0.  0.
<mgrwt>
<rscale>  2 0.45493019E+03</rscale>
<asrwt>0</asrwt>
<pdfrwt beam="1">  1       21 0.17383209E-01 0.45493019E+03</pdfrwt>
<pdfrwt beam="2">  1       21 0.64369740E-01 0.45493019E+03</pdfrwt>
<totfact> 0.61510958E+04</totfact>
</mgrwt>
</event>
<event>
 7    0  0.4714446E-002  0.4580309E+03  0.7546771E-02  0.1025354E+00
         21   -1    0    0  502  501  0.00000000000E+00  0.00000000000E+00  0.18779032203E+03  0.18779032203E+03  0.00000000000E+00 0.  1.
         21   -1    0    0  501  502 -0.00000000000E+00 -0.00000000000E+00 -0.27929065295E+03  0.27929065295E+03  0.00000000000E+00 0.  1.
      99926    2    1    2    0    0  0.00000000000E+00 -0.14210854715E-13 -0.91500330925E+02  0.46708097498E+03  0.45803092322E+03 0.  0.
      99925    2    3    3    0    0  0.92804620284E+02  0.69327494389E+02 -0.50562485368E+02  0.29174582641E+03  0.26294498146E+03 0.  0.
         25    1    3    3    0    0 -0.92804620284E+02 -0.69327494389E+02 -0.40937845557E+02  0.17533514857E+03  0.12509000000E+03 0.  0.
         25    1    4    4    0    0  0.58938412593E+02  0.59018899494E+02 -0.58906037900E+02  0.16147568355E+03  0.12509000000E+03 0.  0.
         25    1    4    4    0    0  0.33866207691E+02  0.10308594895E+02  0.83435525323E+01  0.13027014286E+03  0.12509000000E+03 0.  0.
<mgrwt>
<rscale>  2 0.45803092E+03</rscale>
<asrwt>0</asrwt>
<pdfrwt beam="1">  1       21 0.27616224E-01 0.45803092E+03</pdfrwt>
<pdfrwt beam="2">  1       21 0.41072154E-01 0.45803092E+03</pdfrwt>
<totfact> 0.66050263E+04</totfact>
</mgrwt>
</event>
<event>
 7    0  0.4714446E-002  0.4606182E+03  0.7546771E-02  0.1024602E+00
         21   -1    0    0  502  501  0.00000000000E+00  0.00000000000E+00  0.61203581007E+03  0.61203581007E+03  0.00000000000E+00 0. -1.
         21   -1    0    0  501  502 -0.00000000000E+00 -0.00000000000E+00 -0.86665312015E+02  0.86665312015E+02  0.00000000000E+00 0. -1.
      99926    2    1    2    0    0 -0.14210854715E-13  0.35527136788E-14  0.52537049805E+03  0.69870112208E+03  0.46061816918E+03 0.  0.
      99925    2    3    3    0    0  0.82901227305E+02 -0.18470899746E+02  0.20407756483E+03  0.34360895846E+03  0.26306971746E+03 0.  0.
         25    1    4    4    0    0  0.44124291603E+00 -0.11747988058E+02  0.79872246800E+02  0.14888013241E+03  0.12509000000E+03 0.  0.
         25    1    4    4    0    0  0.82459984389E+02 -0.67229116875E+01  0.12420531803E+03  0.19472882605E+03  0.12509000000E+03 0.  0.
         25    1    3    3    0    0 -0.82901227305E+02  0.18470899746E+02  0.32129293322E+03  0.35509216362E+03  0.12509000000E+03 0.  0.
<mgrwt>
<rscale>  2 0.46061817E+03</rscale>
<asrwt>0</asrwt>
<pdfrwt beam="1">  1       21 0.90005264E-01 0.46061817E+03</pdfrwt>
<pdfrwt beam="2">  1       21 0.12744899E-01 0.46061817E+03</pdfrwt>
<totfact> 0.50694552E+04</totfact>
</mgrwt>
</event>
<event>
 7    0  0.4714446E-002  0.4530258E+03  0.7546771E-02  0.1026824E+00
         21   -1    0    0  502  501  0.00000000000E+00  0.00000000000E+00  0.62549362324E+03  0.62549362324E+03  0.00000000000E+00 0.  1.
         21   -1    0    0  501  502 -0.00000000000E+00 -0.00000000000E+00 -0.82028155174E+02  0.82028155174E+02  0.00000000000E+00 0.  1.
      99926    2    1    2    0    0  0.71054273576E-14  0.00000000000E+00  0.54346546807E+03  0.70752177842E+03  0.45302577405E+03 0.  0.
      99925    2    3    3    0    0 -0.47411887934E+02  0.88095446477E+02  0.41785797353E+03  0.50396970746E+03  0.26338467151E+03 0.  0.
         25    1    4    4    0    0  0.68254726637E+01  0.17365092809E+02  0.16163329630E+03  0.20523392531E+03  0.12509000000E+03 0.  0.
         25    1    3    3    0    0  0.47411887934E+02 -0.88095446477E+02  0.12560749454E+03  0.20355207096E+03  0.12509000000E+03 0.  0.
         25    1    4    4    0    0 -0.54237360597E+02  0.70730353668E+02  0.25622467723E+03  0.29873578215E+03  0.12509000000E+03 0.  0.
<mgrwt>
<rscale>  2 0.45302577E+03</rscale>
<asrwt>0</asrwt>
<pdfrwt beam="1">  1       21 0.91984354E-01 0.45302577E+03</pdfrwt>
<pdfrwt beam="2">  1       21 0.12062964E-01 0.45302577E+03</pdfrwt>
<totfact> 0.53319910E+04</totfact>
</mgrwt>
</event>
<event>
 7    0  0.4714446E-002  0.4646421E+03  0.7546771E-02  0.1023443E+00
         21   -1    0    0  502  501  0.00000000000E+00  0.00000000000E+00  0.11638535902E+03  0.11638535902E+03  0.00000000000E+00 0. -1.
         21   -1    0    0  501  502 -0.00000000000E+00 -0.00000000000E+00 -0.46374451001E+03  0.46374451001E+03  0.00000000000E+00 0. -1.
      99926    2    1    2    0    0 -0.88817841970E-15  0.00000000000E+00 -0.34735915099E+03  0.58012986903E+03  0.46464210438E+03 0.  0.
      99925    2    3    3    0    0  0.72881588974E+01 -0.41879464123E+02 -0.74080092255E+02  0.27659081253E+03  0.26307339419E+03 0.  0.
         25    1    4    4    0    0  0.93179193124E+01 -0.36198005040E+02 -0.76528353081E+02  0.15133147761E+03  0.12509000000E+03 0.  0.
         25    1    3    3    0    0 -0.72881588974E+01  0.41879464123E+02 -0.27327905874E+03  0.30353905650E+03  0.12509000000E+03 0.  0.
         25    1    4    4    0    0 -0.20297604149E+01 -0.56814590829E+01  0.24482608258E+01  0.12525933492E+03  0.12509000000E+03 0.  0.
<mgrwt>
<rscale>  2 0.46464210E+03</rscale>
<asrwt>0</asrwt>
<pdfrwt beam="1">  1       21 0.17115494E-01 0.46464210E+03</pdfrwt>
<pdfrwt beam="2">  1       21 0.68197721E-01 0.46464210E+03</pdfrwt>
<totfact> 0.55560259E+04</totfact>
</mgrwt>
</event>
<event>
 7    0  0.4714446E-002  0.4555460E+03  0.7546771E-02  0.1026081E+00
         21   -1    0    0  502  501  0.00000000000E+00  0.00000000000E+00  0.75013303830E+02  0.75013303830E+02  0.00000000000E+00 0. -1.
         21   -1    0    0  501  502 -0.00000000000E+00 -0.00000000000E+00 -0.69161786771E+03  0.69161786771E+03  0.00000000000E+00 0. -1.
      99926    2    1    2    0    0 -0.14210854715E-13  0.00000000000E+00 -0.61660456388E+03  0.76663117154E+03  0.45554600753E+03 0.  0.
      99925    2    3    3    0    0 -0.96085252131E+02  0.49695710821E+02 -0.32898460846E+03  0.43485596721E+03  0.26299581796E+03 0.  0.
         25    1    4    4    0    0 -0.14161293808E+02 -0.25945810586E+01 -0.14975061395E+03  0.19565282664E+03  0.12509000000E+03 0.  0.
         25    1    3    3    0    0  0.96085252131E+02 -0.49695710821E+02 -0.28761995541E+03  0.33177520432E+03  0.12509000000E+03 0.  0.
         25    1    4    4    0    0 -0.81923958324E+02  0.52290291879E+02 -0.17923399451E+03  0.23920314058E+03  0.12509000000E+03 0.  0.
<mgrwt>
<rscale>  2 0.45554601E+03</rscale>
<asrwt>0</asrwt>
<pdfrwt beam="1">  1       21 0.11031368E-01 0.45554601E+03</pdfrwt>
<pdfrwt beam="2">  1       21 0.10170851E+00 0.45554601E+03</pdfrwt>
<totfact> 0.49209753E+04</totfact>
</mgrwt>
</event>
<event>
 7    0  0.4714446E-002  0.4491725E+03  0.7546771E-02  0.1027969E+00
         21   -1    0    0  502  501  0.00000000000E+00  0.00000000000E+00  0.20692867922E+03  0.20692867922E+03  0.00000000000E+00 0. -1.
         21   -1    0    0  501  502 -0.00000000000E+00 -0.00000000000E+00 -0.24375055124E+03  0.24375055124E+03  0.00000000000E+00 0. -1.
      99926    2    1    2    0    0  0.00000000000E+00  0.00000000000E+00 -0.36821872024E+02  0.45067923046E+03  0.44917248191E+03 0.  0.
      99925    2    3    3    0    0  0.35200026068E+02 -0.90577771199E+02  0.23206707783E+02  0.28128527258E+03  0.26294387008E+03 0.  0.
         25    1    3    3    0    0 -0.35200026068E+02  0.90577771199E+02 -0.60028579807E+02  0.16939395787E+03  0.12509000000E+03 0.  0.
         25    1    4    4    0    0 -0.14329874037E+02 -0.24723091522E+02  0.28343016612E+02  0.13140552209E+03  0.12509000000E+03 0.  0.
         25    1    4    4    0    0  0.49529900106E+02 -0.65854679677E+02 -0.51363088295E+01  0.14987975049E+03  0.12509000000E+03 0.  0.
<mgrwt>
<rscale>  2 0.44917248E+03</rscale>
<asrwt>0</asrwt>
<pdfrwt beam="1">  1       21 0.30430688E-01 0.44917248E+03</pdfrwt>
<pdfrwt beam="2">  1       21 0.35845669E-01 0.44917248E+03</pdfrwt>
<totfact> 0.72160793E+04</totfact>
</mgrwt>
</event>
<event>
 7    0  0.4714446E-002  0.4565315E+03  0.7546771E-02  0.1025792E+00
         21   -1    0    0  502  501  0.00000000000E+00  0.00000000000E+00  0.64680134584E+03  0.64680134584E+03  0.00000000000E+00 0. -1.
         21   -1    0    0  501  502 -0.00000000000E+00 -0.00000000000E+00 -0.80558351991E+02  0.80558351991E+02  0.00000000000E+00 0. -1.
      99926    2    1    2    0    0  0.00000000000E+00  0.00000000000E+00  0.56624299384E+03  0.72735969783E+03  0.45653149064E+03 0.  0.
      99925    2    3    3    0    0 -0.41113698115E+01 -0.80071818591E+02  0.48625067692E+03  0.55861528055E+03  0.26302644614E+03 0.  0.
         25    1    3    3    0    0  0.41113698115E+01  0.80071818591E+02  0.79992316926E+02  0.16874441727E+03  0.12509000000E+03 0.  0.
         25    1    4    4    0    0 -0.67070699846E+01 -0.63783902999E+02  0.18775096507E+03  0.23454488708E+03  0.12509000000E+03 0.  0.
         25    1    4    4    0    0  0.25957001731E+01 -0.16287915593E+02  0.29849971185E+03  0.32407039347E+03  0.12509000000E+03 0.  0.
<mgrwt>
<rscale>  2 0.45653149E+03</rscale>
<asrwt>0</asrwt>
<pdfrwt beam="1">  1       21 0.95117842E-01 0.45653149E+03</pdfrwt>
<pdfrwt beam="2">  1       21 0.11846817E-01 0.45653149E+03</pdfrwt>
<totfact> 0.50827663E+04</totfact>
</mgrwt>
</event>
<event>
 7    0  0.4714446E-002  0.4591970E+03  0.7546771E-02  0.1025014E+00
         21   -1    0    0  502  501  0.00000000000E+00  0.00000000000E+00  0.22785622959E+04  0.22785622959E+04  0.00000000000E+00 0. -1.
         21   -1    0    0  501  502 -0.00000000000E+00 -0.00000000000E+00 -0.23135407032E+02  0.23135407032E+02  0.00000000000E+00 0. -1.
      99926    2    1    2    0    0  0.00000000000E+00  0.14210854715E-13  0.22554268888E+04  0.23016977029E+04  0.45919697805E+03 0.  0.
      99925    2    3    3    0    0 -0.30734073686E+02  0.10603996938E+03  0.12200014982E+04  0.12529163596E+04  0.26307164450E+03 0.  0.
         25    1    3    3    0    0  0.30734073686E+02 -0.10603996938E+03  0.10354253907E+04  0.10487813433E+04  0.12509000000E+03 0.  0.
         25    1    4    4    0    0  0.30025336359E+01  0.13515687809E+02  0.51323846238E+03  0.52844386305E+03  0.12509000000E+03 0.  0.
         25    1    4    4    0    0 -0.33736607322E+02  0.92524281571E+02  0.70676303578E+03  0.72447249651E+03  0.12509000000E+03 0.  0.
<mgrwt>
<rscale>  2 0.45919698E+03</rscale>
<asrwt>0</asrwt>
<pdfrwt beam="1">  1       21 0.33508254E+00 0.45919698E+03</pdfrwt>
<pdfrwt beam="2">  1       21 0.34022673E-02 0.45919698E+03</pdfrwt>
<totfact> 0.90800963E+03</totfact>
</mgrwt>
</event>
<event>
 7    0  0.4714446E-002  0.4610863E+03  0.7546771E-02  0.1024467E+00
         21   -1    0    0  502  501  0.00000000000E+00  0.00000000000E+00  0.11048909009E+03  0.11048909009E+03  0.00000000000E+00 0. -1.
         21   -1    0    0  501  502 -0.00000000000E+00 -0.00000000000E+00 -0.48104432484E+03  0.48104432484E+03  0.00000000000E+00 0. -1.
      99926    2    1    2    0    0  0.00000000000E+00  0.00000000000E+00 -0.37055523475E+03  0.59153341493E+03  0.46108632487E+03 0.  0.
      99925    2    3    3    0    0  0.86349196940E+02 -0.58238766957E+02 -0.30654441357E+03  0.41662535018E+03  0.26221988317E+03 0.  0.
         25    1    4    4    0    0  0.65049302316E+02 -0.84737204082E+01 -0.11845824366E+03  0.18434500064E+03  0.12509000000E+03 0.  0.
         25    1    4    4    0    0  0.21299894625E+02 -0.49765046549E+02 -0.18808616991E+03  0.23228034954E+03  0.12509000000E+03 0.  0.
         25    1    3    3    0    0 -0.86349196940E+02  0.58238766957E+02 -0.64010821182E+02  0.17490806476E+03  0.12509000000E+03 0.  0.
<mgrwt>
<rscale>  2 0.46108632E+03</rscale>
<asrwt>0</asrwt>
<pdfrwt beam="1">  1       21 0.16248396E-01 0.46108632E+03</pdfrwt>
<pdfrwt beam="2">  1       21 0.70741813E-01 0.46108632E+03</pdfrwt>
<totfact> 0.56438242E+04</totfact>
</mgrwt>
</event>
<event>
 7    0  0.4714446E-002  0.4486865E+03  0.7546771E-02  0.1028114E+00
         21   -1    0    0  502  501  0.00000000000E+00  0.00000000000E+00  0.41499871756E+03  0.41499871756E+03  0.00000000000E+00 0.  1.
         21   -1    0    0  501  502 -0.00000000000E+00 -0.00000000000E+00 -0.12127722390E+03  0.12127722390E+03  0.00000000000E+00 0.  1.
      99926    2    1    2    0    0  0.00000000000E+00 -0.35527136788E-14  0.29372149366E+03  0.53627594146E+03  0.44868649361E+03 0.  0.
      99925    2    3    3    0    0 -0.99636010045E+02 -0.17623060315E+02  0.14384904293E+03  0.31639605075E+03  0.26301332100E+03 0.  0.
         25    1    3    3    0    0  0.99636010045E+02  0.17623060315E+02  0.14987245073E+03  0.21987989071E+03  0.12509000000E+03 0.  0.
         25    1    4    4    0    0 -0.59744896247E+02 -0.12891151858E+02  0.29708139151E+02  0.14235770459E+03  0.12509000000E+03 0.  0.
         25    1    4    4    0    0 -0.39891113799E+02 -0.47319084564E+01  0.11414090378E+03  0.17403834616E+03  0.12509000000E+03 0.  0.
<mgrwt>
<rscale>  2 0.44868649E+03</rscale>
<asrwt>0</asrwt>
<pdfrwt beam="1">  1       21 0.61029223E-01 0.44868649E+03</pdfrwt>
<pdfrwt beam="2">  1       21 0.17834886E-01 0.44868649E+03</pdfrwt>
<totfact> 0.66020241E+04</totfact>
</mgrwt>
</event>
<event>
 7    0  0.4714446E-002  0.4596824E+03  0.7546771E-02  0.1024873E+00
         21   -1    0    0  502  501  0.00000000000E+00  0.00000000000E+00  0.70329661946E+02  0.70329661946E+02  0.00000000000E+00 0.  1.
         21   -1    0    0  501  502 -0.00000000000E+00 -0.00000000000E+00 -0.75113361843E+03  0.75113361843E+03  0.00000000000E+00 0.  1.
      99926    2    1    2    0    0  0.00000000000E+00  0.00000000000E+00 -0.68080395648E+03  0.82146328037E+03  0.45968238365E+03 0.  0.
      99925    2    3    3    0    0  0.24197380194E+02  0.55400462615E+02 -0.24644918155E+03  0.36543005453E+03  0.26295855415E+03 0.  0.
         25    1    3    3    0    0 -0.24197380194E+02 -0.55400462615E+02 -0.43435477493E+03  0.45603322584E+03  0.12509000000E+03 0.  0.
         25    1    4    4    0    0  0.16073568542E+01  0.31348326965E+01 -0.75760416030E+02  0.14628588281E+03  0.12509000000E+03 0.  0.
         25    1    4    4    0    0  0.22590023340E+02  0.52265629918E+02 -0.17068876552E+03  0.21914417172E+03  0.12509000000E+03 0.  0.
<mgrwt>
<rscale>  2 0.45968238E+03</rscale>
<asrwt>0</asrwt>
<pdfrwt beam="1">  1       21 0.10342597E-01 0.45968238E+03</pdfrwt>
<pdfrwt beam="2">  1       21 0.11046083E+00 0.45968238E+03</pdfrwt>
<totfact> 0.45065427E+04</totfact>
</mgrwt>
</event>
<event>
 7    0  0.4714446E-002  0.4546605E+03  0.7546771E-02  0.1026341E+00
         21   -1    0    0  502  501  0.00000000000E+00  0.00000000000E+00  0.36880651468E+03  0.36880651468E+03  0.00000000000E+00 0. -1.
         21   -1    0    0  501  502 -0.00000000000E+00 -0.00000000000E+00 -0.14012505139E+03  0.14012505139E+03  0.00000000000E+00 0. -1.
      99926    2    1    2    0    0  0.00000000000E+00  0.00000000000E+00  0.22868146329E+03  0.50893156606E+03  0.45466045274E+03 0.  0.
      99925    2    3    3    0    0 -0.45517256701E+02 -0.38935047929E+02  0.36888539591E+02  0.27224655958E+03  0.26300126660E+03 0.  0.
         25    1    4    4    0    0 -0.21169409448E+02 -0.56913155932E+02  0.26670552553E+01  0.13907506066E+03  0.12509000000E+03 0.  0.
         25    1    3    3    0    0  0.45517256701E+02  0.38935047929E+02  0.19179292370E+03  0.23668500649E+03  0.12509000000E+03 0.  0.
         25    1    4    4    0    0 -0.24347847253E+02  0.17978108003E+02  0.34221484335E+02  0.13317149892E+03  0.12509000000E+03 0.  0.
<mgrwt>
<rscale>  2 0.45466045E+03</rscale>
<asrwt>0</asrwt>
<pdfrwt beam="1">  1       21 0.54236252E-01 0.45466045E+03</pdfrwt>
<pdfrwt beam="2">  1       21 0.20606625E-01 0.45466045E+03</pdfrwt>
<totfact> 0.64822144E+04</totfact>
</mgrwt>
</event>
<event>
 7    0  0.4714446E-002  0.4588680E+03  0.7546771E-02  0.1025110E+00
         21   -1    0    0  502  501  0.00000000000E+00  0.00000000000E+00  0.25106604062E+03  0.25106604062E+03  0.00000000000E+00 0.  1.
         21   -1    0    0  501  502 -0.00000000000E+00 -0.00000000000E+00 -0.20966576647E+03  0.20966576647E+03  0.00000000000E+00 0.  1.
      99926    2    1    2    0    0  0.00000000000E+00  0.00000000000E+00  0.41400274146E+02  0.46073180708E+03  0.45886797160E+03 0.  0.
      99925    2    3    3    0    0 -0.28366314788E+02  0.20479307588E+02 -0.85881414408E+02  0.27887420841E+03  0.26300410058E+03 0.  0.
         25    1    4    4    0    0 -0.79797554898E+01  0.49574072655E+02 -0.52198051864E+02  0.14454552880E+03  0.12509000000E+03 0.  0.
         25    1    4    4    0    0 -0.20386559299E+02 -0.29094765067E+02 -0.33683362544E+02  0.13432867961E+03  0.12509000000E+03 0.  0.
         25    1    3    3    0    0  0.28366314788E+02 -0.20479307588E+02  0.12728168855E+03  0.18185759867E+03  0.12509000000E+03 0.  0.
<mgrwt>
<rscale>  2 0.45886797E+03</rscale>
<asrwt>0</asrwt>
<pdfrwt beam="1">  1       21 0.36921477E-01 0.45886797E+03</pdfrwt>
<pdfrwt beam="2">  1       21 0.30833201E-01 0.45886797E+03</pdfrwt>
<totfact> 0.66065409E+04</totfact>
</mgrwt>
</event>
<event>
 7    0  0.4714446E-002  0.4569510E+03  0.7546771E-02  0.1025669E+00
         21   -1    0    0  502  501  0.00000000000E+00  0.00000000000E+00  0.20256643775E+03  0.20256643775E+03  0.00000000000E+00 0.  1.
         21   -1    0    0  501  502 -0.00000000000E+00 -0.00000000000E+00 -0.25769840641E+03  0.25769840641E+03  0.00000000000E+00 0.  1.
      99926    2    1    2    0    0  0.00000000000E+00  0.00000000000E+00 -0.55131968661E+02  0.46026484417E+03  0.45695097418E+03 0.  0.
      99925    2    3    3    0    0 -0.56016768850E+02  0.75479915791E+02 -0.10130482377E+03  0.29712522075E+03  0.26303162054E+03 0.  0.
         25    1    4    4    0    0 -0.40474183907E+02  0.83624667792E+01 -0.21351085163E+02  0.13345960944E+03  0.12509000000E+03 0.  0.
         25    1    3    3    0    0  0.56016768850E+02 -0.75479915791E+02  0.46172855107E+02  0.16313962342E+03  0.12509000000E+03 0.  0.
         25    1    4    4    0    0 -0.15542584943E+02  0.67117449012E+02 -0.79953738606E+02  0.16366561131E+03  0.12509000000E+03 0.  0.
<mgrwt>
<rscale>  2 0.45695097E+03</rscale>
<asrwt>0</asrwt>
<pdfrwt beam="1">  1       21 0.29789182E-01 0.45695097E+03</pdfrwt>
<pdfrwt beam="2">  1       21 0.37896824E-01 0.45695097E+03</pdfrwt>
<totfact> 0.67110954E+04</totfact>
</mgrwt>
</event>
<event>
 7    0  0.4714446E-002  0.4457320E+03  0.7546771E-02  0.1029002E+00
         21   -1    0    0  502  501  0.00000000000E+00  0.00000000000E+00  0.35771106959E+03  0.35771106959E+03  0.00000000000E+00 0. -1.
         21   -1    0    0  501  502 -0.00000000000E+00 -0.00000000000E+00 -0.13885298866E+03  0.13885298866E+03  0.00000000000E+00 0. -1.
      99926    2    1    2    0    0  0.00000000000E+00  0.00000000000E+00  0.21885808093E+03  0.49656405824E+03  0.44573198713E+03 0.  0.
      99925    2    3    3    0    0 -0.70721200011E+02 -0.33006712627E+02  0.21578313854E+03  0.34909238442E+03  0.26308211413E+03 0.  0.
         25    1    4    4    0    0  0.35349492155E+01 -0.30685830160E+02  0.97184097372E+02  0.16138888723E+03  0.12509000000E+03 0.  0.
         25    1    4    4    0    0 -0.74256149226E+02 -0.23208824667E+01  0.11859904117E+03  0.18770349719E+03  0.12509000000E+03 0.  0.
         25    1    3    3    0    0  0.70721200011E+02  0.33006712627E+02  0.30749423951E+01  0.14747167382E+03  0.12509000000E+03 0.  0.
<mgrwt>
<rscale>  2 0.44573199E+03</rscale>
<asrwt>0</asrwt>
<pdfrwt beam="1">  1       21 0.52604569E-01 0.44573199E+03</pdfrwt>
<pdfrwt beam="2">  1       21 0.20419557E-01 0.44573199E+03</pdfrwt>
<totfact> 0.70562692E+04</totfact>
</mgrwt>
</event>
<event>
 7    0  0.4714446E-002  0.4734505E+03  0.7546771E-02  0.1020951E+00
         21   -1    0    0  502  501  0.00000000000E+00  0.00000000000E+00  0.87282150456E+03  0.87282150456E+03  0.00000000000E+00 0. -1.
         21   -1    0    0  501  502 -0.00000000000E+00 -0.00000000000E+00 -0.64204247497E+02  0.64204247497E+02  0.00000000000E+00 0. -1.
      99926    2    1    2    0    0  0.14210854715E-13  0.00000000000E+00  0.80861725707E+03  0.93702575206E+03  0.47345051653E+03 0.  0.
      99925    2    3    3    0    0 -0.12043956134E+03  0.34729640085E+02  0.43325692637E+03  0.52198994421E+03  0.26277386052E+03 0.  0.
         25    1    3    3    0    0  0.12043956134E+03 -0.34729640085E+02  0.37536033069E+03  0.41503580785E+03  0.12509000000E+03 0.  0.
         25    1    4    4    0    0 -0.10009162620E+03  0.35701023262E+02  0.25548772922E+03  0.30366821464E+03  0.12509000000E+03 0.  0.
         25    1    4    4    0    0 -0.20347935143E+02 -0.97138317640E+00  0.17776919715E+03  0.21832172958E+03  0.12509000000E+03 0.  0.
<mgrwt>
<rscale>  2 0.47345052E+03</rscale>
<asrwt>0</asrwt>
<pdfrwt beam="1">  1       21 0.12835610E+00 0.47345052E+03</pdfrwt>
<pdfrwt beam="2">  1       21 0.94418017E-02 0.47345052E+03</pdfrwt>
<totfact> 0.36160744E+04</totfact>
</mgrwt>
</event>
<event>
 7    0  0.4714446E-002  0.4532641E+03  0.7546771E-02  0.1026753E+00
         21   -1    0    0  502  501  0.00000000000E+00  0.00000000000E+00  0.25797584201E+03  0.25797584201E+03  0.00000000000E+00 0. -1.
         21   -1    0    0  501  502 -0.00000000000E+00 -0.00000000000E+00 -0.19909652504E+03  0.19909652504E+03  0.00000000000E+00 0. -1.
      99926    2    1    2    0    0  0.00000000000E+00  0.00000000000E+00  0.58879316965E+02  0.45707236705E+03  0.45326413354E+03 0.  0.
      99925    2    3    3    0    0 -0.27454639188E+02  0.10351752561E+03  0.56832661207E+01  0.28402045794E+03  0.26299369896E+03 0.  0.
         25    1    4    4    0    0 -0.56249829741E+01  0.49066843878E+02  0.42489606960E+02  0.14103925128E+03  0.12509000000E+03 0.  0.
         25    1    3    3    0    0  0.27454639188E+02 -0.10351752561E+03  0.53196050844E+02  0.17305190911E+03  0.12509000000E+03 0.  0.
         25    1    4    4    0    0 -0.21829656213E+02  0.54450681735E+02 -0.36806340839E+02  0.14298120666E+03  0.12509000000E+03 0.  0.
<mgrwt>
<rscale>  2 0.45326413E+03</rscale>
<asrwt>0</asrwt>
<pdfrwt beam="1">  1       21 0.37937624E-01 0.45326413E+03</pdfrwt>
<pdfrwt beam="2">  1       21 0.29278901E-01 0.45326413E+03</pdfrwt>
<totfact> 0.69349503E+04</totfact>
</mgrwt>
</event>
<event>
 7    0  0.4714446E-002  0.4539997E+03  0.7546771E-02  0.1026536E+00
         21   -1    0    0  502  501  0.00000000000E+00  0.00000000000E+00  0.64186096956E+03  0.64186096956E+03  0.00000000000E+00 0.  1.
         21   -1    0    0  501  502 -0.00000000000E+00 -0.00000000000E+00 -0.80280512445E+02  0.80280512445E+02  0.00000000000E+00 0.  1.
      99926    2    1    2    0    0 -0.11102230246E-15  0.00000000000E+00  0.56158045711E+03  0.72214148200E+03  0.45399968086E+03 0.  0.
      99925    2    3    3    0    0  0.77776533628E+00  0.11021156988E+03  0.32110879628E+03  0.42953026756E+03  0.26313151968E+03 0.  0.
         25    1    3    3    0    0 -0.77776533628E+00 -0.11021156988E+03  0.24047166083E+03  0.29261121444E+03  0.12509000000E+03 0.  0.
         25    1    4    4    0    0 -0.34038079700E+02  0.55202880030E+02  0.19336836478E+03  0.23925881683E+03  0.12509000000E+03 0.  0.
         25    1    4    4    0    0  0.34815845036E+02  0.55008689846E+02  0.12774043151E+03  0.19027145074E+03  0.12509000000E+03 0.  0.
<mgrwt>
<rscale>  2 0.45399968E+03</rscale>
<asrwt>0</asrwt>
<pdfrwt beam="1">  1       21 0.94391316E-01 0.45399968E+03</pdfrwt>
<pdfrwt beam="2">  1       21 0.11805958E-01 0.45399968E+03</pdfrwt>
<totfact> 0.52126195E+04</totfact>
</mgrwt>
</event>
<event>
 7    0  0.4714446E-002  0.4478652E+03  0.7546771E-02  0.1028361E+00
         21   -1    0    0  502  501  0.00000000000E+00  0.00000000000E+00  0.45103980011E+03  0.45103980011E+03  0.00000000000E+00 0. -1.
         21   -1    0    0  501  502 -0.00000000000E+00 -0.00000000000E+00 -0.11117821604E+03  0.11117821604E+03  0.00000000000E+00 0. -1.
      99926    2    1    2    0    0  0.00000000000E+00 -0.71054273576E-14  0.33986158407E+03  0.56221801616E+03  0.44786515980E+03 0.  0.
      99925    2    3    3    0    0  0.76359070463E+02 -0.40576364567E+02  0.13785474513E+03  0.30937138264E+03  0.26311513191E+03 0.  0.
         25    1    3    3    0    0 -0.76359070463E+02  0.40576364567E+02  0.20200683894E+03  0.25284663352E+03  0.12509000000E+03 0.  0.
         25    1    4    4    0    0  0.39005064386E+02 -0.55200055083E+02  0.95774876520E+02  0.17143154961E+03  0.12509000000E+03 0.  0.
         25    1    4    4    0    0  0.37354006077E+02  0.14623690516E+02  0.42079868610E+02  0.13793983303E+03  0.12509000000E+03 0.  0.
<mgrwt>
<rscale>  2 0.44786516E+03</rscale>
<asrwt>0</asrwt>
<pdfrwt beam="1">  1       21 0.66329382E-01 0.44786516E+03</pdfrwt>
<pdfrwt beam="2">  1       21 0.16349738E-01 0.44786516E+03</pdfrwt>
<totfact> 0.64637383E+04</totfact>
</mgrwt>
</event>
<event>
 7    0  0.4714446E-002  0.4704381E+03  0.7546771E-02  0.1021797E+00
         21   -1    0    0  502  501  0.00000000000E+00  0.00000000000E+00  0.46869109461E+03  0.46869109461E+03  0.00000000000E+00 0.  1.
         21   -1    0    0  501  502 -0.00000000000E+00 -0.00000000000E+00 -0.11804789601E+03  0.11804789601E+03  0.00000000000E+00 0.  1.
      99926    2    1    2    0    0  0.00000000000E+00  0.14210854715E-13  0.35064319860E+03  0.58673899063E+03  0.47043808349E+03 0.  0.
      99925    2    3    3    0    0  0.49431595036E+02  0.10851620177E+03  0.16297366807E+03  0.33161821644E+03  0.26304177682E+03 0.  0.
         25    1    4    4    0    0  0.24311679439E+02  0.13771928354E+02  0.90816513695E+02  0.15708555321E+03  0.12509000000E+03 0.  0.
         25    1    3    3    0    0 -0.49431595036E+02 -0.10851620177E+03  0.18766953053E+03  0.25512077419E+03  0.12509000000E+03 0.  0.
         25    1    4    4    0    0  0.25119915597E+02  0.94744273417E+02  0.72157154380E+02  0.17453266323E+03  0.12509000000E+03 0.  0.
<mgrwt>
<rscale>  2 0.47043808E+03</rscale>
<asrwt>0</asrwt>
<pdfrwt beam="1">  1       21 0.68925160E-01 0.47043808E+03</pdfrwt>
<pdfrwt beam="2">  1       21 0.17359985E-01 0.47043808E+03</pdfrwt>
<totfact> 0.52762347E+04</totfact>
</mgrwt>
</event>
<event>
 7    0  0.4714446E-002  0.4467069E+03  0.7546771E-02  0.1028709E+00
         21   -1    0    0  502  501  0.00000000000E+00  0.00000000000E+00  0.41628804152E+03  0.41628804152E+03  0.00000000000E+00 0. -1.
         21   -1    0    0  501  502 -0.00000000000E+00 -0.00000000000E+00 -0.11983714784E+03  0.11983714784E+03  0.00000000000E+00 0. -1.
      99926    2    1    2    0    0  0.00000000000E+00  0.71054273576E-14  0.29645089368E+03  0.53612518936E+03  0.44670693558E+03 0.  0.
      99925    2    3    3    0    0 -0.34552357699E+02  0.62711633486E+02  0.28055205090E+03  0.39111865261E+03  0.26294054985E+03 0.  0.
         25    1    3    3    0    0  0.34552357699E+02 -0.62711633486E+02  0.15898842777E+02  0.14500653674E+03  0.12509000000E+03 0.  0.
         25    1    4    4    0    0 -0.51009734163E+02  0.54483193300E+02  0.16092170892E+03  0.21705694146E+03  0.12509000000E+03 0.  0.
         25    1    4    4    0    0  0.16457376464E+02  0.82284401862E+01  0.11963034198E+03  0.17406171115E+03  0.12509000000E+03 0.  0.
<mgrwt>
<rscale>  2 0.44670694E+03</rscale>
<asrwt>0</asrwt>
<pdfrwt beam="1">  1       21 0.61218829E-01 0.44670694E+03</pdfrwt>
<pdfrwt beam="2">  1       21 0.17623110E-01 0.44670694E+03</pdfrwt>
<totfact> 0.67089009E+04</totfact>
</mgrwt>
</event>
<event>
 7    0  0.4714446E-002  0.4544940E+03  0.7546771E-02  0.1026390E+00
         21   -1    0    0  502  501  0.00000000000E+00  0.00000000000E+00  0.21460871193E+03  0.21460871193E+03  0.00000000000E+00 0.  1.
         21   -1    0    0  501  502 -0.00000000000E+00 -0.00000000000E+00 -0.24062954160E+03  0.24062954160E+03  0.00000000000E+00 0.  1.
      99926    2    1    2    0    0  0.00000000000E+00  0.00000000000E+00 -0.26020829676E+02  0.45523825353E+03  0.45449398665E+03 0.  0.
      99925    2    3    3    0    0 -0.90710925236E+02 -0.57339009252E+02 -0.51324110738E+02  0.28849294454E+03  0.26282652219E+03 0.  0.
         25    1    3    3    0    0  0.90710925236E+02  0.57339009252E+02  0.25303281062E+02  0.16674530899E+03  0.12509000000E+03 0.  0.
         25    1    4    4    0    0 -0.35573520556E+02  0.89581170526E+01 -0.84646810299E+01  0.13063262284E+03  0.12509000000E+03 0.  0.
         25    1    4    4    0    0 -0.55137404679E+02 -0.66297126305E+02 -0.42859429708E+02  0.15786032170E+03  0.12509000000E+03 0.  0.
<mgrwt>
<rscale>  2 0.45449399E+03</rscale>
<asrwt>0</asrwt>
<pdfrwt beam="1">  1       21 0.31560105E-01 0.45449399E+03</pdfrwt>
<pdfrwt beam="2">  1       21 0.35386697E-01 0.45449399E+03</pdfrwt>
<totfact> 0.68805751E+04</totfact>
</mgrwt>
</event>
<event>
 7    0  0.4714446E-002  0.4438322E+03  0.7546771E-02  0.1029577E+00
         21   -1    0    0  502  501  0.00000000000E+00  0.00000000000E+00  0.63298664993E+03  0.63298664993E+03  0.00000000000E+00 0.  1.
         21   -1    0    0  501  502 -0.00000000000E+00 -0.00000000000E+00 -0.77800627983E+02  0.77800627983E+02  0.00000000000E+00 0.  1.
      99926    2    1    2    0    0 -0.33306690739E-15  0.14210854715E-13  0.55518602195E+03  0.71078727791E+03  0.44383221546E+03 0.  0.
      99925    2    3    3    0    0 -0.78714020825E+00  0.98508607508E+02  0.30937504502E+03  0.41791339751E+03  0.26312378075E+03 0.  0.
         25    1    4    4    0    0  0.46131321396E+01  0.84095409809E+02  0.20366473099E+03  0.25341694831E+03  0.12509000000E+03 0.  0.
         25    1    3    3    0    0  0.78714020825E+00 -0.98508607508E+02  0.24581097693E+03  0.29287388040E+03  0.12509000000E+03 0.  0.
         25    1    4    4    0    0 -0.54002723478E+01  0.14413197699E+02  0.10571031403E+03  0.16449644921E+03  0.12509000000E+03 0.  0.
<mgrwt>
<rscale>  2 0.44383222E+03</rscale>
<asrwt>0</asrwt>
<pdfrwt beam="1">  1       21 0.93086269E-01 0.44383222E+03</pdfrwt>
<pdfrwt beam="2">  1       21 0.11441269E-01 0.44383222E+03</pdfrwt>
<totfact> 0.57182092E+04</totfact>
</mgrwt>
</event>
<event>
 7    0  0.4714446E-002  0.4661747E+03  0.7546771E-02  0.1023005E+00
         21   -1    0    0  502  501  0.00000000000E+00  0.00000000000E+00  0.28864322883E+03  0.28864322883E+03  0.00000000000E+00 0.  1.
         21   -1    0    0  501  502 -0.00000000000E+00 -0.00000000000E+00 -0.18822441768E+03  0.18822441768E+03  0.00000000000E+00 0.  1.
      99926    2    1    2    0    0  0.00000000000E+00  0.00000000000E+00  0.10041881115E+03  0.47686764651E+03  0.46617466111E+03 0.  0.
      99925    2    3    3    0    0 -0.10570680078E+03  0.53588046599E+02  0.98158130005E+02  0.30453591627E+03  0.26279554666E+03 0.  0.
         25    1    4    4    0    0 -0.87001901995E+02  0.31046476722E+02  0.27502437570E+02  0.15791487213E+03  0.12509000000E+03 0.  0.
         25    1    3    3    0    0  0.10570680078E+03 -0.53588046599E+02  0.22606811501E+01  0.17233173024E+03  0.12509000000E+03 0.  0.
         25    1    4    4    0    0 -0.18704898785E+02  0.22541569877E+02  0.70655692435E+02  0.14662104414E+03  0.12509000000E+03 0.  0.
<mgrwt>
<rscale>  2 0.46617466E+03</rscale>
<asrwt>0</asrwt>
<pdfrwt beam="1">  1       21 0.42447534E-01 0.46617466E+03</pdfrwt>
<pdfrwt beam="2">  1       21 0.27680061E-01 0.46617466E+03</pdfrwt>
<totfact> 0.61308771E+04</totfact>
</mgrwt>
</event>
<event>
 7    0  0.4714446E-002  0.4565810E+03  0.7546771E-02  0.1025778E+00
         21   -1    0    0  502  501  0.00000000000E+00  0.00000000000E+00  0.93471893492E+03  0.93471893492E+03  0.00000000000E+00 0. -1.
         21   -1    0    0  501  502 -0.00000000000E+00 -0.00000000000E+00 -0.55756382242E+02  0.55756382242E+02  0.00000000000E+00 0. -1.
      99926    2    1    2    0    0 -0.14210854715E-13 -0.71054273576E-14  0.87896255268E+03  0.99047531716E+03  0.45658097299E+03 0.  0.
      99925    2    3    3    0    0 -0.10923263393E+03 -0.34040936686E+02  0.53945383791E+03  0.61099642554E+03  0.26308864494E+03 0.  0.
         25    1    3    3    0    0  0.10923263393E+03  0.34040936686E+02  0.33950871476E+03  0.37947889162E+03  0.12509000000E+03 0.  0.
         25    1    4    4    0    0 -0.41436466448E+02 -0.33628762082E+02  0.33826676617E+03  0.36458166107E+03  0.12509000000E+03 0.  0.
         25    1    4    4    0    0 -0.67796167485E+02 -0.41217460423E+00  0.20118707174E+03  0.24641476447E+03  0.12509000000E+03 0.  0.
<mgrwt>
<rscale>  2 0.45658097E+03</rscale>
<asrwt>0</asrwt>
<pdfrwt beam="1">  1       21 0.13745866E+00 0.45658097E+03</pdfrwt>
<pdfrwt beam="2">  1       21 0.81994686E-02 0.45658097E+03</pdfrwt>
<totfact> 0.39054757E+04</totfact>
</mgrwt>
</event>
<event>
 7    0  0.4714446E-002  0.4561511E+03  0.7546771E-02  0.1025903E+00
         21   -1    0    0  502  501  0.00000000000E+00  0.00000000000E+00  0.23605898748E+03  0.23605898748E+03  0.00000000000E+00 0.  1.
         21   -1    0    0  501  502 -0.00000000000E+00 -0.00000000000E+00 -0.22036213845E+03  0.22036213845E+03  0.00000000000E+00 0.  1.
      99926    2    1    2    0    0  0.00000000000E+00  0.00000000000E+00  0.15696849037E+02  0.45642112593E+03  0.45615112970E+03 0.  0.
      99925    2    3    3    0    0  0.60789953360E+02  0.90407350224E+02  0.43818834373E+02  0.28817350614E+03  0.26316339410E+03 0.  0.
         25    1    4    4    0    0  0.73385542294E+01  0.43614914768E+02 -0.13407662450E+02  0.13335437256E+03  0.12509000000E+03 0.  0.
         25    1    4    4    0    0  0.53451399131E+02  0.46792435455E+02  0.57226496822E+02  0.15481913358E+03  0.12509000000E+03 0.  0.
         25    1    3    3    0    0 -0.60789953360E+02 -0.90407350224E+02 -0.28121985336E+02  0.16824761978E+03  0.12509000000E+03 0.  0.
<mgrwt>
<rscale>  2 0.45615113E+03</rscale>
<asrwt>0</asrwt>
<pdfrwt beam="1">  1       21 0.34714557E-01 0.45615113E+03</pdfrwt>
<pdfrwt beam="2">  1       21 0.32406197E-01 0.45615113E+03</pdfrwt>
<totfact> 0.67816796E+04</totfact>
</mgrwt>
</event>
<event>
 7    0  0.4714446E-002  0.4425668E+03  0.7546771E-02  0.1029962E+00
         21   -1    0    0  502  501  0.00000000000E+00  0.00000000000E+00  0.29692296305E+03  0.29692296305E+03  0.00000000000E+00 0.  1.
         21   -1    0    0  501  502 -0.00000000000E+00 -0.00000000000E+00 -0.16491260922E+03  0.16491260922E+03  0.00000000000E+00 0.  1.
      99926    2    1    2    0    0 -0.14210854715E-13  0.00000000000E+00  0.13201035383E+03  0.46183557227E+03  0.44256678851E+03 0.  0.
      99925    2    3    3    0    0 -0.71266394709E+02  0.33855577945E+02  0.15018275130E+03  0.31282938682E+03  0.26283505721E+03 0.  0.
         25    1    3    3    0    0  0.71266394709E+02 -0.33855577945E+02 -0.18172397468E+02  0.14900618545E+03  0.12509000000E+03 0.  0.
         25    1    4    4    0    0  0.49152908983E+01  0.14494698403E+02  0.58334107724E+02  0.13886912036E+03  0.12509000000E+03 0.  0.
         25    1    4    4    0    0 -0.76181685608E+02  0.19360879542E+02  0.91848643571E+02  0.17396026645E+03  0.12509000000E+03 0.  0.
<mgrwt>
<rscale>  2 0.44256679E+03</rscale>
<asrwt>0</asrwt>
<pdfrwt beam="1">  1       21 0.43665141E-01 0.44256679E+03</pdfrwt>
<pdfrwt beam="2">  1       21 0.24251854E-01 0.44256679E+03</pdfrwt>
<totfact> 0.75195719E+04</totfact>
</mgrwt>
</event>
<event>
 7    0  0.4714446E-002  0.4678345E+03  0.7546771E-02  0.1022533E+00
         21   -1    0    0  502  501  0.00000000000E+00  0.00000000000E+00  0.22871425394E+04  0.22871425394E+04  0.00000000000E+00 0.  1.
         21   -1    0    0  501  502 -0.00000000000E+00 -0.00000000000E+00 -0.23923861047E+02  0.23923861047E+02  0.00000000000E+00 0.  1.
      99926    2    1    2    0    0  0.00000000000E+00  0.00000000000E+00  0.22632186783E+04  0.23110664004E+04  0.46783450197E+03 0.  0.
      99925    2    3    3    0    0  0.40556947169E+02 -0.11652178017E+03  0.13688450727E+04  0.13995984385E+04  0.26441778410E+03 0.  0.
         25    1    4    4    0    0 -0.12918532002E+02 -0.43815245414E+02  0.51543545080E+03  0.53236066368E+03  0.12509000000E+03 0.  0.
         25    1    4    4    0    0  0.53475479171E+02 -0.72706534754E+02  0.85340962195E+03  0.86723777478E+03  0.12509000000E+03 0.  0.
         25    1    3    3    0    0 -0.40556947169E+02  0.11652178017E+03  0.89437360558E+03  0.91146796195E+03  0.12509000000E+03 0.  0.
<mgrwt>
<rscale>  2 0.46783450E+03</rscale>
<asrwt>0</asrwt>
<pdfrwt beam="1">  1       21 0.33634434E+00 0.46783450E+03</pdfrwt>
<pdfrwt beam="2">  1       21 0.35182164E-02 0.46783450E+03</pdfrwt>
<totfact> 0.83946939E+03</totfact>
</mgrwt>
</event>
<event>
 7    0  0.4714446E-002  0.4192614E+03  0.7546771E-02  0.1037307E+00
         21   -1    0    0  502  501  0.00000000000E+00  0.00000000000E+00  0.56058310966E+03  0.56058310966E+03  0.00000000000E+00 0. -1.
         21   -1    0    0  501  502 -0.00000000000E+00 -0.00000000000E+00 -0.78391655427E+02  0.78391655427E+02  0.00000000000E+00 0. -1.
      99926    2    1    2    0    0  0.00000000000E+00  0.71054273576E-14  0.48219145423E+03  0.63897476508E+03  0.41926143620E+03 0.  0.
      99925    2    3    3    0    0 -0.59521485091E+02  0.40459669167E+02  0.34665805342E+03  0.44099344563E+03  0.26291371412E+03 0.  0.
         25    1    3    3    0    0  0.59521485091E+02 -0.40459669167E+02  0.13553340081E+03  0.19798131945E+03  0.12509000000E+03 0.  0.
         25    1    4    4    0    0 -0.61075860353E+01  0.51425726436E+02  0.15638829208E+03  0.20684949588E+03  0.12509000000E+03 0.  0.
         25    1    4    4    0    0 -0.53413899056E+02 -0.10966057268E+02  0.19026976134E+03  0.23414394975E+03  0.12509000000E+03 0.  0.
<mgrwt>
<rscale>  2 0.41926144E+03</rscale>
<asrwt>0</asrwt>
<pdfrwt beam="1">  1       21 0.82438691E-01 0.41926144E+03</pdfrwt>
<pdfrwt beam="2">  1       21 0.11528185E-01 0.41926144E+03</pdfrwt>
<totfact> 0.75466729E+04</totfact>
</mgrwt>
</event>
<event>
 7    0  0.4714446E-002  0.4319645E+03  0.7546771E-02  0.1033241E+00
         21   -1    0    0  502  501  0.00000000000E+00  0.00000000000E+00  0.16627253464E+04  0.16627253464E+04  0.00000000000E+00 0.  1.
         21   -1    0    0  501  502 -0.00000000000E+00 -0.00000000000E+00 -0.28055346912E+02  0.28055346912E+02  0.00000000000E+00 0.  1.
      99926    2    1    2    0    0  0.71054273576E-14  0.31086244690E-14  0.16346699995E+04  0.16907806933E+04  0.43196451897E+03 0.  0.
      99925    2    3    3    0    0 -0.41818214183E+02 -0.38546170201E+01  0.13628717749E+04  0.13886459483E+04  0.26297238260E+03 0.  0.
         25    1    4    4    0    0  0.14016596687E+02 -0.22978598896E+02  0.64329269031E+03  0.65589440804E+03  0.12509000000E+03 0.  0.
         25    1    3    3    0    0  0.41818214183E+02  0.38546170201E+01  0.27179822463E+03  0.30213474497E+03  0.12509000000E+03 0.  0.
         25    1    4    4    0    0 -0.55834810871E+02  0.19123981876E+02  0.71957908455E+03  0.73275154030E+03  0.12509000000E+03 0.  0.
<mgrwt>
<rscale>  2 0.43196452E+03</rscale>
<asrwt>0</asrwt>
<pdfrwt beam="1">  1       21 0.24451837E+00 0.43196452E+03</pdfrwt>
<pdfrwt beam="2">  1       21 0.41257874E-02 0.43196452E+03</pdfrwt>
<totfact> 0.23360942E+04</totfact>
</mgrwt>
</event>
<event>
 7    0  0.4714446E-002  0.4587874E+03  0.7546771E-02  0.1025133E+00
         21   -1    0    0  502  501  0.00000000000E+00  0.00000000000E+00  0.35920782482E+03  0.35920782482E+03  0.00000000000E+00 0. -1.
         21   -1    0    0  501  502 -0.00000000000E+00 -0.00000000000E+00 -0.14649313541E+03  0.14649313541E+03  0.00000000000E+00 0. -1.
      99926    2    1    2    0    0  0.00000000000E+00  0.14210854715E-13  0.21271468941E+03  0.50570096023E+03  0.45878744761E+03 0.  0.
      99925    2    3    3    0    0  0.84232515006E+02  0.71078329699E+02  0.17547180014E+03  0.33487418704E+03  0.26306486456E+03 0.  0.
         25    1    4    4    0    0  0.35228107035E+02  0.64534887533E+02  0.57887454320E+02  0.15621855428E+03  0.12509000000E+03 0.  0.
         25    1    4    4    0    0  0.49004407971E+02  0.65434421667E+01  0.11758434582E+03  0.17865563276E+03  0.12509000000E+03 0.  0.
         25    1    3    3    0    0 -0.84232515006E+02 -0.71078329699E+02  0.37242889278E+02  0.17082677319E+03  0.12509000000E+03 0.  0.
<mgrwt>
<rscale>  2 0.45878745E+03</rscale>
<asrwt>0</asrwt>
<pdfrwt beam="1">  1       21 0.52824680E-01 0.45878745E+03</pdfrwt>
<pdfrwt beam="2">  1       21 0.21543108E-01 0.45878745E+03</pdfrwt>
<totfact> 0.62957882E+04</totfact>
</mgrwt>
</event>
<event>
 7    0  0.4714446E-002  0.4605296E+03  0.7546771E-02  0.1024628E+00
         21   -1    0    0  502  501  0.00000000000E+00  0.00000000000E+00  0.45781880508E+03  0.45781880508E+03  0.00000000000E+00 0. -1.
         21   -1    0    0  501  502 -0.00000000000E+00 -0.00000000000E+00 -0.11581410559E+03  0.11581410559E+03  0.00000000000E+00 0. -1.
      99926    2    1    2    0    0  0.00000000000E+00  0.14210854715E-13  0.34200469949E+03  0.57363291068E+03  0.46052958834E+03 0.  0.
      99925    2    3    3    0    0 -0.82581652699E+02 -0.80000793117E+02  0.24854302715E+03  0.37971940274E+03  0.26304625490E+03 0.  0.
         25    1    4    4    0    0 -0.48366145610E+02  0.28900747304E+00  0.12673037269E+03  0.18451954647E+03  0.12509000000E+03 0.  0.
         25    1    4    4    0    0 -0.34215507089E+02 -0.80289800590E+02  0.12181265446E+03  0.19519985628E+03  0.12509000000E+03 0.  0.
         25    1    3    3    0    0  0.82581652699E+02  0.80000793117E+02  0.93461672344E+02  0.19391350793E+03  0.12509000000E+03 0.  0.
<mgrwt>
<rscale>  2 0.46052959E+03</rscale>
<asrwt>0</asrwt>
<pdfrwt beam="1">  1       21 0.67326294E-01 0.46052959E+03</pdfrwt>
<pdfrwt beam="2">  1       21 0.17031486E-01 0.46052959E+03</pdfrwt>
<totfact> 0.57763932E+04</totfact>
</mgrwt>
</event>
<event>
 7    0  0.4714446E-002  0.4563607E+03  0.7546771E-02  0.1025842E+00
         21   -1    0    0  502  501  0.00000000000E+00  0.00000000000E+00  0.10827922005E+03  0.10827922005E+03  0.00000000000E+00 0.  1.
         21   -1    0    0  501  502 -0.00000000000E+00 -0.00000000000E+00 -0.48085199860E+03  0.48085199860E+03  0.00000000000E+00 0.  1.
      99926    2    1    2    0    0  0.14210854715E-13  0.35527136788E-14 -0.37257277854E+03  0.58913121865E+03  0.45636073174E+03 0.  0.
      99925    2    3    3    0    0 -0.82838127357E+02 -0.14684658033E+02 -0.33445090020E+03  0.43363658776E+03  0.26287923288E+03 0.  0.
         25    1    4    4    0    0 -0.79687569398E+01 -0.31278599738E+02 -0.16244749109E+03  0.20755372160E+03  0.12509000000E+03 0.  0.
         25    1    4    4    0    0 -0.74869370417E+02  0.16593941706E+02 -0.17200340911E+03  0.22608286616E+03  0.12509000000E+03 0.  0.
         25    1    3    3    0    0  0.82838127357E+02  0.14684658033E+02 -0.38121878348E+02  0.15549463089E+03  0.12509000000E+03 0.  0.
<mgrwt>
<rscale>  2 0.45636073E+03</rscale>
<asrwt>0</asrwt>
<pdfrwt beam="1">  1       21 0.15923415E-01 0.45636073E+03</pdfrwt>
<pdfrwt beam="2">  1       21 0.70713529E-01 0.45636073E+03</pdfrwt>
<totfact> 0.58718243E+04</totfact>
</mgrwt>
</event>
<event>
 7    0  0.4714446E-002  0.4555846E+03  0.7546771E-02  0.1026070E+00
         21   -1    0    0  502  501  0.00000000000E+00  0.00000000000E+00  0.22990490167E+03  0.22990490167E+03  0.00000000000E+00 0. -1.
         21   -1    0    0  501  502 -0.00000000000E+00 -0.00000000000E+00 -0.22569910672E+03  0.22569910672E+03  0.00000000000E+00 0. -1.
      99926    2    1    2    0    0  0.00000000000E+00  0.00000000000E+00  0.42057949481E+01  0.45560400839E+03  0.45558459560E+03 0.  0.
      99925    2    3    3    0    0  0.91037303908E+02 -0.38554099019E+02 -0.53399519082E+02  0.28607498562E+03  0.26308397805E+03 0.  0.
         25    1    4    4    0    0  0.47459080097E+02  0.18006156598E+02 -0.87508557797E+01  0.13527997463E+03  0.12509000000E+03 0.  0.
         25    1    3    3    0    0 -0.91037303908E+02  0.38554099019E+02  0.57605314030E+02  0.16952902276E+03  0.12509000000E+03 0.  0.
         25    1    4    4    0    0  0.43578223811E+02 -0.56560255617E+02 -0.44648663302E+02  0.15079501099E+03  0.12509000000E+03 0.  0.
<mgrwt>
<rscale>  2 0.45558460E+03</rscale>
<asrwt>0</asrwt>
<pdfrwt beam="1">  1       21 0.33809544E-01 0.45558460E+03</pdfrwt>
<pdfrwt beam="2">  1       21 0.33191045E-01 0.45558460E+03</pdfrwt>
<totfact> 0.68182972E+04</totfact>
</mgrwt>
</event>
<event>
 7    0  0.4714446E-002  0.4430652E+03  0.7546771E-02  0.1029810E+00
         21   -1    0    0  502  501  0.00000000000E+00  0.00000000000E+00  0.14583786976E+03  0.14583786976E+03  0.00000000000E+00 0.  1.
         21   -1    0    0  501  502 -0.00000000000E+00 -0.00000000000E+00 -0.33651540261E+03  0.33651540261E+03  0.00000000000E+00 0.  1.
      99926    2    1    2    0    0  0.71054273576E-14  0.17763568394E-14 -0.19067753284E+03  0.48235327237E+03  0.44306518463E+03 0.  0.
      99925    2    3    3    0    0  0.26452483398E+02  0.10032353621E+02 -0.15081288916E+02  0.26490918535E+03  0.26296206801E+03 0.  0.
         25    1    3    3    0    0 -0.26452483398E+02 -0.10032353621E+02 -0.17559624393E+03  0.21744408702E+03  0.12509000000E+03 0.  0.
         25    1    4    4    0    0  0.32082133114E+02  0.83944692396E+01  0.28135637757E+02  0.13243433313E+03  0.12509000000E+03 0.  0.
         25    1    4    4    0    0 -0.56296497161E+01  0.16378843817E+01 -0.43216926674E+02  0.13247485223E+03  0.12509000000E+03 0.  0.
<mgrwt>
<rscale>  2 0.44306518E+03</rscale>
<asrwt>0</asrwt>
<pdfrwt beam="1">  1       21 0.21446746E-01 0.44306518E+03</pdfrwt>
<pdfrwt beam="2">  1       21 0.49487559E-01 0.44306518E+03</pdfrwt>
<totfact> 0.73224865E+04</totfact>
</mgrwt>
</event>
<event>
 7    0  0.4714446E-002  0.4540140E+03  0.7546771E-02  0.1026532E+00
         21   -1    0    0  502  501  0.00000000000E+00  0.00000000000E+00  0.55554849359E+02  0.55554849359E+02  0.00000000000E+00 0.  1.
         21   -1    0    0  501  502 -0.00000000000E+00 -0.00000000000E+00 -0.92759110088E+03  0.92759110088E+03  0.00000000000E+00 0.  1.
      99926    2    1    2    0    0 -0.71054273576E-14 -0.13322676296E-14 -0.87203625152E+03  0.98314595024E+03  0.45401402567E+03 0.  0.
      99925    2    3    3    0    0  0.62656140181E+02  0.22567008695E+01 -0.34761753513E+03  0.44038137622E+03  0.26299604787E+03 0.  0.
         25    1    3    3    0    0 -0.62656140181E+02 -0.22567008695E+01 -0.52441871639E+03  0.54276457401E+03  0.12509000000E+03 0.  0.
         25    1    4    4    0    0  0.46131809830E+02 -0.96475234312E+01 -0.11892307931E+03  0.17891737054E+03  0.12509000000E+03 0.  0.
         25    1    4    4    0    0  0.16524330351E+02  0.11904224301E+02 -0.22869445582E+03  0.26146400569E+03  0.12509000000E+03 0.  0.
<mgrwt>
<rscale>  2 0.45401403E+03</rscale>
<asrwt>0</asrwt>
<pdfrwt beam="1">  1       21 0.81698308E-02 0.45401403E+03</pdfrwt>
<pdfrwt beam="2">  1       21 0.13641046E+00 0.45401403E+03</pdfrwt>
<totfact> 0.40135181E+04</totfact>
</mgrwt>
</event>
<event>
 7    0  0.4714446E-002  0.4600853E+03  0.7546771E-02  0.1024756E+00
         21   -1    0    0  502  501  0.00000000000E+00  0.00000000000E+00  0.13192870365E+03  0.13192870365E+03  0.00000000000E+00 0. -1.
         21   -1    0    0  501  502 -0.00000000000E+00 -0.00000000000E+00 -0.40112280499E+03  0.40112280499E+03  0.00000000000E+00 0. -1.
      99926    2    1    2    0    0  0.00000000000E+00  0.00000000000E+00 -0.26919410134E+03  0.53305150864E+03  0.46008526022E+03 0.  0.
      99925    2    3    3    0    0 -0.46590080534E+02  0.10557090815E+03 -0.13905314508E+03  0.31880858846E+03  0.26265431020E+03 0.  0.
         25    1    3    3    0    0  0.46590080534E+02 -0.10557090815E+03 -0.13014095626E+03  0.21424292019E+03  0.12509000000E+03 0.  0.
         25    1    4    4    0    0  0.59201081879E+01  0.29459562690E+02 -0.41422652895E+02  0.13515272024E+03  0.12509000000E+03 0.  0.
         25    1    4    4    0    0 -0.52510188722E+02  0.76111345463E+02 -0.97630492185E+02  0.18365586822E+03  0.12509000000E+03 0.  0.
<mgrwt>
<rscale>  2 0.46008526E+03</rscale>
<asrwt>0</asrwt>
<pdfrwt beam="1">  1       21 0.19401280E-01 0.46008526E+03</pdfrwt>
<pdfrwt beam="2">  1       21 0.58988648E-01 0.46008526E+03</pdfrwt>
<totfact> 0.60523926E+04</totfact>
</mgrwt>
</event>
<event>
 7    0  0.4714446E-002  0.4469344E+03  0.7546771E-02  0.1028640E+00
         21   -1    0    0  502  501  0.00000000000E+00  0.00000000000E+00  0.83627455735E+02  0.83627455735E+02  0.00000000000E+00 0. -1.
         21   -1    0    0  501  502 -0.00000000000E+00 -0.00000000000E+00 -0.59714357448E+03  0.59714357448E+03  0.00000000000E+00 0. -1.
      99926    2    1    2    0    0  0.14210854715E-13  0.00000000000E+00 -0.51351611875E+03  0.68077103022E+03  0.44693443744E+03 0.  0.
      99925    2    3    3    0    0  0.64122301659E+02  0.81514604266E+02 -0.35370595757E+03  0.45286074964E+03  0.26309438205E+03 0.  0.
         25    1    4    4    0    0  0.56418885748E-01  0.19117359447E+02 -0.13015960902E+03  0.18153376693E+03  0.12509000000E+03 0.  0.
         25    1    3    3    0    0 -0.64122301659E+02 -0.81514604266E+02 -0.15981016118E+03  0.22791028058E+03  0.12509000000E+03 0.  0.
         25    1    4    4    0    0  0.64065882773E+02  0.62397244819E+02 -0.22354634854E+03  0.27132698270E+03  0.12509000000E+03 0.  0.
<mgrwt>
<rscale>  2 0.44693444E+03</rscale>
<asrwt>0</asrwt>
<pdfrwt beam="1">  1       21 0.12298156E-01 0.44693444E+03</pdfrwt>
<pdfrwt beam="2">  1       21 0.87815229E-01 0.44693444E+03</pdfrwt>
<totfact> 0.57527068E+04</totfact>
</mgrwt>
</event>
<event>
 7    0  0.4714446E-002  0.4231259E+03  0.7546771E-02  0.1036054E+00
         21   -1    0    0  502  501  0.00000000000E+00  0.00000000000E+00  0.39958137130E+03  0.39958137130E+03  0.00000000000E+00 0.  1.
         21   -1    0    0  501  502 -0.00000000000E+00 -0.00000000000E+00 -0.11201445017E+03  0.11201445017E+03  0.00000000000E+00 0.  1.
      99926    2    1    2    0    0  0.14210854715E-13 -0.35527136788E-14  0.28756692113E+03  0.51159582147E+03  0.42312592737E+03 0.  0.
      99925    2    3    3    0    0 -0.57331267722E+02  0.15890474569E+02  0.25103169344E+03  0.36834180790E+03  0.26290567680E+03 0.  0.
         25    1    4    4    0    0  0.12384410473E+02  0.29070133516E+01  0.11460536797E+03  0.17012854792E+03  0.12509000000E+03 0.  0.
         25    1    4    4    0    0 -0.69715678195E+02  0.12983461217E+02  0.13642632548E+03  0.19821325999E+03  0.12509000000E+03 0.  0.
         25    1    3    3    0    0  0.57331267722E+02 -0.15890474569E+02  0.36535227691E+02  0.14325401357E+03  0.12509000000E+03 0.  0.
<mgrwt>
<rscale>  2 0.42312593E+03</rscale>
<asrwt>0</asrwt>
<pdfrwt beam="1">  1       21 0.58761966E-01 0.42312593E+03</pdfrwt>
<pdfrwt beam="2">  1       21 0.16472713E-01 0.42312593E+03</pdfrwt>
<totfact> 0.83685373E+04</totfact>
</mgrwt>
</event>
<event>
 7    0  0.4714446E-002  0.4536250E+03  0.7546771E-02  0.1026647E+00
         21   -1    0    0  502  501  0.00000000000E+00  0.00000000000E+00  0.68248040218E+03  0.68248040218E+03  0.00000000000E+00 0.  1.
         21   -1    0    0  501  502 -0.00000000000E+00 -0.00000000000E+00 -0.75377868573E+02  0.75377868573E+02  0.00000000000E+00 0.  1.
      99926    2    1    2    0    0  0.35527136788E-14 -0.71054273576E-14  0.60710253361E+03  0.75785827076E+03  0.45362503484E+03 0.  0.
      99925    2    3    3    0    0 -0.26853134925E+02 -0.44797903312E+02  0.21725999693E+03  0.34512027336E+03  0.26301740212E+03 0.  0.
         25    1    3    3    0    0  0.26853134925E+02  0.44797903312E+02  0.38984253668E+03  0.41273799740E+03  0.12509000000E+03 0.  0.
         25    1    4    4    0    0  0.45319865273E+01 -0.20412952637E+02  0.15375461803E+03  0.19931186167E+03  0.12509000000E+03 0.  0.
         25    1    4    4    0    0 -0.31385121452E+02 -0.24384950675E+02  0.63505378902E+02  0.14580841168E+03  0.12509000000E+03 0.  0.
<mgrwt>
<rscale>  2 0.45362503E+03</rscale>
<asrwt>0</asrwt>
<pdfrwt beam="1">  1       21 0.10036476E+00 0.45362503E+03</pdfrwt>
<pdfrwt beam="2">  1       21 0.11084981E-01 0.45362503E+03</pdfrwt>
<totfact> 0.50412127E+04</totfact>
</mgrwt>
</event>
<event>
 7    0  0.4714446E-002  0.4236373E+03  0.7546771E-02  0.1035889E+00
         21   -1    0    0  502  501  0.00000000000E+00  0.00000000000E+00  0.35061536062E+03  0.35061536062E+03  0.00000000000E+00 0.  1.
         21   -1    0    0  501  502 -0.00000000000E+00 -0.00000000000E+00 -0.12796685940E+03  0.12796685940E+03  0.00000000000E+00 0.  1.
      99926    2    1    2    0    0  0.00000000000E+00  0.00000000000E+00  0.22264850122E+03  0.47858222001E+03  0.42363732864E+03 0.  0.
      99925    2    3    3    0    0 -0.41546531238E+02  0.29845142032E+02  0.21456787021E+03  0.34319517684E+03  0.26291959174E+03 0.  0.
         25    1    4    4    0    0 -0.23467846866E+02  0.53915388504E+02  0.96537887379E+02  0.16859620623E+03  0.12509000000E+03 0.  0.
         25    1    3    3    0    0  0.41546531238E+02 -0.29845142032E+02  0.80806310131E+01  0.13538704317E+03  0.12509000000E+03 0.  0.
         25    1    4    4    0    0 -0.18078684372E+02 -0.24070246472E+02  0.11802998283E+03  0.17459897062E+03  0.12509000000E+03 0.  0.
<mgrwt>
<rscale>  2 0.42363733E+03</rscale>
<asrwt>0</asrwt>
<pdfrwt beam="1">  1       21 0.51561082E-01 0.42363733E+03</pdfrwt>
<pdfrwt beam="2">  1       21 0.18818656E-01 0.42363733E+03</pdfrwt>
<totfact> 0.86388950E+04</totfact>
</mgrwt>
</event>
<event>
 7    0  0.4714446E-002  0.4478325E+03  0.7546771E-02  0.1028370E+00
         21   -1    0    0  502  501  0.00000000000E+00  0.00000000000E+00  0.99295279379E+03  0.99295279379E+03  0.00000000000E+00 0. -1.
         21   -1    0    0  501  502 -0.00000000000E+00 -0.00000000000E+00 -0.50494321041E+02  0.50494321041E+02  0.00000000000E+00 0. -1.
      99926    2    1    2    0    0  0.00000000000E+00  0.00000000000E+00  0.94245847274E+03  0.10434471148E+04  0.44783245594E+03 0.  0.
      99925    2    3    3    0    0  0.35930900582E+02 -0.99937329884E+02  0.60690355146E+03  0.66991918706E+03  0.26302337710E+03 0.  0.
         25    1    4    4    0    0  0.12888156862E-01 -0.16722872313E+02  0.22536127799E+03  0.25829221502E+03  0.12509000000E+03 0.  0.
         25    1    3    3    0    0 -0.35930900582E+02  0.99937329884E+02  0.33555492128E+03  0.37352792776E+03  0.12509000000E+03 0.  0.
         25    1    4    4    0    0  0.35918012425E+02 -0.83214457571E+02  0.38154227347E+03  0.41162697204E+03  0.12509000000E+03 0.  0.
<mgrwt>
<rscale>  2 0.44783246E+03</rscale>
<asrwt>0</asrwt>
<pdfrwt beam="1">  1       21 0.14602246E+00 0.44783246E+03</pdfrwt>
<pdfrwt beam="2">  1       21 0.74256361E-02 0.44783246E+03</pdfrwt>
<totfact> 0.39693458E+04</totfact>
</mgrwt>
</event>
<event>
 7    0  0.4714446E-002  0.4615783E+03  0.7546771E-02  0.1024324E+00
         21   -1    0    0  502  501  0.00000000000E+00  0.00000000000E+00  0.18067062861E+04  0.18067062861E+04  0.00000000000E+00 0.  1.
         21   -1    0    0  501  502 -0.00000000000E+00 -0.00000000000E+00 -0.29481062142E+02  0.29481062142E+02  0.00000000000E+00 0.  1.
      99926    2    1    2    0    0  0.00000000000E+00  0.00000000000E+00  0.17772252240E+04  0.18361873483E+04  0.46157825033E+03 0.  0.
      99925    2    3    3    0    0 -0.83933967331E+02  0.54107131504E+02  0.13710820834E+04  0.13996415302E+04  0.26297878435E+03 0.  0.
         25    1    4    4    0    0 -0.49795661078E+02  0.18802015726E+02  0.88273658278E+03  0.89314304920E+03  0.12509000000E+03 0.  0.
         25    1    3    3    0    0  0.83933967331E+02 -0.54107131504E+02  0.40614314059E+03  0.43654581810E+03  0.12509000000E+03 0.  0.
         25    1    4    4    0    0 -0.34138306253E+02  0.35305115778E+02  0.48834550061E+03  0.50649848097E+03  0.12509000000E+03 0.  0.
<mgrwt>
<rscale>  2 0.46157825E+03</rscale>
<asrwt>0</asrwt>
<pdfrwt beam="1">  1       21 0.26569203E+00 0.46157825E+03</pdfrwt>
<pdfrwt beam="2">  1       21 0.43354515E-02 0.46157825E+03</pdfrwt>
<totfact> 0.15754263E+04</totfact>
</mgrwt>
</event>
<event>
 7    0  0.4714446E-002  0.4453795E+03  0.7546771E-02  0.1029109E+00
         21   -1    0    0  502  501  0.00000000000E+00  0.00000000000E+00  0.12842423680E+04  0.12842423680E+04  0.00000000000E+00 0. -1.
         21   -1    0    0  501  502 -0.00000000000E+00 -0.00000000000E+00 -0.38614779352E+02  0.38614779352E+02  0.00000000000E+00 0. -1.
      99926    2    1    2    0    0  0.00000000000E+00  0.00000000000E+00  0.12456275887E+04  0.13228571474E+04  0.44537954904E+03 0.  0.
      99925    2    3    3    0    0  0.76821505859E+02 -0.30866143233E+02  0.97712526320E+03  0.10152937077E+04  0.26304613719E+03 0.  0.
         25    1    4    4    0    0  0.64302727280E+01 -0.21831736114E+02  0.55370418216E+03  0.56811425132E+03  0.12509000000E+03 0.  0.
         25    1    4    4    0    0  0.70391233131E+02 -0.90344071189E+01  0.42342108104E+03  0.44717945635E+03  0.12509000000E+03 0.  0.
         25    1    3    3    0    0 -0.76821505859E+02  0.30866143233E+02  0.26850232547E+03  0.30756343971E+03  0.12509000000E+03 0.  0.
<mgrwt>
<rscale>  2 0.44537955E+03</rscale>
<asrwt>0</asrwt>
<pdfrwt beam="1">  1       21 0.18885914E+00 0.44537955E+03</pdfrwt>
<pdfrwt beam="2">  1       21 0.56786449E-02 0.44537955E+03</pdfrwt>
<totfact> 0.30690532E+04</totfact>
</mgrwt>
</event>
<event>
 7    0  0.4714446E-002  0.4559703E+03  0.7546771E-02  0.1025956E+00
         21   -1    0    0  502  501  0.00000000000E+00  0.00000000000E+00  0.12098434755E+03  0.12098434755E+03  0.00000000000E+00 0. -1.
         21   -1    0    0  501  502 -0.00000000000E+00 -0.00000000000E+00 -0.42961944768E+03  0.42961944768E+03  0.00000000000E+00 0. -1.
      99926    2    1    2    0    0  0.71054273576E-14  0.00000000000E+00 -0.30863510013E+03  0.55060379523E+03  0.45597029978E+03 0.  0.
      99925    2    3    3    0    0 -0.58646533514E+02  0.89290250811E+02 -0.24208792318E+03  0.37315464858E+03  0.26310770500E+03 0.  0.
         25    1    3    3    0    0  0.58646533514E+02 -0.89290250811E+02 -0.66547176958E+02  0.17744914664E+03  0.12509000000E+03 0.  0.
         25    1    4    4    0    0 -0.18799505259E+02  0.85342566712E+02 -0.13295945619E+03  0.20239194693E+03  0.12509000000E+03 0.  0.
         25    1    4    4    0    0 -0.39847028256E+02  0.39476840983E+01 -0.10912846699E+03  0.17076270166E+03  0.12509000000E+03 0.  0.
<mgrwt>
<rscale>  2 0.45597030E+03</rscale>
<asrwt>0</asrwt>
<pdfrwt beam="1">  1       21 0.17791816E-01 0.45597030E+03</pdfrwt>
<pdfrwt beam="2">  1       21 0.63179331E-01 0.45597030E+03</pdfrwt>
<totfact> 0.61354266E+04</totfact>
</mgrwt>
</event>
<event>
 7    0  0.4714446E-002  0.4531259E+03  0.7546771E-02  0.1026794E+00
         21   -1    0    0  502  501  0.00000000000E+00  0.00000000000E+00  0.10390770886E+04  0.10390770886E+04  0.00000000000E+00 0.  1.
         21   -1    0    0  501  502 -0.00000000000E+00 -0.00000000000E+00 -0.49400345242E+02  0.49400345242E+02  0.00000000000E+00 0.  1.
      99926    2    1    2    0    0  0.00000000000E+00 -0.71054273576E-14  0.98967674340E+03  0.10884774339E+04  0.45312588499E+03 0.  0.
      99925    2    3    3    0    0 -0.58447270446E+02 -0.33797755536E+02  0.41574988162E+03  0.49720937076E+03  0.26421737755E+03 0.  0.
         25    1    3    3    0    0  0.58447270446E+02  0.33797755536E+02  0.57392686178E+03  0.59126806312E+03  0.12509000000E+03 0.  0.
         25    1    4    4    0    0 -0.10870767833E+02 -0.29772420601E+02  0.27025302156E+03  0.29948084143E+03  0.12509000000E+03 0.  0.
         25    1    4    4    0    0 -0.47576502613E+02 -0.40253349351E+01  0.14549686006E+03  0.19772852932E+03  0.12509000000E+03 0.  0.
<mgrwt>
<rscale>  2 0.45312588E+03</rscale>
<asrwt>0</asrwt>
<pdfrwt beam="1">  1       21 0.15280544E+00 0.45312588E+03</pdfrwt>
<pdfrwt beam="2">  1       21 0.72647573E-02 0.45312588E+03</pdfrwt>
<totfact> 0.36426083E+04</totfact>
</mgrwt>
</event>
<event>
 7    0  0.4714446E-002  0.4514170E+03  0.7546771E-02  0.1027300E+00
         21   -1    0    0  502  501  0.00000000000E+00  0.00000000000E+00  0.38066441500E+03  0.38066441500E+03  0.00000000000E+00 0. -1.
         21   -1    0    0  501  502 -0.00000000000E+00 -0.00000000000E+00 -0.13383004399E+03  0.13383004399E+03  0.00000000000E+00 0. -1.
      99926    2    1    2    0    0  0.00000000000E+00  0.00000000000E+00  0.24683437101E+03  0.51449445898E+03  0.45141703735E+03 0.  0.
      99925    2    3    3    0    0  0.61687548682E+02 -0.70819137748E+02  0.90941589854E+02  0.29365340471E+03  0.26294722931E+03 0.  0.
         25    1    3    3    0    0 -0.61687548682E+02  0.70819137748E+02  0.15589278116E+03  0.22084105427E+03  0.12509000000E+03 0.  0.
         25    1    4    4    0    0  0.29128673840E+02 -0.38012664785E+02  0.31255977760E+01  0.13398029626E+03  0.12509000000E+03 0.  0.
         25    1    4    4    0    0  0.32558874842E+02 -0.32806472964E+02  0.87815992078E+02  0.15967310846E+03  0.12509000000E+03 0.  0.
<mgrwt>
<rscale>  2 0.45141704E+03</rscale>
<asrwt>0</asrwt>
<pdfrwt beam="1">  1       21 0.55980061E-01 0.45141704E+03</pdfrwt>
<pdfrwt beam="2">  1       21 0.19680889E-01 0.45141704E+03</pdfrwt>
<totfact> 0.66123893E+04</totfact>
</mgrwt>
</event>
<event>
 7    0  0.4714446E-002  0.4580811E+03  0.7546771E-02  0.1025339E+00
         21   -1    0    0  502  501  0.00000000000E+00  0.00000000000E+00  0.13744347563E+03  0.13744347563E+03  0.00000000000E+00 0. -1.
         21   -1    0    0  501  502 -0.00000000000E+00 -0.00000000000E+00 -0.38168103049E+03  0.38168103049E+03  0.00000000000E+00 0. -1.
      99926    2    1    2    0    0 -0.14210854715E-13  0.00000000000E+00 -0.24423755486E+03  0.51912450612E+03  0.45808107323E+03 0.  0.
      99925    2    3    3    0    0 -0.98809879020E+02  0.24381003890E+02 -0.21651516092E+03  0.35549729332E+03  0.26294806542E+03 0.  0.
         25    1    4    4    0    0 -0.14203527591E+02 -0.33408530784E+01 -0.12116086153E+03  0.17475801544E+03  0.12509000000E+03 0.  0.
         25    1    4    4    0    0 -0.84606351429E+02  0.27721856968E+02 -0.95354299390E+02  0.18073927788E+03  0.12509000000E+03 0.  0.
         25    1    3    3    0    0  0.98809879020E+02 -0.24381003890E+02 -0.27722393935E+02  0.16362721280E+03  0.12509000000E+03 0.  0.
<mgrwt>
<rscale>  2 0.45808107E+03</rscale>
<asrwt>0</asrwt>
<pdfrwt beam="1">  1       21 0.20212276E-01 0.45808107E+03</pdfrwt>
<pdfrwt beam="2">  1       21 0.56129563E-01 0.45808107E+03</pdfrwt>
<totfact> 0.62407293E+04</totfact>
</mgrwt>
</event>
<event>
 7    0  0.4714446E-002  0.4485902E+03  0.7546771E-02  0.1028143E+00
         21   -1    0    0  502  501  0.00000000000E+00  0.00000000000E+00  0.17812791226E+03  0.17812791226E+03  0.00000000000E+00 0. -1.
         21   -1    0    0  501  502 -0.00000000000E+00 -0.00000000000E+00 -0.28242787655E+03  0.28242787655E+03  0.00000000000E+00 0. -1.
      99926    2    1    2    0    0  0.00000000000E+00 -0.14210854715E-13 -0.10429996429E+03  0.46055578880E+03  0.44859018274E+03 0.  0.
      99925    2    3    3    0    0  0.63238889440E+02  0.80455387211E+02 -0.33717363451E+02  0.28419922355E+03  0.26298310135E+03 0.  0.
         25    1    4    4    0    0  0.22555974567E+02 -0.12747366859E+01 -0.96743382843E+01  0.12748136281E+03  0.12509000000E+03 0.  0.
         25    1    4    4    0    0  0.40682914873E+02  0.81730123897E+02 -0.24043025167E+02  0.15671786074E+03  0.12509000000E+03 0.  0.
         25    1    3    3    0    0 -0.63238889440E+02 -0.80455387211E+02 -0.70582600838E+02  0.17635656526E+03  0.12509000000E+03 0.  0.
<mgrwt>
<rscale>  2 0.44859018E+03</rscale>
<asrwt>0</asrwt>
<pdfrwt beam="1">  1       21 0.26195282E-01 0.44859018E+03</pdfrwt>
<pdfrwt beam="2">  1       21 0.41533511E-01 0.44859018E+03</pdfrwt>
<totfact> 0.71722697E+04</totfact>
</mgrwt>
</event>
<event>
 7    0  0.4714446E-002  0.4047147E+03  0.7546771E-02  0.1042159E+00
         21   -1    0    0  502  501  0.00000000000E+00  0.00000000000E+00  0.63587378623E+02  0.63587378623E+02  0.00000000000E+00 0. -1.
         21   -1    0    0  501  502 -0.00000000000E+00 -0.00000000000E+00 -0.64397196825E+03  0.64397196825E+03  0.00000000000E+00 0. -1.
      99926    2    1    2    0    0  0.00000000000E+00 -0.35527136788E-14 -0.58038458963E+03  0.70755934687E+03  0.40471466180E+03 0.  0.
      99925    2    3    3    0    0  0.33269291000E+02 -0.12404625154E+02 -0.45613881896E+03  0.52771152210E+03  0.26297548924E+03 0.  0.
         25    1    4    4    0    0 -0.13290347546E+02  0.20828566307E+02 -0.23210389079E+03  0.26482104662E+03  0.12509000000E+03 0.  0.
         25    1    3    3    0    0 -0.33269291000E+02  0.12404625154E+02 -0.12424577067E+03  0.17984782478E+03  0.12509000000E+03 0.  0.
         25    1    4    4    0    0  0.46559638547E+02 -0.33233191461E+02 -0.22403492817E+03  0.26289047547E+03  0.12509000000E+03 0.  0.
<mgrwt>
<rscale>  2 0.40471466E+03</rscale>
<asrwt>0</asrwt>
<pdfrwt beam="1">  1       21 0.93510850E-02 0.40471466E+03</pdfrwt>
<pdfrwt beam="2">  1       21 0.94701761E-01 0.40471466E+03</pdfrwt>
<totfact> 0.79626666E+04</totfact>
</mgrwt>
</event>
<event>
 7    0  0.4714446E-002  0.4574273E+03  0.7546771E-02  0.1025530E+00
         21   -1    0    0  502  501  0.00000000000E+00  0.00000000000E+00  0.27412734625E+03  0.27412734625E+03  0.00000000000E+00 0. -1.
         21   -1    0    0  501  502 -0.00000000000E+00 -0.00000000000E+00 -0.19082344896E+03  0.19082344896E+03  0.00000000000E+00 0. -1.
      99926    2    1    2    0    0  0.00000000000E+00  0.00000000000E+00  0.83303897283E+02  0.46495079521E+03  0.45742726489E+03 0.  0.
      99925    2    3    3    0    0 -0.36954497441E+02  0.80853130420E+02 -0.22490771331E+02  0.27855636507E+03  0.26303032173E+03 0.  0.
         25    1    3    3    0    0  0.36954497441E+02 -0.80853130420E+02  0.10579466861E+03  0.18639443014E+03  0.12509000000E+03 0.  0.
         25    1    4    4    0    0 -0.35567411214E+02  0.54769139055E+01  0.34990877765E+01  0.13021055657E+03  0.12509000000E+03 0.  0.
         25    1    4    4    0    0 -0.13870862270E+01  0.75376216515E+02 -0.25989859108E+02  0.14834580850E+03  0.12509000000E+03 0.  0.
<mgrwt>
<rscale>  2 0.45742726E+03</rscale>
<asrwt>0</asrwt>
<pdfrwt beam="1">  1       21 0.40312845E-01 0.45742726E+03</pdfrwt>
<pdfrwt beam="2">  1       21 0.28062272E-01 0.45742726E+03</pdfrwt>
<totfact> 0.66520966E+04</totfact>
</mgrwt>
</event>
<event>
 7    0  0.4714446E-002  0.4549696E+03  0.7546771E-02  0.1026250E+00
         21   -1    0    0  502  501  0.00000000000E+00  0.00000000000E+00  0.26589680435E+03  0.26589680435E+03  0.00000000000E+00 0.  1.
         21   -1    0    0  501  502 -0.00000000000E+00 -0.00000000000E+00 -0.19462185027E+03  0.19462185027E+03  0.00000000000E+00 0.  1.
      99926    2    1    2    0    0 -0.71054273576E-14  0.00000000000E+00  0.71274954083E+02  0.46051865462E+03  0.45496957280E+03 0.  0.
      99925    2    3    3    0    0 -0.39508040093E+02  0.73404077519E+02 -0.32595055120E+02  0.27780157621E+03  0.26298713714E+03 0.  0.
         25    1    4    4    0    0 -0.38618895386E+02  0.74797353175E+02 -0.16961408300E+02  0.15172758679E+03  0.12509000000E+03 0.  0.
         25    1    4    4    0    0 -0.88914470673E+00 -0.13932756557E+01 -0.15633646820E+02  0.12607398942E+03  0.12509000000E+03 0.  0.
         25    1    3    3    0    0  0.39508040093E+02 -0.73404077519E+02  0.10387000920E+03  0.18271707840E+03  0.12509000000E+03 0.  0.
<mgrwt>
<rscale>  2 0.45496957E+03</rscale>
<asrwt>0</asrwt>
<pdfrwt beam="1">  1       21 0.39102471E-01 0.45496957E+03</pdfrwt>
<pdfrwt beam="2">  1       21 0.28620860E-01 0.45496957E+03</pdfrwt>
<totfact> 0.68159303E+04</totfact>
</mgrwt>
</event>
<event>
 7    0  0.4714446E-002  0.4526667E+03  0.7546771E-02  0.1026930E+00
         21   -1    0    0  502  501  0.00000000000E+00  0.00000000000E+00  0.49140323299E+02  0.49140323299E+02  0.00000000000E+00 0.  1.
         21   -1    0    0  501  502 -0.00000000000E+00 -0.00000000000E+00 -0.10424590840E+04  0.10424590840E+04  0.00000000000E+00 0.  1.
      99926    2    1    2    0    0  0.00000000000E+00  0.00000000000E+00 -0.99331876066E+03  0.10915994073E+04  0.45266666063E+03 0.  0.
      99925    2    3    3    0    0  0.87060156072E+02 -0.68514892236E+02 -0.64050669000E+03  0.70121802126E+03  0.26302876681E+03 0.  0.
         25    1    3    3    0    0 -0.87060156072E+02  0.68514892236E+02 -0.35281207066E+03  0.39038138600E+03  0.12509000000E+03 0.  0.
         25    1    4    4    0    0  0.41371118991E+02 -0.72354393981E+02 -0.29934086720E+03  0.33496147643E+03  0.12509000000E+03 0.  0.
         25    1    4    4    0    0  0.45689037081E+02  0.38395017444E+01 -0.34116582280E+03  0.36625654483E+03  0.12509000000E+03 0.  0.
<mgrwt>
<rscale>  2 0.45266666E+03</rscale>
<asrwt>0</asrwt>
<pdfrwt beam="1">  1       21 0.72265178E-02 0.45266666E+03</pdfrwt>
<pdfrwt beam="2">  1       21 0.15330281E+00 0.45266666E+03</pdfrwt>
<totfact> 0.36445874E+04</totfact>
</mgrwt>
</event>
<event>
 7    0  0.4714446E-002  0.4520798E+03  0.7546771E-02  0.1027104E+00
         21   -1    0    0  502  501  0.00000000000E+00  0.00000000000E+00  0.12437835629E+04  0.12437835629E+04  0.00000000000E+00 0. -1.
         21   -1    0    0  501  502 -0.00000000000E+00 -0.00000000000E+00 -0.41079522633E+02  0.41079522633E+02  0.00000000000E+00 0. -1.
      99926    2    1    2    0    0  0.00000000000E+00  0.17763568394E-14  0.12027040403E+04  0.12848630856E+04  0.45207979395E+03 0.  0.
      99925    2    3    3    0    0 -0.77161309942E+02 -0.57912903093E+01  0.53500255084E+03  0.60115247871E+03  0.26300031647E+03 0.  0.
         25    1    4    4    0    0 -0.27219115690E+02  0.18671614049E+02  0.33189552056E+03  0.35621854823E+03  0.12509000000E+03 0.  0.
         25    1    4    4    0    0 -0.49942194252E+02 -0.24462904358E+02  0.20310703028E+03  0.24493393049E+03  0.12509000000E+03 0.  0.
         25    1    3    3    0    0  0.77161309942E+02  0.57912903093E+01  0.66770148945E+03  0.68371060684E+03  0.12509000000E+03 0.  0.
<mgrwt>
<rscale>  2 0.45207979E+03</rscale>
<asrwt>0</asrwt>
<pdfrwt beam="1">  1       21 0.18290932E+00 0.45207979E+03</pdfrwt>
<pdfrwt beam="2">  1       21 0.60411071E-02 0.45207979E+03</pdfrwt>
<totfact> 0.30238580E+04</totfact>
</mgrwt>
</event>
<event>
 7    0  0.4714446E-002  0.4576800E+03  0.7546771E-02  0.1025456E+00
         21   -1    0    0  502  501  0.00000000000E+00  0.00000000000E+00  0.29752180977E+02  0.29752180977E+02  0.00000000000E+00 0.  1.
         21   -1    0    0  501  502 -0.00000000000E+00 -0.00000000000E+00 -0.17601315456E+04  0.17601315456E+04  0.00000000000E+00 0.  1.
      99926    2    1    2    0    0  0.00000000000E+00  0.71054273576E-14 -0.17303793647E+04  0.17898837266E+04  0.45768002923E+03 0.  0.
      99925    2    3    3    0    0 -0.80454957280E+02 -0.54554547803E+02 -0.84047930287E+03  0.88599278911E+03  0.26292311606E+03 0.  0.
         25    1    4    4    0    0 -0.52612875909E+02  0.36426072678E+01 -0.48570634184E+03  0.50432087197E+03  0.12509000000E+03 0.  0.
         25    1    3    3    0    0  0.80454957280E+02  0.54554547803E+02 -0.88990006180E+03  0.90389093752E+03  0.12509000000E+03 0.  0.
         25    1    4    4    0    0 -0.27842081370E+02 -0.58197155070E+02 -0.35477296103E+03  0.38167191714E+03  0.12509000000E+03 0.  0.
<mgrwt>
<rscale>  2 0.45768003E+03</rscale>
<asrwt>0</asrwt>
<pdfrwt beam="1">  1       21 0.43753195E-02 0.45768003E+03</pdfrwt>
<pdfrwt beam="2">  1       21 0.25884295E+00 0.45768003E+03</pdfrwt>
<totfact> 0.17096140E+04</totfact>
</mgrwt>
</event>
<event>
 7    0  0.4714446E-002  0.4562276E+03  0.7546771E-02  0.1025881E+00
         21   -1    0    0  502  501  0.00000000000E+00  0.00000000000E+00  0.17794898283E+03  0.17794898283E+03  0.00000000000E+00 0. -1.
         21   -1    0    0  501  502 -0.00000000000E+00 -0.00000000000E+00 -0.29242034345E+03  0.29242034345E+03  0.00000000000E+00 0. -1.
      99926    2    1    2    0    0 -0.71054273576E-14  0.00000000000E+00 -0.11447136063E+03  0.47036932628E+03  0.45622758652E+03 0.  0.
      99925    2    3    3    0    0 -0.55643535200E+02 -0.65894238339E+02 -0.14929745965E+03  0.31448918345E+03  0.26301228373E+03 0.  0.
         25    1    4    4    0    0 -0.52820525869E+02 -0.59787784842E+02 -0.57209575094E+02  0.15901267481E+03  0.12509000000E+03 0.  0.
         25    1    4    4    0    0 -0.28230093308E+01 -0.61064534976E+01 -0.92087884557E+02  0.15547650864E+03  0.12509000000E+03 0.  0.
         25    1    3    3    0    0  0.55643535200E+02  0.65894238339E+02  0.34826099024E+02  0.15588014283E+03  0.12509000000E+03 0.  0.
<mgrwt>
<rscale>  2 0.45622759E+03</rscale>
<asrwt>0</asrwt>
<pdfrwt beam="1">  1       21 0.26168968E-01 0.45622759E+03</pdfrwt>
<pdfrwt beam="2">  1       21 0.43002991E-01 0.45622759E+03</pdfrwt>
<totfact> 0.66755819E+04</totfact>
</mgrwt>
</event>
<event>
 7    0  0.4714446E-002  0.4553067E+03  0.7546771E-02  0.1026151E+00
         21   -1    0    0  502  501  0.00000000000E+00  0.00000000000E+00  0.69724931042E+03  0.69724931042E+03  0.00000000000E+00 0. -1.
         21   -1    0    0  501  502 -0.00000000000E+00 -0.00000000000E+00 -0.74329283424E+02  0.74329283424E+02  0.00000000000E+00 0. -1.
      99926    2    1    2    0    0  0.00000000000E+00  0.00000000000E+00  0.62292002699E+03  0.77157859384E+03  0.45530667296E+03 0.  0.
      99925    2    3    3    0    0  0.96788916348E+02 -0.28007535333E+02  0.30335225533E+03  0.41391452638E+03  0.26296411918E+03 0.  0.
         25    1    4    4    0    0  0.80756898306E+02 -0.83787981443E+01  0.20117603435E+03  0.25042201536E+03  0.12509000000E+03 0.  0.
         25    1    4    4    0    0  0.16032018043E+02 -0.19628737189E+02  0.10217622098E+03  0.16349251102E+03  0.12509000000E+03 0.  0.
         25    1    3    3    0    0 -0.96788916348E+02  0.28007535333E+02  0.31956777166E+03  0.35766406746E+03  0.12509000000E+03 0.  0.
<mgrwt>
<rscale>  2 0.45530667E+03</rscale>
<asrwt>0</asrwt>
<pdfrwt beam="1">  1       21 0.10253666E+00 0.45530667E+03</pdfrwt>
<pdfrwt beam="2">  1       21 0.10930777E-01 0.45530667E+03</pdfrwt>
<totfact> 0.49052025E+04</totfact>
</mgrwt>
</event>
<event>
 7    0  0.4714446E-002  0.4573706E+03  0.7546771E-02  0.1025547E+00
         21   -1    0    0  502  501  0.00000000000E+00  0.00000000000E+00  0.10625239953E+03  0.10625239953E+03  0.00000000000E+00 0. -1.
         21   -1    0    0  501  502 -0.00000000000E+00 -0.00000000000E+00 -0.49219564130E+03  0.49219564130E+03  0.00000000000E+00 0. -1.
      99926    2    1    2    0    0  0.14210854715E-13  0.00000000000E+00 -0.38594324177E+03  0.59844804083E+03  0.45737060651E+03 0.  0.
      99925    2    3    3    0    0 -0.10978838979E+03 -0.24564174665E+02 -0.27506118364E+03  0.39695553942E+03  0.26316944413E+03 0.  0.
         25    1    3    3    0    0  0.10978838979E+03  0.24564174665E+02 -0.11088205813E+03  0.20149250141E+03  0.12509000000E+03 0.  0.
         25    1    4    4    0    0 -0.86655695226E+02 -0.29133313717E+02 -0.18345219910E+03  0.24012533590E+03  0.12509000000E+03 0.  0.
         25    1    4    4    0    0 -0.23132694560E+02  0.45691390524E+01 -0.91608984538E+02  0.15683020352E+03  0.12509000000E+03 0.  0.
<mgrwt>
<rscale>  2 0.45737061E+03</rscale>
<asrwt>0</asrwt>
<pdfrwt beam="1">  1       21 0.15625353E-01 0.45737061E+03</pdfrwt>
<pdfrwt beam="2">  1       21 0.72381712E-01 0.45737061E+03</pdfrwt>
<totfact> 0.57685719E+04</totfact>
</mgrwt>
</event>
<event>
 7    0  0.4714446E-002  0.4792537E+03  0.7546771E-02  0.1019340E+00
         21   -1    0    0  502  501  0.00000000000E+00  0.00000000000E+00  0.43530267522E+03  0.43530267522E+03  0.00000000000E+00 0.  1.
         21   -1    0    0  501  502 -0.00000000000E+00 -0.00000000000E+00 -0.13191057293E+03  0.13191057293E+03  0.00000000000E+00 0.  1.
      99926    2    1    2    0    0 -0.77715611724E-15  0.00000000000E+00  0.30339210229E+03  0.56721324815E+03  0.47925369184E+03 0.  0.
      99925    2    3    3    0    0  0.33972894968E+00 -0.13264361113E+03  0.21355521285E+03  0.36395819214E+03  0.26318300420E+03 0.  0.
         25    1    4    4    0    0  0.26888675449E+02 -0.90798220728E+02  0.14177769801E+03  0.21146096923E+03  0.12509000000E+03 0.  0.
         25    1    3    3    0    0 -0.33972894968E+00  0.13264361113E+03  0.89836889437E+02  0.20325505601E+03  0.12509000000E+03 0.  0.
         25    1    4    4    0    0 -0.26548946499E+02 -0.41845390402E+02  0.71777514836E+02  0.15249722291E+03  0.12509000000E+03 0.  0.
<mgrwt>
<rscale>  2 0.47925369E+03</rscale>
<asrwt>0</asrwt>
<pdfrwt beam="1">  1       21 0.64015099E-01 0.47925369E+03</pdfrwt>
<pdfrwt beam="2">  1       21 0.19398614E-01 0.47925369E+03</pdfrwt>
<totfact> 0.50361337E+04</totfact>
</mgrwt>
</event>
<event>
 7    0  0.4714446E-002  0.4544138E+03  0.7546771E-02  0.1026414E+00
         21   -1    0    0  502  501  0.00000000000E+00  0.00000000000E+00  0.20311300353E+03  0.20311300353E+03  0.00000000000E+00 0. -1.
         21   -1    0    0  501  502 -0.00000000000E+00 -0.00000000000E+00 -0.25415889491E+03  0.25415889491E+03  0.00000000000E+00 0. -1.
      99926    2    1    2    0    0  0.00000000000E+00 -0.14210854715E-13 -0.51045891378E+02  0.45727189845E+03  0.45441380490E+03 0.  0.
      99925    2    3    3    0    0  0.74440076010E+02  0.66770395107E+02 -0.84739710691E+02  0.29361863041E+03  0.26273840788E+03 0.  0.
         25    1    4    4    0    0  0.16940438328E+02  0.15766047548E+00 -0.55562998497E+02  0.13791939026E+03  0.12509000000E+03 0.  0.
         25    1    4    4    0    0  0.57499637682E+02  0.66612734632E+02 -0.29176712194E+02  0.15569924015E+03  0.12509000000E+03 0.  0.
         25    1    3    3    0    0 -0.74440076010E+02 -0.66770395107E+02  0.33693819313E+02  0.16365326804E+03  0.12509000000E+03 0.  0.
<mgrwt>
<rscale>  2 0.45441380E+03</rscale>
<asrwt>0</asrwt>
<pdfrwt beam="1">  1       21 0.29869560E-01 0.45441380E+03</pdfrwt>
<pdfrwt beam="2">  1       21 0.37376308E-01 0.45441380E+03</pdfrwt>
<totfact> 0.68700353E+04</totfact>
</mgrwt>
</event>
<event>
 7    0  0.4714446E-002  0.4527999E+03  0.7546771E-02  0.1026890E+00
         21   -1    0    0  502  501  0.00000000000E+00  0.00000000000E+00  0.74949629539E+03  0.74949629539E+03  0.00000000000E+00 0.  1.
         21   -1    0    0  501  502 -0.00000000000E+00 -0.00000000000E+00 -0.68388515876E+02  0.68388515876E+02  0.00000000000E+00 0.  1.
      99926    2    1    2    0    0  0.00000000000E+00  0.00000000000E+00  0.68110777952E+03  0.81788481127E+03  0.45279990855E+03 0.  0.
      99925    2    3    3    0    0 -0.72302978523E+02 -0.28705329243E+02  0.57304564725E+03  0.63519203867E+03  0.26274682781E+03 0.  0.
         25    1    4    4    0    0 -0.69057053425E+02 -0.39600449019E+02  0.29996260083E+03  0.33460744491E+03  0.12509000000E+03 0.  0.
         25    1    4    4    0    0 -0.32459250984E+01  0.10895119776E+02  0.27308304642E+03  0.30058459376E+03  0.12509000000E+03 0.  0.
         25    1    3    3    0    0  0.72302978523E+02  0.28705329243E+02  0.10806213227E+03  0.18269277260E+03  0.12509000000E+03 0.  0.
<mgrwt>
<rscale>  2 0.45279991E+03</rscale>
<asrwt>0</asrwt>
<pdfrwt beam="1">  1       21 0.11022004E+00 0.45279991E+03</pdfrwt>
<pdfrwt beam="2">  1       21 0.10057135E-01 0.45279991E+03</pdfrwt>
<totfact> 0.47730570E+04</totfact>
</mgrwt>
</event>
<event>
 7    0  0.4714446E-002  0.4502649E+03  0.7546771E-02  0.1027643E+00
         21   -1    0    0  502  501  0.00000000000E+00  0.00000000000E+00  0.16200053581E+03  0.16200053581E+03  0.00000000000E+00 0.  1.
         21   -1    0    0  501  502 -0.00000000000E+00 -0.00000000000E+00 -0.31286704762E+03  0.31286704762E+03  0.00000000000E+00 0.  1.
      99926    2    1    2    0    0 -0.17763568394E-14  0.14210854715E-13 -0.15086651181E+03  0.47486758343E+03  0.45026494135E+03 0.  0.
      99925    2    3    3    0    0  0.13207749727E+02 -0.10181493649E+03 -0.13126091573E+03  0.31185649963E+03  0.26359879062E+03 0.  0.
         25    1    4    4    0    0  0.27120189202E+02 -0.46358181081E+02 -0.25837033467E+02  0.13856278726E+03  0.12509000000E+03 0.  0.
         25    1    3    3    0    0 -0.13207749727E+02  0.10181493649E+03 -0.19605596077E+02  0.16301108380E+03  0.12509000000E+03 0.  0.
         25    1    4    4    0    0 -0.13912439475E+02 -0.55456755408E+02 -0.10542388227E+03  0.17329371236E+03  0.12509000000E+03 0.  0.
<mgrwt>
<rscale>  2 0.45026494E+03</rscale>
<asrwt>0</asrwt>
<pdfrwt beam="1">  1       21 0.23823608E-01 0.45026494E+03</pdfrwt>
<pdfrwt beam="2">  1       21 0.46009860E-01 0.45026494E+03</pdfrwt>
<totfact> 0.69656832E+04</totfact>
</mgrwt>
</event>
<event>
 7    0  0.4714446E-002  0.4194986E+03  0.7546771E-02  0.1037230E+00
         21   -1    0    0  502  501  0.00000000000E+00  0.00000000000E+00  0.18273333069E+03  0.18273333069E+03  0.00000000000E+00 0. -1.
         21   -1    0    0  501  502 -0.00000000000E+00 -0.00000000000E+00 -0.24075936398E+03  0.24075936398E+03  0.00000000000E+00 0. -1.
      99926    2    1    2    0    0  0.00000000000E+00 -0.17763568394E-14 -0.58026033299E+02  0.42349269467E+03  0.41949856007E+03 0.  0.
      99925    2    3    3    0    0 -0.70726099450E+02  0.14653672948E+02 -0.58975380029E+02  0.27904436261E+03  0.26300332618E+03 0.  0.
         25    1    4    4    0    0 -0.14149780530E+02  0.13266976364E+02 -0.63612502577E+02  0.14166964225E+03  0.12509000000E+03 0.  0.
         25    1    4    4    0    0 -0.56576318921E+02  0.13866965838E+01  0.46371225478E+01  0.13737472037E+03  0.12509000000E+03 0.  0.
         25    1    3    3    0    0  0.70726099450E+02 -0.14653672948E+02  0.94934673035E+00  0.14444833206E+03  0.12509000000E+03 0.  0.
<mgrwt>
<rscale>  2 0.41949856E+03</rscale>
<asrwt>0</asrwt>
<pdfrwt beam="1">  1       21 0.26872549E-01 0.41949856E+03</pdfrwt>
<pdfrwt beam="2">  1       21 0.35405789E-01 0.41949856E+03</pdfrwt>
<totfact> 0.95140924E+04</totfact>
</mgrwt>
</event>
<event>
 7    0  0.4714446E-002  0.4480821E+03  0.7546771E-02  0.1028296E+00
         21   -1    0    0  502  501  0.00000000000E+00  0.00000000000E+00  0.16305928728E+04  0.16305928728E+04  0.00000000000E+00 0. -1.
         21   -1    0    0  501  502 -0.00000000000E+00 -0.00000000000E+00 -0.30782908367E+02  0.30782908367E+02  0.00000000000E+00 0. -1.
      99926    2    1    2    0    0  0.35527136788E-14  0.00000000000E+00  0.15998099644E+04  0.16613757811E+04  0.44808209509E+03 0.  0.
      99925    2    3    3    0    0  0.30898560472E+02  0.99443893226E+02  0.10978840185E+04  0.11337196694E+04  0.26292044778E+03 0.  0.
         25    1    4    4    0    0  0.51875243089E+02  0.35718370487E+02  0.58774553948E+03  0.60420126623E+03  0.12509000000E+03 0.  0.
         25    1    4    4    0    0 -0.20976682618E+02  0.63725522739E+02  0.51013847899E+03  0.52951840318E+03  0.12509000000E+03 0.  0.
         25    1    3    3    0    0 -0.30898560472E+02 -0.99443893226E+02  0.50192594593E+03  0.52765611172E+03  0.12509000000E+03 0.  0.
<mgrwt>
<rscale>  2 0.44808210E+03</rscale>
<asrwt>0</asrwt>
<pdfrwt beam="1">  1       21 0.23979301E+00 0.44808210E+03</pdfrwt>
<pdfrwt beam="2">  1       21 0.45268994E-02 0.44808210E+03</pdfrwt>
<totfact> 0.21193461E+04</totfact>
</mgrwt>
</event>
<event>
 7    0  0.4714446E-002  0.4559642E+03  0.7546771E-02  0.1025958E+00
         21   -1    0    0  502  501  0.00000000000E+00  0.00000000000E+00  0.22780389634E+02  0.22780389634E+02  0.00000000000E+00 0. -1.
         21   -1    0    0  501  502 -0.00000000000E+00 -0.00000000000E+00 -0.22816049097E+04  0.22816049097E+04  0.00000000000E+00 0. -1.
      99926    2    1    2    0    0 -0.71054273576E-14 -0.14210854715E-13 -0.22588245201E+04  0.23043852993E+04  0.45596424787E+03 0.  0.
      99925    2    3    3    0    0  0.38439272312E+02  0.98841144192E+02 -0.16328365449E+04  0.16572720151E+04  0.26296045394E+03 0.  0.
         25    1    4    4    0    0 -0.62451827800E+01  0.81813327355E+02 -0.85101846938E+03  0.86406733891E+03  0.12509000000E+03 0.  0.
         25    1    3    3    0    0 -0.38439272312E+02 -0.98841144192E+02 -0.62598797519E+03  0.64711328422E+03  0.12509000000E+03 0.  0.
         25    1    4    4    0    0  0.44684455092E+02  0.17027816837E+02 -0.78181807549E+03  0.79320467619E+03  0.12509000000E+03 0.  0.
<mgrwt>
<rscale>  2 0.45596425E+03</rscale>
<asrwt>0</asrwt>
<pdfrwt beam="1">  1       21 0.33500580E-02 0.45596425E+03</pdfrwt>
<pdfrwt beam="2">  1       21 0.33553006E+00 0.45596425E+03</pdfrwt>
<totfact> 0.92766365E+03</totfact>
</mgrwt>
</event>
<event>
 7    0  0.4714446E-002  0.4393908E+03  0.7546771E-02  0.1030934E+00
         21   -1    0    0  502  501  0.00000000000E+00  0.00000000000E+00  0.68138665645E+02  0.68138665645E+02  0.00000000000E+00 0. -1.
         21   -1    0    0  501  502 -0.00000000000E+00 -0.00000000000E+00 -0.70835060909E+03  0.70835060909E+03  0.00000000000E+00 0. -1.
      99926    2    1    2    0    0  0.00000000000E+00  0.00000000000E+00 -0.64021194345E+03  0.77648927474E+03  0.43939078421E+03 0.  0.
      99925    2    3    3    0    0 -0.34751983547E+02 -0.44695551803E+02 -0.26784060576E+03  0.37960980445E+03  0.26298216826E+03 0.  0.
         25    1    4    4    0    0  0.59167235379E+01 -0.55606954838E+02 -0.13655566721E+03  0.19344792423E+03  0.12509000000E+03 0.  0.
         25    1    4    4    0    0 -0.40668707085E+02  0.10911403035E+02 -0.13128493855E+03  0.18616188021E+03  0.12509000000E+03 0.  0.
         25    1    3    3    0    0  0.34751983547E+02  0.44695551803E+02 -0.37237133768E+03  0.39687947029E+03  0.12509000000E+03 0.  0.
<mgrwt>
<rscale>  2 0.43939078E+03</rscale>
<asrwt>0</asrwt>
<pdfrwt beam="1">  1       21 0.10020392E-01 0.43939078E+03</pdfrwt>
<pdfrwt beam="2">  1       21 0.10416921E+00 0.43939078E+03</pdfrwt>
<totfact> 0.55406316E+04</totfact>
</mgrwt>
</event>
<event>
 7    0  0.4714446E-002  0.4545043E+03  0.7546771E-02  0.1026387E+00
         21   -1    0    0  502  501  0.00000000000E+00  0.00000000000E+00  0.89178917495E+02  0.89178917495E+02  0.00000000000E+00 0. -1.
         21   -1    0    0  501  502 -0.00000000000E+00 -0.00000000000E+00 -0.57910026912E+03  0.57910026912E+03  0.00000000000E+00 0. -1.
      99926    2    1    2    0    0  0.00000000000E+00  0.00000000000E+00 -0.48992135162E+03  0.66827918661E+03  0.45450427994E+03 0.  0.
      99925    2    3    3    0    0 -0.97676587937E+02  0.56332647572E+02 -0.31668298554E+03  0.42667388328E+03  0.26277063446E+03 0.  0.
         25    1    4    4    0    0 -0.32625111514E+02  0.63218021468E+02 -0.14317432080E+03  0.20299583832E+03  0.12509000000E+03 0.  0.
         25    1    3    3    0    0  0.97676587937E+02 -0.56332647572E+02 -0.17323836609E+03  0.24160530333E+03  0.12509000000E+03 0.  0.
         25    1    4    4    0    0 -0.65051476422E+02 -0.68853738965E+01 -0.17350866474E+03  0.22367804496E+03  0.12509000000E+03 0.  0.
<mgrwt>
<rscale>  2 0.45450428E+03</rscale>
<asrwt>0</asrwt>
<pdfrwt beam="1">  1       21 0.13114546E-01 0.45450428E+03</pdfrwt>
<pdfrwt beam="2">  1       21 0.85161806E-01 0.45450428E+03</pdfrwt>
<totfact> 0.54873365E+04</totfact>
</mgrwt>
</event>
<event>
 7    0  0.4714446E-002  0.4542983E+03  0.7546771E-02  0.1026448E+00
         21   -1    0    0  502  501  0.00000000000E+00  0.00000000000E+00  0.19739062155E+03  0.19739062155E+03  0.00000000000E+00 0.  1.
         21   -1    0    0  501  502 -0.00000000000E+00 -0.00000000000E+00 -0.26139411253E+03  0.26139411253E+03  0.00000000000E+00 0.  1.
      99926    2    1    2    0    0 -0.14210854715E-13  0.00000000000E+00 -0.64003490974E+02  0.45878473408E+03  0.45429834400E+03 0.  0.
      99925    2    3    3    0    0  0.10187605805E+03  0.44502812245E+02 -0.23185430492E+02  0.28652663220E+03  0.26306028828E+03 0.  0.
         25    1    3    3    0    0 -0.10187605805E+03 -0.44502812245E+02 -0.40818060482E+02  0.17225810188E+03  0.12509000000E+03 0.  0.
         25    1    4    4    0    0  0.42334335257E+02  0.61306960988E+02 -0.19763767011E+02  0.14693146019E+03  0.12509000000E+03 0.  0.
         25    1    4    4    0    0  0.59541722788E+02 -0.16804148743E+02 -0.34216634808E+01  0.13959517201E+03  0.12509000000E+03 0.  0.
<mgrwt>
<rscale>  2 0.45429834E+03</rscale>
<asrwt>0</asrwt>
<pdfrwt beam="1">  1       21 0.29028033E-01 0.45429834E+03</pdfrwt>
<pdfrwt beam="2">  1       21 0.38440310E-01 0.45429834E+03</pdfrwt>
<totfact> 0.68652575E+04</totfact>
</mgrwt>
</event>
<event>
 6    0  0.4714446E-002  0.4506245E+03  0.7546771E-02  0.1027536E+00
         21   -1    0    0  502  501  0.00000000000E+00  0.00000000000E+00  0.67022903727E+02  0.67022903727E+02  0.00000000000E+00 0. -1.
         21   -1    0    0  501  502 -0.00000000000E+00 -0.00000000000E+00 -0.75743690875E+03  0.75743690875E+03  0.00000000000E+00 0. -1.
      99926    2    1    2    0    0  0.00000000000E+00  0.71054273576E-14 -0.69041400502E+03  0.82445981248E+03  0.45062454889E+03 0.  0.
         25    1    3    3    0    0  0.24507395393E+02 -0.69724350369E+02 -0.40216354699E+03  0.42760393367E+03  0.12509000000E+03 0.  0.
         25    1    3    3    0    0 -0.25951173584E+02  0.58683828065E+02 -0.10852963019E+03  0.17760474041E+03  0.12509000000E+03 0.  0.
         25    1    3    3    0    0  0.14437781903E+01  0.11040522304E+02 -0.17972082784E+03  0.21925113840E+03  0.12509000000E+03 0.  0.
<mgrwt>
<rscale>  2 0.45062455E+03</rscale>
<asrwt>0</asrwt>
<pdfrwt beam="1">  1       21 0.98563102E-02 0.45062455E+03</pdfrwt>
<pdfrwt beam="2">  1       21 0.11138777E+00 0.45062455E+03</pdfrwt>
<totfact> 0.48239300E+04</totfact>
</mgrwt>
</event>
<event>
 7    0  0.4714446E-002  0.4626967E+03  0.7546771E-02  0.1024002E+00
         21   -1    0    0  502  501  0.00000000000E+00  0.00000000000E+00  0.26258460016E+03  0.26258460016E+03  0.00000000000E+00 0. -1.
         21   -1    0    0  501  502 -0.00000000000E+00 -0.00000000000E+00 -0.20382789882E+03  0.20382789882E+03  0.00000000000E+00 0. -1.
      99926    2    1    2    0    0  0.00000000000E+00  0.00000000000E+00  0.58756701339E+02  0.46641249897E+03  0.46269673572E+03 0.  0.
      99925    2    3    3    0    0  0.91196644020E+02 -0.37501868582E+02  0.10508903554E+03  0.30052877066E+03  0.26372451266E+03 0.  0.
         25    1    4    4    0    0  0.27028170386E+02 -0.20878784211E+02  0.90678636710E+02  0.15822948170E+03  0.12509000000E+03 0.  0.
         25    1    4    4    0    0  0.64168473634E+02 -0.16623084371E+02  0.14410398827E+02  0.14229928895E+03  0.12509000000E+03 0.  0.
         25    1    3    3    0    0 -0.91196644020E+02  0.37501868582E+02 -0.46332334198E+02  0.16588372832E+03  0.12509000000E+03 0.  0.
<mgrwt>
<rscale>  2 0.46269674E+03</rscale>
<asrwt>0</asrwt>
<pdfrwt beam="1">  1       21 0.38615383E-01 0.46269674E+03</pdfrwt>
<pdfrwt beam="2">  1       21 0.29974691E-01 0.46269674E+03</pdfrwt>
<totfact> 0.63714173E+04</totfact>
</mgrwt>
</event>
<event>
 7    0  0.4714446E-002  0.4594922E+03  0.7546771E-02  0.1024929E+00
         21   -1    0    0  502  501  0.00000000000E+00  0.00000000000E+00  0.32616266335E+02  0.32616266335E+02  0.00000000000E+00 0. -1.
         21   -1    0    0  501  502 -0.00000000000E+00 -0.00000000000E+00 -0.16183114025E+04  0.16183114025E+04  0.00000000000E+00 0. -1.
      99926    2    1    2    0    0  0.00000000000E+00  0.00000000000E+00 -0.15856951361E+04  0.16509276688E+04  0.45949222286E+03 0.  0.
      99925    2    3    3    0    0 -0.47057322620E+02  0.79109916599E+02 -0.73115623198E+03  0.78239038272E+03  0.26281648518E+03 0.  0.
         25    1    4    4    0    0 -0.54036590650E+02  0.38018116186E+02 -0.45282115586E+03  0.47440471918E+03  0.12509000000E+03 0.  0.
         25    1    3    3    0    0  0.47057322620E+02 -0.79109916599E+02 -0.85453890415E+03  0.86853728609E+03  0.12509000000E+03 0.  0.
         25    1    4    4    0    0  0.69792680303E+01  0.41091800412E+02 -0.27833507613E+03  0.30798566354E+03  0.12509000000E+03 0.  0.
<mgrwt>
<rscale>  2 0.45949222E+03</rscale>
<asrwt>0</asrwt>
<pdfrwt beam="1">  1       21 0.47965092E-02 0.45949222E+03</pdfrwt>
<pdfrwt beam="2">  1       21 0.23798700E+00 0.45949222E+03</pdfrwt>
<totfact> 0.19610070E+04</totfact>
</mgrwt>
</event>
<event>
 7    0  0.4714446E-002  0.4540718E+03  0.7546771E-02  0.1026515E+00
         21   -1    0    0  502  501  0.00000000000E+00  0.00000000000E+00  0.30537119751E+03  0.30537119751E+03  0.00000000000E+00 0.  1.
         21   -1    0    0  501  502 -0.00000000000E+00 -0.00000000000E+00 -0.16879556708E+03  0.16879556708E+03  0.00000000000E+00 0.  1.
      99926    2    1    2    0    0 -0.17763568394E-14  0.00000000000E+00  0.13657563044E+03  0.47416676459E+03  0.45407182011E+03 0.  0.
      99925    2    3    3    0    0  0.14601745255E+02  0.10502603624E+03  0.12589434430E+03  0.30983394004E+03  0.26249572419E+03 0.  0.
         25    1    3    3    0    0 -0.14601745255E+02 -0.10502603624E+03  0.10681286138E+02  0.16433282456E+03  0.12509000000E+03 0.  0.
         25    1    4    4    0    0  0.42974027974E+02  0.36743235478E+02  0.51792849226E+02  0.14672027728E+03  0.12509000000E+03 0.  0.
         25    1    4    4    0    0 -0.28372282720E+02  0.68282800762E+02  0.74101495072E+02  0.16311366276E+03  0.12509000000E+03 0.  0.
<mgrwt>
<rscale>  2 0.45407182E+03</rscale>
<asrwt>0</asrwt>
<pdfrwt beam="1">  1       21 0.44907529E-01 0.45407182E+03</pdfrwt>
<pdfrwt beam="2">  1       21 0.24822878E-01 0.45407182E+03</pdfrwt>
<totfact> 0.67623971E+04</totfact>
</mgrwt>
</event>
<event>
 7    0  0.4714446E-002  0.4427397E+03  0.7546771E-02  0.1029910E+00
         21   -1    0    0  502  501  0.00000000000E+00  0.00000000000E+00  0.36429733459E+03  0.36429733459E+03  0.00000000000E+00 0. -1.
         21   -1    0    0  501  502 -0.00000000000E+00 -0.00000000000E+00 -0.13451818197E+03  0.13451818197E+03  0.00000000000E+00 0. -1.
      99926    2    1    2    0    0  0.00000000000E+00  0.14210854715E-13  0.22977915263E+03  0.49881551656E+03  0.44273972103E+03 0.  0.
      99925    2    3    3    0    0  0.15571194881E+02  0.96272833252E+02  0.17893556833E+03  0.33225171889E+03  0.26241636107E+03 0.  0.
         25    1    4    4    0    0  0.23578077196E+02  0.30934455430E+02  0.12467136940E+03  0.18084060580E+03  0.12509000000E+03 0.  0.
         25    1    4    4    0    0 -0.80068823155E+01  0.65338377822E+02  0.54264198927E+02  0.15141111309E+03  0.12509000000E+03 0.  0.
         25    1    3    3    0    0 -0.15571194881E+02 -0.96272833252E+02  0.50843584296E+02  0.16656379768E+03  0.12509000000E+03 0.  0.
<mgrwt>
<rscale>  2 0.44273972E+03</rscale>
<asrwt>0</asrwt>
<pdfrwt beam="1">  1       21 0.53573137E-01 0.44273972E+03</pdfrwt>
<pdfrwt beam="2">  1       21 0.19782086E-01 0.44273972E+03</pdfrwt>
<totfact> 0.72120670E+04</totfact>
</mgrwt>
</event>
<event>
 7    0  0.4714446E-002  0.4597214E+03  0.7546771E-02  0.1024862E+00
         21   -1    0    0  502  501  0.00000000000E+00  0.00000000000E+00  0.66806069050E+03  0.66806069050E+03  0.00000000000E+00 0. -1.
         21   -1    0    0  501  502 -0.00000000000E+00 -0.00000000000E+00 -0.79088540063E+02  0.79088540063E+02  0.00000000000E+00 0. -1.
      99926    2    1    2    0    0  0.00000000000E+00  0.00000000000E+00  0.58897215044E+03  0.74714923056E+03  0.45972141427E+03 0.  0.
      99925    2    3    3    0    0  0.10026173706E+03  0.57587992801E+02  0.40387195859E+03  0.49559728373E+03  0.26293595394E+03 0.  0.
         25    1    3    3    0    0 -0.10026173706E+03 -0.57587992801E+02  0.18510019185E+03  0.25155194683E+03  0.12509000000E+03 0.  0.
         25    1    4    4    0    0  0.81530414751E+02  0.59296964774E+02  0.23180749914E+03  0.28203823025E+03  0.12509000000E+03 0.  0.
         25    1    4    4    0    0  0.18731322312E+02 -0.17089719724E+01  0.17206445945E+03  0.21355905348E+03  0.12509000000E+03 0.  0.
<mgrwt>
<rscale>  2 0.45972141E+03</rscale>
<asrwt>0</asrwt>
<pdfrwt beam="1">  1       21 0.98244216E-01 0.45972141E+03</pdfrwt>
<pdfrwt beam="2">  1       21 0.11630668E-01 0.45972141E+03</pdfrwt>
<totfact> 0.48588271E+04</totfact>
</mgrwt>
</event>
<event>
 7    0  0.4714446E-002  0.4465386E+03  0.7546771E-02  0.1028759E+00
         21   -1    0    0  502  501  0.00000000000E+00  0.00000000000E+00  0.37434722867E+03  0.37434722867E+03  0.00000000000E+00 0. -1.
         21   -1    0    0  501  502 -0.00000000000E+00 -0.00000000000E+00 -0.13316291880E+03  0.13316291880E+03  0.00000000000E+00 0. -1.
      99926    2    1    2    0    0  0.00000000000E+00  0.00000000000E+00  0.24118430987E+03  0.50751014747E+03  0.44653855204E+03 0.  0.
      99925    2    3    3    0    0 -0.61011397339E+02  0.83485089463E+02  0.13152585135E+03  0.31164122090E+03  0.26292403889E+03 0.  0.
         25    1    3    3    0    0  0.61011397339E+02 -0.83485089463E+02  0.10965845853E+03  0.19586892657E+03  0.12509000000E+03 0.  0.
         25    1    4    4    0    0 -0.10626671935E+02  0.49346676663E+02  0.26824160528E+02  0.13753204842E+03  0.12509000000E+03 0.  0.
         25    1    4    4    0    0 -0.50384725405E+02  0.34138412800E+02  0.10470169082E+03  0.17410917248E+03  0.12509000000E+03 0.  0.
<mgrwt>
<rscale>  2 0.44653855E+03</rscale>
<asrwt>0</asrwt>
<pdfrwt beam="1">  1       21 0.55051063E-01 0.44653855E+03</pdfrwt>
<pdfrwt beam="2">  1       21 0.19582782E-01 0.44653855E+03</pdfrwt>
<totfact> 0.69282802E+04</totfact>
</mgrwt>
</event>
<event>
 7    0  0.4714446E-002  0.4414587E+03  0.7546771E-02  0.1030300E+00
         21   -1    0    0  502  501  0.00000000000E+00  0.00000000000E+00  0.32277117110E+03  0.32277117110E+03  0.00000000000E+00 0.  1.
         21   -1    0    0  501  502 -0.00000000000E+00 -0.00000000000E+00 -0.15094731509E+03  0.15094731509E+03  0.00000000000E+00 0.  1.
      99926    2    1    2    0    0 -0.35527136788E-14  0.00000000000E+00  0.17182385601E+03  0.47371848620E+03  0.44145868059E+03 0.  0.
      99925    2    3    3    0    0 -0.29821712541E+02 -0.76116154499E+02  0.17110597845E+03  0.32428279112E+03  0.26305715965E+03 0.  0.
         25    1    4    4    0    0 -0.25772098557E+02 -0.77926343602E+02  0.81745370135E+02  0.17048908977E+03  0.12509000000E+03 0.  0.
         25    1    3    3    0    0  0.29821712541E+02  0.76116154499E+02  0.71787756505E+00  0.14943569508E+03  0.12509000000E+03 0.  0.
         25    1    4    4    0    0 -0.40496139837E+01  0.18101891030E+01  0.89360608312E+02  0.15379370135E+03  0.12509000000E+03 0.  0.
<mgrwt>
<rscale>  2 0.44145868E+03</rscale>
<asrwt>0</asrwt>
<pdfrwt beam="1">  1       21 0.47466349E-01 0.44145868E+03</pdfrwt>
<pdfrwt beam="2">  1       21 0.22198135E-01 0.44145868E+03</pdfrwt>
<totfact> 0.74892182E+04</totfact>
</mgrwt>
</event>
<event>
 7    0  0.4714446E-002  0.4377285E+03  0.7546771E-02  0.1031446E+00
         21   -1    0    0  502  501  0.00000000000E+00  0.00000000000E+00  0.45289089750E+03  0.45289089750E+03  0.00000000000E+00 0. -1.
         21   -1    0    0  501  502 -0.00000000000E+00 -0.00000000000E+00 -0.10576842823E+03  0.10576842823E+03  0.00000000000E+00 0. -1.
      99926    2    1    2    0    0  0.00000000000E+00  0.00000000000E+00  0.34712246927E+03  0.55865932573E+03  0.43772849297E+03 0.  0.
      99925    2    3    3    0    0 -0.83107094554E+02  0.26260028318E+02  0.27372822882E+03  0.38945353126E+03  0.26296488644E+03 0.  0.
         25    1    3    3    0    0  0.83107094554E+02 -0.26260028318E+02  0.73394240443E+02  0.16920579447E+03  0.12509000000E+03 0.  0.
         25    1    4    4    0    0 -0.16718007991E+02  0.15115726733E+02  0.17571909646E+03  0.21687020530E+03  0.12509000000E+03 0.  0.
         25    1    4    4    0    0 -0.66389086563E+02  0.11144301585E+02  0.98009132367E+02  0.17258332596E+03  0.12509000000E+03 0.  0.
<mgrwt>
<rscale>  2 0.43772849E+03</rscale>
<asrwt>0</asrwt>
<pdfrwt beam="1">  1       21 0.66601602E-01 0.43772849E+03</pdfrwt>
<pdfrwt beam="2">  1       21 0.15554181E-01 0.43772849E+03</pdfrwt>
<totfact> 0.70438999E+04</totfact>
</mgrwt>
</event>
<event>
 7    0  0.4714446E-002  0.4575692E+03  0.7546771E-02  0.1025489E+00
         21   -1    0    0  502  501  0.00000000000E+00  0.00000000000E+00  0.45237321818E+02  0.45237321818E+02  0.00000000000E+00 0. -1.
         21   -1    0    0  501  502 -0.00000000000E+00 -0.00000000000E+00 -0.11570619727E+04  0.11570619727E+04  0.00000000000E+00 0. -1.
      99926    2    1    2    0    0  0.14210854715E-13 -0.14210854715E-13 -0.11118246509E+04  0.12022992945E+04  0.45756916340E+03 0.  0.
      99925    2    3    3    0    0  0.66292738815E+02 -0.73717623348E+02 -0.54258060427E+03  0.61110109770E+03  0.26310040721E+03 0.  0.
         25    1    3    3    0    0 -0.66292738815E+02  0.73717623348E+02 -0.56924404662E+03  0.59119819682E+03  0.12509000000E+03 0.  0.
         25    1    4    4    0    0  0.55504237998E+02 -0.17124214137E+02 -0.21121973011E+03  0.25226026567E+03  0.12509000000E+03 0.  0.
         25    1    4    4    0    0  0.10788500817E+02 -0.56593409211E+02 -0.33136087415E+03  0.35884083203E+03  0.12509000000E+03 0.  0.
<mgrwt>
<rscale>  2 0.45756916E+03</rscale>
<asrwt>0</asrwt>
<pdfrwt beam="1">  1       21 0.66525462E-02 0.45756916E+03</pdfrwt>
<pdfrwt beam="2">  1       21 0.17015620E+00 0.45756916E+03</pdfrwt>
<totfact> 0.31449025E+04</totfact>
</mgrwt>
</event>
<event>
 7    0  0.4714446E-002  0.4619538E+03  0.7546771E-02  0.1024216E+00
         21   -1    0    0  502  501  0.00000000000E+00  0.00000000000E+00  0.33659060607E+03  0.33659060607E+03  0.00000000000E+00 0.  1.
         21   -1    0    0  501  502 -0.00000000000E+00 -0.00000000000E+00 -0.15850216237E+03  0.15850216237E+03  0.00000000000E+00 0.  1.
      99926    2    1    2    0    0  0.14210854715E-13  0.00000000000E+00  0.17808844370E+03  0.49509276845E+03  0.46195384574E+03 0.  0.
      99925    2    3    3    0    0  0.79909913638E+02 -0.25058246368E+02  0.20238782259E+03  0.34260841540E+03  0.26345053723E+03 0.  0.
         25    1    4    4    0    0  0.38430249087E+02 -0.46555506948E+02  0.13221874303E+03  0.19176444764E+03  0.12509000000E+03 0.  0.
         25    1    4    4    0    0  0.41479664550E+02  0.21497260579E+02  0.70169079559E+02  0.15084396776E+03  0.12509000000E+03 0.  0.
         25    1    3    3    0    0 -0.79909913638E+02  0.25058246368E+02 -0.24299378888E+02  0.15248435304E+03  0.12509000000E+03 0.  0.
<mgrwt>
<rscale>  2 0.46195385E+03</rscale>
<asrwt>0</asrwt>
<pdfrwt beam="1">  1       21 0.49498618E-01 0.46195385E+03</pdfrwt>
<pdfrwt beam="2">  1       21 0.23309142E-01 0.46195385E+03</pdfrwt>
<totfact> 0.62116254E+04</totfact>
</mgrwt>
</event>
<event>
 7    0  0.4714446E-002  0.4544833E+03  0.7546771E-02  0.1026393E+00
         21   -1    0    0  502  501  0.00000000000E+00  0.00000000000E+00  0.42830091328E+02  0.42830091328E+02  0.00000000000E+00 0. -1.
         21   -1    0    0  501  502 -0.00000000000E+00 -0.00000000000E+00 -0.12056655261E+04  0.12056655261E+04  0.00000000000E+00 0. -1.
      99926    2    1    2    0    0  0.00000000000E+00  0.00000000000E+00 -0.11628354347E+04  0.12484956174E+04  0.45448328722E+03 0.  0.
      99925    2    3    3    0    0  0.11158927482E+03 -0.93978294947E+01 -0.69938705302E+03  0.75557331512E+03  0.26307470259E+03 0.  0.
         25    1    3    3    0    0 -0.11158927482E+03  0.93978294947E+01 -0.46344838171E+03  0.49292230225E+03  0.12509000000E+03 0.  0.
         25    1    4    4    0    0  0.62539075920E+02  0.20884869930E+02 -0.27229218991E+03  0.30681893455E+03  0.12509000000E+03 0.  0.
         25    1    4    4    0    0  0.49050198902E+02 -0.30282699425E+02 -0.42709486310E+03  0.44875438058E+03  0.12509000000E+03 0.  0.
<mgrwt>
<rscale>  2 0.45448329E+03</rscale>
<asrwt>0</asrwt>
<pdfrwt beam="1">  1       21 0.62985433E-02 0.45448329E+03</pdfrwt>
<pdfrwt beam="2">  1       21 0.17730374E+00 0.45448329E+03</pdfrwt>
<totfact> 0.30771517E+04</totfact>
</mgrwt>
</event>
<event>
 7    0  0.4714446E-002  0.4443952E+03  0.7546771E-02  0.1029407E+00
         21   -1    0    0  502  501  0.00000000000E+00  0.00000000000E+00  0.19041061287E+03  0.19041061287E+03  0.00000000000E+00 0.  1.
         21   -1    0    0  501  502 -0.00000000000E+00 -0.00000000000E+00 -0.25929111398E+03  0.25929111398E+03  0.00000000000E+00 0.  1.
      99926    2    1    2    0    0  0.00000000000E+00  0.00000000000E+00 -0.68880501110E+02  0.44970172685E+03  0.44439522916E+03 0.  0.
      99925    2    3    3    0    0  0.39791725787E+01  0.96921530975E+02 -0.77190464440E+01  0.28000243806E+03  0.26254935662E+03 0.  0.
         25    1    4    4    0    0 -0.15502018795E+02  0.86390038320E+02 -0.15719830909E+01  0.15281861974E+03  0.12509000000E+03 0.  0.
         25    1    3    3    0    0 -0.39791725787E+01 -0.96921530975E+02 -0.61161454666E+02  0.16969928880E+03  0.12509000000E+03 0.  0.
         25    1    4    4    0    0  0.19481191374E+02  0.10531492654E+02 -0.61470633530E+01  0.12718381832E+03  0.12509000000E+03 0.  0.
<mgrwt>
<rscale>  2 0.44439523E+03</rscale>
<asrwt>0</asrwt>
<pdfrwt beam="1">  1       21 0.28001561E-01 0.44439523E+03</pdfrwt>
<pdfrwt beam="2">  1       21 0.38131046E-01 0.44439523E+03</pdfrwt>
<totfact> 0.75089796E+04</totfact>
</mgrwt>
</event>
<event>
 7    0  0.4714446E-002  0.4491435E+03  0.7546771E-02  0.1027978E+00
         21   -1    0    0  502  501  0.00000000000E+00  0.00000000000E+00  0.56614555431E+02  0.56614555431E+02  0.00000000000E+00 0.  1.
         21   -1    0    0  501  502 -0.00000000000E+00 -0.00000000000E+00 -0.89080378454E+03  0.89080378454E+03  0.00000000000E+00 0.  1.
      99926    2    1    2    0    0 -0.17763568394E-14 -0.14210854715E-13 -0.83418922910E+03  0.94741833997E+03  0.44914345253E+03 0.  0.
      99925    2    3    3    0    0 -0.98031101172E+01 -0.10611601152E+03 -0.55860634411E+03  0.62655989225E+03  0.26302004111E+03 0.  0.
         25    1    4    4    0    0 -0.84853428379E+01 -0.72652834387E+02 -0.37376017577E+03  0.40086732529E+03  0.12509000000E+03 0.  0.
         25    1    4    4    0    0 -0.13177672793E+01 -0.33463177134E+02 -0.18484616834E+03  0.22569256697E+03  0.12509000000E+03 0.  0.
         25    1    3    3    0    0  0.98031101172E+01  0.10611601152E+03 -0.27558288499E+03  0.32085844771E+03  0.12509000000E+03 0.  0.
<mgrwt>
<rscale>  2 0.44914345E+03</rscale>
<asrwt>0</asrwt>
<pdfrwt beam="1">  1       21 0.83256701E-02 0.44914345E+03</pdfrwt>
<pdfrwt beam="2">  1       21 0.13100055E+00 0.44914345E+03</pdfrwt>
<totfact> 0.43189851E+04</totfact>
</mgrwt>
</event>
<event>
 7    0  0.4714446E-002  0.4388805E+03  0.7546771E-02  0.1031091E+00
         21   -1    0    0  502  501  0.00000000000E+00  0.00000000000E+00  0.11028588699E+03  0.11028588699E+03  0.00000000000E+00 0.  1.
         21   -1    0    0  501  502 -0.00000000000E+00 -0.00000000000E+00 -0.43662898398E+03  0.43662898398E+03  0.00000000000E+00 0.  1.
      99926    2    1    2    0    0  0.00000000000E+00  0.00000000000E+00 -0.32634309699E+03  0.54691487096E+03  0.43888046109E+03 0.  0.
      99925    2    3    3    0    0 -0.24099950157E+02  0.89958897257E+02 -0.24341205914E+03  0.37028396786E+03  0.26303493214E+03 0.  0.
         25    1    4    4    0    0 -0.33304479270E+02  0.59682708524E+02 -0.16992014463E+03  0.22179174396E+03  0.12509000000E+03 0.  0.
         25    1    4    4    0    0  0.92045291126E+01  0.30276188733E+02 -0.73491914510E+02  0.14849222390E+03  0.12509000000E+03 0.  0.
         25    1    3    3    0    0  0.24099950157E+02 -0.89958897257E+02 -0.82931037849E+02  0.17663090311E+03  0.12509000000E+03 0.  0.
<mgrwt>
<rscale>  2 0.43888046E+03</rscale>
<asrwt>0</asrwt>
<pdfrwt beam="1">  1       21 0.16218513E-01 0.43888046E+03</pdfrwt>
<pdfrwt beam="2">  1       21 0.64210143E-01 0.43888046E+03</pdfrwt>
<totfact> 0.70661132E+04</totfact>
</mgrwt>
</event>
<event>
 7    0  0.4714446E-002  0.4573441E+03  0.7546771E-02  0.1025554E+00
         21   -1    0    0  502  501  0.00000000000E+00  0.00000000000E+00  0.18506402573E+03  0.18506402573E+03  0.00000000000E+00 0.  1.
         21   -1    0    0  501  502 -0.00000000000E+00 -0.00000000000E+00 -0.28255580119E+03  0.28255580119E+03  0.00000000000E+00 0.  1.
      99926    2    1    2    0    0  0.00000000000E+00  0.00000000000E+00 -0.97491775454E+02  0.46761982692E+03  0.45734413328E+03 0.  0.
      99925    2    3    3    0    0  0.33781187015E+02 -0.76397952972E+02  0.20041240187E+02  0.27672893221E+03  0.26305785448E+03 0.  0.
         25    1    4    4    0    0  0.27264723988E+02 -0.74761104506E+02  0.29272023804E+02  0.15111898424E+03  0.12509000000E+03 0.  0.
         25    1    3    3    0    0 -0.33781187015E+02  0.76397952972E+02 -0.11753301564E+03  0.19089089470E+03  0.12509000000E+03 0.  0.
         25    1    4    4    0    0  0.65164630270E+01 -0.16368484660E+01 -0.92307836172E+01  0.12560994797E+03  0.12509000000E+03 0.  0.
<mgrwt>
<rscale>  2 0.45734413E+03</rscale>
<asrwt>0</asrwt>
<pdfrwt beam="1">  1       21 0.27215298E-01 0.45734413E+03</pdfrwt>
<pdfrwt beam="2">  1       21 0.41552323E-01 0.45734413E+03</pdfrwt>
<totfact> 0.66370916E+04</totfact>
</mgrwt>
</event>
<event>
 7    0  0.4714446E-002  0.4682963E+03  0.7546771E-02  0.1022402E+00
         21   -1    0    0  502  501  0.00000000000E+00  0.00000000000E+00  0.18426789015E+03  0.18426789015E+03  0.00000000000E+00 0. -1.
         21   -1    0    0  501  502 -0.00000000000E+00 -0.00000000000E+00 -0.29753068213E+03  0.29753068213E+03  0.00000000000E+00 0. -1.
      99926    2    1    2    0    0  0.00000000000E+00 -0.55511151231E-15 -0.11326279199E+03  0.48179857228E+03  0.46829627823E+03 0.  0.
      99925    2    3    3    0    0  0.69375724276E+02 -0.58014821498E+00 -0.17760763655E+03  0.32495121077E+03  0.26312637483E+03 0.  0.
         25    1    4    4    0    0  0.25884175011E+02  0.38048497887E+02 -0.74235691444E+02  0.15256514901E+03  0.12509000000E+03 0.  0.
         25    1    3    3    0    0 -0.69375724276E+02  0.58014821498E+00  0.64344844562E+02  0.15684736151E+03  0.12509000000E+03 0.  0.
         25    1    4    4    0    0  0.43491549265E+02 -0.38628646102E+02 -0.10337194510E+03  0.17238606177E+03  0.12509000000E+03 0.  0.
<mgrwt>
<rscale>  2 0.46829628E+03</rscale>
<asrwt>0</asrwt>
<pdfrwt beam="1">  1       21 0.27098219E-01 0.46829628E+03</pdfrwt>
<pdfrwt beam="2">  1       21 0.43754512E-01 0.46829628E+03</pdfrwt>
<totfact> 0.59986130E+04</totfact>
</mgrwt>
</event>
<event>
 7    0  0.4714446E-002  0.4558204E+03  0.7546771E-02  0.1026000E+00
         21   -1    0    0  502  501  0.00000000000E+00  0.00000000000E+00  0.10460077401E+04  0.10460077401E+04  0.00000000000E+00 0.  1.
         21   -1    0    0  501  502 -0.00000000000E+00 -0.00000000000E+00 -0.49658388497E+02  0.49658388497E+02  0.00000000000E+00 0.  1.
      99926    2    1    2    0    0  0.00000000000E+00  0.00000000000E+00  0.99634935162E+03  0.10956661286E+04  0.45582039765E+03 0.  0.
      99925    2    3    3    0    0  0.35278605676E+02 -0.28665377110E+02  0.37527312088E+03  0.46048940017E+03  0.26297202998E+03 0.  0.
         25    1    3    3    0    0 -0.35278605676E+02  0.28665377110E+02  0.62107623074E+03  0.63517672844E+03  0.12509000000E+03 0.  0.
         25    1    4    4    0    0  0.56968142317E+02 -0.25161243729E+02  0.18935937138E+03  0.23533579637E+03  0.12509000000E+03 0.  0.
         25    1    4    4    0    0 -0.21689536641E+02 -0.35041333813E+01  0.18591374950E+03  0.22515360380E+03  0.12509000000E+03 0.  0.
<mgrwt>
<rscale>  2 0.45582040E+03</rscale>
<asrwt>0</asrwt>
<pdfrwt beam="1">  1       21 0.15382465E+00 0.45582040E+03</pdfrwt>
<pdfrwt beam="2">  1       21 0.73027049E-02 0.45582040E+03</pdfrwt>
<totfact> 0.35417679E+04</totfact>
</mgrwt>
</event>
<event>
 7    0  0.4714446E-002  0.4430033E+03  0.7546771E-02  0.1029829E+00
         21   -1    0    0  502  501  0.00000000000E+00  0.00000000000E+00  0.54216901755E+03  0.54216901755E+03  0.00000000000E+00 0.  1.
         21   -1    0    0  501  502 -0.00000000000E+00 -0.00000000000E+00 -0.90493877032E+02  0.90493877032E+02  0.00000000000E+00 0.  1.
      99926    2    1    2    0    0  0.00000000000E+00  0.00000000000E+00  0.45167514052E+03  0.63266289458E+03  0.44300327947E+03 0.  0.
      99925    2    3    3    0    0  0.73190768698E+02 -0.46147825629E+02  0.36334596289E+03  0.45677639097E+03  0.26294081495E+03 0.  0.
         25    1    4    4    0    0  0.62704383031E+01 -0.20249169142E+02  0.21665857026E+03  0.25107327897E+03  0.12509000000E+03 0.  0.
         25    1    4    4    0    0  0.66920330395E+02 -0.25898656486E+02  0.14668739264E+03  0.20570311200E+03  0.12509000000E+03 0.  0.
         25    1    3    3    0    0 -0.73190768698E+02  0.46147825629E+02  0.88329177626E+02  0.17588650361E+03  0.12509000000E+03 0.  0.
<mgrwt>
<rscale>  2 0.44300328E+03</rscale>
<asrwt>0</asrwt>
<pdfrwt beam="1">  1       21 0.79730736E-01 0.44300328E+03</pdfrwt>
<pdfrwt beam="2">  1       21 0.13307923E-01 0.44300328E+03</pdfrwt>
<totfact> 0.62414687E+04</totfact>
</mgrwt>
</event>
<event>
 7    0  0.4714446E-002  0.5053518E+03  0.7546771E-02  0.1012391E+00
         21   -1    0    0  502  501  0.00000000000E+00  0.00000000000E+00  0.46071840730E+02  0.46071840730E+02  0.00000000000E+00 0.  1.
         21   -1    0    0  501  502 -0.00000000000E+00 -0.00000000000E+00 -0.13857728593E+04  0.13857728593E+04  0.00000000000E+00 0.  1.
      99926    2    1    2    0    0  0.00000000000E+00  0.14210854715E-13 -0.13397010186E+04  0.14318447000E+04  0.50535178425E+03 0.  0.
      99925    2    3    3    0    0  0.10408281467E+03 -0.71254059215E+02 -0.10688339811E+04  0.11079205834E+04  0.26300487951E+03 0.  0.
         25    1    3    3    0    0 -0.10408281467E+03  0.71254059215E+02 -0.27086703750E+03  0.32392411668E+03  0.12509000000E+03 0.  0.
         25    1    4    4    0    0  0.67890600955E+02 -0.74513969199E+02 -0.63008551544E+03  0.65024359295E+03  0.12509000000E+03 0.  0.
         25    1    4    4    0    0  0.36192213719E+02  0.32599099849E+01 -0.43874846564E+03  0.45767699041E+03  0.12509000000E+03 0.  0.
<mgrwt>
<rscale>  2 0.50535178E+03</rscale>
<asrwt>0</asrwt>
<pdfrwt beam="1">  1       21 0.67752702E-02 0.50535178E+03</pdfrwt>
<pdfrwt beam="2">  1       21 0.20379014E+00 0.50535178E+03</pdfrwt>
<totfact> 0.17555939E+04</totfact>
</mgrwt>
</event>
<event>
 7    0  0.4714446E-002  0.4569961E+03  0.7546771E-02  0.1025656E+00
         21   -1    0    0  502  501  0.00000000000E+00  0.00000000000E+00  0.26815660531E+03  0.26815660531E+03  0.00000000000E+00 0. -1.
         21   -1    0    0  501  502 -0.00000000000E+00 -0.00000000000E+00 -0.19470476249E+03  0.19470476249E+03  0.00000000000E+00 0. -1.
      99926    2    1    2    0    0  0.00000000000E+00  0.00000000000E+00  0.73451842817E+02  0.46286136780E+03  0.45699614067E+03 0.  0.
      99925    2    3    3    0    0 -0.83653899701E+02  0.22471272935E+02  0.12279314152E+03  0.30290823435E+03  0.26300629230E+03 0.  0.
         25    1    4    4    0    0 -0.63891265716E+02 -0.22843253105E+02  0.67005418111E+02  0.15729317278E+03  0.12509000000E+03 0.  0.
         25    1    4    4    0    0 -0.19762633985E+02  0.45314526040E+02  0.55787723413E+02  0.14561506157E+03  0.12509000000E+03 0.  0.
         25    1    3    3    0    0  0.83653899701E+02 -0.22471272935E+02 -0.49341298707E+02  0.15995313345E+03  0.12509000000E+03 0.  0.
<mgrwt>
<rscale>  2 0.45699614E+03</rscale>
<asrwt>0</asrwt>
<pdfrwt beam="1">  1       21 0.39434795E-01 0.45699614E+03</pdfrwt>
<pdfrwt beam="2">  1       21 0.28633053E-01 0.45699614E+03</pdfrwt>
<totfact> 0.66901185E+04</totfact>
</mgrwt>
</event>
<event>
 7    0  0.4714446E-002  0.4585740E+03  0.7546771E-02  0.1025196E+00
         21   -1    0    0  502  501  0.00000000000E+00  0.00000000000E+00  0.20719863319E+03  0.20719863319E+03  0.00000000000E+00 0. -1.
         21   -1    0    0  501  502 -0.00000000000E+00 -0.00000000000E+00 -0.25373008775E+03  0.25373008775E+03  0.00000000000E+00 0. -1.
      99926    2    1    2    0    0  0.14210854715E-13  0.00000000000E+00 -0.46531454555E+02  0.46092872094E+03  0.45857399570E+03 0.  0.
      99925    2    3    3    0    0 -0.70270020398E+02  0.83795228640E+02 -0.69454703235E+02  0.29320126481E+03  0.26302758368E+03 0.  0.
         25    1    4    4    0    0 -0.69521021847E+02  0.65429122189E+02 -0.25896253522E+02  0.15947497156E+03  0.12509000000E+03 0.  0.
         25    1    3    3    0    0  0.70270020398E+02 -0.83795228640E+02  0.22923248680E+02  0.16772745613E+03  0.12509000000E+03 0.  0.
         25    1    4    4    0    0 -0.74899855099E+00  0.18366106451E+02 -0.43558449713E+02  0.13372629325E+03  0.12509000000E+03 0.  0.
<mgrwt>
<rscale>  2 0.45857400E+03</rscale>
<asrwt>0</asrwt>
<pdfrwt beam="1">  1       21 0.30470387E-01 0.45857400E+03</pdfrwt>
<pdfrwt beam="2">  1       21 0.37313248E-01 0.45857400E+03</pdfrwt>
<totfact> 0.66205501E+04</totfact>
</mgrwt>
</event>
<event>
 7    0  0.4714446E-002  0.4520796E+03  0.7546771E-02  0.1027104E+00
         21   -1    0    0  502  501  0.00000000000E+00  0.00000000000E+00  0.22340585948E+03  0.22340585948E+03  0.00000000000E+00 0. -1.
         21   -1    0    0  501  502 -0.00000000000E+00 -0.00000000000E+00 -0.22870478514E+03  0.22870478514E+03  0.00000000000E+00 0. -1.
      99926    2    1    2    0    0  0.00000000000E+00  0.00000000000E+00 -0.52989256605E+01  0.45211064461E+03  0.45207959074E+03 0.  0.
      99925    2    3    3    0    0 -0.41071778979E+02 -0.95093586663E+02  0.34885292930E+02  0.28480266281E+03  0.26299409086E+03 0.  0.
         25    1    4    4    0    0 -0.24798265106E+02 -0.86474519818E+02  0.17257661967E+01  0.15408855538E+03  0.12509000000E+03 0.  0.
         25    1    3    3    0    0  0.41071778979E+02  0.95093586663E+02 -0.40184218591E+02  0.16730798181E+03  0.12509000000E+03 0.  0.
         25    1    4    4    0    0 -0.16273513873E+02 -0.86190668449E+01  0.33159526734E+02  0.13071410743E+03  0.12509000000E+03 0.  0.
<mgrwt>
<rscale>  2 0.45207959E+03</rscale>
<asrwt>0</asrwt>
<pdfrwt beam="1">  1       21 0.32853803E-01 0.45207959E+03</pdfrwt>
<pdfrwt beam="2">  1       21 0.33633057E-01 0.45207959E+03</pdfrwt>
<totfact> 0.70383812E+04</totfact>
</mgrwt>
</event>
<event>
 7    0  0.4714446E-002  0.4568103E+03  0.7546771E-02  0.1025710E+00
         21   -1    0    0  502  501  0.00000000000E+00  0.00000000000E+00  0.15838122065E+03  0.15838122065E+03  0.00000000000E+00 0. -1.
         21   -1    0    0  501  502 -0.00000000000E+00 -0.00000000000E+00 -0.32938829611E+03  0.32938829611E+03  0.00000000000E+00 0. -1.
      99926    2    1    2    0    0 -0.35527136788E-14  0.00000000000E+00 -0.17100707546E+03  0.48776951675E+03  0.45681033440E+03 0.  0.
      99925    2    3    3    0    0 -0.19777694915E+02 -0.97647913833E+02 -0.16855526640E+03  0.32783267997E+03  0.26293937692E+03 0.  0.
         25    1    3    3    0    0  0.19777694915E+02  0.97647913833E+02 -0.24518090676E+01  0.15993683678E+03  0.12509000000E+03 0.  0.
         25    1    4    4    0    0  0.13592343442E+02 -0.15181144950E+02 -0.89648093061E+02  0.15524016121E+03  0.12509000000E+03 0.  0.
         25    1    4    4    0    0 -0.33370038357E+02 -0.82466768882E+02 -0.78907173334E+02  0.17259251876E+03  0.12509000000E+03 0.  0.
<mgrwt>
<rscale>  2 0.45681033E+03</rscale>
<asrwt>0</asrwt>
<pdfrwt beam="1">  1       21 0.23291356E-01 0.45681033E+03</pdfrwt>
<pdfrwt beam="2">  1       21 0.48439455E-01 0.45681033E+03</pdfrwt>
<totfact> 0.65196723E+04</totfact>
</mgrwt>
</event>
<event>
 7    0  0.4714446E-002  0.4572564E+03  0.7546771E-02  0.1025580E+00
         21   -1    0    0  502  501  0.00000000000E+00  0.00000000000E+00  0.19280718921E+03  0.19280718921E+03  0.00000000000E+00 0. -1.
         21   -1    0    0  501  502 -0.00000000000E+00 -0.00000000000E+00 -0.27110427834E+03  0.27110427834E+03  0.00000000000E+00 0. -1.
      99926    2    1    2    0    0  0.00000000000E+00 -0.14210854715E-13 -0.78297089127E+02  0.46391146756E+03  0.45725640024E+03 0.  0.
      99925    2    3    3    0    0 -0.64912401546E+02 -0.95147632408E+02 -0.56993711672E+02  0.29254042619E+03  0.26280206612E+03 0.  0.
         25    1    4    4    0    0 -0.47867554152E+02 -0.36967987518E+02 -0.64805918116E+02  0.15331421971E+03  0.12509000000E+03 0.  0.
         25    1    4    4    0    0 -0.17044847394E+02 -0.58179644890E+02  0.78122064447E+01  0.13922620648E+03  0.12509000000E+03 0.  0.
         25    1    3    3    0    0  0.64912401546E+02  0.95147632408E+02 -0.21303377455E+02  0.17137104136E+03  0.12509000000E+03 0.  0.
<mgrwt>
<rscale>  2 0.45725640E+03</rscale>
<asrwt>0</asrwt>
<pdfrwt beam="1">  1       21 0.28353999E-01 0.45725640E+03</pdfrwt>
<pdfrwt beam="2">  1       21 0.39868276E-01 0.45725640E+03</pdfrwt>
<totfact> 0.66686768E+04</totfact>
</mgrwt>
</event>
<event>
 7    0  0.4714446E-002  0.4496419E+03  0.7546771E-02  0.1027829E+00
         21   -1    0    0  502  501  0.00000000000E+00  0.00000000000E+00  0.50040411801E+02  0.50040411801E+02  0.00000000000E+00 0.  1.
         21   -1    0    0  501  502 -0.00000000000E+00 -0.00000000000E+00 -0.10100728100E+04  0.10100728100E+04  0.00000000000E+00 0.  1.
      99926    2    1    2    0    0  0.00000000000E+00  0.00000000000E+00 -0.96003239823E+03  0.10601132218E+04  0.44964189913E+03 0.  0.
      99925    2    3    3    0    0  0.51754086376E+02  0.92919293690E+02 -0.65248792608E+03  0.71148219761E+03  0.26297137344E+03 0.  0.
         25    1    4    4    0    0  0.56991797265E+02  0.31668032932E+02 -0.38164307614E+03  0.40687820650E+03  0.12509000000E+03 0.  0.
         25    1    4    4    0    0 -0.52377108883E+01  0.61251260758E+02 -0.27084484994E+03  0.30460399111E+03  0.12509000000E+03 0.  0.
         25    1    3    3    0    0 -0.51754086376E+02 -0.92919293690E+02 -0.30754447215E+03  0.34863102422E+03  0.12509000000E+03 0.  0.
<mgrwt>
<rscale>  2 0.44964190E+03</rscale>
<asrwt>0</asrwt>
<pdfrwt beam="1">  1       21 0.73588842E-02 0.44964190E+03</pdfrwt>
<pdfrwt beam="2">  1       21 0.14854012E+00 0.44964190E+03</pdfrwt>
<totfact> 0.38493114E+04</totfact>
</mgrwt>
</event>
<event>
 7    0  0.4714446E-002  0.4667540E+03  0.7546771E-02  0.1022840E+00
         21   -1    0    0  502  501  0.00000000000E+00  0.00000000000E+00  0.16492058552E+03  0.16492058552E+03  0.00000000000E+00 0.  1.
         21   -1    0    0  501  502 -0.00000000000E+00 -0.00000000000E+00 -0.33024875538E+03  0.33024875538E+03  0.00000000000E+00 0.  1.
      99926    2    1    2    0    0  0.00000000000E+00  0.00000000000E+00 -0.16532816986E+03  0.49516934090E+03  0.46675397419E+03 0.  0.
      99925    2    3    3    0    0 -0.87245711547E+02  0.67707885200E+02 -0.16254674555E+03  0.32828190482E+03  0.26296652380E+03 0.  0.
         25    1    4    4    0    0 -0.53951116740E+02  0.50035857908E+02 -0.43432312522E+02  0.15148658008E+03  0.12509000000E+03 0.  0.
         25    1    4    4    0    0 -0.33294594807E+02  0.17672027292E+02 -0.11911443303E+03  0.17679532474E+03  0.12509000000E+03 0.  0.
         25    1    3    3    0    0  0.87245711547E+02 -0.67707885200E+02 -0.27814243003E+01  0.16688743608E+03  0.12509000000E+03 0.  0.
<mgrwt>
<rscale>  2 0.46675397E+03</rscale>
<asrwt>0</asrwt>
<pdfrwt beam="1">  1       21 0.24253028E-01 0.46675397E+03</pdfrwt>
<pdfrwt beam="2">  1       21 0.48565992E-01 0.46675397E+03</pdfrwt>
<totfact> 0.59830686E+04</totfact>
</mgrwt>
</event>
<event>
 7    0  0.4714446E-002  0.4527634E+03  0.7546771E-02  0.1026901E+00
         21   -1    0    0  502  501  0.00000000000E+00  0.00000000000E+00  0.24083735774E+03  0.24083735774E+03  0.00000000000E+00 0.  1.
         21   -1    0    0  501  502 -0.00000000000E+00 -0.00000000000E+00 -0.21279367665E+03  0.21279367665E+03  0.00000000000E+00 0.  1.
      99926    2    1    2    0    0  0.00000000000E+00  0.00000000000E+00  0.28043681091E+02  0.45363103440E+03  0.45276336791E+03 0.  0.
      99925    2    3    3    0    0 -0.49246114675E+02 -0.98936418426E+02  0.66672674825E+01  0.28535134501E+03  0.26299684968E+03 0.  0.
         25    1    4    4    0    0 -0.20942179650E+02 -0.63729972593E+02  0.41470590660E+02  0.14787630738E+03  0.12509000000E+03 0.  0.
         25    1    4    4    0    0 -0.28303935026E+02 -0.35206445833E+02 -0.34803323178E+02  0.13747503763E+03  0.12509000000E+03 0.  0.
         25    1    3    3    0    0  0.49246114675E+02  0.98936418426E+02  0.21376413608E+02  0.16827968939E+03  0.12509000000E+03 0.  0.
<mgrwt>
<rscale>  2 0.45276337E+03</rscale>
<asrwt>0</asrwt>
<pdfrwt beam="1">  1       21 0.35417259E-01 0.45276337E+03</pdfrwt>
<pdfrwt beam="2">  1       21 0.31293188E-01 0.45276337E+03</pdfrwt>
<totfact> 0.69885076E+04</totfact>
</mgrwt>
</event>
<event>
 7    0  0.4714446E-002  0.4559187E+03  0.7546771E-02  0.1025972E+00
         21   -1    0    0  502  501  0.00000000000E+00  0.00000000000E+00  0.14385095806E+03  0.14385095806E+03  0.00000000000E+00 0.  1.
         21   -1    0    0  501  502 -0.00000000000E+00 -0.00000000000E+00 -0.36124512901E+03  0.36124512901E+03  0.00000000000E+00 0.  1.
      99926    2    1    2    0    0  0.00000000000E+00  0.00000000000E+00 -0.21739417096E+03  0.50509608707E+03  0.45591866775E+03 0.  0.
      99925    2    3    3    0    0  0.74863578020E+01  0.19224633725E+02 -0.12441881342E+02  0.26410110535E+03  0.26299992650E+03 0.  0.
         25    1    4    4    0    0  0.35227653684E+02  0.12665886264E+02 -0.31706166552E+02  0.13436592335E+03  0.12509000000E+03 0.  0.
         25    1    4    4    0    0 -0.27741295882E+02  0.65587474606E+01  0.19264285210E+02  0.12973518201E+03  0.12509000000E+03 0.  0.
         25    1    3    3    0    0 -0.74863578020E+01 -0.19224633725E+02 -0.20495228961E+03  0.24099498172E+03  0.12509000000E+03 0.  0.
<mgrwt>
<rscale>  2 0.45591867E+03</rscale>
<asrwt>0</asrwt>
<pdfrwt beam="1">  1       21 0.21154553E-01 0.45591867E+03</pdfrwt>
<pdfrwt beam="2">  1       21 0.53124284E-01 0.45591867E+03</pdfrwt>
<totfact> 0.64442921E+04</totfact>
</mgrwt>
</event>
<event>
 7    0  0.4714446E-002  0.4569303E+03  0.7546771E-02  0.1025675E+00
         21   -1    0    0  502  501  0.00000000000E+00  0.00000000000E+00  0.36276778451E+03  0.36276778451E+03  0.00000000000E+00 0. -1.
         21   -1    0    0  501  502 -0.00000000000E+00 -0.00000000000E+00 -0.14388360001E+03  0.14388360001E+03  0.00000000000E+00 0. -1.
      99926    2    1    2    0    0 -0.35527136788E-14  0.00000000000E+00  0.21888418450E+03  0.50665138452E+03  0.45693034394E+03 0.  0.
      99925    2    3    3    0    0  0.15217609626E+02 -0.78332605414E+02  0.22902962201E+03  0.35793013279E+03  0.26323343156E+03 0.  0.
         25    1    4    4    0    0 -0.17638698248E+02 -0.61494952904E+02  0.87741113737E+02  0.16564650328E+03  0.12509000000E+03 0.  0.
         25    1    4    4    0    0  0.32856307874E+02 -0.16837652510E+02  0.14128850827E+03  0.19228362951E+03  0.12509000000E+03 0.  0.
         25    1    3    3    0    0 -0.15217609626E+02  0.78332605414E+02 -0.10145437504E+02  0.14872125173E+03  0.12509000000E+03 0.  0.
<mgrwt>
<rscale>  2 0.45693034E+03</rscale>
<asrwt>0</asrwt>
<pdfrwt beam="1">  1       21 0.53348204E-01 0.45693034E+03</pdfrwt>
<pdfrwt beam="2">  1       21 0.21159353E-01 0.45693034E+03</pdfrwt>
<totfact> 0.63822388E+04</totfact>
</mgrwt>
</event>
<event>
 7    0  0.4714446E-002  0.4540813E+03  0.7546771E-02  0.1026512E+00
         21   -1    0    0  502  501  0.00000000000E+00  0.00000000000E+00  0.17078939169E+03  0.17078939169E+03  0.00000000000E+00 0. -1.
         21   -1    0    0  501  502 -0.00000000000E+00 -0.00000000000E+00 -0.30181880553E+03  0.30181880553E+03  0.00000000000E+00 0. -1.
      99926    2    1    2    0    0  0.00000000000E+00 -0.14210854715E-13 -0.13102941385E+03  0.47260819722E+03  0.45408127113E+03 0.  0.
      99925    2    3    3    0    0  0.76850499226E+02  0.73637044093E+02 -0.45333572682E+02  0.28735243136E+03  0.26303587873E+03 0.  0.
         25    1    3    3    0    0 -0.76850499226E+02 -0.73637044093E+02 -0.85695841164E+02  0.18525576587E+03  0.12509000000E+03 0.  0.
         25    1    4    4    0    0  0.54149965193E+02  0.67807279755E+02  0.32533687682E-01  0.15224176522E+03  0.12509000000E+03 0.  0.
         25    1    4    4    0    0  0.22700534033E+02  0.58297643381E+01 -0.45366106369E+02  0.13511066614E+03  0.12509000000E+03 0.  0.
<mgrwt>
<rscale>  2 0.45408127E+03</rscale>
<asrwt>0</asrwt>
<pdfrwt beam="1">  1       21 0.25116088E-01 0.45408127E+03</pdfrwt>
<pdfrwt beam="2">  1       21 0.44385118E-01 0.45408127E+03</pdfrwt>
<totfact> 0.67734719E+04</totfact>
</mgrwt>
</event>
<event>
 7    0  0.4714446E-002  0.4601836E+03  0.7546771E-02  0.1024728E+00
         21   -1    0    0  502  501  0.00000000000E+00  0.00000000000E+00  0.76685198390E+02  0.76685198390E+02  0.00000000000E+00 0.  1.
         21   -1    0    0  501  502 -0.00000000000E+00 -0.00000000000E+00 -0.69038388772E+03  0.69038388772E+03  0.00000000000E+00 0.  1.
      99926    2    1    2    0    0  0.14210854715E-13 -0.35527136788E-14 -0.61369868933E+03  0.76706908611E+03  0.46018355205E+03 0.  0.
      99925    2    3    3    0    0 -0.10628312275E+03  0.25376783168E+02 -0.45850590014E+03  0.53975346143E+03  0.26299440176E+03 0.  0.
         25    1    3    3    0    0  0.10628312275E+03 -0.25376783168E+02 -0.15519278919E+03  0.22731562467E+03  0.12509000000E+03 0.  0.
         25    1    4    4    0    0 -0.32748555243E+02  0.32589790832E+02 -0.16407722259E+03  0.21143179849E+03  0.12509000000E+03 0.  0.
         25    1    4    4    0    0 -0.73534567507E+02 -0.72130076641E+01 -0.29442867755E+03  0.32832166295E+03  0.12509000000E+03 0.  0.
<mgrwt>
<rscale>  2 0.46018355E+03</rscale>
<asrwt>0</asrwt>
<pdfrwt beam="1">  1       21 0.11277234E-01 0.46018355E+03</pdfrwt>
<pdfrwt beam="2">  1       21 0.10152705E+00 0.46018355E+03</pdfrwt>
<totfact> 0.47438673E+04</totfact>
</mgrwt>
</event>
<event>
 7    0  0.4714446E-002  0.4523535E+03  0.7546771E-02  0.1027023E+00
         21   -1    0    0  502  501  0.00000000000E+00  0.00000000000E+00  0.17563674142E+03  0.17563674142E+03  0.00000000000E+00 0. -1.
         21   -1    0    0  501  502 -0.00000000000E+00 -0.00000000000E+00 -0.29125981807E+03  0.29125981807E+03  0.00000000000E+00 0. -1.
      99926    2    1    2    0    0  0.00000000000E+00  0.00000000000E+00 -0.11562307666E+03  0.46689655949E+03  0.45235351376E+03 0.  0.
      99925    2    3    3    0    0 -0.84247151819E+02 -0.71701653717E+02 -0.70652109005E+02  0.29395551241E+03  0.26301979589E+03 0.  0.
         25    1    4    4    0    0  0.19468211911E+00 -0.30240028875E+02 -0.27468353521E+02  0.13159223303E+03  0.12509000000E+03 0.  0.
         25    1    4    4    0    0 -0.84441833938E+02 -0.41461624842E+02 -0.43183755484E+02  0.16236327938E+03  0.12509000000E+03 0.  0.
         25    1    3    3    0    0  0.84247151819E+02  0.71701653717E+02 -0.44970967652E+02  0.17294104708E+03  0.12509000000E+03 0.  0.
<mgrwt>
<rscale>  2 0.45235351E+03</rscale>
<asrwt>0</asrwt>
<pdfrwt beam="1">  1       21 0.25828933E-01 0.45235351E+03</pdfrwt>
<pdfrwt beam="2">  1       21 0.42832326E-01 0.45235351E+03</pdfrwt>
<totfact> 0.69106718E+04</totfact>
</mgrwt>
</event>
<event>
 7    0  0.4714446E-002  0.4547107E+03  0.7546771E-02  0.1026327E+00
         21   -1    0    0  502  501  0.00000000000E+00  0.00000000000E+00  0.19430954102E+03  0.19430954102E+03  0.00000000000E+00 0. -1.
         21   -1    0    0  501  502 -0.00000000000E+00 -0.00000000000E+00 -0.26602122511E+03  0.26602122511E+03  0.00000000000E+00 0. -1.
      99926    2    1    2    0    0  0.71054273576E-14  0.00000000000E+00 -0.71711684085E+02  0.46033076613E+03  0.45471073070E+03 0.  0.
      99925    2    3    3    0    0 -0.55613624909E+02  0.42393032307E+02 -0.13485409577E+03  0.30372771151E+03  0.26301112358E+03 0.  0.
         25    1    3    3    0    0  0.55613624909E+02 -0.42393032307E+02  0.63142411685E+02  0.15660305462E+03  0.12509000000E+03 0.  0.
         25    1    4    4    0    0 -0.46585574823E+02  0.25275980704E+02 -0.10983511953E+03  0.17470075147E+03  0.12509000000E+03 0.  0.
         25    1    4    4    0    0 -0.90280500853E+01  0.17117051603E+02 -0.25018976241E+02  0.12902696004E+03  0.12509000000E+03 0.  0.
<mgrwt>
<rscale>  2 0.45471073E+03</rscale>
<asrwt>0</asrwt>
<pdfrwt beam="1">  1       21 0.28574933E-01 0.45471073E+03</pdfrwt>
<pdfrwt beam="2">  1       21 0.39120768E-01 0.45471073E+03</pdfrwt>
<totfact> 0.68313894E+04</totfact>
</mgrwt>
</event>
<event>
 7    0  0.4714446E-002  0.4580254E+03  0.7546771E-02  0.1025355E+00
         21   -1    0    0  502  501  0.00000000000E+00  0.00000000000E+00  0.34632305231E+03  0.34632305231E+03  0.00000000000E+00 0.  1.
         21   -1    0    0  501  502 -0.00000000000E+00 -0.00000000000E+00 -0.15143901118E+03  0.15143901118E+03  0.00000000000E+00 0.  1.
      99926    2    1    2    0    0  0.00000000000E+00  0.00000000000E+00  0.19488404112E+03  0.49776206349E+03  0.45802541672E+03 0.  0.
      99925    2    3    3    0    0  0.10694093148E+03 -0.35466592978E+02  0.92735092918E+02  0.30084543706E+03  0.26308541864E+03 0.  0.
         25    1    4    4    0    0  0.72849947729E+02  0.11787601553E+01  0.15610541219E+02  0.14560117258E+03  0.12509000000E+03 0.  0.
         25    1    3    3    0    0 -0.10694093148E+03  0.35466592978E+02  0.10214894821E+03  0.19691662643E+03  0.12509000000E+03 0.  0.
         25    1    4    4    0    0  0.34090983752E+02 -0.36645353134E+02  0.77124551699E+02  0.15524426448E+03  0.12509000000E+03 0.  0.
<mgrwt>
<rscale>  2 0.45802542E+03</rscale>
<asrwt>0</asrwt>
<pdfrwt beam="1">  1       21 0.50929861E-01 0.45802542E+03</pdfrwt>
<pdfrwt beam="2">  1       21 0.22270443E-01 0.45802542E+03</pdfrwt>
<totfact> 0.63880110E+04</totfact>
</mgrwt>
</event>
<event>
 7    0  0.4714446E-002  0.3937590E+03  0.7546771E-02  0.1045962E+00
         21   -1    0    0  502  501  0.00000000000E+00  0.00000000000E+00  0.45418340203E+03  0.45418340203E+03  0.00000000000E+00 0. -1.
         21   -1    0    0  501  502 -0.00000000000E+00 -0.00000000000E+00 -0.85343355869E+02  0.85343355869E+02  0.00000000000E+00 0. -1.
      99926    2    1    2    0    0 -0.99920072216E-15  0.17763568394E-14  0.36884004616E+03  0.53952675790E+03  0.39375899080E+03 0.  0.
      99925    2    3    3    0    0  0.29524784846E+00 -0.14262645983E+02  0.28737115407E+03  0.38956610066E+03  0.26263293082E+03 0.  0.
         25    1    3    3    0    0 -0.29524784846E+00  0.14262645983E+02  0.81468892091E+02  0.14996065724E+03  0.12509000000E+03 0.  0.
         25    1    4    4    0    0  0.29916764715E+02 -0.28471497440E+02  0.12127364762E+03  0.17905430652E+03  0.12509000000E+03 0.  0.
         25    1    4    4    0    0 -0.29621516866E+02  0.14208851458E+02  0.16609750646E+03  0.21051179414E+03  0.12509000000E+03 0.  0.
<mgrwt>
<rscale>  2 0.39375899E+03</rscale>
<asrwt>0</asrwt>
<pdfrwt beam="1">  1       21 0.66791676E-01 0.39375899E+03</pdfrwt>
<pdfrwt beam="2">  1       21 0.12550494E-01 0.39375899E+03</pdfrwt>
<totfact> 0.10487970E+05</totfact>
</mgrwt>
</event>
<event>
 6    0  0.4714446E-002  0.4588728E+03  0.7546771E-02  0.1025109E+00
         21   -1    0    0  502  501  0.00000000000E+00  0.00000000000E+00  0.17939791166E+04  0.17939791166E+04  0.00000000000E+00 0.  1.
         21   -1    0    0  501  502 -0.00000000000E+00 -0.00000000000E+00 -0.29343178945E+02  0.29343178945E+02  0.00000000000E+00 0.  1.
      99926    2    1    2    0    0  0.00000000000E+00 -0.71054273576E-14  0.17646359377E+04  0.18233222956E+04  0.45887275030E+03 0.  0.
         25    1    3    3    0    0 -0.52777329251E+02  0.66650867987E+02  0.60137014011E+03  0.62009784567E+03  0.12509000000E+03 0.  0.
         25    1    3    3    0    0 -0.53016854659E+02 -0.25980156877E+02  0.55397199951E+03  0.57098006950E+03  0.12509000000E+03 0.  0.
         25    1    3    3    0    0  0.10579418391E+03 -0.40670711110E+02  0.60929379808E+03  0.63224438042E+03  0.12509000000E+03 0.  0.
<mgrwt>
<rscale>  2 0.45887275E+03</rscale>
<asrwt>0</asrwt>
<pdfrwt beam="1">  1       21 0.26382038E+00 0.45887275E+03</pdfrwt>
<pdfrwt beam="2">  1       21 0.43151746E-02 0.45887275E+03</pdfrwt>
<totfact> 0.16319436E+04</totfact>
</mgrwt>
</event>
<event>
 7    0  0.4714446E-002  0.4709767E+03  0.7546771E-02  0.1021645E+00
         21   -1    0    0  502  501  0.00000000000E+00  0.00000000000E+00  0.72010971738E+03  0.72010971738E+03  0.00000000000E+00 0.  1.
         21   -1    0    0  501  502 -0.00000000000E+00 -0.00000000000E+00 -0.77008769270E+02  0.77008769270E+02  0.00000000000E+00 0.  1.
      99926    2    1    2    0    0  0.00000000000E+00 -0.14210854715E-13  0.64310094811E+03  0.79711848665E+03  0.47097670038E+03 0.  0.
      99925    2    3    3    0    0 -0.12442324035E+02 -0.12669087963E+03  0.38575345636E+03  0.48394021470E+03  0.26303424093E+03 0.  0.
         25    1    4    4    0    0  0.14480590816E+01 -0.97631237763E+02  0.25351188909E+03  0.29908149637E+03  0.12509000000E+03 0.  0.
         25    1    3    3    0    0  0.12442324035E+02  0.12669087963E+03  0.25734749175E+03  0.31317827195E+03  0.12509000000E+03 0.  0.
         25    1    4    4    0    0 -0.13890383117E+02 -0.29059641871E+02  0.13224156727E+03  0.18485871833E+03  0.12509000000E+03 0.  0.
<mgrwt>
<rscale>  2 0.47097670E+03</rscale>
<asrwt>0</asrwt>
<pdfrwt beam="1">  1       21 0.10589848E+00 0.47097670E+03</pdfrwt>
<pdfrwt beam="2">  1       21 0.11324819E-01 0.47097670E+03</pdfrwt>
<totfact> 0.42340760E+04</totfact>
</mgrwt>
</event>
<event>
 7    0  0.4714446E-002  0.4619460E+03  0.7546771E-02  0.1024218E+00
         21   -1    0    0  502  501  0.00000000000E+00  0.00000000000E+00  0.70704505873E+02  0.70704505873E+02  0.00000000000E+00 0.  1.
         21   -1    0    0  501  502 -0.00000000000E+00 -0.00000000000E+00 -0.75452799893E+03  0.75452799893E+03  0.00000000000E+00 0.  1.
      99926    2    1    2    0    0  0.00000000000E+00 -0.71054273576E-14 -0.68382349305E+03  0.82523250480E+03  0.46194601127E+03 0.  0.
      99925    2    3    3    0    0  0.10089942541E+03  0.62200422175E+02 -0.39985694074E+03  0.49306673669E+03  0.26302024106E+03 0.  0.
         25    1    4    4    0    0  0.23637353934E+02  0.59470255565E+02 -0.21521349877E+03  0.25702099905E+03  0.12509000000E+03 0.  0.
         25    1    4    4    0    0  0.77262071480E+02  0.27301666099E+01 -0.18464344197E+03  0.23604573764E+03  0.12509000000E+03 0.  0.
         25    1    3    3    0    0 -0.10089942541E+03 -0.62200422175E+02 -0.28396655232E+03  0.33216576811E+03  0.12509000000E+03 0.  0.
<mgrwt>
<rscale>  2 0.46194601E+03</rscale>
<asrwt>0</asrwt>
<pdfrwt beam="1">  1       21 0.10397721E-01 0.46194601E+03</pdfrwt>
<pdfrwt beam="2">  1       21 0.11096000E+00 0.46194601E+03</pdfrwt>
<totfact> 0.44114553E+04</totfact>
</mgrwt>
</event>
<event>
 7    0  0.4714446E-002  0.4580180E+03  0.7546771E-02  0.1025358E+00
         21   -1    0    0  502  501  0.00000000000E+00  0.00000000000E+00  0.34596628640E+02  0.34596628640E+02  0.00000000000E+00 0.  1.
         21   -1    0    0  501  502 -0.00000000000E+00 -0.00000000000E+00 -0.15159026643E+04  0.15159026643E+04  0.00000000000E+00 0.  1.
      99926    2    1    2    0    0 -0.14210854715E-13  0.00000000000E+00 -0.14813060357E+04  0.15504992929E+04  0.45801799760E+03 0.  0.
      99925    2    3    3    0    0 -0.84791652561E+02  0.19137679621E+02 -0.66941618007E+03  0.72444328949E+03  0.26295281406E+03 0.  0.
         25    1    4    4    0    0 -0.45350235679E+02  0.92943425799E+01 -0.44247424830E+03  0.46214066818E+03  0.12509000000E+03 0.  0.
         25    1    3    3    0    0  0.84791652561E+02 -0.19137679621E+02 -0.81188985558E+03  0.82605600344E+03  0.12509000000E+03 0.  0.
         25    1    4    4    0    0 -0.39441416882E+02  0.98433370408E+01 -0.22694193177E+03  0.26230262131E+03  0.12509000000E+03 0.  0.
<mgrwt>
<rscale>  2 0.45801800E+03</rscale>
<asrwt>0</asrwt>
<pdfrwt beam="1">  1       21 0.50877395E-02 0.45801800E+03</pdfrwt>
<pdfrwt beam="2">  1       21 0.22292686E+00 0.45801800E+03</pdfrwt>
<totfact> 0.22046893E+04</totfact>
</mgrwt>
</event>
<event>
 7    0  0.4714446E-002  0.4566637E+03  0.7546771E-02  0.1025753E+00
         21   -1    0    0  502  501  0.00000000000E+00  0.00000000000E+00  0.32207816664E+03  0.32207816664E+03  0.00000000000E+00 0.  1.
         21   -1    0    0  501  502 -0.00000000000E+00 -0.00000000000E+00 -0.16187202400E+03  0.16187202400E+03  0.00000000000E+00 0.  1.
      99926    2    1    2    0    0  0.00000000000E+00  0.00000000000E+00  0.16020614264E+03  0.48395019063E+03  0.45666374815E+03 0.  0.
      99925    2    3    3    0    0 -0.32289181763E+02  0.99401813211E+02  0.15082805157E+03  0.32067505958E+03  0.26298304312E+03 0.  0.
         25    1    3    3    0    0  0.32289181763E+02 -0.99401813211E+02  0.93780910672E+01  0.16327513105E+03  0.12509000000E+03 0.  0.
         25    1    4    4    0    0 -0.18543766380E+02  0.57232950523E+02  0.12213418785E+03  0.18488847947E+03  0.12509000000E+03 0.  0.
         25    1    4    4    0    0 -0.13745415382E+02  0.42168862688E+02  0.28693863717E+02  0.13578658012E+03  0.12509000000E+03 0.  0.
<mgrwt>
<rscale>  2 0.45666375E+03</rscale>
<asrwt>0</asrwt>
<pdfrwt beam="1">  1       21 0.47364436E-01 0.45666375E+03</pdfrwt>
<pdfrwt beam="2">  1       21 0.23804709E-01 0.45666375E+03</pdfrwt>
<totfact> 0.65543744E+04</totfact>
</mgrwt>
</event>
<event>
 6    0  0.4714446E-002  0.4487663E+03  0.7546771E-02  0.1028091E+00
         21   -1    0    0  502  501  0.00000000000E+00  0.00000000000E+00  0.50202510251E+03  0.50202510251E+03  0.00000000000E+00 0. -1.
         21   -1    0    0  501  502 -0.00000000000E+00 -0.00000000000E+00 -0.10028939534E+03  0.10028939534E+03  0.00000000000E+00 0. -1.
      99926    2    1    2    0    0  0.71054273576E-14  0.00000000000E+00  0.40173570718E+03  0.60231449785E+03  0.44876628204E+03 0.  0.
         25    1    3    3    0    0  0.16535515307E+02  0.84491078195E+02  0.16558228938E+03  0.22467124475E+03  0.12509000000E+03 0.  0.
         25    1    3    3    0    0 -0.32493674081E+02 -0.90899940423E+02  0.80859835482E+02  0.17749495519E+03  0.12509000000E+03 0.  0.
         25    1    3    3    0    0  0.15958158775E+02  0.64088622287E+01  0.15529358232E+03  0.20014829791E+03  0.12509000000E+03 0.  0.
<mgrwt>
<rscale>  2 0.44876628E+03</rscale>
<asrwt>0</asrwt>
<pdfrwt beam="1">  1       21 0.73827220E-01 0.44876628E+03</pdfrwt>
<pdfrwt beam="2">  1       21 0.14748441E-01 0.44876628E+03</pdfrwt>
<totfact> 0.61509837E+04</totfact>
</mgrwt>
</event>
<event>
 7    0  0.4714446E-002  0.4617487E+03  0.7546771E-02  0.1024275E+00
         21   -1    0    0  502  501  0.00000000000E+00  0.00000000000E+00  0.11606319045E+03  0.11606319045E+03  0.00000000000E+00 0.  1.
         21   -1    0    0  501  502 -0.00000000000E+00 -0.00000000000E+00 -0.45925819662E+03  0.45925819662E+03  0.00000000000E+00 0.  1.
      99926    2    1    2    0    0  0.00000000000E+00 -0.14210854715E-13 -0.34319500618E+03  0.57532138707E+03  0.46174872621E+03 0.  0.
      99925    2    3    3    0    0  0.94465048838E+02  0.72795070159E+02 -0.20907212487E+03  0.35655387787E+03  0.26305274516E+03 0.  0.
         25    1    4    4    0    0  0.38910968908E+02  0.72236276716E+02 -0.86413673881E+02  0.17276276887E+03  0.12509000000E+03 0.  0.
         25    1    3    3    0    0 -0.94465048838E+02 -0.72795070159E+02 -0.13412288131E+03  0.21876750920E+03  0.12509000000E+03 0.  0.
         25    1    4    4    0    0  0.55554079930E+02  0.55879344297E+00 -0.12265845099E+03  0.18379110899E+03  0.12509000000E+03 0.  0.
<mgrwt>
<rscale>  2 0.46174873E+03</rscale>
<asrwt>0</asrwt>
<pdfrwt beam="1">  1       21 0.17068117E-01 0.46174873E+03</pdfrwt>
<pdfrwt beam="2">  1       21 0.67537969E-01 0.46174873E+03</pdfrwt>
<totfact> 0.57114349E+04</totfact>
</mgrwt>
</event>
<event>
 7    0  0.4714446E-002  0.4586517E+03  0.7546771E-02  0.1025173E+00
         21   -1    0    0  502  501  0.00000000000E+00  0.00000000000E+00  0.38391127481E+03  0.38391127481E+03  0.00000000000E+00 0. -1.
         21   -1    0    0  501  502 -0.00000000000E+00 -0.00000000000E+00 -0.13698566194E+03  0.13698566194E+03  0.00000000000E+00 0. -1.
      99926    2    1    2    0    0  0.00000000000E+00 -0.35527136788E-14  0.24692561287E+03  0.52089693674E+03  0.45865167657E+03 0.  0.
      99925    2    3    3    0    0  0.80359070293E+02  0.10200511271E+02  0.59591327806E+02  0.28151591605E+03  0.26294192141E+03 0.  0.
         25    1    4    4    0    0  0.41493328632E+02 -0.34905661646E+02  0.35706428326E+02  0.14093459000E+03  0.12509000000E+03 0.  0.
         25    1    3    3    0    0 -0.80359070293E+02 -0.10200511271E+02  0.18733428506E+03  0.23938102069E+03  0.12509000000E+03 0.  0.
         25    1    4    4    0    0  0.38865741661E+02  0.45106172917E+02  0.23884899481E+02  0.14058132605E+03  0.12509000000E+03 0.  0.
<mgrwt>
<rscale>  2 0.45865168E+03</rscale>
<asrwt>0</asrwt>
<pdfrwt beam="1">  1       21 0.56457540E-01 0.45865168E+03</pdfrwt>
<pdfrwt beam="2">  1       21 0.20144950E-01 0.45865168E+03</pdfrwt>
<totfact> 0.62010022E+04</totfact>
</mgrwt>
</event>
<event>
 7    0  0.4714446E-002  0.4256087E+03  0.7546771E-02  0.1035256E+00
         21   -1    0    0  502  501  0.00000000000E+00  0.00000000000E+00  0.14851627780E+03  0.14851627780E+03  0.00000000000E+00 0.  1.
         21   -1    0    0  501  502 -0.00000000000E+00 -0.00000000000E+00 -0.30492073016E+03  0.30492073016E+03  0.00000000000E+00 0.  1.
      99926    2    1    2    0    0  0.00000000000E+00  0.00000000000E+00 -0.15640445236E+03  0.45343700795E+03  0.42560870229E+03 0.  0.
      99925    2    3    3    0    0 -0.38454774156E+02 -0.37284365009E+02 -0.16846937178E+03  0.31682820915E+03  0.26292449745E+03 0.  0.
         25    1    4    4    0    0 -0.19782841570E+02 -0.58384875824E+02 -0.76776110473E+02  0.15919244261E+03  0.12509000000E+03 0.  0.
         25    1    3    3    0    0  0.38454774156E+02  0.37284365009E+02  0.12064919420E+02  0.13660879880E+03  0.12509000000E+03 0.  0.
         25    1    4    4    0    0 -0.18671932586E+02  0.21100510816E+02 -0.91693261308E+02  0.15763576654E+03  0.12509000000E+03 0.  0.
<mgrwt>
<rscale>  2 0.42560870E+03</rscale>
<asrwt>0</asrwt>
<pdfrwt beam="1">  1       21 0.21840629E-01 0.42560870E+03</pdfrwt>
<pdfrwt beam="2">  1       21 0.44841284E-01 0.42560870E+03</pdfrwt>
<totfact> 0.87349374E+04</totfact>
</mgrwt>
</event>
<event>
 7    0  0.4714446E-002  0.4517307E+03  0.7546771E-02  0.1027207E+00
         21   -1    0    0  502  501  0.00000000000E+00  0.00000000000E+00  0.11118118411E+03  0.11118118411E+03  0.00000000000E+00 0.  1.
         21   -1    0    0  501  502 -0.00000000000E+00 -0.00000000000E+00 -0.45884704646E+03  0.45884704646E+03  0.00000000000E+00 0.  1.
      99926    2    1    2    0    0  0.35527136788E-14  0.00000000000E+00 -0.34766586234E+03  0.57002823057E+03  0.45173070718E+03 0.  0.
      99925    2    3    3    0    0 -0.12697166459E+02  0.47953032697E+02 -0.34340872993E+03  0.43539412398E+03  0.26301668393E+03 0.  0.
         25    1    3    3    0    0  0.12697166459E+02 -0.47953032697E+02 -0.42571324132E+01  0.13463410659E+03  0.12509000000E+03 0.  0.
         25    1    4    4    0    0 -0.42384864425E+02  0.10866993406E+02 -0.14925019492E+03  0.19959383022E+03  0.12509000000E+03 0.  0.
         25    1    4    4    0    0  0.29687697966E+02  0.37086039290E+02 -0.19415853501E+03  0.23580029376E+03  0.12509000000E+03 0.  0.
<mgrwt>
<rscale>  2 0.45173071E+03</rscale>
<asrwt>0</asrwt>
<pdfrwt beam="1">  1       21 0.16350174E-01 0.45173071E+03</pdfrwt>
<pdfrwt beam="2">  1       21 0.67477507E-01 0.45173071E+03</pdfrwt>
<totfact> 0.62153428E+04</totfact>
</mgrwt>
</event>
<event>
 7    0  0.4714446E-002  0.4526092E+03  0.7546771E-02  0.1026947E+00
         21   -1    0    0  502  501  0.00000000000E+00  0.00000000000E+00  0.16353080361E+03  0.16353080361E+03  0.00000000000E+00 0.  1.
         21   -1    0    0  501  502 -0.00000000000E+00 -0.00000000000E+00 -0.31317507219E+03  0.31317507219E+03  0.00000000000E+00 0.  1.
      99926    2    1    2    0    0  0.00000000000E+00 -0.71054273576E-14 -0.14964426858E+03  0.47670587579E+03  0.45260919666E+03 0.  0.
      99925    2    3    3    0    0 -0.22930735882E+02  0.43053549328E+02 -0.19924741455E+03  0.33357164876E+03  0.26304198504E+03 0.  0.
         25    1    3    3    0    0  0.22930735882E+02 -0.43053549328E+02  0.49603145975E+02  0.14313422703E+03  0.12509000000E+03 0.  0.
         25    1    4    4    0    0 -0.96058959509E+01 -0.12983332161E+02 -0.12292706369E+03  0.17612328420E+03  0.12509000000E+03 0.  0.
         25    1    4    4    0    0 -0.13324839932E+02  0.56036881488E+02 -0.76320350864E+02  0.15744836456E+03  0.12509000000E+03 0.  0.
<mgrwt>
<rscale>  2 0.45260920E+03</rscale>
<asrwt>0</asrwt>
<pdfrwt beam="1">  1       21 0.24048648E-01 0.45260920E+03</pdfrwt>
<pdfrwt beam="2">  1       21 0.46055157E-01 0.45260920E+03</pdfrwt>
<totfact> 0.68226144E+04</totfact>
</mgrwt>
</event>
<event>
 7    0  0.4714446E-002  0.4558288E+03  0.7546771E-02  0.1025998E+00
         21   -1    0    0  502  501  0.00000000000E+00  0.00000000000E+00  0.45310366230E+03  0.45310366230E+03  0.00000000000E+00 0. -1.
         21   -1    0    0  501  502 -0.00000000000E+00 -0.00000000000E+00 -0.11464260215E+03  0.11464260215E+03  0.00000000000E+00 0. -1.
      99926    2    1    2    0    0 -0.35527136788E-14  0.71054273576E-14  0.33846106015E+03  0.56774626445E+03  0.45582884020E+03 0.  0.
      99925    2    3    3    0    0  0.13435652620E+02 -0.34140710500E+02  0.78229169566E+02  0.27668913973E+03  0.26285161631E+03 0.  0.
         25    1    3    3    0    0 -0.13435652620E+02  0.34140710500E+02  0.26023189058E+03  0.29105712472E+03  0.12509000000E+03 0.  0.
         25    1    4    4    0    0 -0.19187793999E+00  0.93315634706E+01  0.68306330018E+01  0.12562356682E+03  0.12509000000E+03 0.  0.
         25    1    4    4    0    0  0.13627530560E+02 -0.43472273971E+02  0.71398536564E+02  0.15106557290E+03  0.12509000000E+03 0.  0.
<mgrwt>
<rscale>  2 0.45582884E+03</rscale>
<asrwt>0</asrwt>
<pdfrwt beam="1">  1       21 0.66632891E-01 0.45582884E+03</pdfrwt>
<pdfrwt beam="2">  1       21 0.16859206E-01 0.45582884E+03</pdfrwt>
<totfact> 0.60312528E+04</totfact>
</mgrwt>
</event>
<event>
 7    0  0.4714446E-002  0.4299857E+03  0.7546771E-02  0.1033864E+00
         21   -1    0    0  502  501  0.00000000000E+00  0.00000000000E+00  0.20601523847E+03  0.20601523847E+03  0.00000000000E+00 0. -1.
         21   -1    0    0  501  502 -0.00000000000E+00 -0.00000000000E+00 -0.22436172644E+03  0.22436172644E+03  0.00000000000E+00 0. -1.
      99926    2    1    2    0    0  0.00000000000E+00 -0.35527136788E-14 -0.18346487975E+02  0.43037696492E+03  0.42998574198E+03 0.  0.
      99925    2    3    3    0    0 -0.85294144208E+02  0.20428228713E+02 -0.14043320633E+02  0.27754231926E+03  0.26294509039E+03 0.  0.
         25    1    4    4    0    0 -0.13276245939E+02  0.40536035202E+01  0.22254060426E+02  0.12781017844E+03  0.12509000000E+03 0.  0.
         25    1    3    3    0    0  0.85294144208E+02 -0.20428228713E+02 -0.43031673419E+01  0.15283464566E+03  0.12509000000E+03 0.  0.
         25    1    4    4    0    0 -0.72017898269E+02  0.16374625193E+02 -0.36297381059E+02  0.14973214081E+03  0.12509000000E+03 0.  0.
<mgrwt>
<rscale>  2 0.42998574E+03</rscale>
<asrwt>0</asrwt>
<pdfrwt beam="1">  1       21 0.30296359E-01 0.42998574E+03</pdfrwt>
<pdfrwt beam="2">  1       21 0.32994371E-01 0.42998574E+03</pdfrwt>
<totfact> 0.86384757E+04</totfact>
</mgrwt>
</event>
<event>
 6    0  0.4714446E-002  0.4521837E+03  0.7546771E-02  0.1027073E+00
         21   -1    0    0  502  501  0.00000000000E+00  0.00000000000E+00  0.46943602818E+03  0.46943602818E+03  0.00000000000E+00 0. -1.
         21   -1    0    0  501  502 -0.00000000000E+00 -0.00000000000E+00 -0.10889135917E+03  0.10889135917E+03  0.00000000000E+00 0. -1.
      99926    2    1    2    0    0  0.00000000000E+00  0.14210854715E-13  0.36054466902E+03  0.57832738735E+03  0.45218371112E+03 0.  0.
         25    1    3    3    0    0  0.46509566123E+02 -0.89849967050E+02  0.19663752384E+03  0.25406688135E+03  0.12509000000E+03 0.  0.
         25    1    3    3    0    0 -0.55247147318E+02  0.41949586767E+02  0.10619016590E+03  0.17814565544E+03  0.12509000000E+03 0.  0.
         25    1    3    3    0    0  0.87375811956E+01  0.47900380283E+02  0.57716979280E+02  0.14611485056E+03  0.12509000000E+03 0.  0.
<mgrwt>
<rscale>  2 0.45218371E+03</rscale>
<asrwt>0</asrwt>
<pdfrwt beam="1">  1       21 0.69034709E-01 0.45218371E+03</pdfrwt>
<pdfrwt beam="2">  1       21 0.16013435E-01 0.45218371E+03</pdfrwt>
<totfact> 0.61387968E+04</totfact>
</mgrwt>
</event>
<event>
 7    0  0.4714446E-002  0.4561504E+03  0.7546771E-02  0.1025904E+00
         21   -1    0    0  502  501  0.00000000000E+00  0.00000000000E+00  0.41495765825E+03  0.41495765825E+03  0.00000000000E+00 0. -1.
         21   -1    0    0  501  502 -0.00000000000E+00 -0.00000000000E+00 -0.12535808811E+03  0.12535808811E+03  0.00000000000E+00 0. -1.
      99926    2    1    2    0    0  0.00000000000E+00  0.00000000000E+00  0.28959957013E+03  0.54031574636E+03  0.45615040803E+03 0.  0.
      99925    2    3    3    0    0  0.48431836393E+02  0.38451125063E+02  0.68390883244E+02  0.27877239804E+03  0.26308288657E+03 0.  0.
         25    1    4    4    0    0  0.35619129847E+02  0.52752757249E+02  0.57752111845E+02  0.15177084809E+03  0.12509000000E+03 0.  0.
         25    1    3    3    0    0 -0.48431836393E+02 -0.38451125063E+02  0.22120868689E+03  0.26154334832E+03  0.12509000000E+03 0.  0.
         25    1    4    4    0    0  0.12812706547E+02 -0.14301632186E+02  0.10638771399E+02  0.12700154995E+03  0.12509000000E+03 0.  0.
<mgrwt>
<rscale>  2 0.45615041E+03</rscale>
<asrwt>0</asrwt>
<pdfrwt beam="1">  1       21 0.61023185E-01 0.45615041E+03</pdfrwt>
<pdfrwt beam="2">  1       21 0.18435013E-01 0.45615041E+03</pdfrwt>
<totfact> 0.61945138E+04</totfact>
</mgrwt>
</event>
<event>
 7    0  0.4714446E-002  0.4560046E+03  0.7546771E-02  0.1025946E+00
         21   -1    0    0  502  501  0.00000000000E+00  0.00000000000E+00  0.13999736853E+04  0.13999736853E+04  0.00000000000E+00 0.  1.
         21   -1    0    0  501  502 -0.00000000000E+00 -0.00000000000E+00 -0.37132883028E+02  0.37132883028E+02  0.00000000000E+00 0.  1.
      99926    2    1    2    0    0  0.00000000000E+00  0.00000000000E+00  0.13628408023E+04  0.14371065683E+04  0.45600464514E+03 0.  0.
      99925    2    3    3    0    0 -0.84856231479E+02 -0.32322207059E+02  0.10746012959E+04  0.11100365051E+04  0.26299770444E+03 0.  0.
         25    1    4    4    0    0 -0.21283523035E+02  0.14473278293E+02  0.42305340488E+03  0.44190966907E+03  0.12509000000E+03 0.  0.
         25    1    4    4    0    0 -0.63572708445E+02 -0.46795485352E+02  0.65154789098E+03  0.66812683605E+03  0.12509000000E+03 0.  0.
         25    1    3    3    0    0  0.84856231479E+02  0.32322207059E+02  0.28823950640E+03  0.32707006320E+03  0.12509000000E+03 0.  0.
<mgrwt>
<rscale>  2 0.45600465E+03</rscale>
<asrwt>0</asrwt>
<pdfrwt beam="1">  1       21 0.20587845E+00 0.45600465E+03</pdfrwt>
<pdfrwt beam="2">  1       21 0.54607190E-02 0.45600465E+03</pdfrwt>
<totfact> 0.25162768E+04</totfact>
</mgrwt>
</event>
<event>
 7    0  0.4714446E-002  0.4480027E+03  0.7546771E-02  0.1028319E+00
         21   -1    0    0  502  501  0.00000000000E+00  0.00000000000E+00  0.23491248385E+03  0.23491248385E+03  0.00000000000E+00 0. -1.
         21   -1    0    0  501  502 -0.00000000000E+00 -0.00000000000E+00 -0.21359702968E+03  0.21359702968E+03  0.00000000000E+00 0. -1.
      99926    2    1    2    0    0  0.00000000000E+00  0.00000000000E+00  0.21315454175E+02  0.44850951353E+03  0.44800271779E+03 0.  0.
      99925    2    3    3    0    0 -0.41159193766E+02  0.40538412599E+02 -0.76088516560E+02  0.27977159917E+03  0.26295483115E+03 0.  0.
         25    1    3    3    0    0  0.41159193766E+02 -0.40538412599E+02  0.97403970735E+02  0.16873791436E+03  0.12509000000E+03 0.  0.
         25    1    4    4    0    0 -0.38531831882E+02 -0.13883146297E+02 -0.50341075218E+02  0.14092258788E+03  0.12509000000E+03 0.  0.
         25    1    4    4    0    0 -0.26273618834E+01  0.54421558896E+02 -0.25747441341E+02  0.13884901130E+03  0.12509000000E+03 0.  0.
<mgrwt>
<rscale>  2 0.44800272E+03</rscale>
<asrwt>0</asrwt>
<pdfrwt beam="1">  1       21 0.34545953E-01 0.44800272E+03</pdfrwt>
<pdfrwt beam="2">  1       21 0.31411328E-01 0.44800272E+03</pdfrwt>
<totfact> 0.73016102E+04</totfact>
</mgrwt>
</event>
<event>
 7    0  0.4714446E-002  0.4430511E+03  0.7546771E-02  0.1029815E+00
         21   -1    0    0  502  501  0.00000000000E+00  0.00000000000E+00  0.73738896806E+02  0.73738896806E+02  0.00000000000E+00 0. -1.
         21   -1    0    0  501  502 -0.00000000000E+00 -0.00000000000E+00 -0.66550462495E+03  0.66550462495E+03  0.00000000000E+00 0. -1.
      99926    2    1    2    0    0 -0.14210854715E-13  0.00000000000E+00 -0.59176572815E+03  0.73924352176E+03  0.44305113413E+03 0.  0.
      99925    2    3    3    0    0 -0.66206401827E+02  0.37360149555E+02 -0.26522775290E+03  0.38139770888E+03  0.26332372284E+03 0.  0.
         25    1    4    4    0    0 -0.62370990034E+02  0.22190557179E+02 -0.98746274647E+02  0.17257142313E+03  0.12509000000E+03 0.  0.
         25    1    3    3    0    0  0.66206401827E+02 -0.37360149555E+02 -0.32653797524E+03  0.35784581288E+03  0.12509000000E+03 0.  0.
         25    1    4    4    0    0 -0.38354117926E+01  0.15169592377E+02 -0.16648147825E+03  0.20882628575E+03  0.12509000000E+03 0.  0.
<mgrwt>
<rscale>  2 0.44305113E+03</rscale>
<asrwt>0</asrwt>
<pdfrwt beam="1">  1       21 0.10843955E-01 0.44305113E+03</pdfrwt>
<pdfrwt beam="2">  1       21 0.97868333E-01 0.44305113E+03</pdfrwt>
<totfact> 0.55891679E+04</totfact>
</mgrwt>
</event>
<event>
 7    0  0.4714446E-002  0.4565582E+03  0.7546771E-02  0.1025784E+00
         21   -1    0    0  502  501  0.00000000000E+00  0.00000000000E+00  0.26620564252E+02  0.26620564252E+02  0.00000000000E+00 0.  1.
         21   -1    0    0  501  502 -0.00000000000E+00 -0.00000000000E+00 -0.19575597967E+04  0.19575597967E+04  0.00000000000E+00 0.  1.
      99926    2    1    2    0    0  0.00000000000E+00  0.71054273576E-14 -0.19309392324E+04  0.19841803609E+04  0.45655819496E+03 0.  0.
      99925    2    3    3    0    0  0.70917880437E+02  0.44604578284E+02 -0.15532209573E+04  0.15775631974E+04  0.26304255474E+03 0.  0.
         25    1    4    4    0    0  0.56956501576E+02 -0.54335127409E+00 -0.63903861325E+03  0.65365296269E+03  0.12509000000E+03 0.  0.
         25    1    4    4    0    0  0.13961378861E+02  0.45147929558E+02 -0.91418234402E+03  0.92391023474E+03  0.12509000000E+03 0.  0.
         25    1    3    3    0    0 -0.70917880437E+02 -0.44604578284E+02 -0.37771827517E+03  0.40661716352E+03  0.12509000000E+03 0.  0.
<mgrwt>
<rscale>  2 0.45655819E+03</rscale>
<asrwt>0</asrwt>
<pdfrwt beam="1">  1       21 0.39147882E-02 0.45655819E+03</pdfrwt>
<pdfrwt beam="2">  1       21 0.28787649E+00 0.45655819E+03</pdfrwt>
<totfact> 0.13802065E+04</totfact>
</mgrwt>
</event>
<event>
 7    0  0.4714446E-002  0.4452772E+03  0.7546771E-02  0.1029140E+00
         21   -1    0    0  502  501  0.00000000000E+00  0.00000000000E+00  0.44670428309E+03  0.44670428309E+03  0.00000000000E+00 0. -1.
         21   -1    0    0  501  502 -0.00000000000E+00 -0.00000000000E+00 -0.11096365604E+03  0.11096365604E+03  0.00000000000E+00 0. -1.
      99926    2    1    2    0    0  0.00000000000E+00 -0.14210854715E-13  0.33574062705E+03  0.55766793913E+03  0.44527717399E+03 0.  0.
      99925    2    3    3    0    0  0.14473688746E+02  0.10114210042E+03  0.18987543923E+03  0.34003666091E+03  0.26293161886E+03 0.  0.
         25    1    4    4    0    0 -0.27374320345E+02  0.27549808858E+02  0.84683212672E+02  0.15597147172E+03  0.12509000000E+03 0.  0.
         25    1    3    3    0    0 -0.14473688746E+02 -0.10114210042E+03  0.14586518782E+03  0.21763127822E+03  0.12509000000E+03 0.  0.
         25    1    4    4    0    0  0.41848009090E+02  0.73592291560E+02  0.10519222656E+03  0.18406518919E+03  0.12509000000E+03 0.  0.
<mgrwt>
<rscale>  2 0.44527717E+03</rscale>
<asrwt>0</asrwt>
<pdfrwt beam="1">  1       21 0.65691806E-01 0.44527717E+03</pdfrwt>
<pdfrwt beam="2">  1       21 0.16318185E-01 0.44527717E+03</pdfrwt>
<totfact> 0.66317837E+04</totfact>
</mgrwt>
</event>
<event>
 7    0  0.4714446E-002  0.4583066E+03  0.7546771E-02  0.1025274E+00
         21   -1    0    0  502  501  0.00000000000E+00  0.00000000000E+00  0.18979919690E+03  0.18979919690E+03  0.00000000000E+00 0.  1.
         21   -1    0    0  501  502 -0.00000000000E+00 -0.00000000000E+00 -0.27666726628E+03  0.27666726628E+03  0.00000000000E+00 0.  1.
      99926    2    1    2    0    0  0.00000000000E+00  0.00000000000E+00 -0.86868069387E+02  0.46646646318E+03  0.45830655657E+03 0.  0.
      99925    2    3    3    0    0  0.41209119703E+02 -0.92554432757E+02  0.31838325555E+01  0.28201764179E+03  0.26317161496E+03 0.  0.
         25    1    3    3    0    0 -0.41209119703E+02  0.92554432757E+02 -0.90051901942E+02  0.18444882139E+03  0.12509000000E+03 0.  0.
         25    1    4    4    0    0  0.28889362289E+02 -0.89257419462E+01 -0.16578705094E+02  0.12975602370E+03  0.12509000000E+03 0.  0.
         25    1    4    4    0    0  0.12319757414E+02 -0.83628690811E+02  0.19762537649E+02  0.15226161809E+03  0.12509000000E+03 0.  0.
<mgrwt>
<rscale>  2 0.45830656E+03</rscale>
<asrwt>0</asrwt>
<pdfrwt beam="1">  1       21 0.27911647E-01 0.45830656E+03</pdfrwt>
<pdfrwt beam="2">  1       21 0.40686362E-01 0.45830656E+03</pdfrwt>
<totfact> 0.65950836E+04</totfact>
</mgrwt>
</event>
<event>
 7    0  0.4714446E-002  0.4590504E+03  0.7546771E-02  0.1025057E+00
         21   -1    0    0  502  501  0.00000000000E+00  0.00000000000E+00  0.26337413009E+03  0.26337413009E+03  0.00000000000E+00 0. -1.
         21   -1    0    0  501  502 -0.00000000000E+00 -0.00000000000E+00 -0.20002650512E+03  0.20002650512E+03  0.00000000000E+00 0. -1.
      99926    2    1    2    0    0  0.00000000000E+00  0.00000000000E+00  0.63347624970E+02  0.46340063520E+03  0.45905035357E+03 0.  0.
      99925    2    3    3    0    0  0.21442364621E+02 -0.10066494010E+03  0.95816962521E+02  0.29818873749E+03  0.26294947745E+03 0.  0.
         25    1    4    4    0    0  0.30596651396E+01 -0.81104648562E+02  0.22699550441E+02  0.15083137359E+03  0.12509000000E+03 0.  0.
         25    1    3    3    0    0 -0.21442364621E+02  0.10066494010E+03 -0.32469337552E+02  0.16521189771E+03  0.12509000000E+03 0.  0.
         25    1    4    4    0    0  0.18382699481E+02 -0.19560291535E+02  0.73117412081E+02  0.14735736390E+03  0.12509000000E+03 0.  0.
<mgrwt>
<rscale>  2 0.45905035E+03</rscale>
<asrwt>0</asrwt>
<pdfrwt beam="1">  1       21 0.38731490E-01 0.45905035E+03</pdfrwt>
<pdfrwt beam="2">  1       21 0.29415662E-01 0.45905035E+03</pdfrwt>
<totfact> 0.65782804E+04</totfact>
</mgrwt>
</event>
<event>
 7    0  0.4714446E-002  0.4438435E+03  0.7546771E-02  0.1029574E+00
         21   -1    0    0  502  501  0.00000000000E+00  0.00000000000E+00  0.49568105235E+03  0.49568105235E+03  0.00000000000E+00 0.  1.
         21   -1    0    0  501  502 -0.00000000000E+00 -0.00000000000E+00 -0.99356760626E+02  0.99356760626E+02  0.00000000000E+00 0.  1.
      99926    2    1    2    0    0 -0.71054273576E-14 -0.22204460493E-14  0.39632429172E+03  0.59503781297E+03  0.44384350244E+03 0.  0.
      99925    2    3    3    0    0  0.61683811984E+02 -0.29240815858E+01  0.14243521354E+03  0.30534726250E+03  0.26293671814E+03 0.  0.
         25    1    4    4    0    0  0.66602673186E+01  0.31493210623E+02  0.67625918732E+02  0.14579764902E+03  0.12509000000E+03 0.  0.
         25    1    3    3    0    0 -0.61683811984E+02  0.29240815858E+01  0.25388907818E+03  0.28969055048E+03  0.12509000000E+03 0.  0.
         25    1    4    4    0    0  0.55023544666E+02 -0.34417292209E+02  0.74809294803E+02  0.15954961347E+03  0.12509000000E+03 0.  0.
<mgrwt>
<rscale>  2 0.44384350E+03</rscale>
<asrwt>0</asrwt>
<pdfrwt beam="1">  1       21 0.72894271E-01 0.44384350E+03</pdfrwt>
<pdfrwt beam="2">  1       21 0.14611289E-01 0.44384350E+03</pdfrwt>
<totfact> 0.64484333E+04</totfact>
</mgrwt>
</event>
<event>
 7    0  0.4714446E-002  0.4575247E+03  0.7546771E-02  0.1025502E+00
         21   -1    0    0  502  501  0.00000000000E+00  0.00000000000E+00  0.22628022792E+03  0.22628022792E+03  0.00000000000E+00 0.  1.
         21   -1    0    0  501  502 -0.00000000000E+00 -0.00000000000E+00 -0.23127166261E+03  0.23127166261E+03  0.00000000000E+00 0.  1.
      99926    2    1    2    0    0 -0.71054273576E-14  0.00000000000E+00 -0.49914346930E+01  0.45755189053E+03  0.45752466393E+03 0.  0.
      99925    2    3    3    0    0 -0.53556233881E+02 -0.99709319104E+02  0.20657995300E+02  0.28691889295E+03  0.26284116850E+03 0.  0.
         25    1    4    4    0    0 -0.36035578344E+02 -0.68900328064E+02  0.46315909642E+02  0.15439718164E+03  0.12509000000E+03 0.  0.
         25    1    3    3    0    0  0.53556233881E+02  0.99709319104E+02 -0.25649429993E+02  0.17063299758E+03  0.12509000000E+03 0.  0.
         25    1    4    4    0    0 -0.17520655537E+02 -0.30808991040E+02 -0.25657914342E+02  0.13252171131E+03  0.12509000000E+03 0.  0.
<mgrwt>
<rscale>  2 0.45752466E+03</rscale>
<asrwt>0</asrwt>
<pdfrwt beam="1">  1       21 0.33276504E-01 0.45752466E+03</pdfrwt>
<pdfrwt beam="2">  1       21 0.34010539E-01 0.45752466E+03</pdfrwt>
<totfact> 0.66999391E+04</totfact>
</mgrwt>
</event>
<event>
 7    0  0.4714446E-002  0.4520286E+03  0.7546771E-02  0.1027119E+00
         21   -1    0    0  502  501  0.00000000000E+00  0.00000000000E+00  0.86912093742E+03  0.86912093742E+03  0.00000000000E+00 0.  1.
         21   -1    0    0  501  502 -0.00000000000E+00 -0.00000000000E+00 -0.58774860057E+02  0.58774860057E+02  0.00000000000E+00 0.  1.
      99926    2    1    2    0    0  0.00000000000E+00  0.00000000000E+00  0.81034607736E+03  0.92789579748E+03  0.45202858967E+03 0.  0.
      99925    2    3    3    0    0 -0.91443005231E+02  0.58865205467E+02  0.47275235010E+03  0.55180542482E+03  0.26299716103E+03 0.  0.
         25    1    4    4    0    0 -0.55718339456E+02  0.45812891866E+02  0.31777560750E+03  0.34904469518E+03  0.12509000000E+03 0.  0.
         25    1    3    3    0    0  0.91443005231E+02 -0.58865205467E+02  0.33759372726E+03  0.37609037266E+03  0.12509000000E+03 0.  0.
         25    1    4    4    0    0 -0.35724665775E+02  0.13052313601E+02  0.15497674260E+03  0.20276072963E+03  0.12509000000E+03 0.  0.
<mgrwt>
<rscale>  2 0.45202859E+03</rscale>
<asrwt>0</asrwt>
<pdfrwt beam="1">  1       21 0.12781189E+00 0.45202859E+03</pdfrwt>
<pdfrwt beam="2">  1       21 0.86433623E-02 0.45202859E+03</pdfrwt>
<totfact> 0.43040762E+04</totfact>
</mgrwt>
</event>
<event>
 7    0  0.4714446E-002  0.4502524E+03  0.7546771E-02  0.1027647E+00
         21   -1    0    0  502  501  0.00000000000E+00  0.00000000000E+00  0.17645245206E+03  0.17645245206E+03  0.00000000000E+00 0.  1.
         21   -1    0    0  501  502 -0.00000000000E+00 -0.00000000000E+00 -0.28722641382E+03  0.28722641382E+03  0.00000000000E+00 0.  1.
      99926    2    1    2    0    0  0.00000000000E+00  0.00000000000E+00 -0.11077396176E+03  0.46367886587E+03  0.45025239595E+03 0.  0.
      99925    2    3    3    0    0 -0.97863092440E+02  0.38584727742E+02 -0.98213699080E+02  0.29975438822E+03  0.26294637570E+03 0.  0.
         25    1    3    3    0    0  0.97863092440E+02 -0.38584727742E+02 -0.12560262681E+02  0.16392447766E+03  0.12509000000E+03 0.  0.
         25    1    4    4    0    0 -0.20747290775E+02  0.47317874828E+02 -0.36848311273E+02  0.14026666566E+03  0.12509000000E+03 0.  0.
         25    1    4    4    0    0 -0.77115801664E+02 -0.87331470866E+01 -0.61365387807E+02  0.15948772255E+03  0.12509000000E+03 0.  0.
<mgrwt>
<rscale>  2 0.45025240E+03</rscale>
<asrwt>0</asrwt>
<pdfrwt beam="1">  1       21 0.25948890E-01 0.45025240E+03</pdfrwt>
<pdfrwt beam="2">  1       21 0.42239178E-01 0.45025240E+03</pdfrwt>
<totfact> 0.70527724E+04</totfact>
</mgrwt>
</event>
<event>
 7    0  0.4714446E-002  0.4460762E+03  0.7546771E-02  0.1028899E+00
         21   -1    0    0  502  501  0.00000000000E+00  0.00000000000E+00  0.69525075697E+03  0.69525075697E+03  0.00000000000E+00 0. -1.
         21   -1    0    0  501  502 -0.00000000000E+00 -0.00000000000E+00 -0.71551152533E+02  0.71551152533E+02  0.00000000000E+00 0. -1.
      99926    2    1    2    0    0  0.00000000000E+00  0.00000000000E+00  0.62369960444E+03  0.76680190950E+03  0.44607619511E+03 0.  0.
      99925    2    3    3    0    0 -0.69710516315E+02  0.42548805408E+02  0.50871440170E+03  0.57828384174E+03  0.26258694215E+03 0.  0.
         25    1    3    3    0    0  0.69710516315E+02 -0.42548805408E+02  0.11498520273E+03  0.18851806777E+03  0.12509000000E+03 0.  0.
         25    1    4    4    0    0 -0.59536834164E+02  0.17649697913E+01  0.20836063060E+03  0.25021872477E+03  0.12509000000E+03 0.  0.
         25    1    4    4    0    0 -0.10173682151E+02  0.40783835617E+02  0.30035377110E+03  0.32806511697E+03  0.12509000000E+03 0.  0.
<mgrwt>
<rscale>  2 0.44607620E+03</rscale>
<asrwt>0</asrwt>
<pdfrwt beam="1">  1       21 0.10224275E+00 0.44607620E+03</pdfrwt>
<pdfrwt beam="2">  1       21 0.10522229E-01 0.44607620E+03</pdfrwt>
<totfact> 0.53031099E+04</totfact>
</mgrwt>
</event>
<event>
 7    0  0.4714446E-002  0.5202452E+03  0.7546771E-02  0.1008626E+00
         21   -1    0    0  502  501  0.00000000000E+00  0.00000000000E+00  0.26212621757E+04  0.26212621757E+04  0.00000000000E+00 0. -1.
         21   -1    0    0  501  502 -0.00000000000E+00 -0.00000000000E+00 -0.25813428505E+02  0.25813428505E+02  0.00000000000E+00 0. -1.
      99926    2    1    2    0    0 -0.14210854715E-13 -0.14210854715E-13  0.25954487472E+04  0.26470756042E+04  0.52024518745E+03 0.  0.
      99925    2    3    3    0    0  0.10249921343E+03 -0.77020927547E+02  0.10102888697E+04  0.10518271416E+04  0.26309394442E+03 0.  0.
         25    1    4    4    0    0  0.80203221053E+02 -0.72853862229E+02  0.58093320635E+03  0.60404564418E+03  0.12509000000E+03 0.  0.
         25    1    4    4    0    0  0.22295992378E+02 -0.41670653179E+01  0.42935566337E+03  0.44778149747E+03  0.12509000000E+03 0.  0.
         25    1    3    3    0    0 -0.10249921343E+03  0.77020927547E+02  0.15851598775E+04  0.15952484626E+04  0.12509000000E+03 0.  0.
<mgrwt>
<rscale>  2 0.52024519E+03</rscale>
<asrwt>0</asrwt>
<pdfrwt beam="1">  1       21 0.38547955E+00 0.52024519E+03</pdfrwt>
<pdfrwt beam="2">  1       21 0.37960942E-02 0.52024519E+03</pdfrwt>
<totfact> 0.35649020E+03</totfact>
</mgrwt>
</event>
<event>
 7    0  0.4714446E-002  0.4020848E+03  0.7546771E-02  0.1043060E+00
         21   -1    0    0  502  501  0.00000000000E+00  0.00000000000E+00  0.77006901011E+02  0.77006901011E+02  0.00000000000E+00 0. -1.
         21   -1    0    0  501  502 -0.00000000000E+00 -0.00000000000E+00 -0.52486256779E+03  0.52486256779E+03  0.00000000000E+00 0. -1.
      99926    2    1    2    0    0  0.00000000000E+00  0.17763568394E-14 -0.44785566678E+03  0.60186946880E+03  0.40208476620E+03 0.  0.
      99925    2    3    3    0    0 -0.76246369271E+01  0.14282310415E+02 -0.22818413853E+03  0.34856094565E+03  0.26299165818E+03 0.  0.
         25    1    4    4    0    0 -0.81866107809E+01 -0.12469700875E+02 -0.66683201614E+02  0.14253656202E+03  0.12509000000E+03 0.  0.
         25    1    3    3    0    0  0.76246369271E+01 -0.14282310415E+02 -0.21967152825E+03  0.25330852316E+03  0.12509000000E+03 0.  0.
         25    1    4    4    0    0  0.56197385384E+00  0.26752011290E+02 -0.16150093692E+03  0.20602438362E+03  0.12509000000E+03 0.  0.
<mgrwt>
<rscale>  2 0.40208477E+03</rscale>
<asrwt>0</asrwt>
<pdfrwt beam="1">  1       21 0.11324544E-01 0.40208477E+03</pdfrwt>
<pdfrwt beam="2">  1       21 0.77185671E-01 0.40208477E+03</pdfrwt>
<totfact> 0.91052114E+04</totfact>
</mgrwt>
</event>
<event>
 7    0  0.4714446E-002  0.4479146E+03  0.7546771E-02  0.1028346E+00
         21   -1    0    0  502  501  0.00000000000E+00  0.00000000000E+00  0.10153425135E+03  0.10153425135E+03  0.00000000000E+00 0.  1.
         21   -1    0    0  501  502 -0.00000000000E+00 -0.00000000000E+00 -0.49398976982E+03  0.49398976982E+03  0.00000000000E+00 0.  1.
      99926    2    1    2    0    0 -0.14210854715E-13  0.17763568394E-14 -0.39245551847E+03  0.59552402118E+03  0.44791464122E+03 0.  0.
      99925    2    3    3    0    0  0.98092916779E+02 -0.14202930027E+02 -0.29902057046E+03  0.41058743434E+03  0.26333400109E+03 0.  0.
         25    1    4    4    0    0  0.83985347068E+02  0.67609471181E+00 -0.12792662261E+03  0.19765304070E+03  0.12509000000E+03 0.  0.
         25    1    3    3    0    0 -0.98092916779E+02  0.14202930027E+02 -0.93434948007E+02  0.18493658684E+03  0.12509000000E+03 0.  0.
         25    1    4    4    0    0  0.14107569711E+02 -0.14879024739E+02 -0.17109394786E+03  0.21293439364E+03  0.12509000000E+03 0.  0.
<mgrwt>
<rscale>  2 0.44791464E+03</rscale>
<asrwt>0</asrwt>
<pdfrwt beam="1">  1       21 0.14931508E-01 0.44791464E+03</pdfrwt>
<pdfrwt beam="2">  1       21 0.72645554E-01 0.44791464E+03</pdfrwt>
<totfact> 0.62374204E+04</totfact>
</mgrwt>
</event>
<event>
 7    0  0.4714446E-002  0.4555561E+03  0.7546771E-02  0.1026078E+00
         21   -1    0    0  502  501  0.00000000000E+00  0.00000000000E+00  0.44518791107E+03  0.44518791107E+03  0.00000000000E+00 0.  1.
         21   -1    0    0  501  502 -0.00000000000E+00 -0.00000000000E+00 -0.11654142201E+03  0.11654142201E+03  0.00000000000E+00 0.  1.
      99926    2    1    2    0    0 -0.35527136788E-14  0.00000000000E+00  0.32864648906E+03  0.56172933308E+03  0.45555606557E+03 0.  0.
      99925    2    3    3    0    0 -0.83357847210E+01 -0.66556532285E+02  0.31986962425E+03  0.41951892997E+03  0.26302147971E+03 0.  0.
         25    1    3    3    0    0  0.83357847210E+01  0.66556532285E+02  0.87768648075E+01  0.14221040311E+03  0.12509000000E+03 0.  0.
         25    1    4    4    0    0  0.35610954789E+02 -0.41094089302E+02  0.16407044232E+03  0.21336232662E+03  0.12509000000E+03 0.  0.
         25    1    4    4    0    0 -0.43946739510E+02 -0.25462442984E+02  0.15579918193E+03  0.20615660335E+03  0.12509000000E+03 0.  0.
<mgrwt>
<rscale>  2 0.45555607E+03</rscale>
<asrwt>0</asrwt>
<pdfrwt beam="1">  1       21 0.65468810E-01 0.45555607E+03</pdfrwt>
<pdfrwt beam="2">  1       21 0.17138444E-01 0.45555607E+03</pdfrwt>
<totfact> 0.60830033E+04</totfact>
</mgrwt>
</event>
<event>
 7    0  0.4714446E-002  0.4522968E+03  0.7546771E-02  0.1027039E+00
         21   -1    0    0  502  501  0.00000000000E+00  0.00000000000E+00  0.29027519760E+03  0.29027519760E+03  0.00000000000E+00 0.  1.
         21   -1    0    0  501  502 -0.00000000000E+00 -0.00000000000E+00 -0.17618833979E+03  0.17618833979E+03  0.00000000000E+00 0.  1.
      99926    2    1    2    0    0  0.00000000000E+00 -0.35527136788E-14  0.11408685781E+03  0.46646353739E+03  0.45229682797E+03 0.  0.
      99925    2    3    3    0    0 -0.10606384137E+03 -0.30745186044E+02  0.65131171637E+02  0.29256997161E+03  0.26298348590E+03 0.  0.
         25    1    4    4    0    0 -0.43858537298E+02 -0.36533904457E+02  0.66510917022E+02  0.15274000017E+03  0.12509000000E+03 0.  0.
         25    1    4    4    0    0 -0.62205304071E+02  0.57887184130E+01 -0.13797453852E+01  0.13982997144E+03  0.12509000000E+03 0.  0.
         25    1    3    3    0    0  0.10606384137E+03  0.30745186044E+02  0.48955686171E+02  0.17389356578E+03  0.12509000000E+03 0.  0.
<mgrwt>
<rscale>  2 0.45229683E+03</rscale>
<asrwt>0</asrwt>
<pdfrwt beam="1">  1       21 0.42687529E-01 0.45229683E+03</pdfrwt>
<pdfrwt beam="2">  1       21 0.25910050E-01 0.45229683E+03</pdfrwt>
<totfact> 0.69171088E+04</totfact>
</mgrwt>
</event>
<event>
 7    0  0.4714446E-002  0.4446507E+03  0.7546771E-02  0.1029329E+00
         21   -1    0    0  502  501  0.00000000000E+00  0.00000000000E+00  0.13172008054E+03  0.13172008054E+03  0.00000000000E+00 0. -1.
         21   -1    0    0  501  502 -0.00000000000E+00 -0.00000000000E+00 -0.37525458856E+03  0.37525458856E+03  0.00000000000E+00 0. -1.
      99926    2    1    2    0    0  0.00000000000E+00  0.00000000000E+00 -0.24353450802E+03  0.50697466910E+03  0.44465071518E+03 0.  0.
      99925    2    3    3    0    0 -0.79728626825E+02  0.33446449988E+02 -0.90658341468E+02  0.29135011263E+03  0.26304112663E+03 0.  0.
         25    1    4    4    0    0 -0.33345304957E+02  0.10099829323E+02 -0.27469142244E+01  0.12988059729E+03  0.12509000000E+03 0.  0.
         25    1    3    3    0    0  0.79728626825E+02 -0.33446449988E+02 -0.15287616655E+03  0.21562455647E+03  0.12509000000E+03 0.  0.
         25    1    4    4    0    0 -0.46383321869E+02  0.23346620665E+02 -0.87911427243E+02  0.16146951534E+03  0.12509000000E+03 0.  0.
<mgrwt>
<rscale>  2 0.44465072E+03</rscale>
<asrwt>0</asrwt>
<pdfrwt beam="1">  1       21 0.19370600E-01 0.44465072E+03</pdfrwt>
<pdfrwt beam="2">  1       21 0.55184498E-01 0.44465072E+03</pdfrwt>
<totfact> 0.70389045E+04</totfact>
</mgrwt>
</event>
<event>
 7    0  0.4714446E-002  0.4648573E+03  0.7546771E-02  0.1023382E+00
         21   -1    0    0  502  501  0.00000000000E+00  0.00000000000E+00  0.65311972237E+03  0.65311972237E+03  0.00000000000E+00 0. -1.
         21   -1    0    0  501  502 -0.00000000000E+00 -0.00000000000E+00 -0.82715420056E+02  0.82715420056E+02  0.00000000000E+00 0. -1.
      99926    2    1    2    0    0  0.71054273576E-14  0.00000000000E+00  0.57040430231E+03  0.73583514242E+03  0.46485727781E+03 0.  0.
      99925    2    3    3    0    0 -0.54421508458E+02 -0.10846547254E+03  0.33484496316E+03  0.44281266943E+03  0.26312630340E+03 0.  0.
         25    1    4    4    0    0  0.67521640966E+01 -0.42239641634E+02  0.12130731635E+03  0.17942338796E+03  0.12509000000E+03 0.  0.
         25    1    3    3    0    0  0.54421508458E+02  0.10846547254E+03  0.23555933916E+03  0.29302247299E+03  0.12509000000E+03 0.  0.
         25    1    4    4    0    0 -0.61173672555E+02 -0.66225830905E+02  0.21353764680E+03  0.26338928147E+03  0.12509000000E+03 0.  0.
<mgrwt>
<rscale>  2 0.46485728E+03</rscale>
<asrwt>0</asrwt>
<pdfrwt beam="1">  1       21 0.96047015E-01 0.46485728E+03</pdfrwt>
<pdfrwt beam="2">  1       21 0.12164033E-01 0.46485728E+03</pdfrwt>
<totfact> 0.47231736E+04</totfact>
</mgrwt>
</event>
<event>
 6    0  0.4714446E-002  0.4038463E+03  0.7546771E-02  0.1042456E+00
         21   -1    0    0  502  501  0.00000000000E+00  0.00000000000E+00  0.17938379984E+03  0.17938379984E+03  0.00000000000E+00 0. -1.
         21   -1    0    0  501  502 -0.00000000000E+00 -0.00000000000E+00 -0.22729454825E+03  0.22729454825E+03  0.00000000000E+00 0. -1.
      99926    2    1    2    0    0  0.00000000000E+00 -0.71054273576E-14 -0.47910748416E+02  0.40667834809E+03  0.40384630615E+03 0.  0.
         25    1    3    3    0    0 -0.11915347193E+02 -0.61230050463E+02 -0.47522654840E+02  0.14763808926E+03  0.12509000000E+03 0.  0.
         25    1    3    3    0    0  0.10637004226E+02  0.36759738842E+02  0.97166921223E+01  0.13117296392E+03  0.12509000000E+03 0.  0.
         25    1    3    3    0    0  0.12783429675E+01  0.24470311621E+02 -0.10104785698E+02  0.12786729490E+03  0.12509000000E+03 0.  0.
<mgrwt>
<rscale>  2 0.40384631E+03</rscale>
<asrwt>0</asrwt>
<pdfrwt beam="1">  1       21 0.26379971E-01 0.40384631E+03</pdfrwt>
<pdfrwt beam="2">  1       21 0.33425669E-01 0.40384631E+03</pdfrwt>
<totfact> 0.11112427E+05</totfact>
</mgrwt>
</event>
<event>
 7    0  0.4714446E-002  0.4380215E+03  0.7546771E-02  0.1031356E+00
         21   -1    0    0  502  501  0.00000000000E+00  0.00000000000E+00  0.27738632852E+02  0.27738632852E+02  0.00000000000E+00 0. -1.
         21   -1    0    0  501  502 -0.00000000000E+00 -0.00000000000E+00 -0.17292025753E+04  0.17292025753E+04  0.00000000000E+00 0. -1.
      99926    2    1    2    0    0 -0.71054273576E-14  0.00000000000E+00 -0.17014639424E+04  0.17569412081E+04  0.43802153081E+03 0.  0.
      99925    2    3    3    0    0  0.56489090709E+02 -0.36586239835E+02 -0.13648182956E+04  0.13915546048E+04  0.26299366463E+03 0.  0.
         25    1    4    4    0    0 -0.10994215942E+02 -0.64131730667E+01 -0.67250696597E+03  0.68416016323E+03  0.12509000000E+03 0.  0.
         25    1    3    3    0    0 -0.56489090709E+02  0.36586239835E+02 -0.33664564680E+03  0.36538660337E+03  0.12509000000E+03 0.  0.
         25    1    4    4    0    0  0.67483306651E+02 -0.30173066768E+02 -0.69231132966E+03  0.70739444153E+03  0.12509000000E+03 0.  0.
<mgrwt>
<rscale>  2 0.43802153E+03</rscale>
<asrwt>0</asrwt>
<pdfrwt beam="1">  1       21 0.40792103E-02 0.43802153E+03</pdfrwt>
<pdfrwt beam="2">  1       21 0.25429452E+00 0.43802153E+03</pdfrwt>
<totfact> 0.20698011E+04</totfact>
</mgrwt>
</event>
<event>
 7    0  0.4714446E-002  0.4629745E+03  0.7546771E-02  0.1023922E+00
         21   -1    0    0  502  501  0.00000000000E+00  0.00000000000E+00  0.93195811769E+02  0.93195811769E+02  0.00000000000E+00 0. -1.
         21   -1    0    0  501  502 -0.00000000000E+00 -0.00000000000E+00 -0.57498652594E+03  0.57498652594E+03  0.00000000000E+00 0. -1.
      99926    2    1    2    0    0  0.00000000000E+00  0.00000000000E+00 -0.48179071418E+03  0.66818233771E+03  0.46297445304E+03 0.  0.
      99925    2    3    3    0    0  0.90077512071E+02  0.51945820157E+02 -0.38881249249E+03  0.48081963006E+03  0.26305899703E+03 0.  0.
         25    1    3    3    0    0 -0.90077512071E+02 -0.51945820157E+02 -0.92978221680E+02  0.18736270765E+03  0.12509000000E+03 0.  0.
         25    1    4    4    0    0  0.14321920365E+02  0.30969643211E+02 -0.13528167834E+03  0.18738430244E+03  0.12509000000E+03 0.  0.
         25    1    4    4    0    0  0.75755591707E+02  0.20976176947E+02 -0.25353081415E+03  0.29343532762E+03  0.12509000000E+03 0.  0.
<mgrwt>
<rscale>  2 0.46297445E+03</rscale>
<asrwt>0</asrwt>
<pdfrwt beam="1">  1       21 0.13705267E-01 0.46297445E+03</pdfrwt>
<pdfrwt beam="2">  1       21 0.84556840E-01 0.46297445E+03</pdfrwt>
<totfact> 0.51358759E+04</totfact>
</mgrwt>
</event>
<event>
 7    0  0.4714446E-002  0.4532387E+03  0.7546771E-02  0.1026761E+00
         21   -1    0    0  502  501  0.00000000000E+00  0.00000000000E+00  0.30112323761E+03  0.30112323761E+03  0.00000000000E+00 0.  1.
         21   -1    0    0  501  502 -0.00000000000E+00 -0.00000000000E+00 -0.17054920349E+03  0.17054920349E+03  0.00000000000E+00 0.  1.
      99926    2    1    2    0    0  0.00000000000E+00  0.00000000000E+00  0.13057403412E+03  0.47167244110E+03  0.45323869352E+03 0.  0.
      99925    2    3    3    0    0 -0.86102315080E+02 -0.71392534326E+02  0.85276791027E+02  0.29786262851E+03  0.26256334808E+03 0.  0.
         25    1    4    4    0    0 -0.35592813181E+02  0.53980305163E+01  0.38830457198E+02  0.13583556084E+03  0.12509000000E+03 0.  0.
         25    1    3    3    0    0  0.86102315080E+02  0.71392534326E+02  0.45297243091E+02  0.17380981259E+03  0.12509000000E+03 0.  0.
         25    1    4    4    0    0 -0.50509501899E+02 -0.76790564843E+02  0.46446333830E+02  0.16202706767E+03  0.12509000000E+03 0.  0.
<mgrwt>
<rscale>  2 0.45323869E+03</rscale>
<asrwt>0</asrwt>
<pdfrwt beam="1">  1       21 0.44282829E-01 0.45323869E+03</pdfrwt>
<pdfrwt beam="2">  1       21 0.25080765E-01 0.45323869E+03</pdfrwt>
<totfact> 0.68260519E+04</totfact>
</mgrwt>
</event>
<event>
 7    0  0.4714446E-002  0.4506785E+03  0.7546771E-02  0.1027520E+00
         21   -1    0    0  502  501  0.00000000000E+00  0.00000000000E+00  0.67903487300E+02  0.67903487300E+02  0.00000000000E+00 0.  1.
         21   -1    0    0  501  502 -0.00000000000E+00 -0.00000000000E+00 -0.74779324397E+03  0.74779324397E+03  0.00000000000E+00 0.  1.
      99926    2    1    2    0    0 -0.22204460493E-15  0.14210854715E-13 -0.67988975667E+03  0.81569673127E+03  0.45067846208E+03 0.  0.
      99925    2    3    3    0    0 -0.17886976092E+01  0.10569386638E+03 -0.38356307589E+03  0.47712413541E+03  0.26334846605E+03 0.  0.
         25    1    4    4    0    0 -0.79455294383E+01  0.53191299048E+02 -0.26012128716E+03  0.29360353858E+03  0.12509000000E+03 0.  0.
         25    1    3    3    0    0  0.17886976092E+01 -0.10569386638E+03 -0.29632668078E+03  0.33857259587E+03  0.12509000000E+03 0.  0.
         25    1    4    4    0    0  0.61568318292E+01  0.52502567329E+02 -0.12344178873E+03  0.18352059682E+03  0.12509000000E+03 0.  0.
<mgrwt>
<rscale>  2 0.45067846E+03</rscale>
<asrwt>0</asrwt>
<pdfrwt beam="1">  1       21 0.99858072E-02 0.45067846E+03</pdfrwt>
<pdfrwt beam="2">  1       21 0.10996959E+00 0.45067846E+03</pdfrwt>
<totfact> 0.48643618E+04</totfact>
</mgrwt>
</event>
<event>
 7    0  0.4714446E-002  0.4481916E+03  0.7546771E-02  0.1028263E+00
         21   -1    0    0  502  501  0.00000000000E+00  0.00000000000E+00  0.43735104763E+03  0.43735104763E+03  0.00000000000E+00 0.  1.
         21   -1    0    0  501  502 -0.00000000000E+00 -0.00000000000E+00 -0.11482520417E+03  0.11482520417E+03  0.00000000000E+00 0.  1.
      99926    2    1    2    0    0  0.00000000000E+00 -0.14210854715E-13  0.32252584345E+03  0.55217625180E+03  0.44819158109E+03 0.  0.
      99925    2    3    3    0    0  0.37747870550E+02 -0.99865772839E+02  0.20469156838E+03  0.34986337826E+03  0.26288337903E+03 0.  0.
         25    1    4    4    0    0  0.12628658203E+02 -0.60766121236E+02  0.15196505056E+03  0.20638044769E+03  0.12509000000E+03 0.  0.
         25    1    4    4    0    0  0.25119212348E+02 -0.39099651604E+02  0.52726517817E+02  0.14348293057E+03  0.12509000000E+03 0.  0.
         25    1    3    3    0    0 -0.37747870550E+02  0.99865772839E+02  0.11783427508E+03  0.20231287354E+03  0.12509000000E+03 0.  0.
<mgrwt>
<rscale>  2 0.44819158E+03</rscale>
<asrwt>0</asrwt>
<pdfrwt beam="1">  1       21 0.64316330E-01 0.44819158E+03</pdfrwt>
<pdfrwt beam="2">  1       21 0.16886060E-01 0.44819158E+03</pdfrwt>
<totfact> 0.65162553E+04</totfact>
</mgrwt>
</event>
<event>
 7    0  0.4714446E-002  0.4561864E+03  0.7546771E-02  0.1025893E+00
         21   -1    0    0  502  501  0.00000000000E+00  0.00000000000E+00  0.64940144709E+02  0.64940144709E+02  0.00000000000E+00 0. -1.
         21   -1    0    0  501  502 -0.00000000000E+00 -0.00000000000E+00 -0.80114555823E+03  0.80114555823E+03  0.00000000000E+00 0. -1.
      99926    2    1    2    0    0  0.00000000000E+00  0.00000000000E+00 -0.73620541352E+03  0.86608570294E+03  0.45618640262E+03 0.  0.
      99925    2    3    3    0    0  0.42719750305E+02  0.10084415029E+03 -0.52470179377E+03  0.59705817836E+03  0.26300565820E+03 0.  0.
         25    1    3    3    0    0 -0.42719750305E+02 -0.10084415029E+03 -0.21150361975E+03  0.26902752458E+03  0.12509000000E+03 0.  0.
         25    1    4    4    0    0 -0.46984653013E+01  0.47568894922E+02 -0.18760565990E+03  0.23049569858E+03  0.12509000000E+03 0.  0.
         25    1    4    4    0    0  0.47418215607E+02  0.53275255370E+02 -0.33709613387E+03  0.36656247978E+03  0.12509000000E+03 0.  0.
<mgrwt>
<rscale>  2 0.45618640E+03</rscale>
<asrwt>0</asrwt>
<pdfrwt beam="1">  1       21 0.95500227E-02 0.45618640E+03</pdfrwt>
<pdfrwt beam="2">  1       21 0.11781551E+00 0.45618640E+03</pdfrwt>
<totfact> 0.44314288E+04</totfact>
</mgrwt>
</event>
<event>
 7    0  0.4714446E-002  0.4491316E+03  0.7546771E-02  0.1027981E+00
         21   -1    0    0  502  501  0.00000000000E+00  0.00000000000E+00  0.26608217331E+03  0.26608217331E+03  0.00000000000E+00 0. -1.
         21   -1    0    0  501  502 -0.00000000000E+00 -0.00000000000E+00 -0.18952716757E+03  0.18952716757E+03  0.00000000000E+00 0. -1.
      99926    2    1    2    0    0 -0.35527136788E-14  0.14210854715E-13  0.76555005735E+02  0.45560934088E+03  0.44913160944E+03 0.  0.
      99925    2    3    3    0    0 -0.15810575026E+02  0.10259239090E+03  0.19796730429E+02  0.28343447957E+03  0.26299813824E+03 0.  0.
         25    1    4    4    0    0 -0.35538253386E+02  0.53071895497E+02  0.39832260800E+02  0.14599215954E+03  0.12509000000E+03 0.  0.
         25    1    3    3    0    0  0.15810575026E+02 -0.10259239090E+03  0.56758275306E+02  0.17217486132E+03  0.12509000000E+03 0.  0.
         25    1    4    4    0    0  0.19727678360E+02  0.49520495405E+02 -0.20035530371E+02  0.13744232003E+03  0.12509000000E+03 0.  0.
<mgrwt>
<rscale>  2 0.44913161E+03</rscale>
<asrwt>0</asrwt>
<pdfrwt beam="1">  1       21 0.39129732E-01 0.44913161E+03</pdfrwt>
<pdfrwt beam="2">  1       21 0.27871642E-01 0.44913161E+03</pdfrwt>
<totfact> 0.71803428E+04</totfact>
</mgrwt>
</event>
<event>
 7    0  0.4714446E-002  0.4621266E+03  0.7546771E-02  0.1024166E+00
         21   -1    0    0  502  501  0.00000000000E+00  0.00000000000E+00  0.18610347332E+03  0.18610347332E+03  0.00000000000E+00 0.  1.
         21   -1    0    0  501  502 -0.00000000000E+00 -0.00000000000E+00 -0.28688469396E+03  0.28688469396E+03  0.00000000000E+00 0.  1.
      99926    2    1    2    0    0  0.35527136788E-14  0.00000000000E+00 -0.10078122064E+03  0.47298816727E+03  0.46212655404E+03 0.  0.
      99925    2    3    3    0    0 -0.14411732198E+02 -0.57220502899E+02  0.43588104305E+02  0.27305844447E+03  0.26301921466E+03 0.  0.
         25    1    4    4    0    0  0.23059091751E+02 -0.10049371364E+01  0.15502806043E+02  0.12814279811E+03  0.12509000000E+03 0.  0.
         25    1    4    4    0    0 -0.37470823949E+02 -0.56215565763E+02  0.28085298262E+02  0.14491564636E+03  0.12509000000E+03 0.  0.
         25    1    3    3    0    0  0.14411732198E+02  0.57220502899E+02 -0.14436932494E+03  0.19992972281E+03  0.12509000000E+03 0.  0.
<mgrwt>
<rscale>  2 0.46212655E+03</rscale>
<asrwt>0</asrwt>
<pdfrwt beam="1">  1       21 0.27368158E-01 0.46212655E+03</pdfrwt>
<pdfrwt beam="2">  1       21 0.42188925E-01 0.46212655E+03</pdfrwt>
<totfact> 0.63544715E+04</totfact>
</mgrwt>
</event>
<event>
 7    0  0.4714446E-002  0.4116627E+03  0.7546771E-02  0.1039814E+00
         21   -1    0    0  502  501  0.00000000000E+00  0.00000000000E+00  0.11582491125E+03  0.11582491125E+03  0.00000000000E+00 0. -1.
         21   -1    0    0  501  502 -0.00000000000E+00 -0.00000000000E+00 -0.36578093542E+03  0.36578093542E+03  0.00000000000E+00 0. -1.
      99926    2    1    2    0    0 -0.35527136788E-14 -0.88817841970E-15 -0.24995602417E+03  0.48160584668E+03  0.41166269874E+03 0.  0.
      99925    2    3    3    0    0 -0.24294208152E+02  0.79087281166E+01 -0.23397917108E+03  0.35293757372E+03  0.26299414807E+03 0.  0.
         25    1    4    4    0    0 -0.46615637680E+02 -0.70620765177E+01 -0.14422688680E+03  0.19665145201E+03  0.12509000000E+03 0.  0.
         25    1    3    3    0    0  0.24294208152E+02 -0.79087281166E+01 -0.15976853098E+02  0.12866827295E+03  0.12509000000E+03 0.  0.
         25    1    4    4    0    0  0.22321429528E+02  0.14970804634E+02 -0.89752284274E+02  0.15628612171E+03  0.12509000000E+03 0.  0.
<mgrwt>
<rscale>  2 0.41166270E+03</rscale>
<asrwt>0</asrwt>
<pdfrwt beam="1">  1       21 0.17033075E-01 0.41166270E+03</pdfrwt>
<pdfrwt beam="2">  1       21 0.53791314E-01 0.41166270E+03</pdfrwt>
<totfact> 0.95401712E+04</totfact>
</mgrwt>
</event>
<event>
 7    0  0.4714446E-002  0.4530353E+03  0.7546771E-02  0.1026821E+00
         21   -1    0    0  502  501  0.00000000000E+00  0.00000000000E+00  0.15348566262E+03  0.15348566262E+03  0.00000000000E+00 0.  1.
         21   -1    0    0  501  502 -0.00000000000E+00 -0.00000000000E+00 -0.33429992274E+03  0.33429992274E+03  0.00000000000E+00 0.  1.
      99926    2    1    2    0    0  0.00000000000E+00  0.00000000000E+00 -0.18081426012E+03  0.48778558536E+03  0.45303529733E+03 0.  0.
      99925    2    3    3    0    0  0.71871835180E+02 -0.40442892290E+02 -0.33009827915E+02  0.27732217641E+03  0.26271039675E+03 0.  0.
         25    1    3    3    0    0 -0.71871835180E+02  0.40442892290E+02 -0.14780443221E+03  0.21046340896E+03  0.12509000000E+03 0.  0.
         25    1    4    4    0    0  0.39034643143E+02 -0.56691079428E+02 -0.34834955569E+02  0.14696449939E+03  0.12509000000E+03 0.  0.
         25    1    4    4    0    0  0.32837192037E+02  0.16248187138E+02  0.18251276542E+01  0.13035767702E+03  0.12509000000E+03 0.  0.
<mgrwt>
<rscale>  2 0.45303530E+03</rscale>
<asrwt>0</asrwt>
<pdfrwt beam="1">  1       21 0.22571421E-01 0.45303530E+03</pdfrwt>
<pdfrwt beam="2">  1       21 0.49161753E-01 0.45303530E+03</pdfrwt>
<totfact> 0.67179289E+04</totfact>
</mgrwt>
</event>
<event>
 7    0  0.4714446E-002  0.4513597E+03  0.7546771E-02  0.1027317E+00
         21   -1    0    0  502  501  0.00000000000E+00  0.00000000000E+00  0.12705409048E+03  0.12705409048E+03  0.00000000000E+00 0. -1.
         21   -1    0    0  501  502 -0.00000000000E+00 -0.00000000000E+00 -0.40086384852E+03  0.40086384852E+03  0.00000000000E+00 0. -1.
      99926    2    1    2    0    0  0.71054273576E-14  0.88817841970E-15 -0.27380975805E+03  0.52791793900E+03  0.45135968663E+03 0.  0.
      99925    2    3    3    0    0  0.57142980498E+02 -0.45042456847E+01 -0.28230999475E+03  0.39005797174E+03  0.26298418152E+03 0.  0.
         25    1    4    4    0    0  0.62077924952E+01 -0.29004713861E+02 -0.10606341858E+03  0.16666363423E+03  0.12509000000E+03 0.  0.
         25    1    3    3    0    0 -0.57142980498E+02  0.45042456847E+01  0.85002367045E+01  0.13785996726E+03  0.12509000000E+03 0.  0.
         25    1    4    4    0    0  0.50935188003E+02  0.24500468176E+02 -0.17624657617E+03  0.22339433751E+03  0.12509000000E+03 0.  0.
<mgrwt>
<rscale>  2 0.45135969E+03</rscale>
<asrwt>0</asrwt>
<pdfrwt beam="1">  1       21 0.18684425E-01 0.45135969E+03</pdfrwt>
<pdfrwt beam="2">  1       21 0.58950566E-01 0.45135969E+03</pdfrwt>
<totfact> 0.65208670E+04</totfact>
</mgrwt>
</event>
<event>
 7    0  0.4714446E-002  0.4522888E+03  0.7546771E-02  0.1027042E+00
         21   -1    0    0  502  501  0.00000000000E+00  0.00000000000E+00  0.99304827808E+03  0.99304827808E+03  0.00000000000E+00 0.  1.
         21   -1    0    0  501  502 -0.00000000000E+00 -0.00000000000E+00 -0.51499305792E+02  0.51499305792E+02  0.00000000000E+00 0.  1.
      99926    2    1    2    0    0  0.00000000000E+00  0.00000000000E+00  0.94154897229E+03  0.10445475839E+04  0.45228883223E+03 0.  0.
      99925    2    3    3    0    0  0.97690870530E+02  0.50359196018E+02  0.56464403102E+03  0.63249856050E+03  0.26296766429E+03 0.  0.
         25    1    4    4    0    0  0.50103399484E+02  0.53830349752E+02  0.22857280171E+03  0.27074174221E+03  0.12509000000E+03 0.  0.
         25    1    3    3    0    0 -0.97690870530E+02 -0.50359196018E+02  0.37690494127E+03  0.41204902337E+03  0.12509000000E+03 0.  0.
         25    1    4    4    0    0  0.47587471046E+02 -0.34711537343E+01  0.33607122931E+03  0.36175681829E+03  0.12509000000E+03 0.  0.
<mgrwt>
<rscale>  2 0.45228883E+03</rscale>
<asrwt>0</asrwt>
<pdfrwt beam="1">  1       21 0.14603650E+00 0.45228883E+03</pdfrwt>
<pdfrwt beam="2">  1       21 0.75734279E-02 0.45228883E+03</pdfrwt>
<totfact> 0.38281839E+04</totfact>
</mgrwt>
</event>
<event>
 7    0  0.4714446E-002  0.4661995E+03  0.7546771E-02  0.1022998E+00
         21   -1    0    0  502  501  0.00000000000E+00  0.00000000000E+00  0.14139320881E+03  0.14139320881E+03  0.00000000000E+00 0.  1.
         21   -1    0    0  501  502 -0.00000000000E+00 -0.00000000000E+00 -0.38428644542E+03  0.38428644542E+03  0.00000000000E+00 0.  1.
      99926    2    1    2    0    0  0.14210854715E-13  0.00000000000E+00 -0.24289323661E+03  0.52567965423E+03  0.46619950073E+03 0.  0.
      99925    2    3    3    0    0 -0.85787521519E+02 -0.81860006037E+02 -0.11243918279E+03  0.30951691994E+03  0.26286421298E+03 0.  0.
         25    1    4    4    0    0 -0.35017056069E+01 -0.52449909566E+02 -0.48934331439E+02  0.14424053469E+03  0.12509000000E+03 0.  0.
         25    1    4    4    0    0 -0.82285815912E+02 -0.29410096471E+02 -0.63504851353E+02  0.16527638525E+03  0.12509000000E+03 0.  0.
         25    1    3    3    0    0  0.85787521519E+02  0.81860006037E+02 -0.13045405382E+03  0.21616273429E+03  0.12509000000E+03 0.  0.
<mgrwt>
<rscale>  2 0.46619950E+03</rscale>
<asrwt>0</asrwt>
<pdfrwt beam="1">  1       21 0.20793119E-01 0.46619950E+03</pdfrwt>
<pdfrwt beam="2">  1       21 0.56512712E-01 0.46619950E+03</pdfrwt>
<totfact> 0.58159619E+04</totfact>
</mgrwt>
</event>
<event>
 7    0  0.4714446E-002  0.4564599E+03  0.7546771E-02  0.1025813E+00
         21   -1    0    0  502  501  0.00000000000E+00  0.00000000000E+00  0.31087033534E+03  0.31087033534E+03  0.00000000000E+00 0. -1.
         21   -1    0    0  501  502 -0.00000000000E+00 -0.00000000000E+00 -0.16755828430E+03  0.16755828430E+03  0.00000000000E+00 0. -1.
      99926    2    1    2    0    0 -0.14210854715E-13 -0.35527136788E-14  0.14331205104E+03  0.47842861964E+03  0.45645985597E+03 0.  0.
      99925    2    3    3    0    0  0.11060691443E+03  0.29144806174E+02  0.96511238719E+02  0.30258455980E+03  0.26298229480E+03 0.  0.
         25    1    3    3    0    0 -0.11060691443E+03 -0.29144806174E+02  0.46800812321E+02  0.17584405984E+03  0.12509000000E+03 0.  0.
         25    1    4    4    0    0  0.65628616957E+02 -0.21805250123E+02  0.32969002168E+02  0.14668690296E+03  0.12509000000E+03 0.  0.
         25    1    4    4    0    0  0.44978297477E+02  0.50950056298E+02  0.63542236551E+02  0.15589765683E+03  0.12509000000E+03 0.  0.
<mgrwt>
<rscale>  2 0.45645986E+03</rscale>
<asrwt>0</asrwt>
<pdfrwt beam="1">  1       21 0.45716226E-01 0.45645986E+03</pdfrwt>
<pdfrwt beam="2">  1       21 0.24640924E-01 0.45645986E+03</pdfrwt>
<totfact> 0.66046091E+04</totfact>
</mgrwt>
</event>
<event>
 7    0  0.4714446E-002  0.4574643E+03  0.7546771E-02  0.1025519E+00
         21   -1    0    0  502  501  0.00000000000E+00  0.00000000000E+00  0.22600775554E+03  0.22600775554E+03  0.00000000000E+00 0. -1.
         21   -1    0    0  501  502 -0.00000000000E+00 -0.00000000000E+00 -0.23148937417E+03  0.23148937417E+03  0.00000000000E+00 0. -1.
      99926    2    1    2    0    0  0.14210854715E-13  0.00000000000E+00 -0.54816186253E+01  0.45749712971E+03  0.45746428883E+03 0.  0.
      99925    2    3    3    0    0 -0.82286586112E+02 -0.77557761101E+02 -0.26862447666E+02  0.28752378912E+03  0.26298678609E+03 0.  0.
         25    1    3    3    0    0  0.82286586112E+02  0.77557761101E+02  0.21380829041E+02  0.16997334059E+03  0.12509000000E+03 0.  0.
         25    1    4    4    0    0 -0.76411293098E+02 -0.38590727632E+02  0.81009147271E+01  0.15179282885E+03  0.12509000000E+03 0.  0.
         25    1    4    4    0    0 -0.58752930139E+01 -0.38967033469E+02 -0.34963362394E+02  0.13573096027E+03  0.12509000000E+03 0.  0.
<mgrwt>
<rscale>  2 0.45746429E+03</rscale>
<asrwt>0</asrwt>
<pdfrwt beam="1">  1       21 0.33236435E-01 0.45746429E+03</pdfrwt>
<pdfrwt beam="2">  1       21 0.34042555E-01 0.45746429E+03</pdfrwt>
<totfact> 0.67035431E+04</totfact>
</mgrwt>
</event>
<event>
 7    0  0.4714446E-002  0.4544484E+03  0.7546771E-02  0.1026404E+00
         21   -1    0    0  502  501  0.00000000000E+00  0.00000000000E+00  0.59851921301E+02  0.59851921301E+02  0.00000000000E+00 0. -1.
         21   -1    0    0  501  502 -0.00000000000E+00 -0.00000000000E+00 -0.86264305942E+03  0.86264305942E+03  0.00000000000E+00 0. -1.
      99926    2    1    2    0    0  0.00000000000E+00  0.00000000000E+00 -0.80279113812E+03  0.92249498072E+03  0.45444843273E+03 0.  0.
      99925    2    3    3    0    0  0.34154826218E+02 -0.18663528012E+02 -0.72006153829E+03  0.76755443012E+03  0.26293783456E+03 0.  0.
         25    1    4    4    0    0  0.47201648965E+02 -0.14138156611E+02 -0.29374733162E+03  0.32305245096E+03  0.12509000000E+03 0.  0.
         25    1    3    3    0    0 -0.34154826218E+02  0.18663528012E+02 -0.82729599825E+02  0.15494055060E+03  0.12509000000E+03 0.  0.
         25    1    4    4    0    0 -0.13046822747E+02 -0.45253714005E+01 -0.42631420667E+03  0.44450197916E+03  0.12509000000E+03 0.  0.
<mgrwt>
<rscale>  2 0.45444843E+03</rscale>
<asrwt>0</asrwt>
<pdfrwt beam="1">  1       21 0.88017536E-02 0.45444843E+03</pdfrwt>
<pdfrwt beam="2">  1       21 0.12685927E+00 0.45444843E+03</pdfrwt>
<totfact> 0.42458058E+04</totfact>
</mgrwt>
</event>
<event>
 7    0  0.4714446E-002  0.4592445E+03  0.7546771E-02  0.1025001E+00
         21   -1    0    0  502  501  0.00000000000E+00  0.00000000000E+00  0.44028494841E+03  0.44028494841E+03  0.00000000000E+00 0. -1.
         21   -1    0    0  501  502 -0.00000000000E+00 -0.00000000000E+00 -0.11975513462E+03  0.11975513462E+03  0.00000000000E+00 0. -1.
      99926    2    1    2    0    0 -0.35527136788E-14  0.00000000000E+00  0.32052981379E+03  0.56004008303E+03  0.45924452426E+03 0.  0.
      99925    2    3    3    0    0 -0.31820613293E+02  0.11201779362E+03  0.21510505169E+03  0.35923563565E+03  0.26309603027E+03 0.  0.
         25    1    4    4    0    0  0.13538573572E+02  0.84469534479E+02  0.10537401726E+03  0.18457948652E+03  0.12509000000E+03 0.  0.
         25    1    3    3    0    0  0.31820613293E+02 -0.11201779362E+03  0.10542476211E+03  0.20080444737E+03  0.12509000000E+03 0.  0.
         25    1    4    4    0    0 -0.45359186865E+02  0.27548259146E+02  0.10973103443E+03  0.17465614914E+03  0.12509000000E+03 0.  0.
<mgrwt>
<rscale>  2 0.45924452E+03</rscale>
<asrwt>0</asrwt>
<pdfrwt beam="1">  1       21 0.64747786E-01 0.45924452E+03</pdfrwt>
<pdfrwt beam="2">  1       21 0.17611049E-01 0.45924452E+03</pdfrwt>
<totfact> 0.59195293E+04</totfact>
</mgrwt>
</event>
<event>
 7    0  0.4714446E-002  0.4513583E+03  0.7546771E-02  0.1027318E+00
         21   -1    0    0  502  501  0.00000000000E+00  0.00000000000E+00  0.10573990841E+04  0.10573990841E+04  0.00000000000E+00 0. -1.
         21   -1    0    0  501  502 -0.00000000000E+00 -0.00000000000E+00 -0.48166377405E+02  0.48166377405E+02  0.00000000000E+00 0. -1.
      99926    2    1    2    0    0 -0.17763568394E-14 -0.71054273576E-14  0.10092327067E+04  0.11055654615E+04  0.45135832041E+03 0.  0.
      99925    2    3    3    0    0  0.94808529562E+01 -0.53823901283E+02  0.87032654977E+03  0.91081093023E+03  0.26290939210E+03 0.  0.
         25    1    4    4    0    0  0.23005657584E+02 -0.63480325114E+02  0.44386192297E+03  0.46606858586E+03  0.12509000000E+03 0.  0.
         25    1    4    4    0    0 -0.13524804628E+02  0.96564238307E+01  0.42646462680E+03  0.44474234437E+03  0.12509000000E+03 0.  0.
         25    1    3    3    0    0 -0.94808529562E+01  0.53823901283E+02  0.13890615691E+03  0.19475453127E+03  0.12509000000E+03 0.  0.
<mgrwt>
<rscale>  2 0.45135832E+03</rscale>
<asrwt>0</asrwt>
<pdfrwt beam="1">  1       21 0.15549985E+00 0.45135832E+03</pdfrwt>
<pdfrwt beam="2">  1       21 0.70832915E-02 0.45135832E+03</pdfrwt>
<totfact> 0.36321375E+04</totfact>
</mgrwt>
</event>
<event>
 7    0  0.4714446E-002  0.4553309E+03  0.7546771E-02  0.1026144E+00
         21   -1    0    0  502  501  0.00000000000E+00  0.00000000000E+00  0.49710249624E+03  0.49710249624E+03  0.00000000000E+00 0. -1.
         21   -1    0    0  501  502 -0.00000000000E+00 -0.00000000000E+00 -0.10426733367E+03  0.10426733367E+03  0.00000000000E+00 0. -1.
      99926    2    1    2    0    0  0.00000000000E+00  0.71054273576E-14  0.39283516257E+03  0.60136982992E+03  0.45533087682E+03 0.  0.
      99925    2    3    3    0    0 -0.92826601363E+02 -0.58776139842E+02  0.20975318819E+03  0.35390684283E+03  0.26302517163E+03 0.  0.
         25    1    3    3    0    0  0.92826601363E+02  0.58776139842E+02  0.18308197439E+03  0.24746298709E+03  0.12509000000E+03 0.  0.
         25    1    4    4    0    0 -0.94435824995E+01 -0.11248960775E+02  0.75652123913E+02  0.14692335526E+03  0.12509000000E+03 0.  0.
         25    1    4    4    0    0 -0.83383018863E+02 -0.47527179066E+02  0.13410106427E+03  0.20698348756E+03  0.12509000000E+03 0.  0.
<mgrwt>
<rscale>  2 0.45533088E+03</rscale>
<asrwt>0</asrwt>
<pdfrwt beam="1">  1       21 0.73103307E-01 0.45533088E+03</pdfrwt>
<pdfrwt beam="2">  1       21 0.15333432E-01 0.45533088E+03</pdfrwt>
<totfact> 0.58441101E+04</totfact>
</mgrwt>
</event>
<event>
 7    0  0.4714446E-002  0.4598289E+03  0.7546771E-02  0.1024831E+00
         21   -1    0    0  502  501  0.00000000000E+00  0.00000000000E+00  0.15184547057E+03  0.15184547057E+03  0.00000000000E+00 0. -1.
         21   -1    0    0  501  502 -0.00000000000E+00 -0.00000000000E+00 -0.34812131462E+03  0.34812131462E+03  0.00000000000E+00 0. -1.
      99926    2    1    2    0    0 -0.14210854715E-13 -0.71054273576E-14 -0.19627584405E+03  0.49996678519E+03  0.45982885875E+03 0.  0.
      99925    2    3    3    0    0 -0.98014877586E+02 -0.54956276257E+02 -0.16046511937E+03  0.32804521985E+03  0.26313020199E+03 0.  0.
         25    1    3    3    0    0  0.98014877586E+02  0.54956276257E+02 -0.35810724676E+02  0.17192156534E+03  0.12509000000E+03 0.  0.
         25    1    4    4    0    0 -0.90233644181E+02 -0.28264920046E+02 -0.73492908155E+02  0.17317543676E+03  0.12509000000E+03 0.  0.
         25    1    4    4    0    0 -0.77812334052E+01 -0.26691356211E+02 -0.86972211219E+02  0.15486978309E+03  0.12509000000E+03 0.  0.
<mgrwt>
<rscale>  2 0.45982886E+03</rscale>
<asrwt>0</asrwt>
<pdfrwt beam="1">  1       21 0.22330216E-01 0.45982886E+03</pdfrwt>
<pdfrwt beam="2">  1       21 0.51194311E-01 0.45982886E+03</pdfrwt>
<totfact> 0.62829769E+04</totfact>
</mgrwt>
</event>
<event>
 7    0  0.4714446E-002  0.4470022E+03  0.7546771E-02  0.1028620E+00
         21   -1    0    0  502  501  0.00000000000E+00  0.00000000000E+00  0.11508479097E+03  0.11508479097E+03  0.00000000000E+00 0.  1.
         21   -1    0    0  501  502 -0.00000000000E+00 -0.00000000000E+00 -0.43405161255E+03  0.43405161255E+03  0.00000000000E+00 0.  1.
      99926    2    1    2    0    0  0.00000000000E+00 -0.17763568394E-14 -0.31896682158E+03  0.54913640352E+03  0.44700218836E+03 0.  0.
      99925    2    3    3    0    0 -0.10337951001E+03 -0.13295975355E+02 -0.18207185891E+03  0.33641159313E+03  0.26298002231E+03 0.  0.
         25    1    4    4    0    0 -0.13826150251E+02 -0.25049239017E+02 -0.90030769653E+02  0.15675354666E+03  0.12509000000E+03 0.  0.
         25    1    4    4    0    0 -0.89553359757E+02  0.11753263663E+02 -0.92041089259E+02  0.17965804647E+03  0.12509000000E+03 0.  0.
         25    1    3    3    0    0  0.10337951001E+03  0.13295975355E+02 -0.13689496267E+03  0.21272481039E+03  0.12509000000E+03 0.  0.
<mgrwt>
<rscale>  2 0.44700219E+03</rscale>
<asrwt>0</asrwt>
<pdfrwt beam="1">  1       21 0.16924234E-01 0.44700219E+03</pdfrwt>
<pdfrwt beam="2">  1       21 0.63831120E-01 0.44700219E+03</pdfrwt>
<totfact> 0.66002019E+04</totfact>
</mgrwt>
</event>
<event>
 7    0  0.4714446E-002  0.4476005E+03  0.7546771E-02  0.1028440E+00
         21   -1    0    0  502  501  0.00000000000E+00  0.00000000000E+00  0.21358748596E+04  0.21358748596E+04  0.00000000000E+00 0.  1.
         21   -1    0    0  501  502 -0.00000000000E+00 -0.00000000000E+00 -0.23450135781E+02  0.23450135781E+02  0.00000000000E+00 0.  1.
      99926    2    1    2    0    0 -0.71054273576E-14 -0.14210854715E-13  0.21124247239E+04  0.21593249954E+04  0.44760051595E+03 0.  0.
      99925    2    3    3    0    0 -0.48938616300E+02 -0.93858790550E+02  0.13810188719E+04  0.14097874786E+04  0.26283673558E+03 0.  0.
         25    1    4    4    0    0 -0.53874190649E+02 -0.77610212530E+02  0.72974597396E+03  0.74639297164E+03  0.12509000000E+03 0.  0.
         25    1    4    4    0    0  0.49355743495E+01 -0.16248578020E+02  0.65127289795E+03  0.66339450697E+03  0.12509000000E+03 0.  0.
         25    1    3    3    0    0  0.48938616300E+02  0.93858790550E+02  0.73140585196E+03  0.74953751681E+03  0.12509000000E+03 0.  0.
<mgrwt>
<rscale>  2 0.44760052E+03</rscale>
<asrwt>0</asrwt>
<pdfrwt beam="1">  1       21 0.31409911E+00 0.44760052E+03</pdfrwt>
<pdfrwt beam="2">  1       21 0.34485508E-02 0.44760052E+03</pdfrwt>
<totfact> 0.11950760E+04</totfact>
</mgrwt>
</event>
<event>
 7    0  0.4714446E-002  0.4380097E+03  0.7546771E-02  0.1031359E+00
         21   -1    0    0  502  501  0.00000000000E+00  0.00000000000E+00  0.35255596424E+03  0.35255596424E+03  0.00000000000E+00 0. -1.
         21   -1    0    0  501  502 -0.00000000000E+00 -0.00000000000E+00 -0.13604401061E+03  0.13604401061E+03  0.00000000000E+00 0. -1.
      99926    2    1    2    0    0  0.00000000000E+00  0.71054273576E-14  0.21651195363E+03  0.48859997485E+03  0.43800971377E+03 0.  0.
      99925    2    3    3    0    0  0.61944011363E+02 -0.50313655245E+02  0.19897377342E+03  0.33918906389E+03  0.26285002208E+03 0.  0.
         25    1    4    4    0    0  0.46321318539E+01 -0.50411941456E+02  0.77322156332E+02  0.15552827539E+03  0.12509000000E+03 0.  0.
         25    1    3    3    0    0 -0.61944011363E+02  0.50313655245E+02  0.17538180210E+02  0.14941091096E+03  0.12509000000E+03 0.  0.
         25    1    4    4    0    0  0.57311879509E+02  0.98286211830E-01  0.12165161709E+03  0.18366078850E+03  0.12509000000E+03 0.  0.
<mgrwt>
<rscale>  2 0.43800971E+03</rscale>
<asrwt>0</asrwt>
<pdfrwt beam="1">  1       21 0.51846465E-01 0.43800971E+03</pdfrwt>
<pdfrwt beam="2">  1       21 0.20006472E-01 0.43800971E+03</pdfrwt>
<totfact> 0.75797792E+04</totfact>
</mgrwt>
</event>
<event>
 7    0  0.4714446E-002  0.4606776E+03  0.7546771E-02  0.1024585E+00
         21   -1    0    0  502  501  0.00000000000E+00  0.00000000000E+00  0.14753066990E+04  0.14753066990E+04  0.00000000000E+00 0.  1.
         21   -1    0    0  501  502 -0.00000000000E+00 -0.00000000000E+00 -0.35962660208E+02  0.35962660208E+02  0.00000000000E+00 0.  1.
      99926    2    1    2    0    0 -0.14210854715E-13  0.00000000000E+00  0.14393440388E+04  0.15112693592E+04  0.46067755977E+03 0.  0.
      99925    2    3    3    0    0  0.10450937409E+03  0.75426075767E+01  0.72111040404E+03  0.77473275972E+03  0.26311885900E+03 0.  0.
         25    1    3    3    0    0 -0.10450937409E+03 -0.75426075767E+01  0.71823363475E+03  0.73653659949E+03  0.12509000000E+03 0.  0.
         25    1    4    4    0    0  0.85764247343E+02  0.19761605029E+02  0.45085576247E+03  0.47609290460E+03  0.12509000000E+03 0.  0.
         25    1    4    4    0    0  0.18745126742E+02 -0.12218997452E+02  0.27025464157E+03  0.29863985512E+03  0.12509000000E+03 0.  0.
<mgrwt>
<rscale>  2 0.46067756E+03</rscale>
<asrwt>0</asrwt>
<pdfrwt beam="1">  1       21 0.21695683E+00 0.46067756E+03</pdfrwt>
<pdfrwt beam="2">  1       21 0.52886275E-02 0.46067756E+03</pdfrwt>
<totfact> 0.22495793E+04</totfact>
</mgrwt>
</event>
<event>
 7    0  0.4714446E-002  0.4501842E+03  0.7546771E-02  0.1027667E+00
         21   -1    0    0  502  501  0.00000000000E+00  0.00000000000E+00  0.54320465956E+03  0.54320465956E+03  0.00000000000E+00 0.  1.
         21   -1    0    0  501  502 -0.00000000000E+00 -0.00000000000E+00 -0.93273220885E+02  0.93273220885E+02  0.00000000000E+00 0.  1.
      99926    2    1    2    0    0  0.14210854715E-13  0.71054273576E-14  0.44993143867E+03  0.63647788044E+03  0.45018417652E+03 0.  0.
      99925    2    3    3    0    0  0.93869080418E+02  0.49494252363E+02  0.31631366447E+03  0.42490684519E+03  0.26311671836E+03 0.  0.
         25    1    4    4    0    0  0.78170085459E+01  0.25086676223E+02  0.16955032662E+03  0.21233291855E+03  0.12509000000E+03 0.  0.
         25    1    3    3    0    0 -0.93869080418E+02 -0.49494252363E+02  0.13361777421E+03  0.21157103526E+03  0.12509000000E+03 0.  0.
         25    1    4    4    0    0  0.86052071873E+02  0.24407576140E+02  0.14676333785E+03  0.21257392663E+03  0.12509000000E+03 0.  0.
<mgrwt>
<rscale>  2 0.45018418E+03</rscale>
<asrwt>0</asrwt>
<pdfrwt beam="1">  1       21 0.79883036E-01 0.45018418E+03</pdfrwt>
<pdfrwt beam="2">  1       21 0.13716650E-01 0.45018418E+03</pdfrwt>
<totfact> 0.58686191E+04</totfact>
</mgrwt>
</event>
<event>
 7    0  0.4714446E-002  0.4480947E+03  0.7546771E-02  0.1028292E+00
         21   -1    0    0  502  501  0.00000000000E+00  0.00000000000E+00  0.66636553454E+03  0.66636553454E+03  0.00000000000E+00 0. -1.
         21   -1    0    0  501  502 -0.00000000000E+00 -0.00000000000E+00 -0.75329848517E+02  0.75329848517E+02  0.00000000000E+00 0. -1.
      99926    2    1    2    0    0 -0.88817841970E-15 -0.71054273576E-14  0.59103568603E+03  0.74169538306E+03  0.44809469880E+03 0.  0.
      99925    2    3    3    0    0 -0.32196018575E+01 -0.63956274912E+02  0.51530464824E+03  0.58205995741E+03  0.26297175246E+03 0.  0.
         25    1    3    3    0    0  0.32196018575E+01  0.63956274912E+02  0.75731037789E+02  0.15963542565E+03  0.12509000000E+03 0.  0.
         25    1    4    4    0    0 -0.27379356710E+02 -0.30017931885E+02  0.32444084510E+03  0.35008581159E+03  0.12509000000E+03 0.  0.
         25    1    4    4    0    0  0.24159754852E+02 -0.33938343028E+02  0.19086380314E+03  0.23197414582E+03  0.12509000000E+03 0.  0.
<mgrwt>
<rscale>  2 0.44809470E+03</rscale>
<asrwt>0</asrwt>
<pdfrwt beam="1">  1       21 0.97994928E-01 0.44809470E+03</pdfrwt>
<pdfrwt beam="2">  1       21 0.11077919E-01 0.44809470E+03</pdfrwt>
<totfact> 0.53544866E+04</totfact>
</mgrwt>
</event>
<event>
 7    0  0.4714446E-002  0.4584070E+03  0.7546771E-02  0.1025244E+00
         21   -1    0    0  502  501  0.00000000000E+00  0.00000000000E+00  0.55088349954E+03  0.55088349954E+03  0.00000000000E+00 0.  1.
         21   -1    0    0  501  502 -0.00000000000E+00 -0.00000000000E+00 -0.95363632167E+02  0.95363632167E+02  0.00000000000E+00 0.  1.
      99926    2    1    2    0    0  0.00000000000E+00  0.00000000000E+00  0.45551986737E+03  0.64624713170E+03  0.45840703056E+03 0.  0.
      99925    2    3    3    0    0  0.29139577498E+02 -0.36024864586E+02  0.13551256732E+03  0.29954973334E+03  0.26309595398E+03 0.  0.
         25    1    4    4    0    0 -0.18182373917E+02 -0.25682311544E+02  0.92338319925E+02  0.15863181671E+03  0.12509000000E+03 0.  0.
         25    1    4    4    0    0  0.47321951415E+02 -0.10342553042E+02  0.43174247397E+02  0.14091791663E+03  0.12509000000E+03 0.  0.
         25    1    3    3    0    0 -0.29139577498E+02  0.36024864586E+02  0.32000730005E+03  0.34669739836E+03  0.12509000000E+03 0.  0.
<mgrwt>
<rscale>  2 0.45840703E+03</rscale>
<asrwt>0</asrwt>
<pdfrwt beam="1">  1       21 0.81012278E-01 0.45840703E+03</pdfrwt>
<pdfrwt beam="2">  1       21 0.14024064E-01 0.45840703E+03</pdfrwt>
<totfact> 0.54439929E+04</totfact>
</mgrwt>
</event>
<event>
 7    0  0.4714446E-002  0.4554413E+03  0.7546771E-02  0.1026112E+00
         21   -1    0    0  502  501  0.00000000000E+00  0.00000000000E+00  0.18676601089E+04  0.18676601089E+04  0.00000000000E+00 0.  1.
         21   -1    0    0  501  502 -0.00000000000E+00 -0.00000000000E+00 -0.27765597389E+02  0.27765597389E+02  0.00000000000E+00 0.  1.
      99926    2    1    2    0    0 -0.71054273576E-14  0.00000000000E+00  0.18398945115E+04  0.18954257063E+04  0.45544131847E+03 0.  0.
      99925    2    3    3    0    0  0.57637754615E+02 -0.97625023970E+02  0.11291234155E+04  0.11648808308E+04  0.26301122884E+03 0.  0.
         25    1    4    4    0    0  0.40153835829E+02 -0.28357233217E+02  0.40986948135E+03  0.43134320796E+03  0.12509000000E+03 0.  0.
         25    1    3    3    0    0 -0.57637754615E+02  0.97625023970E+02  0.71077109600E+03  0.73054487547E+03  0.12509000000E+03 0.  0.
         25    1    4    4    0    0  0.17483918786E+02 -0.69267790753E+02  0.71925393413E+03  0.73353762284E+03  0.12509000000E+03 0.  0.
<mgrwt>
<rscale>  2 0.45544132E+03</rscale>
<asrwt>0</asrwt>
<pdfrwt beam="1">  1       21 0.27465581E+00 0.45544132E+03</pdfrwt>
<pdfrwt beam="2">  1       21 0.40831774E-02 0.45544132E+03</pdfrwt>
<totfact> 0.15440215E+04</totfact>
</mgrwt>
</event>
<event>
 7    0  0.4714446E-002  0.4149411E+03  0.7546771E-02  0.1038725E+00
         21   -1    0    0  502  501  0.00000000000E+00  0.00000000000E+00  0.98912025186E+03  0.98912025186E+03  0.00000000000E+00 0.  1.
         21   -1    0    0  501  502 -0.00000000000E+00 -0.00000000000E+00 -0.43517496013E+02  0.43517496013E+02  0.00000000000E+00 0.  1.
      99926    2    1    2    0    0  0.00000000000E+00  0.00000000000E+00  0.94560275585E+03  0.10326377479E+04  0.41494113615E+03 0.  0.
      99925    2    3    3    0    0  0.42999319497E+02 -0.41886050367E+02  0.53441175304E+03  0.59866893381E+03  0.26306878915E+03 0.  0.
         25    1    3    3    0    0 -0.42999319497E+02  0.41886050367E+02  0.41119100281E+03  0.43396881407E+03  0.12509000000E+03 0.  0.
         25    1    4    4    0    0  0.37862208400E+02  0.13547080681E+02  0.23007482320E+03  0.26495094374E+03  0.12509000000E+03 0.  0.
         25    1    4    4    0    0  0.51371110971E+01 -0.55433131048E+02  0.30433692984E+03  0.33371799007E+03  0.12509000000E+03 0.  0.
<mgrwt>
<rscale>  2 0.41494114E+03</rscale>
<asrwt>0</asrwt>
<pdfrwt beam="1">  1       21 0.14545885E+00 0.41494114E+03</pdfrwt>
<pdfrwt beam="2">  1       21 0.63996324E-02 0.41494114E+03</pdfrwt>
<totfact> 0.52522310E+04</totfact>
</mgrwt>
</event>
<event>
 7    0  0.4714446E-002  0.4522164E+03  0.7546771E-02  0.1027063E+00
         21   -1    0    0  502  501  0.00000000000E+00  0.00000000000E+00  0.17922474010E+03  0.17922474010E+03  0.00000000000E+00 0.  1.
         21   -1    0    0  501  502 -0.00000000000E+00 -0.00000000000E+00 -0.28525597085E+03  0.28525597085E+03  0.00000000000E+00 0.  1.
      99926    2    1    2    0    0 -0.17763568394E-14 -0.14210854715E-13 -0.10603123075E+03  0.46448071096E+03  0.45221644039E+03 0.  0.
      99925    2    3    3    0    0 -0.53370509492E+01 -0.10623001910E+03 -0.96918041792E+02  0.30003053800E+03  0.26327156291E+03 0.  0.
         25    1    4    4    0    0 -0.39366446819E+02 -0.34202071970E+02 -0.50612171627E+02  0.14466720043E+03  0.12509000000E+03 0.  0.
         25    1    3    3    0    0  0.53370509492E+01  0.10623001910E+03 -0.91131889566E+01  0.16445017295E+03  0.12509000000E+03 0.  0.
         25    1    4    4    0    0  0.34029395869E+02 -0.72027947132E+02 -0.46305870165E+02  0.15536333758E+03  0.12509000000E+03 0.  0.
<mgrwt>
<rscale>  2 0.45221644E+03</rscale>
<asrwt>0</asrwt>
<pdfrwt beam="1">  1       21 0.26356579E-01 0.45221644E+03</pdfrwt>
<pdfrwt beam="2">  1       21 0.41949408E-01 0.45221644E+03</pdfrwt>
<totfact> 0.69367674E+04</totfact>
</mgrwt>
</event>
<event>
 7    0  0.4714446E-002  0.4475389E+03  0.7546771E-02  0.1028459E+00
         21   -1    0    0  502  501  0.00000000000E+00  0.00000000000E+00  0.25831339880E+03  0.25831339880E+03  0.00000000000E+00 0.  1.
         21   -1    0    0  501  502 -0.00000000000E+00 -0.00000000000E+00 -0.19384498002E+03  0.19384498002E+03  0.00000000000E+00 0.  1.
      99926    2    1    2    0    0 -0.71054273576E-14  0.00000000000E+00  0.64468418779E+02  0.45215837883E+03  0.44753885029E+03 0.  0.
      99925    2    3    3    0    0 -0.33408738893E+02  0.36260976592E+02 -0.53958828915E+02  0.27298381770E+03  0.26301636309E+03 0.  0.
         25    1    3    3    0    0  0.33408738893E+02 -0.36260976592E+02  0.11842724769E+03  0.17917456112E+03  0.12509000000E+03 0.  0.
         25    1    4    4    0    0 -0.18925288230E+02 -0.11946614669E+02  0.17565142108E+01  0.12708847933E+03  0.12509000000E+03 0.  0.
         25    1    4    4    0    0 -0.14483450663E+02  0.48207591261E+02 -0.55715343126E+02  0.14589533837E+03  0.12509000000E+03 0.  0.
<mgrwt>
<rscale>  2 0.44753885E+03</rscale>
<asrwt>0</asrwt>
<pdfrwt beam="1">  1       21 0.37987265E-01 0.44753885E+03</pdfrwt>
<pdfrwt beam="2">  1       21 0.28506615E-01 0.44753885E+03</pdfrwt>
<totfact> 0.73003886E+04</totfact>
</mgrwt>
</event>
<event>
 7    0  0.4714446E-002  0.4538733E+03  0.7546771E-02  0.1026573E+00
         21   -1    0    0  502  501  0.00000000000E+00  0.00000000000E+00  0.49851901594E+02  0.49851901594E+02  0.00000000000E+00 0.  1.
         21   -1    0    0  501  502 -0.00000000000E+00 -0.00000000000E+00 -0.10330648499E+04  0.10330648499E+04  0.00000000000E+00 0.  1.
      99926    2    1    2    0    0  0.00000000000E+00 -0.35527136788E-14 -0.98321294828E+03  0.10829167515E+04  0.45387331817E+03 0.  0.
      99925    2    3    3    0    0  0.92817627424E+02 -0.28262397188E+02 -0.48501810522E+03  0.56017447768E+03  0.26294297480E+03 0.  0.
         25    1    3    3    0    0 -0.92817627424E+02  0.28262397188E+02 -0.49819484306E+03  0.52274227379E+03  0.12509000000E+03 0.  0.
         25    1    4    4    0    0  0.41180482245E+02 -0.18188891954E+02 -0.16039400399E+03  0.20832765665E+03  0.12509000000E+03 0.  0.
         25    1    4    4    0    0  0.51637145179E+02 -0.10073505234E+02 -0.32462410123E+03  0.35184682103E+03  0.12509000000E+03 0.  0.
<mgrwt>
<rscale>  2 0.45387332E+03</rscale>
<asrwt>0</asrwt>
<pdfrwt beam="1">  1       21 0.73311625E-02 0.45387332E+03</pdfrwt>
<pdfrwt beam="2">  1       21 0.15192129E+00 0.45387332E+03</pdfrwt>
<totfact> 0.36411292E+04</totfact>
</mgrwt>
</event>
<event>
 7    0  0.4714446E-002  0.4522893E+03  0.7546771E-02  0.1027042E+00
         21   -1    0    0  502  501  0.00000000000E+00  0.00000000000E+00  0.50314312479E+03  0.50314312479E+03  0.00000000000E+00 0.  1.
         21   -1    0    0  501  502 -0.00000000000E+00 -0.00000000000E+00 -0.10164386000E+03  0.10164386000E+03  0.00000000000E+00 0.  1.
      99926    2    1    2    0    0  0.00000000000E+00  0.00000000000E+00  0.40149926478E+03  0.60478698479E+03  0.45228932925E+03 0.  0.
      99925    2    3    3    0    0 -0.14943076259E+02  0.69860566947E+02  0.36631156185E+03  0.45649849272E+03  0.26287434103E+03 0.  0.
         25    1    4    4    0    0  0.30565052924E+02  0.41180800817E+02  0.16249386615E+03  0.21138080673E+03  0.12509000000E+03 0.  0.
         25    1    3    3    0    0  0.14943076259E+02 -0.69860566947E+02  0.35187702934E+02  0.14828849207E+03  0.12509000000E+03 0.  0.
         25    1    4    4    0    0 -0.45508129184E+02  0.28679766130E+02  0.20381769570E+03  0.24511768600E+03  0.12509000000E+03 0.  0.
<mgrwt>
<rscale>  2 0.45228933E+03</rscale>
<asrwt>0</asrwt>
<pdfrwt beam="1">  1       21 0.73991635E-01 0.45228933E+03</pdfrwt>
<pdfrwt beam="2">  1       21 0.14947627E-01 0.45228933E+03</pdfrwt>
<totfact> 0.59651762E+04</totfact>
</mgrwt>
</event>
<event>
 7    0  0.4714446E-002  0.4572558E+03  0.7546771E-02  0.1025580E+00
         21   -1    0    0  502  501  0.00000000000E+00  0.00000000000E+00  0.32976151830E+03  0.32976151830E+03  0.00000000000E+00 0.  1.
         21   -1    0    0  501  502 -0.00000000000E+00 -0.00000000000E+00 -0.15851068042E+03  0.15851068042E+03  0.00000000000E+00 0.  1.
      99926    2    1    2    0    0  0.00000000000E+00  0.00000000000E+00  0.17125083788E+03  0.48827219871E+03  0.45725582617E+03 0.  0.
      99925    2    3    3    0    0  0.85449731297E+02  0.32340341953E+02  0.18283400958E+03  0.33293632950E+03  0.26281318488E+03 0.  0.
         25    1    4    4    0    0  0.58418731948E+02  0.45323656995E+02  0.12590823862E+03  0.19226901669E+03  0.12509000000E+03 0.  0.
         25    1    4    4    0    0  0.27030999349E+02 -0.12983315042E+02  0.56925770962E+02  0.14066731282E+03  0.12509000000E+03 0.  0.
         25    1    3    3    0    0 -0.85449731297E+02 -0.32340341953E+02 -0.11583171704E+02  0.15533586921E+03  0.12509000000E+03 0.  0.
<mgrwt>
<rscale>  2 0.45725583E+03</rscale>
<asrwt>0</asrwt>
<pdfrwt beam="1">  1       21 0.48494341E-01 0.45725583E+03</pdfrwt>
<pdfrwt beam="2">  1       21 0.23310394E-01 0.45725583E+03</pdfrwt>
<totfact> 0.64932082E+04</totfact>
</mgrwt>
</event>
<event>
 7    0  0.4714446E-002  0.4499436E+03  0.7546771E-02  0.1027739E+00
         21   -1    0    0  502  501  0.00000000000E+00  0.00000000000E+00  0.85337282095E+02  0.85337282095E+02  0.00000000000E+00 0. -1.
         21   -1    0    0  501  502 -0.00000000000E+00 -0.00000000000E+00 -0.59308550990E+03  0.59308550990E+03  0.00000000000E+00 0. -1.
      99926    2    1    2    0    0 -0.88817841970E-15  0.00000000000E+00 -0.50774822781E+03  0.67842279200E+03  0.44994357631E+03 0.  0.
      99925    2    3    3    0    0  0.51691711410E+01  0.95324732620E+02 -0.24640794881E+03  0.37336578994E+03  0.26376430934E+03 0.  0.
         25    1    3    3    0    0 -0.51691711410E+01 -0.95324732620E+02 -0.26134027899E+03  0.30505700206E+03  0.12509000000E+03 0.  0.
         25    1    4    4    0    0 -0.28620252791E+02  0.28967805562E+02 -0.14597928220E+03  0.19650880784E+03  0.12509000000E+03 0.  0.
         25    1    4    4    0    0  0.33789423932E+02  0.66356927059E+02 -0.10042866661E+03  0.17685698210E+03  0.12509000000E+03 0.  0.
<mgrwt>
<rscale>  2 0.44994358E+03</rscale>
<asrwt>0</asrwt>
<pdfrwt beam="1">  1       21 0.12549600E-01 0.44994358E+03</pdfrwt>
<pdfrwt beam="2">  1       21 0.87218459E-01 0.44994358E+03</pdfrwt>
<totfact> 0.56299042E+04</totfact>
</mgrwt>
</event>
<event>
 7    0  0.4714446E-002  0.4594008E+03  0.7546771E-02  0.1024955E+00
         21   -1    0    0  502  501  0.00000000000E+00  0.00000000000E+00  0.91898995563E+03  0.91898995563E+03  0.00000000000E+00 0.  1.
         21   -1    0    0  501  502 -0.00000000000E+00 -0.00000000000E+00 -0.57413339354E+02  0.57413339354E+02  0.00000000000E+00 0.  1.
      99926    2    1    2    0    0  0.00000000000E+00  0.00000000000E+00  0.86157661628E+03  0.97640329499E+03  0.45940083668E+03 0.  0.
      99925    2    3    3    0    0  0.54643792094E+02 -0.88705713571E+02  0.65426070912E+03  0.71280883166E+03  0.26302986021E+03 0.  0.
         25    1    4    4    0    0  0.16134135451E+02 -0.34304154903E+02  0.21888108017E+03  0.25493826846E+03  0.12509000000E+03 0.  0.
         25    1    3    3    0    0 -0.54643792094E+02  0.88705713571E+02  0.20731590716E+03  0.26359446333E+03  0.12509000000E+03 0.  0.
         25    1    4    4    0    0  0.38509656644E+02 -0.54401558668E+02  0.43537962895E+03  0.45787056320E+03  0.12509000000E+03 0.  0.
<mgrwt>
<rscale>  2 0.45940084E+03</rscale>
<asrwt>0</asrwt>
<pdfrwt beam="1">  1       21 0.13514557E+00 0.45940084E+03</pdfrwt>
<pdfrwt beam="2">  1       21 0.84431387E-02 0.45940084E+03</pdfrwt>
<totfact> 0.38739663E+04</totfact>
</mgrwt>
</event>
<event>
 7    0  0.4714446E-002  0.4501494E+03  0.7546771E-02  0.1027677E+00
         21   -1    0    0  502  501  0.00000000000E+00  0.00000000000E+00  0.28829449710E+03  0.28829449710E+03  0.00000000000E+00 0. -1.
         21   -1    0    0  501  502 -0.00000000000E+00 -0.00000000000E+00 -0.17571832655E+03  0.17571832655E+03  0.00000000000E+00 0. -1.
      99926    2    1    2    0    0 -0.35527136788E-14 -0.14210854715E-13  0.11257617055E+03  0.46401282365E+03  0.45014942667E+03 0.  0.
      99925    2    3    3    0    0  0.14037036174E+02  0.10602297954E+03  0.51999177871E+02  0.28864181488E+03  0.26300622088E+03 0.  0.
         25    1    4    4    0    0  0.42676785021E+02  0.74712670150E+02  0.28495743934E+02  0.15447590939E+03  0.12509000000E+03 0.  0.
         25    1    3    3    0    0 -0.14037036174E+02 -0.10602297954E+03  0.60576992677E+02  0.17537100877E+03  0.12509000000E+03 0.  0.
         25    1    4    4    0    0 -0.28639748847E+02  0.31310309388E+02  0.23503433937E+02  0.13416590549E+03  0.12509000000E+03 0.  0.
<mgrwt>
<rscale>  2 0.45014943E+03</rscale>
<asrwt>0</asrwt>
<pdfrwt beam="1">  1       21 0.42396249E-01 0.45014943E+03</pdfrwt>
<pdfrwt beam="2">  1       21 0.25840930E-01 0.45014943E+03</pdfrwt>
<totfact> 0.70559779E+04</totfact>
</mgrwt>
</event>
<event>
 7    0  0.4714446E-002  0.4562681E+03  0.7546771E-02  0.1025869E+00
         21   -1    0    0  502  501  0.00000000000E+00  0.00000000000E+00  0.15489651778E+03  0.15489651778E+03  0.00000000000E+00 0.  1.
         21   -1    0    0  501  502 -0.00000000000E+00 -0.00000000000E+00 -0.33599939326E+03  0.33599939326E+03  0.00000000000E+00 0.  1.
      99926    2    1    2    0    0  0.71054273576E-14  0.00000000000E+00 -0.18110287548E+03  0.49089591104E+03  0.45626806153E+03 0.  0.
      99925    2    3    3    0    0  0.57272516098E+02 -0.38149745596E+02 -0.15577908018E+02  0.27230595898E+03  0.26300631150E+03 0.  0.
         25    1    3    3    0    0 -0.57272516098E+02  0.38149745596E+02 -0.16552496746E+03  0.21858995206E+03  0.12509000000E+03 0.  0.
         25    1    4    4    0    0 -0.12386632577E+01  0.95677816785E+01 -0.13454806952E+02  0.12618088866E+03  0.12509000000E+03 0.  0.
         25    1    4    4    0    0  0.58511179356E+02 -0.47717527274E+02 -0.21231010660E+01  0.14612507032E+03  0.12509000000E+03 0.  0.
<mgrwt>
<rscale>  2 0.45626806E+03</rscale>
<asrwt>0</asrwt>
<pdfrwt beam="1">  1       21 0.22778900E-01 0.45626806E+03</pdfrwt>
<pdfrwt beam="2">  1       21 0.49411676E-01 0.45626806E+03</pdfrwt>
<totfact> 0.65255711E+04</totfact>
</mgrwt>
</event>
<event>
 7    0  0.4714446E-002  0.4462855E+03  0.7546771E-02  0.1028836E+00
         21   -1    0    0  502  501  0.00000000000E+00  0.00000000000E+00  0.62671832739E+02  0.62671832739E+02  0.00000000000E+00 0.  1.
         21   -1    0    0  501  502 -0.00000000000E+00 -0.00000000000E+00 -0.79449878099E+03  0.79449878099E+03  0.00000000000E+00 0.  1.
      99926    2    1    2    0    0  0.00000000000E+00  0.35527136788E-14 -0.73182694825E+03  0.85717061372E+03  0.44628553511E+03 0.  0.
      99925    2    3    3    0    0  0.68211079836E+02 -0.23086879888E+02 -0.61127988296E+03  0.66911514721E+03  0.26242375937E+03 0.  0.
         25    1    4    4    0    0  0.32958023932E+01 -0.35848011038E+02 -0.27369734685E+03  0.30307373357E+03  0.12509000000E+03 0.  0.
         25    1    4    4    0    0  0.64915277443E+02  0.12761131150E+02 -0.33758253611E+03  0.36604141364E+03  0.12509000000E+03 0.  0.
         25    1    3    3    0    0 -0.68211079836E+02  0.23086879888E+02 -0.12054706529E+03  0.18805546651E+03  0.12509000000E+03 0.  0.
<mgrwt>
<rscale>  2 0.44628554E+03</rscale>
<asrwt>0</asrwt>
<pdfrwt beam="1">  1       21 0.92164461E-02 0.44628554E+03</pdfrwt>
<pdfrwt beam="2">  1       21 0.11683806E+00 0.44628554E+03</pdfrwt>
<totfact> 0.48340774E+04</totfact>
</mgrwt>
</event>
<event>
 7    0  0.4714446E-002  0.4460408E+03  0.7546771E-02  0.1028909E+00
         21   -1    0    0  502  501  0.00000000000E+00  0.00000000000E+00  0.19439342466E+03  0.19439342466E+03  0.00000000000E+00 0.  1.
         21   -1    0    0  501  502 -0.00000000000E+00 -0.00000000000E+00 -0.25586302543E+03  0.25586302543E+03  0.00000000000E+00 0.  1.
      99926    2    1    2    0    0 -0.44408920985E-15  0.00000000000E+00 -0.61469600769E+02  0.45025645009E+03  0.44604075938E+03 0.  0.
      99925    2    3    3    0    0  0.36470132570E+01  0.91870246858E+02  0.10896831921E+02  0.27897349226E+03  0.26316159574E+03 0.  0.
         25    1    3    3    0    0 -0.36470132570E+01 -0.91870246858E+02 -0.72366432690E+02  0.17128295783E+03  0.12509000000E+03 0.  0.
         25    1    4    4    0    0 -0.49909186329E+01  0.13604218047E+02  0.31310907608E+02  0.12976079937E+03  0.12509000000E+03 0.  0.
         25    1    4    4    0    0  0.86379318899E+01  0.78266028811E+02 -0.20414075687E+02  0.14921269289E+03  0.12509000000E+03 0.  0.
<mgrwt>
<rscale>  2 0.44604076E+03</rscale>
<asrwt>0</asrwt>
<pdfrwt beam="1">  1       21 0.28587268E-01 0.44604076E+03</pdfrwt>
<pdfrwt beam="2">  1       21 0.37626915E-01 0.44604076E+03</pdfrwt>
<totfact> 0.74047336E+04</totfact>
</mgrwt>
</event>
<event>
 7    0  0.4714446E-002  0.4657246E+03  0.7546771E-02  0.1023134E+00
         21   -1    0    0  502  501  0.00000000000E+00  0.00000000000E+00  0.66920341285E+03  0.66920341285E+03  0.00000000000E+00 0.  1.
         21   -1    0    0  501  502 -0.00000000000E+00 -0.00000000000E+00 -0.81028965149E+02  0.81028965149E+02  0.00000000000E+00 0.  1.
      99926    2    1    2    0    0  0.00000000000E+00 -0.71054273576E-14  0.58817444770E+03  0.75023237800E+03  0.46572463975E+03 0.  0.
      99925    2    3    3    0    0 -0.64197260085E+02 -0.33985228341E+02  0.52665767414E+03  0.59304425670E+03  0.26278679709E+03 0.  0.
         25    1    3    3    0    0  0.64197260085E+02  0.33985228341E+02  0.61516773561E+02  0.15718812130E+03  0.12509000000E+03 0.  0.
         25    1    4    4    0    0 -0.54184067476E+02  0.16471744481E+02  0.27224496878E+03  0.30491320513E+03  0.12509000000E+03 0.  0.
         25    1    4    4    0    0 -0.10013192609E+02 -0.50456972822E+02  0.25441270536E+03  0.28813105157E+03  0.12509000000E+03 0.  0.
<mgrwt>
<rscale>  2 0.46572464E+03</rscale>
<asrwt>0</asrwt>
<pdfrwt beam="1">  1       21 0.98412264E-01 0.46572464E+03</pdfrwt>
<pdfrwt beam="2">  1       21 0.11916025E-01 0.46572464E+03</pdfrwt>
<totfact> 0.46236708E+04</totfact>
</mgrwt>
</event>
<event>
 7    0  0.4714446E-002  0.4571707E+03  0.7546771E-02  0.1025605E+00
         21   -1    0    0  502  501  0.00000000000E+00  0.00000000000E+00  0.92708515659E+03  0.92708515659E+03  0.00000000000E+00 0.  1.
         21   -1    0    0  501  502 -0.00000000000E+00 -0.00000000000E+00 -0.56360812375E+02  0.56360812375E+02  0.00000000000E+00 0.  1.
      99926    2    1    2    0    0  0.14210854715E-13 -0.71054273576E-14  0.87072434422E+03  0.98344596897E+03  0.45717074520E+03 0.  0.
      99925    2    3    3    0    0 -0.10585046866E+03  0.41911008364E+02  0.51094161928E+03  0.58588846168E+03  0.26314083089E+03 0.  0.
         25    1    4    4    0    0 -0.57451878352E+02  0.53796200777E+02  0.21669353036E+03  0.26229438374E+03  0.12509000000E+03 0.  0.
         25    1    3    3    0    0  0.10585046866E+03 -0.41911008364E+02  0.35978272494E+03  0.39755750729E+03  0.12509000000E+03 0.  0.
         25    1    4    4    0    0 -0.48398590305E+02 -0.11885192413E+02  0.29424808892E+03  0.32359407794E+03  0.12509000000E+03 0.  0.
<mgrwt>
<rscale>  2 0.45717075E+03</rscale>
<asrwt>0</asrwt>
<pdfrwt beam="1">  1       21 0.13633604E+00 0.45717075E+03</pdfrwt>
<pdfrwt beam="2">  1       21 0.82883553E-02 0.45717075E+03</pdfrwt>
<totfact> 0.39146638E+04</totfact>
</mgrwt>
</event>
<event>
 7    0  0.4714446E-002  0.4528522E+03  0.7546771E-02  0.1026875E+00
         21   -1    0    0  502  501  0.00000000000E+00  0.00000000000E+00  0.21364584628E+04  0.21364584628E+04  0.00000000000E+00 0.  1.
         21   -1    0    0  501  502 -0.00000000000E+00 -0.00000000000E+00 -0.23997089812E+02  0.23997089812E+02  0.00000000000E+00 0.  1.
      99926    2    1    2    0    0  0.22204460493E-15  0.00000000000E+00  0.21124613729E+04  0.21604555526E+04  0.45285223025E+03 0.  0.
      99925    2    3    3    0    0  0.18793493143E+01 -0.70755357752E+02  0.17382848340E+04  0.17596246119E+04  0.26388398599E+03 0.  0.
         25    1    3    3    0    0 -0.18793493143E+01  0.70755357752E+02  0.37417653890E+03  0.40083094063E+03  0.12509000000E+03 0.  0.
         25    1    4    4    0    0 -0.10860411598E+02 -0.12761768242E+01  0.96188733398E+03  0.97004862174E+03  0.12509000000E+03 0.  0.
         25    1    4    4    0    0  0.12739760912E+02 -0.69479180928E+02  0.77639750006E+03  0.78957599019E+03  0.12509000000E+03 0.  0.
<mgrwt>
<rscale>  2 0.45285223E+03</rscale>
<asrwt>0</asrwt>
<pdfrwt beam="1">  1       21 0.31418494E+00 0.45285223E+03</pdfrwt>
<pdfrwt beam="2">  1       21 0.35289853E-02 0.45285223E+03</pdfrwt>
<totfact> 0.11452393E+04</totfact>
</mgrwt>
</event>
<event>
 7    0  0.4714446E-002  0.4578412E+03  0.7546771E-02  0.1025409E+00
         21   -1    0    0  502  501  0.00000000000E+00  0.00000000000E+00  0.38630299037E+04  0.38630299037E+04  0.00000000000E+00 0. -1.
         21   -1    0    0  501  502 -0.00000000000E+00 -0.00000000000E+00 -0.13565682983E+02  0.13565682983E+02  0.00000000000E+00 0. -1.
      99926    2    1    2    0    0  0.88817841970E-15  0.00000000000E+00  0.38494642207E+04  0.38765955867E+04  0.45784119093E+03 0.  0.
      99925    2    3    3    0    0  0.48346384528E+01  0.95223356355E+02  0.18588294194E+04  0.18797567645E+04  0.26295973468E+03 0.  0.
         25    1    4    4    0    0 -0.25230498751E+02  0.75259593235E+02  0.89604249989E+03  0.90820716477E+03  0.12509000000E+03 0.  0.
         25    1    3    3    0    0 -0.48346384528E+01 -0.95223356355E+02  0.19906348013E+04  0.19968388221E+04  0.12509000000E+03 0.  0.
         25    1    4    4    0    0  0.30065137204E+02  0.19963763120E+02  0.96278691952E+03  0.97154959977E+03  0.12509000000E+03 0.  0.
<mgrwt>
<rscale>  2 0.45784119E+03</rscale>
<asrwt>0</asrwt>
<pdfrwt beam="1">  1       21 0.56809187E+00 0.45784119E+03</pdfrwt>
<pdfrwt beam="2">  1       21 0.19949561E-02 0.45784119E+03</pdfrwt>
<totfact> 0.57790042E+02</totfact>
</mgrwt>
</event>
<event>
 7    0  0.4714446E-002  0.4436563E+03  0.7546771E-02  0.1029631E+00
         21   -1    0    0  502  501  0.00000000000E+00  0.00000000000E+00  0.15103769517E+03  0.15103769517E+03  0.00000000000E+00 0. -1.
         21   -1    0    0  501  502 -0.00000000000E+00 -0.00000000000E+00 -0.32579760910E+03  0.32579760910E+03  0.00000000000E+00 0. -1.
      99926    2    1    2    0    0  0.00000000000E+00  0.00000000000E+00 -0.17475991393E+03  0.47683530427E+03  0.44365626321E+03 0.  0.
      99925    2    3    3    0    0  0.52133950189E+02 -0.87864338353E+02 -0.11277296446E+03  0.30383825019E+03  0.26298640658E+03 0.  0.
         25    1    3    3    0    0 -0.52133950189E+02  0.87864338353E+02 -0.61986949473E+02  0.17299705408E+03  0.12509000000E+03 0.  0.
         25    1    4    4    0    0  0.54773657234E+02 -0.15531585592E+02 -0.60336694267E+02  0.15009799617E+03  0.12509000000E+03 0.  0.
         25    1    4    4    0    0 -0.26397070447E+01 -0.72332752761E+02 -0.52436270192E+02  0.15374025402E+03  0.12509000000E+03 0.  0.
<mgrwt>
<rscale>  2 0.44365626E+03</rscale>
<asrwt>0</asrwt>
<pdfrwt beam="1">  1       21 0.22211426E-01 0.44365626E+03</pdfrwt>
<pdfrwt beam="2">  1       21 0.47911412E-01 0.44365626E+03</pdfrwt>
<totfact> 0.73313791E+04</totfact>
</mgrwt>
</event>
<event>
 7    0  0.4714446E-002  0.4959368E+03  0.7546771E-02  0.1014845E+00
         21   -1    0    0  502  501  0.00000000000E+00  0.00000000000E+00  0.79180294970E+03  0.79180294970E+03  0.00000000000E+00 0.  1.
         21   -1    0    0  501  502 -0.00000000000E+00 -0.00000000000E+00 -0.77656083347E+02  0.77656083347E+02  0.00000000000E+00 0.  1.
      99926    2    1    2    0    0  0.00000000000E+00  0.00000000000E+00  0.71414686635E+03  0.86945903305E+03  0.49593675345E+03 0.  0.
      99925    2    3    3    0    0 -0.83970633531E+02 -0.76633291369E+02  0.60164460775E+03  0.66641225289E+03  0.26306905581E+03 0.  0.
         25    1    3    3    0    0  0.83970633531E+02  0.76633291369E+02  0.11250225860E+03  0.20304678016E+03  0.12509000000E+03 0.  0.
         25    1    4    4    0    0 -0.43281831651E+02 -0.66572686513E+02  0.38788865349E+03  0.41522325940E+03  0.12509000000E+03 0.  0.
         25    1    4    4    0    0 -0.40688801880E+02 -0.10060604857E+02  0.21375595427E+03  0.25118899350E+03  0.12509000000E+03 0.  0.
<mgrwt>
<rscale>  2 0.49593675E+03</rscale>
<asrwt>0</asrwt>
<pdfrwt beam="1">  1       21 0.11644161E+00 0.49593675E+03</pdfrwt>
<pdfrwt beam="2">  1       21 0.11420013E-01 0.49593675E+03</pdfrwt>
<totfact> 0.32734484E+04</totfact>
</mgrwt>
</event>
<event>
 7    0  0.4714446E-002  0.4492198E+03  0.7546771E-02  0.1027955E+00
         21   -1    0    0  502  501  0.00000000000E+00  0.00000000000E+00  0.10768256531E+03  0.10768256531E+03  0.00000000000E+00 0. -1.
         21   -1    0    0  501  502 -0.00000000000E+00 -0.00000000000E+00 -0.46850305973E+03  0.46850305973E+03  0.00000000000E+00 0. -1.
      99926    2    1    2    0    0  0.00000000000E+00  0.00000000000E+00 -0.36082049442E+03  0.57618562504E+03  0.44921981848E+03 0.  0.
      99925    2    3    3    0    0  0.17104652749E+02  0.30150647373E+02 -0.97664529648E+02  0.28275726824E+03  0.26308113142E+03 0.  0.
         25    1    4    4    0    0  0.22654372569E+02 -0.15802650937E+02 -0.71936249832E+02  0.14691928571E+03  0.12509000000E+03 0.  0.
         25    1    3    3    0    0 -0.17104652749E+02 -0.30150647373E+02 -0.26315596477E+03  0.29342835680E+03  0.12509000000E+03 0.  0.
         25    1    4    4    0    0 -0.55497198198E+01  0.45953298310E+02 -0.25728279816E+02  0.13583798253E+03  0.12509000000E+03 0.  0.
<mgrwt>
<rscale>  2 0.44921982E+03</rscale>
<asrwt>0</asrwt>
<pdfrwt beam="1">  1       21 0.15835671E-01 0.44921982E+03</pdfrwt>
<pdfrwt beam="2">  1       21 0.68897509E-01 0.44921982E+03</pdfrwt>
<totfact> 0.62998657E+04</totfact>
</mgrwt>
</event>
<event>
 7    0  0.4714446E-002  0.4512039E+03  0.7546771E-02  0.1027364E+00
         21   -1    0    0  502  501  0.00000000000E+00  0.00000000000E+00  0.46745758618E+02  0.46745758618E+02  0.00000000000E+00 0. -1.
         21   -1    0    0  501  502 -0.00000000000E+00 -0.00000000000E+00 -0.10887883367E+04  0.10887883367E+04  0.00000000000E+00 0. -1.
      99926    2    1    2    0    0  0.14210854715E-13  0.17763568394E-14 -0.10420425781E+04  0.11355340953E+04  0.45120388639E+03 0.  0.
      99925    2    3    3    0    0 -0.10495998475E+03 -0.13603583557E+02 -0.58747273514E+03  0.65233340606E+03  0.26308364116E+03 0.  0.
         25    1    4    4    0    0 -0.78562607223E+02 -0.30273725820E+02 -0.36956065952E+03  0.39913803489E+03  0.12509000000E+03 0.  0.
         25    1    4    4    0    0 -0.26397377527E+02  0.16670142263E+02 -0.21791207562E+03  0.25319537117E+03  0.12509000000E+03 0.  0.
         25    1    3    3    0    0  0.10495998475E+03  0.13603583557E+02 -0.45456984293E+03  0.48320068924E+03  0.12509000000E+03 0.  0.
<mgrwt>
<rscale>  2 0.45120389E+03</rscale>
<asrwt>0</asrwt>
<pdfrwt beam="1">  1       21 0.68743774E-02 0.45120389E+03</pdfrwt>
<pdfrwt beam="2">  1       21 0.16011591E+00 0.45120389E+03</pdfrwt>
<totfact> 0.35302129E+04</totfact>
</mgrwt>
</event>
<event>
 7    0  0.4714446E-002  0.4491594E+03  0.7546771E-02  0.1027973E+00
         21   -1    0    0  502  501  0.00000000000E+00  0.00000000000E+00  0.55852941942E+03  0.55852941942E+03  0.00000000000E+00 0.  1.
         21   -1    0    0  501  502 -0.00000000000E+00 -0.00000000000E+00 -0.90301476076E+02  0.90301476076E+02  0.00000000000E+00 0.  1.
      99926    2    1    2    0    0  0.00000000000E+00 -0.14210854715E-13  0.46822794334E+03  0.64883089549E+03  0.44915935259E+03 0.  0.
      99925    2    3    3    0    0  0.38938475787E+02  0.96461161955E+02  0.25675420590E+03  0.38201708328E+03  0.26304632483E+03 0.  0.
         25    1    4    4    0    0  0.27431828394E+01  0.11659414080E+02  0.13640110564E+03  0.18546222448E+03  0.12509000000E+03 0.  0.
         25    1    4    4    0    0  0.36195292948E+02  0.84801747875E+02  0.12035310026E+03  0.19655485880E+03  0.12509000000E+03 0.  0.
         25    1    3    3    0    0 -0.38938475787E+02 -0.96461161955E+02  0.21147373744E+03  0.26681381222E+03  0.12509000000E+03 0.  0.
<mgrwt>
<rscale>  2 0.44915935E+03</rscale>
<asrwt>0</asrwt>
<pdfrwt beam="1">  1       21 0.82136677E-01 0.44915935E+03</pdfrwt>
<pdfrwt beam="2">  1       21 0.13279629E-01 0.44915935E+03</pdfrwt>
<totfact> 0.58414221E+04</totfact>
</mgrwt>
</event>
<event>
 7    0  0.4714446E-002  0.4570188E+03  0.7546771E-02  0.1025649E+00
         21   -1    0    0  502  501  0.00000000000E+00  0.00000000000E+00  0.46156234442E+02  0.46156234442E+02  0.00000000000E+00 0. -1.
         21   -1    0    0  501  502 -0.00000000000E+00 -0.00000000000E+00 -0.11312998843E+04  0.11312998843E+04  0.00000000000E+00 0. -1.
      99926    2    1    2    0    0  0.00000000000E+00  0.00000000000E+00 -0.10851436499E+04  0.11774561188E+04  0.45701878598E+03 0.  0.
      99925    2    3    3    0    0 -0.11969803493E+02 -0.11331962661E+03 -0.72235887518E+03  0.77715009230E+03  0.26301199105E+03 0.  0.
         25    1    3    3    0    0  0.11969803493E+02  0.11331962661E+03 -0.36278477469E+03  0.40030602646E+03  0.12509000000E+03 0.  0.
         25    1    4    4    0    0 -0.35063872731E+02 -0.58430371682E+02 -0.28925661281E+03  0.32242903042E+03  0.12509000000E+03 0.  0.
         25    1    4    4    0    0  0.23094069238E+02 -0.54889254931E+02 -0.43310226237E+03  0.45472106187E+03  0.12509000000E+03 0.  0.
<mgrwt>
<rscale>  2 0.45701879E+03</rscale>
<asrwt>0</asrwt>
<pdfrwt beam="1">  1       21 0.67876821E-02 0.45701879E+03</pdfrwt>
<pdfrwt beam="2">  1       21 0.16636762E+00 0.45701879E+03</pdfrwt>
<totfact> 0.32366653E+04</totfact>
</mgrwt>
</event>
<event>
 7    0  0.4714446E-002  0.4507032E+03  0.7546771E-02  0.1027513E+00
         21   -1    0    0  502  501  0.00000000000E+00  0.00000000000E+00  0.58267014952E+03  0.58267014952E+03  0.00000000000E+00 0. -1.
         21   -1    0    0  501  502 -0.00000000000E+00 -0.00000000000E+00 -0.87156255506E+02  0.87156255506E+02  0.00000000000E+00 0. -1.
      99926    2    1    2    0    0  0.00000000000E+00  0.00000000000E+00  0.49551389402E+03  0.66982640503E+03  0.45070322132E+03 0.  0.
      99925    2    3    3    0    0 -0.30206393221E+02  0.58185889834E+02  0.18301823202E+03  0.32689919580E+03  0.26281055343E+03 0.  0.
         25    1    3    3    0    0  0.30206393221E+02 -0.58185889834E+02  0.31249566199E+03  0.34292720923E+03  0.12509000000E+03 0.  0.
         25    1    4    4    0    0 -0.15238076332E+02  0.22234044193E+02  0.13841861266E+03  0.18850403742E+03  0.12509000000E+03 0.  0.
         25    1    4    4    0    0 -0.14968316889E+02  0.35951845642E+02  0.44599619359E+02  0.13839515838E+03  0.12509000000E+03 0.  0.
<mgrwt>
<rscale>  2 0.45070322E+03</rscale>
<asrwt>0</asrwt>
<pdfrwt beam="1">  1       21 0.85686784E-01 0.45070322E+03</pdfrwt>
<pdfrwt beam="2">  1       21 0.12817097E-01 0.45070322E+03</pdfrwt>
<totfact> 0.56459708E+04</totfact>
</mgrwt>
</event>
<event>
 7    0  0.4714446E-002  0.4397328E+03  0.7546771E-02  0.1030829E+00
         21   -1    0    0  502  501  0.00000000000E+00  0.00000000000E+00  0.15998183996E+03  0.15998183996E+03  0.00000000000E+00 0.  1.
         21   -1    0    0  501  502 -0.00000000000E+00 -0.00000000000E+00 -0.30216707016E+03  0.30216707016E+03  0.00000000000E+00 0.  1.
      99926    2    1    2    0    0  0.00000000000E+00 -0.88817841970E-15 -0.14218523020E+03  0.46214891012E+03  0.43973284553E+03 0.  0.
      99925    2    3    3    0    0  0.73739866816E+02  0.51509063440E+01 -0.22954310733E+02  0.27419247886E+03  0.26304090041E+03 0.  0.
         25    1    4    4    0    0 -0.23099353579E+00 -0.52188854807E+01  0.72185519364E+01  0.12540696040E+03  0.12509000000E+03 0.  0.
         25    1    3    3    0    0 -0.73739866816E+02 -0.51509063440E+01 -0.11923091947E+03  0.18795643126E+03  0.12509000000E+03 0.  0.
         25    1    4    4    0    0  0.73970860352E+02  0.10369791825E+02 -0.30172862669E+02  0.14878551847E+03  0.12509000000E+03 0.  0.
<mgrwt>
<rscale>  2 0.43973285E+03</rscale>
<asrwt>0</asrwt>
<pdfrwt beam="1">  1       21 0.23526741E-01 0.43973285E+03</pdfrwt>
<pdfrwt beam="2">  1       21 0.44436333E-01 0.43973285E+03</pdfrwt>
<totfact> 0.76928906E+04</totfact>
</mgrwt>
</event>
<event>
 7    0  0.4714446E-002  0.4545554E+03  0.7546771E-02  0.1026372E+00
         21   -1    0    0  502  501  0.00000000000E+00  0.00000000000E+00  0.11920928085E+04  0.11920928085E+04  0.00000000000E+00 0.  1.
         21   -1    0    0  501  502 -0.00000000000E+00 -0.00000000000E+00 -0.43331486972E+02  0.43331486972E+02  0.00000000000E+00 0.  1.
      99926    2    1    2    0    0  0.00000000000E+00  0.00000000000E+00  0.11487613215E+04  0.12354242954E+04  0.45455540476E+03 0.  0.
      99925    2    3    3    0    0 -0.58488594510E+02 -0.72794561963E+02  0.55140507011E+03  0.61800874404E+03  0.26299675365E+03 0.  0.
         25    1    4    4    0    0 -0.69905347936E+02 -0.35710095098E+02  0.27501564689E+03  0.31215874599E+03  0.12509000000E+03 0.  0.
         25    1    3    3    0    0  0.58488594510E+02  0.72794561963E+02  0.59735625139E+03  0.61741555140E+03  0.12509000000E+03 0.  0.
         25    1    4    4    0    0  0.11416753426E+02 -0.37084466865E+02  0.27638942322E+03  0.30584999805E+03  0.12509000000E+03 0.  0.
<mgrwt>
<rscale>  2 0.45455540E+03</rscale>
<asrwt>0</asrwt>
<pdfrwt beam="1">  1       21 0.17530775E+00 0.45455540E+03</pdfrwt>
<pdfrwt beam="2">  1       21 0.63722782E-02 0.45455540E+03</pdfrwt>
<totfact> 0.31156995E+04</totfact>
</mgrwt>
</event>
<event>
 7    0  0.4714446E-002  0.4689863E+03  0.7546771E-02  0.1022207E+00
         21   -1    0    0  502  501  0.00000000000E+00  0.00000000000E+00  0.19645265419E+03  0.19645265419E+03  0.00000000000E+00 0. -1.
         21   -1    0    0  501  502 -0.00000000000E+00 -0.00000000000E+00 -0.27989975017E+03  0.27989975017E+03  0.00000000000E+00 0. -1.
      99926    2    1    2    0    0  0.00000000000E+00  0.00000000000E+00 -0.83447095975E+02  0.47635240436E+03  0.46898634875E+03 0.  0.
      99925    2    3    3    0    0  0.75012782461E+02 -0.88374247320E+02 -0.15882083413E+01  0.28718234673E+03  0.26274370163E+03 0.  0.
         25    1    3    3    0    0 -0.75012782461E+02  0.88374247320E+02 -0.81858887634E+02  0.18917005764E+03  0.12509000000E+03 0.  0.
         25    1    4    4    0    0  0.73638769341E+02 -0.55863987948E+02 -0.19277700317E+02  0.15672457155E+03  0.12509000000E+03 0.  0.
         25    1    4    4    0    0  0.13740131204E+01 -0.32510259371E+02  0.17689491976E+02  0.13045777517E+03  0.12509000000E+03 0.  0.
<mgrwt>
<rscale>  2 0.46898635E+03</rscale>
<asrwt>0</asrwt>
<pdfrwt beam="1">  1       21 0.28890097E-01 0.46898635E+03</pdfrwt>
<pdfrwt beam="2">  1       21 0.41161727E-01 0.46898635E+03</pdfrwt>
<totfact> 0.60019792E+04</totfact>
</mgrwt>
</event>
<event>
 7    0  0.4714446E-002  0.4594980E+03  0.7546771E-02  0.1024927E+00
         21   -1    0    0  502  501  0.00000000000E+00  0.00000000000E+00  0.10493994075E+03  0.10493994075E+03  0.00000000000E+00 0.  1.
         21   -1    0    0  501  502 -0.00000000000E+00 -0.00000000000E+00 -0.50299817517E+03  0.50299817517E+03  0.00000000000E+00 0.  1.
      99926    2    1    2    0    0 -0.71054273576E-14  0.00000000000E+00 -0.39805823442E+03  0.60793811591E+03  0.45949798127E+03 0.  0.
      99925    2    3    3    0    0 -0.36363891123E+02 -0.85471144006E+02 -0.15505443656E+03  0.31927567826E+03  0.26318706541E+03 0.  0.
         25    1    4    4    0    0 -0.43210682417E+02 -0.19316476731E+02 -0.10118249595E+03  0.16770717019E+03  0.12509000000E+03 0.  0.
         25    1    3    3    0    0  0.36363891123E+02  0.85471144006E+02 -0.24300379786E+03  0.28866243765E+03  0.12509000000E+03 0.  0.
         25    1    4    4    0    0  0.68467912941E+01 -0.66154667275E+02 -0.53871940611E+02  0.15156850807E+03  0.12509000000E+03 0.  0.
<mgrwt>
<rscale>  2 0.45949798E+03</rscale>
<asrwt>0</asrwt>
<pdfrwt beam="1">  1       21 0.15432344E-01 0.45949798E+03</pdfrwt>
<pdfrwt beam="2">  1       21 0.73970322E-01 0.45949798E+03</pdfrwt>
<totfact> 0.56169695E+04</totfact>
</mgrwt>
</event>
<event>
 7    0  0.4714446E-002  0.4352844E+03  0.7546771E-02  0.1032204E+00
         21   -1    0    0  502  501  0.00000000000E+00  0.00000000000E+00  0.96240391882E+02  0.96240391882E+02  0.00000000000E+00 0. -1.
         21   -1    0    0  501  502 -0.00000000000E+00 -0.00000000000E+00 -0.49218557342E+03  0.49218557342E+03  0.00000000000E+00 0. -1.
      99926    2    1    2    0    0 -0.71054273576E-14 -0.14210854715E-13 -0.39594518154E+03  0.58842596530E+03  0.43528442409E+03 0.  0.
      99925    2    3    3    0    0 -0.45710820791E+02 -0.69947204781E+02 -0.19602252293E+03  0.33822870688E+03  0.26266278395E+03 0.  0.
         25    1    4    4    0    0 -0.23963466077E+02  0.12067755672E+01 -0.11525227268E+03  0.17177397495E+03  0.12509000000E+03 0.  0.
         25    1    3    3    0    0  0.45710820791E+02  0.69947204781E+02 -0.19992265861E+03  0.25019725842E+03  0.12509000000E+03 0.  0.
         25    1    4    4    0    0 -0.21747354714E+02 -0.71153980348E+02 -0.80770250245E+02  0.16645473193E+03  0.12509000000E+03 0.  0.
<mgrwt>
<rscale>  2 0.43528442E+03</rscale>
<asrwt>0</asrwt>
<pdfrwt beam="1">  1       21 0.14152999E-01 0.43528442E+03</pdfrwt>
<pdfrwt beam="2">  1       21 0.72380231E-01 0.43528442E+03</pdfrwt>
<totfact> 0.69627777E+04</totfact>
</mgrwt>
</event>
<event>
 7    0  0.4714446E-002  0.4563258E+03  0.7546771E-02  0.1025852E+00
         21   -1    0    0  502  501  0.00000000000E+00  0.00000000000E+00  0.23725032161E+03  0.23725032161E+03  0.00000000000E+00 0.  1.
         21   -1    0    0  501  502 -0.00000000000E+00 -0.00000000000E+00 -0.21942359626E+03  0.21942359626E+03  0.00000000000E+00 0.  1.
      99926    2    1    2    0    0  0.00000000000E+00 -0.35527136788E-14  0.17826725355E+02  0.45667391787E+03  0.45632584315E+03 0.  0.
      99925    2    3    3    0    0 -0.49149992071E+02  0.19419814768E+02  0.11268029434E+03  0.29103105333E+03  0.26307674610E+03 0.  0.
         25    1    4    4    0    0 -0.32344772408E+02  0.67302554464E+01  0.13639528088E+02  0.13009621619E+03  0.12509000000E+03 0.  0.
         25    1    3    3    0    0  0.49149992071E+02 -0.19419814768E+02 -0.94853568986E+02  0.16564286455E+03  0.12509000000E+03 0.  0.
         25    1    4    4    0    0 -0.16805219663E+02  0.12689559322E+02  0.99040766253E+02  0.16093483714E+03  0.12509000000E+03 0.  0.
<mgrwt>
<rscale>  2 0.45632584E+03</rscale>
<asrwt>0</asrwt>
<pdfrwt beam="1">  1       21 0.34889753E-01 0.45632584E+03</pdfrwt>
<pdfrwt beam="2">  1       21 0.32268176E-01 0.45632584E+03</pdfrwt>
<totfact> 0.67704287E+04</totfact>
</mgrwt>
</event>
<event>
 7    0  0.4714446E-002  0.4344447E+03  0.7546771E-02  0.1032465E+00
         21   -1    0    0  502  501  0.00000000000E+00  0.00000000000E+00  0.20446091348E+04  0.20446091348E+04  0.00000000000E+00 0.  1.
         21   -1    0    0  501  502 -0.00000000000E+00 -0.00000000000E+00 -0.23078032990E+02  0.23078032990E+02  0.00000000000E+00 0.  1.
      99926    2    1    2    0    0  0.00000000000E+00  0.00000000000E+00  0.20215311018E+04  0.20676871678E+04  0.43444473556E+03 0.  0.
      99925    2    3    3    0    0  0.70890283256E+02  0.42692920288E+02  0.10960099871E+04  0.11300918608E+04  0.26271963089E+03 0.  0.
         25    1    4    4    0    0  0.68691330487E+02  0.28467444302E+02  0.68224121445E+03  0.69758832922E+03  0.12509000000E+03 0.  0.
         25    1    3    3    0    0 -0.70890283256E+02 -0.42692920288E+02  0.92552111476E+03  0.93759530698E+03  0.12509000000E+03 0.  0.
         25    1    4    4    0    0  0.21989527697E+01  0.14225475986E+02  0.41376877263E+03  0.43250353162E+03  0.12509000000E+03 0.  0.
<mgrwt>
<rscale>  2 0.43444474E+03</rscale>
<asrwt>0</asrwt>
<pdfrwt beam="1">  1       21 0.30067769E+00 0.43444474E+03</pdfrwt>
<pdfrwt beam="2">  1       21 0.33938298E-02 0.43444474E+03</pdfrwt>
<totfact> 0.14871711E+04</totfact>
</mgrwt>
</event>
<event>
 6    0  0.4714446E-002  0.4575576E+03  0.7546771E-02  0.1025492E+00
         21   -1    0    0  502  501  0.00000000000E+00  0.00000000000E+00  0.21688111975E+02  0.21688111975E+02  0.00000000000E+00 0. -1.
         21   -1    0    0  501  502 -0.00000000000E+00 -0.00000000000E+00 -0.24132920635E+04  0.24132920635E+04  0.00000000000E+00 0. -1.
      99926    2    1    2    0    0  0.00000000000E+00  0.00000000000E+00 -0.23916039515E+04  0.24349801755E+04  0.45755764010E+03 0.  0.
         25    1    3    3    0    0  0.10427162343E+03 -0.45804382788E+01 -0.69017077265E+03  0.70913803691E+03  0.12509000000E+03 0.  0.
         25    1    3    3    0    0 -0.10852924999E+02 -0.12687022694E+01 -0.56954002706E+03  0.58321758042E+03  0.12509000000E+03 0.  0.
         25    1    3    3    0    0 -0.93418698432E+02  0.58491405482E+01 -0.11318931518E+04  0.11426245581E+04  0.12509000000E+03 0.  0.
<mgrwt>
<rscale>  2 0.45755764E+03</rscale>
<asrwt>0</asrwt>
<pdfrwt beam="1">  1       21 0.31894297E-02 0.45755764E+03</pdfrwt>
<pdfrwt beam="2">  1       21 0.35489573E+00 0.45755764E+03</pdfrwt>
<totfact> 0.76666115E+03</totfact>
</mgrwt>
</event>
<event>
 7    0  0.4714446E-002  0.4526883E+03  0.7546771E-02  0.1026923E+00
         21   -1    0    0  502  501  0.00000000000E+00  0.00000000000E+00  0.14143546692E+03  0.14143546692E+03  0.00000000000E+00 0.  1.
         21   -1    0    0  501  502 -0.00000000000E+00 -0.00000000000E+00 -0.36222657481E+03  0.36222657481E+03  0.00000000000E+00 0.  1.
      99926    2    1    2    0    0  0.14210854715E-13 -0.88817841970E-15 -0.22079110789E+03  0.50366204173E+03  0.45268834639E+03 0.  0.
      99925    2    3    3    0    0  0.95004975147E+02 -0.79547079225E+01 -0.20229662216E+03  0.34529924059E+03  0.26309393671E+03 0.  0.
         25    1    4    4    0    0  0.49040764797E+02  0.10117261191E+01 -0.51605446439E+02  0.14393279822E+03  0.12509000000E+03 0.  0.
         25    1    4    4    0    0  0.45964210350E+02 -0.89664340416E+01 -0.15069117572E+03  0.20136644237E+03  0.12509000000E+03 0.  0.
         25    1    3    3    0    0 -0.95004975147E+02  0.79547079225E+01 -0.18494485731E+02  0.15836280113E+03  0.12509000000E+03 0.  0.
<mgrwt>
<rscale>  2 0.45268835E+03</rscale>
<asrwt>0</asrwt>
<pdfrwt beam="1">  1       21 0.20799334E-01 0.45268835E+03</pdfrwt>
<pdfrwt beam="2">  1       21 0.53268613E-01 0.45268835E+03</pdfrwt>
<totfact> 0.66220874E+04</totfact>
</mgrwt>
</event>
<event>
 7    0  0.4714446E-002  0.4497639E+03  0.7546771E-02  0.1027792E+00
         21   -1    0    0  502  501  0.00000000000E+00  0.00000000000E+00  0.18070998990E+03  0.18070998990E+03  0.00000000000E+00 0. -1.
         21   -1    0    0  501  502 -0.00000000000E+00 -0.00000000000E+00 -0.27985108751E+03  0.27985108751E+03  0.00000000000E+00 0. -1.
      99926    2    1    2    0    0 -0.71054273576E-14  0.00000000000E+00 -0.99141097605E+02  0.46056107740E+03  0.44976388115E+03 0.  0.
      99925    2    3    3    0    0  0.57056453849E+02 -0.86799162649E+02 -0.31788021382E+02  0.28456824079E+03  0.26301914721E+03 0.  0.
         25    1    3    3    0    0 -0.57056453849E+02  0.86799162649E+02 -0.67353076224E+02  0.17599283661E+03  0.12509000000E+03 0.  0.
         25    1    4    4    0    0  0.67726747719E+02 -0.59718520659E+02 -0.13963601756E+02  0.15490546905E+03  0.12509000000E+03 0.  0.
         25    1    4    4    0    0 -0.10670293870E+02 -0.27080641990E+02 -0.17824419626E+02  0.12966277175E+03  0.12509000000E+03 0.  0.
<mgrwt>
<rscale>  2 0.44976388E+03</rscale>
<asrwt>0</asrwt>
<pdfrwt beam="1">  1       21 0.26574999E-01 0.44976388E+03</pdfrwt>
<pdfrwt beam="2">  1       21 0.41154572E-01 0.44976388E+03</pdfrwt>
<totfact> 0.71050041E+04</totfact>
</mgrwt>
</event>
<event>
 7    0  0.4714446E-002  0.4548309E+03  0.7546771E-02  0.1026291E+00
         21   -1    0    0  502  501  0.00000000000E+00  0.00000000000E+00  0.13001113607E+04  0.13001113607E+04  0.00000000000E+00 0.  1.
         21   -1    0    0  501  502 -0.00000000000E+00 -0.00000000000E+00 -0.39779507481E+02  0.39779507481E+02  0.00000000000E+00 0.  1.
      99926    2    1    2    0    0  0.00000000000E+00  0.00000000000E+00  0.12603318532E+04  0.13398908682E+04  0.45483091188E+03 0.  0.
      99925    2    3    3    0    0  0.74620045725E+02  0.84856710267E+02  0.80182387436E+03  0.85137691006E+03  0.26296825852E+03 0.  0.
         25    1    4    4    0    0  0.50928824935E+02  0.71604245302E+02  0.51670008561E+03  0.53883893672E+03  0.12509000000E+03 0.  0.
         25    1    4    4    0    0  0.23691220789E+02  0.13252464965E+02  0.28512378875E+03  0.31253797334E+03  0.12509000000E+03 0.  0.
         25    1    3    3    0    0 -0.74620045725E+02 -0.84856710267E+02  0.45850797886E+03  0.48851395812E+03  0.12509000000E+03 0.  0.
<mgrwt>
<rscale>  2 0.45483091E+03</rscale>
<asrwt>0</asrwt>
<pdfrwt beam="1">  1       21 0.19119282E+00 0.45483091E+03</pdfrwt>
<pdfrwt beam="2">  1       21 0.58499284E-02 0.45483091E+03</pdfrwt>
<totfact> 0.28014701E+04</totfact>
</mgrwt>
</event>
<event>
 7    0  0.4714446E-002  0.4574830E+03  0.7546771E-02  0.1025514E+00
         21   -1    0    0  502  501  0.00000000000E+00  0.00000000000E+00  0.35638886911E+03  0.35638886911E+03  0.00000000000E+00 0. -1.
         21   -1    0    0  501  502 -0.00000000000E+00 -0.00000000000E+00 -0.14681343078E+03  0.14681343078E+03  0.00000000000E+00 0. -1.
      99926    2    1    2    0    0  0.00000000000E+00  0.00000000000E+00  0.20957543833E+03  0.50320229989E+03  0.45748299450E+03 0.  0.
      99925    2    3    3    0    0  0.63502395338E+02 -0.24134577818E+02  0.28866200060E+02  0.27316237084E+03  0.26300074387E+03 0.  0.
         25    1    4    4    0    0  0.40529371579E+02 -0.48626093256E+02  0.31190821621E+02  0.14362277800E+03  0.12509000000E+03 0.  0.
         25    1    4    4    0    0  0.22973023759E+02  0.24491515438E+02 -0.23246215603E+01  0.12953959285E+03  0.12509000000E+03 0.  0.
         25    1    3    3    0    0 -0.63502395338E+02  0.24134577818E+02  0.18070923827E+03  0.23003992905E+03  0.12509000000E+03 0.  0.
<mgrwt>
<rscale>  2 0.45748299E+03</rscale>
<asrwt>0</asrwt>
<pdfrwt beam="1">  1       21 0.52410128E-01 0.45748299E+03</pdfrwt>
<pdfrwt beam="2">  1       21 0.21590211E-01 0.45748299E+03</pdfrwt>
<totfact> 0.63779900E+04</totfact>
</mgrwt>
</event>
<event>
 7    0  0.4714446E-002  0.4544224E+03  0.7546771E-02  0.1026411E+00
         21   -1    0    0  502  501  0.00000000000E+00  0.00000000000E+00  0.30468294998E+03  0.30468294998E+03  0.00000000000E+00 0. -1.
         21   -1    0    0  501  502 -0.00000000000E+00 -0.00000000000E+00 -0.16943818718E+03  0.16943818718E+03  0.00000000000E+00 0. -1.
      99926    2    1    2    0    0  0.00000000000E+00  0.00000000000E+00  0.13524476279E+03  0.47412113716E+03  0.45442238814E+03 0.  0.
      99925    2    3    3    0    0 -0.77398515437E+02  0.24768593442E+02  0.16657255367E+03  0.32169754321E+03  0.26294273190E+03 0.  0.
         25    1    4    4    0    0 -0.87213050507E+01  0.96284266798E+01  0.44842971504E+02  0.13351841804E+03  0.12509000000E+03 0.  0.
         25    1    4    4    0    0 -0.68677210386E+02  0.15140166762E+02  0.12172958216E+03  0.18817912517E+03  0.12509000000E+03 0.  0.
         25    1    3    3    0    0  0.77398515437E+02 -0.24768593442E+02 -0.31327790873E+02  0.15242359395E+03  0.12509000000E+03 0.  0.
<mgrwt>
<rscale>  2 0.45442239E+03</rscale>
<asrwt>0</asrwt>
<pdfrwt beam="1">  1       21 0.44806316E-01 0.45442239E+03</pdfrwt>
<pdfrwt beam="2">  1       21 0.24917380E-01 0.45442239E+03</pdfrwt>
<totfact> 0.67439195E+04</totfact>
</mgrwt>
</event>
<event>
 7    0  0.4714446E-002  0.4575743E+03  0.7546771E-02  0.1025487E+00
         21   -1    0    0  502  501  0.00000000000E+00  0.00000000000E+00  0.11460584692E+03  0.11460584692E+03  0.00000000000E+00 0. -1.
         21   -1    0    0  501  502 -0.00000000000E+00 -0.00000000000E+00 -0.45672677268E+03  0.45672677268E+03  0.00000000000E+00 0. -1.
      99926    2    1    2    0    0  0.00000000000E+00  0.00000000000E+00 -0.34212092576E+03  0.57133261960E+03  0.45757429384E+03 0.  0.
      99925    2    3    3    0    0 -0.80286560351E+01 -0.69297400252E+02 -0.32974399770E+03  0.42757140979E+03  0.26309621329E+03 0.  0.
         25    1    4    4    0    0  0.10620629271E+02 -0.53815301683E+02 -0.11826409560E+03  0.18067315481E+03  0.12509000000E+03 0.  0.
         25    1    4    4    0    0 -0.18649285306E+02 -0.15482098569E+02 -0.21147990210E+03  0.24689825498E+03  0.12509000000E+03 0.  0.
         25    1    3    3    0    0  0.80286560351E+01  0.69297400252E+02 -0.12376928062E+02  0.14376120982E+03  0.12509000000E+03 0.  0.
<mgrwt>
<rscale>  2 0.45757429E+03</rscale>
<asrwt>0</asrwt>
<pdfrwt beam="1">  1       21 0.16853801E-01 0.45757429E+03</pdfrwt>
<pdfrwt beam="2">  1       21 0.67165702E-01 0.45757429E+03</pdfrwt>
<totfact> 0.59262827E+04</totfact>
</mgrwt>
</event>
<event>
 7    0  0.4714446E-002  0.4650996E+03  0.7546771E-02  0.1023312E+00
         21   -1    0    0  502  501  0.00000000000E+00  0.00000000000E+00  0.71515943765E+03  0.71515943765E+03  0.00000000000E+00 0.  1.
         21   -1    0    0  501  502 -0.00000000000E+00 -0.00000000000E+00 -0.75618678386E+02  0.75618678386E+02  0.00000000000E+00 0.  1.
      99926    2    1    2    0    0 -0.35527136788E-14  0.22204460493E-14  0.63954075926E+03  0.79077811603E+03  0.46509960873E+03 0.  0.
      99925    2    3    3    0    0 -0.30113598054E+02  0.39853456483E+01  0.60047081776E+03  0.65625421408E+03  0.26302410297E+03 0.  0.
         25    1    3    3    0    0  0.30113598054E+02 -0.39853456483E+01  0.39069941497E+02  0.13452390195E+03  0.12509000000E+03 0.  0.
         25    1    4    4    0    0 -0.39302040913E+02  0.29866442606E+02  0.26499807569E+03  0.29716686059E+03  0.12509000000E+03 0.  0.
         25    1    4    4    0    0  0.91884428593E+01 -0.25881096957E+02  0.33547274208E+03  0.35908735349E+03  0.12509000000E+03 0.  0.
<mgrwt>
<rscale>  2 0.46509961E+03</rscale>
<asrwt>0</asrwt>
<pdfrwt beam="1">  1       21 0.10517050E+00 0.46509961E+03</pdfrwt>
<pdfrwt beam="2">  1       21 0.11120394E-01 0.46509961E+03</pdfrwt>
<totfact> 0.44574499E+04</totfact>
</mgrwt>
</event>
<event>
 7    0  0.4714446E-002  0.4559343E+03  0.7546771E-02  0.1025967E+00
         21   -1    0    0  502  501  0.00000000000E+00  0.00000000000E+00  0.12539505586E+03  0.12539505586E+03  0.00000000000E+00 0. -1.
         21   -1    0    0  501  502 -0.00000000000E+00 -0.00000000000E+00 -0.41444241083E+03  0.41444241083E+03  0.00000000000E+00 0. -1.
      99926    2    1    2    0    0  0.00000000000E+00  0.00000000000E+00 -0.28904735496E+03  0.53983746669E+03  0.45593433412E+03 0.  0.
      99925    2    3    3    0    0  0.12890723920E+02 -0.11311401740E+03 -0.18916116524E+03  0.34340500834E+03  0.26302870874E+03 0.  0.
         25    1    4    4    0    0 -0.21628436355E+02 -0.64732746835E+02 -0.62042889111E+02  0.15541861523E+03  0.12509000000E+03 0.  0.
         25    1    3    3    0    0 -0.12890723920E+02  0.11311401740E+03 -0.99886189728E+02  0.19643245835E+03  0.12509000000E+03 0.  0.
         25    1    4    4    0    0  0.34519160275E+02 -0.48381270566E+02 -0.12711827613E+03  0.18798639311E+03  0.12509000000E+03 0.  0.
<mgrwt>
<rscale>  2 0.45593433E+03</rscale>
<asrwt>0</asrwt>
<pdfrwt beam="1">  1       21 0.18440449E-01 0.45593433E+03</pdfrwt>
<pdfrwt beam="2">  1       21 0.60947413E-01 0.45593433E+03</pdfrwt>
<totfact> 0.62082764E+04</totfact>
</mgrwt>
</event>
<event>
 7    0  0.4714446E-002  0.4598176E+03  0.7546771E-02  0.1024834E+00
         21   -1    0    0  502  501  0.00000000000E+00  0.00000000000E+00  0.15288781970E+03  0.15288781970E+03  0.00000000000E+00 0. -1.
         21   -1    0    0  501  502 -0.00000000000E+00 -0.00000000000E+00 -0.34573092139E+03  0.34573092139E+03  0.00000000000E+00 0. -1.
      99926    2    1    2    0    0  0.71054273576E-14  0.00000000000E+00 -0.19284310169E+03  0.49861874108E+03  0.45981755848E+03 0.  0.
      99925    2    3    3    0    0  0.35027929655E+02  0.10972896398E+03 -0.94787724914E+02  0.30232873521E+03  0.26296492151E+03 0.  0.
         25    1    4    4    0    0 -0.23329304903E+02  0.52965603333E+02 -0.44484837997E+02  0.14483100675E+03  0.12509000000E+03 0.  0.
         25    1    3    3    0    0 -0.35027929655E+02 -0.10972896398E+03 -0.98055376776E+02  0.19629000588E+03  0.12509000000E+03 0.  0.
         25    1    4    4    0    0  0.58357234557E+02  0.56763360649E+02 -0.50302886916E+02  0.15749772846E+03  0.12509000000E+03 0.  0.
<mgrwt>
<rscale>  2 0.45981756E+03</rscale>
<asrwt>0</asrwt>
<pdfrwt beam="1">  1       21 0.22483503E-01 0.45981756E+03</pdfrwt>
<pdfrwt beam="2">  1       21 0.50842781E-01 0.45981756E+03</pdfrwt>
<totfact> 0.62926589E+04</totfact>
</mgrwt>
</event>
<event>
 7    0  0.4714446E-002  0.4507095E+03  0.7546771E-02  0.1027511E+00
         21   -1    0    0  502  501  0.00000000000E+00  0.00000000000E+00  0.18858935345E+03  0.18858935345E+03  0.00000000000E+00 0.  1.
         21   -1    0    0  501  502 -0.00000000000E+00 -0.00000000000E+00 -0.26928756781E+03  0.26928756781E+03  0.00000000000E+00 0.  1.
      99926    2    1    2    0    0  0.71054273576E-14 -0.71054273576E-14 -0.80698214358E+02  0.45787692127E+03  0.45070952201E+03 0.  0.
      99925    2    3    3    0    0 -0.48221138326E+02 -0.53140055848E+02 -0.13516529001E+03  0.30372338045E+03  0.26235299215E+03 0.  0.
         25    1    4    4    0    0 -0.22386120775E+01 -0.44610693051E+02 -0.36702937804E+02  0.13780326216E+03  0.12509000000E+03 0.  0.
         25    1    4    4    0    0 -0.45982526249E+02 -0.85293627966E+01 -0.98462352208E+02  0.16592011829E+03  0.12509000000E+03 0.  0.
         25    1    3    3    0    0  0.48221138326E+02  0.53140055848E+02  0.54467075654E+02  0.15415354082E+03  0.12509000000E+03 0.  0.
<mgrwt>
<rscale>  2 0.45070952E+03</rscale>
<asrwt>0</asrwt>
<pdfrwt beam="1">  1       21 0.27733729E-01 0.45070952E+03</pdfrwt>
<pdfrwt beam="2">  1       21 0.39601113E-01 0.45070952E+03</pdfrwt>
<totfact> 0.70723701E+04</totfact>
</mgrwt>
</event>
<event>
 7    0  0.4714446E-002  0.4513120E+03  0.7546771E-02  0.1027331E+00
         21   -1    0    0  502  501  0.00000000000E+00  0.00000000000E+00  0.17559820518E+03  0.17559820518E+03  0.00000000000E+00 0. -1.
         21   -1    0    0  501  502 -0.00000000000E+00 -0.00000000000E+00 -0.28998383538E+03  0.28998383538E+03  0.00000000000E+00 0. -1.
      99926    2    1    2    0    0 -0.35527136788E-14  0.00000000000E+00 -0.11438563020E+03  0.46558204056E+03  0.45131204736E+03 0.  0.
      99925    2    3    3    0    0 -0.22558280360E+02  0.97798789150E+02 -0.26625336785E+02  0.28276285018E+03  0.26300654309E+03 0.  0.
         25    1    4    4    0    0  0.82755939261E+01  0.31861727684E+02 -0.44825408231E+02  0.13689587455E+03  0.12509000000E+03 0.  0.
         25    1    3    3    0    0  0.22558280360E+02 -0.97798789150E+02 -0.87760293411E+02  0.18281919038E+03  0.12509000000E+03 0.  0.
         25    1    4    4    0    0 -0.30833874286E+02  0.65937061466E+02  0.18200071446E+02  0.14586697563E+03  0.12509000000E+03 0.  0.
<mgrwt>
<rscale>  2 0.45131205E+03</rscale>
<asrwt>0</asrwt>
<pdfrwt beam="1">  1       21 0.25823266E-01 0.45131205E+03</pdfrwt>
<pdfrwt beam="2">  1       21 0.42644681E-01 0.45131205E+03</pdfrwt>
<totfact> 0.69785091E+04</totfact>
</mgrwt>
</event>
<event>
 7    0  0.4714446E-002  0.4684066E+03  0.7546771E-02  0.1022371E+00
         21   -1    0    0  502  501  0.00000000000E+00  0.00000000000E+00  0.29099150291E+02  0.29099150291E+02  0.00000000000E+00 0.  1.
         21   -1    0    0  501  502 -0.00000000000E+00 -0.00000000000E+00 -0.18849755621E+04  0.18849755621E+04  0.00000000000E+00 0.  1.
      99926    2    1    2    0    0 -0.35527136788E-14  0.00000000000E+00 -0.18558764119E+04  0.19140747124E+04  0.46840660618E+03 0.  0.
      99925    2    3    3    0    0  0.26725704571E+02  0.11618079770E+03 -0.99693681903E+03  0.10379257678E+04  0.26304873542E+03 0.  0.
         25    1    3    3    0    0 -0.26725704571E+02 -0.11618079770E+03 -0.85893959283E+03  0.87614894468E+03  0.12509000000E+03 0.  0.
         25    1    4    4    0    0  0.26563574697E+02  0.26832914446E+02 -0.54939524360E+03  0.56471963892E+03  0.12509000000E+03 0.  0.
         25    1    4    4    0    0  0.16212987424E+00  0.89347883250E+02 -0.44754157543E+03  0.47320612883E+03  0.12509000000E+03 0.  0.
<mgrwt>
<rscale>  2 0.46840661E+03</rscale>
<asrwt>0</asrwt>
<pdfrwt beam="1">  1       21 0.42792896E-02 0.46840661E+03</pdfrwt>
<pdfrwt beam="2">  1       21 0.27720211E+00 0.46840661E+03</pdfrwt>
<totfact> 0.13683639E+04</totfact>
</mgrwt>
</event>
<event>
 7    0  0.4714446E-002  0.4604614E+03  0.7546771E-02  0.1024647E+00
         21   -1    0    0  502  501  0.00000000000E+00  0.00000000000E+00  0.33267670954E+03  0.33267670954E+03  0.00000000000E+00 0.  1.
         21   -1    0    0  501  502 -0.00000000000E+00 -0.00000000000E+00 -0.15933238473E+03  0.15933238473E+03  0.00000000000E+00 0.  1.
      99926    2    1    2    0    0 -0.35527136788E-14  0.00000000000E+00  0.17334432481E+03  0.49200909428E+03  0.46046139242E+03 0.  0.
      99925    2    3    3    0    0  0.18067099058E+02 -0.65564796811E+02  0.52434440721E+01  0.27171252859E+03  0.26301148613E+03 0.  0.
         25    1    4    4    0    0 -0.79033052681E+01 -0.60274216400E+02  0.27910915100E+02  0.14185193223E+03  0.12509000000E+03 0.  0.
         25    1    4    4    0    0  0.25970404326E+02 -0.52905804112E+01 -0.22667471028E+02  0.12986059635E+03  0.12509000000E+03 0.  0.
         25    1    3    3    0    0 -0.18067099058E+02  0.65564796811E+02  0.16810088074E+03  0.22029656569E+03  0.12509000000E+03 0.  0.
<mgrwt>
<rscale>  2 0.46046139E+03</rscale>
<asrwt>0</asrwt>
<pdfrwt beam="1">  1       21 0.48923045E-01 0.46046139E+03</pdfrwt>
<pdfrwt beam="2">  1       21 0.23431233E-01 0.46046139E+03</pdfrwt>
<totfact> 0.63057201E+04</totfact>
</mgrwt>
</event>
<event>
 7    0  0.4714446E-002  0.4574823E+03  0.7546771E-02  0.1025514E+00
         21   -1    0    0  502  501  0.00000000000E+00  0.00000000000E+00  0.64456408766E+03  0.64456408766E+03  0.00000000000E+00 0. -1.
         21   -1    0    0  501  502 -0.00000000000E+00 -0.00000000000E+00 -0.81175052390E+02  0.81175052390E+02  0.00000000000E+00 0. -1.
      99926    2    1    2    0    0  0.00000000000E+00  0.00000000000E+00  0.56338903527E+03  0.72573914005E+03  0.45748234320E+03 0.  0.
      99925    2    3    3    0    0  0.41277463266E+02  0.92866480367E+02  0.26705100379E+03  0.38840881358E+03  0.26309153483E+03 0.  0.
         25    1    4    4    0    0  0.55276201459E-01  0.29365902107E+02  0.81448541042E+02  0.15213064188E+03  0.12509000000E+03 0.  0.
         25    1    4    4    0    0  0.41222187064E+02  0.63500578260E+02  0.18560246274E+03  0.23627817170E+03  0.12509000000E+03 0.  0.
         25    1    3    3    0    0 -0.41277463266E+02 -0.92866480367E+02  0.29633803148E+03  0.33733032646E+03  0.12509000000E+03 0.  0.
<mgrwt>
<rscale>  2 0.45748234E+03</rscale>
<asrwt>0</asrwt>
<pdfrwt beam="1">  1       21 0.94788834E-01 0.45748234E+03</pdfrwt>
<pdfrwt beam="2">  1       21 0.11937508E-01 0.45748234E+03</pdfrwt>
<totfact> 0.50533929E+04</totfact>
</mgrwt>
</event>
<event>
 7    0  0.4714446E-002  0.4437852E+03  0.7546771E-02  0.1029592E+00
         21   -1    0    0  502  501  0.00000000000E+00  0.00000000000E+00  0.30527052114E+03  0.30527052114E+03  0.00000000000E+00 0. -1.
         21   -1    0    0  501  502 -0.00000000000E+00 -0.00000000000E+00 -0.16128752588E+03  0.16128752588E+03  0.00000000000E+00 0. -1.
      99926    2    1    2    0    0  0.00000000000E+00  0.00000000000E+00  0.14398299526E+03  0.46655804702E+03  0.44378520515E+03 0.  0.
      99925    2    3    3    0    0 -0.82882346220E+02 -0.74483739518E+01  0.15412033491E+03  0.31597506210E+03  0.26298707316E+03 0.  0.
         25    1    3    3    0    0  0.82882346220E+02  0.74483739518E+01 -0.10137339653E+02  0.15058298491E+03  0.12509000000E+03 0.  0.
         25    1    4    4    0    0 -0.82259000934E+02 -0.26788720931E+01  0.71059998252E+02  0.16574302713E+03  0.12509000000E+03 0.  0.
         25    1    4    4    0    0 -0.62334528621E+00 -0.47695018587E+01  0.83060336657E+02  0.15023203498E+03  0.12509000000E+03 0.  0.
<mgrwt>
<rscale>  2 0.44378521E+03</rscale>
<asrwt>0</asrwt>
<pdfrwt beam="1">  1       21 0.44892724E-01 0.44378521E+03</pdfrwt>
<pdfrwt beam="2">  1       21 0.23718754E-01 0.44378521E+03</pdfrwt>
<totfact> 0.74067390E+04</totfact>
</mgrwt>
</event>
<event>
 7    0  0.4714446E-002  0.4564351E+03  0.7546771E-02  0.1025820E+00
         21   -1    0    0  502  501  0.00000000000E+00  0.00000000000E+00  0.21868479886E+03  0.21868479886E+03  0.00000000000E+00 0.  1.
         21   -1    0    0  501  502 -0.00000000000E+00 -0.00000000000E+00 -0.23816581267E+03  0.23816581267E+03  0.00000000000E+00 0.  1.
      99926    2    1    2    0    0  0.17763568394E-14  0.00000000000E+00 -0.19481013811E+02  0.45685061154E+03  0.45643506807E+03 0.  0.
      99925    2    3    3    0    0  0.66300022459E+01  0.81320904015E+02 -0.92388346553E+02  0.29065785108E+03  0.26322867142E+03 0.  0.
         25    1    3    3    0    0 -0.66300022459E+01 -0.81320904015E+02  0.72907332741E+02  0.16619276045E+03  0.12509000000E+03 0.  0.
         25    1    4    4    0    0  0.29672444012E+02  0.31721112664E+02 -0.77237371919E+02  0.15329645346E+03  0.12509000000E+03 0.  0.
         25    1    4    4    0    0 -0.23042441766E+02  0.49599791351E+02 -0.15150974634E+02  0.13736139762E+03  0.12509000000E+03 0.  0.
<mgrwt>
<rscale>  2 0.45643507E+03</rscale>
<asrwt>0</asrwt>
<pdfrwt beam="1">  1       21 0.32159529E-01 0.45643507E+03</pdfrwt>
<pdfrwt beam="2">  1       21 0.35024384E-01 0.45643507E+03</pdfrwt>
<totfact> 0.67632717E+04</totfact>
</mgrwt>
</event>
<event>
 7    0  0.4714446E-002  0.4522281E+03  0.7546771E-02  0.1027060E+00
         21   -1    0    0  502  501  0.00000000000E+00  0.00000000000E+00  0.20351749846E+03  0.20351749846E+03  0.00000000000E+00 0. -1.
         21   -1    0    0  501  502 -0.00000000000E+00 -0.00000000000E+00 -0.25121945554E+03  0.25121945554E+03  0.00000000000E+00 0. -1.
      99926    2    1    2    0    0  0.00000000000E+00  0.00000000000E+00 -0.47701957086E+02  0.45473695400E+03  0.45222806262E+03 0.  0.
      99925    2    3    3    0    0  0.85210707044E+02  0.70188625174E+02 -0.36439075716E+02  0.28751952579E+03  0.26296837029E+03 0.  0.
         25    1    4    4    0    0  0.76484062067E+02  0.37774665997E+02 -0.44329695287E+02  0.15776364323E+03  0.12509000000E+03 0.  0.
         25    1    3    3    0    0 -0.85210707044E+02 -0.70188625174E+02 -0.11262881370E+02  0.16721742821E+03  0.12509000000E+03 0.  0.
         25    1    4    4    0    0  0.87266449772E+01  0.32413959177E+02  0.78906195706E+01  0.12975588256E+03  0.12509000000E+03 0.  0.
<mgrwt>
<rscale>  2 0.45222806E+03</rscale>
<asrwt>0</asrwt>
<pdfrwt beam="1">  1       21 0.29929044E-01 0.45222806E+03</pdfrwt>
<pdfrwt beam="2">  1       21 0.36944038E-01 0.45222806E+03</pdfrwt>
<totfact> 0.70102641E+04</totfact>
</mgrwt>
</event>
<event>
 7    0  0.4714446E-002  0.4594557E+03  0.7546771E-02  0.1024939E+00
         21   -1    0    0  502  501  0.00000000000E+00  0.00000000000E+00  0.40454108538E+03  0.40454108538E+03  0.00000000000E+00 0. -1.
         21   -1    0    0  501  502 -0.00000000000E+00 -0.00000000000E+00 -0.13045616482E+03  0.13045616482E+03  0.00000000000E+00 0. -1.
      99926    2    1    2    0    0  0.17763568394E-14 -0.22204460493E-14  0.27408492056E+03  0.53499725019E+03  0.45945567146E+03 0.  0.
      99925    2    3    3    0    0  0.15051327883E+02 -0.20188216319E+01  0.30716825976E+03  0.40471818992E+03  0.26308526249E+03 0.  0.
         25    1    4    4    0    0  0.32506830579E+02 -0.28637800773E+02  0.18078821857E+03  0.22407299199E+03  0.12509000000E+03 0.  0.
         25    1    4    4    0    0 -0.17455502695E+02  0.26618979141E+02  0.12638004119E+03  0.18064519793E+03  0.12509000000E+03 0.  0.
         25    1    3    3    0    0 -0.15051327883E+02  0.20188216319E+01 -0.33083339197E+02  0.13027906027E+03  0.12509000000E+03 0.  0.
<mgrwt>
<rscale>  2 0.45945567E+03</rscale>
<asrwt>0</asrwt>
<pdfrwt beam="1">  1       21 0.59491336E-01 0.45945567E+03</pdfrwt>
<pdfrwt beam="2">  1       21 0.19184730E-01 0.45945567E+03</pdfrwt>
<totfact> 0.60697556E+04</totfact>
</mgrwt>
</event>
<event>
 7    0  0.4714446E-002  0.4597757E+03  0.7546771E-02  0.1024846E+00
         21   -1    0    0  502  501  0.00000000000E+00  0.00000000000E+00  0.73878505069E+02  0.73878505069E+02  0.00000000000E+00 0. -1.
         21   -1    0    0  501  502 -0.00000000000E+00 -0.00000000000E+00 -0.71534228257E+03  0.71534228257E+03  0.00000000000E+00 0. -1.
      99926    2    1    2    0    0  0.00000000000E+00  0.00000000000E+00 -0.64146377750E+03  0.78922078764E+03  0.45977567769E+03 0.  0.
      99925    2    3    3    0    0  0.84336472865E+02 -0.32064092265E+02 -0.53067211750E+03  0.59931805808E+03  0.26349286856E+03 0.  0.
         25    1    3    3    0    0 -0.84336472865E+02  0.32064092265E+02 -0.11079166000E+03  0.18990272956E+03  0.12509000000E+03 0.  0.
         25    1    4    4    0    0  0.23006487663E+02 -0.19131142176E+02 -0.17553104999E+03  0.21760964291E+03  0.12509000000E+03 0.  0.
         25    1    4    4    0    0  0.61329985202E+02 -0.12932950088E+02 -0.35514106750E+03  0.38170841517E+03  0.12509000000E+03 0.  0.
<mgrwt>
<rscale>  2 0.45977568E+03</rscale>
<asrwt>0</asrwt>
<pdfrwt beam="1">  1       21 0.10864487E-01 0.45977568E+03</pdfrwt>
<pdfrwt beam="2">  1       21 0.10519739E+00 0.45977568E+03</pdfrwt>
<totfact> 0.46522237E+04</totfact>
</mgrwt>
</event>
<event>
 7    0  0.4714446E-002  0.4480889E+03  0.7546771E-02  0.1028293E+00
         21   -1    0    0  502  501  0.00000000000E+00  0.00000000000E+00  0.35247503087E+03  0.35247503087E+03  0.00000000000E+00 0. -1.
         21   -1    0    0  501  502 -0.00000000000E+00 -0.00000000000E+00 -0.14240985753E+03  0.14240985753E+03  0.00000000000E+00 0. -1.
      99926    2    1    2    0    0 -0.71054273576E-14  0.00000000000E+00  0.21006517334E+03  0.49488488839E+03  0.44808891496E+03 0.  0.
      99925    2    3    3    0    0  0.45558913660E+02  0.48141474140E+02  0.22510808389E+03  0.35252262723E+03  0.26306907293E+03 0.  0.
         25    1    4    4    0    0  0.51624150915E+02  0.53149743191E+02  0.13220603395E+03  0.19650926612E+03  0.12509000000E+03 0.  0.
         25    1    3    3    0    0 -0.45558913660E+02 -0.48141474140E+02 -0.15042910544E+02  0.14236226116E+03  0.12509000000E+03 0.  0.
         25    1    4    4    0    0 -0.60652372550E+01 -0.50082690511E+01  0.92902049932E+02  0.15601336111E+03  0.12509000000E+03 0.  0.
<mgrwt>
<rscale>  2 0.44808891E+03</rscale>
<asrwt>0</asrwt>
<pdfrwt beam="1">  1       21 0.51834563E-01 0.44808891E+03</pdfrwt>
<pdfrwt beam="2">  1       21 0.20942626E-01 0.44808891E+03</pdfrwt>
<totfact> 0.69359281E+04</totfact>
</mgrwt>
</event>
<event>
 7    0  0.4714446E-002  0.4555209E+03  0.7546771E-02  0.1026088E+00
         21   -1    0    0  502  501  0.00000000000E+00  0.00000000000E+00  0.28003179386E+03  0.28003179386E+03  0.00000000000E+00 0.  1.
         21   -1    0    0  501  502 -0.00000000000E+00 -0.00000000000E+00 -0.18524616325E+03  0.18524616325E+03  0.00000000000E+00 0.  1.
      99926    2    1    2    0    0  0.00000000000E+00  0.00000000000E+00  0.94785630607E+02  0.46527795710E+03  0.45552086845E+03 0.  0.
      99925    2    3    3    0    0 -0.77381388803E+02 -0.50208244109E+02 -0.81454333356E+01  0.27886159748E+03  0.26303744098E+03 0.  0.
         25    1    4    4    0    0 -0.38993779123E-01 -0.96328270701E+01  0.62791465564E+01  0.12561738996E+03  0.12509000000E+03 0.  0.
         25    1    4    4    0    0 -0.77342395024E+02 -0.40575417038E+02 -0.14424579892E+02  0.15324420753E+03  0.12509000000E+03 0.  0.
         25    1    3    3    0    0  0.77381388803E+02  0.50208244109E+02  0.10293106394E+03  0.18641635962E+03  0.12509000000E+03 0.  0.
<mgrwt>
<rscale>  2 0.45552087E+03</rscale>
<asrwt>0</asrwt>
<pdfrwt beam="1">  1       21 0.41181146E-01 0.45552087E+03</pdfrwt>
<pdfrwt beam="2">  1       21 0.27242083E-01 0.45552087E+03</pdfrwt>
<totfact> 0.67509711E+04</totfact>
</mgrwt>
</event>
<event>
 7    0  0.4714446E-002  0.4432632E+03  0.7546771E-02  0.1029750E+00
         21   -1    0    0  502  501  0.00000000000E+00  0.00000000000E+00  0.18282968902E+03  0.18282968902E+03  0.00000000000E+00 0. -1.
         21   -1    0    0  501  502 -0.00000000000E+00 -0.00000000000E+00 -0.26866843373E+03  0.26866843373E+03  0.00000000000E+00 0. -1.
      99926    2    1    2    0    0  0.00000000000E+00 -0.35527136788E-14 -0.85838744702E+02  0.45149812275E+03  0.44326320032E+03 0.  0.
      99925    2    3    3    0    0 -0.46219667292E+02  0.22169125440E+02 -0.14562685239E+03  0.30368116267E+03  0.26150973338E+03 0.  0.
         25    1    3    3    0    0  0.46219667292E+02 -0.22169125440E+02  0.59788107689E+02  0.14781696008E+03  0.12509000000E+03 0.  0.
         25    1    4    4    0    0  0.29994177463E+01  0.34992475772E+02 -0.55209446647E+02  0.14117032608E+03  0.12509000000E+03 0.  0.
         25    1    4    4    0    0 -0.49219085039E+02 -0.12823350332E+02 -0.90417405744E+02  0.16251083658E+03  0.12509000000E+03 0.  0.
<mgrwt>
<rscale>  2 0.44326320E+03</rscale>
<asrwt>0</asrwt>
<pdfrwt beam="1">  1       21 0.26886719E-01 0.44326320E+03</pdfrwt>
<pdfrwt beam="2">  1       21 0.39510063E-01 0.44326320E+03</pdfrwt>
<totfact> 0.75637525E+04</totfact>
</mgrwt>
</event>
<event>
 7    0  0.4714446E-002  0.4564581E+03  0.7546771E-02  0.1025813E+00
         21   -1    0    0  502  501  0.00000000000E+00  0.00000000000E+00  0.11482478725E+03  0.11482478725E+03  0.00000000000E+00 0. -1.
         21   -1    0    0  501  502 -0.00000000000E+00 -0.00000000000E+00 -0.45363458597E+03  0.45363458597E+03  0.00000000000E+00 0. -1.
      99926    2    1    2    0    0  0.71054273576E-14  0.00000000000E+00 -0.33880979872E+03  0.56845937322E+03  0.45645808055E+03 0.  0.
      99925    2    3    3    0    0 -0.48395478590E+02 -0.25026151790E+02 -0.87455406467E+02  0.28246117528E+03  0.26299702812E+03 0.  0.
         25    1    3    3    0    0  0.48395478590E+02  0.25026151790E+02 -0.25135439226E+03  0.28599819794E+03  0.12509000000E+03 0.  0.
         25    1    4    4    0    0 -0.50998901999E+02 -0.13194373421E+02 -0.77727679023E+02  0.15640997309E+03  0.12509000000E+03 0.  0.
         25    1    4    4    0    0  0.26034234091E+01 -0.11831778369E+02 -0.97277274436E+01  0.12605120219E+03  0.12509000000E+03 0.  0.
<mgrwt>
<rscale>  2 0.45645808E+03</rscale>
<asrwt>0</asrwt>
<pdfrwt beam="1">  1       21 0.16885998E-01 0.45645808E+03</pdfrwt>
<pdfrwt beam="2">  1       21 0.66710969E-01 0.45645808E+03</pdfrwt>
<totfact> 0.59968452E+04</totfact>
</mgrwt>
</event>
<event>
 7    0  0.4714446E-002  0.4229063E+03  0.7546771E-02  0.1036125E+00
         21   -1    0    0  502  501  0.00000000000E+00  0.00000000000E+00  0.51037552135E+03  0.51037552135E+03  0.00000000000E+00 0.  1.
         21   -1    0    0  501  502 -0.00000000000E+00 -0.00000000000E+00 -0.87606926058E+02  0.87606926058E+02  0.00000000000E+00 0.  1.
      99926    2    1    2    0    0 -0.17763568394E-14  0.00000000000E+00  0.42276859529E+03  0.59798244740E+03  0.42290628068E+03 0.  0.
      99925    2    3    3    0    0 -0.15973459676E+02 -0.26026372901E+02  0.17111995053E+03  0.31530405769E+03  0.26306289710E+03 0.  0.
         25    1    4    4    0    0  0.31349367013E+02 -0.15851135085E+02  0.96232412707E+02  0.16168557960E+03  0.12509000000E+03 0.  0.
         25    1    3    3    0    0  0.15973459676E+02  0.26026372901E+02  0.25164864476E+03  0.28267838971E+03  0.12509000000E+03 0.  0.
         25    1    4    4    0    0 -0.47322826689E+02 -0.10175237816E+02  0.74887537822E+02  0.15361847809E+03  0.12509000000E+03 0.  0.
<mgrwt>
<rscale>  2 0.42290628E+03</rscale>
<asrwt>0</asrwt>
<pdfrwt beam="1">  1       21 0.75055223E-01 0.42290628E+03</pdfrwt>
<pdfrwt beam="2">  1       21 0.12883372E-01 0.42290628E+03</pdfrwt>
<totfact> 0.76410896E+04</totfact>
</mgrwt>
</event>
<event>
 7    0  0.4714446E-002  0.4898250E+03  0.7546771E-02  0.1016469E+00
         21   -1    0    0  502  501  0.00000000000E+00  0.00000000000E+00  0.27673183541E+03  0.27673183541E+03  0.00000000000E+00 0. -1.
         21   -1    0    0  501  502 -0.00000000000E+00 -0.00000000000E+00 -0.21675182623E+03  0.21675182623E+03  0.00000000000E+00 0. -1.
      99926    2    1    2    0    0  0.00000000000E+00  0.00000000000E+00  0.59980009185E+02  0.49348366164E+03  0.48982499202E+03 0.  0.
      99925    2    3    3    0    0 -0.56815178385E+02 -0.62055756159E+02  0.15370071422E+03  0.31597321119E+03  0.26293778593E+03 0.  0.
         25    1    4    4    0    0 -0.28663335234E+02 -0.21582872984E+02  0.12078098244E+03  0.17754706703E+03  0.12509000000E+03 0.  0.
         25    1    4    4    0    0 -0.28151843151E+02 -0.40472883175E+02  0.32919731783E+02  0.13842614416E+03  0.12509000000E+03 0.  0.
         25    1    3    3    0    0  0.56815178385E+02  0.62055756159E+02 -0.93720705035E+02  0.17751045045E+03  0.12509000000E+03 0.  0.
<mgrwt>
<rscale>  2 0.48982499E+03</rscale>
<asrwt>0</asrwt>
<pdfrwt beam="1">  1       21 0.40695858E-01 0.48982499E+03</pdfrwt>
<pdfrwt beam="2">  1       21 0.31875269E-01 0.48982499E+03</pdfrwt>
<totfact> 0.50309069E+04</totfact>
</mgrwt>
</event>
<event>
 7    0  0.4714446E-002  0.4561862E+03  0.7546771E-02  0.1025893E+00
         21   -1    0    0  502  501  0.00000000000E+00  0.00000000000E+00  0.15199650381E+03  0.15199650381E+03  0.00000000000E+00 0. -1.
         21   -1    0    0  501  502 -0.00000000000E+00 -0.00000000000E+00 -0.34228716566E+03  0.34228716566E+03  0.00000000000E+00 0. -1.
      99926    2    1    2    0    0  0.14210854715E-13  0.00000000000E+00 -0.19029066184E+03  0.49428366947E+03  0.45618615709E+03 0.  0.
      99925    2    3    3    0    0  0.11253835552E+03  0.16738609174E+02 -0.10767529881E+03  0.30608731241E+03  0.26296465608E+03 0.  0.
         25    1    4    4    0    0  0.75492148785E+02 -0.85194920767E+01 -0.22045521570E+02  0.14800391682E+03  0.12509000000E+03 0.  0.
         25    1    4    4    0    0  0.37046206732E+02  0.25258101251E+02 -0.85629777238E+02  0.15808339559E+03  0.12509000000E+03 0.  0.
         25    1    3    3    0    0 -0.11253835552E+03 -0.16738609174E+02 -0.82615363035E+02  0.18819635705E+03  0.12509000000E+03 0.  0.
<mgrwt>
<rscale>  2 0.45618616E+03</rscale>
<asrwt>0</asrwt>
<pdfrwt beam="1">  1       21 0.22352427E-01 0.45618616E+03</pdfrwt>
<pdfrwt beam="2">  1       21 0.50336348E-01 0.45618616E+03</pdfrwt>
<totfact> 0.65059351E+04</totfact>
</mgrwt>
</event>
<event>
 7    0  0.4714446E-002  0.4454111E+03  0.7546771E-02  0.1029099E+00
         21   -1    0    0  502  501  0.00000000000E+00  0.00000000000E+00  0.32166802952E+03  0.32166802952E+03  0.00000000000E+00 0. -1.
         21   -1    0    0  501  502 -0.00000000000E+00 -0.00000000000E+00 -0.15418924594E+03  0.15418924594E+03  0.00000000000E+00 0. -1.
      99926    2    1    2    0    0  0.35527136788E-14  0.00000000000E+00  0.16747878358E+03  0.47585727546E+03  0.44541105022E+03 0.  0.
      99925    2    3    3    0    0  0.31322353358E+02 -0.93861660982E+02  0.72521743379E+02  0.29023548577E+03  0.26303256969E+03 0.  0.
         25    1    4    4    0    0  0.66956885000E+01 -0.53238247516E+02 -0.38511633790E+01  0.13616711351E+03  0.12509000000E+03 0.  0.
         25    1    4    4    0    0  0.24626664858E+02 -0.40623413466E+02  0.76372906758E+02  0.15406837226E+03  0.12509000000E+03 0.  0.
         25    1    3    3    0    0 -0.31322353358E+02  0.93861660982E+02  0.94957040204E+02  0.18562178969E+03  0.12509000000E+03 0.  0.
<mgrwt>
<rscale>  2 0.44541105E+03</rscale>
<asrwt>0</asrwt>
<pdfrwt beam="1">  1       21 0.47304122E-01 0.44541105E+03</pdfrwt>
<pdfrwt beam="2">  1       21 0.22674889E-01 0.44541105E+03</pdfrwt>
<totfact> 0.72355327E+04</totfact>
</mgrwt>
</event>
<event>
 7    0  0.4714446E-002  0.4541042E+03  0.7546771E-02  0.1026505E+00
         21   -1    0    0  502  501  0.00000000000E+00  0.00000000000E+00  0.16348085041E+03  0.16348085041E+03  0.00000000000E+00 0.  1.
         21   -1    0    0  501  502 -0.00000000000E+00 -0.00000000000E+00 -0.31534375587E+03  0.31534375587E+03  0.00000000000E+00 0.  1.
      99926    2    1    2    0    0  0.00000000000E+00  0.00000000000E+00 -0.15186290545E+03  0.47882460628E+03  0.45410424081E+03 0.  0.
      99925    2    3    3    0    0 -0.10199363023E+03 -0.46724560247E+02 -0.91981344144E+02  0.30044525034E+03  0.26309864242E+03 0.  0.
         25    1    3    3    0    0  0.10199363023E+03  0.46724560247E+02 -0.59881561309E+02  0.17837935593E+03  0.12509000000E+03 0.  0.
         25    1    4    4    0    0 -0.13704590093E+02 -0.27108210441E+02 -0.63281981495E+02  0.14343914440E+03  0.12509000000E+03 0.  0.
         25    1    4    4    0    0 -0.88289040141E+02 -0.19616349806E+02 -0.28699362649E+02  0.15700610595E+03  0.12509000000E+03 0.  0.
<mgrwt>
<rscale>  2 0.45410424E+03</rscale>
<asrwt>0</asrwt>
<pdfrwt beam="1">  1       21 0.24041301E-01 0.45410424E+03</pdfrwt>
<pdfrwt beam="2">  1       21 0.46374082E-01 0.45410424E+03</pdfrwt>
<totfact> 0.67262715E+04</totfact>
</mgrwt>
</event>
<event>
 7    0  0.4714446E-002  0.4536281E+03  0.7546771E-02  0.1026646E+00
         21   -1    0    0  502  501  0.00000000000E+00  0.00000000000E+00  0.19621594221E+03  0.19621594221E+03  0.00000000000E+00 0.  1.
         21   -1    0    0  501  502 -0.00000000000E+00 -0.00000000000E+00 -0.26218361389E+03  0.26218361389E+03  0.00000000000E+00 0.  1.
      99926    2    1    2    0    0  0.35527136788E-14  0.14210854715E-13 -0.65967671679E+02  0.45839955610E+03  0.45362806276E+03 0.  0.
      99925    2    3    3    0    0  0.13136213524E+02  0.10956186518E+03 -0.22796238627E+02  0.28609853132E+03  0.26297592803E+03 0.  0.
         25    1    4    4    0    0  0.33600009326E+02  0.38100514909E+02 -0.36743636417E+02  0.13992216686E+03  0.12509000000E+03 0.  0.
         25    1    3    3    0    0 -0.13136213524E+02 -0.10956186518E+03 -0.43171433051E+02  0.17230102478E+03  0.12509000000E+03 0.  0.
         25    1    4    4    0    0 -0.20463795802E+02  0.71461350268E+02  0.13947397789E+02  0.14617636446E+03  0.12509000000E+03 0.  0.
<mgrwt>
<rscale>  2 0.45362806E+03</rscale>
<asrwt>0</asrwt>
<pdfrwt beam="1">  1       21 0.28855286E-01 0.45362806E+03</pdfrwt>
<pdfrwt beam="2">  1       21 0.38556413E-01 0.45362806E+03</pdfrwt>
<totfact> 0.69049740E+04</totfact>
</mgrwt>
</event>
<event>
 7    0  0.4714446E-002  0.4501300E+03  0.7546771E-02  0.1027683E+00
         21   -1    0    0  502  501  0.00000000000E+00  0.00000000000E+00  0.37844878926E+02  0.37844878926E+02  0.00000000000E+00 0. -1.
         21   -1    0    0  501  502 -0.00000000000E+00 -0.00000000000E+00 -0.13384704132E+04  0.13384704132E+04  0.00000000000E+00 0. -1.
      99926    2    1    2    0    0  0.00000000000E+00  0.00000000000E+00 -0.13006255343E+04  0.13763152921E+04  0.45012998448E+03 0.  0.
      99925    2    3    3    0    0 -0.24850553766E+02 -0.51240503746E+02 -0.11046584003E+04  0.11369541321E+04  0.26296649559E+03 0.  0.
         25    1    4    4    0    0  0.27037896346E+02 -0.15283608720E+02 -0.51758986448E+03  0.53339611214E+03  0.12509000000E+03 0.  0.
         25    1    4    4    0    0 -0.51888450112E+02 -0.35956895026E+02 -0.58706853587E+03  0.60355801996E+03  0.12509000000E+03 0.  0.
         25    1    3    3    0    0  0.24850553766E+02  0.51240503746E+02 -0.19596713391E+03  0.23936116000E+03  0.12509000000E+03 0.  0.
<mgrwt>
<rscale>  2 0.45012998E+03</rscale>
<asrwt>0</asrwt>
<pdfrwt beam="1">  1       21 0.55654240E-02 0.45012998E+03</pdfrwt>
<pdfrwt beam="2">  1       21 0.19683386E+00 0.45012998E+03</pdfrwt>
<totfact> 0.28015554E+04</totfact>
</mgrwt>
</event>
<event>
 7    0  0.4714446E-002  0.4524141E+03  0.7546771E-02  0.1027005E+00
         21   -1    0    0  502  501  0.00000000000E+00  0.00000000000E+00  0.51663009645E+03  0.51663009645E+03  0.00000000000E+00 0. -1.
         21   -1    0    0  501  502 -0.00000000000E+00 -0.00000000000E+00 -0.99045019101E+02  0.99045019101E+02  0.00000000000E+00 0. -1.
      99926    2    1    2    0    0  0.14210854715E-13  0.17763568394E-14  0.41758507735E+03  0.61567511555E+03  0.45241413670E+03 0.  0.
      99925    2    3    3    0    0 -0.96166022789E+02  0.78241916782E+01  0.33752676443E+03  0.43857072972E+03  0.26288941847E+03 0.  0.
         25    1    3    3    0    0  0.96166022789E+02 -0.78241916782E+01  0.80058312919E+02  0.17710438583E+03  0.12509000000E+03 0.  0.
         25    1    4    4    0    0 -0.75657444619E+02 -0.26623265109E+02  0.18450133160E+03  0.23689891649E+03  0.12509000000E+03 0.  0.
         25    1    4    4    0    0 -0.20508578170E+02  0.34447456787E+02  0.15302543283E+03  0.20167181323E+03  0.12509000000E+03 0.  0.
<mgrwt>
<rscale>  2 0.45241414E+03</rscale>
<asrwt>0</asrwt>
<pdfrwt beam="1">  1       21 0.75975013E-01 0.45241414E+03</pdfrwt>
<pdfrwt beam="2">  1       21 0.14565444E-01 0.45241414E+03</pdfrwt>
<totfact> 0.58917666E+04</totfact>
</mgrwt>
</event>
<event>
 7    0  0.4714446E-002  0.4343935E+03  0.7546771E-02  0.1032481E+00
         21   -1    0    0  502  501  0.00000000000E+00  0.00000000000E+00  0.80722775110E+03  0.80722775110E+03  0.00000000000E+00 0. -1.
         21   -1    0    0  501  502 -0.00000000000E+00 -0.00000000000E+00 -0.58440035754E+02  0.58440035754E+02  0.00000000000E+00 0. -1.
      99926    2    1    2    0    0  0.00000000000E+00 -0.71054273576E-14  0.74878771535E+03  0.86566778686E+03  0.43439345592E+03 0.  0.
      99925    2    3    3    0    0 -0.22465591545E+02  0.53721454809E+02  0.62413738476E+03  0.67972179866E+03  0.26283749925E+03 0.  0.
         25    1    4    4    0    0 -0.70902761425E+01  0.60290368720E+02  0.38478804149E+03  0.40913878519E+03  0.12509000000E+03 0.  0.
         25    1    3    3    0    0  0.22465591545E+02 -0.53721454809E+02  0.12465033059E+03  0.18594598820E+03  0.12509000000E+03 0.  0.
         25    1    4    4    0    0 -0.15375315403E+02 -0.65689139114E+01  0.23934934327E+03  0.27058301347E+03  0.12509000000E+03 0.  0.
<mgrwt>
<rscale>  2 0.43439346E+03</rscale>
<asrwt>0</asrwt>
<pdfrwt beam="1">  1       21 0.11870996E+00 0.43439346E+03</pdfrwt>
<pdfrwt beam="2">  1       21 0.85941234E-02 0.43439346E+03</pdfrwt>
<totfact> 0.52765769E+04</totfact>
</mgrwt>
</event>
<event>
 7    0  0.4714446E-002  0.4565715E+03  0.7546771E-02  0.1025780E+00
         21   -1    0    0  502  501  0.00000000000E+00  0.00000000000E+00  0.13643187796E+03  0.13643187796E+03  0.00000000000E+00 0.  1.
         21   -1    0    0  501  502 -0.00000000000E+00 -0.00000000000E+00 -0.38198105533E+03  0.38198105533E+03  0.00000000000E+00 0.  1.
      99926    2    1    2    0    0  0.35527136788E-14  0.14210854715E-13 -0.24554917737E+03  0.51841293330E+03  0.45657153974E+03 0.  0.
      99925    2    3    3    0    0 -0.16063835358E+02  0.10989982299E+03 -0.12251724105E+03  0.31075845259E+03  0.26310515693E+03 0.  0.
         25    1    4    4    0    0  0.25509259664E+02  0.53038454872E+02 -0.34923081187E+02  0.14258656922E+03  0.12509000000E+03 0.  0.
         25    1    4    4    0    0 -0.41573095022E+02  0.56861368121E+02 -0.87594159861E+02  0.16817188337E+03  0.12509000000E+03 0.  0.
         25    1    3    3    0    0  0.16063835358E+02 -0.10989982299E+03 -0.12303193632E+03  0.20765448070E+03  0.12509000000E+03 0.  0.
<mgrwt>
<rscale>  2 0.45657154E+03</rscale>
<asrwt>0</asrwt>
<pdfrwt beam="1">  1       21 0.20063512E-01 0.45657154E+03</pdfrwt>
<pdfrwt beam="2">  1       21 0.56173684E-01 0.45657154E+03</pdfrwt>
<totfact> 0.63203741E+04</totfact>
</mgrwt>
</event>
<event>
 7    0  0.4714446E-002  0.4474484E+03  0.7546771E-02  0.1028486E+00
         21   -1    0    0  502  501  0.00000000000E+00  0.00000000000E+00  0.18247640257E+04  0.18247640257E+04  0.00000000000E+00 0. -1.
         21   -1    0    0  501  502 -0.00000000000E+00 -0.00000000000E+00 -0.27429586076E+02  0.27429586076E+02  0.00000000000E+00 0. -1.
      99926    2    1    2    0    0  0.14210854715E-13  0.00000000000E+00  0.17973344396E+04  0.18521936118E+04  0.44744841898E+03 0.  0.
      99925    2    3    3    0    0  0.10165384358E+03 -0.16863182424E+02  0.10386071933E+04  0.10763505779E+04  0.26307374192E+03 0.  0.
         25    1    4    4    0    0  0.90759787607E+01 -0.11024887856E+01  0.49991208215E+03  0.51540584674E+03  0.12509000000E+03 0.  0.
         25    1    3    3    0    0 -0.10165384358E+03  0.16863182424E+02  0.75872724632E+03  0.77584303390E+03  0.12509000000E+03 0.  0.
         25    1    4    4    0    0  0.92577864815E+02 -0.15760693638E+02  0.53869511117E+03  0.56094473116E+03  0.12509000000E+03 0.  0.
<mgrwt>
<rscale>  2 0.44744842E+03</rscale>
<asrwt>0</asrwt>
<pdfrwt beam="1">  1       21 0.26834757E+00 0.44744842E+03</pdfrwt>
<pdfrwt beam="2">  1       21 0.40337639E-02 0.44744842E+03</pdfrwt>
<totfact> 0.17266788E+04</totfact>
</mgrwt>
</event>
<event>
 7    0  0.4714446E-002  0.4583980E+03  0.7546771E-02  0.1025247E+00
         21   -1    0    0  502  501  0.00000000000E+00  0.00000000000E+00  0.32115559954E+03  0.32115559954E+03  0.00000000000E+00 0. -1.
         21   -1    0    0  501  502 -0.00000000000E+00 -0.00000000000E+00 -0.16357239410E+03  0.16357239410E+03  0.00000000000E+00 0. -1.
      99926    2    1    2    0    0 -0.71054273576E-14  0.71054273576E-14  0.15758320544E+03  0.48472799364E+03  0.45839803794E+03 0.  0.
      99925    2    3    3    0    0 -0.32939484659E+02  0.35930782877E+02 -0.12822544956E+02  0.26779100124E+03  0.26300488945E+03 0.  0.
         25    1    4    4    0    0 -0.41484343711E+02  0.12959540661E+02  0.25138628857E+02  0.13479005612E+03  0.12509000000E+03 0.  0.
         25    1    3    3    0    0  0.32939484659E+02 -0.35930782877E+02  0.17040575039E+03  0.21693699241E+03  0.12509000000E+03 0.  0.
         25    1    4    4    0    0  0.85448590528E+01  0.22971242216E+02 -0.37961173814E+02  0.13300094512E+03  0.12509000000E+03 0.  0.
<mgrwt>
<rscale>  2 0.45839804E+03</rscale>
<asrwt>0</asrwt>
<pdfrwt beam="1">  1       21 0.47228765E-01 0.45839804E+03</pdfrwt>
<pdfrwt beam="2">  1       21 0.24054764E-01 0.45839804E+03</pdfrwt>
<totfact> 0.64597423E+04</totfact>
</mgrwt>
</event>
<event>
 7    0  0.4714446E-002  0.4583875E+03  0.7546771E-02  0.1025250E+00
         21   -1    0    0  502  501  0.00000000000E+00  0.00000000000E+00  0.34825180122E+03  0.34825180122E+03  0.00000000000E+00 0.  1.
         21   -1    0    0  501  502 -0.00000000000E+00 -0.00000000000E+00 -0.15083847598E+03  0.15083847598E+03  0.00000000000E+00 0.  1.
      99926    2    1    2    0    0 -0.71054273576E-14  0.00000000000E+00  0.19741332524E+03  0.49909027720E+03  0.45838748218E+03 0.  0.
      99925    2    3    3    0    0  0.60927569441E+02  0.93035926517E+02  0.16095311415E+03  0.32778730749E+03  0.26300334913E+03 0.  0.
         25    1    4    4    0    0  0.91318843253E+01  0.23258664264E+02  0.10603167111E+03  0.16587519451E+03  0.12509000000E+03 0.  0.
         25    1    3    3    0    0 -0.60927569441E+02 -0.93035926517E+02  0.36460211095E+02  0.17130296972E+03  0.12509000000E+03 0.  0.
         25    1    4    4    0    0  0.51795685115E+02  0.69777262253E+02  0.54921443038E+02  0.16191211298E+03  0.12509000000E+03 0.  0.
<mgrwt>
<rscale>  2 0.45838748E+03</rscale>
<asrwt>0</asrwt>
<pdfrwt beam="1">  1       21 0.51213500E-01 0.45838748E+03</pdfrwt>
<pdfrwt beam="2">  1       21 0.22182129E-01 0.45838748E+03</pdfrwt>
<totfact> 0.63606877E+04</totfact>
</mgrwt>
</event>
<event>
 7    0  0.4714446E-002  0.4652284E+03  0.7546771E-02  0.1023276E+00
         21   -1    0    0  502  501  0.00000000000E+00  0.00000000000E+00  0.50004393750E+02  0.50004393750E+02  0.00000000000E+00 0. -1.
         21   -1    0    0  501  502 -0.00000000000E+00 -0.00000000000E+00 -0.10820924176E+04  0.10820924176E+04  0.00000000000E+00 0. -1.
      99926    2    1    2    0    0  0.00000000000E+00 -0.17763568394E-14 -0.10320880238E+04  0.11320968113E+04  0.46522843990E+03 0.  0.
      99925    2    3    3    0    0  0.12068964890E+03  0.11391729180E+02 -0.68593902328E+03  0.74458887396E+03  0.26306745280E+03 0.  0.
         25    1    4    4    0    0  0.81656721290E+02 -0.24935537732E+02 -0.40713287927E+03  0.43438956094E+03  0.12509000000E+03 0.  0.
         25    1    4    4    0    0  0.39032927606E+02  0.36327266912E+02 -0.27880614401E+03  0.31019931302E+03  0.12509000000E+03 0.  0.
         25    1    3    3    0    0 -0.12068964890E+03 -0.11391729180E+02 -0.34614900057E+03  0.38750793739E+03  0.12509000000E+03 0.  0.
<mgrwt>
<rscale>  2 0.46522844E+03</rscale>
<asrwt>0</asrwt>
<pdfrwt beam="1">  1       21 0.73535880E-02 0.46522844E+03</pdfrwt>
<pdfrwt beam="2">  1       21 0.15913122E+00 0.46522844E+03</pdfrwt>
<totfact> 0.31775614E+04</totfact>
</mgrwt>
</event>
<event>
 7    0  0.4714446E-002  0.4529146E+03  0.7546771E-02  0.1026856E+00
         21   -1    0    0  502  501  0.00000000000E+00  0.00000000000E+00  0.97102047699E+03  0.97102047699E+03  0.00000000000E+00 0.  1.
         21   -1    0    0  501  502 -0.00000000000E+00 -0.00000000000E+00 -0.52813412857E+02  0.52813412857E+02  0.00000000000E+00 0.  1.
      99926    2    1    2    0    0  0.00000000000E+00 -0.14210854715E-13  0.91820706413E+03  0.10238338898E+04  0.45291458508E+03 0.  0.
      99925    2    3    3    0    0 -0.35915677342E+01 -0.11065470824E+03  0.59627031133E+03  0.66113822580E+03  0.26326432653E+03 0.  0.
         25    1    3    3    0    0  0.35915677342E+01  0.11065470824E+03  0.32193675281E+03  0.36269566405E+03  0.12509000000E+03 0.  0.
         25    1    4    4    0    0 -0.51874359675E+01 -0.83785696404E+02  0.24875150520E+03  0.29081226221E+03  0.12509000000E+03 0.  0.
         25    1    4    4    0    0  0.15958682334E+01 -0.26869011831E+02  0.34751880613E+03  0.37032596359E+03  0.12509000000E+03 0.  0.
<mgrwt>
<rscale>  2 0.45291459E+03</rscale>
<asrwt>0</asrwt>
<pdfrwt beam="1">  1       21 0.14279712E+00 0.45291459E+03</pdfrwt>
<pdfrwt beam="2">  1       21 0.77666790E-02 0.45291459E+03</pdfrwt>
<totfact> 0.38881606E+04</totfact>
</mgrwt>
</event>
<event>
 7    0  0.4714446E-002  0.4482606E+03  0.7546771E-02  0.1028242E+00
         21   -1    0    0  502  501  0.00000000000E+00  0.00000000000E+00  0.36919484510E+02  0.36919484510E+02  0.00000000000E+00 0. -1.
         21   -1    0    0  501  502 -0.00000000000E+00 -0.00000000000E+00 -0.13606470540E+04  0.13606470540E+04  0.00000000000E+00 0. -1.
      99926    2    1    2    0    0 -0.25535129566E-14  0.00000000000E+00 -0.13237275694E+04  0.13975665385E+04  0.44826058418E+03 0.  0.
      99925    2    3    3    0    0  0.72066005959E+00 -0.10237141088E+03 -0.93750520487E+03  0.97888330723E+03  0.26232821981E+03 0.  0.
         25    1    4    4    0    0  0.33772398551E+02 -0.70905902340E+02 -0.45747297367E+03  0.48072575511E+03  0.12509000000E+03 0.  0.
         25    1    3    3    0    0 -0.72066005959E+00  0.10237141088E+03 -0.38622236458E+03  0.41868323124E+03  0.12509000000E+03 0.  0.
         25    1    4    4    0    0 -0.33051738491E+02 -0.31465508539E+02 -0.48003223120E+03  0.49815755212E+03  0.12509000000E+03 0.  0.
<mgrwt>
<rscale>  2 0.44826058E+03</rscale>
<asrwt>0</asrwt>
<pdfrwt beam="1">  1       21 0.54293353E-02 0.44826058E+03</pdfrwt>
<pdfrwt beam="2">  1       21 0.20009518E+00 0.44826058E+03</pdfrwt>
<totfact> 0.27825997E+04</totfact>
</mgrwt>
</event>
<event>
 7    0  0.4714446E-002  0.4190765E+03  0.7546771E-02  0.1037367E+00
         21   -1    0    0  502  501  0.00000000000E+00  0.00000000000E+00  0.71923335936E+02  0.71923335936E+02  0.00000000000E+00 0. -1.
         21   -1    0    0  501  502 -0.00000000000E+00 -0.00000000000E+00 -0.61045939235E+03  0.61045939235E+03  0.00000000000E+00 0. -1.
      99926    2    1    2    0    0  0.00000000000E+00  0.71054273576E-14 -0.53853605642E+03  0.68238272829E+03  0.41907648921E+03 0.  0.
      99925    2    3    3    0    0 -0.26365133911E+02 -0.51169662686E+02 -0.42848024124E+03  0.50610667995E+03  0.26312582482E+03 0.  0.
         25    1    3    3    0    0  0.26365133911E+02  0.51169662686E+02 -0.11005581517E+03  0.17627604834E+03  0.12509000000E+03 0.  0.
         25    1    4    4    0    0  0.10824578965E+02 -0.57570610117E+02 -0.23652176150E+03  0.27390070905E+03  0.12509000000E+03 0.  0.
         25    1    4    4    0    0 -0.37189712876E+02  0.64009474310E+01 -0.19195847975E+03  0.23220597089E+03  0.12509000000E+03 0.  0.
<mgrwt>
<rscale>  2 0.41907649E+03</rscale>
<asrwt>0</asrwt>
<pdfrwt beam="1">  1       21 0.10576961E-01 0.41907649E+03</pdfrwt>
<pdfrwt beam="2">  1       21 0.89773439E-01 0.41907649E+03</pdfrwt>
<totfact> 0.72233923E+04</totfact>
</mgrwt>
</event>
<event>
 7    0  0.4714446E-002  0.4509835E+03  0.7546771E-02  0.1027429E+00
         21   -1    0    0  502  501  0.00000000000E+00  0.00000000000E+00  0.52566868966E+02  0.52566868966E+02  0.00000000000E+00 0.  1.
         21   -1    0    0  501  502 -0.00000000000E+00 -0.00000000000E+00 -0.96727310786E+03  0.96727310786E+03  0.00000000000E+00 0.  1.
      99926    2    1    2    0    0  0.00000000000E+00  0.00000000000E+00 -0.91470623889E+03  0.10198399768E+04  0.45098345298E+03 0.  0.
      99925    2    3    3    0    0  0.61697227949E+02  0.59527051159E+02 -0.73109525784E+03  0.78170027367E+03  0.26306847790E+03 0.  0.
         25    1    3    3    0    0 -0.61697227949E+02 -0.59527051159E+02 -0.18361098106E+03  0.23813970316E+03  0.12509000000E+03 0.  0.
         25    1    4    4    0    0  0.69237479032E+02  0.22217685541E+02 -0.34690824543E+03  0.37587270837E+03  0.12509000000E+03 0.  0.
         25    1    4    4    0    0 -0.75402510829E+01  0.37309365618E+02 -0.38418701241E+03  0.40582756529E+03  0.12509000000E+03 0.  0.
<mgrwt>
<rscale>  2 0.45098345E+03</rscale>
<asrwt>0</asrwt>
<pdfrwt beam="1">  1       21 0.77304220E-02 0.45098345E+03</pdfrwt>
<pdfrwt beam="2">  1       21 0.14224604E+00 0.45098345E+03</pdfrwt>
<totfact> 0.39632230E+04</totfact>
</mgrwt>
</event>
<event>
 7    0  0.4714446E-002  0.4509433E+03  0.7546771E-02  0.1027441E+00
         21   -1    0    0  502  501  0.00000000000E+00  0.00000000000E+00  0.18671152050E+03  0.18671152050E+03  0.00000000000E+00 0. -1.
         21   -1    0    0  501  502 -0.00000000000E+00 -0.00000000000E+00 -0.27227809874E+03  0.27227809874E+03  0.00000000000E+00 0. -1.
      99926    2    1    2    0    0  0.14210854715E-13  0.00000000000E+00 -0.85566578233E+02  0.45898961924E+03  0.45094326834E+03 0.  0.
      99925    2    3    3    0    0  0.82355280189E+02  0.63052468640E+02 -0.90576434263E+02  0.29641467426E+03  0.26248726197E+03 0.  0.
         25    1    3    3    0    0 -0.82355280189E+02 -0.63052468640E+02  0.50098560303E+01  0.16257494498E+03  0.12509000000E+03 0.  0.
         25    1    4    4    0    0  0.61853105125E+02  0.43276252384E+02 -0.13443976820E+02  0.14672044591E+03  0.12509000000E+03 0.  0.
         25    1    4    4    0    0  0.20502175064E+02  0.19776216256E+02 -0.77132457443E+02  0.14969422836E+03  0.12509000000E+03 0.  0.
<mgrwt>
<rscale>  2 0.45094327E+03</rscale>
<asrwt>0</asrwt>
<pdfrwt beam="1">  1       21 0.27457577E-01 0.45094327E+03</pdfrwt>
<pdfrwt beam="2">  1       21 0.40040897E-01 0.45094327E+03</pdfrwt>
<totfact> 0.70505048E+04</totfact>
</mgrwt>
</event>
<event>
 7    0  0.4714446E-002  0.4556408E+03  0.7546771E-02  0.1026053E+00
         21   -1    0    0  502  501  0.00000000000E+00  0.00000000000E+00  0.15156701397E+03  0.15156701397E+03  0.00000000000E+00 0. -1.
         21   -1    0    0  501  502 -0.00000000000E+00 -0.00000000000E+00 -0.34243685164E+03  0.34243685164E+03  0.00000000000E+00 0. -1.
      99926    2    1    2    0    0  0.35527136788E-14  0.00000000000E+00 -0.19086983767E+03  0.49400386561E+03  0.45564078428E+03 0.  0.
      99925    2    3    3    0    0  0.21384831436E+02  0.10919432498E+03 -0.93984476924E+02  0.30057431034E+03  0.26292797970E+03 0.  0.
         25    1    4    4    0    0 -0.22503166818E+02  0.75882809064E+02 -0.60006320717E+02  0.15972745492E+03  0.12509000000E+03 0.  0.
         25    1    4    4    0    0  0.43887998253E+02  0.33311515920E+02 -0.33978156207E+02  0.14084685542E+03  0.12509000000E+03 0.  0.
         25    1    3    3    0    0 -0.21384831436E+02 -0.10919432498E+03 -0.96885360741E+02  0.19342955527E+03  0.12509000000E+03 0.  0.
<mgrwt>
<rscale>  2 0.45564078E+03</rscale>
<asrwt>0</asrwt>
<pdfrwt beam="1">  1       21 0.22289267E-01 0.45564078E+03</pdfrwt>
<pdfrwt beam="2">  1       21 0.50358360E-01 0.45564078E+03</pdfrwt>
<totfact> 0.65360869E+04</totfact>
</mgrwt>
</event>
<event>
 7    0  0.4714446E-002  0.4501383E+03  0.7546771E-02  0.1027681E+00
         21   -1    0    0  502  501  0.00000000000E+00  0.00000000000E+00  0.23799226261E+03  0.23799226261E+03  0.00000000000E+00 0. -1.
         21   -1    0    0  501  502 -0.00000000000E+00 -0.00000000000E+00 -0.21284778198E+03  0.21284778198E+03  0.00000000000E+00 0. -1.
      99926    2    1    2    0    0  0.00000000000E+00 -0.71054273576E-14  0.25144480638E+02  0.45084004459E+03  0.45013831308E+03 0.  0.
      99925    2    3    3    0    0 -0.66486705907E+01 -0.49621338863E+02  0.11237895779E+03  0.29032884811E+03  0.26297400594E+03 0.  0.
         25    1    4    4    0    0 -0.56610496712E+01  0.79886520781E+01  0.80145913729E+02  0.14888499465E+03  0.12509000000E+03 0.  0.
         25    1    4    4    0    0 -0.98762091953E+00 -0.57609990941E+02  0.32233044062E+02  0.14144385346E+03  0.12509000000E+03 0.  0.
         25    1    3    3    0    0  0.66486705907E+01  0.49621338863E+02 -0.87234477153E+02  0.16051119648E+03  0.12509000000E+03 0.  0.
<mgrwt>
<rscale>  2 0.45013831E+03</rscale>
<asrwt>0</asrwt>
<pdfrwt beam="1">  1       21 0.34998862E-01 0.45013831E+03</pdfrwt>
<pdfrwt beam="2">  1       21 0.31301144E-01 0.45013831E+03</pdfrwt>
<totfact> 0.71588581E+04</totfact>
</mgrwt>
</event>
<event>
 7    0  0.4714446E-002  0.4666529E+03  0.7546771E-02  0.1022869E+00
         21   -1    0    0  502  501  0.00000000000E+00  0.00000000000E+00  0.26287520878E+02  0.26287520878E+02  0.00000000000E+00 0.  1.
         21   -1    0    0  501  502 -0.00000000000E+00 -0.00000000000E+00 -0.20709917195E+04  0.20709917195E+04  0.00000000000E+00 0.  1.
      99926    2    1    2    0    0  0.00000000000E+00  0.71054273576E-14 -0.20447041986E+04  0.20972792404E+04  0.46665292483E+03 0.  0.
      99925    2    3    3    0    0  0.10990427942E+03 -0.38065770245E+02 -0.14647658398E+04  0.14927100039E+04  0.26289967089E+03 0.  0.
         25    1    4    4    0    0  0.44926501548E+02  0.12859454450E+02 -0.81625878630E+03  0.82710922521E+03  0.12509000000E+03 0.  0.
         25    1    3    3    0    0 -0.10990427942E+03  0.38065770245E+02 -0.57993835884E+03  0.60456923644E+03  0.12509000000E+03 0.  0.
         25    1    4    4    0    0  0.64977777871E+02 -0.50925224695E+02 -0.64850705346E+03  0.66560077871E+03  0.12509000000E+03 0.  0.
<mgrwt>
<rscale>  2 0.46665292E+03</rscale>
<asrwt>0</asrwt>
<pdfrwt beam="1">  1       21 0.38658110E-02 0.46665292E+03</pdfrwt>
<pdfrwt beam="2">  1       21 0.30455768E+00 0.46665292E+03</pdfrwt>
<totfact> 0.11143059E+04</totfact>
</mgrwt>
</event>
<event>
 7    0  0.4714446E-002  0.4515104E+03  0.7546771E-02  0.1027273E+00
         21   -1    0    0  502  501  0.00000000000E+00  0.00000000000E+00  0.60158437063E+03  0.60158437063E+03  0.00000000000E+00 0. -1.
         21   -1    0    0  501  502 -0.00000000000E+00 -0.00000000000E+00 -0.84718651360E+02  0.84718651360E+02  0.00000000000E+00 0. -1.
      99926    2    1    2    0    0  0.00000000000E+00  0.00000000000E+00  0.51686571927E+03  0.68630302199E+03  0.45151042760E+03 0.  0.
      99925    2    3    3    0    0 -0.31020692585E+02  0.10375110067E+03  0.35417268852E+03  0.45426185191E+03  0.26303794886E+03 0.  0.
         25    1    4    4    0    0 -0.52691470806E+02  0.66961443767E+02  0.17070434651E+03  0.22813966789E+03  0.12509000000E+03 0.  0.
         25    1    3    3    0    0  0.31020692585E+02 -0.10375110067E+03  0.16269303074E+03  0.23204117008E+03  0.12509000000E+03 0.  0.
         25    1    4    4    0    0  0.21670778220E+02  0.36789656907E+02  0.18346834201E+03  0.22612218402E+03  0.12509000000E+03 0.  0.
<mgrwt>
<rscale>  2 0.45151043E+03</rscale>
<asrwt>0</asrwt>
<pdfrwt beam="1">  1       21 0.88468288E-01 0.45151043E+03</pdfrwt>
<pdfrwt beam="2">  1       21 0.12458626E-01 0.45151043E+03</pdfrwt>
<totfact> 0.55152763E+04</totfact>
</mgrwt>
</event>
<event>
 7    0  0.4714446E-002  0.4534302E+03  0.7546771E-02  0.1026704E+00
         21   -1    0    0  502  501  0.00000000000E+00  0.00000000000E+00  0.33582709958E+02  0.33582709958E+02  0.00000000000E+00 0.  1.
         21   -1    0    0  501  502 -0.00000000000E+00 -0.00000000000E+00 -0.15305414235E+04  0.15305414235E+04  0.00000000000E+00 0.  1.
      99926    2    1    2    0    0  0.00000000000E+00  0.71054273576E-14 -0.14969587136E+04  0.15641241335E+04  0.45343016532E+03 0.  0.
      99925    2    3    3    0    0 -0.18107146051E+02 -0.60827034562E+02 -0.62586919908E+03  0.68181339048E+03  0.26292479573E+03 0.  0.
         25    1    3    3    0    0  0.18107146051E+02  0.60827034562E+02 -0.87108951451E+03  0.88231074303E+03  0.12509000000E+03 0.  0.
         25    1    4    4    0    0 -0.35818056802E+02  0.29445338753E+00 -0.30437886719E+03  0.33102420272E+03  0.12509000000E+03 0.  0.
         25    1    4    4    0    0  0.17710910751E+02 -0.61121487949E+02 -0.32149033188E+03  0.35078918775E+03  0.12509000000E+03 0.  0.
<mgrwt>
<rscale>  2 0.45343017E+03</rscale>
<asrwt>0</asrwt>
<pdfrwt beam="1">  1       21 0.49386327E-02 0.45343017E+03</pdfrwt>
<pdfrwt beam="2">  1       21 0.22507967E+00 0.45343017E+03</pdfrwt>
<totfact> 0.22523761E+04</totfact>
</mgrwt>
</event>
<event>
 7    0  0.4714446E-002  0.4595178E+03  0.7546771E-02  0.1024921E+00
         21   -1    0    0  502  501  0.00000000000E+00  0.00000000000E+00  0.92913770153E+03  0.92913770153E+03  0.00000000000E+00 0. -1.
         21   -1    0    0  501  502 -0.00000000000E+00 -0.00000000000E+00 -0.56815201389E+02  0.56815201389E+02  0.00000000000E+00 0. -1.
      99926    2    1    2    0    0  0.14210854715E-13 -0.35527136788E-14  0.87232250014E+03  0.98595290292E+03  0.45951777172E+03 0.  0.
      99925    2    3    3    0    0  0.10346000722E+03 -0.19183317180E+02  0.65847964852E+03  0.71679078441E+03  0.26290988637E+03 0.  0.
         25    1    3    3    0    0 -0.10346000722E+03  0.19183317180E+02  0.21384285162E+03  0.26916211851E+03  0.12509000000E+03 0.  0.
         25    1    4    4    0    0  0.13826133305E+02 -0.28353045211E+02  0.29608727623E+03  0.32297095904E+03  0.12509000000E+03 0.  0.
         25    1    4    4    0    0  0.89633873911E+02  0.91697280314E+01  0.36239237229E+03  0.39381982537E+03  0.12509000000E+03 0.  0.
<mgrwt>
<rscale>  2 0.45951777E+03</rscale>
<asrwt>0</asrwt>
<pdfrwt beam="1">  1       21 0.13663789E+00 0.45951777E+03</pdfrwt>
<pdfrwt beam="2">  1       21 0.83551772E-02 0.45951777E+03</pdfrwt>
<totfact> 0.38345809E+04</totfact>
</mgrwt>
</event>
<event>
 7    0  0.4714446E-002  0.4629496E+03  0.7546771E-02  0.1023929E+00
         21   -1    0    0  502  501  0.00000000000E+00  0.00000000000E+00  0.19857864757E+03  0.19857864757E+03  0.00000000000E+00 0. -1.
         21   -1    0    0  501  502 -0.00000000000E+00 -0.00000000000E+00 -0.26982048495E+03  0.26982048495E+03  0.00000000000E+00 0. -1.
      99926    2    1    2    0    0  0.00000000000E+00 -0.14210854715E-13 -0.71241837377E+02  0.46839913252E+03  0.46294961708E+03 0.  0.
      99925    2    3    3    0    0 -0.53611781208E+02 -0.72996858751E+02  0.36109267643E+02  0.28031794707E+03  0.26281458820E+03 0.  0.
         25    1    3    3    0    0  0.53611781208E+02  0.72996858751E+02 -0.10735110502E+03  0.18808118545E+03  0.12509000000E+03 0.  0.
         25    1    4    4    0    0 -0.24987577004E+02  0.24672744317E+01  0.20413025571E+01  0.12760149476E+03  0.12509000000E+03 0.  0.
         25    1    4    4    0    0 -0.28624204204E+02 -0.75464133182E+02  0.34067965086E+02  0.15271645232E+03  0.12509000000E+03 0.  0.
<mgrwt>
<rscale>  2 0.46294962E+03</rscale>
<asrwt>0</asrwt>
<pdfrwt beam="1">  1       21 0.29202742E-01 0.46294962E+03</pdfrwt>
<pdfrwt beam="2">  1       21 0.39679483E-01 0.46294962E+03</pdfrwt>
<totfact> 0.63452850E+04</totfact>
</mgrwt>
</event>
<event>
 7    0  0.4714446E-002  0.4818798E+03  0.7546771E-02  0.1018620E+00
         21   -1    0    0  502  501  0.00000000000E+00  0.00000000000E+00  0.10036278728E+04  0.10036278728E+04  0.00000000000E+00 0. -1.
         21   -1    0    0  501  502 -0.00000000000E+00 -0.00000000000E+00 -0.57842188566E+02  0.57842188566E+02  0.00000000000E+00 0. -1.
      99926    2    1    2    0    0  0.00000000000E+00  0.00000000000E+00  0.94578568420E+03  0.10614700613E+04  0.48187978860E+03 0.  0.
      99925    2    3    3    0    0 -0.32759455316E+02  0.12778804534E+03  0.50305538372E+03  0.58286731008E+03  0.26318551561E+03 0.  0.
         25    1    4    4    0    0 -0.33555150762E+02  0.36065682328E+02  0.18165350999E+03  0.22599156484E+03  0.12509000000E+03 0.  0.
         25    1    4    4    0    0  0.79569544619E+00  0.91722363007E+02  0.32140187373E+03  0.35687574525E+03  0.12509000000E+03 0.  0.
         25    1    3    3    0    0  0.32759455316E+02 -0.12778804534E+03  0.44273030047E+03  0.47860275124E+03  0.12509000000E+03 0.  0.
<mgrwt>
<rscale>  2 0.48187979E+03</rscale>
<asrwt>0</asrwt>
<pdfrwt beam="1">  1       21 0.14759232E+00 0.48187979E+03</pdfrwt>
<pdfrwt beam="2">  1       21 0.85062049E-02 0.48187979E+03</pdfrwt>
<totfact> 0.30043884E+04</totfact>
</mgrwt>
</event>
<event>
 7    0  0.4714446E-002  0.4542650E+03  0.7546771E-02  0.1026458E+00
         21   -1    0    0  502  501  0.00000000000E+00  0.00000000000E+00  0.78985094995E+02  0.78985094995E+02  0.00000000000E+00 0.  1.
         21   -1    0    0  501  502 -0.00000000000E+00 -0.00000000000E+00 -0.65315065446E+03  0.65315065446E+03  0.00000000000E+00 0.  1.
      99926    2    1    2    0    0  0.00000000000E+00  0.00000000000E+00 -0.57416555946E+03  0.73213574945E+03  0.45426497329E+03 0.  0.
      99925    2    3    3    0    0  0.15790968519E+02 -0.70019072417E+02 -0.22172283144E+03  0.35132686061E+03  0.26290211831E+03 0.  0.
         25    1    4    4    0    0  0.30335187821E+02 -0.25994158122E+02 -0.15177017559E+03  0.20069283539E+03  0.12509000000E+03 0.  0.
         25    1    3    3    0    0 -0.15790968519E+02  0.70019072417E+02 -0.35244272802E+03  0.38080888884E+03  0.12509000000E+03 0.  0.
         25    1    4    4    0    0 -0.14544219302E+02 -0.44024914295E+02 -0.69952655851E+02  0.15063402522E+03  0.12509000000E+03 0.  0.
<mgrwt>
<rscale>  2 0.45426497E+03</rscale>
<asrwt>0</asrwt>
<pdfrwt beam="1">  1       21 0.11615455E-01 0.45426497E+03</pdfrwt>
<pdfrwt beam="2">  1       21 0.96051566E-01 0.45426497E+03</pdfrwt>
<totfact> 0.51489655E+04</totfact>
</mgrwt>
</event>
<event>
 7    0  0.4714446E-002  0.4541755E+03  0.7546771E-02  0.1026484E+00
         21   -1    0    0  502  501  0.00000000000E+00  0.00000000000E+00  0.43429226316E+02  0.43429226316E+02  0.00000000000E+00 0.  1.
         21   -1    0    0  501  502 -0.00000000000E+00 -0.00000000000E+00 -0.11874228041E+04  0.11874228041E+04  0.00000000000E+00 0.  1.
      99926    2    1    2    0    0 -0.13322676296E-14  0.00000000000E+00 -0.11439935778E+04  0.12308520305E+04  0.45417553300E+03 0.  0.
      99925    2    3    3    0    0  0.36041380974E+01  0.60173037719E+02 -0.46317840964E+03  0.53602069436E+03  0.26296418265E+03 0.  0.
         25    1    4    4    0    0  0.23243160133E+02  0.17222619881E+02 -0.29065647965E+03  0.31775078346E+03  0.12509000000E+03 0.  0.
         25    1    3    3    0    0 -0.36041380974E+01 -0.60173037719E+02 -0.68081516819E+03  0.69483133609E+03  0.12509000000E+03 0.  0.
         25    1    4    4    0    0 -0.19639022035E+02  0.42950417837E+02 -0.17252192998E+03  0.21826991090E+03  0.12509000000E+03 0.  0.
<mgrwt>
<rscale>  2 0.45417553E+03</rscale>
<asrwt>0</asrwt>
<pdfrwt beam="1">  1       21 0.63866518E-02 0.45417553E+03</pdfrwt>
<pdfrwt beam="2">  1       21 0.17462098E+00 0.45417553E+03</pdfrwt>
<totfact> 0.31391898E+04</totfact>
</mgrwt>
</event>
<event>
 7    0  0.4714446E-002  0.4582871E+03  0.7546771E-02  0.1025279E+00
         21   -1    0    0  502  501  0.00000000000E+00  0.00000000000E+00  0.18096213932E+03  0.18096213932E+03  0.00000000000E+00 0.  1.
         21   -1    0    0  501  502 -0.00000000000E+00 -0.00000000000E+00 -0.29015329478E+03  0.29015329478E+03  0.00000000000E+00 0.  1.
      99926    2    1    2    0    0 -0.71054273576E-14  0.00000000000E+00 -0.10919115547E+03  0.47111543410E+03  0.45828707577E+03 0.  0.
      99925    2    3    3    0    0  0.54547162262E+02 -0.67430601953E+02 -0.14779894185E+03  0.31407929730E+03  0.26320904010E+03 0.  0.
         25    1    4    4    0    0  0.27935381975E+02 -0.67329716930E+02 -0.50318785267E+02  0.15327480093E+03  0.12509000000E+03 0.  0.
         25    1    3    3    0    0 -0.54547162262E+02  0.67430601953E+02  0.38607786382E+02  0.15703613680E+03  0.12509000000E+03 0.  0.
         25    1    4    4    0    0  0.26611780287E+02 -0.10088502323E+00 -0.97480156584E+02  0.16080449638E+03  0.12509000000E+03 0.  0.
<mgrwt>
<rscale>  2 0.45828708E+03</rscale>
<asrwt>0</asrwt>
<pdfrwt beam="1">  1       21 0.26612080E-01 0.45828708E+03</pdfrwt>
<pdfrwt beam="2">  1       21 0.42669602E-01 0.45828708E+03</pdfrwt>
<totfact> 0.65624990E+04</totfact>
</mgrwt>
</event>
<event>
 7    0  0.4714446E-002  0.4079004E+03  0.7546771E-02  0.1041078E+00
         21   -1    0    0  502  501  0.00000000000E+00  0.00000000000E+00  0.39696107774E+03  0.39696107774E+03  0.00000000000E+00 0.  1.
         21   -1    0    0  501  502 -0.00000000000E+00 -0.00000000000E+00 -0.10478532112E+03  0.10478532112E+03  0.00000000000E+00 0.  1.
      99926    2    1    2    0    0 -0.71054273576E-14  0.35527136788E-14  0.29217575662E+03  0.50174639885E+03  0.40790044865E+03 0.  0.
      99925    2    3    3    0    0  0.20886456449E+02 -0.26984417558E+02  0.13322134598E+03  0.29661615823E+03  0.26280946605E+03 0.  0.
         25    1    4    4    0    0 -0.57892137970E+01 -0.11195881155E+02  0.10702257965E+03  0.16510664252E+03  0.12509000000E+03 0.  0.
         25    1    3    3    0    0 -0.20886456449E+02  0.26984417558E+02  0.15895441064E+03  0.20513024062E+03  0.12509000000E+03 0.  0.
         25    1    4    4    0    0  0.26675670246E+02 -0.15788536403E+02  0.26198766330E+02  0.13150951571E+03  0.12509000000E+03 0.  0.
<mgrwt>
<rscale>  2 0.40790045E+03</rscale>
<asrwt>0</asrwt>
<pdfrwt beam="1">  1       21 0.58376628E-01 0.40790045E+03</pdfrwt>
<pdfrwt beam="2">  1       21 0.15409606E-01 0.40790045E+03</pdfrwt>
<totfact> 0.96420542E+04</totfact>
</mgrwt>
</event>
<event>
 7    0  0.4714446E-002  0.4473160E+03  0.7546771E-02  0.1028525E+00
         21   -1    0    0  502  501  0.00000000000E+00  0.00000000000E+00  0.86576719006E+03  0.86576719006E+03  0.00000000000E+00 0.  1.
         21   -1    0    0  501  502 -0.00000000000E+00 -0.00000000000E+00 -0.57778704417E+02  0.57778704417E+02  0.00000000000E+00 0.  1.
      99926    2    1    2    0    0  0.00000000000E+00  0.00000000000E+00  0.80798848564E+03  0.92354589447E+03  0.44731602506E+03 0.  0.
      99925    2    3    3    0    0  0.72395250428E+02 -0.10061366310E+02  0.67042676852E+03  0.72376341904E+03  0.26271492421E+03 0.  0.
         25    1    4    4    0    0  0.52299881247E+02  0.26647064264E+02  0.29290128806E+03  0.32385801868E+03  0.12509000000E+03 0.  0.
         25    1    4    4    0    0  0.20095369182E+02 -0.36708430574E+02  0.37752548046E+03  0.39990540036E+03  0.12509000000E+03 0.  0.
         25    1    3    3    0    0 -0.72395250428E+02  0.10061366310E+02  0.13756171711E+03  0.19978247544E+03  0.12509000000E+03 0.  0.
<mgrwt>
<rscale>  2 0.44731603E+03</rscale>
<asrwt>0</asrwt>
<pdfrwt beam="1">  1       21 0.12731870E+00 0.44731603E+03</pdfrwt>
<pdfrwt beam="2">  1       21 0.84968688E-02 0.44731603E+03</pdfrwt>
<totfact> 0.44867676E+04</totfact>
</mgrwt>
</event>
<event>
 7    0  0.4714446E-002  0.4538797E+03  0.7546771E-02  0.1026571E+00
         21   -1    0    0  502  501  0.00000000000E+00  0.00000000000E+00  0.52967873789E+03  0.52967873789E+03  0.00000000000E+00 0. -1.
         21   -1    0    0  501  502 -0.00000000000E+00 -0.00000000000E+00 -0.97231960577E+02  0.97231960577E+02  0.00000000000E+00 0. -1.
      99926    2    1    2    0    0  0.00000000000E+00  0.00000000000E+00  0.43244677732E+03  0.62691069847E+03  0.45387972927E+03 0.  0.
      99925    2    3    3    0    0  0.68552189424E+02 -0.57671747895E+02  0.17988491290E+03  0.33117359116E+03  0.26323360807E+03 0.  0.
         25    1    4    4    0    0  0.50148532693E+02 -0.26758682466E+01  0.56532338520E+02  0.14616924779E+03  0.12509000000E+03 0.  0.
         25    1    3    3    0    0 -0.68552189424E+02  0.57671747895E+02  0.25256186442E+03  0.29573710731E+03  0.12509000000E+03 0.  0.
         25    1    4    4    0    0  0.18403656731E+02 -0.54995879649E+02  0.12335257438E+03  0.18500434337E+03  0.12509000000E+03 0.  0.
<mgrwt>
<rscale>  2 0.45387973E+03</rscale>
<asrwt>0</asrwt>
<pdfrwt beam="1">  1       21 0.77893930E-01 0.45387973E+03</pdfrwt>
<pdfrwt beam="2">  1       21 0.14298818E-01 0.45387973E+03</pdfrwt>
<totfact> 0.57559061E+04</totfact>
</mgrwt>
</event>
<event>
 7    0  0.4714446E-002  0.4500862E+03  0.7546771E-02  0.1027696E+00
         21   -1    0    0  502  501  0.00000000000E+00  0.00000000000E+00  0.22117986286E+03  0.22117986286E+03  0.00000000000E+00 0.  1.
         21   -1    0    0  501  502 -0.00000000000E+00 -0.00000000000E+00 -0.22897378391E+03  0.22897378391E+03  0.00000000000E+00 0.  1.
      99926    2    1    2    0    0  0.00000000000E+00  0.14210854715E-13 -0.77939210458E+01  0.45015364677E+03  0.45008617007E+03 0.  0.
      99925    2    3    3    0    0  0.56182989292E+02 -0.88351199155E+02  0.23556623229E+02  0.28404275789E+03  0.26298842395E+03 0.  0.
         25    1    4    4    0    0  0.21000834895E+02 -0.20717759767E+02  0.44617009978E+02  0.13604575082E+03  0.12509000000E+03 0.  0.
         25    1    3    3    0    0 -0.56182989292E+02  0.88351199155E+02 -0.31350544275E+02  0.16611088888E+03  0.12509000000E+03 0.  0.
         25    1    4    4    0    0  0.35182154397E+02 -0.67633439388E+02 -0.21060386748E+02  0.14799700707E+03  0.12509000000E+03 0.  0.
<mgrwt>
<rscale>  2 0.45008617E+03</rscale>
<asrwt>0</asrwt>
<pdfrwt beam="1">  1       21 0.32526451E-01 0.45008617E+03</pdfrwt>
<pdfrwt beam="2">  1       21 0.33672615E-01 0.45008617E+03</pdfrwt>
<totfact> 0.71671386E+04</totfact>
</mgrwt>
</event>
<event>
 7    0  0.4714446E-002  0.4576419E+03  0.7546771E-02  0.1025467E+00
         21   -1    0    0  502  501  0.00000000000E+00  0.00000000000E+00  0.40372298395E+04  0.40372298395E+04  0.00000000000E+00 0. -1.
         21   -1    0    0  501  502 -0.00000000000E+00 -0.00000000000E+00 -0.12969048434E+02  0.12969048434E+02  0.00000000000E+00 0. -1.
      99926    2    1    2    0    0  0.35527136788E-14  0.14210854715E-13  0.40242607911E+04  0.40501988879E+04  0.45764190947E+03 0.  0.
      99925    2    3    3    0    0 -0.20440556278E+02  0.65887465553E+02  0.17042676883E+04  0.17258119839E+04  0.26294424519E+03 0.  0.
         25    1    4    4    0    0 -0.24709756883E+02  0.54452142066E+02  0.69042857810E+03  0.70421213949E+03  0.12509000000E+03 0.  0.
         25    1    3    3    0    0  0.20440556278E+02 -0.65887465553E+02  0.23199931028E+04  0.23243869040E+04  0.12509000000E+03 0.  0.
         25    1    4    4    0    0  0.42692006049E+01  0.11435323487E+02  0.10138391102E+04  0.10215998444E+04  0.12509000000E+03 0.  0.
<mgrwt>
<rscale>  2 0.45764191E+03</rscale>
<asrwt>0</asrwt>
<pdfrwt beam="1">  1       21 0.59370940E+00 0.45764191E+03</pdfrwt>
<pdfrwt beam="2">  1       21 0.19072158E-02 0.45764191E+03</pdfrwt>
<totfact> 0.39509456E+02</totfact>
</mgrwt>
</event>
<event>
 7    0  0.4714446E-002  0.4532243E+03  0.7546771E-02  0.1026765E+00
         21   -1    0    0  502  501  0.00000000000E+00  0.00000000000E+00  0.93464941118E+02  0.93464941118E+02  0.00000000000E+00 0.  1.
         21   -1    0    0  501  502 -0.00000000000E+00 -0.00000000000E+00 -0.54943661690E+03  0.54943661690E+03  0.00000000000E+00 0.  1.
      99926    2    1    2    0    0  0.00000000000E+00  0.00000000000E+00 -0.45597167578E+03  0.64290155802E+03  0.45322427581E+03 0.  0.
      99925    2    3    3    0    0 -0.51870979858E+02 -0.12817643819E+02 -0.14841261072E+03  0.30660559142E+03  0.26291784863E+03 0.  0.
         25    1    4    4    0    0  0.96704150493E+01  0.66017024498E+01 -0.51869114914E+02  0.13592281848E+03  0.12509000000E+03 0.  0.
         25    1    4    4    0    0 -0.61541394908E+02 -0.19419346269E+02 -0.96543495803E+02  0.17068277294E+03  0.12509000000E+03 0.  0.
         25    1    3    3    0    0  0.51870979858E+02  0.12817643819E+02 -0.30755906506E+03  0.33629596659E+03  0.12509000000E+03 0.  0.
<mgrwt>
<rscale>  2 0.45322428E+03</rscale>
<asrwt>0</asrwt>
<pdfrwt beam="1">  1       21 0.13744845E-01 0.45322428E+03</pdfrwt>
<pdfrwt beam="2">  1       21 0.80799501E-01 0.45322428E+03</pdfrwt>
<totfact> 0.56905451E+04</totfact>
</mgrwt>
</event>
<event>
 7    0  0.4714446E-002  0.4544104E+03  0.7546771E-02  0.1026415E+00
         21   -1    0    0  502  501  0.00000000000E+00  0.00000000000E+00  0.23333245246E+03  0.23333245246E+03  0.00000000000E+00 0. -1.
         21   -1    0    0  501  502 -0.00000000000E+00 -0.00000000000E+00 -0.22123884692E+03  0.22123884692E+03  0.00000000000E+00 0. -1.
      99926    2    1    2    0    0  0.71054273576E-14 -0.14210854715E-13  0.12093605536E+02  0.45457129938E+03  0.45441039922E+03 0.  0.
      99925    2    3    3    0    0 -0.38077031889E+02  0.95077520990E+02 -0.39145256341E+02  0.28497612131E+03  0.26303886266E+03 0.  0.
         25    1    3    3    0    0  0.38077031889E+02 -0.95077520990E+02  0.51238861877E+02  0.16959517806E+03  0.12509000000E+03 0.  0.
         25    1    4    4    0    0 -0.12169826947E+02  0.80234753906E+02  0.44765908585E+01  0.14917529416E+03  0.12509000000E+03 0.  0.
         25    1    4    4    0    0 -0.25907204942E+02  0.14842767084E+02 -0.43621847199E+02  0.13580082715E+03  0.12509000000E+03 0.  0.
<mgrwt>
<rscale>  2 0.45441040E+03</rscale>
<asrwt>0</asrwt>
<pdfrwt beam="1">  1       21 0.34313596E-01 0.45441040E+03</pdfrwt>
<pdfrwt beam="2">  1       21 0.32535125E-01 0.45441040E+03</pdfrwt>
<totfact> 0.68900783E+04</totfact>
</mgrwt>
</event>
<event>
 7    0  0.4714446E-002  0.4567759E+03  0.7546771E-02  0.1025720E+00
         21   -1    0    0  502  501  0.00000000000E+00  0.00000000000E+00  0.92498691640E+02  0.92498691640E+02  0.00000000000E+00 0.  1.
         21   -1    0    0  501  502 -0.00000000000E+00 -0.00000000000E+00 -0.56391139539E+03  0.56391139539E+03  0.00000000000E+00 0.  1.
      99926    2    1    2    0    0  0.00000000000E+00  0.00000000000E+00 -0.47141270375E+03  0.65641008703E+03  0.45677594628E+03 0.  0.
      99925    2    3    3    0    0 -0.71929628039E+02  0.69844141567E+02 -0.21531274366E+03  0.35427307645E+03  0.26286452712E+03 0.  0.
         25    1    3    3    0    0  0.71929628039E+02 -0.69844141567E+02 -0.25609996009E+03  0.30213701057E+03  0.12509000000E+03 0.  0.
         25    1    4    4    0    0 -0.54048967489E+01  0.51947101125E+02 -0.79226452978E+02  0.15700972319E+03  0.12509000000E+03 0.  0.
         25    1    4    4    0    0 -0.66524731290E+02  0.17897040442E+02 -0.13608629068E+03  0.19726335326E+03  0.12509000000E+03 0.  0.
<mgrwt>
<rscale>  2 0.45677595E+03</rscale>
<asrwt>0</asrwt>
<pdfrwt beam="1">  1       21 0.13602749E-01 0.45677595E+03</pdfrwt>
<pdfrwt beam="2">  1       21 0.82928148E-01 0.45677595E+03</pdfrwt>
<totfact> 0.54565357E+04</totfact>
</mgrwt>
</event>
<event>
 6    0  0.4714446E-002  0.4533790E+03  0.7546771E-02  0.1026719E+00
         21   -1    0    0  502  501  0.00000000000E+00  0.00000000000E+00  0.55835894742E+03  0.55835894742E+03  0.00000000000E+00 0. -1.
         21   -1    0    0  501  502 -0.00000000000E+00 -0.00000000000E+00 -0.92034212349E+02  0.92034212349E+02  0.00000000000E+00 0. -1.
      99926    2    1    2    0    0  0.00000000000E+00  0.00000000000E+00  0.46632473507E+03  0.65039315977E+03  0.45337898467E+03 0.  0.
         25    1    3    3    0    0  0.16183029306E+02 -0.19749365715E+02  0.14518701436E+03  0.19333573162E+03  0.12509000000E+03 0.  0.
         25    1    3    3    0    0  0.35536532886E+02  0.10336720907E+03  0.16508312888E+03  0.23419558626E+03  0.12509000000E+03 0.  0.
         25    1    3    3    0    0 -0.51719562191E+02 -0.83617843354E+02  0.15605459183E+03  0.22286184189E+03  0.12509000000E+03 0.  0.
<mgrwt>
<rscale>  2 0.45337898E+03</rscale>
<asrwt>0</asrwt>
<pdfrwt beam="1">  1       21 0.82111608E-01 0.45337898E+03</pdfrwt>
<pdfrwt beam="2">  1       21 0.13534443E-01 0.45337898E+03</pdfrwt>
<totfact> 0.56396581E+04</totfact>
</mgrwt>
</event>
<event>
 7    0  0.4714446E-002  0.4556578E+03  0.7546771E-02  0.1026048E+00
         21   -1    0    0  502  501  0.00000000000E+00  0.00000000000E+00  0.77305965395E+02  0.77305965395E+02  0.00000000000E+00 0.  1.
         21   -1    0    0  501  502 -0.00000000000E+00 -0.00000000000E+00 -0.67143587607E+03  0.67143587607E+03  0.00000000000E+00 0.  1.
      99926    2    1    2    0    0  0.00000000000E+00 -0.44408920985E-15 -0.59412991067E+03  0.74874184146E+03  0.45565776017E+03 0.  0.
      99925    2    3    3    0    0  0.10205326552E+03 -0.26378808078E+01 -0.29159082353E+03  0.40581439321E+03  0.26313168937E+03 0.  0.
         25    1    4    4    0    0  0.85598925025E+02  0.45891116631E+01 -0.19348321229E+03  0.24582818685E+03  0.12509000000E+03 0.  0.
         25    1    4    4    0    0  0.16454340494E+02 -0.72269924709E+01 -0.98107611237E+02  0.15998620636E+03  0.12509000000E+03 0.  0.
         25    1    3    3    0    0 -0.10205326552E+03  0.26378808078E+01 -0.30253908714E+03  0.34292744826E+03  0.12509000000E+03 0.  0.
<mgrwt>
<rscale>  2 0.45565776E+03</rscale>
<asrwt>0</asrwt>
<pdfrwt beam="1">  1       21 0.11368525E-01 0.45565776E+03</pdfrwt>
<pdfrwt beam="2">  1       21 0.98740565E-01 0.45565776E+03</pdfrwt>
<totfact> 0.50075810E+04</totfact>
</mgrwt>
</event>
<event>
 7    0  0.4714446E-002  0.4527187E+03  0.7546771E-02  0.1026914E+00
         21   -1    0    0  502  501  0.00000000000E+00  0.00000000000E+00  0.61315891660E+02  0.61315891660E+02  0.00000000000E+00 0.  1.
         21   -1    0    0  501  502 -0.00000000000E+00 -0.00000000000E+00 -0.83564896827E+03  0.83564896827E+03  0.00000000000E+00 0.  1.
      99926    2    1    2    0    0  0.00000000000E+00  0.00000000000E+00 -0.77433307661E+03  0.89696485993E+03  0.45271872771E+03 0.  0.
      99925    2    3    3    0    0 -0.87903306981E+02  0.59185270957E+02 -0.42325646412E+03  0.50949591458E+03  0.26307824858E+03 0.  0.
         25    1    4    4    0    0 -0.59873147551E+02  0.55572027606E+02 -0.17520877642E+03  0.23025782828E+03  0.12509000000E+03 0.  0.
         25    1    4    4    0    0 -0.28030159430E+02  0.36132433517E+01 -0.24804768770E+03  0.27923808630E+03  0.12509000000E+03 0.  0.
         25    1    3    3    0    0  0.87903306981E+02 -0.59185270957E+02 -0.35107661249E+03  0.38746894535E+03  0.12509000000E+03 0.  0.
<mgrwt>
<rscale>  2 0.45271873E+03</rscale>
<asrwt>0</asrwt>
<pdfrwt beam="1">  1       21 0.90170433E-02 0.45271873E+03</pdfrwt>
<pdfrwt beam="2">  1       21 0.12288955E+00 0.45271873E+03</pdfrwt>
<totfact> 0.44148482E+04</totfact>
</mgrwt>
</event>
<event>
 7    0  0.4714446E-002  0.4532485E+03  0.7546771E-02  0.1026758E+00
         21   -1    0    0  502  501  0.00000000000E+00  0.00000000000E+00  0.12938943528E+04  0.12938943528E+04  0.00000000000E+00 0. -1.
         21   -1    0    0  501  502 -0.00000000000E+00 -0.00000000000E+00 -0.39692994712E+02  0.39692994712E+02  0.00000000000E+00 0. -1.
      99926    2    1    2    0    0 -0.71054273576E-14  0.00000000000E+00  0.12542013581E+04  0.13335873476E+04  0.45324846036E+03 0.  0.
      99925    2    3    3    0    0  0.51514663490E+02 -0.75442245854E+02  0.60158455761E+03  0.66284038377E+03  0.26288419766E+03 0.  0.
         25    1    3    3    0    0 -0.51514663490E+02  0.75442245854E+02  0.65261680051E+03  0.67074696378E+03  0.12509000000E+03 0.  0.
         25    1    4    4    0    0  0.51948732624E+02 -0.70188678059E+02  0.35101752077E+03  0.38273480288E+03  0.12509000000E+03 0.  0.
         25    1    4    4    0    0 -0.43406913456E+00 -0.52535677947E+01  0.25056703685E+03  0.28010558089E+03  0.12509000000E+03 0.  0.
<mgrwt>
<rscale>  2 0.45324846E+03</rscale>
<asrwt>0</asrwt>
<pdfrwt beam="1">  1       21 0.19027855E+00 0.45324846E+03</pdfrwt>
<pdfrwt beam="2">  1       21 0.58372060E-02 0.45324846E+03</pdfrwt>
<totfact> 0.28541418E+04</totfact>
</mgrwt>
</event>
<event>
 7    0  0.4714446E-002  0.4573447E+03  0.7546771E-02  0.1025554E+00
         21   -1    0    0  502  501  0.00000000000E+00  0.00000000000E+00  0.57232516324E+03  0.57232516324E+03  0.00000000000E+00 0. -1.
         21   -1    0    0  501  502 -0.00000000000E+00 -0.00000000000E+00 -0.91365986595E+02  0.91365986595E+02  0.00000000000E+00 0. -1.
      99926    2    1    2    0    0  0.71054273576E-14  0.00000000000E+00  0.48095917664E+03  0.66369114983E+03  0.45734474171E+03 0.  0.
      99925    2    3    3    0    0 -0.39703440993E+02  0.80080293765E+02  0.40791324596E+03  0.49347824560E+03  0.26294171593E+03 0.  0.
         25    1    4    4    0    0 -0.21449576987E+02  0.35508548954E+01  0.15290188623E+03  0.19874402591E+03  0.12509000000E+03 0.  0.
         25    1    3    3    0    0  0.39703440993E+02 -0.80080293765E+02  0.73045930679E+02  0.17021290423E+03  0.12509000000E+03 0.  0.
         25    1    4    4    0    0 -0.18253864006E+02  0.76529438870E+02  0.25501135973E+03  0.29473421969E+03  0.12509000000E+03 0.  0.
<mgrwt>
<rscale>  2 0.45734474E+03</rscale>
<asrwt>0</asrwt>
<pdfrwt beam="1">  1       21 0.84165463E-01 0.45734474E+03</pdfrwt>
<pdfrwt beam="2">  1       21 0.13436175E-01 0.45734474E+03</pdfrwt>
<totfact> 0.53915035E+04</totfact>
</mgrwt>
</event>
<event>
 7    0  0.4714446E-002  0.4529664E+03  0.7546771E-02  0.1026841E+00
         21   -1    0    0  502  501  0.00000000000E+00  0.00000000000E+00  0.76437951824E+02  0.76437951824E+02  0.00000000000E+00 0.  1.
         21   -1    0    0  501  502 -0.00000000000E+00 -0.00000000000E+00 -0.67106260251E+03  0.67106260251E+03  0.00000000000E+00 0.  1.
      99926    2    1    2    0    0  0.00000000000E+00  0.35527136788E-14 -0.59462465069E+03  0.74750055434E+03  0.45296644857E+03 0.  0.
      99925    2    3    3    0    0 -0.68099635824E+02 -0.16451557938E+02 -0.51743488810E+03  0.58466940957E+03  0.26304227969E+03 0.  0.
         25    1    3    3    0    0  0.68099635824E+02  0.16451557938E+02 -0.77189762585E+02  0.16283114477E+03  0.12509000000E+03 0.  0.
         25    1    4    4    0    0 -0.20165904046E+02 -0.25172198999E+02 -0.18039504435E+03  0.22187875836E+03  0.12509000000E+03 0.  0.
         25    1    4    4    0    0 -0.47933731777E+02  0.87206410618E+01 -0.33703984376E+03  0.36279065121E+03  0.12509000000E+03 0.  0.
<mgrwt>
<rscale>  2 0.45296645E+03</rscale>
<asrwt>0</asrwt>
<pdfrwt beam="1">  1       21 0.11240875E-01 0.45296645E+03</pdfrwt>
<pdfrwt beam="2">  1       21 0.98685676E-01 0.45296645E+03</pdfrwt>
<totfact> 0.51212357E+04</totfact>
</mgrwt>
</event>
<event>
 7    0  0.4714446E-002  0.4128439E+03  0.7546771E-02  0.1039421E+00
         21   -1    0    0  502  501  0.00000000000E+00  0.00000000000E+00  0.42912181887E+03  0.42912181887E+03  0.00000000000E+00 0.  1.
         21   -1    0    0  501  502 -0.00000000000E+00 -0.00000000000E+00 -0.99295858295E+02  0.99295858295E+02  0.00000000000E+00 0.  1.
      99926    2    1    2    0    0 -0.71054273576E-14  0.71054273576E-14  0.32982596057E+03  0.52841767716E+03  0.41284388971E+03 0.  0.
      99925    2    3    3    0    0  0.34946217436E+02 -0.35718773082E+02  0.27262315151E+03  0.38207308954E+03  0.26298173728E+03 0.  0.
         25    1    4    4    0    0  0.18995615504E+02 -0.43248421885E+02  0.94642161840E+02  0.16381668505E+03  0.12509000000E+03 0.  0.
         25    1    4    4    0    0  0.15950601932E+02  0.75296488026E+01  0.17798098967E+03  0.21825640448E+03  0.12509000000E+03 0.  0.
         25    1    3    3    0    0 -0.34946217436E+02  0.35718773082E+02  0.57202809061E+02  0.14634458763E+03  0.12509000000E+03 0.  0.
<mgrwt>
<rscale>  2 0.41284389E+03</rscale>
<asrwt>0</asrwt>
<pdfrwt beam="1">  1       21 0.63106149E-01 0.41284389E+03</pdfrwt>
<pdfrwt beam="2">  1       21 0.14602332E-01 0.41284389E+03</pdfrwt>
<totfact> 0.89711123E+04</totfact>
</mgrwt>
</event>
<event>
 7    0  0.4714446E-002  0.4445525E+03  0.7546771E-02  0.1029359E+00
         21   -1    0    0  502  501  0.00000000000E+00  0.00000000000E+00  0.14256297860E+03  0.14256297860E+03  0.00000000000E+00 0. -1.
         21   -1    0    0  501  502 -0.00000000000E+00 -0.00000000000E+00 -0.34656067779E+03  0.34656067779E+03  0.00000000000E+00 0. -1.
      99926    2    1    2    0    0  0.00000000000E+00  0.00000000000E+00 -0.20399769919E+03  0.48912365638E+03  0.44455246030E+03 0.  0.
      99925    2    3    3    0    0 -0.39205692028E+02  0.81351144133E+02 -0.75194410614E+02  0.28814383106E+03  0.26309232800E+03 0.  0.
         25    1    4    4    0    0  0.19724726172E+02  0.35335866775E+02 -0.23766394859E+02  0.13360403410E+03  0.12509000000E+03 0.  0.
         25    1    4    4    0    0 -0.58930418200E+02  0.46015277358E+02 -0.51428015755E+02  0.15453979696E+03  0.12509000000E+03 0.  0.
         25    1    3    3    0    0  0.39205692028E+02 -0.81351144133E+02 -0.12880328858E+03  0.20097982532E+03  0.12509000000E+03 0.  0.
<mgrwt>
<rscale>  2 0.44455246E+03</rscale>
<asrwt>0</asrwt>
<pdfrwt beam="1">  1       21 0.20965144E-01 0.44455246E+03</pdfrwt>
<pdfrwt beam="2">  1       21 0.50964804E-01 0.44455246E+03</pdfrwt>
<totfact> 0.71815671E+04</totfact>
</mgrwt>
</event>
<event>
 7    0  0.4714446E-002  0.4552276E+03  0.7546771E-02  0.1026174E+00
         21   -1    0    0  502  501  0.00000000000E+00  0.00000000000E+00  0.76502268719E+03  0.76502268719E+03  0.00000000000E+00 0.  1.
         21   -1    0    0  501  502 -0.00000000000E+00 -0.00000000000E+00 -0.67720921151E+02  0.67720921151E+02  0.00000000000E+00 0.  1.
      99926    2    1    2    0    0 -0.71054273576E-14  0.88817841970E-15  0.69730176604E+03  0.83274360834E+03  0.45522759617E+03 0.  0.
      99925    2    3    3    0    0  0.47207677025E+02 -0.52772649464E+01  0.25039100010E+03  0.36623192027E+03  0.26300903444E+03 0.  0.
         25    1    4    4    0    0  0.52747794733E+02  0.24037356557E+02  0.14365322032E+03  0.19910770996E+03  0.12509000000E+03 0.  0.
         25    1    4    4    0    0 -0.55401177086E+01 -0.29314621503E+02  0.10673777979E+03  0.16712421031E+03  0.12509000000E+03 0.  0.
         25    1    3    3    0    0 -0.47207677025E+02  0.52772649464E+01  0.44691076594E+03  0.46651168807E+03  0.12509000000E+03 0.  0.
<mgrwt>
<rscale>  2 0.45522760E+03</rscale>
<asrwt>0</asrwt>
<pdfrwt beam="1">  1       21 0.11250333E+00 0.45522760E+03</pdfrwt>
<pdfrwt beam="2">  1       21 0.99589595E-02 0.45522760E+03</pdfrwt>
<totfact> 0.46139015E+04</totfact>
</mgrwt>
</event>
<event>
 7    0  0.4714446E-002  0.4480681E+03  0.7546771E-02  0.1028300E+00
         21   -1    0    0  502  501  0.00000000000E+00  0.00000000000E+00  0.12853833593E+03  0.12853833593E+03  0.00000000000E+00 0. -1.
         21   -1    0    0  501  502 -0.00000000000E+00 -0.00000000000E+00 -0.39047687365E+03  0.39047687365E+03  0.00000000000E+00 0. -1.
      99926    2    1    2    0    0  0.00000000000E+00  0.00000000000E+00 -0.26193853773E+03  0.51901520958E+03  0.44806806428E+03 0.  0.
      99925    2    3    3    0    0  0.97237319517E+02  0.43225010389E+02 -0.15956881222E+03  0.32549372077E+03  0.26298376110E+03 0.  0.
         25    1    3    3    0    0 -0.97237319517E+02 -0.43225010389E+02 -0.10236972551E+03  0.19352148881E+03  0.12509000000E+03 0.  0.
         25    1    4    4    0    0  0.62649910503E+02  0.24200668996E+02 -0.38780213136E+02  0.14718049020E+03  0.12509000000E+03 0.  0.
         25    1    4    4    0    0  0.34587409014E+02  0.19024341393E+02 -0.12078859908E+03  0.17831323057E+03  0.12509000000E+03 0.  0.
<mgrwt>
<rscale>  2 0.44806806E+03</rscale>
<asrwt>0</asrwt>
<pdfrwt beam="1">  1       21 0.18902696E-01 0.44806806E+03</pdfrwt>
<pdfrwt beam="2">  1       21 0.57423070E-01 0.44806806E+03</pdfrwt>
<totfact> 0.67595195E+04</totfact>
</mgrwt>
</event>
<event>
 7    0  0.4714446E-002  0.4654516E+03  0.7546771E-02  0.1023212E+00
         21   -1    0    0  502  501  0.00000000000E+00  0.00000000000E+00  0.29178404088E+02  0.29178404088E+02  0.00000000000E+00 0. -1.
         21   -1    0    0  501  502 -0.00000000000E+00 -0.00000000000E+00 -0.18562117078E+04  0.18562117078E+04  0.00000000000E+00 0. -1.
      99926    2    1    2    0    0  0.00000000000E+00  0.00000000000E+00 -0.18270333037E+04  0.18853901119E+04  0.46545158839E+03 0.  0.
      99925    2    3    3    0    0 -0.50082502215E+02 -0.64174349094E+02 -0.76695656424E+03  0.81485902603E+03  0.26295675836E+03 0.  0.
         25    1    4    4    0    0 -0.63900202989E+01 -0.31527693628E+02 -0.48052782062E+03  0.49758348276E+03  0.12509000000E+03 0.  0.
         25    1    3    3    0    0  0.50082502215E+02  0.64174349094E+02 -0.10600767394E+04  0.10705310858E+04  0.12509000000E+03 0.  0.
         25    1    4    4    0    0 -0.43692481916E+02 -0.32646655466E+02 -0.28642874362E+03  0.31727554328E+03  0.12509000000E+03 0.  0.
<mgrwt>
<rscale>  2 0.46545159E+03</rscale>
<asrwt>0</asrwt>
<pdfrwt beam="1">  1       21 0.42909417E-02 0.46545159E+03</pdfrwt>
<pdfrwt beam="2">  1       21 0.27297231E+00 0.46545159E+03</pdfrwt>
<totfact> 0.14463293E+04</totfact>
</mgrwt>
</event>
<event>
 7    0  0.4714446E-002  0.4699711E+03  0.7546771E-02  0.1021928E+00
         21   -1    0    0  502  501  0.00000000000E+00  0.00000000000E+00  0.36910310394E+03  0.36910310394E+03  0.00000000000E+00 0.  1.
         21   -1    0    0  501  502 -0.00000000000E+00 -0.00000000000E+00 -0.14960101025E+03  0.14960101025E+03  0.00000000000E+00 0.  1.
      99926    2    1    2    0    0  0.14210854715E-13  0.00000000000E+00  0.21950209369E+03  0.51870411420E+03  0.46997105118E+03 0.  0.
      99925    2    3    3    0    0  0.97797723112E+02  0.36325264015E+02  0.57862247046E+02  0.28922891385E+03  0.26347942144E+03 0.  0.
         25    1    4    4    0    0  0.65396429350E+01  0.10812463899E+02  0.36044119007E+02  0.13079129528E+03  0.12509000000E+03 0.  0.
         25    1    3    3    0    0 -0.97797723112E+02 -0.36325264015E+02  0.16163984664E+03  0.22947520035E+03  0.12509000000E+03 0.  0.
         25    1    4    4    0    0  0.91258080177E+02  0.25512800116E+02  0.21818128040E+02  0.15843761857E+03  0.12509000000E+03 0.  0.
<mgrwt>
<rscale>  2 0.46997105E+03</rscale>
<asrwt>0</asrwt>
<pdfrwt beam="1">  1       21 0.54279868E-01 0.46997105E+03</pdfrwt>
<pdfrwt beam="2">  1       21 0.22000149E-01 0.46997105E+03</pdfrwt>
<totfact> 0.56907684E+04</totfact>
</mgrwt>
</event>
<event>
 7    0  0.4714446E-002  0.4559552E+03  0.7546771E-02  0.1025961E+00
         21   -1    0    0  502  501  0.00000000000E+00  0.00000000000E+00  0.36911228340E+03  0.36911228340E+03  0.00000000000E+00 0.  1.
         21   -1    0    0  501  502 -0.00000000000E+00 -0.00000000000E+00 -0.14080750134E+03  0.14080750134E+03  0.00000000000E+00 0.  1.
      99926    2    1    2    0    0 -0.14210854715E-13  0.35527136788E-14  0.22830478205E+03  0.50991978474E+03  0.45595516595E+03 0.  0.
      99925    2    3    3    0    0 -0.84296777948E+02  0.29175443990E+02  0.22324928896E+03  0.35619854543E+03  0.26283075436E+03 0.  0.
         25    1    3    3    0    0  0.84296777948E+02 -0.29175443990E+02  0.50554930916E+01  0.15372123931E+03  0.12509000000E+03 0.  0.
         25    1    4    4    0    0 -0.50048503245E+02  0.10509340847E+02  0.62728047779E+02  0.14898864051E+03  0.12509000000E+03 0.  0.
         25    1    4    4    0    0 -0.34248274703E+02  0.18666103143E+02  0.16052124118E+03  0.20720990492E+03  0.12509000000E+03 0.  0.
<mgrwt>
<rscale>  2 0.45595517E+03</rscale>
<asrwt>0</asrwt>
<pdfrwt beam="1">  1       21 0.54281218E-01 0.45595517E+03</pdfrwt>
<pdfrwt beam="2">  1       21 0.20706986E-01 0.45595517E+03</pdfrwt>
<totfact> 0.64091998E+04</totfact>
</mgrwt>
</event>
<event>
 7    0  0.4714446E-002  0.4729395E+03  0.7546771E-02  0.1021094E+00
         21   -1    0    0  502  501  0.00000000000E+00  0.00000000000E+00  0.26116642415E+02  0.26116642415E+02  0.00000000000E+00 0.  1.
         21   -1    0    0  501  502 -0.00000000000E+00 -0.00000000000E+00 -0.21410843484E+04  0.21410843484E+04  0.00000000000E+00 0.  1.
      99926    2    1    2    0    0  0.00000000000E+00 -0.35527136788E-14 -0.21149677060E+04  0.21672009908E+04  0.47293946465E+03 0.  0.
      99925    2    3    3    0    0  0.12354922006E+03 -0.28158443056E+02 -0.11931672378E+04  0.12283607920E+04  0.26299214862E+03 0.  0.
         25    1    4    4    0    0  0.74513685893E+02 -0.52962260052E+02 -0.66461295579E+03  0.68243327841E+03  0.12509000000E+03 0.  0.
         25    1    4    4    0    0  0.49035534164E+02  0.24803816997E+02 -0.52855428202E+03  0.54592751359E+03  0.12509000000E+03 0.  0.
         25    1    3    3    0    0 -0.12354922006E+03  0.28158443056E+02 -0.92180046814E+03  0.93884019878E+03  0.12509000000E+03 0.  0.
<mgrwt>
<rscale>  2 0.47293946E+03</rscale>
<asrwt>0</asrwt>
<pdfrwt beam="1">  1       21 0.38406812E-02 0.47293946E+03</pdfrwt>
<pdfrwt beam="2">  1       21 0.31486547E+00 0.47293946E+03</pdfrwt>
<totfact> 0.97381492E+03</totfact>
</mgrwt>
</event>
<event>
 7    0  0.4714446E-002  0.4522034E+03  0.7546771E-02  0.1027067E+00
         21   -1    0    0  502  501  0.00000000000E+00  0.00000000000E+00  0.10821450441E+03  0.10821450441E+03  0.00000000000E+00 0.  1.
         21   -1    0    0  501  502 -0.00000000000E+00 -0.00000000000E+00 -0.47241345341E+03  0.47241345341E+03  0.00000000000E+00 0.  1.
      99926    2    1    2    0    0  0.14210854715E-13 -0.71054273576E-14 -0.36419894900E+03  0.58062795782E+03  0.45220343978E+03 0.  0.
      99925    2    3    3    0    0  0.88359140960E+02 -0.55622342135E+02 -0.27647464888E+03  0.39557595522E+03  0.26294661461E+03 0.  0.
         25    1    3    3    0    0 -0.88359140960E+02  0.55622342135E+02 -0.87724300125E+02  0.18505200261E+03  0.12509000000E+03 0.  0.
         25    1    4    4    0    0  0.46226827643E+02 -0.49372111663E+02 -0.19128728199E+03  0.23835447837E+03  0.12509000000E+03 0.  0.
         25    1    4    4    0    0  0.42132313317E+02 -0.62502304716E+01 -0.85187366882E+02  0.15722147685E+03  0.12509000000E+03 0.  0.
<mgrwt>
<rscale>  2 0.45220344E+03</rscale>
<asrwt>0</asrwt>
<pdfrwt beam="1">  1       21 0.15913898E-01 0.45220344E+03</pdfrwt>
<pdfrwt beam="2">  1       21 0.69472567E-01 0.45220344E+03</pdfrwt>
<totfact> 0.61229279E+04</totfact>
</mgrwt>
</event>
<event>
 7    0  0.4714446E-002  0.4420163E+03  0.7546771E-02  0.1030130E+00
         21   -1    0    0  502  501  0.00000000000E+00  0.00000000000E+00  0.25656010012E+03  0.25656010012E+03  0.00000000000E+00 0.  1.
         21   -1    0    0  501  502 -0.00000000000E+00 -0.00000000000E+00 -0.19038272118E+03  0.19038272118E+03  0.00000000000E+00 0.  1.
      99926    2    1    2    0    0  0.00000000000E+00 -0.71054273576E-14  0.66177378941E+02  0.44694282130E+03  0.44201633457E+03 0.  0.
      99925    2    3    3    0    0  0.61661653848E+01 -0.35177008924E+02 -0.52796254490E+02  0.27065420254E+03  0.26304145930E+03 0.  0.
         25    1    4    4    0    0 -0.91949919023E+01 -0.35424245551E+02  0.82962044975E+01  0.13059770349E+03  0.12509000000E+03 0.  0.
         25    1    3    3    0    0 -0.61661653848E+01  0.35177008924E+02  0.11897363343E+03  0.17628861876E+03  0.12509000000E+03 0.  0.
         25    1    4    4    0    0  0.15361157287E+02  0.24723662673E+00 -0.61092458988E+02  0.14005649904E+03  0.12509000000E+03 0.  0.
<mgrwt>
<rscale>  2 0.44201633E+03</rscale>
<asrwt>0</asrwt>
<pdfrwt beam="1">  1       21 0.37729427E-01 0.44201633E+03</pdfrwt>
<pdfrwt beam="2">  1       21 0.27997459E-01 0.44201633E+03</pdfrwt>
<totfact> 0.76791011E+04</totfact>
</mgrwt>
</event>
<event>
 7    0  0.4714446E-002  0.4424685E+03  0.7546771E-02  0.1029992E+00
         21   -1    0    0  502  501  0.00000000000E+00  0.00000000000E+00  0.33135386940E+03  0.33135386940E+03  0.00000000000E+00 0. -1.
         21   -1    0    0  501  502 -0.00000000000E+00 -0.00000000000E+00 -0.14771094129E+03  0.14771094129E+03  0.00000000000E+00 0. -1.
      99926    2    1    2    0    0 -0.71054273576E-14 -0.35527136788E-14  0.18364292811E+03  0.47906481069E+03  0.44246849357E+03 0.  0.
      99925    2    3    3    0    0  0.60296283649E+02  0.17439962528E+02  0.31190511272E+02  0.27211302497E+03  0.26293127667E+03 0.  0.
         25    1    3    3    0    0 -0.60296283649E+02 -0.17439962528E+02  0.15245241684E+03  0.20695178572E+03  0.12509000000E+03 0.  0.
         25    1    4    4    0    0  0.24969046970E+01  0.23594035438E+02 -0.11197579669E+02  0.12781160719E+03  0.12509000000E+03 0.  0.
         25    1    4    4    0    0  0.57799378952E+02 -0.61540729100E+01  0.42388090941E+02  0.14430141778E+03  0.12509000000E+03 0.  0.
<mgrwt>
<rscale>  2 0.44246849E+03</rscale>
<asrwt>0</asrwt>
<pdfrwt beam="1">  1       21 0.48728510E-01 0.44246849E+03</pdfrwt>
<pdfrwt beam="2">  1       21 0.21722197E-01 0.44246849E+03</pdfrwt>
<totfact> 0.73845473E+04</totfact>
</mgrwt>
</event>
<event>
 7    0  0.4714446E-002  0.4291104E+03  0.7546771E-02  0.1034141E+00
         21   -1    0    0  502  501  0.00000000000E+00  0.00000000000E+00  0.13518084813E+04  0.13518084813E+04  0.00000000000E+00 0. -1.
         21   -1    0    0  501  502 -0.00000000000E+00 -0.00000000000E+00 -0.34053589586E+02  0.34053589586E+02  0.00000000000E+00 0. -1.
      99926    2    1    2    0    0  0.00000000000E+00  0.00000000000E+00  0.13177548917E+04  0.13858620709E+04  0.42911038776E+03 0.  0.
      99925    2    3    3    0    0  0.72580241800E+02 -0.22770921085E+02  0.98511829586E+03  0.10224325463E+04  0.26291414669E+03 0.  0.
         25    1    4    4    0    0  0.77721206009E+01 -0.35799893097E+02  0.41303117883E+03  0.43311003335E+03  0.12509000000E+03 0.  0.
         25    1    4    4    0    0  0.64808121200E+02  0.13028972011E+02  0.57208711703E+03  0.58932251294E+03  0.12509000000E+03 0.  0.
         25    1    3    3    0    0 -0.72580241800E+02  0.22770921085E+02  0.33263659587E+03  0.36342952461E+03  0.12509000000E+03 0.  0.
<mgrwt>
<rscale>  2 0.42911039E+03</rscale>
<asrwt>0</asrwt>
<pdfrwt beam="1">  1       21 0.19879533E+00 0.42911039E+03</pdfrwt>
<pdfrwt beam="2">  1       21 0.50078817E-02 0.42911039E+03</pdfrwt>
<totfact> 0.32838323E+04</totfact>
</mgrwt>
</event>
<event>
 7    0  0.4714446E-002  0.4502843E+03  0.7546771E-02  0.1027637E+00
         21   -1    0    0  502  501  0.00000000000E+00  0.00000000000E+00  0.90146771165E+03  0.90146771165E+03  0.00000000000E+00 0.  1.
         21   -1    0    0  501  502 -0.00000000000E+00 -0.00000000000E+00 -0.56229387796E+02  0.56229387796E+02  0.00000000000E+00 0.  1.
      99926    2    1    2    0    0  0.71054273576E-14  0.00000000000E+00  0.84523832385E+03  0.95769709945E+03  0.45028425486E+03 0.  0.
      99925    2    3    3    0    0 -0.46584465342E+02  0.91320935159E+02  0.45797511370E+03  0.53801873731E+03  0.26308426657E+03 0.  0.
         25    1    4    4    0    0 -0.46916906033E+02  0.11995138025E+02  0.21072241143E+03  0.24979295864E+03  0.12509000000E+03 0.  0.
         25    1    4    4    0    0  0.33244069134E+00  0.79325797134E+02  0.24725270227E+03  0.28822577867E+03  0.12509000000E+03 0.  0.
         25    1    3    3    0    0  0.46584465342E+02 -0.91320935159E+02  0.38726321015E+03  0.41967836214E+03  0.12509000000E+03 0.  0.
<mgrwt>
<rscale>  2 0.45028425E+03</rscale>
<asrwt>0</asrwt>
<pdfrwt beam="1">  1       21 0.13256877E+00 0.45028425E+03</pdfrwt>
<pdfrwt beam="2">  1       21 0.82690282E-02 0.45028425E+03</pdfrwt>
<totfact> 0.42371623E+04</totfact>
</mgrwt>
</event>
<event>
 7    0  0.4714446E-002  0.4509764E+03  0.7546771E-02  0.1027431E+00
         21   -1    0    0  502  501  0.00000000000E+00  0.00000000000E+00  0.22626490903E+03  0.22626490903E+03  0.00000000000E+00 0.  1.
         21   -1    0    0  501  502 -0.00000000000E+00 -0.00000000000E+00 -0.22471417218E+03  0.22471417218E+03  0.00000000000E+00 0.  1.
      99926    2    1    2    0    0  0.00000000000E+00  0.00000000000E+00  0.15507368446E+01  0.45097908121E+03  0.45097641502E+03 0.  0.
      99925    2    3    3    0    0 -0.18554082548E+02 -0.91260437823E+02  0.58143198271E+02  0.28507870062E+03  0.26309031254E+03 0.  0.
         25    1    4    4    0    0 -0.27747647155E+02 -0.32986531116E+02  0.63316681378E+02  0.14667840127E+03  0.12509000000E+03 0.  0.
         25    1    4    4    0    0  0.91935646080E+01 -0.58273906707E+02 -0.51734831071E+01  0.13840029935E+03  0.12509000000E+03 0.  0.
         25    1    3    3    0    0  0.18554082548E+02  0.91260437823E+02 -0.56592461426E+02  0.16590038059E+03  0.12509000000E+03 0.  0.
<mgrwt>
<rscale>  2 0.45097642E+03</rscale>
<asrwt>0</asrwt>
<pdfrwt beam="1">  1       21 0.33274252E-01 0.45097642E+03</pdfrwt>
<pdfrwt beam="2">  1       21 0.33046201E-01 0.45097642E+03</pdfrwt>
<totfact> 0.71096586E+04</totfact>
</mgrwt>
</event>
<event>
 7    0  0.4714446E-002  0.4553700E+03  0.7546771E-02  0.1026133E+00
         21   -1    0    0  502  501  0.00000000000E+00  0.00000000000E+00  0.53094607214E+03  0.53094607214E+03  0.00000000000E+00 0. -1.
         21   -1    0    0  501  502 -0.00000000000E+00 -0.00000000000E+00 -0.97637882739E+02  0.97637882739E+02  0.00000000000E+00 0. -1.
      99926    2    1    2    0    0  0.00000000000E+00  0.00000000000E+00  0.43330818940E+03  0.62858395488E+03  0.45536996094E+03 0.  0.
      99925    2    3    3    0    0  0.72687220928E+01 -0.11158391310E+03  0.29890426756E+03  0.41360552273E+03  0.26310067138E+03 0.  0.
         25    1    3    3    0    0 -0.72687220928E+01  0.11158391310E+03  0.13440392184E+03  0.21497843215E+03  0.12509000000E+03 0.  0.
         25    1    4    4    0    0  0.30810181199E+02 -0.36409617361E+02  0.17743796733E+03  0.22227610725E+03  0.12509000000E+03 0.  0.
         25    1    4    4    0    0 -0.23541459106E+02 -0.75174295741E+02  0.12146630023E+03  0.19132941548E+03  0.12509000000E+03 0.  0.
<mgrwt>
<rscale>  2 0.45536996E+03</rscale>
<asrwt>0</asrwt>
<pdfrwt beam="1">  1       21 0.78080304E-01 0.45536996E+03</pdfrwt>
<pdfrwt beam="2">  1       21 0.14358512E-01 0.45536996E+03</pdfrwt>
<totfact> 0.56786425E+04</totfact>
</mgrwt>
</event>
<event>
 7    0  0.4714446E-002  0.4512834E+03  0.7546771E-02  0.1027340E+00
         21   -1    0    0  502  501  0.00000000000E+00  0.00000000000E+00  0.21370941338E+03  0.21370941338E+03  0.00000000000E+00 0.  1.
         21   -1    0    0  501  502 -0.00000000000E+00 -0.00000000000E+00 -0.23824020616E+03  0.23824020616E+03  0.00000000000E+00 0.  1.
      99926    2    1    2    0    0  0.00000000000E+00  0.00000000000E+00 -0.24530792780E+02  0.45194961955E+03  0.45128339080E+03 0.  0.
      99925    2    3    3    0    0 -0.37296883054E+02  0.96867840274E+02  0.19989803245E+02  0.28341467500E+03  0.26296359026E+03 0.  0.
         25    1    3    3    0    0  0.37296883054E+02 -0.96867840274E+02 -0.44520596025E+02  0.16853494455E+03  0.12509000000E+03 0.  0.
         25    1    4    4    0    0 -0.15816373654E+02  0.87556140047E+02  0.27425581931E+02  0.15593558279E+03  0.12509000000E+03 0.  0.
         25    1    4    4    0    0 -0.21480509400E+02  0.93117002261E+01 -0.74357786864E+01  0.12747909221E+03  0.12509000000E+03 0.  0.
<mgrwt>
<rscale>  2 0.45128339E+03</rscale>
<asrwt>0</asrwt>
<pdfrwt beam="1">  1       21 0.31427855E-01 0.45128339E+03</pdfrwt>
<pdfrwt beam="2">  1       21 0.35035324E-01 0.45128339E+03</pdfrwt>
<totfact> 0.70847609E+04</totfact>
</mgrwt>
</event>
<event>
 7    0  0.4714446E-002  0.4562429E+03  0.7546771E-02  0.1025877E+00
         21   -1    0    0  502  501  0.00000000000E+00  0.00000000000E+00  0.61033782911E+03  0.61033782911E+03  0.00000000000E+00 0. -1.
         21   -1    0    0  501  502 -0.00000000000E+00 -0.00000000000E+00 -0.85263274543E+02  0.85263274543E+02  0.00000000000E+00 0. -1.
      99926    2    1    2    0    0  0.00000000000E+00  0.71054273576E-14  0.52507455456E+03  0.69560110365E+03  0.45624292603E+03 0.  0.
      99925    2    3    3    0    0 -0.14105823886E+02  0.45601446160E+02  0.48843193904E+03  0.55678952080E+03  0.26300255748E+03 0.  0.
         25    1    4    4    0    0  0.19284110784E+02  0.48904763883E+02  0.21499543709E+03  0.25423237192E+03  0.12509000000E+03 0.  0.
         25    1    3    3    0    0  0.14105823886E+02 -0.45601446160E+02  0.36642615519E+02  0.13881158284E+03  0.12509000000E+03 0.  0.
         25    1    4    4    0    0 -0.33389934670E+02 -0.33033177232E+01  0.27343650195E+03  0.30255714889E+03  0.12509000000E+03 0.  0.
<mgrwt>
<rscale>  2 0.45624293E+03</rscale>
<asrwt>0</asrwt>
<pdfrwt beam="1">  1       21 0.89755561E-01 0.45624293E+03</pdfrwt>
<pdfrwt beam="2">  1       21 0.12538717E-01 0.45624293E+03</pdfrwt>
<totfact> 0.52625746E+04</totfact>
</mgrwt>
</event>
<event>
 7    0  0.4714446E-002  0.4531278E+03  0.7546771E-02  0.1026793E+00
         21   -1    0    0  502  501  0.00000000000E+00  0.00000000000E+00  0.29076189486E+03  0.29076189486E+03  0.00000000000E+00 0. -1.
         21   -1    0    0  501  502 -0.00000000000E+00 -0.00000000000E+00 -0.17654035055E+03  0.17654035055E+03  0.00000000000E+00 0. -1.
      99926    2    1    2    0    0 -0.44408920985E-15 -0.17763568394E-14  0.11422154430E+03  0.46730224541E+03  0.45312782676E+03 0.  0.
      99925    2    3    3    0    0  0.23641097875E+01 -0.12474926209E+02  0.18600506441E+03  0.32252104961E+03  0.26317433510E+03 0.  0.
         25    1    4    4    0    0 -0.17636749222E+02 -0.42507355740E+02  0.93302696740E+02  0.16269859106E+03  0.12509000000E+03 0.  0.
         25    1    4    4    0    0  0.20000859010E+02  0.30032429531E+02  0.92702367669E+02  0.15982245855E+03  0.12509000000E+03 0.  0.
         25    1    3    3    0    0 -0.23641097875E+01  0.12474926209E+02 -0.71783520105E+02  0.14478119580E+03  0.12509000000E+03 0.  0.
<mgrwt>
<rscale>  2 0.45312783E+03</rscale>
<asrwt>0</asrwt>
<pdfrwt beam="1">  1       21 0.42759103E-01 0.45312783E+03</pdfrwt>
<pdfrwt beam="2">  1       21 0.25961816E-01 0.45312783E+03</pdfrwt>
<totfact> 0.68650835E+04</totfact>
</mgrwt>
</event>
<event>
 7    0  0.4714446E-002  0.4454807E+03  0.7546771E-02  0.1029078E+00
         21   -1    0    0  502  501  0.00000000000E+00  0.00000000000E+00  0.75051185783E+02  0.75051185783E+02  0.00000000000E+00 0. -1.
         21   -1    0    0  501  502 -0.00000000000E+00 -0.00000000000E+00 -0.66105903299E+03  0.66105903299E+03  0.00000000000E+00 0. -1.
      99926    2    1    2    0    0  0.00000000000E+00  0.00000000000E+00 -0.58600784721E+03  0.73611021878E+03  0.44548070350E+03 0.  0.
      99925    2    3    3    0    0  0.52303502489E+02  0.81348610884E+02 -0.30934578269E+03  0.41745262996E+03  0.26309434074E+03 0.  0.
         25    1    4    4    0    0  0.51835704459E+02  0.61359710555E+02 -0.20559740783E+03  0.25371195585E+03  0.12509000000E+03 0.  0.
         25    1    4    4    0    0  0.46779802999E+00  0.19988900328E+02 -0.10374837487E+03  0.16374067411E+03  0.12509000000E+03 0.  0.
         25    1    3    3    0    0 -0.52303502489E+02 -0.81348610884E+02 -0.27666206452E+03  0.31865758881E+03  0.12509000000E+03 0.  0.
<mgrwt>
<rscale>  2 0.44548070E+03</rscale>
<asrwt>0</asrwt>
<pdfrwt beam="1">  1       21 0.11036939E-01 0.44548070E+03</pdfrwt>
<pdfrwt beam="2">  1       21 0.97214568E-01 0.44548070E+03</pdfrwt>
<totfact> 0.54987148E+04</totfact>
</mgrwt>
</event>
<event>
 7    0  0.4714446E-002  0.4574486E+03  0.7546771E-02  0.1025524E+00
         21   -1    0    0  502  501  0.00000000000E+00  0.00000000000E+00  0.31287954773E+03  0.31287954773E+03  0.00000000000E+00 0. -1.
         21   -1    0    0  501  502 -0.00000000000E+00 -0.00000000000E+00 -0.16720430451E+03  0.16720430451E+03  0.00000000000E+00 0. -1.
      99926    2    1    2    0    0  0.00000000000E+00  0.00000000000E+00  0.14567524322E+03  0.48008385224E+03  0.45744860770E+03 0.  0.
      99925    2    3    3    0    0 -0.37375870596E+02 -0.54127496424E+02  0.19106540795E+03  0.33164357224E+03  0.26297286422E+03 0.  0.
         25    1    4    4    0    0 -0.24539778546E+02 -0.61684503789E+02  0.74508946029E+02  0.16001959217E+03  0.12509000000E+03 0.  0.
         25    1    4    4    0    0 -0.12836092050E+02  0.75570073645E+01  0.11655646192E+03  0.17162398007E+03  0.12509000000E+03 0.  0.
         25    1    3    3    0    0  0.37375870596E+02  0.54127496424E+02 -0.45390164729E+02  0.14844028000E+03  0.12509000000E+03 0.  0.
<mgrwt>
<rscale>  2 0.45744861E+03</rscale>
<asrwt>0</asrwt>
<pdfrwt beam="1">  1       21 0.46011698E-01 0.45744861E+03</pdfrwt>
<pdfrwt beam="2">  1       21 0.24588868E-01 0.45744861E+03</pdfrwt>
<totfact> 0.65413422E+04</totfact>
</mgrwt>
</event>
<event>
 7    0  0.4714446E-002  0.4579351E+03  0.7546771E-02  0.1025382E+00
         21   -1    0    0  502  501  0.00000000000E+00  0.00000000000E+00  0.83629534957E+03  0.83629534957E+03  0.00000000000E+00 0.  1.
         21   -1    0    0  501  502 -0.00000000000E+00 -0.00000000000E+00 -0.62688551922E+02  0.62688551922E+02  0.00000000000E+00 0.  1.
      99926    2    1    2    0    0  0.00000000000E+00  0.71054273576E-14  0.77360679765E+03  0.89898390149E+03  0.45793512398E+03 0.  0.
      99925    2    3    3    0    0  0.61116837685E+02  0.61142254720E+02  0.63722450769E+03  0.69472602459E+03  0.26289833185E+03 0.  0.
         25    1    3    3    0    0 -0.61116837685E+02 -0.61142254720E+02  0.13638228996E+03  0.20425787690E+03  0.12509000000E+03 0.  0.
         25    1    4    4    0    0  0.36763779519E+02  0.19422119343E+02  0.21985656313E+03  0.25634588090E+03  0.12509000000E+03 0.  0.
         25    1    4    4    0    0  0.24353058166E+02  0.41720135377E+02  0.41736794456E+03  0.43838014369E+03  0.12509000000E+03 0.  0.
<mgrwt>
<rscale>  2 0.45793512E+03</rscale>
<asrwt>0</asrwt>
<pdfrwt beam="1">  1       21 0.12298460E+00 0.45793512E+03</pdfrwt>
<pdfrwt beam="2">  1       21 0.92189052E-02 0.45793512E+03</pdfrwt>
<totfact> 0.42297210E+04</totfact>
</mgrwt>
</event>
<event>
 7    0  0.4714446E-002  0.4542901E+03  0.7546771E-02  0.1026450E+00
         21   -1    0    0  502  501  0.00000000000E+00  0.00000000000E+00  0.66206602925E+02  0.66206602925E+02  0.00000000000E+00 0. -1.
         21   -1    0    0  501  502 -0.00000000000E+00 -0.00000000000E+00 -0.77930096076E+03  0.77930096076E+03  0.00000000000E+00 0. -1.
      99926    2    1    2    0    0 -0.71054273576E-14  0.00000000000E+00 -0.71309435783E+03  0.84550756368E+03  0.45429008032E+03 0.  0.
      99925    2    3    3    0    0  0.38035487808E+02  0.10621717710E+03 -0.44812515837E+03  0.53152512499E+03  0.26262904236E+03 0.  0.
         25    1    4    4    0    0  0.47903344056E+02  0.41052136360E+02 -0.26924219157E+03  0.30351091264E+03  0.12509000000E+03 0.  0.
         25    1    4    4    0    0 -0.98678562487E+01  0.65165040740E+02 -0.17888296680E+03  0.22801421235E+03  0.12509000000E+03 0.  0.
         25    1    3    3    0    0 -0.38035487808E+02 -0.10621717710E+03 -0.26496919946E+03  0.31398243869E+03  0.12509000000E+03 0.  0.
<mgrwt>
<rscale>  2 0.45429008E+03</rscale>
<asrwt>0</asrwt>
<pdfrwt beam="1">  1       21 0.97362656E-02 0.45429008E+03</pdfrwt>
<pdfrwt beam="2">  1       21 0.11460308E+00 0.45429008E+03</pdfrwt>
<totfact> 0.45896088E+04</totfact>
</mgrwt>
</event>
<event>
 7    0  0.4714446E-002  0.4358883E+03  0.7546771E-02  0.1032016E+00
         21   -1    0    0  502  501  0.00000000000E+00  0.00000000000E+00  0.12217905710E+03  0.12217905710E+03  0.00000000000E+00 0.  1.
         21   -1    0    0  501  502 -0.00000000000E+00 -0.00000000000E+00 -0.38877091034E+03  0.38877091034E+03  0.00000000000E+00 0.  1.
      99926    2    1    2    0    0  0.00000000000E+00  0.00000000000E+00 -0.26659185324E+03  0.51094996744E+03  0.43588834925E+03 0.  0.
      99925    2    3    3    0    0 -0.38722910879E+02 -0.80438294995E+02 -0.13582737898E+03  0.30916632351E+03  0.26299231089E+03 0.  0.
         25    1    4    4    0    0 -0.39776952303E+01 -0.20063901267E+02 -0.27689372151E+02  0.12974047797E+03  0.12509000000E+03 0.  0.
         25    1    4    4    0    0 -0.34745215649E+02 -0.60374393728E+02 -0.10813800683E+03  0.17942584554E+03  0.12509000000E+03 0.  0.
         25    1    3    3    0    0  0.38722910879E+02  0.80438294995E+02 -0.13076447427E+03  0.20178364393E+03  0.12509000000E+03 0.  0.
<mgrwt>
<rscale>  2 0.43588835E+03</rscale>
<asrwt>0</asrwt>
<pdfrwt beam="1">  1       21 0.17967508E-01 0.43588835E+03</pdfrwt>
<pdfrwt beam="2">  1       21 0.57172193E-01 0.43588835E+03</pdfrwt>
<totfact> 0.75287425E+04</totfact>
</mgrwt>
</event>
<event>
 7    0  0.4714446E-002  0.4548275E+03  0.7546771E-02  0.1026292E+00
         21   -1    0    0  502  501  0.00000000000E+00  0.00000000000E+00  0.36688482479E+02  0.36688482479E+02  0.00000000000E+00 0. -1.
         21   -1    0    0  501  502 -0.00000000000E+00 -0.00000000000E+00 -0.14096252596E+04  0.14096252596E+04  0.00000000000E+00 0. -1.
      99926    2    1    2    0    0 -0.71054273576E-14  0.00000000000E+00 -0.13729367771E+04  0.14463137421E+04  0.45482749099E+03 0.  0.
      99925    2    3    3    0    0  0.27239278898E+02  0.99417523469E+02 -0.71703124886E+03  0.77067671498E+03  0.26302654786E+03 0.  0.
         25    1    4    4    0    0 -0.16763886269E+02  0.77135839875E+02 -0.36399732357E+03  0.39290269196E+03  0.12509000000E+03 0.  0.
         25    1    4    4    0    0  0.44003165166E+02  0.22281683594E+02 -0.35303392528E+03  0.37777402302E+03  0.12509000000E+03 0.  0.
         25    1    3    3    0    0 -0.27239278898E+02 -0.99417523469E+02 -0.65590552829E+03  0.67563702713E+03  0.12509000000E+03 0.  0.
<mgrwt>
<rscale>  2 0.45482749E+03</rscale>
<asrwt>0</asrwt>
<pdfrwt beam="1">  1       21 0.53953659E-02 0.45482749E+03</pdfrwt>
<pdfrwt beam="2">  1       21 0.20729780E+00 0.45482749E+03</pdfrwt>
<totfact> 0.25157239E+04</totfact>
</mgrwt>
</event>
<event>
 7    0  0.4714446E-002  0.4498847E+03  0.7546771E-02  0.1027756E+00
         21   -1    0    0  502  501  0.00000000000E+00  0.00000000000E+00  0.58196572895E+02  0.58196572895E+02  0.00000000000E+00 0. -1.
         21   -1    0    0  501  502 -0.00000000000E+00 -0.00000000000E+00 -0.86945079625E+03  0.86945079625E+03  0.00000000000E+00 0. -1.
      99926    2    1    2    0    0  0.35527136788E-14  0.00000000000E+00 -0.81125422335E+03  0.92764736914E+03  0.44988468141E+03 0.  0.
      99925    2    3    3    0    0  0.24723799670E+02  0.78033873677E+02 -0.36540879396E+03  0.45740678527E+03  0.26267247438E+03 0.  0.
         25    1    4    4    0    0 -0.11921495611E+02  0.49697305579E+02 -0.23366739783E+03  0.26992574006E+03  0.12509000000E+03 0.  0.
         25    1    3    3    0    0 -0.24723799670E+02 -0.78033873677E+02 -0.44584542939E+03  0.47024058387E+03  0.12509000000E+03 0.  0.
         25    1    4    4    0    0  0.36645295281E+02  0.28336568098E+02 -0.13174139613E+03  0.18748104521E+03  0.12509000000E+03 0.  0.
<mgrwt>
<rscale>  2 0.44988468E+03</rscale>
<asrwt>0</asrwt>
<pdfrwt beam="1">  1       21 0.85583209E-02 0.44988468E+03</pdfrwt>
<pdfrwt beam="2">  1       21 0.12786039E+00 0.44988468E+03</pdfrwt>
<totfact> 0.43785257E+04</totfact>
</mgrwt>
</event>
<event>
 7    0  0.4714446E-002  0.4777612E+03  0.7546771E-02  0.1019752E+00
         21   -1    0    0  502  501  0.00000000000E+00  0.00000000000E+00  0.26254035778E+03  0.26254035778E+03  0.00000000000E+00 0. -1.
         21   -1    0    0  501  502 -0.00000000000E+00 -0.00000000000E+00 -0.21735298343E+03  0.21735298343E+03  0.00000000000E+00 0. -1.
      99926    2    1    2    0    0 -0.14210854715E-13 -0.71054273576E-14  0.45187374352E+02  0.47989334121E+03  0.47776115385E+03 0.  0.
      99925    2    3    3    0    0 -0.11645947531E+03  0.50250157977E+02  0.68892282974E+02  0.30017879377E+03  0.26319816452E+03 0.  0.
         25    1    4    4    0    0 -0.32424105014E+02 -0.10578061873E+02  0.30471039810E+02  0.13318862694E+03  0.12509000000E+03 0.  0.
         25    1    3    3    0    0  0.11645947531E+03 -0.50250157977E+02 -0.23704908622E+02  0.17971454744E+03  0.12509000000E+03 0.  0.
         25    1    4    4    0    0 -0.84035370300E+02  0.60828219851E+02  0.38421243165E+02  0.16699016683E+03  0.12509000000E+03 0.  0.
<mgrwt>
<rscale>  2 0.47776115E+03</rscale>
<asrwt>0</asrwt>
<pdfrwt beam="1">  1       21 0.38608876E-01 0.47776115E+03</pdfrwt>
<pdfrwt beam="2">  1       21 0.31963674E-01 0.47776115E+03</pdfrwt>
<totfact> 0.55897328E+04</totfact>
</mgrwt>
</event>
<event>
 7    0  0.4714446E-002  0.4307763E+03  0.7546771E-02  0.1033615E+00
         21   -1    0    0  502  501  0.00000000000E+00  0.00000000000E+00  0.31391360650E+03  0.31391360650E+03  0.00000000000E+00 0. -1.
         21   -1    0    0  501  502 -0.00000000000E+00 -0.00000000000E+00 -0.14778603696E+03  0.14778603696E+03  0.00000000000E+00 0. -1.
      99926    2    1    2    0    0  0.00000000000E+00  0.00000000000E+00  0.16612756954E+03  0.46169964346E+03  0.43077626607E+03 0.  0.
      99925    2    3    3    0    0 -0.57956154669E+01 -0.88148788132E+02  0.11390608333E+03  0.29990227101E+03  0.26298855171E+03 0.  0.
         25    1    3    3    0    0  0.57956154669E+01  0.88148788132E+02  0.52221486211E+02  0.16179737244E+03  0.12509000000E+03 0.  0.
         25    1    4    4    0    0 -0.84929862771E+01 -0.57438223272E+02  0.99941582399E+02  0.17031473307E+03  0.12509000000E+03 0.  0.
         25    1    4    4    0    0  0.26973708102E+01 -0.30710564859E+02  0.13964500932E+02  0.12958753794E+03  0.12509000000E+03 0.  0.
<mgrwt>
<rscale>  2 0.43077627E+03</rscale>
<asrwt>0</asrwt>
<pdfrwt beam="1">  1       21 0.46163766E-01 0.43077627E+03</pdfrwt>
<pdfrwt beam="2">  1       21 0.21733241E-01 0.43077627E+03</pdfrwt>
<totfact> 0.82881218E+04</totfact>
</mgrwt>
</event>
<event>
 7    0  0.4714446E-002  0.4625266E+03  0.7546771E-02  0.1024051E+00
         21   -1    0    0  502  501  0.00000000000E+00  0.00000000000E+00  0.42365068471E+03  0.42365068471E+03  0.00000000000E+00 0.  1.
         21   -1    0    0  501  502 -0.00000000000E+00 -0.00000000000E+00 -0.12624250812E+03  0.12624250812E+03  0.00000000000E+00 0.  1.
      99926    2    1    2    0    0  0.00000000000E+00  0.35527136788E-14  0.29740817660E+03  0.54989319283E+03  0.46252664790E+03 0.  0.
      99925    2    3    3    0    0 -0.11039904427E+03  0.61309120387E+01  0.13001507888E+03  0.31347514293E+03  0.26293955092E+03 0.  0.
         25    1    4    4    0    0 -0.82245695724E+02 -0.27581820207E+02  0.60806960265E+02  0.16392103522E+03  0.12509000000E+03 0.  0.
         25    1    4    4    0    0 -0.28153348545E+02  0.33712732246E+02  0.69208118617E+02  0.14955410771E+03  0.12509000000E+03 0.  0.
         25    1    3    3    0    0  0.11039904427E+03 -0.61309120387E+01  0.16739309772E+03  0.23641804990E+03  0.12509000000E+03 0.  0.
<mgrwt>
<rscale>  2 0.46252665E+03</rscale>
<asrwt>0</asrwt>
<pdfrwt beam="1">  1       21 0.62301571E-01 0.46252665E+03</pdfrwt>
<pdfrwt beam="2">  1       21 0.18565075E-01 0.46252665E+03</pdfrwt>
<totfact> 0.58322027E+04</totfact>
</mgrwt>
</event>
<event>
 7    0  0.4714446E-002  0.4432004E+03  0.7546771E-02  0.1029769E+00
         21   -1    0    0  502  501  0.00000000000E+00  0.00000000000E+00  0.93941467365E+03  0.93941467365E+03  0.00000000000E+00 0.  1.
         21   -1    0    0  501  502 -0.00000000000E+00 -0.00000000000E+00 -0.52273657956E+02  0.52273657956E+02  0.00000000000E+00 0.  1.
      99926    2    1    2    0    0  0.00000000000E+00  0.00000000000E+00  0.88714101569E+03  0.99168833161E+03  0.44320036701E+03 0.  0.
      99925    2    3    3    0    0  0.64670998050E+02  0.40273094607E+02  0.41358672373E+03  0.49600149935E+03  0.26298146165E+03 0.  0.
         25    1    4    4    0    0  0.63994241341E+02 -0.11218836974E+01  0.18729923570E+03  0.23414746067E+03  0.12509000000E+03 0.  0.
         25    1    4    4    0    0  0.67675670845E+00  0.41394978305E+02  0.22628748804E+03  0.26185403867E+03  0.12509000000E+03 0.  0.
         25    1    3    3    0    0 -0.64670998050E+02 -0.40273094607E+02  0.47355429196E+03  0.49568683226E+03  0.12509000000E+03 0.  0.
<mgrwt>
<rscale>  2 0.44320037E+03</rscale>
<asrwt>0</asrwt>
<pdfrwt beam="1">  1       21 0.13814921E+00 0.44320037E+03</pdfrwt>
<pdfrwt beam="2">  1       21 0.76873032E-02 0.44320037E+03</pdfrwt>
<totfact> 0.43351241E+04</totfact>
</mgrwt>
</event>
<event>
 7    0  0.4714446E-002  0.4572828E+03  0.7546771E-02  0.1025572E+00
         21   -1    0    0  502  501  0.00000000000E+00  0.00000000000E+00  0.47468846288E+03  0.47468846288E+03  0.00000000000E+00 0. -1.
         21   -1    0    0  501  502 -0.00000000000E+00 -0.00000000000E+00 -0.11012881928E+03  0.11012881928E+03  0.00000000000E+00 0. -1.
      99926    2    1    2    0    0  0.00000000000E+00  0.00000000000E+00  0.36455964360E+03  0.58481728216E+03  0.45728275692E+03 0.  0.
      99925    2    3    3    0    0 -0.91391296868E+02 -0.18564203759E+02  0.14208010907E+03  0.31307908060E+03  0.26293488645E+03 0.  0.
         25    1    4    4    0    0 -0.39656725500E+02 -0.53410210729E+01  0.25162209953E+02  0.13372294976E+03  0.12509000000E+03 0.  0.
         25    1    4    4    0    0 -0.51734571368E+02 -0.13223182686E+02  0.11691789912E+03  0.17935613084E+03  0.12509000000E+03 0.  0.
         25    1    3    3    0    0  0.91391296868E+02  0.18564203759E+02  0.22247953453E+03  0.27173820157E+03  0.12509000000E+03 0.  0.
<mgrwt>
<rscale>  2 0.45728276E+03</rscale>
<asrwt>0</asrwt>
<pdfrwt beam="1">  1       21 0.69807126E-01 0.45728276E+03</pdfrwt>
<pdfrwt beam="2">  1       21 0.16195415E-01 0.45728276E+03</pdfrwt>
<totfact> 0.58558827E+04</totfact>
</mgrwt>
</event>
<event>
 7    0  0.4714446E-002  0.4538000E+03  0.7546771E-02  0.1026595E+00
         21   -1    0    0  502  501  0.00000000000E+00  0.00000000000E+00  0.11680139451E+04  0.11680139451E+04  0.00000000000E+00 0. -1.
         21   -1    0    0  501  502 -0.00000000000E+00 -0.00000000000E+00 -0.44077904814E+02  0.44077904814E+02  0.00000000000E+00 0. -1.
      99926    2    1    2    0    0  0.00000000000E+00  0.71054273576E-14  0.11239360403E+04  0.12120918499E+04  0.45379998895E+03 0.  0.
      99925    2    3    3    0    0  0.10667802956E+03  0.32313424303E+02  0.67464993667E+03  0.73258181833E+03  0.26286731277E+03 0.  0.
         25    1    4    4    0    0  0.58303553282E+02  0.56482616644E+02  0.36327717537E+03  0.39269250636E+03  0.12509000000E+03 0.  0.
         25    1    3    3    0    0 -0.10667802956E+03 -0.32313424303E+02  0.44928610361E+03  0.47951003157E+03  0.12509000000E+03 0.  0.
         25    1    4    4    0    0  0.48374476278E+02 -0.24169192341E+02  0.31137276130E+03  0.33988931197E+03  0.12509000000E+03 0.  0.
<mgrwt>
<rscale>  2 0.45379999E+03</rscale>
<asrwt>0</asrwt>
<pdfrwt beam="1">  1       21 0.17176674E+00 0.45379999E+03</pdfrwt>
<pdfrwt beam="2">  1       21 0.64820456E-02 0.45379999E+03</pdfrwt>
<totfact> 0.32073786E+04</totfact>
</mgrwt>
</event>
<event>
 7    0  0.4714446E-002  0.4553089E+03  0.7546771E-02  0.1026151E+00
         21   -1    0    0  502  501  0.00000000000E+00  0.00000000000E+00  0.18658264352E+03  0.18658264352E+03  0.00000000000E+00 0. -1.
         21   -1    0    0  501  502 -0.00000000000E+00 -0.00000000000E+00 -0.27776728940E+03  0.27776728940E+03  0.00000000000E+00 0. -1.
      99926    2    1    2    0    0  0.00000000000E+00  0.00000000000E+00 -0.91184645885E+02  0.46434993292E+03  0.45530892870E+03 0.  0.
      99925    2    3    3    0    0  0.78725058319E+02 -0.67195083623E+02 -0.10101344659E+02  0.28287039163E+03  0.26306046306E+03 0.  0.
         25    1    4    4    0    0  0.57808626859E+02 -0.30176886525E+02  0.31141968080E+02  0.14446387817E+03  0.12509000000E+03 0.  0.
         25    1    3    3    0    0 -0.78725058319E+02  0.67195083623E+02 -0.81083301226E+02  0.18147954129E+03  0.12509000000E+03 0.  0.
         25    1    4    4    0    0  0.20916431460E+02 -0.37018197098E+02 -0.41243312739E+02  0.13840651346E+03  0.12509000000E+03 0.  0.
<mgrwt>
<rscale>  2 0.45530893E+03</rscale>
<asrwt>0</asrwt>
<pdfrwt beam="1">  1       21 0.27438624E-01 0.45530893E+03</pdfrwt>
<pdfrwt beam="2">  1       21 0.40848130E-01 0.45530893E+03</pdfrwt>
<totfact> 0.67692133E+04</totfact>
</mgrwt>
</event>
<event>
 7    0  0.4714446E-002  0.4580382E+03  0.7546771E-02  0.1025352E+00
         21   -1    0    0  502  501  0.00000000000E+00  0.00000000000E+00  0.13340746529E+03  0.13340746529E+03  0.00000000000E+00 0.  1.
         21   -1    0    0  501  502 -0.00000000000E+00 -0.00000000000E+00 -0.39315458251E+03  0.39315458251E+03  0.00000000000E+00 0.  1.
      99926    2    1    2    0    0  0.00000000000E+00 -0.35527136788E-14 -0.25974711722E+03  0.52656204779E+03  0.45803823560E+03 0.  0.
      99925    2    3    3    0    0 -0.10180326147E+03  0.16802548534E+02 -0.22392554996E+03  0.36049904028E+03  0.26300318713E+03 0.  0.
         25    1    4    4    0    0 -0.29890574610E+02 -0.26675657088E+02 -0.93897313611E+02  0.16145974958E+03  0.12509000000E+03 0.  0.
         25    1    3    3    0    0  0.10180326147E+03 -0.16802548534E+02 -0.35821567263E+02  0.16606300751E+03  0.12509000000E+03 0.  0.
         25    1    4    4    0    0 -0.71912686859E+02  0.43478205622E+02 -0.13002823634E+03  0.19903929070E+03  0.12509000000E+03 0.  0.
<mgrwt>
<rscale>  2 0.45803824E+03</rscale>
<asrwt>0</asrwt>
<pdfrwt beam="1">  1       21 0.19618745E-01 0.45803824E+03</pdfrwt>
<pdfrwt beam="2">  1       21 0.57816850E-01 0.45803824E+03</pdfrwt>
<totfact> 0.61934653E+04</totfact>
</mgrwt>
</event>
<event>
 7    0  0.4714446E-002  0.4556387E+03  0.7546771E-02  0.1026054E+00
         21   -1    0    0  502  501  0.00000000000E+00  0.00000000000E+00  0.34472873189E+03  0.34472873189E+03  0.00000000000E+00 0. -1.
         21   -1    0    0  501  502 -0.00000000000E+00 -0.00000000000E+00 -0.15055793186E+03  0.15055793186E+03  0.00000000000E+00 0. -1.
      99926    2    1    2    0    0  0.14210854715E-13  0.14210854715E-13  0.19417080003E+03  0.49528666375E+03  0.45563865036E+03 0.  0.
      99925    2    3    3    0    0  0.71957473506E+02  0.69549828753E+02  0.63395796477E+02  0.28849046860E+03  0.26304499005E+03 0.  0.
         25    1    4    4    0    0  0.34048596821E+02  0.39789305375E+02 -0.94217034257E+01  0.13593664834E+03  0.12509000000E+03 0.  0.
         25    1    4    4    0    0  0.37908876685E+02  0.29760523378E+02  0.72817499903E+02  0.15255382026E+03  0.12509000000E+03 0.  0.
         25    1    3    3    0    0 -0.71957473506E+02 -0.69549828753E+02  0.13077500355E+03  0.20679619515E+03  0.12509000000E+03 0.  0.
<mgrwt>
<rscale>  2 0.45563865E+03</rscale>
<asrwt>0</asrwt>
<pdfrwt beam="1">  1       21 0.50695402E-01 0.45563865E+03</pdfrwt>
<pdfrwt beam="2">  1       21 0.22140872E-01 0.45563865E+03</pdfrwt>
<totfact> 0.65271515E+04</totfact>
</mgrwt>
</event>
<event>
 7    0  0.4714446E-002  0.4360952E+03  0.7546771E-02  0.1031952E+00
         21   -1    0    0  502  501  0.00000000000E+00  0.00000000000E+00  0.43973367339E+03  0.43973367339E+03  0.00000000000E+00 0.  1.
         21   -1    0    0  501  502 -0.00000000000E+00 -0.00000000000E+00 -0.10812168699E+03  0.10812168699E+03  0.00000000000E+00 0.  1.
      99926    2    1    2    0    0  0.14432899320E-14  0.00000000000E+00  0.33161198640E+03  0.54785536038E+03  0.43609515748E+03 0.  0.
      99925    2    3    3    0    0 -0.29438602589E+00  0.56906723296E+02  0.30700000416E+03  0.40824261172E+03  0.26301058087E+03 0.  0.
         25    1    4    4    0    0  0.16540030156E+02  0.51283228381E+01  0.10367036840E+03  0.16338581847E+03  0.12509000000E+03 0.  0.
         25    1    3    3    0    0  0.29438602589E+00 -0.56906723296E+02  0.24611982237E+02  0.13961274866E+03  0.12509000000E+03 0.  0.
         25    1    4    4    0    0 -0.16834416182E+02  0.51778400458E+02  0.20332963576E+03  0.24485679325E+03  0.12509000000E+03 0.  0.
<mgrwt>
<rscale>  2 0.43609516E+03</rscale>
<asrwt>0</asrwt>
<pdfrwt beam="1">  1       21 0.64666716E-01 0.43609516E+03</pdfrwt>
<pdfrwt beam="2">  1       21 0.15900248E-01 0.43609516E+03</pdfrwt>
<totfact> 0.72219831E+04</totfact>
</mgrwt>
</event>
<event>
 7    0  0.4714446E-002  0.4574312E+03  0.7546771E-02  0.1025529E+00
         21   -1    0    0  502  501  0.00000000000E+00  0.00000000000E+00  0.17802362298E+03  0.17802362298E+03  0.00000000000E+00 0. -1.
         21   -1    0    0  501  502 -0.00000000000E+00 -0.00000000000E+00 -0.29384204210E+03  0.29384204210E+03  0.00000000000E+00 0. -1.
      99926    2    1    2    0    0  0.00000000000E+00  0.00000000000E+00 -0.11581841912E+03  0.47186566508E+03  0.45743119666E+03 0.  0.
      99925    2    3    3    0    0  0.89419862357E+02 -0.55538421410E+02 -0.24335759562E+02  0.28452369665E+03  0.26321298738E+03 0.  0.
         25    1    3    3    0    0 -0.89419862357E+02  0.55538421410E+02 -0.91482659558E+02  0.18734196843E+03  0.12509000000E+03 0.  0.
         25    1    4    4    0    0  0.20484022211E+02 -0.44464321357E+02 -0.40642843504E+02  0.14034250913E+03  0.12509000000E+03 0.  0.
         25    1    4    4    0    0  0.68935840146E+02 -0.11074100053E+02  0.16307083942E+02  0.14418118752E+03  0.12509000000E+03 0.  0.
<mgrwt>
<rscale>  2 0.45743120E+03</rscale>
<asrwt>0</asrwt>
<pdfrwt beam="1">  1       21 0.26179945E-01 0.45743120E+03</pdfrwt>
<pdfrwt beam="2">  1       21 0.43212064E-01 0.45743120E+03</pdfrwt>
<totfact> 0.66014783E+04</totfact>
</mgrwt>
</event>
<event>
 7    0  0.4714446E-002  0.4209306E+03  0.7546771E-02  0.1036764E+00
         21   -1    0    0  502  501  0.00000000000E+00  0.00000000000E+00  0.22912323937E+03  0.22912323937E+03  0.00000000000E+00 0. -1.
         21   -1    0    0  501  502 -0.00000000000E+00 -0.00000000000E+00 -0.19332669674E+03  0.19332669674E+03  0.00000000000E+00 0. -1.
      99926    2    1    2    0    0 -0.88817841970E-15  0.00000000000E+00  0.35796542628E+02  0.42244993611E+03  0.42093058341E+03 0.  0.
      99925    2    3    3    0    0  0.48634586026E+01 -0.76567572629E+02  0.17234866071E+02  0.27453681855E+03  0.26303455614E+03 0.  0.
         25    1    3    3    0    0 -0.48634586026E+01  0.76567572629E+02  0.18561676557E+02  0.14791311755E+03  0.12509000000E+03 0.  0.
         25    1    4    4    0    0  0.15242344745E+02 -0.25081141692E+02 -0.28043233763E+02  0.13151168694E+03  0.12509000000E+03 0.  0.
         25    1    4    4    0    0 -0.10378886142E+02 -0.51486430937E+02  0.45278099834E+02  0.14302513161E+03  0.12509000000E+03 0.  0.
<mgrwt>
<rscale>  2 0.42093058E+03</rscale>
<asrwt>0</asrwt>
<pdfrwt beam="1">  1       21 0.33694594E-01 0.42093058E+03</pdfrwt>
<pdfrwt beam="2">  1       21 0.28430397E-01 0.42093058E+03</pdfrwt>
<totfact> 0.94090589E+04</totfact>
</mgrwt>
</event>
<event>
 7    0  0.4714446E-002  0.4569701E+03  0.7546771E-02  0.1025664E+00
         21   -1    0    0  502  501  0.00000000000E+00  0.00000000000E+00  0.55570916080E+03  0.55570916080E+03  0.00000000000E+00 0. -1.
         21   -1    0    0  501  502 -0.00000000000E+00 -0.00000000000E+00 -0.93943793489E+02  0.93943793489E+02  0.00000000000E+00 0. -1.
      99926    2    1    2    0    0  0.00000000000E+00  0.00000000000E+00  0.46176536731E+03  0.64965295428E+03  0.45697013750E+03 0.  0.
      99925    2    3    3    0    0  0.23766204406E+02 -0.10192863431E+03  0.22240617638E+03  0.36000729258E+03  0.26303320029E+03 0.  0.
         25    1    4    4    0    0  0.16842161251E+02 -0.78696413331E+02  0.79898067254E+02  0.16884310207E+03  0.12509000000E+03 0.  0.
         25    1    3    3    0    0 -0.23766204406E+02  0.10192863431E+03  0.23935919093E+03  0.28964566171E+03  0.12509000000E+03 0.  0.
         25    1    4    4    0    0  0.69240431553E+01 -0.23232220977E+02  0.14250810912E+03  0.19116419050E+03  0.12509000000E+03 0.  0.
<mgrwt>
<rscale>  2 0.45697014E+03</rscale>
<asrwt>0</asrwt>
<pdfrwt beam="1">  1       21 0.81721934E-01 0.45697014E+03</pdfrwt>
<pdfrwt beam="2">  1       21 0.13815264E-01 0.45697014E+03</pdfrwt>
<totfact> 0.54863768E+04</totfact>
</mgrwt>
</event>
<event>
 7    0  0.4714446E-002  0.4574301E+03  0.7546771E-02  0.1025529E+00
         21   -1    0    0  502  501  0.00000000000E+00  0.00000000000E+00  0.15195831440E+03  0.15195831440E+03  0.00000000000E+00 0. -1.
         21   -1    0    0  501  502 -0.00000000000E+00 -0.00000000000E+00 -0.34424296441E+03  0.34424296441E+03  0.00000000000E+00 0. -1.
      99926    2    1    2    0    0 -0.71054273576E-14 -0.14210854715E-13 -0.19228465001E+03  0.49620127882E+03  0.45743012851E+03 0.  0.
      99925    2    3    3    0    0 -0.40646313108E+02 -0.10115287468E+03 -0.16387456156E+03  0.32786035078E+03  0.26220890691E+03 0.  0.
         25    1    3    3    0    0  0.40646313108E+02  0.10115287468E+03 -0.28410088448E+02  0.16834092803E+03  0.12509000000E+03 0.  0.
         25    1    4    4    0    0  0.95508751964E+01 -0.35355276425E+02 -0.50246831916E+02  0.13969061173E+03  0.12509000000E+03 0.  0.
         25    1    4    4    0    0 -0.50197188304E+02 -0.65797598257E+02 -0.11362772965E+03  0.18816973905E+03  0.12509000000E+03 0.  0.
<mgrwt>
<rscale>  2 0.45743013E+03</rscale>
<asrwt>0</asrwt>
<pdfrwt beam="1">  1       21 0.22346811E-01 0.45743013E+03</pdfrwt>
<pdfrwt beam="2">  1       21 0.50623965E-01 0.45743013E+03</pdfrwt>
<totfact> 0.64289135E+04</totfact>
</mgrwt>
</event>
<event>
 7    0  0.4714446E-002  0.4543543E+03  0.7546771E-02  0.1026431E+00
         21   -1    0    0  502  501  0.00000000000E+00  0.00000000000E+00  0.16693284378E+03  0.16693284378E+03  0.00000000000E+00 0.  1.
         21   -1    0    0  501  502 -0.00000000000E+00 -0.00000000000E+00 -0.30916299001E+03  0.30916299001E+03  0.00000000000E+00 0.  1.
      99926    2    1    2    0    0  0.17763568394E-14  0.00000000000E+00 -0.14223014623E+03  0.47609583379E+03  0.45435429838E+03 0.  0.
      99925    2    3    3    0    0  0.97027397783E+01  0.10953145586E+03 -0.64343094961E+02  0.29223397304E+03  0.26300071891E+03 0.  0.
         25    1    4    4    0    0 -0.11622098744E+02  0.21396432885E+02 -0.50631347200E+02  0.13712739310E+03  0.12509000000E+03 0.  0.
         25    1    4    4    0    0  0.21324838522E+02  0.88135022979E+02 -0.13711747760E+02  0.15510657994E+03  0.12509000000E+03 0.  0.
         25    1    3    3    0    0 -0.97027397783E+01 -0.10953145586E+03 -0.77887051266E+02  0.18386186075E+03  0.12509000000E+03 0.  0.
<mgrwt>
<rscale>  2 0.45435430E+03</rscale>
<asrwt>0</asrwt>
<pdfrwt beam="1">  1       21 0.24548948E-01 0.45435430E+03</pdfrwt>
<pdfrwt beam="2">  1       21 0.45465145E-01 0.45435430E+03</pdfrwt>
<totfact> 0.67329780E+04</totfact>
</mgrwt>
</event>
<event>
 7    0  0.4714446E-002  0.4568308E+03  0.7546771E-02  0.1025704E+00
         21   -1    0    0  502  501  0.00000000000E+00  0.00000000000E+00  0.13329330925E+03  0.13329330925E+03  0.00000000000E+00 0.  1.
         21   -1    0    0  501  502 -0.00000000000E+00 -0.00000000000E+00 -0.39141941063E+03  0.39141941063E+03  0.00000000000E+00 0.  1.
      99926    2    1    2    0    0 -0.71054273576E-14  0.00000000000E+00 -0.25812610138E+03  0.52471271988E+03  0.45683077194E+03 0.  0.
      99925    2    3    3    0    0 -0.42726659791E+02 -0.13366240533E+02 -0.40706038856E+02  0.26991237544E+03  0.26304274362E+03 0.  0.
         25    1    4    4    0    0 -0.24317122925E+02 -0.28609012895E+02 -0.55095465798E+02  0.14174913241E+03  0.12509000000E+03 0.  0.
         25    1    3    3    0    0  0.42726659791E+02  0.13366240533E+02 -0.21742006252E+03  0.25480034444E+03  0.12509000000E+03 0.  0.
         25    1    4    4    0    0 -0.18409536866E+02  0.15242772362E+02  0.14389426942E+02  0.12816324303E+03  0.12509000000E+03 0.  0.
<mgrwt>
<rscale>  2 0.45683077E+03</rscale>
<asrwt>0</asrwt>
<pdfrwt beam="1">  1       21 0.19601957E-01 0.45683077E+03</pdfrwt>
<pdfrwt beam="2">  1       21 0.57561679E-01 0.45683077E+03</pdfrwt>
<totfact> 0.62651583E+04</totfact>
</mgrwt>
</event>
<event>
 7    0  0.4714446E-002  0.4771183E+03  0.7546771E-02  0.1019930E+00
         21   -1    0    0  502  501  0.00000000000E+00  0.00000000000E+00  0.24912778980E+03  0.24912778980E+03  0.00000000000E+00 0. -1.
         21   -1    0    0  501  502 -0.00000000000E+00 -0.00000000000E+00 -0.22843890076E+03  0.22843890076E+03  0.00000000000E+00 0. -1.
      99926    2    1    2    0    0  0.00000000000E+00  0.00000000000E+00  0.20688889046E+02  0.47756669056E+03  0.47711834361E+03 0.  0.
      99925    2    3    3    0    0  0.34784635013E+02 -0.79223366310E+02  0.11318879718E+03  0.29954968658E+03  0.26349952243E+03 0.  0.
         25    1    4    4    0    0  0.38221252152E+02 -0.68614911685E+01  0.70904197415E+02  0.14893910664E+03  0.12509000000E+03 0.  0.
         25    1    4    4    0    0 -0.34366171387E+01 -0.72361875141E+02  0.42284599765E+02  0.15061057994E+03  0.12509000000E+03 0.  0.
         25    1    3    3    0    0 -0.34784635013E+02  0.79223366310E+02 -0.92499908133E+02  0.17801700398E+03  0.12509000000E+03 0.  0.
<mgrwt>
<rscale>  2 0.47711834E+03</rscale>
<asrwt>0</asrwt>
<pdfrwt beam="1">  1       21 0.36636440E-01 0.47711834E+03</pdfrwt>
<pdfrwt beam="2">  1       21 0.33593956E-01 0.47711834E+03</pdfrwt>
<totfact> 0.56309988E+04</totfact>
</mgrwt>
</event>
<event>
 7    0  0.4714446E-002  0.4430467E+03  0.7546771E-02  0.1029816E+00
         21   -1    0    0  502  501  0.00000000000E+00  0.00000000000E+00  0.69250086220E+03  0.69250086220E+03  0.00000000000E+00 0.  1.
         21   -1    0    0  501  502 -0.00000000000E+00 -0.00000000000E+00 -0.70862868165E+02  0.70862868165E+02  0.00000000000E+00 0.  1.
      99926    2    1    2    0    0  0.35527136788E-14  0.14210854715E-13  0.62163799404E+03  0.76336373037E+03  0.44304671222E+03 0.  0.
      99925    2    3    3    0    0  0.21259143708E+02  0.91504429208E+02  0.32891123582E+03  0.43145790814E+03  0.26296066947E+03 0.  0.
         25    1    4    4    0    0  0.38832354014E+01  0.80940906032E+01  0.12077615419E+03  0.17411197932E+03  0.12509000000E+03 0.  0.
         25    1    4    4    0    0  0.17375908306E+02  0.83410338605E+02  0.20813508163E+03  0.25734592882E+03  0.12509000000E+03 0.  0.
         25    1    3    3    0    0 -0.21259143708E+02 -0.91504429208E+02  0.29272675821E+03  0.33190582223E+03  0.12509000000E+03 0.  0.
<mgrwt>
<rscale>  2 0.44304671E+03</rscale>
<asrwt>0</asrwt>
<pdfrwt beam="1">  1       21 0.10183836E+00 0.44304671E+03</pdfrwt>
<pdfrwt beam="2">  1       21 0.10421010E-01 0.44304671E+03</pdfrwt>
<totfact> 0.54527573E+04</totfact>
</mgrwt>
</event>
<event>
 7    0  0.4714446E-002  0.4533333E+03  0.7546771E-02  0.1026733E+00
         21   -1    0    0  502  501  0.00000000000E+00  0.00000000000E+00  0.13288332861E+03  0.13288332861E+03  0.00000000000E+00 0.  1.
         21   -1    0    0  501  502 -0.00000000000E+00 -0.00000000000E+00 -0.38663813077E+03  0.38663813077E+03  0.00000000000E+00 0.  1.
      99926    2    1    2    0    0  0.71054273576E-14 -0.71054273576E-14 -0.25375480215E+03  0.51952145938E+03  0.45333326278E+03 0.  0.
      99925    2    3    3    0    0  0.58033731370E+02 -0.48035857795E+02 -0.25488179795E+03  0.37349359960E+03  0.26240689856E+03 0.  0.
         25    1    4    4    0    0 -0.63661833041E+01 -0.34989244989E+01 -0.11128201590E+03  0.16758271368E+03  0.12509000000E+03 0.  0.
         25    1    4    4    0    0  0.64399914674E+02 -0.44536933296E+02 -0.14359978205E+03  0.20591088592E+03  0.12509000000E+03 0.  0.
         25    1    3    3    0    0 -0.58033731370E+02  0.48035857795E+02  0.11269957904E+01  0.14602785977E+03  0.12509000000E+03 0.  0.
<mgrwt>
<rscale>  2 0.45333326E+03</rscale>
<asrwt>0</asrwt>
<pdfrwt beam="1">  1       21 0.19541666E-01 0.45333326E+03</pdfrwt>
<pdfrwt beam="2">  1       21 0.56858548E-01 0.45333326E+03</pdfrwt>
<totfact> 0.64772152E+04</totfact>
</mgrwt>
</event>
<event>
 7    0  0.4714446E-002  0.4527487E+03  0.7546771E-02  0.1026906E+00
         21   -1    0    0  502  501  0.00000000000E+00  0.00000000000E+00  0.30109202122E+02  0.30109202122E+02  0.00000000000E+00 0. -1.
         21   -1    0    0  501  502 -0.00000000000E+00 -0.00000000000E+00 -0.17019825087E+04  0.17019825087E+04  0.00000000000E+00 0. -1.
      99926    2    1    2    0    0 -0.71054273576E-14  0.00000000000E+00 -0.16718733066E+04  0.17320917109E+04  0.45274865152E+03 0.  0.
      99925    2    3    3    0    0 -0.61798313961E+02 -0.64522760864E+02 -0.13059543796E+04  0.13351957705E+04  0.26315144975E+03 0.  0.
         25    1    4    4    0    0 -0.37258219043E+01  0.42289197946E+00 -0.55711688096E+03  0.57099981413E+03  0.12509000000E+03 0.  0.
         25    1    4    4    0    0 -0.58072492057E+02 -0.64945652843E+02 -0.74883749868E+03  0.76419595634E+03  0.12509000000E+03 0.  0.
         25    1    3    3    0    0  0.61798313961E+02  0.64522760864E+02 -0.36591892697E+03  0.39689594038E+03  0.12509000000E+03 0.  0.
<mgrwt>
<rscale>  2 0.45274865E+03</rscale>
<asrwt>0</asrwt>
<pdfrwt beam="1">  1       21 0.44278231E-02 0.45274865E+03</pdfrwt>
<pdfrwt beam="2">  1       21 0.25029159E+00 0.45274865E+03</pdfrwt>
<totfact> 0.18930265E+04</totfact>
</mgrwt>
</event>
<event>
 7    0  0.4714446E-002  0.4584846E+03  0.7546771E-02  0.1025222E+00
         21   -1    0    0  502  501  0.00000000000E+00  0.00000000000E+00  0.25699416549E+03  0.25699416549E+03  0.00000000000E+00 0. -1.
         21   -1    0    0  501  502 -0.00000000000E+00 -0.00000000000E+00 -0.20448728543E+03  0.20448728543E+03  0.00000000000E+00 0. -1.
      99926    2    1    2    0    0  0.00000000000E+00 -0.35527136788E-14  0.52506880063E+02  0.46148145092E+03  0.45848463125E+03 0.  0.
      99925    2    3    3    0    0 -0.11505833278E+03 -0.16399219231E+02  0.27202689600E+02  0.28886869216E+03  0.26305471038E+03 0.  0.
         25    1    4    4    0    0 -0.43813991730E+02  0.30507838641E+02  0.17872637087E+02  0.13717628566E+03  0.12509000000E+03 0.  0.
         25    1    4    4    0    0 -0.71244341053E+02 -0.46907057872E+02  0.93300525124E+01  0.15169240650E+03  0.12509000000E+03 0.  0.
         25    1    3    3    0    0  0.11505833278E+03  0.16399219231E+02  0.25304190463E+02  0.17261275877E+03  0.12509000000E+03 0.  0.
<mgrwt>
<rscale>  2 0.45848463E+03</rscale>
<asrwt>0</asrwt>
<pdfrwt beam="1">  1       21 0.37793260E-01 0.45848463E+03</pdfrwt>
<pdfrwt beam="2">  1       21 0.30071660E-01 0.45848463E+03</pdfrwt>
<totfact> 0.66213373E+04</totfact>
</mgrwt>
</event>
<event>
 7    0  0.4714446E-002  0.4478528E+03  0.7546771E-02  0.1028364E+00
         21   -1    0    0  502  501  0.00000000000E+00  0.00000000000E+00  0.62382607826E+02  0.62382607826E+02  0.00000000000E+00 0.  1.
         21   -1    0    0  501  502 -0.00000000000E+00 -0.00000000000E+00 -0.80379840534E+03  0.80379840534E+03  0.00000000000E+00 0.  1.
      99926    2    1    2    0    0  0.00000000000E+00  0.00000000000E+00 -0.74141579751E+03  0.86618101316E+03  0.44785283606E+03 0.  0.
      99925    2    3    3    0    0 -0.86523002379E+02 -0.52751065588E+02 -0.53055152311E+03  0.60088842906E+03  0.26327377508E+03 0.  0.
         25    1    3    3    0    0  0.86523002379E+02  0.52751065588E+02 -0.21086427440E+03  0.26529258410E+03  0.12509000000E+03 0.  0.
         25    1    4    4    0    0 -0.49972152307E+02 -0.59131486189E+02 -0.33411868511E+03  0.36507061304E+03  0.12509000000E+03 0.  0.
         25    1    4    4    0    0 -0.36550850072E+02  0.63804206015E+01 -0.19643283800E+03  0.23581781602E+03  0.12509000000E+03 0.  0.
<mgrwt>
<rscale>  2 0.44785284E+03</rscale>
<asrwt>0</asrwt>
<pdfrwt beam="1">  1       21 0.91739137E-02 0.44785284E+03</pdfrwt>
<pdfrwt beam="2">  1       21 0.11820564E+00 0.44785284E+03</pdfrwt>
<totfact> 0.47321109E+04</totfact>
</mgrwt>
</event>
<event>
 7    0  0.4714446E-002  0.4684047E+03  0.7546771E-02  0.1022371E+00
         21   -1    0    0  502  501  0.00000000000E+00  0.00000000000E+00  0.30657889156E+02  0.30657889156E+02  0.00000000000E+00 0. -1.
         21   -1    0    0  501  502 -0.00000000000E+00 -0.00000000000E+00 -0.17891233698E+04  0.17891233698E+04  0.00000000000E+00 0. -1.
      99926    2    1    2    0    0  0.00000000000E+00  0.00000000000E+00 -0.17584654807E+04  0.18197812590E+04  0.46840472226E+03 0.  0.
      99925    2    3    3    0    0 -0.66924025901E+02 -0.10224410987E+03 -0.12006625828E+04  0.12352093950E+04  0.26309490376E+03 0.  0.
         25    1    4    4    0    0 -0.63233031772E+02 -0.82528602859E+02 -0.71847575790E+03  0.73665752517E+03  0.12509000000E+03 0.  0.
         25    1    4    4    0    0 -0.36909941291E+01 -0.19715507016E+02 -0.48218682492E+03  0.49855186980E+03  0.12509000000E+03 0.  0.
         25    1    3    3    0    0  0.66924025901E+02  0.10224410987E+03 -0.55780289787E+03  0.58457186403E+03  0.12509000000E+03 0.  0.
<mgrwt>
<rscale>  2 0.46840472E+03</rscale>
<asrwt>0</asrwt>
<pdfrwt beam="1">  1       21 0.45085106E-02 0.46840472E+03</pdfrwt>
<pdfrwt beam="2">  1       21 0.26310652E+00 0.46840472E+03</pdfrwt>
<totfact> 0.15234306E+04</totfact>
</mgrwt>
</event>
<event>
 7    0  0.4714446E-002  0.4587860E+03  0.7546771E-02  0.1025134E+00
         21   -1    0    0  502  501  0.00000000000E+00  0.00000000000E+00  0.42760344603E+03  0.42760344603E+03  0.00000000000E+00 0.  1.
         21   -1    0    0  501  502 -0.00000000000E+00 -0.00000000000E+00 -0.12306061410E+03  0.12306061410E+03  0.00000000000E+00 0.  1.
      99926    2    1    2    0    0  0.00000000000E+00  0.00000000000E+00  0.30454283193E+03  0.55066406013E+03  0.45878597477E+03 0.  0.
      99925    2    3    3    0    0  0.10909721592E+03  0.35467966155E+02  0.16528202039E+03  0.33111620459E+03  0.26298215820E+03 0.  0.
         25    1    3    3    0    0 -0.10909721592E+03 -0.35467966155E+02  0.13926081154E+03  0.21954785555E+03  0.12509000000E+03 0.  0.
         25    1    4    4    0    0  0.69931857618E+02  0.53868580337E+02  0.72001207785E+02  0.16918620121E+03  0.12509000000E+03 0.  0.
         25    1    4    4    0    0  0.39165358301E+02 -0.18400614182E+02  0.93280812604E+02  0.16193000338E+03  0.12509000000E+03 0.  0.
<mgrwt>
<rscale>  2 0.45878597E+03</rscale>
<asrwt>0</asrwt>
<pdfrwt beam="1">  1       21 0.62882859E-01 0.45878597E+03</pdfrwt>
<pdfrwt beam="2">  1       21 0.18097149E-01 0.45878597E+03</pdfrwt>
<totfact> 0.60004960E+04</totfact>
</mgrwt>
</event>
<event>
 7    0  0.4714446E-002  0.4531654E+03  0.7546771E-02  0.1026782E+00
         21   -1    0    0  502  501  0.00000000000E+00  0.00000000000E+00  0.46772473573E+02  0.46772473573E+02  0.00000000000E+00 0.  1.
         21   -1    0    0  501  502 -0.00000000000E+00 -0.00000000000E+00 -0.10976481247E+04  0.10976481247E+04  0.00000000000E+00 0.  1.
      99926    2    1    2    0    0  0.00000000000E+00 -0.17763568394E-14 -0.10508756511E+04  0.11444205983E+04  0.45316539102E+03 0.  0.
      99925    2    3    3    0    0  0.10986312989E+03 -0.85168121860E+01 -0.70434800123E+03  0.75988014053E+03  0.26300052802E+03 0.  0.
         25    1    4    4    0    0  0.23260819866E+02 -0.10725507164E+02 -0.39520584588E+03  0.41532068448E+03  0.12509000000E+03 0.  0.
         25    1    3    3    0    0 -0.10986312989E+03  0.85168121860E+01 -0.34652764989E+03  0.38454045774E+03  0.12509000000E+03 0.  0.
         25    1    4    4    0    0  0.86602310021E+02  0.22086949780E+01 -0.30914215536E+03  0.34455945605E+03  0.12509000000E+03 0.  0.
<mgrwt>
<rscale>  2 0.45316539E+03</rscale>
<asrwt>0</asrwt>
<pdfrwt beam="1">  1       21 0.68783057E-02 0.45316539E+03</pdfrwt>
<pdfrwt beam="2">  1       21 0.16141882E+00 0.45316539E+03</pdfrwt>
<totfact> 0.34459309E+04</totfact>
</mgrwt>
</event>
<event>
 7    0  0.4714446E-002  0.4644542E+03  0.7546771E-02  0.1023497E+00
         21   -1    0    0  502  501  0.00000000000E+00  0.00000000000E+00  0.16739822267E+03  0.16739822267E+03  0.00000000000E+00 0. -1.
         21   -1    0    0  501  502 -0.00000000000E+00 -0.00000000000E+00 -0.32216249065E+03  0.32216249065E+03  0.00000000000E+00 0. -1.
      99926    2    1    2    0    0  0.71054273576E-14  0.00000000000E+00 -0.15476426798E+03  0.48956071332E+03  0.46445421021E+03 0.  0.
      99925    2    3    3    0    0 -0.43594255810E+02  0.11127409770E+03 -0.12149743812E+03  0.31338871205E+03  0.26299899888E+03 0.  0.
         25    1    4    4    0    0  0.96121275961E+01  0.80823019925E+02 -0.55291866933E+02  0.15915229246E+03  0.12509000000E+03 0.  0.
         25    1    3    3    0    0  0.43594255810E+02 -0.11127409770E+03 -0.33266829862E+02  0.17617200126E+03  0.12509000000E+03 0.  0.
         25    1    4    4    0    0 -0.53206383406E+02  0.30451077780E+02 -0.66205571186E+02  0.15423641959E+03  0.12509000000E+03 0.  0.
<mgrwt>
<rscale>  2 0.46445421E+03</rscale>
<asrwt>0</asrwt>
<pdfrwt beam="1">  1       21 0.24617386E-01 0.46445421E+03</pdfrwt>
<pdfrwt beam="2">  1       21 0.47376837E-01 0.46445421E+03</pdfrwt>
<totfact> 0.61280647E+04</totfact>
</mgrwt>
</event>
<event>
 7    0  0.4714446E-002  0.4558967E+03  0.7546771E-02  0.1025978E+00
         21   -1    0    0  502  501  0.00000000000E+00  0.00000000000E+00  0.15210110219E+03  0.15210110219E+03  0.00000000000E+00 0.  1.
         21   -1    0    0  501  502 -0.00000000000E+00 -0.00000000000E+00 -0.34161783686E+03  0.34161783686E+03  0.00000000000E+00 0.  1.
      99926    2    1    2    0    0  0.88817841970E-15 -0.71054273576E-14 -0.18951673466E+03  0.49371893905E+03  0.45589669670E+03 0.  0.
      99925    2    3    3    0    0  0.42835824741E+01  0.61886603724E+02 -0.15376146454E+02  0.27051330883E+03  0.26285494779E+03 0.  0.
         25    1    3    3    0    0 -0.42835824741E+01 -0.61886603724E+02 -0.17414058821E+03  0.22320563022E+03  0.12509000000E+03 0.  0.
         25    1    4    4    0    0  0.40695593496E+02  0.35128805496E+02  0.33862030891E+01  0.13619522303E+03  0.12509000000E+03 0.  0.
         25    1    4    4    0    0 -0.36412011022E+02  0.26757798227E+02 -0.18762349543E+02  0.13431808580E+03  0.12509000000E+03 0.  0.
<mgrwt>
<rscale>  2 0.45589670E+03</rscale>
<asrwt>0</asrwt>
<pdfrwt beam="1">  1       21 0.22367809E-01 0.45589670E+03</pdfrwt>
<pdfrwt beam="2">  1       21 0.50237917E-01 0.45589670E+03</pdfrwt>
<totfact> 0.65248498E+04</totfact>
</mgrwt>
</event>
<event>
 7    0  0.4714446E-002  0.4490663E+03  0.7546771E-02  0.1028001E+00
         21   -1    0    0  502  501  0.00000000000E+00  0.00000000000E+00  0.22562645394E+03  0.22562645394E+03  0.00000000000E+00 0. -1.
         21   -1    0    0  501  502 -0.00000000000E+00 -0.00000000000E+00 -0.22344511981E+03  0.22344511981E+03  0.00000000000E+00 0. -1.
      99926    2    1    2    0    0  0.00000000000E+00  0.00000000000E+00  0.21813341316E+01  0.44907157375E+03  0.44906627588E+03 0.  0.
      99925    2    3    3    0    0 -0.45010989011E+02 -0.47926086970E+01 -0.96136528995E+02  0.28365431788E+03  0.26299920459E+03 0.  0.
         25    1    4    4    0    0 -0.17123387752E+02 -0.86730847613E+01 -0.89990225006E+02  0.15528741579E+03  0.12509000000E+03 0.  0.
         25    1    3    3    0    0  0.45010989011E+02  0.47926086970E+01  0.98317863126E+02  0.16541725587E+03  0.12509000000E+03 0.  0.
         25    1    4    4    0    0 -0.27887601259E+02  0.38804760642E+01 -0.61463039884E+01  0.12836690209E+03  0.12509000000E+03 0.  0.
<mgrwt>
<rscale>  2 0.44906628E+03</rscale>
<asrwt>0</asrwt>
<pdfrwt beam="1">  1       21 0.33180361E-01 0.44906628E+03</pdfrwt>
<pdfrwt beam="2">  1       21 0.32859576E-01 0.44906628E+03</pdfrwt>
<totfact> 0.72347390E+04</totfact>
</mgrwt>
</event>
<event>
 7    0  0.4714446E-002  0.4587671E+03  0.7546771E-02  0.1025139E+00
         21   -1    0    0  502  501  0.00000000000E+00  0.00000000000E+00  0.95496405599E+03  0.95496405599E+03  0.00000000000E+00 0. -1.
         21   -1    0    0  501  502 -0.00000000000E+00 -0.00000000000E+00 -0.55098207297E+02  0.55098207297E+02  0.00000000000E+00 0. -1.
      99926    2    1    2    0    0  0.00000000000E+00  0.00000000000E+00  0.89986584870E+03  0.10100622633E+04  0.45876707606E+03 0.  0.
      99925    2    3    3    0    0 -0.17365110721E+01 -0.10607571967E+03  0.45733843598E+03  0.53811619340E+03  0.26297436911E+03 0.  0.
         25    1    4    4    0    0  0.10588424885E+02 -0.28187267349E+02  0.27297851401E+03  0.30178040691E+03  0.12509000000E+03 0.  0.
         25    1    3    3    0    0  0.17365110721E+01  0.10607571967E+03  0.44252741272E+03  0.47194606989E+03  0.12509000000E+03 0.  0.
         25    1    4    4    0    0 -0.12324935957E+02 -0.77888452320E+02  0.18435992197E+03  0.23633578650E+03  0.12509000000E+03 0.  0.
<mgrwt>
<rscale>  2 0.45876708E+03</rscale>
<asrwt>0</asrwt>
<pdfrwt beam="1">  1       21 0.14043588E+00 0.45876708E+03</pdfrwt>
<pdfrwt beam="2">  1       21 0.81026781E-02 0.45876708E+03</pdfrwt>
<totfact> 0.37657667E+04</totfact>
</mgrwt>
</event>
<event>
 7    0  0.4714446E-002  0.4330848E+03  0.7546771E-02  0.1032890E+00
         21   -1    0    0  502  501  0.00000000000E+00  0.00000000000E+00  0.66678217776E+02  0.66678217776E+02  0.00000000000E+00 0.  1.
         21   -1    0    0  501  502 -0.00000000000E+00 -0.00000000000E+00 -0.70323721289E+03  0.70323721289E+03  0.00000000000E+00 0.  1.
      99926    2    1    2    0    0  0.14210854715E-13  0.00000000000E+00 -0.63655899511E+03  0.76991543066E+03  0.43308476782E+03 0.  0.
      99925    2    3    3    0    0  0.70761660885E+02 -0.94931303026E+01 -0.50972479392E+03  0.57799942073E+03  0.26299549932E+03 0.  0.
         25    1    4    4    0    0  0.17037221480E+02 -0.20668118800E+02 -0.17755037560E+03  0.21883574211E+03  0.12509000000E+03 0.  0.
         25    1    4    4    0    0  0.53724439404E+02  0.11174988497E+02 -0.33217441832E+03  0.35916367862E+03  0.12509000000E+03 0.  0.
         25    1    3    3    0    0 -0.70761660885E+02  0.94931303026E+01 -0.12683420120E+03  0.19191600993E+03  0.12509000000E+03 0.  0.
<mgrwt>
<rscale>  2 0.43308477E+03</rscale>
<asrwt>0</asrwt>
<pdfrwt beam="1">  1       21 0.98056200E-02 0.43308477E+03</pdfrwt>
<pdfrwt beam="2">  1       21 0.10341724E+00 0.43308477E+03</pdfrwt>
<totfact> 0.58724395E+04</totfact>
</mgrwt>
</event>
<event>
 7    0  0.4714446E-002  0.4553051E+03  0.7546771E-02  0.1026152E+00
         21   -1    0    0  502  501  0.00000000000E+00  0.00000000000E+00  0.60083396418E+03  0.60083396418E+03  0.00000000000E+00 0.  1.
         21   -1    0    0  501  502 -0.00000000000E+00 -0.00000000000E+00 -0.86256240721E+02  0.86256240721E+02  0.00000000000E+00 0.  1.
      99926    2    1    2    0    0  0.00000000000E+00  0.00000000000E+00  0.51457772346E+03  0.68709020491E+03  0.45530508035E+03 0.  0.
      99925    2    3    3    0    0 -0.74172552556E+02 -0.38918451594E+02  0.20808288430E+03  0.34561867175E+03  0.26294023293E+03 0.  0.
         25    1    3    3    0    0  0.74172552556E+02  0.38918451594E+02  0.30649483916E+03  0.34147153316E+03  0.12509000000E+03 0.  0.
         25    1    4    4    0    0 -0.77393040693E+02 -0.25650379783E+02  0.12606190620E+03  0.19541427027E+03  0.12509000000E+03 0.  0.
         25    1    4    4    0    0  0.32204881374E+01 -0.13268071811E+02  0.82020978105E+02  0.15020440148E+03  0.12509000000E+03 0.  0.
<mgrwt>
<rscale>  2 0.45530508E+03</rscale>
<asrwt>0</asrwt>
<pdfrwt beam="1">  1       21 0.88357934E-01 0.45530508E+03</pdfrwt>
<pdfrwt beam="2">  1       21 0.12684742E-01 0.45530508E+03</pdfrwt>
<totfact> 0.53481102E+04</totfact>
</mgrwt>
</event>
<event>
 7    0  0.4714446E-002  0.4512402E+03  0.7546771E-02  0.1027353E+00
         21   -1    0    0  502  501  0.00000000000E+00  0.00000000000E+00  0.17510663066E+03  0.17510663066E+03  0.00000000000E+00 0.  1.
         21   -1    0    0  501  502 -0.00000000000E+00 -0.00000000000E+00 -0.29070534014E+03  0.29070534014E+03  0.00000000000E+00 0.  1.
      99926    2    1    2    0    0 -0.71054273576E-14  0.00000000000E+00 -0.11559870948E+03  0.46581197081E+03  0.45124021376E+03 0.  0.
      99925    2    3    3    0    0 -0.62268600602E+02  0.79839066424E+02 -0.11616532574E+03  0.30487880361E+03  0.26306852119E+03 0.  0.
         25    1    3    3    0    0  0.62268600602E+02 -0.79839066424E+02  0.56661625646E+00  0.16093316719E+03  0.12509000000E+03 0.  0.
         25    1    4    4    0    0 -0.50519428519E+02  0.67989671541E+01 -0.71542613304E+02  0.15285382635E+03  0.12509000000E+03 0.  0.
         25    1    4    4    0    0 -0.11749172083E+02  0.73040099270E+02 -0.44622712436E+02  0.15202497726E+03  0.12509000000E+03 0.  0.
<mgrwt>
<rscale>  2 0.45124021E+03</rscale>
<asrwt>0</asrwt>
<pdfrwt beam="1">  1       21 0.25750975E-01 0.45124021E+03</pdfrwt>
<pdfrwt beam="2">  1       21 0.42750785E-01 0.45124021E+03</pdfrwt>
<totfact> 0.69807400E+04</totfact>
</mgrwt>
</event>
<event>
 7    0  0.4714446E-002  0.4594083E+03  0.7546771E-02  0.1024953E+00
         21   -1    0    0  502  501  0.00000000000E+00  0.00000000000E+00  0.17890973148E+03  0.17890973148E+03  0.00000000000E+00 0. -1.
         21   -1    0    0  501  502 -0.00000000000E+00 -0.00000000000E+00 -0.29491970311E+03  0.29491970311E+03  0.00000000000E+00 0. -1.
      99926    2    1    2    0    0  0.00000000000E+00 -0.14210854715E-13 -0.11600997163E+03  0.47382943459E+03  0.45940833642E+03 0.  0.
      99925    2    3    3    0    0 -0.17301012241E+02 -0.11581958956E+03 -0.78556338275E+02  0.29843335396E+03  0.26301685521E+03 0.  0.
         25    1    3    3    0    0  0.17301012241E+02  0.11581958956E+03 -0.37453633353E+02  0.17539608063E+03  0.12509000000E+03 0.  0.
         25    1    4    4    0    0 -0.30951841462E+02 -0.89035012495E+02 -0.23042028187E+02  0.15831517016E+03  0.12509000000E+03 0.  0.
         25    1    4    4    0    0  0.13650829221E+02 -0.26784577063E+02 -0.55514310089E+02  0.14011818380E+03  0.12509000000E+03 0.  0.
<mgrwt>
<rscale>  2 0.45940834E+03</rscale>
<asrwt>0</asrwt>
<pdfrwt beam="1">  1       21 0.26310255E-01 0.45940834E+03</pdfrwt>
<pdfrwt beam="2">  1       21 0.43370544E-01 0.45940834E+03</pdfrwt>
<totfact> 0.64854020E+04</totfact>
</mgrwt>
</event>
<event>
 7    0  0.4714446E-002  0.4560410E+03  0.7546771E-02  0.1025936E+00
         21   -1    0    0  502  501  0.00000000000E+00  0.00000000000E+00  0.10605452149E+03  0.10605452149E+03  0.00000000000E+00 0.  1.
         21   -1    0    0  501  502 -0.00000000000E+00 -0.00000000000E+00 -0.49025119787E+03  0.49025119787E+03  0.00000000000E+00 0.  1.
      99926    2    1    2    0    0  0.00000000000E+00 -0.71054273576E-14 -0.38419667637E+03  0.59630571936E+03  0.45604103413E+03 0.  0.
      99925    2    3    3    0    0  0.56091187103E+02  0.62410657727E+02 -0.34266448302E+03  0.44005674287E+03  0.26303930800E+03 0.  0.
         25    1    4    4    0    0 -0.80755459231E+01  0.48913512389E+02 -0.17761006038E+03  0.22282411850E+03  0.12509000000E+03 0.  0.
         25    1    3    3    0    0 -0.56091187103E+02 -0.62410657727E+02 -0.41532193349E+02  0.15624897649E+03  0.12509000000E+03 0.  0.
         25    1    4    4    0    0  0.64166733026E+02  0.13497145338E+02 -0.16505442265E+03  0.21723262438E+03  0.12509000000E+03 0.  0.
<mgrwt>
<rscale>  2 0.45604103E+03</rscale>
<asrwt>0</asrwt>
<pdfrwt beam="1">  1       21 0.15596253E-01 0.45604103E+03</pdfrwt>
<pdfrwt beam="2">  1       21 0.72095764E-01 0.45604103E+03</pdfrwt>
<totfact> 0.58424132E+04</totfact>
</mgrwt>
</event>
<event>
 7    0  0.4714446E-002  0.4581380E+03  0.7546771E-02  0.1025323E+00
         21   -1    0    0  502  501  0.00000000000E+00  0.00000000000E+00  0.94085477382E+02  0.94085477382E+02  0.00000000000E+00 0. -1.
         21   -1    0    0  501  502 -0.00000000000E+00 -0.00000000000E+00 -0.55771202294E+03  0.55771202294E+03  0.00000000000E+00 0. -1.
      99926    2    1    2    0    0  0.00000000000E+00  0.00000000000E+00 -0.46362654555E+03  0.65179750032E+03  0.45813797886E+03 0.  0.
      99925    2    3    3    0    0 -0.61883261800E+02 -0.25983974500E+02 -0.15548197468E+03  0.31252579551E+03  0.26266523064E+03 0.  0.
         25    1    4    4    0    0 -0.23007602398E+02 -0.16237205622E+02 -0.12196509602E+03  0.17696324297E+03  0.12509000000E+03 0.  0.
         25    1    3    3    0    0  0.61883261800E+02  0.25983974500E+02 -0.30814457088E+03  0.33927170481E+03  0.12509000000E+03 0.  0.
         25    1    4    4    0    0 -0.38875659401E+02 -0.97467688781E+01 -0.33516878661E+02  0.13556255255E+03  0.12509000000E+03 0.  0.
<mgrwt>
<rscale>  2 0.45813798E+03</rscale>
<asrwt>0</asrwt>
<pdfrwt beam="1">  1       21 0.13836100E-01 0.45813798E+03</pdfrwt>
<pdfrwt beam="2">  1       21 0.82016474E-01 0.45813798E+03</pdfrwt>
<totfact> 0.54242776E+04</totfact>
</mgrwt>
</event>
<event>
 7    0  0.4714446E-002  0.4496805E+03  0.7546771E-02  0.1027817E+00
         21   -1    0    0  502  501  0.00000000000E+00  0.00000000000E+00  0.62092866425E+03  0.62092866425E+03  0.00000000000E+00 0.  1.
         21   -1    0    0  501  502 -0.00000000000E+00 -0.00000000000E+00 -0.81415383705E+02  0.81415383705E+02  0.00000000000E+00 0.  1.
      99926    2    1    2    0    0  0.00000000000E+00 -0.14210854715E-13  0.53951328055E+03  0.70234404796E+03  0.44968053306E+03 0.  0.
      99925    2    3    3    0    0 -0.35895920430E+01 -0.94624652607E+02  0.41950857367E+03  0.50482101683E+03  0.26436736864E+03 0.  0.
         25    1    4    4    0    0  0.22896421919E+02 -0.33004292125E+02  0.14418890634E+03  0.19506788112E+03  0.12509000000E+03 0.  0.
         25    1    4    4    0    0 -0.26486013962E+02 -0.61620360482E+02  0.27531966733E+03  0.30975313571E+03  0.12509000000E+03 0.  0.
         25    1    3    3    0    0  0.35895920430E+01  0.94624652607E+02  0.12000470688E+03  0.19752303113E+03  0.12509000000E+03 0.  0.
<mgrwt>
<rscale>  2 0.44968053E+03</rscale>
<asrwt>0</asrwt>
<pdfrwt beam="1">  1       21 0.91313036E-01 0.44968053E+03</pdfrwt>
<pdfrwt beam="2">  1       21 0.11972851E-01 0.44968053E+03</pdfrwt>
<totfact> 0.55044078E+04</totfact>
</mgrwt>
</event>
<event>
 7    0  0.4714446E-002  0.4430902E+03  0.7546771E-02  0.1029803E+00
         21   -1    0    0  502  501  0.00000000000E+00  0.00000000000E+00  0.67192165917E+03  0.67192165917E+03  0.00000000000E+00 0. -1.
         21   -1    0    0  501  502 -0.00000000000E+00 -0.00000000000E+00 -0.73047535905E+02  0.73047535905E+02  0.00000000000E+00 0. -1.
      99926    2    1    2    0    0  0.00000000000E+00  0.00000000000E+00  0.59887412327E+03  0.74496919508E+03  0.44309015572E+03 0.  0.
      99925    2    3    3    0    0 -0.66558564735E+02 -0.35034985139E+02  0.49600768123E+03  0.56640126481E+03  0.26292447626E+03 0.  0.
         25    1    4    4    0    0 -0.55164260409E+02  0.16135073938E+02  0.26007475058E+03  0.29426148274E+03  0.12509000000E+03 0.  0.
         25    1    4    4    0    0 -0.11394304326E+02 -0.51170059077E+02  0.23593293065E+03  0.27213978206E+03  0.12509000000E+03 0.  0.
         25    1    3    3    0    0  0.66558564735E+02  0.35034985139E+02  0.10286644204E+03  0.17856793027E+03  0.12509000000E+03 0.  0.
<mgrwt>
<rscale>  2 0.44309016E+03</rscale>
<asrwt>0</asrwt>
<pdfrwt beam="1">  1       21 0.98812005E-01 0.44309016E+03</pdfrwt>
<pdfrwt beam="2">  1       21 0.10742285E-01 0.44309016E+03</pdfrwt>
<totfact> 0.55548970E+04</totfact>
</mgrwt>
</event>
<event>
 7    0  0.4714446E-002  0.4627403E+03  0.7546771E-02  0.1023989E+00
         21   -1    0    0  502  501  0.00000000000E+00  0.00000000000E+00  0.70847677139E+02  0.70847677139E+02  0.00000000000E+00 0.  1.
         21   -1    0    0  501  502 -0.00000000000E+00 -0.00000000000E+00 -0.75559483294E+03  0.75559483294E+03  0.00000000000E+00 0.  1.
      99926    2    1    2    0    0  0.00000000000E+00  0.14210854715E-13 -0.68474715580E+03  0.82644251008E+03  0.46274026742E+03 0.  0.
      99925    2    3    3    0    0 -0.84295448693E+02 -0.81926203174E+02 -0.47355159108E+03  0.55428685592E+03  0.26299274474E+03 0.  0.
         25    1    3    3    0    0  0.84295448693E+02  0.81926203174E+02 -0.21119556472E+03  0.27215565417E+03  0.12509000000E+03 0.  0.
         25    1    4    4    0    0 -0.64918382943E+02 -0.73308390077E+02 -0.22786166926E+03  0.27777142567E+03  0.12509000000E+03 0.  0.
         25    1    4    4    0    0 -0.19377065749E+02 -0.86178130972E+01 -0.24568992182E+03  0.27651543025E+03  0.12509000000E+03 0.  0.
<mgrwt>
<rscale>  2 0.46274027E+03</rscale>
<asrwt>0</asrwt>
<pdfrwt beam="1">  1       21 0.10418777E-01 0.46274027E+03</pdfrwt>
<pdfrwt beam="2">  1       21 0.11111688E+00 0.46274027E+03</pdfrwt>
<totfact> 0.43791495E+04</totfact>
</mgrwt>
</event>
<event>
 7    0  0.4714446E-002  0.4583621E+03  0.7546771E-02  0.1025257E+00
         21   -1    0    0  502  501  0.00000000000E+00  0.00000000000E+00  0.13022177952E+03  0.13022177952E+03  0.00000000000E+00 0.  1.
         21   -1    0    0  501  502 -0.00000000000E+00 -0.00000000000E+00 -0.40334238639E+03  0.40334238639E+03  0.00000000000E+00 0.  1.
      99926    2    1    2    0    0  0.44408920985E-15  0.00000000000E+00 -0.27312060687E+03  0.53356416590E+03  0.45836214202E+03 0.  0.
      99925    2    3    3    0    0 -0.12536588189E+01 -0.35491030624E+02 -0.42383392890E+02  0.26870881872E+03  0.26295796689E+03 0.  0.
         25    1    4    4    0    0 -0.77455121439E+01 -0.20445133111E+02 -0.61525755702E+02  0.14110607053E+03  0.12509000000E+03 0.  0.
         25    1    3    3    0    0  0.12536588189E+01  0.35491030624E+02 -0.23073721398E+03  0.26485534718E+03  0.12509000000E+03 0.  0.
         25    1    4    4    0    0  0.64918533250E+01 -0.15045897512E+02  0.19142362812E+02  0.12760274819E+03  0.12509000000E+03 0.  0.
<mgrwt>
<rscale>  2 0.45836214E+03</rscale>
<asrwt>0</asrwt>
<pdfrwt beam="1">  1       21 0.19150262E-01 0.45836214E+03</pdfrwt>
<pdfrwt beam="2">  1       21 0.59315057E-01 0.45836214E+03</pdfrwt>
<totfact> 0.61315630E+04</totfact>
</mgrwt>
</event>
<event>
 7    0  0.4714446E-002  0.4529640E+03  0.7546771E-02  0.1026842E+00
         21   -1    0    0  502  501  0.00000000000E+00  0.00000000000E+00  0.18479956412E+04  0.18479956412E+04  0.00000000000E+00 0.  1.
         21   -1    0    0  501  502 -0.00000000000E+00 -0.00000000000E+00 -0.27756614192E+02  0.27756614192E+02  0.00000000000E+00 0.  1.
      99926    2    1    2    0    0  0.00000000000E+00  0.00000000000E+00  0.18202390270E+04  0.18757522554E+04  0.45296402524E+03 0.  0.
      99925    2    3    3    0    0  0.83139572983E+02 -0.63580170537E+02  0.99100610072E+03  0.10306313286E+04  0.26296999305E+03 0.  0.
         25    1    4    4    0    0  0.38768392032E+02 -0.48715345762E+02  0.63999234380E+03  0.65506784485E+03  0.12509000000E+03 0.  0.
         25    1    3    3    0    0 -0.83139572983E+02  0.63580170537E+02  0.82923292629E+03  0.84512092675E+03  0.12509000000E+03 0.  0.
         25    1    4    4    0    0  0.44371180951E+02 -0.14864824775E+02  0.35101375691E+03  0.37556348379E+03  0.12509000000E+03 0.  0.
<mgrwt>
<rscale>  2 0.45296403E+03</rscale>
<asrwt>0</asrwt>
<pdfrwt beam="1">  1       21 0.27176398E+00 0.45296403E+03</pdfrwt>
<pdfrwt beam="2">  1       21 0.40818563E-02 0.45296403E+03</pdfrwt>
<totfact> 0.16099165E+04</totfact>
</mgrwt>
</event>
<event>
 7    0  0.4714446E-002  0.4557402E+03  0.7546771E-02  0.1026024E+00
         21   -1    0    0  502  501  0.00000000000E+00  0.00000000000E+00  0.13238062526E+03  0.13238062526E+03  0.00000000000E+00 0. -1.
         21   -1    0    0  501  502 -0.00000000000E+00 -0.00000000000E+00 -0.39223859534E+03  0.39223859534E+03  0.00000000000E+00 0. -1.
      99926    2    1    2    0    0  0.00000000000E+00  0.00000000000E+00 -0.25985797009E+03  0.52461922060E+03  0.45574023523E+03 0.  0.
      99925    2    3    3    0    0 -0.74176530881E+02  0.75828446071E+02 -0.11535964028E+03  0.30603425683E+03  0.26286309894E+03 0.  0.
         25    1    4    4    0    0 -0.77071182501E+02  0.50491753710E+02 -0.54866952154E+02  0.16476430106E+03  0.12509000000E+03 0.  0.
         25    1    3    3    0    0  0.74176530881E+02 -0.75828446071E+02 -0.14449832981E+03  0.21858496376E+03  0.12509000000E+03 0.  0.
         25    1    4    4    0    0  0.28946516203E+01  0.25336692360E+02 -0.60492688127E+02  0.14126995577E+03  0.12509000000E+03 0.  0.
<mgrwt>
<rscale>  2 0.45574024E+03</rscale>
<asrwt>0</asrwt>
<pdfrwt beam="1">  1       21 0.19467739E-01 0.45574024E+03</pdfrwt>
<pdfrwt beam="2">  1       21 0.57682147E-01 0.45574024E+03</pdfrwt>
<totfact> 0.63200534E+04</totfact>
</mgrwt>
</event>
<event>
 7    0  0.4714446E-002  0.4506653E+03  0.7546771E-02  0.1027524E+00
         21   -1    0    0  502  501  0.00000000000E+00  0.00000000000E+00  0.16881287088E+03  0.16881287088E+03  0.00000000000E+00 0.  1.
         21   -1    0    0  501  502 -0.00000000000E+00 -0.00000000000E+00 -0.30077572011E+03  0.30077572011E+03  0.00000000000E+00 0.  1.
      99926    2    1    2    0    0  0.00000000000E+00 -0.35527136788E-14 -0.13196284923E+03  0.46958859099E+03  0.45066534281E+03 0.  0.
      99925    2    3    3    0    0  0.56524267694E+02 -0.22042820959E+02 -0.17784816910E+03  0.32318555320E+03  0.26294115644E+03 0.  0.
         25    1    4    4    0    0  0.52202110971E+02 -0.26143420508E+02 -0.12845526206E+03  0.18856511150E+03  0.12509000000E+03 0.  0.
         25    1    3    3    0    0 -0.56524267694E+02  0.22042820959E+02  0.45885319872E+02  0.14640303779E+03  0.12509000000E+03 0.  0.
         25    1    4    4    0    0  0.43221567230E+01  0.41005995488E+01 -0.49392907044E+02  0.13462044169E+03  0.12509000000E+03 0.  0.
<mgrwt>
<rscale>  2 0.45066534E+03</rscale>
<asrwt>0</asrwt>
<pdfrwt beam="1">  1       21 0.24825423E-01 0.45066534E+03</pdfrwt>
<pdfrwt beam="2">  1       21 0.44231723E-01 0.45066534E+03</pdfrwt>
<totfact> 0.69837432E+04</totfact>
</mgrwt>
</event>
<event>
 7    0  0.4714446E-002  0.4474505E+03  0.7546771E-02  0.1028485E+00
         21   -1    0    0  502  501  0.00000000000E+00  0.00000000000E+00  0.12326546461E+03  0.12326546461E+03  0.00000000000E+00 0. -1.
         21   -1    0    0  501  502 -0.00000000000E+00 -0.00000000000E+00 -0.40605842584E+03  0.40605842584E+03  0.00000000000E+00 0. -1.
      99926    2    1    2    0    0  0.00000000000E+00 -0.71054273576E-14 -0.28279296123E+03  0.52932389046E+03  0.44745046887E+03 0.  0.
      99925    2    3    3    0    0  0.85602170478E+02 -0.58316677688E+02 -0.15278806092E+03  0.32129180473E+03  0.26297464848E+03 0.  0.
         25    1    4    4    0    0  0.13354144900E+02 -0.25662041264E+02 -0.10442202038E+03  0.16549422947E+03  0.12509000000E+03 0.  0.
         25    1    3    3    0    0 -0.85602170478E+02  0.58316677688E+02 -0.13000490030E+03  0.20803208572E+03  0.12509000000E+03 0.  0.
         25    1    4    4    0    0  0.72248025579E+02 -0.32654636424E+02 -0.48366040542E+02  0.15579757526E+03  0.12509000000E+03 0.  0.
<mgrwt>
<rscale>  2 0.44745047E+03</rscale>
<asrwt>0</asrwt>
<pdfrwt beam="1">  1       21 0.18127274E-01 0.44745047E+03</pdfrwt>
<pdfrwt beam="2">  1       21 0.59714475E-01 0.44745047E+03</pdfrwt>
<totfact> 0.67179484E+04</totfact>
</mgrwt>
</event>
<event>
 7    0  0.4714446E-002  0.4622346E+03  0.7546771E-02  0.1024135E+00
         21   -1    0    0  502  501  0.00000000000E+00  0.00000000000E+00  0.23172943057E+03  0.23172943057E+03  0.00000000000E+00 0.  1.
         21   -1    0    0  501  502 -0.00000000000E+00 -0.00000000000E+00 -0.23050676064E+03  0.23050676064E+03  0.00000000000E+00 0.  1.
      99926    2    1    2    0    0  0.00000000000E+00  0.00000000000E+00  0.12226699320E+01  0.46223619121E+03  0.46223457415E+03 0.  0.
      99925    2    3    3    0    0  0.34559881573E+02  0.97526079134E+02 -0.59660172298E+02  0.28885813578E+03  0.26300943885E+03 0.  0.
         25    1    4    4    0    0 -0.80899481908E+01  0.80846844420E+02 -0.37685475058E+02  0.15384850550E+03  0.12509000000E+03 0.  0.
         25    1    3    3    0    0 -0.34559881573E+02 -0.97526079134E+02  0.60882842230E+02  0.17337805543E+03  0.12509000000E+03 0.  0.
         25    1    4    4    0    0  0.42649829764E+02  0.16679234714E+02 -0.21974697240E+02  0.13500963028E+03  0.12509000000E+03 0.  0.
<mgrwt>
<rscale>  2 0.46223457E+03</rscale>
<asrwt>0</asrwt>
<pdfrwt beam="1">  1       21 0.34077858E-01 0.46223457E+03</pdfrwt>
<pdfrwt beam="2">  1       21 0.33898053E-01 0.46223457E+03</pdfrwt>
<totfact> 0.64230386E+04</totfact>
</mgrwt>
</event>
<event>
 7    0  0.4714446E-002  0.4410465E+03  0.7546771E-02  0.1030426E+00
         21   -1    0    0  502  501  0.00000000000E+00  0.00000000000E+00  0.51064136843E+02  0.51064136843E+02  0.00000000000E+00 0.  1.
         21   -1    0    0  501  502 -0.00000000000E+00 -0.00000000000E+00 -0.95234173981E+03  0.95234173981E+03  0.00000000000E+00 0.  1.
      99926    2    1    2    0    0  0.00000000000E+00  0.71054273576E-14 -0.90127760296E+03  0.10034058766E+04  0.44104652327E+03 0.  0.
      99925    2    3    3    0    0 -0.20038162570E+02 -0.46651742490E+02 -0.76944331656E+03  0.81471114909E+03  0.26293216999E+03 0.  0.
         25    1    3    3    0    0  0.20038162570E+02  0.46651742490E+02 -0.13183428640E+03  0.18869472756E+03  0.12509000000E+03 0.  0.
         25    1    4    4    0    0 -0.42939843138E+00 -0.32946114239E+02 -0.50341390621E+03  0.51976792888E+03  0.12509000000E+03 0.  0.
         25    1    4    4    0    0 -0.19608764139E+02 -0.13705628252E+02 -0.26602941035E+03  0.29494322021E+03  0.12509000000E+03 0.  0.
<mgrwt>
<rscale>  2 0.44104652E+03</rscale>
<asrwt>0</asrwt>
<pdfrwt beam="1">  1       21 0.75094317E-02 0.44104652E+03</pdfrwt>
<pdfrwt beam="2">  1       21 0.14005026E+00 0.44104652E+03</pdfrwt>
<totfact> 0.43594755E+04</totfact>
</mgrwt>
</event>
<event>
 7    0  0.4714446E-002  0.4538337E+03  0.7546771E-02  0.1026585E+00
         21   -1    0    0  502  501  0.00000000000E+00  0.00000000000E+00  0.19177687804E+02  0.19177687804E+02  0.00000000000E+00 0. -1.
         21   -1    0    0  501  502 -0.00000000000E+00 -0.00000000000E+00 -0.26849565365E+04  0.26849565365E+04  0.00000000000E+00 0. -1.
      99926    2    1    2    0    0  0.00000000000E+00  0.00000000000E+00 -0.26657788487E+04  0.27041342243E+04  0.45383370622E+03 0.  0.
      99925    2    3    3    0    0  0.97569660354E+02 -0.36669760982E+02 -0.19237660461E+04  0.19444665224E+04  0.26307745368E+03 0.  0.
         25    1    4    4    0    0  0.88029845944E+02 -0.28121920025E+02 -0.95648770464E+03  0.96904919039E+03  0.12509000000E+03 0.  0.
         25    1    4    4    0    0  0.95398144096E+01 -0.85478409565E+01 -0.96727834146E+03  0.97541733202E+03  0.12509000000E+03 0.  0.
         25    1    3    3    0    0 -0.97569660354E+02  0.36669760982E+02 -0.74201280261E+03  0.75966770191E+03  0.12509000000E+03 0.  0.
<mgrwt>
<rscale>  2 0.45383371E+03</rscale>
<asrwt>0</asrwt>
<pdfrwt beam="1">  1       21 0.28202521E-02 0.45383371E+03</pdfrwt>
<pdfrwt beam="2">  1       21 0.39484601E+00 0.45383371E+03</pdfrwt>
<totfact> 0.53087485E+03</totfact>
</mgrwt>
</event>
<event>
 7    0  0.4714446E-002  0.4244015E+03  0.7546771E-02  0.1035643E+00
         21   -1    0    0  502  501  0.00000000000E+00  0.00000000000E+00  0.12227288600E+03  0.12227288600E+03  0.00000000000E+00 0. -1.
         21   -1    0    0  501  502 -0.00000000000E+00 -0.00000000000E+00 -0.36826774611E+03  0.36826774611E+03  0.00000000000E+00 0. -1.
      99926    2    1    2    0    0  0.00000000000E+00  0.00000000000E+00 -0.24599486012E+03  0.49054063211E+03  0.42440150865E+03 0.  0.
      99925    2    3    3    0    0  0.10922184176E+02 -0.76725646799E+02 -0.13072390632E+03  0.30361546025E+03  0.26284499051E+03 0.  0.
         25    1    3    3    0    0 -0.10922184176E+02  0.76725646799E+02 -0.11527095380E+03  0.18692517186E+03  0.12509000000E+03 0.  0.
         25    1    4    4    0    0 -0.17048271705E+02 -0.25069761936E+02 -0.97528743744E+02  0.16148839119E+03  0.12509000000E+03 0.  0.
         25    1    4    4    0    0  0.27970455881E+02 -0.51655884862E+02 -0.33195162571E+02  0.14212706907E+03  0.12509000000E+03 0.  0.
<mgrwt>
<rscale>  2 0.42440151E+03</rscale>
<asrwt>0</asrwt>
<pdfrwt beam="1">  1       21 0.17981306E-01 0.42440151E+03</pdfrwt>
<pdfrwt beam="2">  1       21 0.54157022E-01 0.42440151E+03</pdfrwt>
<totfact> 0.84713842E+04</totfact>
</mgrwt>
</event>
<event>
 7    0  0.4714446E-002  0.4394578E+03  0.7546771E-02  0.1030913E+00
         21   -1    0    0  502  501  0.00000000000E+00  0.00000000000E+00  0.75781089206E+03  0.75781089206E+03  0.00000000000E+00 0.  1.
         21   -1    0    0  501  502 -0.00000000000E+00 -0.00000000000E+00 -0.63710870364E+02  0.63710870364E+02  0.00000000000E+00 0.  1.
      99926    2    1    2    0    0  0.00000000000E+00 -0.71054273576E-14  0.69410002170E+03  0.82152176243E+03  0.43945780914E+03 0.  0.
      99925    2    3    3    0    0  0.60524925616E+01  0.39993156497E+02  0.27654289683E+03  0.38375750411E+03  0.26297863590E+03 0.  0.
         25    1    4    4    0    0  0.32358604803E+02  0.34732094897E+02  0.10675033805E+03  0.17116232206E+03  0.12509000000E+03 0.  0.
         25    1    4    4    0    0 -0.26306112242E+02  0.52610616000E+01  0.16979255878E+03  0.21259518205E+03  0.12509000000E+03 0.  0.
         25    1    3    3    0    0 -0.60524925616E+01 -0.39993156497E+02  0.41755712487E+03  0.43776425832E+03  0.12509000000E+03 0.  0.
<mgrwt>
<rscale>  2 0.43945781E+03</rscale>
<asrwt>0</asrwt>
<pdfrwt beam="1">  1       21 0.11144277E+00 0.43945781E+03</pdfrwt>
<pdfrwt beam="2">  1       21 0.93692461E-02 0.43945781E+03</pdfrwt>
<totfact> 0.52904088E+04</totfact>
</mgrwt>
</event>
<event>
 7    0  0.4714446E-002  0.4548767E+03  0.7546771E-02  0.1026278E+00
         21   -1    0    0  502  501  0.00000000000E+00  0.00000000000E+00  0.63638544069E+02  0.63638544069E+02  0.00000000000E+00 0.  1.
         21   -1    0    0  501  502 -0.00000000000E+00 -0.00000000000E+00 -0.81284404712E+03  0.81284404712E+03  0.00000000000E+00 0.  1.
      99926    2    1    2    0    0  0.00000000000E+00  0.71054273576E-14 -0.74920550305E+03  0.87648259119E+03  0.45487673809E+03 0.  0.
      99925    2    3    3    0    0 -0.10419402491E+03  0.42125151485E+02 -0.49052822406E+03  0.56794999002E+03  0.26328374306E+03 0.  0.
         25    1    4    4    0    0 -0.87967126716E+02  0.50123005002E+01 -0.29509310721E+03  0.33240154717E+03  0.12509000000E+03 0.  0.
         25    1    4    4    0    0 -0.16226898191E+02  0.37112850985E+02 -0.19543511685E+03  0.23554844285E+03  0.12509000000E+03 0.  0.
         25    1    3    3    0    0  0.10419402491E+03 -0.42125151485E+02 -0.25867727899E+03  0.30853260116E+03  0.12509000000E+03 0.  0.
<mgrwt>
<rscale>  2 0.45487674E+03</rscale>
<asrwt>0</asrwt>
<pdfrwt beam="1">  1       21 0.93586097E-02 0.45487674E+03</pdfrwt>
<pdfrwt beam="2">  1       21 0.11953589E+00 0.45487674E+03</pdfrwt>
<totfact> 0.44308915E+04</totfact>
</mgrwt>
</event>
<event>
 7    0  0.4714446E-002  0.4550735E+03  0.7546771E-02  0.1026220E+00
         21   -1    0    0  502  501  0.00000000000E+00  0.00000000000E+00  0.47017099673E+03  0.47017099673E+03  0.00000000000E+00 0.  1.
         21   -1    0    0  501  502 -0.00000000000E+00 -0.00000000000E+00 -0.11011519306E+03  0.11011519306E+03  0.00000000000E+00 0.  1.
      99926    2    1    2    0    0 -0.14210854715E-13  0.00000000000E+00  0.36005580367E+03  0.58028618980E+03  0.45507348892E+03 0.  0.
      99925    2    3    3    0    0  0.94079686878E+02 -0.47346935281E+02  0.17363601261E+03  0.33230924256E+03  0.26303468983E+03 0.  0.
         25    1    4    4    0    0  0.83413407385E+02 -0.38645467787E+01  0.88347031161E+02  0.17442888886E+03  0.12509000000E+03 0.  0.
         25    1    3    3    0    0 -0.94079686878E+02  0.47346935281E+02  0.18641979105E+03  0.24797694723E+03  0.12509000000E+03 0.  0.
         25    1    4    4    0    0  0.10666279493E+02 -0.43482388503E+02  0.85288981453E+02  0.15788035370E+03  0.12509000000E+03 0.  0.
<mgrwt>
<rscale>  2 0.45507349E+03</rscale>
<asrwt>0</asrwt>
<pdfrwt beam="1">  1       21 0.69142793E-01 0.45507349E+03</pdfrwt>
<pdfrwt beam="2">  1       21 0.16193411E-01 0.45507349E+03</pdfrwt>
<totfact> 0.59873620E+04</totfact>
</mgrwt>
</event>
<event>
 7    0  0.4714446E-002  0.4558055E+03  0.7546771E-02  0.1026005E+00
         21   -1    0    0  502  501  0.00000000000E+00  0.00000000000E+00  0.12888132123E+03  0.12888132123E+03  0.00000000000E+00 0.  1.
         21   -1    0    0  501  502 -0.00000000000E+00 -0.00000000000E+00 -0.40300376431E+03  0.40300376431E+03  0.00000000000E+00 0.  1.
      99926    2    1    2    0    0  0.00000000000E+00  0.00000000000E+00 -0.27412244308E+03  0.53188508554E+03  0.45580547432E+03 0.  0.
      99925    2    3    3    0    0 -0.10056926814E+03 -0.50905058594E+02 -0.19211105412E+03  0.34459152264E+03  0.26292804658E+03 0.  0.
         25    1    3    3    0    0  0.10056926814E+03  0.50905058594E+02 -0.82011388964E+02  0.18729356290E+03  0.12509000000E+03 0.  0.
         25    1    4    4    0    0 -0.77721936250E+02  0.43924011019E+01 -0.10287865900E+03  0.17969841162E+03  0.12509000000E+03 0.  0.
         25    1    4    4    0    0 -0.22847331890E+02 -0.55297459696E+02 -0.89232395118E+02  0.16489311102E+03  0.12509000000E+03 0.  0.
<mgrwt>
<rscale>  2 0.45580547E+03</rscale>
<asrwt>0</asrwt>
<pdfrwt beam="1">  1       21 0.18953136E-01 0.45580547E+03</pdfrwt>
<pdfrwt beam="2">  1       21 0.59265259E-01 0.45580547E+03</pdfrwt>
<totfact> 0.62677994E+04</totfact>
</mgrwt>
</event>
<event>
 7    0  0.4714446E-002  0.4475472E+03  0.7546771E-02  0.1028456E+00
         21   -1    0    0  502  501  0.00000000000E+00  0.00000000000E+00  0.53610702567E+02  0.53610702567E+02  0.00000000000E+00 0.  1.
         21   -1    0    0  501  502 -0.00000000000E+00 -0.00000000000E+00 -0.93404158465E+03  0.93404158465E+03  0.00000000000E+00 0.  1.
      99926    2    1    2    0    0  0.00000000000E+00 -0.14210854715E-13 -0.88043088209E+03  0.98765228722E+03  0.44754720681E+03 0.  0.
      99925    2    3    3    0    0  0.65879065269E+02 -0.63925444801E+02 -0.44083156039E+03  0.52147465426E+03  0.26301489819E+03 0.  0.
         25    1    4    4    0    0  0.42061326596E+02 -0.12464422791E+02 -0.15220949245E+03  0.20184091439E+03  0.12509000000E+03 0.  0.
         25    1    4    4    0    0  0.23817738673E+02 -0.51461022010E+02 -0.28862206794E+03  0.31963373987E+03  0.12509000000E+03 0.  0.
         25    1    3    3    0    0 -0.65879065269E+02  0.63925444801E+02 -0.43959932170E+03  0.46617763296E+03  0.12509000000E+03 0.  0.
<mgrwt>
<rscale>  2 0.44754721E+03</rscale>
<asrwt>0</asrwt>
<pdfrwt beam="1">  1       21 0.78839273E-02 0.44754721E+03</pdfrwt>
<pdfrwt beam="2">  1       21 0.13735905E+00 0.44754721E+03</pdfrwt>
<totfact> 0.42045249E+04</totfact>
</mgrwt>
</event>
<event>
 7    0  0.4714446E-002  0.4641928E+03  0.7546771E-02  0.1023572E+00
         21   -1    0    0  502  501  0.00000000000E+00  0.00000000000E+00  0.11427355224E+03  0.11427355224E+03  0.00000000000E+00 0.  1.
         21   -1    0    0  501  502 -0.00000000000E+00 -0.00000000000E+00 -0.47140164835E+03  0.47140164835E+03  0.00000000000E+00 0.  1.
      99926    2    1    2    0    0  0.00000000000E+00  0.00000000000E+00 -0.35712809611E+03  0.58567520059E+03  0.46419280859E+03 0.  0.
      99925    2    3    3    0    0 -0.39789555248E+02 -0.92085053445E+02 -0.30971955467E+03  0.41846890980E+03  0.26292044453E+03 0.  0.
         25    1    3    3    0    0  0.39789555248E+02  0.92085053445E+02 -0.47408541447E+02  0.16720629078E+03  0.12509000000E+03 0.  0.
         25    1    4    4    0    0 -0.24916932773E+02 -0.31784366876E+02 -0.20657069602E+03  0.24484701360E+03  0.12509000000E+03 0.  0.
         25    1    4    4    0    0 -0.14872622475E+02 -0.60300686569E+02 -0.10314885865E+03  0.17362189620E+03  0.12509000000E+03 0.  0.
<mgrwt>
<rscale>  2 0.46419281E+03</rscale>
<asrwt>0</asrwt>
<pdfrwt beam="1">  1       21 0.16804934E-01 0.46419281E+03</pdfrwt>
<pdfrwt beam="2">  1       21 0.69323772E-01 0.46419281E+03</pdfrwt>
<totfact> 0.55429710E+04</totfact>
</mgrwt>
</event>
<event>
 7    0  0.4714446E-002  0.4360277E+03  0.7546771E-02  0.1031973E+00
         21   -1    0    0  502  501  0.00000000000E+00  0.00000000000E+00  0.47754199390E+02  0.47754199390E+02  0.00000000000E+00 0. -1.
         21   -1    0    0  501  502 -0.00000000000E+00 -0.00000000000E+00 -0.99530583889E+03  0.99530583889E+03  0.00000000000E+00 0. -1.
      99926    2    1    2    0    0  0.00000000000E+00  0.17763568394E-14 -0.94755163950E+03  0.10430600383E+04  0.43602767565E+03 0.  0.
      99925    2    3    3    0    0 -0.73067733747E+02 -0.10910341737E+02 -0.74773658794E+03  0.79601451170E+03  0.26281394298E+03 0.  0.
         25    1    4    4    0    0 -0.36778152962E+02  0.33246186754E+02 -0.33726053409E+03  0.36311171480E+03  0.12509000000E+03 0.  0.
         25    1    4    4    0    0 -0.36289580785E+02 -0.44156528491E+02 -0.41047605386E+03  0.43290279691E+03  0.12509000000E+03 0.  0.
         25    1    3    3    0    0  0.73067733747E+02  0.10910341737E+02 -0.19981505155E+03  0.24704552657E+03  0.12509000000E+03 0.  0.
<mgrwt>
<rscale>  2 0.43602768E+03</rscale>
<asrwt>0</asrwt>
<pdfrwt beam="1">  1       21 0.70226769E-02 0.43602768E+03</pdfrwt>
<pdfrwt beam="2">  1       21 0.14636849E+00 0.43602768E+03</pdfrwt>
<totfact> 0.43647486E+04</totfact>
</mgrwt>
</event>
<event>
 7    0  0.4714446E-002  0.4539977E+03  0.7546771E-02  0.1026537E+00
         21   -1    0    0  502  501  0.00000000000E+00  0.00000000000E+00  0.24770054274E+03  0.24770054274E+03  0.00000000000E+00 0.  1.
         21   -1    0    0  501  502 -0.00000000000E+00 -0.00000000000E+00 -0.20802734898E+03  0.20802734898E+03  0.00000000000E+00 0.  1.
      99926    2    1    2    0    0  0.14210854715E-13  0.00000000000E+00  0.39673193759E+02  0.45572789171E+03  0.45399774117E+03 0.  0.
      99925    2    3    3    0    0  0.74324516425E+02  0.35587471142E+02  0.10146679954E+03  0.29368913197E+03  0.26299656458E+03 0.  0.
         25    1    4    4    0    0  0.41631982773E+02 -0.22396184229E+02  0.54589936257E+02  0.14443815389E+03  0.12509000000E+03 0.  0.
         25    1    3    3    0    0 -0.74324516425E+02 -0.35587471142E+02 -0.61793605786E+02  0.16203875975E+03  0.12509000000E+03 0.  0.
         25    1    4    4    0    0  0.32692533651E+02  0.57983655371E+02  0.46876863288E+02  0.14925097808E+03  0.12509000000E+03 0.  0.
<mgrwt>
<rscale>  2 0.45399774E+03</rscale>
<asrwt>0</asrwt>
<pdfrwt beam="1">  1       21 0.36426550E-01 0.45399774E+03</pdfrwt>
<pdfrwt beam="2">  1       21 0.30592257E-01 0.45399774E+03</pdfrwt>
<totfact> 0.69042988E+04</totfact>
</mgrwt>
</event>
<event>
 7    0  0.4714446E-002  0.4524800E+03  0.7546771E-02  0.1026985E+00
         21   -1    0    0  502  501  0.00000000000E+00  0.00000000000E+00  0.69155718603E+02  0.69155718603E+02  0.00000000000E+00 0.  1.
         21   -1    0    0  501  502 -0.00000000000E+00 -0.00000000000E+00 -0.74013454177E+03  0.74013454177E+03  0.00000000000E+00 0.  1.
      99926    2    1    2    0    0  0.00000000000E+00  0.00000000000E+00 -0.67097882317E+03  0.80929026037E+03  0.45247999336E+03 0.  0.
      99925    2    3    3    0    0 -0.89794605933E+02 -0.19372838553E+02 -0.31216649523E+03  0.41835270409E+03  0.26293095320E+03 0.  0.
         25    1    4    4    0    0 -0.84944878571E+02 -0.61650289175E+00 -0.15479642951E+03  0.21639190179E+03  0.12509000000E+03 0.  0.
         25    1    3    3    0    0  0.89794605933E+02  0.19372838553E+02 -0.35881232794E+03  0.39093755628E+03  0.12509000000E+03 0.  0.
         25    1    4    4    0    0 -0.48497273624E+01 -0.18756335662E+02 -0.15737006572E+03  0.20196080230E+03  0.12509000000E+03 0.  0.
<mgrwt>
<rscale>  2 0.45247999E+03</rscale>
<asrwt>0</asrwt>
<pdfrwt beam="1">  1       21 0.10169958E-01 0.45247999E+03</pdfrwt>
<pdfrwt beam="2">  1       21 0.10884332E+00 0.45247999E+03</pdfrwt>
<totfact> 0.48266147E+04</totfact>
</mgrwt>
</event>
<event>
 7    0  0.4714446E-002  0.4519192E+03  0.7546771E-02  0.1027151E+00
         21   -1    0    0  502  501  0.00000000000E+00  0.00000000000E+00  0.13749598347E+03  0.13749598347E+03  0.00000000000E+00 0. -1.
         21   -1    0    0  501  502 -0.00000000000E+00 -0.00000000000E+00 -0.37133984680E+03  0.37133984680E+03  0.00000000000E+00 0. -1.
      99926    2    1    2    0    0  0.00000000000E+00  0.35527136788E-14 -0.23384386333E+03  0.50883583028E+03  0.45191918499E+03 0.  0.
      99925    2    3    3    0    0 -0.70375805203E+02  0.30192227382E+02 -0.59048674425E+02  0.28065784993E+03  0.26347249994E+03 0.  0.
         25    1    4    4    0    0 -0.50541609786E+02  0.46050466705E+01  0.77220867299E+01  0.13521390275E+03  0.12509000000E+03 0.  0.
         25    1    4    4    0    0 -0.19834195417E+02  0.25587180712E+02 -0.66770761155E+02  0.14544394718E+03  0.12509000000E+03 0.  0.
         25    1    3    3    0    0  0.70375805203E+02 -0.30192227382E+02 -0.17479518890E+03  0.22817798035E+03  0.12509000000E+03 0.  0.
<mgrwt>
<rscale>  2 0.45191918E+03</rscale>
<asrwt>0</asrwt>
<pdfrwt beam="1">  1       21 0.20219998E-01 0.45191918E+03</pdfrwt>
<pdfrwt beam="2">  1       21 0.54608801E-01 0.45191918E+03</pdfrwt>
<totfact> 0.66259542E+04</totfact>
</mgrwt>
</event>
<event>
 7    0  0.4714446E-002  0.4676732E+03  0.7546771E-02  0.1022579E+00
         21   -1    0    0  502  501  0.00000000000E+00  0.00000000000E+00  0.52652130977E+03  0.52652130977E+03  0.00000000000E+00 0.  1.
         21   -1    0    0  501  502 -0.00000000000E+00 -0.00000000000E+00 -0.10385060328E+03  0.10385060328E+03  0.00000000000E+00 0.  1.
      99926    2    1    2    0    0 -0.35527136788E-14  0.00000000000E+00  0.42267070649E+03  0.63037191305E+03  0.46767320069E+03 0.  0.
      99925    2    3    3    0    0  0.27961210394E+02  0.12112351162E+03  0.27648704756E+03  0.40130881128E+03  0.26296566352E+03 0.  0.
         25    1    3    3    0    0 -0.27961210394E+02 -0.12112351162E+03  0.14618365893E+03  0.22906310177E+03  0.12509000000E+03 0.  0.
         25    1    4    4    0    0  0.46196914555E+02  0.49872264300E+02  0.16749408547E+03  0.21982532709E+03  0.12509000000E+03 0.  0.
         25    1    4    4    0    0 -0.18235704161E+02  0.71251247321E+02  0.10899296209E+03  0.18148348420E+03  0.12509000000E+03 0.  0.
<mgrwt>
<rscale>  2 0.46767320E+03</rscale>
<asrwt>0</asrwt>
<pdfrwt beam="1">  1       21 0.77429603E-01 0.46767320E+03</pdfrwt>
<pdfrwt beam="2">  1       21 0.15272148E-01 0.46767320E+03</pdfrwt>
<totfact> 0.51497621E+04</totfact>
</mgrwt>
</event>
<event>
 7    0  0.4714446E-002  0.4601913E+03  0.7546771E-02  0.1024726E+00
         21   -1    0    0  502  501  0.00000000000E+00  0.00000000000E+00  0.35938437721E+03  0.35938437721E+03  0.00000000000E+00 0.  1.
         21   -1    0    0  501  502 -0.00000000000E+00 -0.00000000000E+00 -0.14731863308E+03  0.14731863308E+03  0.00000000000E+00 0.  1.
      99926    2    1    2    0    0  0.71054273576E-14  0.00000000000E+00  0.21206574413E+03  0.50670301029E+03  0.46019133065E+03 0.  0.
      99925    2    3    3    0    0 -0.38036422140E+02 -0.10699812167E+03  0.94859947963E+02  0.30108181925E+03  0.26221457760E+03 0.  0.
         25    1    4    4    0    0 -0.54145638651E+02 -0.55600140447E+02  0.68473904123E+02  0.16235550329E+03  0.12509000000E+03 0.  0.
         25    1    4    4    0    0  0.16109216511E+02 -0.51397981225E+02  0.26386043839E+02  0.13872631596E+03  0.12509000000E+03 0.  0.
         25    1    3    3    0    0  0.38036422140E+02  0.10699812167E+03  0.11720579616E+03  0.20562119104E+03  0.12509000000E+03 0.  0.
<mgrwt>
<rscale>  2 0.46019133E+03</rscale>
<asrwt>0</asrwt>
<pdfrwt beam="1">  1       21 0.52850644E-01 0.46019133E+03</pdfrwt>
<pdfrwt beam="2">  1       21 0.21664505E-01 0.46019133E+03</pdfrwt>
<totfact> 0.62199486E+04</totfact>
</mgrwt>
</event>
<event>
 7    0  0.4714446E-002  0.4521663E+03  0.7546771E-02  0.1027078E+00
         21   -1    0    0  502  501  0.00000000000E+00  0.00000000000E+00  0.15259891093E+04  0.15259891093E+04  0.00000000000E+00 0. -1.
         21   -1    0    0  501  502 -0.00000000000E+00 -0.00000000000E+00 -0.33495381714E+02  0.33495381714E+02  0.00000000000E+00 0. -1.
      99926    2    1    2    0    0  0.14210854715E-13 -0.35527136788E-14  0.14924937276E+04  0.15594844910E+04  0.45216628671E+03 0.  0.
      99925    2    3    3    0    0 -0.10774453657E+03  0.24478273103E+02  0.92806195288E+03  0.97089396492E+03  0.26292210199E+03 0.  0.
         25    1    3    3    0    0  0.10774453657E+03 -0.24478273103E+02  0.56443177474E+03  0.58859052613E+03  0.12509000000E+03 0.  0.
         25    1    4    4    0    0 -0.44996683344E+02 -0.26881576020E+02  0.47074243157E+03  0.48989107526E+03  0.12509000000E+03 0.  0.
         25    1    4    4    0    0 -0.62747853222E+02  0.51359849123E+02  0.45731952131E+03  0.48100288966E+03  0.12509000000E+03 0.  0.
<mgrwt>
<rscale>  2 0.45216629E+03</rscale>
<asrwt>0</asrwt>
<pdfrwt beam="1">  1       21 0.22441012E+00 0.45216629E+03</pdfrwt>
<pdfrwt beam="2">  1       21 0.49257925E-02 0.45216629E+03</pdfrwt>
<totfact> 0.22857120E+04</totfact>
</mgrwt>
</event>
