<event>
 6    0  0.1191266E-005  0.6060656E+03  0.7546771E-02  0.9892901E-01
         21   -1    0    0  502  501  0.00000000000E+00  0.00000000000E+00  0.20248650227E+03  0.20248650227E+03  0.00000000000E+00 0.  1.
         21   -1    0    0  501  502 -0.00000000000E+00 -0.00000000000E+00 -0.45350613416E+03  0.45350613416E+03  0.00000000000E+00 0.  1.
      99926    2    1    2    0    0  0.53500617873E+02  0.52084381493E+02 -0.23416218428E+03  0.50934073379E+03  0.44611764776E+03 0.  0.
         25    1    1    2    0    0 -0.53500617873E+02 -0.52084381493E+02 -0.16857447603E+02  0.14665190264E+03  0.12509000000E+03 0.  0.
         25    1    3    3    0    0 -0.32066819583E+02  0.41383142373E+02  0.82069095481E+02  0.15850454228E+03  0.12509000000E+03 0.  0.
         25    1    3    3    0    0  0.85567437456E+02  0.10701239121E+02 -0.31623127976E+03  0.35083619151E+03  0.12509000000E+03 0.  0.
<mgrwt>
<rscale>  2 0.60606558E+03</rscale>
<asrwt>0</asrwt>
<pdfrwt beam="1">  1       21 0.29777427E-01 0.60606558E+03</pdfrwt>
<pdfrwt beam="2">  1       21 0.66692078E-01 0.60606558E+03</pdfrwt>
<totfact> 0.19460023E+04</totfact>
</mgrwt>
</event>
<event>
 6    0  0.1191266E-005  0.6167367E+03  0.7546771E-02  0.9871278E-01
         21   -1    0    0  502  501  0.00000000000E+00  0.00000000000E+00  0.30711342472E+03  0.30711342472E+03  0.00000000000E+00 0.  1.
         21   -1    0    0  501  502 -0.00000000000E+00 -0.00000000000E+00 -0.30962844725E+03  0.30962844725E+03  0.00000000000E+00 0.  1.
      99926    2    1    2    0    0 -0.55781462914E+02 -0.34821445379E+02 -0.68324430902E+02  0.46084930962E+03  0.45098753160E+03 0.  0.
         25    1    3    3    0    0 -0.29858447084E+02 -0.20455971587E+03 -0.56123656864E+02  0.24805962424E+03  0.12509000000E+03 0.  0.
         25    1    3    3    0    0 -0.25923015830E+02  0.16973827049E+03 -0.12200774039E+02  0.21278968538E+03  0.12509000000E+03 0.  0.
         25    1    1    2    0    0  0.55781462914E+02  0.34821445379E+02  0.65809408377E+02  0.15589256234E+03  0.12509000000E+03 0.  0.
<mgrwt>
<rscale>  2 0.61673674E+03</rscale>
<asrwt>0</asrwt>
<pdfrwt beam="1">  1       21 0.45163739E-01 0.61673674E+03</pdfrwt>
<pdfrwt beam="2">  1       21 0.45533595E-01 0.61673674E+03</pdfrwt>
<totfact> 0.18967753E+04</totfact>
</mgrwt>
</event>
<event>
 6    0  0.1191266E-005  0.6335986E+03  0.7546771E-02  0.9838051E-01
         21   -1    0    0  502  501  0.00000000000E+00  0.00000000000E+00  0.85085734074E+03  0.85085734074E+03  0.00000000000E+00 0.  1.
         21   -1    0    0  501  502 -0.00000000000E+00 -0.00000000000E+00 -0.11795374689E+03  0.11795374689E+03  0.00000000000E+00 0.  1.
      99926    2    1    2    0    0  0.42385076088E+02  0.58902585368E+02  0.66415730748E+03  0.80868748154E+03  0.45563637310E+03 0.  0.
         25    1    3    3    0    0  0.10464991775E+03  0.34788498158E+01  0.63493121349E+03  0.65555233326E+03  0.12509000000E+03 0.  0.
         25    1    1    2    0    0 -0.42385076088E+02 -0.58902585368E+02  0.68746286371E+02  0.16012360609E+03  0.12509000000E+03 0.  0.
         25    1    3    3    0    0 -0.62264841663E+02  0.55423735552E+02  0.29226093990E+02  0.15313514828E+03  0.12509000000E+03 0.  0.
<mgrwt>
<rscale>  2 0.63359865E+03</rscale>
<asrwt>0</asrwt>
<pdfrwt beam="1">  1       21 0.12512608E+00 0.63359865E+03</pdfrwt>
<pdfrwt beam="2">  1       21 0.17346140E-01 0.63359865E+03</pdfrwt>
<totfact> 0.12170930E+04</totfact>
</mgrwt>
</event>
<event>
 6    0  0.1191266E-005  0.6134831E+03  0.7546771E-02  0.9877821E-01
         21   -1    0    0  502  501  0.00000000000E+00  0.00000000000E+00  0.15060314351E+03  0.15060314351E+03  0.00000000000E+00 0.  1.
         21   -1    0    0  501  502 -0.00000000000E+00 -0.00000000000E+00 -0.62475699912E+03  0.62475699912E+03  0.00000000000E+00 0.  1.
      99926    2    1    2    0    0  0.25220921133E+01  0.58326485924E+02 -0.29357437885E+03  0.54806123053E+03  0.45910440707E+03 0.  0.
         25    1    3    3    0    0  0.20535583374E+02  0.17551846452E+03 -0.10647171175E+02  0.21677018228E+03  0.12509000000E+03 0.  0.
         25    1    1    2    0    0 -0.25220921133E+01 -0.58326485924E+02 -0.18057947677E+03  0.22729891210E+03  0.12509000000E+03 0.  0.
         25    1    3    3    0    0 -0.18013491261E+02 -0.11719197859E+03 -0.28292720767E+03  0.33129104825E+03  0.12509000000E+03 0.  0.
<mgrwt>
<rscale>  2 0.61348307E+03</rscale>
<asrwt>0</asrwt>
<pdfrwt beam="1">  1       21 0.22147521E-01 0.61348307E+03</pdfrwt>
<pdfrwt beam="2">  1       21 0.91876028E-01 0.61348307E+03</pdfrwt>
<totfact> 0.16537260E+04</totfact>
</mgrwt>
</event>
<event>
 6    0  0.1191266E-005  0.7212602E+03  0.7546771E-02  0.9681550E-01
         21   -1    0    0  502  501  0.00000000000E+00  0.00000000000E+00  0.17913837904E+04  0.17913837904E+04  0.00000000000E+00 0.  1.
         21   -1    0    0  501  502 -0.00000000000E+00 -0.00000000000E+00 -0.72599779829E+02  0.72599779829E+02  0.00000000000E+00 0.  1.
      99926    2    1    2    0    0  0.56736793559E+02 -0.18504934354E+03  0.11150356296E+04  0.12177468187E+04  0.44960041827E+03 0.  0.
         25    1    3    3    0    0  0.22262275262E+02 -0.14439876415E+03  0.15197212176E+03  0.24513189486E+03  0.12509000000E+03 0.  0.
         25    1    1    2    0    0 -0.56736793559E+02  0.18504934354E+03  0.60374838103E+03  0.64623675149E+03  0.12509000000E+03 0.  0.
         25    1    3    3    0    0  0.34474518296E+02 -0.40650579390E+02  0.96306350779E+03  0.97261492388E+03  0.12509000000E+03 0.  0.
<mgrwt>
<rscale>  2 0.72126020E+03</rscale>
<asrwt>0</asrwt>
<pdfrwt beam="1">  1       21 0.26343877E+00 0.72126020E+03</pdfrwt>
<pdfrwt beam="2">  1       21 0.10676439E-01 0.72126020E+03</pdfrwt>
<totfact> 0.30489673E+03</totfact>
</mgrwt>
</event>
<event>
 6    0  0.1191266E-005  0.6142221E+03  0.7546771E-02  0.9876331E-01
         21   -1    0    0  502  501  0.00000000000E+00  0.00000000000E+00  0.93017235223E+03  0.93017235223E+03  0.00000000000E+00 0. -1.
         21   -1    0    0  501  502 -0.00000000000E+00 -0.00000000000E+00 -0.10139754585E+03  0.10139754585E+03  0.00000000000E+00 0. -1.
      99926    2    1    2    0    0  0.49917629366E+02  0.34976520704E+02  0.73149970634E+03  0.86179039429E+03  0.45152600876E+03 0.  0.
         25    1    3    3    0    0 -0.12090634600E+02  0.19473989410E+03  0.28422978081E+03  0.36674771465E+03  0.12509000000E+03 0.  0.
         25    1    3    3    0    0  0.62008263967E+02 -0.15976337340E+03  0.44726992553E+03  0.49504267963E+03  0.12509000000E+03 0.  0.
         25    1    1    2    0    0 -0.49917629366E+02 -0.34976520704E+02  0.97275100044E+02  0.16977950380E+03  0.12509000000E+03 0.  0.
<mgrwt>
<rscale>  2 0.61422209E+03</rscale>
<asrwt>0</asrwt>
<pdfrwt beam="1">  1       21 0.13679005E+00 0.61422209E+03</pdfrwt>
<pdfrwt beam="2">  1       21 0.14911404E-01 0.61422209E+03</pdfrwt>
<totfact> 0.12849496E+04</totfact>
</mgrwt>
</event>
<event>
 6    0  0.1191266E-005  0.6832346E+03  0.7546771E-02  0.9746341E-01
         21   -1    0    0  502  501  0.00000000000E+00  0.00000000000E+00  0.77261013343E+03  0.77261013343E+03  0.00000000000E+00 0.  1.
         21   -1    0    0  501  502 -0.00000000000E+00 -0.00000000000E+00 -0.15104949906E+03  0.15104949906E+03  0.00000000000E+00 0.  1.
      99926    2    1    2    0    0  0.14127423696E+02 -0.15018014370E+03  0.50938696260E+03  0.69786304172E+03  0.45253075881E+03 0.  0.
         25    1    3    3    0    0  0.39698076466E+02  0.12013727652E+03  0.19807998448E+03  0.26625568696E+03  0.12509000000E+03 0.  0.
         25    1    3    3    0    0 -0.25570652771E+02 -0.27031742022E+03  0.31130697813E+03  0.43160735477E+03  0.12509000000E+03 0.  0.
         25    1    1    2    0    0 -0.14127423696E+02  0.15018014370E+03  0.11217367177E+03  0.22579659076E+03  0.12509000000E+03 0.  0.
<mgrwt>
<rscale>  2 0.68323458E+03</rscale>
<asrwt>0</asrwt>
<pdfrwt beam="1">  1       21 0.11361914E+00 0.68323458E+03</pdfrwt>
<pdfrwt beam="2">  1       21 0.22213162E-01 0.68323458E+03</pdfrwt>
<totfact> 0.96079450E+03</totfact>
</mgrwt>
</event>
<event>
 6    0  0.1191266E-005  0.5880393E+03  0.7546771E-02  0.9930536E-01
         21   -1    0    0  502  501  0.00000000000E+00  0.00000000000E+00  0.12880496213E+03  0.12880496213E+03  0.00000000000E+00 0.  1.
         21   -1    0    0  501  502 -0.00000000000E+00 -0.00000000000E+00 -0.67115073170E+03  0.67115073170E+03  0.00000000000E+00 0.  1.
      99926    2    1    2    0    0 -0.24121977607E+02 -0.47694126457E+02 -0.41274366677E+03  0.61207058890E+03  0.44879446503E+03 0.  0.
         25    1    1    2    0    0  0.24121977607E+02  0.47694126457E+02 -0.12960210280E+03  0.18788510492E+03  0.12509000000E+03 0.  0.
         25    1    3    3    0    0 -0.56910486203E+02  0.10880187400E+03 -0.36292357456E+03  0.40303558192E+03  0.12509000000E+03 0.  0.
         25    1    3    3    0    0  0.32788508595E+02 -0.15649600046E+03 -0.49820092210E+02  0.20903500698E+03  0.12509000000E+03 0.  0.
<mgrwt>
<rscale>  2 0.58803927E+03</rscale>
<asrwt>0</asrwt>
<pdfrwt beam="1">  1       21 0.18941906E-01 0.58803927E+03</pdfrwt>
<pdfrwt beam="2">  1       21 0.98698636E-01 0.58803927E+03</pdfrwt>
<totfact> 0.18872834E+04</totfact>
</mgrwt>
</event>
<event>
 6    0  0.1191266E-005  0.6915360E+03  0.7546771E-02  0.9731817E-01
         21   -1    0    0  502  501  0.00000000000E+00  0.00000000000E+00  0.14335139311E+03  0.14335139311E+03  0.00000000000E+00 0.  1.
         21   -1    0    0  501  502 -0.00000000000E+00 -0.00000000000E+00 -0.83400306514E+03  0.83400306514E+03  0.00000000000E+00 0.  1.
      99926    2    1    2    0    0  0.14509141943E+03 -0.73080175730E+02 -0.47678940613E+03  0.68108294604E+03  0.45842514057E+03 0.  0.
         25    1    3    3    0    0  0.60808092583E+02  0.15015288823E+03 -0.28280235516E+03  0.34909625342E+03  0.12509000000E+03 0.  0.
         25    1    3    3    0    0  0.84283326843E+02 -0.22323306396E+03 -0.19398705097E+03  0.33198669261E+03  0.12509000000E+03 0.  0.
         25    1    1    2    0    0 -0.14509141943E+03  0.73080175730E+02 -0.21386226590E+03  0.29627151222E+03  0.12509000000E+03 0.  0.
<mgrwt>
<rscale>  2 0.69153598E+03</rscale>
<asrwt>0</asrwt>
<pdfrwt beam="1">  1       21 0.21081088E-01 0.69153598E+03</pdfrwt>
<pdfrwt beam="2">  1       21 0.12264750E+00 0.69153598E+03</pdfrwt>
<totfact> 0.87293066E+03</totfact>
</mgrwt>
</event>
<event>
 6    0  0.1191266E-005  0.6843528E+03  0.7546771E-02  0.9744372E-01
         21   -1    0    0  502  501  0.00000000000E+00  0.00000000000E+00  0.71353169388E+03  0.71353169388E+03  0.00000000000E+00 0. -1.
         21   -1    0    0  501  502 -0.00000000000E+00 -0.00000000000E+00 -0.16409179090E+03  0.16409179090E+03  0.00000000000E+00 0. -1.
      99926    2    1    2    0    0 -0.93829389223E+02 -0.11259283031E+03  0.33319774827E+03  0.58798702765E+03  0.46176498949E+03 0.  0.
         25    1    3    3    0    0 -0.19102284575E+03 -0.81208591112E+02  0.29648388313E+02  0.24415384064E+03  0.12509000000E+03 0.  0.
         25    1    3    3    0    0  0.97193456527E+02 -0.31384239201E+02  0.30354935996E+03  0.34383318701E+03  0.12509000000E+03 0.  0.
         25    1    1    2    0    0  0.93829389223E+02  0.11259283031E+03  0.21624215472E+03  0.28963645713E+03  0.12509000000E+03 0.  0.
<mgrwt>
<rscale>  2 0.68435281E+03</rscale>
<asrwt>0</asrwt>
<pdfrwt beam="1">  1       21 0.10493113E+00 0.68435281E+03</pdfrwt>
<pdfrwt beam="2">  1       21 0.24131146E-01 0.68435281E+03</pdfrwt>
<totfact> 0.99790160E+03</totfact>
</mgrwt>
</event>
<event>
 6    0  0.1191266E-005  0.6766441E+03  0.7546771E-02  0.9758029E-01
         21   -1    0    0  502  501  0.00000000000E+00  0.00000000000E+00  0.69538199102E+02  0.69538199102E+02  0.00000000000E+00 0. -1.
         21   -1    0    0  501  502 -0.00000000000E+00 -0.00000000000E+00 -0.16460279672E+04  0.16460279672E+04  0.00000000000E+00 0. -1.
      99926    2    1    2    0    0 -0.15533046595E+03  0.18197733184E+02 -0.11427137866E+04  0.12377923480E+04  0.44930656321E+03 0.  0.
         25    1    1    2    0    0  0.15533046595E+03 -0.18197733184E+02 -0.43377598151E+03  0.47777381823E+03  0.12509000000E+03 0.  0.
         25    1    3    3    0    0 -0.13906934041E+03 -0.84654707502E+02 -0.22034899210E+03  0.30117750142E+03  0.12509000000E+03 0.  0.
         25    1    3    3    0    0 -0.16261125543E+02  0.10285244069E+03 -0.92236479446E+03  0.93661484662E+03  0.12509000000E+03 0.  0.
<mgrwt>
<rscale>  2 0.67664413E+03</rscale>
<asrwt>0</asrwt>
<pdfrwt beam="1">  1       21 0.10226205E-01 0.67664413E+03</pdfrwt>
<pdfrwt beam="2">  1       21 0.24206295E+00 0.67664413E+03</pdfrwt>
<totfact> 0.45410215E+03</totfact>
</mgrwt>
</event>
<event>
 6    0  0.1191266E-005  0.6629069E+03  0.7546771E-02  0.9782857E-01
         21   -1    0    0  502  501  0.00000000000E+00  0.00000000000E+00  0.14156042140E+03  0.14156042140E+03  0.00000000000E+00 0.  1.
         21   -1    0    0  501  502 -0.00000000000E+00 -0.00000000000E+00 -0.77607412549E+03  0.77607412549E+03  0.00000000000E+00 0.  1.
      99926    2    1    2    0    0 -0.13694500542E+03 -0.55153994039E+02 -0.49948181779E+03  0.68167477069E+03  0.43977552129E+03 0.  0.
         25    1    3    3    0    0 -0.35484866456E+02  0.85684091341E+02 -0.20479064900E+02  0.15705998681E+03  0.12509000000E+03 0.  0.
         25    1    1    2    0    0  0.13694500542E+03  0.55153994039E+02 -0.13503188630E+03  0.23595977620E+03  0.12509000000E+03 0.  0.
         25    1    3    3    0    0 -0.10146013896E+03 -0.14083808538E+03 -0.47900275289E+03  0.52461478388E+03  0.12509000000E+03 0.  0.
<mgrwt>
<rscale>  2 0.66290687E+03</rscale>
<asrwt>0</asrwt>
<pdfrwt beam="1">  1       21 0.20817709E-01 0.66290687E+03</pdfrwt>
<pdfrwt beam="2">  1       21 0.11412855E+00 0.66290687E+03</pdfrwt>
<totfact> 0.10812707E+04</totfact>
</mgrwt>
</event>
<event>
 6    0  0.1191266E-005  0.7190283E+03  0.7546771E-02  0.9685233E-01
         21   -1    0    0  502  501  0.00000000000E+00  0.00000000000E+00  0.48690372438E+03  0.48690372438E+03  0.00000000000E+00 0. -1.
         21   -1    0    0  501  502 -0.00000000000E+00 -0.00000000000E+00 -0.26545373572E+03  0.26545373572E+03  0.00000000000E+00 0. -1.
      99926    2    1    2    0    0 -0.14712197616E+03  0.98207280972E+02  0.57933364675E+02  0.48092654748E+03  0.44344619000E+03 0.  0.
         25    1    1    2    0    0  0.14712197616E+03 -0.98207280972E+02  0.16351662399E+03  0.27143091262E+03  0.12509000000E+03 0.  0.
         25    1    3    3    0    0 -0.87753369251E+02  0.34060279030E+02  0.21235599579E+03  0.26382443684E+03  0.12509000000E+03 0.  0.
         25    1    3    3    0    0 -0.59368606909E+02  0.64147001942E+02 -0.15442263112E+03  0.21710211064E+03  0.12509000000E+03 0.  0.
<mgrwt>
<rscale>  2 0.71902827E+03</rscale>
<asrwt>0</asrwt>
<pdfrwt beam="1">  1       21 0.71603489E-01 0.71902827E+03</pdfrwt>
<pdfrwt beam="2">  1       21 0.39037314E-01 0.71902827E+03</pdfrwt>
<totfact> 0.93522249E+03</totfact>
</mgrwt>
</event>
<event>
 6    0  0.1191266E-005  0.6590109E+03  0.7546771E-02  0.9790016E-01
         21   -1    0    0  502  501  0.00000000000E+00  0.00000000000E+00  0.13144723327E+03  0.13144723327E+03  0.00000000000E+00 0.  1.
         21   -1    0    0  501  502 -0.00000000000E+00 -0.00000000000E+00 -0.82598799264E+03  0.82598799264E+03  0.00000000000E+00 0.  1.
      99926    2    1    2    0    0  0.23130876882E+02 -0.91876309997E+02 -0.63915252320E+03  0.79102711730E+03  0.45632407189E+03 0.  0.
         25    1    3    3    0    0 -0.14978731734E+03  0.54152966540E+02 -0.33851171606E+03  0.39446986480E+03  0.12509000000E+03 0.  0.
         25    1    3    3    0    0  0.17291819422E+03 -0.14602927654E+03 -0.30064080714E+03  0.39655725251E+03  0.12509000000E+03 0.  0.
         25    1    1    2    0    0 -0.23130876882E+02  0.91876309997E+02 -0.55388236167E+02  0.16640810861E+03  0.12509000000E+03 0.  0.
<mgrwt>
<rscale>  2 0.65901088E+03</rscale>
<asrwt>0</asrwt>
<pdfrwt beam="1">  1       21 0.19330475E-01 0.65901088E+03</pdfrwt>
<pdfrwt beam="2">  1       21 0.12146883E+00 0.65901088E+03</pdfrwt>
<totfact> 0.10641701E+04</totfact>
</mgrwt>
</event>
<event>
 6    0  0.1191266E-005  0.5814161E+03  0.7546771E-02  0.9944730E-01
         21   -1    0    0  502  501  0.00000000000E+00  0.00000000000E+00  0.10797261440E+04  0.10797261440E+04  0.00000000000E+00 0.  1.
         21   -1    0    0  501  502 -0.00000000000E+00 -0.00000000000E+00 -0.78270917805E+02  0.78270917805E+02  0.00000000000E+00 0.  1.
      99926    2    1    2    0    0  0.74283257288E+02  0.12210521592E+02  0.72403983303E+03  0.84451036733E+03  0.42813196746E+03 0.  0.
         25    1    3    3    0    0  0.84590487824E+02  0.17370378385E+03  0.38447958548E+03  0.44810781616E+03  0.12509000000E+03 0.  0.
         25    1    3    3    0    0 -0.10307230536E+02 -0.16149326225E+03  0.33956024755E+03  0.39640255117E+03  0.12509000000E+03 0.  0.
         25    1    1    2    0    0 -0.74283257288E+02 -0.12210521592E+02  0.27741539317E+03  0.31348669448E+03  0.12509000000E+03 0.  0.
<mgrwt>
<rscale>  2 0.58141605E+03</rscale>
<asrwt>0</asrwt>
<pdfrwt beam="1">  1       21 0.15878325E+00 0.58141605E+03</pdfrwt>
<pdfrwt beam="2">  1       21 0.11510430E-01 0.58141605E+03</pdfrwt>
<totfact> 0.13894537E+04</totfact>
</mgrwt>
</event>
<event>
 6    0  0.1191266E-005  0.6300716E+03  0.7546771E-02  0.9844909E-01
         21   -1    0    0  502  501  0.00000000000E+00  0.00000000000E+00  0.86612305672E+03  0.86612305672E+03  0.00000000000E+00 0.  1.
         21   -1    0    0  501  502 -0.00000000000E+00 -0.00000000000E+00 -0.11458829290E+03  0.11458829290E+03  0.00000000000E+00 0.  1.
      99926    2    1    2    0    0  0.91151273546E+02 -0.22030591249E+02  0.64285578887E+03  0.79031037978E+03  0.45003669793E+03 0.  0.
         25    1    3    3    0    0  0.14371059691E+02  0.77229130494E+02  0.58584221698E+03  0.60417669373E+03  0.12509000000E+03 0.  0.
         25    1    3    3    0    0  0.76780213855E+02 -0.99259721743E+02  0.57013571884E+02  0.18613368604E+03  0.12509000000E+03 0.  0.
         25    1    1    2    0    0 -0.91151273546E+02  0.22030591249E+02  0.10867897496E+03  0.19040096985E+03  0.12509000000E+03 0.  0.
<mgrwt>
<rscale>  2 0.63007162E+03</rscale>
<asrwt>0</asrwt>
<pdfrwt beam="1">  1       21 0.12737103E+00 0.63007162E+03</pdfrwt>
<pdfrwt beam="2">  1       21 0.16851220E-01 0.63007162E+03</pdfrwt>
<totfact> 0.12282155E+04</totfact>
</mgrwt>
</event>
<event>
 6    0  0.1191266E-005  0.6240033E+03  0.7546771E-02  0.9856821E-01
         21   -1    0    0  502  501  0.00000000000E+00  0.00000000000E+00  0.14097573756E+03  0.14097573756E+03  0.00000000000E+00 0. -1.
         21   -1    0    0  501  502 -0.00000000000E+00 -0.00000000000E+00 -0.69050906514E+03  0.69050906514E+03  0.00000000000E+00 0. -1.
      99926    2    1    2    0    0  0.56737093957E+02 -0.68642750310E+02 -0.46896456497E+03  0.65807846311E+03  0.45299953136E+03 0.  0.
         25    1    1    2    0    0 -0.56737093957E+02  0.68642750310E+02 -0.80568762611E+02  0.17340633959E+03  0.12509000000E+03 0.  0.
         25    1    3    3    0    0 -0.14138192960E+03 -0.93567286279E+01 -0.91803783639E+02  0.21012339512E+03  0.12509000000E+03 0.  0.
         25    1    3    3    0    0  0.19811902355E+03 -0.59286021683E+02 -0.37716078133E+03  0.44795506799E+03  0.12509000000E+03 0.  0.
<mgrwt>
<rscale>  2 0.62400328E+03</rscale>
<asrwt>0</asrwt>
<pdfrwt beam="1">  1       21 0.20731726E-01 0.62400328E+03</pdfrwt>
<pdfrwt beam="2">  1       21 0.10154545E+00 0.62400328E+03</pdfrwt>
<totfact> 0.14702302E+04</totfact>
</mgrwt>
</event>
<event>
 6    0  0.1191266E-005  0.7387700E+03  0.7546771E-02  0.9653135E-01
         21   -1    0    0  502  501  0.00000000000E+00  0.00000000000E+00  0.31270428540E+03  0.31270428540E+03  0.00000000000E+00 0. -1.
         21   -1    0    0  501  502 -0.00000000000E+00 -0.00000000000E+00 -0.43633963506E+03  0.43633963506E+03  0.00000000000E+00 0. -1.
      99926    2    1    2    0    0 -0.10024155174E+03  0.86152764073E+02 -0.26700314453E+03  0.51737065881E+03  0.42297878428E+03 0.  0.
         25    1    1    2    0    0  0.10024155174E+03 -0.86152764073E+02  0.14336779487E+03  0.23167326164E+03  0.12509000000E+03 0.  0.
         25    1    3    3    0    0 -0.26895937799E+02  0.81718980699E+01 -0.31973871917E+03  0.34448588944E+03  0.12509000000E+03 0.  0.
         25    1    3    3    0    0 -0.73345613938E+02  0.77980866003E+02  0.52735574638E+02  0.17288476937E+03  0.12509000000E+03 0.  0.
<mgrwt>
<rscale>  2 0.73876999E+03</rscale>
<asrwt>0</asrwt>
<pdfrwt beam="1">  1       21 0.45985925E-01 0.73876999E+03</pdfrwt>
<pdfrwt beam="2">  1       21 0.64167593E-01 0.73876999E+03</pdfrwt>
<totfact> 0.84700641E+03</totfact>
</mgrwt>
</event>
<event>
 6    0  0.1191266E-005  0.7675969E+03  0.7546771E-02  0.9608141E-01
         21   -1    0    0  502  501  0.00000000000E+00  0.00000000000E+00  0.98024016572E+02  0.98024016572E+02  0.00000000000E+00 0.  1.
         21   -1    0    0  501  502 -0.00000000000E+00 -0.00000000000E+00 -0.15027056882E+04  0.15027056882E+04  0.00000000000E+00 0.  1.
      99926    2    1    2    0    0 -0.17362258207E+03  0.11114633828E+03 -0.11110060218E+04  0.12207412774E+04  0.46192702496E+03 0.  0.
         25    1    3    3    0    0 -0.28791161860E+03  0.89739840481E+02 -0.83002867538E+03  0.89193130293E+03  0.12509000000E+03 0.  0.
         25    1    3    3    0    0  0.11428903653E+03  0.21406497796E+02 -0.28097734644E+03  0.32880997450E+03  0.12509000000E+03 0.  0.
         25    1    1    2    0    0  0.17362258207E+03 -0.11114633828E+03 -0.29367564977E+03  0.37998842731E+03  0.12509000000E+03 0.  0.
<mgrwt>
<rscale>  2 0.76759689E+03</rscale>
<asrwt>0</asrwt>
<pdfrwt beam="1">  1       21 0.14415298E-01 0.76759689E+03</pdfrwt>
<pdfrwt beam="2">  1       21 0.22098611E+00 0.76759689E+03</pdfrwt>
<totfact> 0.32191071E+03</totfact>
</mgrwt>
</event>
<event>
 6    0  0.1191266E-005  0.6620375E+03  0.7546771E-02  0.9784450E-01
         21   -1    0    0  502  501  0.00000000000E+00  0.00000000000E+00  0.12215328422E+04  0.12215328422E+04  0.00000000000E+00 0.  1.
         21   -1    0    0  501  502 -0.00000000000E+00 -0.00000000000E+00 -0.89701556808E+02  0.89701556808E+02  0.00000000000E+00 0.  1.
      99926    2    1    2    0    0 -0.94896750609E+02  0.86146553693E+02  0.63205839114E+03  0.78034168299E+03  0.43932756619E+03 0.  0.
         25    1    3    3    0    0  0.28696937602E+02 -0.20440754092E+01  0.10948416056E+02  0.12882184747E+03  0.12509000000E+03 0.  0.
         25    1    3    3    0    0 -0.12359368821E+03  0.88190629103E+02  0.62110997508E+03  0.65151983552E+03  0.12509000000E+03 0.  0.
         25    1    1    2    0    0  0.94896750609E+02 -0.86146553693E+02  0.49977289427E+03  0.53089271603E+03  0.12509000000E+03 0.  0.
<mgrwt>
<rscale>  2 0.66203745E+03</rscale>
<asrwt>0</asrwt>
<pdfrwt beam="1">  1       21 0.17963717E+00 0.66203745E+03</pdfrwt>
<pdfrwt beam="2">  1       21 0.13191406E-01 0.66203745E+03</pdfrwt>
<totfact> 0.74404711E+03</totfact>
</mgrwt>
</event>
<event>
 6    0  0.1191266E-005  0.7961226E+03  0.7546771E-02  0.9565647E-01
         21   -1    0    0  502  501  0.00000000000E+00  0.00000000000E+00  0.15657103811E+03  0.15657103811E+03  0.00000000000E+00 0.  1.
         21   -1    0    0  501  502 -0.00000000000E+00 -0.00000000000E+00 -0.10120184787E+04  0.10120184787E+04  0.00000000000E+00 0.  1.
      99926    2    1    2    0    0  0.23503923470E+03  0.21547369256E+02 -0.42822984032E+03  0.66473426275E+03  0.45031446009E+03 0.  0.
         25    1    3    3    0    0 -0.48573573074E+02 -0.61475677176E+02 -0.25496994674E+02  0.14978736837E+03  0.12509000000E+03 0.  0.
         25    1    1    2    0    0 -0.23503923470E+03 -0.21547369256E+02 -0.42721760028E+03  0.50385525408E+03  0.12509000000E+03 0.  0.
         25    1    3    3    0    0  0.28361280777E+03  0.83023046432E+02 -0.40273284564E+03  0.51494689438E+03  0.12509000000E+03 0.  0.
<mgrwt>
<rscale>  2 0.79612256E+03</rscale>
<asrwt>0</asrwt>
<pdfrwt beam="1">  1       21 0.23025153E-01 0.79612256E+03</pdfrwt>
<pdfrwt beam="2">  1       21 0.14882625E+00 0.79612256E+03</pdfrwt>
<totfact> 0.42991482E+03</totfact>
</mgrwt>
</event>
<event>
 6    0  0.1191266E-005  0.6405770E+03  0.7546771E-02  0.9824623E-01
         21   -1    0    0  502  501  0.00000000000E+00  0.00000000000E+00  0.98820863806E+03  0.98820863806E+03  0.00000000000E+00 0. -1.
         21   -1    0    0  501  502 -0.00000000000E+00 -0.00000000000E+00 -0.10380877110E+03  0.10380877110E+03  0.00000000000E+00 0. -1.
      99926    2    1    2    0    0  0.41592060414E+02 -0.34002587082E+02  0.82328385809E+03  0.94279023315E+03  0.45625764358E+03 0.  0.
         25    1    3    3    0    0  0.26331201843E+02  0.24133484122E+02  0.78924682917E+03  0.79989613245E+03  0.12509000000E+03 0.  0.
         25    1    1    2    0    0 -0.41592060414E+02  0.34002587082E+02  0.61116008880E+02  0.14922717601E+03  0.12509000000E+03 0.  0.
         25    1    3    3    0    0  0.15260858570E+02 -0.58136071204E+02  0.34037028918E+02  0.14289410071E+03  0.12509000000E+03 0.  0.
<mgrwt>
<rscale>  2 0.64057700E+03</rscale>
<asrwt>0</asrwt>
<pdfrwt beam="1">  1       21 0.14532479E+00 0.64057700E+03</pdfrwt>
<pdfrwt beam="2">  1       21 0.15265996E-01 0.64057700E+03</pdfrwt>
<totfact> 0.10386475E+04</totfact>
</mgrwt>
</event>
<event>
 6    0  0.1191266E-005  0.8401558E+03  0.7546771E-02  0.9503646E-01
         21   -1    0    0  502  501  0.00000000000E+00  0.00000000000E+00  0.60021178178E+03  0.60021178178E+03  0.00000000000E+00 0. -1.
         21   -1    0    0  501  502 -0.00000000000E+00 -0.00000000000E+00 -0.29400532584E+03  0.29400532584E+03  0.00000000000E+00 0. -1.
      99926    2    1    2    0    0  0.89035878011E+02  0.26143615025E+03  0.14017051177E+03  0.54854140543E+03  0.45274016044E+03 0.  0.
         25    1    3    3    0    0 -0.67456619689E+02  0.24445134823E+03 -0.31039315292E+02  0.28446054979E+03  0.12509000000E+03 0.  0.
         25    1    1    2    0    0 -0.89035878011E+02 -0.26143615025E+03  0.16603594417E+03  0.34567570219E+03  0.12509000000E+03 0.  0.
         25    1    3    3    0    0  0.15649249770E+03  0.16984802018E+02  0.17120982706E+03  0.26408085564E+03  0.12509000000E+03 0.  0.
<mgrwt>
<rscale>  2 0.84015584E+03</rscale>
<asrwt>0</asrwt>
<pdfrwt beam="1">  1       21 0.88266438E-01 0.84015584E+03</pdfrwt>
<pdfrwt beam="2">  1       21 0.43236077E-01 0.84015584E+03</pdfrwt>
<totfact> 0.45337750E+03</totfact>
</mgrwt>
</event>
<event>
 6    0  0.1191266E-005  0.5944739E+03  0.7546771E-02  0.9916938E-01
         21   -1    0    0  502  501  0.00000000000E+00  0.00000000000E+00  0.49874683181E+03  0.49874683181E+03  0.00000000000E+00 0.  1.
         21   -1    0    0  501  502 -0.00000000000E+00 -0.00000000000E+00 -0.17714358718E+03  0.17714358718E+03  0.00000000000E+00 0.  1.
      99926    2    1    2    0    0 -0.49780596795E+02  0.31875616067E+02  0.26740878745E+03  0.52730135478E+03  0.45060525566E+03 0.  0.
         25    1    1    2    0    0  0.49780596795E+02 -0.31875616067E+02  0.54194457177E+02  0.14858906422E+03  0.12509000000E+03 0.  0.
         25    1    3    3    0    0 -0.19320034826E+03  0.32142461830E+02  0.24164176446E+03  0.33525775585E+03  0.12509000000E+03 0.  0.
         25    1    3    3    0    0  0.14341975147E+03 -0.26684576289E+00  0.25767022991E+02  0.19204359894E+03  0.12509000000E+03 0.  0.
<mgrwt>
<rscale>  2 0.59447389E+03</rscale>
<asrwt>0</asrwt>
<pdfrwt beam="1">  1       21 0.73345122E-01 0.59447389E+03</pdfrwt>
<pdfrwt beam="2">  1       21 0.26050528E-01 0.59447389E+03</pdfrwt>
<totfact> 0.20491732E+04</totfact>
</mgrwt>
</event>
<event>
 6    0  0.1191266E-005  0.6335896E+03  0.7546771E-02  0.9838069E-01
         21   -1    0    0  502  501  0.00000000000E+00  0.00000000000E+00  0.12146552187E+03  0.12146552187E+03  0.00000000000E+00 0.  1.
         21   -1    0    0  501  502 -0.00000000000E+00 -0.00000000000E+00 -0.82623396618E+03  0.82623396618E+03  0.00000000000E+00 0.  1.
      99926    2    1    2    0    0  0.57680823003E+02 -0.10467684172E+03 -0.49520212764E+03  0.67594616659E+03  0.44429016913E+03 0.  0.
         25    1    3    3    0    0 -0.14412134098E+02 -0.23199850574E+03 -0.24396420151E+03  0.35943991987E+03  0.12509000000E+03 0.  0.
         25    1    1    2    0    0 -0.57680823003E+02  0.10467684172E+03 -0.20956631668E+03  0.27175332145E+03  0.12509000000E+03 0.  0.
         25    1    3    3    0    0  0.72092957102E+02  0.12732166402E+03 -0.25123792613E+03  0.31650624673E+03  0.12509000000E+03 0.  0.
<mgrwt>
<rscale>  2 0.63358958E+03</rscale>
<asrwt>0</asrwt>
<pdfrwt beam="1">  1       21 0.17862577E-01 0.63358958E+03</pdfrwt>
<pdfrwt beam="2">  1       21 0.12150500E+00 0.63358958E+03</pdfrwt>
<totfact> 0.12423134E+04</totfact>
</mgrwt>
</event>
<event>
 6    0  0.1191266E-005  0.6212462E+03  0.7546771E-02  0.9862282E-01
         21   -1    0    0  502  501  0.00000000000E+00  0.00000000000E+00  0.17955474348E+04  0.17955474348E+04  0.00000000000E+00 0. -1.
         21   -1    0    0  501  502 -0.00000000000E+00 -0.00000000000E+00 -0.53736649837E+02  0.53736649837E+02  0.00000000000E+00 0. -1.
      99926    2    1    2    0    0  0.42612660557E+02  0.15803582584E+02  0.10531025359E+04  0.11478340490E+04  0.45434839151E+03 0.  0.
         25    1    3    3    0    0  0.12671192787E+03 -0.88245857746E+02  0.22710627964E+03  0.30177477434E+03  0.12509000000E+03 0.  0.
         25    1    1    2    0    0 -0.42612660557E+02 -0.15803582584E+02  0.68870824910E+03  0.70145003567E+03  0.12509000000E+03 0.  0.
         25    1    3    3    0    0 -0.84099267315E+02  0.10404944033E+03  0.82599625623E+03  0.84605927464E+03  0.12509000000E+03 0.  0.
<mgrwt>
<rscale>  2 0.62124618E+03</rscale>
<asrwt>0</asrwt>
<pdfrwt beam="1">  1       21 0.26405105E+00 0.62124618E+03</pdfrwt>
<pdfrwt beam="2">  1       21 0.79024497E-02 0.62124618E+03</pdfrwt>
<totfact> 0.53516487E+03</totfact>
</mgrwt>
</event>
<event>
 6    0  0.1191266E-005  0.6604278E+03  0.7546771E-02  0.9787406E-01
         21   -1    0    0  502  501  0.00000000000E+00  0.00000000000E+00  0.77096182693E+03  0.77096182693E+03  0.00000000000E+00 0.  1.
         21   -1    0    0  501  502 -0.00000000000E+00 -0.00000000000E+00 -0.14143532063E+03  0.14143532063E+03  0.00000000000E+00 0.  1.
      99926    2    1    2    0    0 -0.62743087960E+02  0.71881220610E+02  0.31555764358E+03  0.56121690919E+03  0.45418519106E+03 0.  0.
         25    1    3    3    0    0 -0.10336855628E+03 -0.60880631277E+02  0.33107271177E+03  0.37369527462E+03  0.12509000000E+03 0.  0.
         25    1    1    2    0    0  0.62743087960E+02 -0.71881220610E+02  0.31396886272E+03  0.35118023837E+03  0.12509000000E+03 0.  0.
         25    1    3    3    0    0  0.40625468319E+02  0.13276185189E+03 -0.15515068194E+02  0.18752163457E+03  0.12509000000E+03 0.  0.
<mgrwt>
<rscale>  2 0.66042784E+03</rscale>
<asrwt>0</asrwt>
<pdfrwt beam="1">  1       21 0.11337674E+00 0.66042784E+03</pdfrwt>
<pdfrwt beam="2">  1       21 0.20799312E-01 0.66042784E+03</pdfrwt>
<totfact> 0.11018668E+04</totfact>
</mgrwt>
</event>
<event>
 6    0  0.1191266E-005  0.6805984E+03  0.7546771E-02  0.9750999E-01
         21   -1    0    0  502  501  0.00000000000E+00  0.00000000000E+00  0.21131733755E+04  0.21131733755E+04  0.00000000000E+00 0. -1.
         21   -1    0    0  501  502 -0.00000000000E+00 -0.00000000000E+00 -0.54800777257E+02  0.54800777257E+02  0.00000000000E+00 0. -1.
      99926    2    1    2    0    0 -0.12137657592E+03  0.70255466145E+02  0.16638223783E+04  0.17309552884E+04  0.45632576078E+03 0.  0.
         25    1    3    3    0    0 -0.64754140228E+02  0.22473075620E+03  0.80292382856E+03  0.84559517148E+03  0.12509000000E+03 0.  0.
         25    1    1    2    0    0  0.12137657592E+03 -0.70255466145E+02  0.39455021988E+03  0.43701886437E+03  0.12509000000E+03 0.  0.
         25    1    3    3    0    0 -0.56622435695E+02 -0.15447529005E+03  0.86089854977E+03  0.88536011688E+03  0.12509000000E+03 0.  0.
<mgrwt>
<rscale>  2 0.68059839E+03</rscale>
<asrwt>0</asrwt>
<pdfrwt beam="1">  1       21 0.31076074E+00 0.68059839E+03</pdfrwt>
<pdfrwt beam="2">  1       21 0.80589392E-02 0.68059839E+03</pdfrwt>
<totfact> 0.26246764E+03</totfact>
</mgrwt>
</event>
<event>
 6    0  0.1191266E-005  0.6397796E+03  0.7546771E-02  0.9826148E-01
         21   -1    0    0  502  501  0.00000000000E+00  0.00000000000E+00  0.60918639709E+03  0.60918639709E+03  0.00000000000E+00 0.  1.
         21   -1    0    0  501  502 -0.00000000000E+00 -0.00000000000E+00 -0.16797729387E+03  0.16797729387E+03  0.00000000000E+00 0.  1.
      99926    2    1    2    0    0 -0.36846512671E+02  0.10955370101E+03  0.26304010505E+03  0.53068574283E+03  0.44618110884E+03 0.  0.
         25    1    3    3    0    0 -0.10252108232E+03  0.74930634279E+02  0.32649620679E+03  0.37198448008E+03  0.12509000000E+03 0.  0.
         25    1    1    2    0    0  0.36846512671E+02 -0.10955370101E+03  0.17816899818E+03  0.24647794813E+03  0.12509000000E+03 0.  0.
         25    1    3    3    0    0  0.65674569650E+02  0.34623066726E+02 -0.63456101747E+02  0.15870126275E+03  0.12509000000E+03 0.  0.
<mgrwt>
<rscale>  2 0.63977959E+03</rscale>
<asrwt>0</asrwt>
<pdfrwt beam="1">  1       21 0.89586234E-01 0.63977959E+03</pdfrwt>
<pdfrwt beam="2">  1       21 0.24702543E-01 0.63977959E+03</pdfrwt>
<totfact> 0.14131745E+04</totfact>
</mgrwt>
</event>
<event>
 6    0  0.1191266E-005  0.5885858E+03  0.7546771E-02  0.9929374E-01
         21   -1    0    0  502  501  0.00000000000E+00  0.00000000000E+00  0.26852236818E+03  0.26852236818E+03  0.00000000000E+00 0.  1.
         21   -1    0    0  501  502 -0.00000000000E+00 -0.00000000000E+00 -0.32253665032E+03  0.32253665032E+03  0.00000000000E+00 0.  1.
      99926    2    1    2    0    0  0.27541227847E+02 -0.58100759149E+01  0.68301523864E+00  0.45166182105E+03  0.45078338243E+03 0.  0.
         25    1    3    3    0    0 -0.23646594002E+02  0.47773432736E+01 -0.18323927887E+03  0.22317286089E+03  0.12509000000E+03 0.  0.
         25    1    1    2    0    0 -0.27541227847E+02  0.58100759149E+01 -0.54697297377E+02  0.13939719744E+03  0.12509000000E+03 0.  0.
         25    1    3    3    0    0  0.51187821849E+02 -0.10587419189E+02  0.18392229410E+03  0.22848896017E+03  0.12509000000E+03 0.  0.
<mgrwt>
<rscale>  2 0.58858578E+03</rscale>
<asrwt>0</asrwt>
<pdfrwt beam="1">  1       21 0.39488584E-01 0.58858578E+03</pdfrwt>
<pdfrwt beam="2">  1       21 0.47431860E-01 0.58858578E+03</pdfrwt>
<totfact> 0.23152606E+04</totfact>
</mgrwt>
</event>
<event>
 6    0  0.1191266E-005  0.6225782E+03  0.7546771E-02  0.9859640E-01
         21   -1    0    0  502  501  0.00000000000E+00  0.00000000000E+00  0.33145404077E+03  0.33145404077E+03  0.00000000000E+00 0. -1.
         21   -1    0    0  501  502 -0.00000000000E+00 -0.00000000000E+00 -0.29235097560E+03  0.29235097560E+03  0.00000000000E+00 0. -1.
      99926    2    1    2    0    0 -0.76573041487E+02 -0.57082194808E+02  0.45733850986E+02  0.46628269075E+03  0.45409927871E+03 0.  0.
         25    1    3    3    0    0 -0.20796460584E+03  0.44988373799E+02 -0.20939223091E+02  0.24770787275E+03  0.12509000000E+03 0.  0.
         25    1    3    3    0    0  0.13139156435E+03 -0.10207056861E+03  0.66673074078E+02  0.21857481800E+03  0.12509000000E+03 0.  0.
         25    1    1    2    0    0  0.76573041487E+02  0.57082194808E+02 -0.66307858140E+01  0.15752232561E+03  0.12509000000E+03 0.  0.
<mgrwt>
<rscale>  2 0.62257823E+03</rscale>
<asrwt>0</asrwt>
<pdfrwt beam="1">  1       21 0.48743241E-01 0.62257823E+03</pdfrwt>
<pdfrwt beam="2">  1       21 0.42992791E-01 0.62257823E+03</pdfrwt>
<totfact> 0.18185425E+04</totfact>
</mgrwt>
</event>
<event>
 6    0  0.1191266E-005  0.6252276E+03  0.7546771E-02  0.9854406E-01
         21   -1    0    0  502  501  0.00000000000E+00  0.00000000000E+00  0.54548991022E+03  0.54548991022E+03  0.00000000000E+00 0.  1.
         21   -1    0    0  501  502 -0.00000000000E+00 -0.00000000000E+00 -0.17915525978E+03  0.17915525978E+03  0.00000000000E+00 0.  1.
      99926    2    1    2    0    0 -0.13565733752E+03  0.83773141461E+01  0.27954296049E+03  0.52055352843E+03  0.41756270977E+03 0.  0.
         25    1    1    2    0    0  0.13565733752E+03 -0.83773141461E+01  0.86791689947E+02  0.20409164157E+03  0.12509000000E+03 0.  0.
         25    1    3    3    0    0 -0.13850954740E+03  0.14837739280E+03  0.21770489369E+03  0.32286788978E+03  0.12509000000E+03 0.  0.
         25    1    3    3    0    0  0.28522098794E+01 -0.14000007865E+03  0.61838066800E+02  0.19768563865E+03  0.12509000000E+03 0.  0.
<mgrwt>
<rscale>  2 0.62522760E+03</rscale>
<asrwt>0</asrwt>
<pdfrwt beam="1">  1       21 0.80219104E-01 0.62522760E+03</pdfrwt>
<pdfrwt beam="2">  1       21 0.26346362E-01 0.62522760E+03</pdfrwt>
<totfact> 0.16202289E+04</totfact>
</mgrwt>
</event>
<event>
 6    0  0.1815879E-005  0.8090428E+03  0.7546771E-02  0.9547019E-01
         21   -1    0    0  502  501  0.00000000000E+00  0.00000000000E+00  0.89893131404E+03  0.89893131404E+03  0.00000000000E+00 0. -1.
         21   -1    0    0  501  502 -0.00000000000E+00 -0.00000000000E+00 -0.18203567075E+03  0.18203567075E+03  0.00000000000E+00 0.  1.
      99926    2    1    2    0    0 -0.87794366590E+02  0.18892487407E+03  0.30653387476E+03  0.60405530741E+03  0.47698987325E+03 0.  0.
         25    1    1    2    0    0  0.87794366590E+02 -0.18892487407E+03  0.41036176853E+03  0.47691167738E+03  0.12509000000E+03 0.  0.
         25    1    3    3    0    0  0.12470099114E+03  0.18814790009E+03  0.82589425779E+02  0.27095846702E+03  0.12509000000E+03 0.  0.
         25    1    3    3    0    0 -0.21249535773E+03  0.77697397293E+00  0.22394444898E+03  0.33309684038E+03  0.12509000000E+03 0.  0.
<mgrwt>
<rscale>  2 0.80904280E+03</rscale>
<asrwt>0</asrwt>
<pdfrwt beam="1">  1       21 0.13219578E+00 0.80904280E+03</pdfrwt>
<pdfrwt beam="2">  1       21 0.26769952E-01 0.80904280E+03</pdfrwt>
<totfact> 0.43943621E+03</totfact>
</mgrwt>
</event>
<event>
 6    0  0.1191266E-005  0.5968552E+03  0.7546771E-02  0.9911952E-01
         21   -1    0    0  502  501  0.00000000000E+00  0.00000000000E+00  0.23695151697E+03  0.23695151697E+03  0.00000000000E+00 0.  1.
         21   -1    0    0  501  502 -0.00000000000E+00 -0.00000000000E+00 -0.37585340300E+03  0.37585340300E+03  0.00000000000E+00 0.  1.
      99926    2    1    2    0    0  0.70210364913E+02  0.49638804403E+02 -0.10678336387E+03  0.45765140306E+03  0.43663327138E+03 0.  0.
         25    1    3    3    0    0  0.14344265969E+03 -0.11501613886E+03 -0.81457480670E+02  0.23682765479E+03  0.12509000000E+03 0.  0.
         25    1    3    3    0    0 -0.73232294781E+02  0.16465494326E+03 -0.25325883199E+02  0.22082374827E+03  0.12509000000E+03 0.  0.
         25    1    1    2    0    0 -0.70210364913E+02 -0.49638804403E+02 -0.32118522158E+02  0.15515351691E+03  0.12509000000E+03 0.  0.
<mgrwt>
<rscale>  2 0.59685521E+03</rscale>
<asrwt>0</asrwt>
<pdfrwt beam="1">  1       21 0.34845812E-01 0.59685521E+03</pdfrwt>
<pdfrwt beam="2">  1       21 0.55272559E-01 0.59685521E+03</pdfrwt>
<totfact> 0.21507632E+04</totfact>
</mgrwt>
</event>
<event>
 6    0  0.1191266E-005  0.6174300E+03  0.7546771E-02  0.9869890E-01
         21   -1    0    0  502  501  0.00000000000E+00  0.00000000000E+00  0.86582893054E+03  0.86582893054E+03  0.00000000000E+00 0. -1.
         21   -1    0    0  501  502 -0.00000000000E+00 -0.00000000000E+00 -0.11007366551E+03  0.11007366551E+03  0.00000000000E+00 0. -1.
      99926    2    1    2    0    0  0.25831021088E+02 -0.63985033524E+02  0.68051175921E+03  0.81443922735E+03  0.44210143005E+03 0.  0.
         25    1    3    3    0    0 -0.13490517821E+03 -0.12575920534E+03  0.25492144056E+03  0.33859597427E+03  0.12509000000E+03 0.  0.
         25    1    1    2    0    0 -0.25831021088E+02  0.63985033524E+02  0.75243505811E+02  0.16146336870E+03  0.12509000000E+03 0.  0.
         25    1    3    3    0    0  0.16073619930E+03  0.61774171815E+02  0.42559031865E+03  0.47584325308E+03  0.12509000000E+03 0.  0.
<mgrwt>
<rscale>  2 0.61743004E+03</rscale>
<asrwt>0</asrwt>
<pdfrwt beam="1">  1       21 0.12732778E+00 0.61743004E+03</pdfrwt>
<pdfrwt beam="2">  1       21 0.16187304E-01 0.61743004E+03</pdfrwt>
<totfact> 0.13294485E+04</totfact>
</mgrwt>
</event>
<event>
 6    0  0.1191266E-005  0.7032283E+03  0.7546771E-02  0.9711727E-01
         21   -1    0    0  502  501  0.00000000000E+00  0.00000000000E+00  0.91349857126E+02  0.91349857126E+02  0.00000000000E+00 0. -1.
         21   -1    0    0  501  502 -0.00000000000E+00 -0.00000000000E+00 -0.13533956748E+04  0.13533956748E+04  0.00000000000E+00 0. -1.
      99926    2    1    2    0    0 -0.23993124373E+02 -0.28760493602E+02 -0.12327164179E+04  0.13109151998E+04  0.44441653663E+03 0.  0.
         25    1    1    2    0    0  0.23993124373E+02  0.28760493602E+02 -0.29329399759E+02  0.13383033214E+03  0.12509000000E+03 0.  0.
         25    1    3    3    0    0  0.15501686938E+03 -0.87541261447E+02 -0.67036804951E+03  0.70479396433E+03  0.12509000000E+03 0.  0.
         25    1    3    3    0    0 -0.17900999375E+03  0.58780767845E+02 -0.56234836838E+03  0.60612123544E+03  0.12509000000E+03 0.  0.
<mgrwt>
<rscale>  2 0.70322827E+03</rscale>
<asrwt>0</asrwt>
<pdfrwt beam="1">  1       21 0.13433802E-01 0.70322827E+03</pdfrwt>
<pdfrwt beam="2">  1       21 0.19902878E+00 0.70322827E+03</pdfrwt>
<totfact> 0.52180330E+03</totfact>
</mgrwt>
</event>
<event>
 6    0  0.1191266E-005  0.7990371E+03  0.7546771E-02  0.9561412E-01
         21   -1    0    0  502  501  0.00000000000E+00  0.00000000000E+00  0.19864460242E+03  0.19864460242E+03  0.00000000000E+00 0. -1.
         21   -1    0    0  501  502 -0.00000000000E+00 -0.00000000000E+00 -0.80352080834E+03  0.80352080834E+03  0.00000000000E+00 0. -1.
      99926    2    1    2    0    0  0.15271774052E+03 -0.18890425384E+03 -0.31243638304E+03  0.60194536693E+03  0.45355727966E+03 0.  0.
         25    1    3    3    0    0 -0.14778314562E+02  0.97829452947E+02 -0.10413494785E+03  0.19047465950E+03  0.12509000000E+03 0.  0.
         25    1    1    2    0    0 -0.15271774052E+03  0.18890425384E+03 -0.29243982288E+03  0.40022004384E+03  0.12509000000E+03 0.  0.
         25    1    3    3    0    0  0.16749605508E+03 -0.28673370678E+03 -0.20830143519E+03  0.41147070743E+03  0.12509000000E+03 0.  0.
<mgrwt>
<rscale>  2 0.79903710E+03</rscale>
<asrwt>0</asrwt>
<pdfrwt beam="1">  1       21 0.29212441E-01 0.79903710E+03</pdfrwt>
<pdfrwt beam="2">  1       21 0.11816483E+00 0.79903710E+03</pdfrwt>
<totfact> 0.49600735E+03</totfact>
</mgrwt>
</event>
<event>
 6    0  0.1191266E-005  0.6724306E+03  0.7546771E-02  0.9765577E-01
         21   -1    0    0  502  501  0.00000000000E+00  0.00000000000E+00  0.17182625670E+03  0.17182625670E+03  0.00000000000E+00 0.  1.
         21   -1    0    0  501  502 -0.00000000000E+00 -0.00000000000E+00 -0.65787811597E+03  0.65787811597E+03  0.00000000000E+00 0.  1.
      99926    2    1    2    0    0 -0.73372260229E+02  0.86370620401E+02 -0.22675471857E+03  0.52030836766E+03  0.45437839124E+03 0.  0.
         25    1    3    3    0    0  0.65782948252E+02  0.15423127237E+03 -0.24295841442E+03  0.32061032562E+03  0.12509000000E+03 0.  0.
         25    1    1    2    0    0  0.73372260229E+02 -0.86370620401E+02 -0.25929714070E+03  0.30939600501E+03  0.12509000000E+03 0.  0.
         25    1    3    3    0    0 -0.13915520848E+03 -0.67860651966E+02  0.16203695859E+02  0.19969804203E+03  0.12509000000E+03 0.  0.
<mgrwt>
<rscale>  2 0.67243062E+03</rscale>
<asrwt>0</asrwt>
<pdfrwt beam="1">  1       21 0.25268567E-01 0.67243062E+03</pdfrwt>
<pdfrwt beam="2">  1       21 0.96746781E-01 0.67243062E+03</pdfrwt>
<totfact> 0.11161380E+04</totfact>
</mgrwt>
</event>
<event>
 6    0  0.1191266E-005  0.7031713E+03  0.7546771E-02  0.9711824E-01
         21   -1    0    0  502  501  0.00000000000E+00  0.00000000000E+00  0.14802606397E+04  0.14802606397E+04  0.00000000000E+00 0.  1.
         21   -1    0    0  501  502 -0.00000000000E+00 -0.00000000000E+00 -0.83507228003E+02  0.83507228003E+02  0.00000000000E+00 0.  1.
      99926    2    1    2    0    0 -0.15287003677E+03  0.56592503366E+02  0.80721757307E+03  0.93945066251E+03  0.45210106993E+03 0.  0.
         25    1    3    3    0    0 -0.26175717496E+02  0.12477689061E+03  0.95296677279E+02  0.20244358577E+03  0.12509000000E+03 0.  0.
         25    1    1    2    0    0  0.15287003677E+03 -0.56592503366E+02  0.58953583864E+03  0.62431720521E+03  0.12509000000E+03 0.  0.
         25    1    3    3    0    0 -0.12669431928E+03 -0.68184387246E+02  0.71192089580E+03  0.73700707674E+03  0.12509000000E+03 0.  0.
<mgrwt>
<rscale>  2 0.70317128E+03</rscale>
<asrwt>0</asrwt>
<pdfrwt beam="1">  1       21 0.21768537E+00 0.70317128E+03</pdfrwt>
<pdfrwt beam="2">  1       21 0.12280476E-01 0.70317128E+03</pdfrwt>
<totfact> 0.46254822E+03</totfact>
</mgrwt>
</event>
<event>
 6    0  0.1191266E-005  0.6794608E+03  0.7546771E-02  0.9753016E-01
         21   -1    0    0  502  501  0.00000000000E+00  0.00000000000E+00  0.57900318172E+03  0.57900318172E+03  0.00000000000E+00 0.  1.
         21   -1    0    0  501  502 -0.00000000000E+00 -0.00000000000E+00 -0.19933699385E+03  0.19933699385E+03  0.00000000000E+00 0.  1.
      99926    2    1    2    0    0  0.17082510101E+01  0.69536575689E+02  0.42524389920E+03  0.62813002494E+03  0.45703030637E+03 0.  0.
         25    1    1    2    0    0 -0.17082510101E+01 -0.69536575689E+02 -0.45577711332E+02  0.15021015062E+03  0.12509000000E+03 0.  0.
         25    1    3    3    0    0 -0.97464164325E+02 -0.53238614181E+02  0.11130919171E+02  0.16764551539E+03  0.12509000000E+03 0.  0.
         25    1    3    3    0    0  0.99172415335E+02  0.12277518987E+03  0.41411298003E+03  0.46048450956E+03  0.12509000000E+03 0.  0.
<mgrwt>
<rscale>  2 0.67946083E+03</rscale>
<asrwt>0</asrwt>
<pdfrwt beam="1">  1       21 0.85147526E-01 0.67946083E+03</pdfrwt>
<pdfrwt beam="2">  1       21 0.29314264E-01 0.67946083E+03</pdfrwt>
<totfact> 0.11280759E+04</totfact>
</mgrwt>
</event>
<event>
 6    0  0.1191266E-005  0.7382433E+03  0.7546771E-02  0.9653977E-01
         21   -1    0    0  502  501  0.00000000000E+00  0.00000000000E+00  0.43688255834E+03  0.43688255834E+03  0.00000000000E+00 0. -1.
         21   -1    0    0  501  502 -0.00000000000E+00 -0.00000000000E+00 -0.31187049926E+03  0.31187049926E+03  0.00000000000E+00 0. -1.
      99926    2    1    2    0    0 -0.59934638585E+02  0.90023773284E+02 -0.90553785244E+02  0.47706834695E+03  0.45573871789E+03 0.  0.
         25    1    3    3    0    0 -0.74693388345E+02 -0.13344990330E+03  0.18263234454E+02  0.19841631180E+03  0.12509000000E+03 0.  0.
         25    1    1    2    0    0  0.59934638585E+02 -0.90023773284E+02  0.21556584433E+03  0.27168471065E+03  0.12509000000E+03 0.  0.
         25    1    3    3    0    0  0.14758749760E+02  0.22347367659E+03 -0.10881701970E+03  0.27865203516E+03  0.12509000000E+03 0.  0.
<mgrwt>
<rscale>  2 0.73824327E+03</rscale>
<asrwt>0</asrwt>
<pdfrwt beam="1">  1       21 0.64247435E-01 0.73824327E+03</pdfrwt>
<pdfrwt beam="2">  1       21 0.45863309E-01 0.73824327E+03</pdfrwt>
<totfact> 0.84952824E+03</totfact>
</mgrwt>
</event>
<event>
 6    0  0.1191266E-005  0.6116301E+03  0.7546771E-02  0.9881567E-01
         21   -1    0    0  502  501  0.00000000000E+00  0.00000000000E+00  0.36972018594E+03  0.36972018594E+03  0.00000000000E+00 0. -1.
         21   -1    0    0  501  502 -0.00000000000E+00 -0.00000000000E+00 -0.25295576269E+03  0.25295576269E+03  0.00000000000E+00 0. -1.
      99926    2    1    2    0    0  0.73463769139E+02 -0.51932984094E+01  0.40983752901E+02  0.45892579193E+03  0.45112007134E+03 0.  0.
         25    1    3    3    0    0  0.26302090964E+02 -0.16026419970E+03  0.12221009330E+03  0.23866132636E+03  0.12509000000E+03 0.  0.
         25    1    1    2    0    0 -0.73463769139E+02  0.51932984094E+01  0.75780670344E+02  0.16375015671E+03  0.12509000000E+03 0.  0.
         25    1    3    3    0    0  0.47161678176E+02  0.15507090130E+03 -0.81226340396E+02  0.22026446557E+03  0.12509000000E+03 0.  0.
<mgrwt>
<rscale>  2 0.61163012E+03</rscale>
<asrwt>0</asrwt>
<pdfrwt beam="1">  1       21 0.54370616E-01 0.61163012E+03</pdfrwt>
<pdfrwt beam="2">  1       21 0.37199377E-01 0.61163012E+03</pdfrwt>
<totfact> 0.19449006E+04</totfact>
</mgrwt>
</event>
<event>
 6    0  0.1191266E-005  0.6833450E+03  0.7546771E-02  0.9746146E-01
         21   -1    0    0  502  501  0.00000000000E+00  0.00000000000E+00  0.23830953068E+04  0.23830953068E+04  0.00000000000E+00 0.  1.
         21   -1    0    0  501  502 -0.00000000000E+00 -0.00000000000E+00 -0.48986749542E+02  0.48986749542E+02  0.00000000000E+00 0.  1.
      99926    2    1    2    0    0  0.11374308344E+03 -0.94864870433E+01  0.20370651464E+04  0.20901613367E+04  0.45399616784E+03 0.  0.
         25    1    1    2    0    0 -0.11374308344E+03  0.94864870433E+01  0.29704341088E+03  0.34192071963E+03  0.12509000000E+03 0.  0.
         25    1    3    3    0    0  0.10918693857E+03  0.90942915208E+02  0.37220209648E+03  0.41758150116E+03  0.12509000000E+03 0.  0.
         25    1    3    3    0    0  0.45561448679E+01 -0.10042940225E+03  0.16648630499E+04  0.16725798355E+04  0.12509000000E+03 0.  0.
<mgrwt>
<rscale>  2 0.68334499E+03</rscale>
<asrwt>0</asrwt>
<pdfrwt beam="1">  1       21 0.35045511E+00 0.68334499E+03</pdfrwt>
<pdfrwt beam="2">  1       21 0.72039353E-02 0.68334499E+03</pdfrwt>
<totfact> 0.18213892E+03</totfact>
</mgrwt>
</event>
<event>
 6    0  0.1191266E-005  0.6118485E+03  0.7546771E-02  0.9881125E-01
         21   -1    0    0  502  501  0.00000000000E+00  0.00000000000E+00  0.46163875862E+03  0.46163875862E+03  0.00000000000E+00 0.  1.
         21   -1    0    0  501  502 -0.00000000000E+00 -0.00000000000E+00 -0.20273351219E+03  0.20273351219E+03  0.00000000000E+00 0.  1.
      99926    2    1    2    0    0 -0.73708753408E+02  0.52866671806E+01  0.19760631904E+03  0.50668271575E+03  0.46067145335E+03 0.  0.
         25    1    3    3    0    0  0.15748076521E+03 -0.21559519382E+02  0.81531132455E+02  0.21808218163E+03  0.12509000000E+03 0.  0.
         25    1    3    3    0    0 -0.23118951861E+03  0.26846186562E+02  0.11607518659E+03  0.28860053411E+03  0.12509000000E+03 0.  0.
         25    1    1    2    0    0  0.73708753408E+02 -0.52866671806E+01  0.61298927379E+02  0.15768955507E+03  0.12509000000E+03 0.  0.
<mgrwt>
<rscale>  2 0.61184850E+03</rscale>
<asrwt>0</asrwt>
<pdfrwt beam="1">  1       21 0.67888053E-01 0.61184850E+03</pdfrwt>
<pdfrwt beam="2">  1       21 0.29813752E-01 0.61184850E+03</pdfrwt>
<totfact> 0.18630738E+04</totfact>
</mgrwt>
</event>
<event>
 6    0  0.1191266E-005  0.8236519E+03  0.7546771E-02  0.9526399E-01
         21   -1    0    0  502  501  0.00000000000E+00  0.00000000000E+00  0.31196432631E+03  0.31196432631E+03  0.00000000000E+00 0. -1.
         21   -1    0    0  501  502 -0.00000000000E+00 -0.00000000000E+00 -0.54365380961E+03  0.54365380961E+03  0.00000000000E+00 0.  1.
      99926    2    1    2    0    0 -0.16135248347E+02  0.28700590809E+03 -0.12289132701E+03  0.52377889105E+03  0.42024910582E+03 0.  0.
         25    1    3    3    0    0  0.11656869851E+03  0.26399459569E+03 -0.12877721151E+03  0.33987127906E+03  0.12509000000E+03 0.  0.
         25    1    1    2    0    0  0.16135248347E+02 -0.28700590809E+03 -0.10879815629E+03  0.33183924486E+03  0.12509000000E+03 0.  0.
         25    1    3    3    0    0 -0.13270394686E+03  0.23011312399E+02  0.58858845021E+01  0.18390761199E+03  0.12509000000E+03 0.  0.
<mgrwt>
<rscale>  2 0.82365185E+03</rscale>
<asrwt>0</asrwt>
<pdfrwt beam="1">  1       21 0.45877107E-01 0.82365185E+03</pdfrwt>
<pdfrwt beam="2">  1       21 0.79949089E-01 0.82365185E+03</pdfrwt>
<totfact> 0.50691383E+03</totfact>
</mgrwt>
</event>
<event>
 6    0  0.1191266E-005  0.7912498E+03  0.7546771E-02  0.9572770E-01
         21   -1    0    0  502  501  0.00000000000E+00  0.00000000000E+00  0.15774320883E+04  0.15774320883E+04  0.00000000000E+00 0. -1.
         21   -1    0    0  501  502 -0.00000000000E+00 -0.00000000000E+00 -0.99223973357E+02  0.99223973357E+02  0.00000000000E+00 0. -1.
      99926    2    1    2    0    0 -0.45447421872E+02  0.15799853758E+03  0.13620273299E+04  0.14396444819E+04  0.43638146256E+03 0.  0.
         25    1    3    3    0    0  0.37765651860E+02  0.11812139546E+03  0.19688114762E+03  0.26417532609E+03  0.12509000000E+03 0.  0.
         25    1    3    3    0    0 -0.83213073732E+02  0.39877142118E+02  0.11651461823E+04  0.11754691558E+04  0.12509000000E+03 0.  0.
         25    1    1    2    0    0  0.45447421872E+02 -0.15799853758E+03  0.11618078509E+03  0.23701157979E+03  0.12509000000E+03 0.  0.
<mgrwt>
<rscale>  2 0.79124985E+03</rscale>
<asrwt>0</asrwt>
<pdfrwt beam="1">  1       21 0.23197529E+00 0.79124985E+03</pdfrwt>
<pdfrwt beam="2">  1       21 0.14591762E-01 0.79124985E+03</pdfrwt>
<totfact> 0.26563372E+03</totfact>
</mgrwt>
</event>
<event>
 6    0  0.1191266E-005  0.8240740E+03  0.7546771E-02  0.9525810E-01
         21   -1    0    0  502  501  0.00000000000E+00  0.00000000000E+00  0.42581514010E+03  0.42581514010E+03  0.00000000000E+00 0.  1.
         21   -1    0    0  501  502 -0.00000000000E+00 -0.00000000000E+00 -0.39870468812E+03  0.39870468812E+03  0.00000000000E+00 0.  1.
      99926    2    1    2    0    0  0.13530477966E+03 -0.22914913880E+03 -0.37310061735E+02  0.52349786574E+03  0.44926747435E+03 0.  0.
         25    1    3    3    0    0  0.23790738495E+03 -0.14538217751E+03  0.68005334085E+02  0.31306250960E+03  0.12509000000E+03 0.  0.
         25    1    3    3    0    0 -0.10260260529E+03 -0.83766961295E+02 -0.10531539582E+03  0.21043535614E+03  0.12509000000E+03 0.  0.
         25    1    1    2    0    0 -0.13530477966E+03  0.22914913880E+03  0.64420513714E+02  0.30102196249E+03  0.12509000000E+03 0.  0.
<mgrwt>
<rscale>  2 0.82407401E+03</rscale>
<asrwt>0</asrwt>
<pdfrwt beam="1">  1       21 0.62619874E-01 0.82407401E+03</pdfrwt>
<pdfrwt beam="2">  1       21 0.58633042E-01 0.82407401E+03</pdfrwt>
<totfact> 0.52088088E+03</totfact>
</mgrwt>
</event>
<event>
 6    0  0.1191266E-005  0.6674982E+03  0.7546771E-02  0.9774488E-01
         21   -1    0    0  502  501  0.00000000000E+00  0.00000000000E+00  0.25784738314E+03  0.25784738314E+03  0.00000000000E+00 0.  1.
         21   -1    0    0  501  502 -0.00000000000E+00 -0.00000000000E+00 -0.43199373654E+03  0.43199373654E+03  0.00000000000E+00 0.  1.
      99926    2    1    2    0    0  0.10455053711E+03 -0.90282075536E+02 -0.10029594394E+03  0.48938399447E+03  0.45864555999E+03 0.  0.
         25    1    3    3    0    0 -0.24875629183E+01 -0.22952110025E+03 -0.32860568566E+02  0.26346432110E+03  0.12509000000E+03 0.  0.
         25    1    1    2    0    0 -0.10455053711E+03  0.90282075536E+02 -0.73850409456E+02  0.20045712522E+03  0.12509000000E+03 0.  0.
         25    1    3    3    0    0  0.10703810003E+03  0.13923902471E+03 -0.67435375379E+02  0.22591967337E+03  0.12509000000E+03 0.  0.
<mgrwt>
<rscale>  2 0.66749818E+03</rscale>
<asrwt>0</asrwt>
<pdfrwt beam="1">  1       21 0.37918733E-01 0.66749818E+03</pdfrwt>
<pdfrwt beam="2">  1       21 0.63528490E-01 0.66749818E+03</pdfrwt>
<totfact> 0.13136881E+04</totfact>
</mgrwt>
</event>
<event>
 6    0  0.1191266E-005  0.6873736E+03  0.7546771E-02  0.9739072E-01
         21   -1    0    0  502  501  0.00000000000E+00  0.00000000000E+00  0.91845366812E+03  0.91845366812E+03  0.00000000000E+00 0.  1.
         21   -1    0    0  501  502 -0.00000000000E+00 -0.00000000000E+00 -0.12860813283E+03  0.12860813283E+03  0.00000000000E+00 0.  1.
      99926    2    1    2    0    0 -0.36223244009E+02  0.11512393916E+01  0.30782171752E+03  0.54775436283E+03  0.45162726165E+03 0.  0.
         25    1    1    2    0    0  0.36223244009E+02 -0.11512393916E+01  0.48202381777E+03  0.49930743812E+03  0.12509000000E+03 0.  0.
         25    1    3    3    0    0 -0.76637609373E+01  0.29538083243E+02 -0.70825131531E+02  0.14695216552E+03  0.12509000000E+03 0.  0.
         25    1    3    3    0    0 -0.28559483071E+02 -0.28386843851E+02  0.37864684905E+03  0.40080219732E+03  0.12509000000E+03 0.  0.
<mgrwt>
<rscale>  2 0.68737359E+03</rscale>
<asrwt>0</asrwt>
<pdfrwt beam="1">  1       21 0.13506671E+00 0.68737359E+03</pdfrwt>
<pdfrwt beam="2">  1       21 0.18912961E-01 0.68737359E+03</pdfrwt>
<totfact> 0.83560930E+03</totfact>
</mgrwt>
</event>
<event>
 6    0  0.1191266E-005  0.7557919E+03  0.7546771E-02  0.9626307E-01
         21   -1    0    0  502  501  0.00000000000E+00  0.00000000000E+00  0.10478543842E+03  0.10478543842E+03  0.00000000000E+00 0. -1.
         21   -1    0    0  501  502 -0.00000000000E+00 -0.00000000000E+00 -0.13628359891E+04  0.13628359891E+04  0.00000000000E+00 0. -1.
      99926    2    1    2    0    0 -0.21107240085E+03 -0.47142325123E+02 -0.87460304662E+03  0.10099605774E+04  0.45641639062E+03 0.  0.
         25    1    3    3    0    0 -0.28527377672E+03 -0.12743675750E+03 -0.63021686986E+03  0.71445228392E+03  0.12509000000E+03 0.  0.
         25    1    1    2    0    0  0.21107240085E+03  0.47142325123E+02 -0.38344750410E+03  0.45766085010E+03  0.12509000000E+03 0.  0.
         25    1    3    3    0    0  0.74201375869E+02  0.80294432375E+02 -0.24438617676E+03  0.29550829353E+03  0.12509000000E+03 0.  0.
<mgrwt>
<rscale>  2 0.75579195E+03</rscale>
<asrwt>0</asrwt>
<pdfrwt beam="1">  1       21 0.15409625E-01 0.75579195E+03</pdfrwt>
<pdfrwt beam="2">  1       21 0.20041704E+00 0.75579195E+03</pdfrwt>
<totfact> 0.39045260E+03</totfact>
</mgrwt>
</event>
<event>
 6    0  0.1191266E-005  0.7616172E+03  0.7546771E-02  0.9617299E-01
         21   -1    0    0  502  501  0.00000000000E+00  0.00000000000E+00  0.24534206483E+03  0.24534206483E+03  0.00000000000E+00 0.  1.
         21   -1    0    0  501  502 -0.00000000000E+00 -0.00000000000E+00 -0.59107348533E+03  0.59107348533E+03  0.00000000000E+00 0.  1.
      99926    2    1    2    0    0  0.33987910611E+02  0.19921954174E+03 -0.33580709440E+03  0.59852985444E+03  0.45235824092E+03 0.  0.
         25    1    3    3    0    0  0.88729490028E+02 -0.12122870634E+02 -0.30939583426E+03  0.34553317749E+03  0.12509000000E+03 0.  0.
         25    1    3    3    0    0 -0.54741579417E+02  0.21134241237E+03 -0.26411260144E+02  0.25299667695E+03  0.12509000000E+03 0.  0.
         25    1    1    2    0    0 -0.33987910611E+02 -0.19921954174E+03 -0.99243261002E+01  0.23788569571E+03  0.12509000000E+03 0.  0.
<mgrwt>
<rscale>  2 0.76161720E+03</rscale>
<asrwt>0</asrwt>
<pdfrwt beam="1">  1       21 0.36079716E-01 0.76161720E+03</pdfrwt>
<pdfrwt beam="2">  1       21 0.86922569E-01 0.76161720E+03</pdfrwt>
<totfact> 0.69483327E+03</totfact>
</mgrwt>
</event>
<event>
 6    0  0.1191266E-005  0.6551922E+03  0.7546771E-02  0.9797085E-01
         21   -1    0    0  502  501  0.00000000000E+00  0.00000000000E+00  0.41019345526E+03  0.41019345526E+03  0.00000000000E+00 0. -1.
         21   -1    0    0  501  502 -0.00000000000E+00 -0.00000000000E+00 -0.26163070879E+03  0.26163070879E+03  0.00000000000E+00 0. -1.
      99926    2    1    2    0    0  0.13826816392E+02  0.12694652015E+03  0.12623790091E+03  0.49167837127E+03  0.45771717612E+03 0.  0.
         25    1    3    3    0    0 -0.17996414360E+03  0.27484332409E+02  0.87207453873E+02  0.23747658752E+03  0.12509000000E+03 0.  0.
         25    1    3    3    0    0  0.19379095999E+03  0.99462187738E+02  0.39030447035E+02  0.25420178375E+03  0.12509000000E+03 0.  0.
         25    1    1    2    0    0 -0.13826816392E+02 -0.12694652015E+03  0.22324845557E+02  0.18014579279E+03  0.12509000000E+03 0.  0.
<mgrwt>
<rscale>  2 0.65519220E+03</rscale>
<asrwt>0</asrwt>
<pdfrwt beam="1">  1       21 0.60322567E-01 0.65519220E+03</pdfrwt>
<pdfrwt beam="2">  1       21 0.38475104E-01 0.65519220E+03</pdfrwt>
<totfact> 0.14335473E+04</totfact>
</mgrwt>
</event>
<event>
 6    0  0.1191266E-005  0.8079552E+03  0.7546771E-02  0.9548573E-01
         21   -1    0    0  502  501  0.00000000000E+00  0.00000000000E+00  0.21115444833E+03  0.21115444833E+03  0.00000000000E+00 0.  1.
         21   -1    0    0  501  502 -0.00000000000E+00 -0.00000000000E+00 -0.77288397535E+03  0.77288397535E+03  0.00000000000E+00 0.  1.
      99926    2    1    2    0    0 -0.10082896820E+02  0.48494579749E+02 -0.66084059832E+03  0.81693396046E+03  0.47772105909E+03 0.  0.
         25    1    1    2    0    0  0.10082896820E+02 -0.48494579749E+02  0.99111071292E+02  0.16710446321E+03  0.12509000000E+03 0.  0.
         25    1    3    3    0    0 -0.19046491636E+03 -0.57849927125E+02 -0.29469609266E+03  0.37698381075E+03  0.12509000000E+03 0.  0.
         25    1    3    3    0    0  0.18038201954E+03  0.10634450687E+03 -0.36614450565E+03  0.43995014972E+03  0.12509000000E+03 0.  0.
<mgrwt>
<rscale>  2 0.80795517E+03</rscale>
<asrwt>0</asrwt>
<pdfrwt beam="1">  1       21 0.31052125E-01 0.80795517E+03</pdfrwt>
<pdfrwt beam="2">  1       21 0.11365941E+00 0.80795517E+03</pdfrwt>
<totfact> 0.48349002E+03</totfact>
</mgrwt>
</event>
<event>
 6    0  0.1191266E-005  0.7727554E+03  0.7546771E-02  0.9600312E-01
         21   -1    0    0  502  501  0.00000000000E+00  0.00000000000E+00  0.82870482536E+03  0.82870482536E+03  0.00000000000E+00 0.  1.
         21   -1    0    0  501  502 -0.00000000000E+00 -0.00000000000E+00 -0.18014581809E+03  0.18014581809E+03  0.00000000000E+00 0.  1.
      99926    2    1    2    0    0  0.15299214007E+03  0.18432973654E+03  0.39178862442E+03  0.63607378753E+03  0.44012213108E+03 0.  0.
         25    1    3    3    0    0  0.26615661277E+03  0.11121120818E+03  0.27923941328E+03  0.42051091945E+03  0.12509000000E+03 0.  0.
         25    1    1    2    0    0 -0.15299214007E+03 -0.18432973654E+03  0.25677038286E+03  0.37277685592E+03  0.12509000000E+03 0.  0.
         25    1    3    3    0    0 -0.11316447269E+03  0.73118528352E+02  0.11254921114E+03  0.21556286808E+03  0.12509000000E+03 0.  0.
<mgrwt>
<rscale>  2 0.77275535E+03</rscale>
<asrwt>0</asrwt>
<pdfrwt beam="1">  1       21 0.12186835E+00 0.77275535E+03</pdfrwt>
<pdfrwt beam="2">  1       21 0.26492032E-01 0.77275535E+03</pdfrwt>
<totfact> 0.55910506E+03</totfact>
</mgrwt>
</event>
<event>
 6    0  0.1191266E-005  0.6504637E+03  0.7546771E-02  0.9805909E-01
         21   -1    0    0  502  501  0.00000000000E+00  0.00000000000E+00  0.15714521508E+04  0.15714521508E+04  0.00000000000E+00 0.  1.
         21   -1    0    0  501  502 -0.00000000000E+00 -0.00000000000E+00 -0.67310834931E+02  0.67310834931E+02  0.00000000000E+00 0.  1.
      99926    2    1    2    0    0  0.20531048684E+02  0.40180772503E+02  0.71042550636E+03  0.83398456107E+03  0.43449951620E+03 0.  0.
         25    1    1    2    0    0 -0.20531048684E+02 -0.40180772503E+02  0.79371580950E+03  0.80477842465E+03  0.12509000000E+03 0.  0.
         25    1    3    3    0    0 -0.98545794789E+02 -0.11910779780E+03  0.27721414783E+03  0.34116437830E+03  0.12509000000E+03 0.  0.
         25    1    3    3    0    0  0.11907684347E+03  0.15928857030E+03  0.43321135854E+03  0.49282018277E+03  0.12509000000E+03 0.  0.
<mgrwt>
<rscale>  2 0.65046370E+03</rscale>
<asrwt>0</asrwt>
<pdfrwt beam="1">  1       21 0.23109588E+00 0.65046370E+03</pdfrwt>
<pdfrwt beam="2">  1       21 0.98986532E-02 0.65046370E+03</pdfrwt>
<totfact> 0.56945951E+03</totfact>
</mgrwt>
</event>
<event>
 6    0  0.1191266E-005  0.6163952E+03  0.7546771E-02  0.9871963E-01
         21   -1    0    0  502  501  0.00000000000E+00  0.00000000000E+00  0.68776744709E+03  0.68776744709E+03  0.00000000000E+00 0. -1.
         21   -1    0    0  501  502 -0.00000000000E+00 -0.00000000000E+00 -0.13810738074E+03  0.13810738074E+03  0.00000000000E+00 0. -1.
      99926    2    1    2    0    0  0.42224095940E+02 -0.58284867824E+02  0.35242069547E+03  0.58147581469E+03  0.45687391738E+03 0.  0.
         25    1    3    3    0    0  0.18680114859E+03 -0.39672713226E+02  0.30961677486E+03  0.38467993015E+03  0.12509000000E+03 0.  0.
         25    1    1    2    0    0 -0.42224095940E+02  0.58284867824E+02  0.19723937088E+03  0.24439901313E+03  0.12509000000E+03 0.  0.
         25    1    3    3    0    0 -0.14457705265E+03 -0.18612154597E+02  0.42803920613E+02  0.19679588454E+03  0.12509000000E+03 0.  0.
<mgrwt>
<rscale>  2 0.61639520E+03</rscale>
<asrwt>0</asrwt>
<pdfrwt beam="1">  1       21 0.10114227E+00 0.61639520E+03</pdfrwt>
<pdfrwt beam="2">  1       21 0.20309909E-01 0.61639520E+03</pdfrwt>
<totfact> 0.15468573E+04</totfact>
</mgrwt>
</event>
<event>
 6    0  0.1191266E-005  0.9162118E+03  0.7546771E-02  0.9405540E-01
         21   -1    0    0  502  501  0.00000000000E+00  0.00000000000E+00  0.35866454038E+03  0.35866454038E+03  0.00000000000E+00 0. -1.
         21   -1    0    0  501  502 -0.00000000000E+00 -0.00000000000E+00 -0.58511787819E+03  0.58511787819E+03  0.00000000000E+00 0. -1.
      99926    2    1    2    0    0  0.33625983339E+03 -0.82084444207E+01 -0.20788327979E+03  0.58443521980E+03  0.43036149226E+03 0.  0.
         25    1    3    3    0    0 -0.29976838058E+02 -0.81400416533E+02 -0.63437973280E+02  0.16491368405E+03  0.12509000000E+03 0.  0.
         25    1    3    3    0    0  0.36623667144E+03  0.73191972112E+02 -0.14444530651E+03  0.41952153576E+03  0.12509000000E+03 0.  0.
         25    1    1    2    0    0 -0.33625983339E+03  0.82084444207E+01 -0.18570058016E+02  0.35934719877E+03  0.12509000000E+03 0.  0.
<mgrwt>
<rscale>  2 0.91621184E+03</rscale>
<asrwt>0</asrwt>
<pdfrwt beam="1">  1       21 0.52744785E-01 0.91621184E+03</pdfrwt>
<pdfrwt beam="2">  1       21 0.86046747E-01 0.91621184E+03</pdfrwt>
<totfact> 0.31074564E+03</totfact>
</mgrwt>
</event>
<event>
 6    0  0.1191266E-005  0.7009171E+03  0.7546771E-02  0.9715665E-01
         21   -1    0    0  502  501  0.00000000000E+00  0.00000000000E+00  0.11046781190E+03  0.11046781190E+03  0.00000000000E+00 0.  1.
         21   -1    0    0  501  502 -0.00000000000E+00 -0.00000000000E+00 -0.11118278964E+04  0.11118278964E+04  0.00000000000E+00 0.  1.
      99926    2    1    2    0    0 -0.55950077839E+02 -0.17033691129E+03 -0.72892682930E+03  0.87299288668E+03  0.44568731546E+03 0.  0.
         25    1    3    3    0    0 -0.19367314566E+03 -0.70590433505E+01 -0.39337396009E+03  0.45601501951E+03  0.12509000000E+03 0.  0.
         25    1    3    3    0    0  0.13772306782E+03 -0.16327786794E+03 -0.33555286921E+03  0.41697786717E+03  0.12509000000E+03 0.  0.
         25    1    1    2    0    0  0.55950077839E+02  0.17033691129E+03 -0.27243325525E+03  0.34930282167E+03  0.12509000000E+03 0.  0.
<mgrwt>
<rscale>  2 0.70091710E+03</rscale>
<asrwt>0</asrwt>
<pdfrwt beam="1">  1       21 0.16245267E-01 0.70091710E+03</pdfrwt>
<pdfrwt beam="2">  1       21 0.16350410E+00 0.70091710E+03</pdfrwt>
<totfact> 0.65706462E+03</totfact>
</mgrwt>
</event>
<event>
 6    0  0.1191266E-005  0.7523729E+03  0.7546771E-02  0.9631635E-01
         21   -1    0    0  502  501  0.00000000000E+00  0.00000000000E+00  0.10595320119E+04  0.10595320119E+04  0.00000000000E+00 0. -1.
         21   -1    0    0  501  502 -0.00000000000E+00 -0.00000000000E+00 -0.13356487552E+03  0.13356487552E+03  0.00000000000E+00 0. -1.
      99926    2    1    2    0    0 -0.14529133802E+03 -0.16672717940E+03  0.61027358991E+03  0.78785936615E+03  0.44652099731E+03 0.  0.
         25    1    3    3    0    0 -0.88038308799E+02 -0.27510059493E+03  0.45830386566E+03  0.55598653088E+03  0.12509000000E+03 0.  0.
         25    1    1    2    0    0  0.14529133802E+03  0.16672717940E+03  0.31569354646E+03  0.40523752126E+03  0.12509000000E+03 0.  0.
         25    1    3    3    0    0 -0.57253029223E+02  0.10837341552E+03  0.15196972425E+03  0.23187283527E+03  0.12509000000E+03 0.  0.
<mgrwt>
<rscale>  2 0.75237294E+03</rscale>
<asrwt>0</asrwt>
<pdfrwt beam="1">  1       21 0.15581353E+00 0.75237294E+03</pdfrwt>
<pdfrwt beam="2">  1       21 0.19641894E-01 0.75237294E+03</pdfrwt>
<totfact> 0.51926983E+03</totfact>
</mgrwt>
</event>
<event>
 6    0  0.1191266E-005  0.6570616E+03  0.7546771E-02  0.9793618E-01
         21   -1    0    0  502  501  0.00000000000E+00  0.00000000000E+00  0.67185487647E+03  0.67185487647E+03  0.00000000000E+00 0. -1.
         21   -1    0    0  501  502 -0.00000000000E+00 -0.00000000000E+00 -0.16064852974E+03  0.16064852974E+03  0.00000000000E+00 0. -1.
      99926    2    1    2    0    0  0.86931135049E+02  0.12969111023E+03  0.40905468031E+03  0.60787198061E+03  0.42167025864E+03 0.  0.
         25    1    3    3    0    0  0.52815008383E+02  0.62287160571E+02  0.43456890632E+03  0.45952884340E+03  0.12509000000E+03 0.  0.
         25    1    1    2    0    0 -0.86931135049E+02 -0.12969111023E+03  0.10215166642E+03  0.22463142559E+03  0.12509000000E+03 0.  0.
         25    1    3    3    0    0  0.34116126666E+02  0.67403949658E+02 -0.25514226011E+02  0.14834313721E+03  0.12509000000E+03 0.  0.
<mgrwt>
<rscale>  2 0.65706164E+03</rscale>
<asrwt>0</asrwt>
<pdfrwt beam="1">  1       21 0.98802186E-01 0.65706164E+03</pdfrwt>
<pdfrwt beam="2">  1       21 0.23624784E-01 0.65706164E+03</pdfrwt>
<totfact> 0.12131700E+04</totfact>
</mgrwt>
</event>
<event>
 6    0  0.1191266E-005  0.7080105E+03  0.7546771E-02  0.9703630E-01
         21   -1    0    0  502  501  0.00000000000E+00  0.00000000000E+00  0.60004549930E+03  0.60004549930E+03  0.00000000000E+00 0.  1.
         21   -1    0    0  501  502 -0.00000000000E+00 -0.00000000000E+00 -0.20885037354E+03  0.20885037354E+03  0.00000000000E+00 0.  1.
      99926    2    1    2    0    0 -0.76754952647E+02  0.10714492635E+03  0.41717699680E+03  0.62533682588E+03  0.44680884183E+03 0.  0.
         25    1    1    2    0    0  0.76754952647E+02 -0.10714492635E+03 -0.25981871046E+02  0.18355904696E+03  0.12509000000E+03 0.  0.
         25    1    3    3    0    0 -0.26420726089E+02  0.92119671181E+02 -0.27908483704E+02  0.16003274711E+03  0.12509000000E+03 0.  0.
         25    1    3    3    0    0 -0.50334226557E+02  0.15025255169E+02  0.44508548051E+03  0.46530407877E+03  0.12509000000E+03 0.  0.
<mgrwt>
<rscale>  2 0.70801053E+03</rscale>
<asrwt>0</asrwt>
<pdfrwt beam="1">  1       21 0.88241985E-01 0.70801053E+03</pdfrwt>
<pdfrwt beam="2">  1       21 0.30713290E-01 0.70801053E+03</pdfrwt>
<totfact> 0.93887255E+03</totfact>
</mgrwt>
</event>
<event>
 6    0  0.1191266E-005  0.6675758E+03  0.7546771E-02  0.9774347E-01
         21   -1    0    0  502  501  0.00000000000E+00  0.00000000000E+00  0.28897757214E+03  0.28897757214E+03  0.00000000000E+00 0.  1.
         21   -1    0    0  501  502 -0.00000000000E+00 -0.00000000000E+00 -0.38554679551E+03  0.38554679551E+03  0.00000000000E+00 0.  1.
      99926    2    1    2    0    0  0.10464681612E+03 -0.10288358889E+03 -0.52271753243E+02  0.47667148558E+03  0.45049681464E+03 0.  0.
         25    1    3    3    0    0 -0.81114854691E+02  0.93068335050E+02 -0.29652047037E+02  0.17823604191E+03  0.12509000000E+03 0.  0.
         25    1    3    3    0    0  0.18576167081E+03 -0.19595192394E+03 -0.22619706206E+02  0.29843544368E+03  0.12509000000E+03 0.  0.
         25    1    1    2    0    0 -0.10464681612E+03  0.10288358889E+03 -0.44297470127E+02  0.19785288207E+03  0.12509000000E+03 0.  0.
<mgrwt>
<rscale>  2 0.66757584E+03</rscale>
<asrwt>0</asrwt>
<pdfrwt beam="1">  1       21 0.42496702E-01 0.66757584E+03</pdfrwt>
<pdfrwt beam="2">  1       21 0.56698058E-01 0.66757584E+03</pdfrwt>
<totfact> 0.13330031E+04</totfact>
</mgrwt>
</event>
<event>
 6    0  0.1191266E-005  0.6368527E+03  0.7546771E-02  0.9831767E-01
         21   -1    0    0  502  501  0.00000000000E+00  0.00000000000E+00  0.12617030583E+04  0.12617030583E+04  0.00000000000E+00 0.  1.
         21   -1    0    0  501  502 -0.00000000000E+00 -0.00000000000E+00 -0.80363862880E+02  0.80363862880E+02  0.00000000000E+00 0.  1.
      99926    2    1    2    0    0 -0.87704622573E+02  0.50052362710E+02  0.95375656202E+03  0.10634296965E+04  0.45938415303E+03 0.  0.
         25    1    3    3    0    0 -0.25098490777E+02  0.14691005708E+03  0.16078981480E+03  0.25241507830E+03  0.12509000000E+03 0.  0.
         25    1    3    3    0    0 -0.62606131796E+02 -0.96857694369E+02  0.79296674723E+03  0.81101461825E+03  0.12509000000E+03 0.  0.
         25    1    1    2    0    0  0.87704622573E+02 -0.50052362710E+02  0.22758263344E+03  0.27863722468E+03  0.12509000000E+03 0.  0.
<mgrwt>
<rscale>  2 0.63685267E+03</rscale>
<asrwt>0</asrwt>
<pdfrwt beam="1">  1       21 0.18554456E+00 0.63685267E+03</pdfrwt>
<pdfrwt beam="2">  1       21 0.11818216E-01 0.63685267E+03</pdfrwt>
<totfact> 0.83214995E+03</totfact>
</mgrwt>
</event>
<event>
 6    0  0.1191266E-005  0.9573126E+03  0.7546771E-02  0.9356644E-01
         21   -1    0    0  502  501  0.00000000000E+00  0.00000000000E+00  0.54638485600E+03  0.54638485600E+03  0.00000000000E+00 0.  1.
         21   -1    0    0  501  502 -0.00000000000E+00 -0.00000000000E+00 -0.41932320271E+03  0.41932320271E+03  0.00000000000E+00 0.  1.
      99926    2    1    2    0    0  0.38557199056E+01  0.25282497090E+01  0.43950507301E+03  0.62912276901E+03  0.45012163985E+03 0.  0.
         25    1    1    2    0    0 -0.38557199056E+01 -0.25282497090E+01 -0.31244341971E+03  0.33658528970E+03  0.12509000000E+03 0.  0.
         25    1    3    3    0    0 -0.84367810692E+02  0.15659881421E+03  0.30172370224E+03  0.37192178840E+03  0.12509000000E+03 0.  0.
         25    1    3    3    0    0  0.88223530598E+02 -0.15407056450E+03  0.13778137076E+03  0.25720098061E+03  0.12509000000E+03 0.  0.
<mgrwt>
<rscale>  2 0.95731259E+03</rscale>
<asrwt>0</asrwt>
<pdfrwt beam="1">  1       21 0.80350715E-01 0.95731259E+03</pdfrwt>
<pdfrwt beam="2">  1       21 0.61665176E-01 0.95731259E+03</pdfrwt>
<totfact> 0.25719481E+03</totfact>
</mgrwt>
</event>
<event>
 6    0  0.1191266E-005  0.6898339E+03  0.7546771E-02  0.9734777E-01
         21   -1    0    0  502  501  0.00000000000E+00  0.00000000000E+00  0.80107580499E+02  0.80107580499E+02  0.00000000000E+00 0. -1.
         21   -1    0    0  501  502 -0.00000000000E+00 -0.00000000000E+00 -0.14850993054E+04  0.14850993054E+04  0.00000000000E+00 0. -1.
      99926    2    1    2    0    0  0.69504792802E+02  0.76022284831E+02 -0.68103187667E+03  0.82333380109E+03  0.45106964757E+03 0.  0.
         25    1    1    2    0    0 -0.69504792802E+02 -0.76022284831E+02 -0.72395984820E+03  0.74187308478E+03  0.12509000000E+03 0.  0.
         25    1    3    3    0    0 -0.55425181295E+02 -0.13029944680E+03 -0.24188978185E+03  0.30693333351E+03  0.12509000000E+03 0.  0.
         25    1    3    3    0    0  0.12492997410E+03  0.20632173163E+03 -0.43914209482E+03  0.51640046758E+03  0.12509000000E+03 0.  0.
<mgrwt>
<rscale>  2 0.68983393E+03</rscale>
<asrwt>0</asrwt>
<pdfrwt beam="1">  1       21 0.11780526E-01 0.68983393E+03</pdfrwt>
<pdfrwt beam="2">  1       21 0.21839696E+00 0.68983393E+03</pdfrwt>
<totfact> 0.49561899E+03</totfact>
</mgrwt>
</event>
<event>
 6    0  0.1191266E-005  0.7043153E+03  0.7546771E-02  0.9709881E-01
         21   -1    0    0  502  501  0.00000000000E+00  0.00000000000E+00  0.84546811142E+02  0.84546811142E+02  0.00000000000E+00 0.  1.
         21   -1    0    0  501  502 -0.00000000000E+00 -0.00000000000E+00 -0.14668208300E+04  0.14668208300E+04  0.00000000000E+00 0.  1.
      99926    2    1    2    0    0  0.12326536257E+02 -0.12659216962E+03 -0.12285560047E+04  0.13158803658E+04  0.45388738618E+03 0.  0.
         25    1    3    3    0    0 -0.42330310787E+02 -0.10133242258E+03 -0.11380455322E+04  0.11501544490E+04  0.12509000000E+03 0.  0.
         25    1    3    3    0    0  0.54656847044E+02 -0.25259747035E+02 -0.90510472520E+02  0.16572591676E+03  0.12509000000E+03 0.  0.
         25    1    1    2    0    0 -0.12326536257E+02  0.12659216962E+03 -0.15371801416E+03  0.23548727541E+03  0.12509000000E+03 0.  0.
<mgrwt>
<rscale>  2 0.70431534E+03</rscale>
<asrwt>0</asrwt>
<pdfrwt beam="1">  1       21 0.12433355E-01 0.70431534E+03</pdfrwt>
<pdfrwt beam="2">  1       21 0.21570893E+00 0.70431534E+03</pdfrwt>
<totfact> 0.46569197E+03</totfact>
</mgrwt>
</event>
<event>
 6    0  0.1191266E-005  0.9011248E+03  0.7546771E-02  0.9424176E-01
         21   -1    0    0  502  501  0.00000000000E+00  0.00000000000E+00  0.69159392820E+03  0.69159392820E+03  0.00000000000E+00 0. -1.
         21   -1    0    0  501  502 -0.00000000000E+00 -0.00000000000E+00 -0.29353423721E+03  0.29353423721E+03  0.00000000000E+00 0. -1.
      99926    2    1    2    0    0  0.26633420744E+03 -0.38612625234E+01  0.19047137442E+02  0.50528773021E+03  0.42895696457E+03 0.  0.
         25    1    3    3    0    0  0.24419748458E+03  0.40615995861E+02 -0.12840556312E+03  0.30564287548E+03  0.12509000000E+03 0.  0.
         25    1    1    2    0    0 -0.26633420744E+03  0.38612625234E+01  0.37901255355E+03  0.47984043520E+03  0.12509000000E+03 0.  0.
         25    1    3    3    0    0  0.22136722865E+02 -0.44477258384E+02  0.14745270057E+03  0.19964485472E+03  0.12509000000E+03 0.  0.
<mgrwt>
<rscale>  2 0.90112484E+03</rscale>
<asrwt>0</asrwt>
<pdfrwt beam="1">  1       21 0.10170499E+00 0.90112484E+03</pdfrwt>
<pdfrwt beam="2">  1       21 0.43166800E-01 0.90112484E+03</pdfrwt>
<totfact> 0.31876509E+03</totfact>
</mgrwt>
</event>
<event>
 6    0  0.1191266E-005  0.7518030E+03  0.7546771E-02  0.9632526E-01
         21   -1    0    0  502  501  0.00000000000E+00  0.00000000000E+00  0.59363735395E+02  0.59363735395E+02  0.00000000000E+00 0. -1.
         21   -1    0    0  501  502 -0.00000000000E+00 -0.00000000000E+00 -0.23802738571E+04  0.23802738571E+04  0.00000000000E+00 0. -1.
      99926    2    1    2    0    0  0.70225937302E+02 -0.20317745569E+03 -0.14991124782E+04  0.15810272992E+04  0.45397834505E+03 0.  0.
         25    1    3    3    0    0 -0.88441006807E+02 -0.11264198090E+03 -0.11636829741E+04  0.11791164488E+04  0.12509000000E+03 0.  0.
         25    1    3    3    0    0  0.15866694411E+03 -0.90535474799E+02 -0.33542950413E+03  0.40191085043E+03  0.12509000000E+03 0.  0.
         25    1    1    2    0    0 -0.70225937302E+02  0.20317745569E+03 -0.82179764352E+03  0.85861029330E+03  0.12509000000E+03 0.  0.
<mgrwt>
<rscale>  2 0.75180303E+03</rscale>
<asrwt>0</asrwt>
<pdfrwt beam="1">  1       21 0.87299590E-02 0.75180303E+03</pdfrwt>
<pdfrwt beam="2">  1       21 0.35004036E+00 0.75180303E+03</pdfrwt>
<totfact> 0.12707212E+03</totfact>
</mgrwt>
</event>
<event>
 6    0  0.1191266E-005  0.6754792E+03  0.7546771E-02  0.9760110E-01
         21   -1    0    0  502  501  0.00000000000E+00  0.00000000000E+00  0.23408500254E+03  0.23408500254E+03  0.00000000000E+00 0. -1.
         21   -1    0    0  501  502 -0.00000000000E+00 -0.00000000000E+00 -0.48729317358E+03  0.48729317358E+03  0.00000000000E+00 0. -1.
      99926    2    1    2    0    0 -0.12055808370E+03  0.44958638559E+02 -0.76943955684E+02  0.46983869126E+03  0.44527799492E+03 0.  0.
         25    1    3    3    0    0 -0.10841229805E+03  0.67307450251E+02 -0.21649262362E+03  0.28071352552E+03  0.12509000000E+03 0.  0.
         25    1    1    2    0    0  0.12055808370E+03 -0.44958638559E+02 -0.17626421536E+03  0.25153948486E+03  0.12509000000E+03 0.  0.
         25    1    3    3    0    0 -0.12145785649E+02 -0.22348811691E+02  0.13954866794E+03  0.18912516574E+03  0.12509000000E+03 0.  0.
<mgrwt>
<rscale>  2 0.67547916E+03</rscale>
<asrwt>0</asrwt>
<pdfrwt beam="1">  1       21 0.34424265E-01 0.67547916E+03</pdfrwt>
<pdfrwt beam="2">  1       21 0.71660761E-01 0.67547916E+03</pdfrwt>
<totfact> 0.12183791E+04</totfact>
</mgrwt>
</event>
<event>
 6    0  0.1191266E-005  0.7097374E+03  0.7546771E-02  0.9700723E-01
         21   -1    0    0  502  501  0.00000000000E+00  0.00000000000E+00  0.27336970097E+03  0.27336970097E+03  0.00000000000E+00 0.  1.
         21   -1    0    0  501  502 -0.00000000000E+00 -0.00000000000E+00 -0.46066477747E+03  0.46066477747E+03  0.00000000000E+00 0.  1.
      99926    2    1    2    0    0 -0.16998301188E+03  0.47911834319E+02 -0.11652174386E+03  0.50633700171E+03  0.46001095021E+03 0.  0.
         25    1    1    2    0    0  0.16998301188E+03 -0.47911834319E+02 -0.70773332632E+02  0.22769747673E+03  0.12509000000E+03 0.  0.
         25    1    3    3    0    0 -0.10006058226E+03  0.17109287552E+03 -0.19187077249E+03  0.30289733180E+03  0.12509000000E+03 0.  0.
         25    1    3    3    0    0 -0.69922429627E+02 -0.12318104120E+03  0.75349028631E+02  0.20343966991E+03  0.12509000000E+03 0.  0.
<mgrwt>
<rscale>  2 0.70973739E+03</rscale>
<asrwt>0</asrwt>
<pdfrwt beam="1">  1       21 0.40201427E-01 0.70973739E+03</pdfrwt>
<pdfrwt beam="2">  1       21 0.67744820E-01 0.70973739E+03</pdfrwt>
<totfact> 0.99962192E+03</totfact>
</mgrwt>
</event>
<event>
 6    0  0.1191266E-005  0.6789343E+03  0.7546771E-02  0.9753951E-01
         21   -1    0    0  502  501  0.00000000000E+00  0.00000000000E+00  0.90452870331E+03  0.90452870331E+03  0.00000000000E+00 0.  1.
         21   -1    0    0  501  502 -0.00000000000E+00 -0.00000000000E+00 -0.12740110969E+03  0.12740110969E+03  0.00000000000E+00 0.  1.
      99926    2    1    2    0    0  0.18723611222E+02 -0.10131787726E+03  0.72477251821E+03  0.86162289039E+03  0.45440391308E+03 0.  0.
         25    1    3    3    0    0  0.19873876680E+03 -0.39382602265E+02  0.37596869974E+03  0.44502590720E+03  0.12509000000E+03 0.  0.
         25    1    3    3    0    0 -0.18001515558E+03 -0.61935274990E+02  0.34880381847E+03  0.41659698319E+03  0.12509000000E+03 0.  0.
         25    1    1    2    0    0 -0.18723611222E+02  0.10131787726E+03  0.52355075405E+02  0.17030692261E+03  0.12509000000E+03 0.  0.
<mgrwt>
<rscale>  2 0.67893434E+03</rscale>
<asrwt>0</asrwt>
<pdfrwt beam="1">  1       21 0.13301892E+00 0.67893434E+03</pdfrwt>
<pdfrwt beam="2">  1       21 0.18735458E-01 0.67893434E+03</pdfrwt>
<totfact> 0.88743198E+03</totfact>
</mgrwt>
</event>
<event>
 6    0  0.1191266E-005  0.5758083E+03  0.7546771E-02  0.9956907E-01
         21   -1    0    0  502  501  0.00000000000E+00  0.00000000000E+00  0.52167246030E+02  0.52167246030E+02  0.00000000000E+00 0.  1.
         21   -1    0    0  501  502 -0.00000000000E+00 -0.00000000000E+00 -0.15889051236E+04  0.15889051236E+04  0.00000000000E+00 0.  1.
      99926    2    1    2    0    0 -0.41486933846E+01 -0.22251192869E+02 -0.12604420360E+04  0.13369355132E+04  0.44516301872E+03 0.  0.
         25    1    3    3    0    0  0.43762387959E+02 -0.83164114297E+02 -0.14986707918E+03  0.21665425458E+03  0.12509000000E+03 0.  0.
         25    1    1    2    0    0  0.41486933846E+01  0.22251192869E+02 -0.27629584162E+03  0.30413685643E+03  0.12509000000E+03 0.  0.
         25    1    3    3    0    0 -0.47911081344E+02  0.60912921428E+02 -0.11105749568E+04  0.11202812586E+04  0.12509000000E+03 0.  0.
<mgrwt>
<rscale>  2 0.57580832E+03</rscale>
<asrwt>0</asrwt>
<pdfrwt beam="1">  1       21 0.76716536E-02 0.57580832E+03</pdfrwt>
<pdfrwt beam="2">  1       21 0.23366252E+00 0.57580832E+03</pdfrwt>
<totfact> 0.88462872E+03</totfact>
</mgrwt>
</event>
<event>
 6    0  0.1191266E-005  0.6059537E+03  0.7546771E-02  0.9893130E-01
         21   -1    0    0  502  501  0.00000000000E+00  0.00000000000E+00  0.21973141557E+03  0.21973141557E+03  0.00000000000E+00 0.  1.
         21   -1    0    0  501  502 -0.00000000000E+00 -0.00000000000E+00 -0.41775993425E+03  0.41775993425E+03  0.00000000000E+00 0.  1.
      99926    2    1    2    0    0  0.25591126388E+02  0.69089617658E+02 -0.20384225364E+03  0.49219995767E+03  0.44190593224E+03 0.  0.
         25    1    3    3    0    0 -0.10673298733E+03 -0.74242621390E+02 -0.18700989943E+03  0.25985401286E+03  0.12509000000E+03 0.  0.
         25    1    3    3    0    0  0.13232411372E+03  0.14333223905E+03 -0.16832354210E+02  0.23234594481E+03  0.12509000000E+03 0.  0.
         25    1    1    2    0    0 -0.25591126388E+02 -0.69089617658E+02  0.58137349673E+01  0.14529139215E+03  0.12509000000E+03 0.  0.
<mgrwt>
<rscale>  2 0.60595373E+03</rscale>
<asrwt>0</asrwt>
<pdfrwt beam="1">  1       21 0.32313444E-01 0.60595373E+03</pdfrwt>
<pdfrwt beam="2">  1       21 0.61435284E-01 0.60595373E+03</pdfrwt>
<totfact> 0.19836612E+04</totfact>
</mgrwt>
</event>
<event>
 6    0  0.1191266E-005  0.7009797E+03  0.7546771E-02  0.9715558E-01
         21   -1    0    0  502  501  0.00000000000E+00  0.00000000000E+00  0.21413040883E+03  0.21413040883E+03  0.00000000000E+00 0. -1.
         21   -1    0    0  501  502 -0.00000000000E+00 -0.00000000000E+00 -0.57368374284E+03  0.57368374284E+03  0.00000000000E+00 0. -1.
      99926    2    1    2    0    0 -0.93847346290E+02  0.36607473465E+02 -0.80922874697E+02  0.46620900171E+03  0.44794518650E+03 0.  0.
         25    1    3    3    0    0 -0.19351547492E+03 -0.97694864914E+02 -0.44820287334E+02  0.25426146369E+03  0.12509000000E+03 0.  0.
         25    1    3    3    0    0  0.99668128627E+02  0.13430233838E+03 -0.36102587362E+02  0.21194753802E+03  0.12509000000E+03 0.  0.
         25    1    1    2    0    0  0.93847346290E+02 -0.36607473465E+02 -0.27863045932E+03  0.32160514996E+03  0.12509000000E+03 0.  0.
<mgrwt>
<rscale>  2 0.70097970E+03</rscale>
<asrwt>0</asrwt>
<pdfrwt beam="1">  1       21 0.31489766E-01 0.70097970E+03</pdfrwt>
<pdfrwt beam="2">  1       21 0.84365257E-01 0.70097970E+03</pdfrwt>
<totfact> 0.99459550E+03</totfact>
</mgrwt>
</event>
<event>
 6    0  0.1191266E-005  0.6632422E+03  0.7546771E-02  0.9782244E-01
         21   -1    0    0  502  501  0.00000000000E+00  0.00000000000E+00  0.22128502014E+03  0.22128502014E+03  0.00000000000E+00 0.  1.
         21   -1    0    0  501  502 -0.00000000000E+00 -0.00000000000E+00 -0.49697239216E+03  0.49697239216E+03  0.00000000000E+00 0.  1.
      99926    2    1    2    0    0 -0.20745958215E+01 -0.97748018471E+02 -0.31275624414E+03  0.55522186881E+03  0.44821409649E+03 0.  0.
         25    1    3    3    0    0  0.30033631724E+02  0.66436341413E+01 -0.36018016811E+03  0.38252244183E+03  0.12509000000E+03 0.  0.
         25    1    1    2    0    0  0.20745958215E+01  0.97748018471E+02  0.37068872111E+02  0.16303554349E+03  0.12509000000E+03 0.  0.
         25    1    3    3    0    0 -0.32108227545E+02 -0.10439165261E+03  0.47423923972E+02  0.17269942697E+03  0.12509000000E+03 0.  0.
<mgrwt>
<rscale>  2 0.66324218E+03</rscale>
<asrwt>0</asrwt>
<pdfrwt beam="1">  1       21 0.32541915E-01 0.66324218E+03</pdfrwt>
<pdfrwt beam="2">  1       21 0.73084174E-01 0.66324218E+03</pdfrwt>
<totfact> 0.13085779E+04</totfact>
</mgrwt>
</event>
<event>
 6    0  0.1191266E-005  0.6326387E+03  0.7546771E-02  0.9839913E-01
         21   -1    0    0  502  501  0.00000000000E+00  0.00000000000E+00  0.28169669647E+03  0.28169669647E+03  0.00000000000E+00 0. -1.
         21   -1    0    0  501  502 -0.00000000000E+00 -0.00000000000E+00 -0.35519741806E+03  0.35519741806E+03  0.00000000000E+00 0. -1.
      99926    2    1    2    0    0 -0.79886431955E+02 -0.19033905224E+02 -0.15450673628E+03  0.46673649915E+03  0.43269677203E+03 0.  0.
         25    1    1    2    0    0  0.79886431955E+02  0.19033905224E+02  0.81006014682E+02  0.17015761538E+03  0.12509000000E+03 0.  0.
         25    1    3    3    0    0  0.13526567381E+03  0.25749251342E+02 -0.84717228758E+02  0.20441218996E+03  0.12509000000E+03 0.  0.
         25    1    3    3    0    0 -0.21515210577E+03 -0.44783156566E+02 -0.69789507520E+02  0.26232430918E+03  0.12509000000E+03 0.  0.
<mgrwt>
<rscale>  2 0.63263873E+03</rscale>
<asrwt>0</asrwt>
<pdfrwt beam="1">  1       21 0.41425985E-01 0.63263873E+03</pdfrwt>
<pdfrwt beam="2">  1       21 0.52234914E-01 0.63263873E+03</pdfrwt>
<totfact> 0.16910414E+04</totfact>
</mgrwt>
</event>
<event>
 6    0  0.1191266E-005  0.6324221E+03  0.7546771E-02  0.9840334E-01
         21   -1    0    0  502  501  0.00000000000E+00  0.00000000000E+00  0.86270263725E+02  0.86270263725E+02  0.00000000000E+00 0.  1.
         21   -1    0    0  501  502 -0.00000000000E+00 -0.00000000000E+00 -0.11590255507E+04  0.11590255507E+04  0.00000000000E+00 0.  1.
      99926    2    1    2    0    0  0.70509755020E+02 -0.73191850188E+02 -0.58696474723E+03  0.73346710373E+03  0.42792254588E+03 0.  0.
         25    1    1    2    0    0 -0.70509755020E+02  0.73191850188E+02 -0.48579053975E+03  0.51182871070E+03  0.12509000000E+03 0.  0.
         25    1    3    3    0    0  0.94318881510E+02 -0.11795137227E+03 -0.56326919448E+03  0.59642960287E+03  0.12509000000E+03 0.  0.
         25    1    3    3    0    0 -0.23809126490E+02  0.44759522081E+02 -0.23695552748E+02  0.13703750086E+03  0.12509000000E+03 0.  0.
<mgrwt>
<rscale>  2 0.63242214E+03</rscale>
<asrwt>0</asrwt>
<pdfrwt beam="1">  1       21 0.12686804E-01 0.63242214E+03</pdfrwt>
<pdfrwt beam="2">  1       21 0.17044493E+00 0.63242214E+03</pdfrwt>
<totfact> 0.93884703E+03</totfact>
</mgrwt>
</event>
<event>
 6    0  0.1191266E-005  0.5869637E+03  0.7546771E-02  0.9932828E-01
         21   -1    0    0  502  501  0.00000000000E+00  0.00000000000E+00  0.97933924412E+02  0.97933924412E+02  0.00000000000E+00 0.  1.
         21   -1    0    0  501  502 -0.00000000000E+00 -0.00000000000E+00 -0.87948676587E+03  0.87948676587E+03  0.00000000000E+00 0.  1.
      99926    2    1    2    0    0 -0.30280213811E+02  0.20332328604E+02 -0.54482304415E+03  0.70720077990E+03  0.44941128014E+03 0.  0.
         25    1    3    3    0    0  0.13990759647E+03  0.67448117704E+02 -0.39955470951E+03  0.44655890779E+03  0.12509000000E+03 0.  0.
         25    1    3    3    0    0 -0.17018781028E+03 -0.47115789099E+02 -0.14526833464E+03  0.26064187211E+03  0.12509000000E+03 0.  0.
         25    1    1    2    0    0  0.30280213811E+02 -0.20332328604E+02 -0.23672979731E+03  0.27021991039E+03  0.12509000000E+03 0.  0.
<mgrwt>
<rscale>  2 0.58696368E+03</rscale>
<asrwt>0</asrwt>
<pdfrwt beam="1">  1       21 0.14402048E-01 0.58696368E+03</pdfrwt>
<pdfrwt beam="2">  1       21 0.12933628E+00 0.58696368E+03</pdfrwt>
<totfact> 0.15981655E+04</totfact>
</mgrwt>
</event>
<event>
 6    0  0.1191266E-005  0.5902310E+03  0.7546771E-02  0.9925883E-01
         21   -1    0    0  502  501  0.00000000000E+00  0.00000000000E+00  0.32685333794E+02  0.32685333794E+02  0.00000000000E+00 0. -1.
         21   -1    0    0  501  502 -0.00000000000E+00 -0.00000000000E+00 -0.26645947656E+04  0.26645947656E+04  0.00000000000E+00 0. -1.
      99926    2    1    2    0    0  0.25612498240E+02 -0.54579128042E+02 -0.20506374467E+04  0.20996518621E+04  0.44697776542E+03 0.  0.
         25    1    3    3    0    0  0.13593816366E+03 -0.48505608430E+02 -0.17067364773E+04  0.17173901389E+04  0.12509000000E+03 0.  0.
         25    1    3    3    0    0 -0.11032566542E+03 -0.60735196121E+01 -0.34390096944E+03  0.38226172314E+03  0.12509000000E+03 0.  0.
         25    1    1    2    0    0 -0.25612498240E+02  0.54579128042E+02 -0.58127198509E+03  0.59762823732E+03  0.12509000000E+03 0.  0.
<mgrwt>
<rscale>  2 0.59023104E+03</rscale>
<asrwt>0</asrwt>
<pdfrwt beam="1">  1       21 0.48066672E-02 0.59023104E+03</pdfrwt>
<pdfrwt beam="2">  1       21 0.39185213E+00 0.59023104E+03</pdfrwt>
<totfact> 0.20981198E+03</totfact>
</mgrwt>
</event>
<event>
 6    0  0.1191266E-005  0.6935495E+03  0.7546771E-02  0.9728327E-01
         21   -1    0    0  502  501  0.00000000000E+00  0.00000000000E+00  0.22918972894E+03  0.22918972894E+03  0.00000000000E+00 0.  1.
         21   -1    0    0  501  502 -0.00000000000E+00 -0.00000000000E+00 -0.52468634472E+03  0.52468634472E+03  0.00000000000E+00 0.  1.
      99926    2    1    2    0    0 -0.55013054972E+02 -0.14943104050E+03 -0.80073645749E+02  0.45822317549E+03  0.42213815005E+03 0.  0.
         25    1    3    3    0    0 -0.95748800568E+02 -0.11646468206E+03 -0.19797248569E+03  0.27851834440E+03  0.12509000000E+03 0.  0.
         25    1    1    2    0    0  0.55013054972E+02  0.14943104050E+03 -0.21542297003E+03  0.29565289817E+03  0.12509000000E+03 0.  0.
         25    1    3    3    0    0  0.40735745596E+02 -0.32966358446E+02  0.11789883994E+03  0.17970483109E+03  0.12509000000E+03 0.  0.
<mgrwt>
<rscale>  2 0.69354948E+03</rscale>
<asrwt>0</asrwt>
<pdfrwt beam="1">  1       21 0.33704372E-01 0.69354948E+03</pdfrwt>
<pdfrwt beam="2">  1       21 0.77159756E-01 0.69354948E+03</pdfrwt>
<totfact> 0.10694544E+04</totfact>
</mgrwt>
</event>
<event>
 6    0  0.1191266E-005  0.8746341E+03  0.7546771E-02  0.9457858E-01
         21   -1    0    0  502  501  0.00000000000E+00  0.00000000000E+00  0.48839735489E+03  0.48839735489E+03  0.00000000000E+00 0.  1.
         21   -1    0    0  501  502 -0.00000000000E+00 -0.00000000000E+00 -0.39157911778E+03  0.39157911778E+03  0.00000000000E+00 0.  1.
      99926    2    1    2    0    0 -0.36571630421E+01 -0.24414603845E+03  0.24932437620E+03  0.56608748993E+03  0.44572608040E+03 0.  0.
         25    1    1    2    0    0  0.36571630421E+01  0.24414603845E+03 -0.15250613908E+03  0.31388898275E+03  0.12509000000E+03 0.  0.
         25    1    3    3    0    0 -0.13087546132E+03 -0.27121212613E+03  0.18231204721E+03  0.37359014226E+03  0.12509000000E+03 0.  0.
         25    1    3    3    0    0  0.12721829828E+03  0.27066087688E+02  0.67012328990E+02  0.19249734766E+03  0.12509000000E+03 0.  0.
<mgrwt>
<rscale>  2 0.87463411E+03</rscale>
<asrwt>0</asrwt>
<pdfrwt beam="1">  1       21 0.71823140E-01 0.87463411E+03</pdfrwt>
<pdfrwt beam="2">  1       21 0.57585164E-01 0.87463411E+03</pdfrwt>
<totfact> 0.39389821E+03</totfact>
</mgrwt>
</event>
<event>
 6    0  0.1191266E-005  0.7913173E+03  0.7546771E-02  0.9572671E-01
         21   -1    0    0  502  501  0.00000000000E+00  0.00000000000E+00  0.32223771613E+03  0.32223771613E+03  0.00000000000E+00 0. -1.
         21   -1    0    0  501  502 -0.00000000000E+00 -0.00000000000E+00 -0.48580830379E+03  0.48580830379E+03  0.00000000000E+00 0. -1.
      99926    2    1    2    0    0 -0.22999858424E+03  0.39420591560E+01 -0.36572892156E+01  0.50123229842E+03  0.44531511611E+03 0.  0.
         25    1    1    2    0    0  0.22999858424E+03 -0.39420591560E+01 -0.15991329844E+03  0.30681372150E+03  0.12509000000E+03 0.  0.
         25    1    3    3    0    0 -0.21070153639E+03 -0.13755516115E+03  0.82334904883E+02  0.29281923512E+03  0.12509000000E+03 0.  0.
         25    1    3    3    0    0 -0.19297047845E+02  0.14149722030E+03 -0.85992194099E+02  0.20841306330E+03  0.12509000000E+03 0.  0.
<mgrwt>
<rscale>  2 0.79131728E+03</rscale>
<asrwt>0</asrwt>
<pdfrwt beam="1">  1       21 0.47387900E-01 0.79131728E+03</pdfrwt>
<pdfrwt beam="2">  1       21 0.71442397E-01 0.79131728E+03</pdfrwt>
<totfact> 0.61728583E+03</totfact>
</mgrwt>
</event>
<event>
 6    0  0.1191266E-005  0.8923328E+03  0.7546771E-02  0.9435217E-01
         21   -1    0    0  502  501  0.00000000000E+00  0.00000000000E+00  0.28548257104E+03  0.28548257104E+03  0.00000000000E+00 0. -1.
         21   -1    0    0  501  502 -0.00000000000E+00 -0.00000000000E+00 -0.69729105021E+03  0.69729105021E+03  0.00000000000E+00 0. -1.
      99926    2    1    2    0    0  0.10421226812E+03 -0.21654717107E+03 -0.49398656144E+03  0.69965947567E+03  0.43329872477E+03 0.  0.
         25    1    1    2    0    0 -0.10421226812E+03  0.21654717107E+03  0.82178082270E+02  0.28311414558E+03  0.12509000000E+03 0.  0.
         25    1    3    3    0    0 -0.83144602640E+02  0.38596208247E+02 -0.15844265950E+03  0.22170763787E+03  0.12509000000E+03 0.  0.
         25    1    3    3    0    0  0.18735687076E+03 -0.25514337932E+03 -0.33554390194E+03  0.47795183780E+03  0.12509000000E+03 0.  0.
<mgrwt>
<rscale>  2 0.89233277E+03</rscale>
<asrwt>0</asrwt>
<pdfrwt beam="1">  1       21 0.41982731E-01 0.89233277E+03</pdfrwt>
<pdfrwt beam="2">  1       21 0.10254280E+00 0.89233277E+03</pdfrwt>
<totfact> 0.33166151E+03</totfact>
</mgrwt>
</event>
<event>
 6    0  0.1191266E-005  0.6521442E+03  0.7546771E-02  0.9802764E-01
         21   -1    0    0  502  501  0.00000000000E+00  0.00000000000E+00  0.20908780917E+03  0.20908780917E+03  0.00000000000E+00 0. -1.
         21   -1    0    0  501  502 -0.00000000000E+00 -0.00000000000E+00 -0.50850891729E+03  0.50850891729E+03  0.00000000000E+00 0. -1.
      99926    2    1    2    0    0 -0.30226687946E+01  0.62990323080E+02 -0.34156630247E+03  0.57130714092E+03  0.45359386345E+03 0.  0.
         25    1    3    3    0    0  0.18644802594E+03  0.14412912699E+02 -0.18492165360E+03  0.29122864643E+03  0.12509000000E+03 0.  0.
         25    1    1    2    0    0  0.30226687946E+01 -0.62990323080E+02  0.42145194355E+02  0.14628958553E+03  0.12509000000E+03 0.  0.
         25    1    3    3    0    0 -0.18947069473E+03  0.48577410382E+02 -0.15664464887E+03  0.28007849450E+03  0.12509000000E+03 0.  0.
<mgrwt>
<rscale>  2 0.65214420E+03</rscale>
<asrwt>0</asrwt>
<pdfrwt beam="1">  1       21 0.30748207E-01 0.65214420E+03</pdfrwt>
<pdfrwt beam="2">  1       21 0.74780724E-01 0.65214420E+03</pdfrwt>
<totfact> 0.13945907E+04</totfact>
</mgrwt>
</event>
<event>
 6    0  0.1191266E-005  0.6466721E+03  0.7546771E-02  0.9813044E-01
         21   -1    0    0  502  501  0.00000000000E+00  0.00000000000E+00  0.15352271550E+03  0.15352271550E+03  0.00000000000E+00 0. -1.
         21   -1    0    0  501  502 -0.00000000000E+00 -0.00000000000E+00 -0.68098195311E+03  0.68098195311E+03  0.00000000000E+00 0. -1.
      99926    2    1    2    0    0 -0.99724561912E+02 -0.95491509351E+02 -0.42907873613E+03  0.62381568509E+03  0.43124683252E+03 0.  0.
         25    1    1    2    0    0  0.99724561912E+02  0.95491509351E+02 -0.98380501476E+02  0.21068898352E+03  0.12509000000E+03 0.  0.
         25    1    3    3    0    0 -0.84570111181E+02  0.12516634072E+03 -0.22021700477E+03  0.29489278364E+03  0.12509000000E+03 0.  0.
         25    1    3    3    0    0 -0.15154450731E+02 -0.22065785007E+03 -0.20886173136E+03  0.32892290145E+03  0.12509000000E+03 0.  0.
<mgrwt>
<rscale>  2 0.64667209E+03</rscale>
<asrwt>0</asrwt>
<pdfrwt beam="1">  1       21 0.22576870E-01 0.64667209E+03</pdfrwt>
<pdfrwt beam="2">  1       21 0.10014441E+00 0.64667209E+03</pdfrwt>
<totfact> 0.12846528E+04</totfact>
</mgrwt>
</event>
<event>
 6    0  0.1191266E-005  0.1242991E+04  0.7546771E-02  0.9076037E-01
         21   -1    0    0  502  501  0.00000000000E+00  0.00000000000E+00  0.44192679160E+03  0.44192679160E+03  0.00000000000E+00 0.  1.
         21   -1    0    0  501  502 -0.00000000000E+00 -0.00000000000E+00 -0.87402802882E+03  0.87402802882E+03  0.00000000000E+00 0.  1.
      99926    2    1    2    0    0 -0.50045233509E+01 -0.29401214875E+03 -0.71046812723E+03  0.89215790866E+03  0.45245174915E+03 0.  0.
         25    1    3    3    0    0 -0.17310266689E+03 -0.68710412157E+02 -0.22751940427E+03  0.31952815438E+03  0.12509000000E+03 0.  0.
         25    1    1    2    0    0  0.50045233509E+01  0.29401214875E+03  0.27836689002E+03  0.42379691177E+03  0.12509000000E+03 0.  0.
         25    1    3    3    0    0  0.16809814354E+03 -0.22530173659E+03 -0.48294872296E+03  0.57262975427E+03  0.12509000000E+03 0.  0.
<mgrwt>
<rscale>  2 0.12429906E+04</rscale>
<asrwt>0</asrwt>
<pdfrwt beam="1">  1       21 0.64989235E-01 0.12429906E+04</pdfrwt>
<pdfrwt beam="2">  1       21 0.12853353E+00 0.12429906E+04</pdfrwt>
<totfact> 0.67711587E+02</totfact>
</mgrwt>
</event>
<event>
 6    0  0.1191266E-005  0.5941135E+03  0.7546771E-02  0.9917694E-01
         21   -1    0    0  502  501  0.00000000000E+00  0.00000000000E+00  0.88304571089E+02  0.88304571089E+02  0.00000000000E+00 0.  1.
         21   -1    0    0  501  502 -0.00000000000E+00 -0.00000000000E+00 -0.99929961358E+03  0.99929961358E+03  0.00000000000E+00 0.  1.
      99926    2    1    2    0    0 -0.73132351911E+02  0.23799782660E+02 -0.75697497762E+03  0.87480273018E+03  0.43168730515E+03 0.  0.
         25    1    3    3    0    0 -0.22125651009E+00 -0.15578353547E+03 -0.43534469798E+03  0.47900007624E+03  0.12509000000E+03 0.  0.
         25    1    1    2    0    0  0.73132351911E+02 -0.23799782660E+02 -0.15402006487E+03  0.21280145449E+03  0.12509000000E+03 0.  0.
         25    1    3    3    0    0 -0.72911095401E+02  0.17958331813E+03 -0.32163027964E+03  0.39580265394E+03  0.12509000000E+03 0.  0.
<mgrwt>
<rscale>  2 0.59411354E+03</rscale>
<asrwt>0</asrwt>
<pdfrwt beam="1">  1       21 0.12985967E-01 0.59411354E+03</pdfrwt>
<pdfrwt beam="2">  1       21 0.14695582E+00 0.59411354E+03</pdfrwt>
<totfact> 0.13747583E+04</totfact>
</mgrwt>
</event>
<event>
 6    0  0.1191266E-005  0.6293757E+03  0.7546771E-02  0.9846268E-01
         21   -1    0    0  502  501  0.00000000000E+00  0.00000000000E+00  0.52701891722E+03  0.52701891722E+03  0.00000000000E+00 0. -1.
         21   -1    0    0  501  502 -0.00000000000E+00 -0.00000000000E+00 -0.18790302211E+03  0.18790302211E+03  0.00000000000E+00 0. -1.
      99926    2    1    2    0    0  0.28833463113E+02  0.91427940016E+01  0.12878921494E+03  0.46834582579E+03  0.44927295865E+03 0.  0.
         25    1    1    2    0    0 -0.28833463113E+02 -0.91427940016E+01  0.21032668017E+03  0.24657611354E+03  0.12509000000E+03 0.  0.
         25    1    3    3    0    0  0.60224646465E+01 -0.15858434709E+03  0.15712500252E+03  0.25597077907E+03  0.12509000000E+03 0.  0.
         25    1    3    3    0    0  0.22810998467E+02  0.16772714109E+03 -0.28335787584E+02  0.21237504671E+03  0.12509000000E+03 0.  0.
<mgrwt>
<rscale>  2 0.62937571E+03</rscale>
<asrwt>0</asrwt>
<pdfrwt beam="1">  1       21 0.77502781E-01 0.62937571E+03</pdfrwt>
<pdfrwt beam="2">  1       21 0.27632798E-01 0.62937571E+03</pdfrwt>
<totfact> 0.15961002E+04</totfact>
</mgrwt>
</event>
<event>
 6    0  0.1191266E-005  0.7799707E+03  0.7546771E-02  0.9589470E-01
         21   -1    0    0  502  501  0.00000000000E+00  0.00000000000E+00  0.28216765604E+03  0.28216765604E+03  0.00000000000E+00 0. -1.
         21   -1    0    0  501  502 -0.00000000000E+00 -0.00000000000E+00 -0.53900071979E+03  0.53900071979E+03  0.00000000000E+00 0. -1.
      99926    2    1    2    0    0 -0.19439466143E+03  0.13503688117E+03 -0.12777312073E+03  0.52396773542E+03  0.44965761831E+03 0.  0.
         25    1    3    3    0    0 -0.17062626264E+03 -0.79914767122E+02 -0.15271852565E+03  0.27289219058E+03  0.12509000000E+03 0.  0.
         25    1    3    3    0    0 -0.23768398787E+02  0.21495164830E+03  0.24945404919E+02  0.25107554483E+03  0.12509000000E+03 0.  0.
         25    1    1    2    0    0  0.19439466143E+03 -0.13503688117E+03 -0.12905994303E+03  0.29720064041E+03  0.12509000000E+03 0.  0.
<mgrwt>
<rscale>  2 0.77997069E+03</rscale>
<asrwt>0</asrwt>
<pdfrwt beam="1">  1       21 0.41495244E-01 0.77997069E+03</pdfrwt>
<pdfrwt beam="2">  1       21 0.79264811E-01 0.77997069E+03</pdfrwt>
<totfact> 0.64415121E+03</totfact>
</mgrwt>
</event>
<event>
 6    0  0.1191266E-005  0.7239517E+03  0.7546771E-02  0.9677126E-01
         21   -1    0    0  502  501  0.00000000000E+00  0.00000000000E+00  0.78320315269E+03  0.78320315269E+03  0.00000000000E+00 0. -1.
         21   -1    0    0  501  502 -0.00000000000E+00 -0.00000000000E+00 -0.16729569918E+03  0.16729569918E+03  0.00000000000E+00 0. -1.
      99926    2    1    2    0    0  0.12542158204E+03  0.10282399669E+03  0.56292757999E+03  0.73893864144E+03  0.45037707309E+03 0.  0.
         25    1    3    3    0    0 -0.86956263630E+02  0.80872839141E+02  0.67628192487E+02  0.18526437438E+03  0.12509000000E+03 0.  0.
         25    1    3    3    0    0  0.21237784567E+03  0.21951157553E+02  0.49529938750E+03  0.55367426706E+03  0.12509000000E+03 0.  0.
         25    1    1    2    0    0 -0.12542158204E+03 -0.10282399669E+03  0.52979873523E+02  0.21156021042E+03  0.12509000000E+03 0.  0.
<mgrwt>
<rscale>  2 0.72395171E+03</rscale>
<asrwt>0</asrwt>
<pdfrwt beam="1">  1       21 0.11517693E+00 0.72395171E+03</pdfrwt>
<pdfrwt beam="2">  1       21 0.24602309E-01 0.72395171E+03</pdfrwt>
<totfact> 0.75457099E+03</totfact>
</mgrwt>
</event>
<event>
 6    0  0.1191266E-005  0.6843164E+03  0.7546771E-02  0.9744436E-01
         21   -1    0    0  502  501  0.00000000000E+00  0.00000000000E+00  0.34246986413E+03  0.34246986413E+03  0.00000000000E+00 0.  1.
         21   -1    0    0  501  502 -0.00000000000E+00 -0.00000000000E+00 -0.34184684935E+03  0.34184684935E+03  0.00000000000E+00 0.  1.
      99926    2    1    2    0    0 -0.47440871195E+01  0.15743334200E+03 -0.37030901941E+01  0.48313523615E+03  0.45672549743E+03 0.  0.
         25    1    3    3    0    0  0.18183794075E+03  0.36263655519E+02 -0.33531339645E+02  0.22616796468E+03  0.12509000000E+03 0.  0.
         25    1    3    3    0    0 -0.18658202787E+03  0.12116968648E+03  0.29828249451E+02  0.25696727148E+03  0.12509000000E+03 0.  0.
         25    1    1    2    0    0  0.47440871195E+01 -0.15743334200E+03  0.43261049702E+01  0.20118147733E+03  0.12509000000E+03 0.  0.
<mgrwt>
<rscale>  2 0.68431643E+03</rscale>
<asrwt>0</asrwt>
<pdfrwt beam="1">  1       21 0.50363216E-01 0.68431643E+03</pdfrwt>
<pdfrwt beam="2">  1       21 0.50271595E-01 0.68431643E+03</pdfrwt>
<totfact> 0.12029999E+04</totfact>
</mgrwt>
</event>
<event>
 6    0  0.1191266E-005  0.6766591E+03  0.7546771E-02  0.9758002E-01
         21   -1    0    0  502  501  0.00000000000E+00  0.00000000000E+00  0.48464910776E+02  0.48464910776E+02  0.00000000000E+00 0.  1.
         21   -1    0    0  501  502 -0.00000000000E+00 -0.00000000000E+00 -0.23618506376E+04  0.23618506376E+04  0.00000000000E+00 0.  1.
      99926    2    1    2    0    0  0.32807690462E+02  0.10007172836E+03 -0.20226525684E+04  0.20767530012E+04  0.45900862760E+03 0.  0.
         25    1    1    2    0    0 -0.32807690462E+02 -0.10007172836E+03 -0.29073315850E+03  0.33356254724E+03  0.12509000000E+03 0.  0.
         25    1    3    3    0    0  0.54583377076E+02  0.12879330467E+03 -0.33413099880E+03  0.38322068425E+03  0.12509000000E+03 0.  0.
         25    1    3    3    0    0 -0.21775686613E+02 -0.28721576312E+02 -0.16885215696E+04  0.16935323169E+04  0.12509000000E+03 0.  0.
<mgrwt>
<rscale>  2 0.67665909E+03</rscale>
<asrwt>0</asrwt>
<pdfrwt beam="1">  1       21 0.71271936E-02 0.67665909E+03</pdfrwt>
<pdfrwt beam="2">  1       21 0.34733094E+00 0.67665909E+03</pdfrwt>
<totfact> 0.19459428E+03</totfact>
</mgrwt>
</event>
<event>
 6    0  0.1191266E-005  0.7043540E+03  0.7546771E-02  0.9709815E-01
         21   -1    0    0  502  501  0.00000000000E+00  0.00000000000E+00  0.82469182317E+03  0.82469182317E+03  0.00000000000E+00 0.  1.
         21   -1    0    0  501  502 -0.00000000000E+00 -0.00000000000E+00 -0.15039394040E+03  0.15039394040E+03  0.00000000000E+00 0.  1.
      99926    2    1    2    0    0  0.10505242628E+03  0.36523497444E+02  0.63517040975E+03  0.80318915110E+03  0.47885424179E+03 0.  0.
         25    1    3    3    0    0 -0.57438966756E+02  0.17256832278E+03  0.17632882343E+03  0.28252154432E+03  0.12509000000E+03 0.  0.
         25    1    1    2    0    0 -0.10505242628E+03 -0.36523497444E+02  0.39127473009E+02  0.17189661247E+03  0.12509000000E+03 0.  0.
         25    1    3    3    0    0  0.16249139304E+03 -0.13604482534E+03  0.45884158632E+03  0.52066760678E+03  0.12509000000E+03 0.  0.
<mgrwt>
<rscale>  2 0.70435404E+03</rscale>
<asrwt>0</asrwt>
<pdfrwt beam="1">  1       21 0.12127821E+00 0.70435404E+03</pdfrwt>
<pdfrwt beam="2">  1       21 0.22116756E-01 0.70435404E+03</pdfrwt>
<totfact> 0.81696497E+03</totfact>
</mgrwt>
</event>
<event>
 6    0  0.1191266E-005  0.7261618E+03  0.7546771E-02  0.9673509E-01
         21   -1    0    0  502  501  0.00000000000E+00  0.00000000000E+00  0.19570615192E+03  0.19570615192E+03  0.00000000000E+00 0. -1.
         21   -1    0    0  501  502 -0.00000000000E+00 -0.00000000000E+00 -0.67360033821E+03  0.67360033821E+03  0.00000000000E+00 0. -1.
      99926    2    1    2    0    0 -0.18659125765E+03  0.73712990503E+02 -0.30837622151E+03  0.57838768550E+03  0.44630316865E+03 0.  0.
         25    1    3    3    0    0 -0.29812632639E+02  0.20314572945E+03 -0.21343615597E+03  0.32149569396E+03  0.12509000000E+03 0.  0.
         25    1    3    3    0    0 -0.15677862501E+03 -0.12943273895E+03 -0.94940065533E+02  0.25689199154E+03  0.12509000000E+03 0.  0.
         25    1    1    2    0    0  0.18659125765E+03 -0.73712990503E+02 -0.16951796478E+03  0.29091880463E+03  0.12509000000E+03 0.  0.
<mgrwt>
<rscale>  2 0.72616177E+03</rscale>
<asrwt>0</asrwt>
<pdfrwt beam="1">  1       21 0.28780317E-01 0.72616177E+03</pdfrwt>
<pdfrwt beam="2">  1       21 0.99058872E-01 0.72616177E+03</pdfrwt>
<totfact> 0.80602146E+03</totfact>
</mgrwt>
</event>
<event>
 6    0  0.1191266E-005  0.7266184E+03  0.7546771E-02  0.9672764E-01
         21   -1    0    0  502  501  0.00000000000E+00  0.00000000000E+00  0.86430824772E+02  0.86430824772E+02  0.00000000000E+00 0. -1.
         21   -1    0    0  501  502 -0.00000000000E+00 -0.00000000000E+00 -0.15271586563E+04  0.15271586563E+04  0.00000000000E+00 0. -1.
      99926    2    1    2    0    0  0.14158208278E+02 -0.13070222211E+03 -0.13065319060E+04  0.13878914964E+04  0.44937029146E+03 0.  0.
         25    1    3    3    0    0  0.43336442606E+02 -0.17485724375E+03 -0.29666766280E+03  0.36893402282E+03  0.12509000000E+03 0.  0.
         25    1    3    3    0    0 -0.29178234328E+02  0.44155021640E+02 -0.10098642432E+04  0.10189574736E+04  0.12509000000E+03 0.  0.
         25    1    1    2    0    0 -0.14158208278E+02  0.13070222211E+03 -0.13419592553E+03  0.22569798460E+03  0.12509000000E+03 0.  0.
<mgrwt>
<rscale>  2 0.72661842E+03</rscale>
<asrwt>0</asrwt>
<pdfrwt beam="1">  1       21 0.12710415E-01 0.72661842E+03</pdfrwt>
<pdfrwt beam="2">  1       21 0.22458216E+00 0.72661842E+03</pdfrwt>
<totfact> 0.38919935E+03</totfact>
</mgrwt>
</event>
<event>
 6    0  0.1191266E-005  0.6445038E+03  0.7546771E-02  0.9817147E-01
         21   -1    0    0  502  501  0.00000000000E+00  0.00000000000E+00  0.47996259884E+03  0.47996259884E+03  0.00000000000E+00 0. -1.
         21   -1    0    0  501  502 -0.00000000000E+00 -0.00000000000E+00 -0.21636329476E+03  0.21636329476E+03  0.00000000000E+00 0. -1.
      99926    2    1    2    0    0  0.98366826108E+01 -0.11259143357E+03  0.15573371443E+03  0.49618573080E+03  0.45735511192E+03 0.  0.
         25    1    3    3    0    0  0.16540779005E+03  0.49047143488E+02  0.53401814968E+02  0.21969210553E+03  0.12509000000E+03 0.  0.
         25    1    3    3    0    0 -0.15557110743E+03 -0.16163857706E+03  0.10233189946E+03  0.27649362526E+03  0.12509000000E+03 0.  0.
         25    1    1    2    0    0 -0.98366826108E+01  0.11259143357E+03  0.10786558964E+03  0.20014016281E+03  0.12509000000E+03 0.  0.
<mgrwt>
<rscale>  2 0.64450381E+03</rscale>
<asrwt>0</asrwt>
<pdfrwt beam="1">  1       21 0.70582735E-01 0.64450381E+03</pdfrwt>
<pdfrwt beam="2">  1       21 0.31818132E-01 0.64450381E+03</pdfrwt>
<totfact> 0.14878544E+04</totfact>
</mgrwt>
</event>
<event>
 6    0  0.1191266E-005  0.7142713E+03  0.7546771E-02  0.9693133E-01
         21   -1    0    0  502  501  0.00000000000E+00  0.00000000000E+00  0.19557029728E+03  0.19557029728E+03  0.00000000000E+00 0.  1.
         21   -1    0    0  501  502 -0.00000000000E+00 -0.00000000000E+00 -0.65217410489E+03  0.65217410489E+03  0.00000000000E+00 0.  1.
      99926    2    1    2    0    0 -0.46537411518E+02 -0.44272837601E+02 -0.97577175684E+02  0.46216244545E+03  0.44715434242E+03 0.  0.
         25    1    3    3    0    0  0.16038318040E+03  0.43392847278E+01 -0.24379779695E+02  0.20489869620E+03  0.12509000000E+03 0.  0.
         25    1    3    3    0    0 -0.20692059192E+03 -0.48612122328E+02 -0.73197395989E+02  0.25726374925E+03  0.12509000000E+03 0.  0.
         25    1    1    2    0    0  0.46537411518E+02  0.44272837601E+02 -0.35902663192E+03  0.38558195672E+03  0.12509000000E+03 0.  0.
<mgrwt>
<rscale>  2 0.71427133E+03</rscale>
<asrwt>0</asrwt>
<pdfrwt beam="1">  1       21 0.28760338E-01 0.71427133E+03</pdfrwt>
<pdfrwt beam="2">  1       21 0.95907957E-01 0.71427133E+03</pdfrwt>
<totfact> 0.87531643E+03</totfact>
</mgrwt>
</event>
<event>
 6    0  0.1191266E-005  0.8612245E+03  0.7546771E-02  0.9475394E-01
         21   -1    0    0  502  501  0.00000000000E+00  0.00000000000E+00  0.18827373805E+03  0.18827373805E+03  0.00000000000E+00 0. -1.
         21   -1    0    0  501  502 -0.00000000000E+00 -0.00000000000E+00 -0.98487929541E+03  0.98487929541E+03  0.00000000000E+00 0. -1.
      99926    2    1    2    0    0 -0.24314509412E+03 -0.36235998848E+02 -0.28506667697E+03  0.59198858285E+03  0.45689702068E+03 0.  0.
         25    1    3    3    0    0 -0.10571514141E+03  0.15137960503E+03 -0.23356317573E+03  0.32294077027E+03  0.12509000000E+03 0.  0.
         25    1    1    2    0    0  0.24314509412E+03  0.36235998848E+02 -0.51153888039E+03  0.58116445062E+03  0.12509000000E+03 0.  0.
         25    1    3    3    0    0 -0.13742995270E+03 -0.18761560387E+03 -0.51503501233E+02  0.26904781259E+03  0.12509000000E+03 0.  0.
<mgrwt>
<rscale>  2 0.86122449E+03</rscale>
<asrwt>0</asrwt>
<pdfrwt beam="1">  1       21 0.27687315E-01 0.86122449E+03</pdfrwt>
<pdfrwt beam="2">  1       21 0.14483519E+00 0.86122449E+03</pdfrwt>
<totfact> 0.31809967E+03</totfact>
</mgrwt>
</event>
<event>
 6    0  0.1191266E-005  0.7170092E+03  0.7546771E-02  0.9688578E-01
         21   -1    0    0  502  501  0.00000000000E+00  0.00000000000E+00  0.12560959947E+04  0.12560959947E+04  0.00000000000E+00 0. -1.
         21   -1    0    0  501  502 -0.00000000000E+00 -0.00000000000E+00 -0.10232145114E+03  0.10232145114E+03  0.00000000000E+00 0. -1.
      99926    2    1    2    0    0 -0.67058011717E+01 -0.18444758387E+03  0.77641972151E+03  0.92011384239E+03  0.45794761715E+03 0.  0.
         25    1    3    3    0    0 -0.10804993252E+03 -0.26333269838E+03  0.43787666207E+03  0.53703107660E+03  0.12509000000E+03 0.  0.
         25    1    3    3    0    0  0.10134413135E+03  0.78885114512E+02  0.33854305944E+03  0.38308276579E+03  0.12509000000E+03 0.  0.
         25    1    1    2    0    0  0.67058011717E+01  0.18444758387E+03  0.37735482201E+03  0.43830360341E+03  0.12509000000E+03 0.  0.
<mgrwt>
<rscale>  2 0.71700925E+03</rscale>
<asrwt>0</asrwt>
<pdfrwt beam="1">  1       21 0.18471999E+00 0.71700925E+03</pdfrwt>
<pdfrwt beam="2">  1       21 0.15047273E-01 0.71700925E+03</pdfrwt>
<totfact> 0.52904581E+03</totfact>
</mgrwt>
</event>
<event>
 6    0  0.1191266E-005  0.6374829E+03  0.7546771E-02  0.9830554E-01
         21   -1    0    0  502  501  0.00000000000E+00  0.00000000000E+00  0.47594456167E+03  0.47594456167E+03  0.00000000000E+00 0.  1.
         21   -1    0    0  501  502 -0.00000000000E+00 -0.00000000000E+00 -0.21346207903E+03  0.21346207903E+03  0.00000000000E+00 0.  1.
      99926    2    1    2    0    0 -0.25486066699E+01 -0.91307309172E+02  0.11608980573E+03  0.47628262972E+03  0.45279662131E+03 0.  0.
         25    1    3    3    0    0  0.52494592741E+02  0.69894684887E+02  0.19768976100E+03  0.24973926193E+03  0.12509000000E+03 0.  0.
         25    1    1    2    0    0  0.25486066699E+01  0.91307309172E+02  0.14639267691E+03  0.21312401098E+03  0.12509000000E+03 0.  0.
         25    1    3    3    0    0 -0.55043199411E+02 -0.16120199406E+03 -0.81599955272E+02  0.22654336779E+03  0.12509000000E+03 0.  0.
<mgrwt>
<rscale>  2 0.63748291E+03</rscale>
<asrwt>0</asrwt>
<pdfrwt beam="1">  1       21 0.69991847E-01 0.63748291E+03</pdfrwt>
<pdfrwt beam="2">  1       21 0.31391482E-01 0.63748291E+03</pdfrwt>
<totfact> 0.15603950E+04</totfact>
</mgrwt>
</event>
<event>
 6    0  0.1191266E-005  0.8700565E+03  0.7546771E-02  0.9463806E-01
         21   -1    0    0  502  501  0.00000000000E+00  0.00000000000E+00  0.57885793468E+03  0.57885793468E+03  0.00000000000E+00 0. -1.
         21   -1    0    0  501  502 -0.00000000000E+00 -0.00000000000E+00 -0.32693613778E+03  0.32693613778E+03  0.00000000000E+00 0. -1.
      99926    2    1    2    0    0 -0.12471322630E+03  0.22095662463E+03 -0.10151863467E+02  0.52017077138E+03  0.45398166514E+03 0.  0.
         25    1    1    2    0    0  0.12471322630E+03 -0.22095662463E+03  0.26207366037E+03  0.38562330109E+03  0.12509000000E+03 0.  0.
         25    1    3    3    0    0 -0.55470151594E+02 -0.19141897215E+02  0.14521009709E+03  0.20044158836E+03  0.12509000000E+03 0.  0.
         25    1    3    3    0    0 -0.69243074709E+02  0.24009852185E+03 -0.15536196055E+03  0.31972918302E+03  0.12509000000E+03 0.  0.
<mgrwt>
<rscale>  2 0.87005650E+03</rscale>
<asrwt>0</asrwt>
<pdfrwt beam="1">  1       21 0.85126167E-01 0.87005650E+03</pdfrwt>
<pdfrwt beam="2">  1       21 0.48078844E-01 0.87005650E+03</pdfrwt>
<totfact> 0.39238711E+03</totfact>
</mgrwt>
</event>
<event>
 6    0  0.1191266E-005  0.6736909E+03  0.7546771E-02  0.9763313E-01
         21   -1    0    0  502  501  0.00000000000E+00  0.00000000000E+00  0.29692431936E+03  0.29692431936E+03  0.00000000000E+00 0.  1.
         21   -1    0    0  501  502 -0.00000000000E+00 -0.00000000000E+00 -0.38213394282E+03  0.38213394282E+03  0.00000000000E+00 0.  1.
      99926    2    1    2    0    0 -0.76919560016E+02 -0.84740049838E+02 -0.17888578296E+03  0.48535687933E+03  0.43643290688E+03 0.  0.
         25    1    3    3    0    0 -0.73303898522E+02  0.13512489255E+03 -0.76751879165E+02  0.21253366129E+03  0.12509000000E+03 0.  0.
         25    1    1    2    0    0  0.76919560016E+02  0.84740049838E+02  0.93676159502E+02  0.19370138285E+03  0.12509000000E+03 0.  0.
         25    1    3    3    0    0 -0.36156614935E+01 -0.21986494238E+03 -0.10213390380E+03  0.27282321804E+03  0.12509000000E+03 0.  0.
<mgrwt>
<rscale>  2 0.67369091E+03</rscale>
<asrwt>0</asrwt>
<pdfrwt beam="1">  1       21 0.43665341E-01 0.67369091E+03</pdfrwt>
<pdfrwt beam="2">  1       21 0.56196168E-01 0.67369091E+03</pdfrwt>
<totfact> 0.12824785E+04</totfact>
</mgrwt>
</event>
<event>
 6    0  0.1191266E-005  0.5749133E+03  0.7546771E-02  0.9958865E-01
         21   -1    0    0  502  501  0.00000000000E+00  0.00000000000E+00  0.54249192243E+03  0.54249192243E+03  0.00000000000E+00 0. -1.
         21   -1    0    0  501  502 -0.00000000000E+00 -0.00000000000E+00 -0.15231806622E+03  0.15231806622E+03  0.00000000000E+00 0. -1.
      99926    2    1    2    0    0 -0.15807399132E+02  0.13662901214E+02  0.37210286195E+03  0.56670605558E+03  0.42691763236E+03 0.  0.
         25    1    3    3    0    0 -0.10359503637E+03 -0.30687324645E+02  0.36180556301E+01  0.16533070459E+03  0.12509000000E+03 0.  0.
         25    1    1    2    0    0  0.15807399132E+02 -0.13662901214E+02  0.18070994255E+02  0.12810393308E+03  0.12509000000E+03 0.  0.
         25    1    3    3    0    0  0.87787637240E+02  0.44350225858E+02  0.36848480632E+03  0.40137535098E+03  0.12509000000E+03 0.  0.
<mgrwt>
<rscale>  2 0.57491328E+03</rscale>
<asrwt>0</asrwt>
<pdfrwt beam="1">  1       21 0.79778223E-01 0.57491328E+03</pdfrwt>
<pdfrwt beam="2">  1       21 0.22399716E-01 0.57491328E+03</pdfrwt>
<totfact> 0.22749415E+04</totfact>
</mgrwt>
</event>
<event>
 6    0  0.1191266E-005  0.7912305E+03  0.7546771E-02  0.9572798E-01
         21   -1    0    0  502  501  0.00000000000E+00  0.00000000000E+00  0.12024676225E+03  0.12024676225E+03  0.00000000000E+00 0. -1.
         21   -1    0    0  501  502 -0.00000000000E+00 -0.00000000000E+00 -0.13015854251E+04  0.13015854251E+04  0.00000000000E+00 0. -1.
      99926    2    1    2    0    0 -0.14685247271E+03  0.27651217951E+02 -0.11243916697E+04  0.12188033551E+04  0.44597617976E+03 0.  0.
         25    1    1    2    0    0  0.14685247271E+03 -0.27651217951E+02 -0.56946993152E+02  0.20302883225E+03  0.12509000000E+03 0.  0.
         25    1    3    3    0    0 -0.45350684829E+02  0.45911656409E+02 -0.10115038344E+04  0.10212502534E+04  0.12509000000E+03 0.  0.
         25    1    3    3    0    0 -0.10150178788E+03 -0.18260438458E+02 -0.11288783526E+03  0.19755310173E+03  0.12509000000E+03 0.  0.
<mgrwt>
<rscale>  2 0.79123052E+03</rscale>
<asrwt>0</asrwt>
<pdfrwt beam="1">  1       21 0.17683348E-01 0.79123052E+03</pdfrwt>
<pdfrwt beam="2">  1       21 0.19140961E+00 0.79123052E+03</pdfrwt>
<totfact> 0.34456212E+03</totfact>
</mgrwt>
</event>
<event>
 6    0  0.1191266E-005  0.6162119E+03  0.7546771E-02  0.9872331E-01
         21   -1    0    0  502  501  0.00000000000E+00  0.00000000000E+00  0.19782398805E+04  0.19782398805E+04  0.00000000000E+00 0.  1.
         21   -1    0    0  501  502 -0.00000000000E+00 -0.00000000000E+00 -0.47986738781E+02  0.47986738781E+02  0.00000000000E+00 0.  1.
      99926    2    1    2    0    0  0.50785078343E+02 -0.72350601347E+02  0.15325986561E+04  0.16000924483E+04  0.45124657178E+03 0.  0.
         25    1    3    3    0    0 -0.13958919043E+03 -0.10698649752E+03  0.93567596526E+03  0.96024386111E+03  0.12509000000E+03 0.  0.
         25    1    3    3    0    0  0.19037426877E+03  0.34635896176E+02  0.59692269087E+03  0.63984858716E+03  0.12509000000E+03 0.  0.
         25    1    1    2    0    0 -0.50785078343E+02  0.72350601347E+02  0.39765448564E+03  0.42613417106E+03  0.12509000000E+03 0.  0.
<mgrwt>
<rscale>  2 0.61621191E+03</rscale>
<asrwt>0</asrwt>
<pdfrwt beam="1">  1       21 0.29091758E+00 0.61621191E+03</pdfrwt>
<pdfrwt beam="2">  1       21 0.70568747E-02 0.61621191E+03</pdfrwt>
<totfact> 0.44864485E+03</totfact>
</mgrwt>
</event>
<event>
 6    0  0.1191266E-005  0.6144832E+03  0.7546771E-02  0.9875805E-01
         21   -1    0    0  502  501  0.00000000000E+00  0.00000000000E+00  0.10717020308E+04  0.10717020308E+04  0.00000000000E+00 0.  1.
         21   -1    0    0  501  502 -0.00000000000E+00 -0.00000000000E+00 -0.88081746994E+02  0.88081746994E+02  0.00000000000E+00 0.  1.
      99926    2    1    2    0    0  0.60536449219E+02  0.15967989822E+02  0.85859986310E+03  0.97217447079E+03  0.45167448274E+03 0.  0.
         25    1    1    2    0    0 -0.60536449219E+02 -0.15967989822E+02  0.12502042072E+03  0.18760930702E+03  0.12509000000E+03 0.  0.
         25    1    3    3    0    0 -0.33021340618E+02  0.18405915046E+03  0.46508446845E+03  0.51664228504E+03  0.12509000000E+03 0.  0.
         25    1    3    3    0    0  0.93557789838E+02 -0.16809116063E+03  0.39351539465E+03  0.45553218574E+03  0.12509000000E+03 0.  0.
<mgrwt>
<rscale>  2 0.61448316E+03</rscale>
<asrwt>0</asrwt>
<pdfrwt beam="1">  1       21 0.15760323E+00 0.61448316E+03</pdfrwt>
<pdfrwt beam="2">  1       21 0.12953199E-01 0.61448316E+03</pdfrwt>
<totfact> 0.11336123E+04</totfact>
</mgrwt>
</event>
<event>
 6    0  0.1191266E-005  0.6414898E+03  0.7546771E-02  0.9822880E-01
         21   -1    0    0  502  501  0.00000000000E+00  0.00000000000E+00  0.91938678919E+03  0.91938678919E+03  0.00000000000E+00 0. -1.
         21   -1    0    0  501  502 -0.00000000000E+00 -0.00000000000E+00 -0.11189772336E+03  0.11189772336E+03  0.00000000000E+00 0. -1.
      99926    2    1    2    0    0 -0.93218104760E+02  0.31613956231E+02  0.70348316275E+03  0.84114300404E+03  0.45049299183E+03 0.  0.
         25    1    3    3    0    0 -0.23454532274E+02 -0.16077124284E+03  0.21586236955E+03  0.29772735564E+03  0.12509000000E+03 0.  0.
         25    1    1    2    0    0  0.93218104760E+02 -0.31613956231E+02  0.10400590307E+03  0.19014150851E+03  0.12509000000E+03 0.  0.
         25    1    3    3    0    0 -0.69763572486E+02  0.19238519907E+03  0.48762079320E+03  0.54341564841E+03  0.12509000000E+03 0.  0.
<mgrwt>
<rscale>  2 0.64148979E+03</rscale>
<asrwt>0</asrwt>
<pdfrwt beam="1">  1       21 0.13520394E+00 0.64148979E+03</pdfrwt>
<pdfrwt beam="2">  1       21 0.16455548E-01 0.64148979E+03</pdfrwt>
<totfact> 0.10953987E+04</totfact>
</mgrwt>
</event>
