<event>
 5    0  0.7453427E-004  0.4805028E+03  0.7546771E-02  0.1018997E+00
         21   -1    0    0  502  501  0.00000000000E+00  0.00000000000E+00  0.25228742646E+03  0.25228742646E+03  0.00000000000E+00 0.  1.
         21   -1    0    0  501  502 -0.00000000000E+00 -0.00000000000E+00 -0.22878959177E+03  0.22878959177E+03  0.00000000000E+00 0. -1.
         25    1    1    2    0    0 -0.72422726642E+02 -0.49348635581E+02 -0.94644565250E+02  0.17968149877E+03  0.12509000000E+03 0.  0.
         25    1    1    2    0    0  0.69958542215E+02  0.48380147063E+02  0.52625659400E+02  0.16016180689E+03  0.12509000000E+03 0.  0.
         25    1    1    2    0    0  0.24641844275E+01  0.96848851729E+00  0.65516740541E+02  0.14123371257E+03  0.12509000000E+03 0.  0.
<mgrwt>
<rscale>  2 0.48050281E+03</rscale>
<asrwt>0</asrwt>
<pdfrwt beam="1">  1       21 0.37101092E-01 0.48050281E+03</pdfrwt>
<pdfrwt beam="2">  1       21 0.33645528E-01 0.48050281E+03</pdfrwt>
<totfact> 0.54674668E+04</totfact>
</mgrwt>
</event>
<event>
 5    0  0.7453427E-004  0.5662038E+03  0.7546771E-02  0.9978114E-01
         21   -1    0    0  502  501  0.00000000000E+00  0.00000000000E+00  0.79545536767E+02  0.79545536767E+02  0.00000000000E+00 0.  1.
         21   -1    0    0  501  502 -0.00000000000E+00 -0.00000000000E+00 -0.10075572720E+04  0.10075572720E+04  0.00000000000E+00 0.  1.
         25    1    1    2    0    0  0.41746872325E+02 -0.56015411972E+02 -0.33733755666E+03  0.36650329188E+03  0.12509000000E+03 0.  0.
         25    1    1    2    0    0 -0.15640923872E+03  0.65368828009E+02 -0.46090279142E+03  0.50676999208E+03  0.12509000000E+03 0.  0.
         25    1    1    2    0    0  0.11466236639E+03 -0.93534160367E+01 -0.12977138717E+03  0.21382952482E+03  0.12509000000E+03 0.  0.
<mgrwt>
<rscale>  2 0.56620379E+03</rscale>
<asrwt>0</asrwt>
<pdfrwt beam="1">  1       21 0.11697874E-01 0.56620379E+03</pdfrwt>
<pdfrwt beam="2">  1       21 0.14817018E+00 0.56620379E+03</pdfrwt>
<totfact> 0.16389801E+04</totfact>
</mgrwt>
</event>
<event>
 5    0  0.7453427E-004  0.6698366E+03  0.7546771E-02  0.9770253E-01
         21   -1    0    0  502  501  0.00000000000E+00  0.00000000000E+00  0.15790519363E+04  0.15790519363E+04  0.00000000000E+00 0.  1.
         21   -1    0    0  501  502 -0.00000000000E+00 -0.00000000000E+00 -0.71036465254E+02  0.71036465254E+02  0.00000000000E+00 0.  1.
         25    1    1    2    0    0 -0.16452903850E+03  0.17671147370E+03  0.88189197416E+03  0.92286386409E+03  0.12509000000E+03 0.  0.
         25    1    1    2    0    0  0.28968986127E+02 -0.58794610617E+02  0.16794170622E+03  0.21942637303E+03  0.12509000000E+03 0.  0.
         25    1    1    2    0    0  0.13556005237E+03 -0.11791686309E+03  0.45818179062E+03  0.50779816439E+03  0.12509000000E+03 0.  0.
<mgrwt>
<rscale>  2 0.66983660E+03</rscale>
<asrwt>0</asrwt>
<pdfrwt beam="1">  1       21 0.23221350E+00 0.66983660E+03</pdfrwt>
<pdfrwt beam="2">  1       21 0.10446540E-01 0.66983660E+03</pdfrwt>
<totfact> 0.50536601E+03</totfact>
</mgrwt>
</event>
<event>
 5    0  0.7453427E-004  0.4274872E+03  0.7546771E-02  0.1034657E+00
         21   -1    0    0  502  501  0.00000000000E+00  0.00000000000E+00  0.14252165998E+03  0.14252165998E+03  0.00000000000E+00 0.  1.
         21   -1    0    0  501  502 -0.00000000000E+00 -0.00000000000E+00 -0.32055706445E+03  0.32055706445E+03  0.00000000000E+00 0.  1.
         25    1    1    2    0    0 -0.18232889036E+02  0.75555312111E+02 -0.99476947759E+02  0.17771948308E+03  0.12509000000E+03 0.  0.
         25    1    1    2    0    0 -0.89418602211E+01 -0.12689988834E+02 -0.65767118887E+02  0.14217529570E+03  0.12509000000E+03 0.  0.
         25    1    1    2    0    0  0.27174749257E+02 -0.62865323277E+02 -0.12791337818E+02  0.14318394565E+03  0.12509000000E+03 0.  0.
<mgrwt>
<rscale>  2 0.42748719E+03</rscale>
<asrwt>0</asrwt>
<pdfrwt beam="1">  1       21 0.20959067E-01 0.42748719E+03</pdfrwt>
<pdfrwt beam="2">  1       21 0.47140745E-01 0.42748719E+03</pdfrwt>
<totfact> 0.85065813E+04</totfact>
</mgrwt>
</event>
<event>
 5    0  0.7453427E-004  0.7063564E+03  0.7546771E-02  0.9706423E-01
         21   -1    0    0  502  501  0.00000000000E+00  0.00000000000E+00  0.30833144356E+03  0.30833144356E+03  0.00000000000E+00 0. -1.
         21   -1    0    0  501  502 -0.00000000000E+00 -0.00000000000E+00 -0.40454794145E+03  0.40454794145E+03  0.00000000000E+00 0. -1.
         25    1    1    2    0    0  0.22798270123E+01  0.19366936445E+02 -0.70126871274E+02  0.14472581668E+03  0.12509000000E+03 0.  0.
         25    1    1    2    0    0 -0.12099242500E+03 -0.18034251753E+03 -0.15956247679E+03  0.29710315151E+03  0.12509000000E+03 0.  0.
         25    1    1    2    0    0  0.11871259799E+03  0.16097558109E+03  0.13347285018E+03  0.27105041683E+03  0.12509000000E+03 0.  0.
<mgrwt>
<rscale>  2 0.70635643E+03</rscale>
<asrwt>0</asrwt>
<pdfrwt beam="1">  1       21 0.45342860E-01 0.70635643E+03</pdfrwt>
<pdfrwt beam="2">  1       21 0.59492344E-01 0.70635643E+03</pdfrwt>
<totfact> 0.10387189E+04</totfact>
</mgrwt>
</event>
<event>
 5    0  0.7453427E-004  0.6336107E+03  0.7546771E-02  0.9838028E-01
         21   -1    0    0  502  501  0.00000000000E+00  0.00000000000E+00  0.48416462754E+03  0.48416462754E+03  0.00000000000E+00 0. -1.
         21   -1    0    0  501  502 -0.00000000000E+00 -0.00000000000E+00 -0.20729650218E+03  0.20729650218E+03  0.00000000000E+00 0.  1.
         25    1    1    2    0    0  0.17212464411E+03  0.36160983862E+02 -0.65230146355E+02  0.22547059666E+03  0.12509000000E+03 0.  0.
         25    1    1    2    0    0 -0.53422867903E+02 -0.76195915835E+01  0.10807340191E+03  0.17389488000E+03  0.12509000000E+03 0.  0.
         25    1    1    2    0    0 -0.11870177621E+03 -0.28541392278E+02  0.23402486981E+03  0.29209565306E+03  0.12509000000E+03 0.  0.
<mgrwt>
<rscale>  2 0.63361071E+03</rscale>
<asrwt>0</asrwt>
<pdfrwt beam="1">  1       21 0.71200680E-01 0.63361071E+03</pdfrwt>
<pdfrwt beam="2">  1       21 0.30484780E-01 0.63361071E+03</pdfrwt>
<totfact> 0.15929770E+04</totfact>
</mgrwt>
</event>
