<event>
 5    0  0.7453427E-004  0.6924291E+03  0.7546771E-02  0.9730268E-01
         21   -1    0    0  502  501  0.00000000000E+00  0.00000000000E+00  0.25001775646E+03  0.25001775646E+03  0.00000000000E+00 0.  1.
         21   -1    0    0  501  502 -0.00000000000E+00 -0.00000000000E+00 -0.47942394358E+03  0.47942394358E+03  0.00000000000E+00 0. -1.
         25    1    1    2    0    0  0.55477631637E+02  0.74510085763E+02 -0.34659275368E+02  0.15961921551E+03  0.12509000000E+03 0.  0.
         25    1    1    2    0    0 -0.21462735092E+03 -0.17418328769E+03 -0.15504582095E+03  0.34072192792E+03  0.12509000000E+03 0.  0.
         25    1    1    2    0    0  0.15914971928E+03  0.99673201928E+02 -0.39701090805E+02  0.22910055661E+03  0.12509000000E+03 0.  0.
<mgrwt>
<rscale>  2 0.69242905E+03</rscale>
<asrwt>0</asrwt>
<pdfrwt beam="1">  1       21 0.36767318E-01 0.69242905E+03</pdfrwt>
<pdfrwt beam="2">  1       21 0.70503520E-01 0.69242905E+03</pdfrwt>
<totfact> 0.11016601E+04</totfact>
</mgrwt>
</event>
<event>
 5    0  0.7453427E-004  0.5496668E+03  0.7546771E-02  0.1001571E+00
         21   -1    0    0  502  501  0.00000000000E+00  0.00000000000E+00  0.49646447516E+03  0.49646447516E+03  0.00000000000E+00 0.  1.
         21   -1    0    0  501  502 -0.00000000000E+00 -0.00000000000E+00 -0.15214261478E+03  0.15214261478E+03  0.00000000000E+00 0.  1.
         25    1    1    2    0    0  0.11191263963E+03  0.92745436601E+02  0.94293772372E+02  0.21369365580E+03  0.12509000000E+03 0.  0.
         25    1    1    2    0    0 -0.88883981621E+02 -0.83614403952E+02  0.25284908529E+03  0.30736281293E+03  0.12509000000E+03 0.  0.
         25    1    1    2    0    0 -0.23028658008E+02 -0.91310326494E+01 -0.28209972837E+01  0.12755062122E+03  0.12509000000E+03 0.  0.
<mgrwt>
<rscale>  2 0.54966682E+03</rscale>
<asrwt>0</asrwt>
<pdfrwt beam="1">  1       21 0.73009481E-01 0.54966682E+03</pdfrwt>
<pdfrwt beam="2">  1       21 0.22373914E-01 0.54966682E+03</pdfrwt>
<totfact> 0.28101705E+04</totfact>
</mgrwt>
</event>
<event>
 5    0  0.7453427E-004  0.1025124E+04  0.7546771E-02  0.9281411E-01
         21   -1    0    0  502  501  0.00000000000E+00  0.00000000000E+00  0.18943755261E+03  0.18943755261E+03  0.00000000000E+00 0.  1.
         21   -1    0    0  501  502 -0.00000000000E+00 -0.00000000000E+00 -0.13868405858E+04  0.13868405858E+04  0.00000000000E+00 0. -1.
         25    1    1    2    0    0 -0.17267560815E+03  0.25229159550E+03 -0.31568373997E+03  0.45691536043E+03  0.12509000000E+03 0.  0.
         25    1    1    2    0    0  0.27606387323E+03 -0.37738740484E+03 -0.64165598084E+03  0.80374275815E+03  0.12509000000E+03 0.  0.
         25    1    1    2    0    0 -0.10338826508E+03  0.12509580934E+03 -0.24006331234E+03  0.31562001980E+03  0.12509000000E+03 0.  0.
<mgrwt>
<rscale>  2 0.10251238E+04</rscale>
<asrwt>0</asrwt>
<pdfrwt beam="1">  1       21 0.27858463E-01 0.10251238E+04</pdfrwt>
<pdfrwt beam="2">  1       21 0.20394715E+00 0.10251238E+04</pdfrwt>
<totfact> 0.11108093E+03</totfact>
</mgrwt>
</event>
<event>
 5    0  0.7453427E-004  0.5320456E+03  0.7546771E-02  0.1005737E+00
         21   -1    0    0  502  501  0.00000000000E+00  0.00000000000E+00  0.35837730923E+03  0.35837730923E+03  0.00000000000E+00 0.  1.
         21   -1    0    0  501  502 -0.00000000000E+00 -0.00000000000E+00 -0.19746818695E+03  0.19746818695E+03  0.00000000000E+00 0. -1.
         25    1    1    2    0    0  0.49879691257E+02 -0.42286025595E+02 -0.26489376392E+02  0.14361506440E+03  0.12509000000E+03 0.  0.
         25    1    1    2    0    0 -0.14794760542E+03  0.53880704059E+02  0.14311212902E+03  0.24682020539E+03  0.12509000000E+03 0.  0.
         25    1    1    2    0    0  0.98067914160E+02 -0.11594678464E+02  0.44286369648E+02  0.16541022639E+03  0.12509000000E+03 0.  0.
<mgrwt>
<rscale>  2 0.53204555E+03</rscale>
<asrwt>0</asrwt>
<pdfrwt beam="1">  1       21 0.52702545E-01 0.53204555E+03</pdfrwt>
<pdfrwt beam="2">  1       21 0.29039439E-01 0.53204555E+03</pdfrwt>
<totfact> 0.34826373E+04</totfact>
</mgrwt>
</event>
<event>
 5    0  0.7453427E-004  0.4908861E+03  0.7546771E-02  0.1016186E+00
         21   -1    0    0  502  501  0.00000000000E+00  0.00000000000E+00  0.63528048687E+03  0.63528048687E+03  0.00000000000E+00 0.  1.
         21   -1    0    0  501  502 -0.00000000000E+00 -0.00000000000E+00 -0.94827856413E+02  0.94827856413E+02  0.00000000000E+00 0.  1.
         25    1    1    2    0    0  0.93571888618E+02  0.20117787952E+02  0.31117477705E+03  0.34876592968E+03  0.12509000000E+03 0.  0.
         25    1    1    2    0    0 -0.61843875099E+02 -0.79066895881E+02  0.14565851012E+03  0.21665675291E+03  0.12509000000E+03 0.  0.
         25    1    1    2    0    0 -0.31728013519E+02  0.58949107929E+02  0.83619343295E+02  0.16468566070E+03  0.12509000000E+03 0.  0.
<mgrwt>
<rscale>  2 0.49088608E+03</rscale>
<asrwt>0</asrwt>
<pdfrwt beam="1">  1       21 0.93423599E-01 0.49088608E+03</pdfrwt>
<pdfrwt beam="2">  1       21 0.13945273E-01 0.49088608E+03</pdfrwt>
<totfact> 0.39049016E+04</totfact>
</mgrwt>
</event>
<event>
 5    0  0.7453427E-004  0.5830801E+03  0.7546771E-02  0.9941145E-01
         21   -1    0    0  502  501  0.00000000000E+00  0.00000000000E+00  0.13083964335E+04  0.13083964335E+04  0.00000000000E+00 0.  1.
         21   -1    0    0  501  502 -0.00000000000E+00 -0.00000000000E+00 -0.64961663480E+02  0.64961663480E+02  0.00000000000E+00 0.  1.
         25    1    1    2    0    0  0.19495485272E+03 -0.28904986423E+02  0.65138535034E+03  0.69194889665E+03  0.12509000000E+03 0.  0.
         25    1    1    2    0    0 -0.79854795254E+02  0.82879995620E+01  0.16925452364E+03  0.22525559069E+03  0.12509000000E+03 0.  0.
         25    1    1    2    0    0 -0.11510005747E+03  0.20616986861E+02  0.42279489608E+03  0.45615360969E+03  0.12509000000E+03 0.  0.
<mgrwt>
<rscale>  2 0.58308013E+03</rscale>
<asrwt>0</asrwt>
<pdfrwt beam="1">  1       21 0.19241122E+00 0.58308013E+03</pdfrwt>
<pdfrwt beam="2">  1       21 0.95531866E-02 0.58308013E+03</pdfrwt>
<totfact> 0.11126164E+04</totfact>
</mgrwt>
</event>
<event>
 5    0  0.7453427E-004  0.1685048E+04  0.7546771E-02  0.8769938E-01
         21   -1    0    0  502  501  0.00000000000E+00  0.00000000000E+00  0.40080624777E+03  0.40080624777E+03  0.00000000000E+00 0. -1.
         21   -1    0    0  501  502 -0.00000000000E+00 -0.00000000000E+00 -0.17710469061E+04  0.17710469061E+04  0.00000000000E+00 0.  1.
         25    1    1    2    0    0  0.29347994547E+03 -0.28128130904E+03 -0.45017667306E+03  0.61931914089E+03  0.12509000000E+03 0.  0.
         25    1    1    2    0    0  0.33926195689E+03 -0.21474769412E+03 -0.43596775464E+03  0.60574799935E+03  0.12509000000E+03 0.  0.
         25    1    1    2    0    0 -0.63274190236E+03  0.49602900316E+03 -0.48409623059E+03  0.94678601360E+03  0.12509000000E+03 0.  0.
<mgrwt>
<rscale>  2 0.16850480E+04</rscale>
<asrwt>0</asrwt>
<pdfrwt beam="1">  1       21 0.58942096E-01 0.16850480E+04</pdfrwt>
<pdfrwt beam="2">  1       21 0.26044807E+00 0.16850480E+04</pdfrwt>
<totfact> 0.87106261E+01</totfact>
</mgrwt>
</event>
